Protein in INSANE! Membrane UpperLeaflet>POPC=1.0 LowerLeaflet>POPC=1.0
11530
    1AU     AUC    1   5.244   5.298   6.012
    1AU     AUC    2   5.528   5.337   5.855
    1AU     AUC    3   5.518   5.336   6.184
    1AU     AUC    4   4.957   5.286   5.839
    1AU     AUC    5   4.983   5.285   6.196
    1AU     AUC    6   5.056   5.541   6.038
    1AU     AUC    7   5.379   5.571   6.018
    1AU     AUC    8   5.083   5.018   5.989
    1AU     AUC    9   5.447   5.063   6.025
    1AU     AUC   10   5.276   5.124   6.274
    1AU     AUC   11   5.235   5.458   6.298
    1AU     AUC   12   5.272   5.150   5.734
    1AU     AUC   13   5.237   5.477   5.745
    1AU     AUC   14   5.845   5.353   5.683
    1AU     AUC   15   5.877   5.369   6.044
    1AU     AUC   16   5.824   5.354   6.389
    1AU     AUC   17   4.663   5.270   5.669
    1AU     AUC   18   4.632   5.261   6.033
    1AU     AUC   19   4.677   5.250   6.387
    1AU     AUC   20   4.876   5.843   6.046
    1AU     AUC   21   5.216   5.910   6.009
    1AU     AUC   22   5.537   5.897   6.010
    1AU     AUC   23   4.914   4.704   5.946
    1AU     AUC   24   5.265   4.718   5.975
    1AU     AUC   25   5.630   4.769   6.007
    1AU     AUC   26   5.291   4.900   6.557
    1AU     AUC   27   5.241   5.246   6.617
    1AU     AUC   28   5.255   5.616   6.586
    1AU     AUC   29   5.305   4.967   5.434
    1AU     AUC   30   5.262   5.308   5.438
    1AU     AUC   31   5.237   5.665   5.453
    1AU     AUC   32   5.561   5.094   6.500
    1AU     AUC   33   5.542   5.464   6.527
    1AU     AUC   34   5.585   5.115   5.556
    1AU     AUC   35   5.592   5.493   5.526
    1AU     AUC   36   4.956   5.066   6.505
    1AU     AUC   37   4.959   5.428   6.520
    1AU     AUC   38   4.953   5.148   5.519
    1AU     AUC   39   4.921   5.488   5.525
    1AU     AUC   40   5.724   5.634   5.846
    1AU     AUC   41   5.705   5.624   6.223
    1AU     AUC   42   4.753   5.553   5.840
    1AU     AUC   43   4.754   5.561   6.237
    1AU     AUC   44   5.768   5.041   5.865
    1AU     AUC   45   5.754   5.054   6.179
    1AU     AUC   46   4.747   4.982   5.815
    1AU     AUC   47   4.779   4.970   6.159
    1AU     AUC   48   5.053   5.771   6.323
    1AU     AUC   49   5.402   5.784   6.311
    1AU     AUC   50   5.093   4.810   6.254
    1AU     AUC   51   5.470   4.791   6.287
    1AU     AUC   52   5.015   5.745   5.706
    1AU     AUC   53   5.410   5.774   5.700
    1AU     AUC   54   5.046   4.831   5.667
    1AU     AUC   55   5.447   4.837   5.698
    1AU    AUSL   56   5.787   5.211   6.830
    1AU    AUSL   57   5.691   4.747   6.690
    1AU     AUL   58   5.970   4.879   6.892
    1AU       S   59   6.058   4.502   6.618
    1AU     LIG   60   6.115   4.132   6.919
    1AU     LIG   61   6.347   3.789   7.191
    1AU       S   62   5.746   5.102   7.223
    1AU     LIG   63   6.079   5.215   7.491
    1AU     LIG   64   6.067   5.152   7.945
    1AU    AUSL   65   5.389   5.053   6.738
    1AU    AUSL   66   5.102   5.355   6.927
    1AU     AUL   67   5.314   5.256   7.121
    1AU       S   68   5.503   4.837   7.106
    1AU     LIG   69   5.591   4.841   7.602
    1AU     LIG   70   5.713   4.742   8.046
    1AU       S   71   4.584   5.129   7.205
    1AU     LIG   72   4.674   5.356   7.598
    1AU     LIG   73   4.625   5.446   8.051
    1AU    AUSL   74   5.434   5.498   6.712
    1AU    AUSL   75   5.857   5.559   6.584
    1AU     AUL   76   5.713   5.500   6.969
    1AU       S   77   5.311   5.759   7.070
    1AU     LIG   78   5.585   5.943   7.390
    1AU     LIG   79   5.866   5.666   7.640
    1AU       S   80   6.096   5.648   6.746
    1AU     LIG   81   6.570   5.692   6.741
    1AU     LIG   82   6.762   5.963   7.085
    1AU    AUSL   83   5.858   5.356   5.308
    1AU    AUSL   84   5.642   5.853   5.300
    1AU     AUL   85   5.814   5.621   5.047
    1AU       S   86   5.824   5.181   4.852
    1AU     LIG   87   6.104   5.144   4.471
    1AU     LIG   88   6.196   4.989   4.027
    1AU       S   89   5.935   6.051   5.201
    1AU     LIG   90   6.075   6.457   4.999
    1AU     LIG   91   6.288   6.617   4.606
    1AU    AUSL   92   5.529   5.064   5.247
    1AU    AUSL   93   5.816   5.067   5.635
    1AU     AUL   94   5.969   5.062   5.270
    1AU       S   95   6.129   4.410   5.380
    1AU     LIG   96   6.387   4.105   5.095
    1AU     LIG   97   6.523   4.147   4.614
    1AU       S   98   5.576   4.918   4.997
    1AU     LIG   99   5.372   4.724   4.626
    1AU     LIG  100   5.624   4.654   4.213
    1AU    AUSL  101   5.433   5.480   5.329
    1AU    AUSL  102   5.134   5.146   5.107
    1AU     AUL  103   5.402   5.363   4.987
    1AU       S  104   4.959   5.222   4.798
    1AU     LIG  105   5.033   5.049   4.364
    1AU     LIG  106   4.639   4.953   4.092
    1AU       S  107   5.797   4.897   4.817
    1AU     LIG  108   5.599   5.128   4.412
    1AU     LIG  109   5.796   5.326   4.033
    1AU    AUSL  110   4.762   5.216   6.697
    1AU    AUSL  111   4.984   5.698   6.701
    1AU     AUL  112   4.857   5.522   6.989
    1AU       S  113   4.512   5.215   6.927
    1AU     LIG  114   4.273   5.511   7.258
    1AU     LIG  115   4.186   5.445   7.737
    1AU       S  116   4.611   5.903   6.854
    1AU     LIG  117   4.435   6.138   7.152
    1AU     LIG  118   4.205   6.449   7.408
    1AU    AUSL  119   5.025   4.913   6.915
    1AU    AUSL  120   4.552   4.861   6.577
    1AU     AUL  121   4.709   4.794   6.854
    1AU       S  122   4.337   4.551   6.680
    1AU     LIG  123   3.978   4.339   6.885
    1AU     LIG  124   3.669   4.364   7.253
    1AU       S  125   4.839   5.072   7.198
    1AU     LIG  126   4.919   4.903   7.586
    1AU     LIG  127   4.660   4.939   7.956
    1AU    AUSL  128   4.719   5.229   5.235
    1AU    AUSL  129   4.999   4.922   5.451
    1AU     AUL  130   4.890   4.884   5.121
    1AU       S  131   4.563   5.162   4.926
    1AU     LIG  132   4.213   5.287   4.667
    1AU     LIG  133   4.143   5.302   4.199
    1AU       S  134   4.442   4.701   5.099
    1AU     LIG  135   4.400   4.261   4.967
    1AU     LIG  136   4.217   3.863   4.772
    1AU    AUSL  137   5.024   5.550   5.253
    1AU    AUSL  138   4.608   5.573   5.475
    1AU     AUL  139   4.732   5.565   5.074
    1AU       S  140   4.369   5.744   5.311
    1AU     LIG  141   4.079   6.056   5.153
    1AU     LIG  142   3.997   6.237   4.719
    1AU       S  143   4.680   5.051   4.711
    1AU     LIG  144   4.645   5.387   4.416
    1AU     LIG  145   4.590   5.459   3.977
    1AU    AUSL  146   5.929   5.975   5.998
    1AU    AUSL  147   5.961   5.702   5.558
    1AU     AUL  148   6.057   6.076   5.697
    1AU       S  149   6.156   5.741   5.369
    1AU     LIG  150   6.498   5.704   5.043
    1AU     LIG  151   6.471   6.114   4.791
    1AU       S  152   6.452   5.950   5.978
    1AU     LIG  153   6.808   6.225   5.971
    1AU     LIG  154   7.122   6.450   5.704
    1AU    AUSL  155   5.985   5.473   5.913
    1AU    AUSL  156   6.158   5.248   6.279
    1AU     AUL  157   6.396   5.353   6.114
    1AU       S  158   6.329   5.708   5.841
    1AU     LIG  159   6.655   5.754   5.560
    1AU     LIG  160   7.087   5.858   5.689
    1AU       S  161   6.493   4.902   6.167
    1AU     LIG  162   6.816   4.700   6.371
    1AU     LIG  163   7.198   4.451   6.280
    1AU    AUSL  164   6.106   5.682   6.268
    1AU    AUSL  165   5.651   5.815   6.285
    1AU     AUL  166   5.975   5.961   6.393
    1AU       S  167   6.140   5.912   6.854
    1AU     LIG  168   6.505   6.203   6.709
    1AU     LIG  169   6.894   6.439   6.898
    1AU       S  170   6.388   5.820   6.193
    1AU     LIG  171   6.886   5.774   6.234
    1AU     LIG  172   7.366   5.764   6.420
    1AU    AUSL  173   4.612   5.740   6.093
    1AU    AUSL  174   4.609   5.570   6.509
    1AU     AUL  175   4.343   5.865   6.297
    1AU       S  176   4.485   5.657   6.709
    1AU     LIG  177   4.094   5.828   6.879
    1AU     LIG  178   3.928   6.056   7.232
    1AU       S  179   4.550   6.237   6.087
    1AU     LIG  180   4.112   6.388   5.957
    1AU     LIG  181   3.866   6.342   5.575
    1AU    AUSL  182   4.475   5.413   5.840
    1AU    AUSL  183   4.599   5.949   5.725
    1AU     AUL  184   4.339   5.744   5.791
    1AU       S  185   4.191   5.332   5.506
    1AU     LIG  186   3.814   5.693   5.454
    1AU     LIG  187   3.441   6.007   5.587
    1AU       S  188   4.423   6.166   5.562
    1AU     LIG  189   4.330   6.485   5.276
    1AU     LIG  190   3.928   6.597   5.102
    1AU    AUSL  191   4.307   5.412   6.249
    1AU    AUSL  192   4.294   5.033   5.907
    1AU     AUL  193   4.116   5.357   5.969
    1AU       S  194   4.040   4.929   6.153
    1AU     LIG  195   3.599   4.865   6.020
    1AU     LIG  196   3.322   4.649   5.731
    1AU       S  197   4.108   5.465   6.459
    1AU     LIG  198   3.721   5.721   6.467
    1AU     LIG  199   3.352   5.997   6.385
    1AU    AUSL  200   6.009   4.923   6.031
    1AU    AUSL  201   5.790   5.083   6.420
    1AU     AUL  202   6.125   4.967   6.454
    1AU       S  203   6.309   4.796   6.059
    1AU     LIG  204   6.399   4.373   6.002
    1AU     LIG  205   6.533   4.217   5.603
    1AU       S  206   6.281   4.512   6.464
    1AU     LIG  207   6.520   4.436   6.825
    1AU     LIG  208   6.470   4.298   7.261
    1AU    AUSL  209   6.218   5.174   5.723
    1AU    AUSL  210   5.846   4.593   5.807
    1AU     AUL  211   6.111   4.825   5.648
    1AU       S  212   6.506   4.972   5.856
    1AU     LIG  213   6.810   4.644   5.852
    1AU     LIG  214   7.196   4.414   5.736
    1AU       S  215   6.007   4.366   5.667
    1AU     LIG  216   6.056   3.945   5.530
    1AU     LIG  217   6.105   3.660   5.189
    1AU    AUSL  218   4.665   4.762   5.950
    1AU    AUSL  219   4.584   5.035   5.587
    1AU     AUL  220   4.320   4.759   5.770
    1AU       S  221   4.388   4.897   5.322
    1AU     LIG  222   3.985   4.606   5.251
    1AU     LIG  223   3.872   4.210   5.042
    1AU       S  224   3.969   4.751   6.365
    1AU     LIG  225   3.878   4.423   6.038
    1AU     LIG  226   3.724   4.274   5.603
    1AU    AUSL  227   4.583   5.091   6.228
    1AU    AUSL  228   4.717   4.550   6.320
    1AU     AUL  229   4.439   4.686   6.233
    1AU       S  230   4.502   4.337   6.536
    1AU     LIG  231   4.230   3.953   6.655
    1AU     LIG  232   3.846   3.710   6.826
    1AU       S  233   4.127   4.993   6.378
    1AU     LIG  234   3.678   5.160   6.442
    1AU     LIG  235   3.258   4.949   6.442
    1AU    AUSL  236   5.242   5.953   6.467
    1AU    AUSL  237   4.788   5.966   6.416
    1AU     AUL  238   5.053   6.051   6.736
    1AU       S  239   4.606   6.137   6.595
    1AU     LIG  240   4.186   6.338   6.746
    1AU     LIG  241   3.842   6.566   6.989
    1AU       S  242   5.206   6.448   6.514
    1AU     LIG  243   5.419   6.833   6.754
    1AU     LIG  244   5.388   7.314   6.840
    1AU    AUSL  245   5.036   6.196   6.154
    1AU    AUSL  246   5.346   6.218   5.777
    1AU     AUL  247   5.072   6.458   5.926
    1AU       S  248   5.274   6.631   6.329
    1AU     LIG  249   5.184   7.057   6.364
    1AU     LIG  250   4.838   7.142   6.634
    1AU       S  251   5.278   6.466   5.490
    1AU     LIG  252   5.574   6.836   5.657
    1AU     LIG  253   5.856   7.232   5.581
    1AU    AUSL  254   5.491   6.192   6.181
    1AU    AUSL  255   5.588   5.894   6.717
    1AU     AUL  256   5.571   6.158   6.530
    1AU       S  257   5.845   5.951   6.881
    1AU     LIG  258   6.022   6.251   7.191
    1AU     LIG  259   6.471   6.406   7.192
    1AU       S  260   5.476   6.475   6.194
    1AU     LIG  261   5.676   6.885   6.207
    1AU     LIG  262   5.764   7.178   6.519
    1AU    AUSL  263   5.342   4.575   6.494
    1AU    AUSL  264   5.755   4.669   6.267
    1AU     AUL  265   5.606   4.401   6.570
    1AU       S  266   4.854   4.008   6.463
    1AU     LIG  267   4.831   3.685   6.765
    1AU     LIG  268   5.114   3.345   6.949
    1AU       S  269   5.993   4.488   6.294
    1AU     LIG  270   6.218   4.038   6.423
    1AU     LIG  271   6.549   3.897   6.744
    1AU    AUSL  272   5.094   4.552   6.135
    1AU    AUSL  273   5.009   4.842   6.496
    1AU     AUL  274   4.995   4.473   6.552
    1AU       S  275   4.888   4.130   6.200
    1AU     LIG  276   4.949   3.618   6.197
    1AU     LIG  277   4.889   3.259   6.484
    1AU       S  278   4.561   4.325   6.791
    1AU     LIG  279   4.434   4.013   7.107
    1AU     LIG  280   4.023   3.905   7.288
    1AU    AUSL  281   5.496   4.379   6.097
    1AU    AUSL  282   5.064   4.442   5.727
    1AU     AUL  283   5.261   4.229   5.949
    1AU       S  284   4.889   4.141   5.667
    1AU     LIG  285   4.843   3.671   5.717
    1AU     LIG  286   4.999   3.315   5.525
    1AU       S  287   5.151   4.038   6.394
    1AU     LIG  288   5.325   3.620   6.544
    1AU     LIG  289   5.629   3.361   6.813
    1AU    AUSL  290   5.257   5.923   5.466
    1AU    AUSL  291   5.599   5.865   5.760
    1AU     AUL  292   5.615   6.149   5.537
    1AU       S  293   5.251   6.183   5.236
    1AU     LIG  294   5.553   6.579   5.084
    1AU     LIG  295   5.599   7.043   5.175
    1AU       S  296   6.178   6.008   5.223
    1AU     LIG  297   6.492   6.315   5.275
    1AU     LIG  298   6.568   6.699   5.037
    1AU    AUSL  299   5.011   5.927   5.829
    1AU    AUSL  300   4.848   5.923   5.366
    1AU     AUL  301   4.901   6.172   5.584
    1AU       S  302   5.089   6.468   5.244
    1AU     LIG  303   5.115   6.933   5.388
    1AU     LIG  304   5.249   7.390   5.425
    1AU       S  305   4.581   6.015   5.246
    1AU     LIG  306   4.497   6.234   4.866
    1AU     LIG  307   4.316   6.660   4.760
    1AU    AUSL  308   5.280   4.616   5.374
    1AU    AUSL  309   4.710   4.610   5.551
    1AU     AUL  310   4.985   4.489   5.352
    1AU       S  311   4.508   4.591   5.357
    1AU     LIG  312   4.227   4.178   5.439
    1AU     LIG  313   3.965   3.784   5.308
    1AU       S  314   4.924   4.009   5.379
    1AU     LIG  315   4.903   3.622   5.133
    1AU     LIG  316   5.048   3.338   4.787
    1AU    AUSL  317   5.432   4.684   5.802
    1AU    AUSL  318   5.691   4.708   5.417
    1AU     AUL  319   5.541   4.397   5.580
    1AU       S  320   5.180   4.008   5.509
    1AU     LIG  321   5.418   3.607   5.502
    1AU     LIG  322   5.392   3.214   5.233
    1AU       S  323   5.893   4.557   5.298
    1AU     LIG  324   5.894   4.188   4.987
    1AU     LIG  325   6.114   3.848   4.704
    2POPC   NC3  326   3.448   8.786   8.025
    2POPC   PO4  327   3.992   8.316   8.184
    2POPC   GL1  328   3.853   8.640   7.700
    2POPC   GL2  329   3.484   8.662   7.548
    2POPC   C1A  330   3.818   8.740   7.214
    2POPC   D2A  331   3.728   8.458   6.934
    2POPC   C3A  332   3.503   8.436   6.576
    2POPC   C4A  333   3.594   8.569   6.198
    2POPC   C1B  334   3.256   8.635   7.214
    2POPC   C2B  335   3.243   8.806   6.859
    2POPC   C3B  336   3.167   8.783   6.469
    2POPC   C4B  337   3.199   8.886   6.069
    3POPC   NC3  338   1.179   5.047   8.115
    3POPC   PO4  339   0.565   4.672   8.196
    3POPC   GL1  340   0.872   4.809   7.759
    3POPC   GL2  341   1.065   5.097   7.644
    3POPC   C1A  342   1.124   4.685   7.361
    3POPC   D2A  343   0.969   4.825   6.951
    3POPC   C3A  344   1.070   4.619   6.570
    3POPC   C4A  345   1.129   4.794   6.156
    3POPC   C1B  346   1.353   5.161   7.330
    3POPC   C2B  347   1.465   5.028   6.932
    3POPC   C3B  348   1.286   5.069   6.568
    3POPC   C4B  349   1.407   5.222   6.197
    4POPC   NC3  350   9.432   1.847   8.132
    4POPC   PO4  351   8.940   2.229   7.894
    4POPC   GL1  352   9.110   1.920   7.649
    4POPC   GL2  353   9.449   1.784   7.634
    4POPC   C1A  354   9.186   2.023   7.235
    4POPC   D2A  355   9.298   1.843   6.843
    4POPC   C3A  356   9.473   2.087   6.510
    4POPC   C4A  357   9.664   2.276   6.166
    4POPC   C1B  358   9.393   1.544   7.280
    4POPC   C2B  359   9.710   1.594   6.988
    4POPC   C3B  360   9.710   1.630   6.553
    4POPC   C4B  361   9.917   1.456   6.216
    5POPC   NC3  362   0.196   7.799   8.383
    5POPC   PO4  363   0.026   7.328   8.067
    5POPC   GL1  364   0.217   7.588   7.647
    5POPC   GL2  365   0.296   7.953   7.515
    5POPC   C1A  366   0.382   7.598   7.176
    5POPC   D2A  367   0.600   7.789   6.820
    5POPC   C3A  368   0.572   7.672   6.358
    5POPC   C4A  369   0.249   7.739   6.004
    5POPC   C1B  370   0.337   8.303   7.275
    5POPC   C2B  371   0.445   8.281   6.876
    5POPC   C3B  372   0.282   8.066   6.532
    5POPC   C4B  373   0.395   8.173   6.164
    6POPC   NC3  374   2.951   1.529   8.181
    6POPC   PO4  375   3.592   1.714   8.235
    6POPC   GL1  376   3.618   1.476   7.864
    6POPC   GL2  377   3.606   1.107   7.849
    6POPC   C1A  378   3.500   1.523   7.458
    6POPC   D2A  379   3.525   1.686   7.047
    6POPC   C3A  380   3.683   1.524   6.644
    6POPC   C4A  381   3.489   1.452   6.229
    6POPC   C1B  382   3.386   1.030   7.444
    6POPC   C2B  383   3.521   1.184   7.020
    6POPC   C3B  384   3.391   1.080   6.584
    6POPC   C4B  385   3.607   0.975   6.177
    7POPC   NC3  386   8.555   9.179   8.099
    7POPC   PO4  387   9.036   9.523   8.332
    7POPC   GL1  388   8.872   9.464   7.812
    7POPC   GL2  389   8.727   9.165   7.622
    7POPC   C1A  390   8.714   9.633   7.421
    7POPC   D2A  391   8.640   9.666   6.972
    7POPC   C3A  392   8.745   9.389   6.658
    7POPC   C4A  393   8.704   9.528   6.253
    7POPC   C1B  394   8.452   9.213   7.264
    7POPC   C2B  395   8.382   9.060   6.867
    7POPC   C3B  396   8.228   9.200   6.502
    7POPC   C4B  397   8.293   9.319   6.074
    8POPC   NC3  398   6.196   0.446   8.176
    8POPC   PO4  399   6.703   0.034   7.991
    8POPC   GL1  400   6.582   0.350   7.643
    8POPC   GL2  401   6.297   0.535   7.695
    8POPC   C1A  402   6.517   0.493   7.207
    8POPC   D2A  403   6.303   0.721   6.873
    8POPC   C3A  404   6.490   0.684   6.473
    8POPC   C4A  405   6.739   0.548   6.109
    8POPC   C1B  406   6.220   0.098   7.429
    8POPC   C2B  407   6.342  10.454   7.010
    8POPC   C3B  408   6.404   0.190   6.621
    8POPC   C4B  409   6.283   0.292   6.194
    9POPC   NC3  410   9.035   4.781   8.176
    9POPC   PO4  411   8.621   5.267   7.975
    9POPC   GL1  412   8.898   5.144   7.687
    9POPC   GL2  413   8.704   4.846   7.661
    9POPC   C1A  414   8.876   5.156   7.240
    9POPC   D2A  415   8.661   5.002   6.877
    9POPC   C3A  416   8.740   4.885   6.491
    9POPC   C4A  417   8.812   4.982   6.078
    9POPC   C1B  418   8.535   4.750   7.292
    9POPC   C2B  419   8.275   4.694   6.931
    9POPC   C3B  420   8.312   4.586   6.481
    9POPC   C4B  421   8.387   4.718   6.046
   10POPC   NC3  422   4.246   9.437   7.945
   10POPC   PO4  423   3.630   9.234   8.169
   10POPC   GL1  424   3.801   9.570   7.689
   10POPC   GL2  425   4.173   9.602   7.467
   10POPC   C1A  426   3.750   9.544   7.218
   10POPC   D2A  427   4.042   9.454   6.872
   10POPC   C3A  428   3.790   9.488   6.496
   10POPC   C4A  429   3.954   9.490   6.040
   10POPC   C1B  430   4.450   9.291   7.182
   10POPC   C2B  431   4.635   9.012   6.854
   10POPC   C3B  432   4.481   8.846   6.488
   10POPC   C4B  433   4.217   9.229   6.407
   11POPC   NC3  434   9.844   5.488   8.333
   11POPC   PO4  435   9.634   5.227   7.802
   11POPC   GL1  436   9.887   5.327   7.520
   11POPC   GL2  437  10.126   5.525   7.705
   11POPC   C1A  438   9.774   5.202   7.112
   11POPC   D2A  439   9.712   5.502   6.807
   11POPC   C3A  440   9.640   5.400   6.387
   11POPC   C4A  441   9.815   5.646   6.081
   11POPC   C1B  442  10.316   5.698   7.350
   11POPC   C2B  443  10.117   5.881   6.958
   11POPC   C3B  444  10.077   5.759   6.536
   11POPC   C4B  445  10.287   5.831   6.146
   12POPC   NC3  446   6.312   1.551   8.258
   12POPC   PO4  447   5.982   2.120   8.281
   12POPC   GL1  448   6.323   1.896   7.895
   12POPC   GL2  449   6.531   2.126   7.705
   12POPC   C1A  450   6.260   1.750   7.416
   12POPC   D2A  451   6.458   1.706   6.976
   12POPC   C3A  452   6.226   1.611   6.578
   12POPC   C4A  453   6.234   1.695   6.152
   12POPC   C1B  454   6.444   2.209   7.253
   12POPC   C2B  455   6.657   2.182   6.857
   12POPC   C3B  456   6.594   1.938   6.500
   12POPC   C4B  457   6.618   1.997   6.073
   13POPC   NC3  458   1.409   0.917   8.062
   13POPC   PO4  459   2.083   0.851   8.044
   13POPC   GL1  460   1.969   1.081   7.664
   13POPC   GL2  461   2.274   1.259   7.662
   13POPC   C1A  462   1.695   1.082   7.295
   13POPC   D2A  463   1.624   0.814   6.891
   13POPC   C3A  464   1.875   0.862   6.471
   13POPC   C4A  465   1.750   0.781   6.003
   13POPC   C1B  466   2.132   1.391   7.277
   13POPC   C2B  467   1.985   1.206   6.896
   13POPC   C3B  468   1.812   1.350   6.515
   13POPC   C4B  469   2.002   1.205   6.097
   14POPC   NC3  470   7.165   2.055   8.123
   14POPC   PO4  471   6.724   1.476   8.096
   14POPC   GL1  472   6.849   1.720   7.725
   14POPC   GL2  473   7.202   1.822   7.667
   14POPC   C1A  474   6.850   1.876   7.286
   14POPC   D2A  475   6.973   1.755   6.868
   14POPC   C3A  476   7.074   2.054   6.548
   14POPC   C4A  477   7.060   1.808   6.240
   14POPC   C1B  478   7.364   1.684   7.260
   14POPC   C2B  479   7.627   1.571   6.896
   14POPC   C3B  480   7.514   1.761   6.514
   14POPC   C4B  481   7.518   2.058   6.181
   15POPC   NC3  482   6.373   9.215   8.136
   15POPC   PO4  483   6.926   9.618   8.144
   15POPC   GL1  484   6.649   9.645   7.770
   15POPC   GL2  485   6.445   9.361   7.656
   15POPC   C1A  486   6.522   9.755   7.334
   15POPC   D2A  487   6.540   9.569   6.916
   15POPC   C3A  488   6.533   9.817   6.546
   15POPC   C4A  489   6.491   9.783   6.104
   15POPC   C1B  490   6.250   9.253   7.244
   15POPC   C2B  491   6.059   9.373   6.835
   15POPC   C3B  492   6.262   9.344   6.422
   15POPC   C4B  493   6.187   9.393   5.976
   16POPC   NC3  494   9.469   3.326   8.197
   16POPC   PO4  495   9.774   3.946   8.078
   16POPC   GL1  496   9.720   3.550   7.788
   16POPC   GL2  497   9.402   3.390   7.705
   16POPC   C1A  498   9.700   3.355   7.324
   16POPC   D2A  499   9.542   3.518   6.939
   16POPC   C3A  500   9.766   3.547   6.547
   16POPC   C4A  501   9.581   3.553   6.128
   16POPC   C1B  502   9.202   3.292   7.285
   16POPC   C2B  503   9.039   3.433   6.897
   16POPC   C3B  504   9.233   3.482   6.504
   16POPC   C4B  505   9.171   3.221   6.135
   17POPC   NC3  506   0.474   5.728   8.301
   17POPC   PO4  507  10.324   5.496   8.204
   17POPC   GL1  508   0.143   5.490   7.813
   17POPC   GL2  509   0.431   5.761   7.789
   17POPC   C1A  510   0.280   5.451   7.333
   17POPC   D2A  511   0.134   5.716   6.947
   17POPC   C3A  512   0.174   5.823   6.497
   17POPC   C4A  513   0.193   5.493   6.191
   17POPC   C1B  514   0.612   5.888   7.380
   17POPC   C2B  515   0.655   5.664   6.977
   17POPC   C3B  516   0.592   5.544   6.531
   17POPC   C4B  517   0.595   5.784   6.131
   18POPC   NC3  518  10.156   0.442   8.277
   18POPC   PO4  519   9.638   0.176   8.009
   18POPC   GL1  520  10.011   0.150   7.768
   18POPC   GL2  521  10.183   0.442   7.726
   18POPC   C1A  522   9.947   0.268   7.311
   18POPC   D2A  523  10.066   0.542   6.984
   18POPC   C3A  524   9.981   0.422   6.582
   18POPC   C4A  525  10.026   0.255   6.177
   18POPC   C1B  526  10.455   0.460   7.317
   18POPC   C2B  527   0.084   0.620   6.888
   18POPC   C3B  528  10.451   0.542   6.433
   18POPC   C4B  529  10.470   0.732   5.983
   19POPC   NC3  530   1.488  10.432   8.050
   19POPC   PO4  531   2.190  10.304   8.001
   19POPC   GL1  532   1.827  10.283   7.674
   19POPC   GL2  533   1.725   9.939   7.537
   19POPC   C1A  534   1.634  10.356   7.254
   19POPC   D2A  535   1.542  10.227   6.850
   19POPC   C3A  536   1.776  10.463   6.553
   19POPC   C4A  537   1.645  10.456   6.137
   19POPC   C1B  538   2.022  10.010   7.253
   19POPC   C2B  539   1.925   9.922   6.848
   19POPC   C3B  540   1.719  10.000   6.409
   19POPC   C4B  541   2.040   9.902   6.099
   20POPC   NC3  542   0.403   6.666   8.198
   20POPC   PO4  543   0.782   6.068   8.172
   20POPC   GL1  544   0.636   6.310   7.788
   20POPC   GL2  545   0.269   6.380   7.719
   20POPC   C1A  546   0.624   6.432   7.342
   20POPC   D2A  547   0.455   6.607   6.966
   20POPC   C3A  548   0.628   6.517   6.574
   20POPC   C4A  549   0.468   6.259   6.242
   20POPC   C1B  550   0.057   6.615   7.333
   20POPC   C2B  551   0.003   6.850   6.954
   20POPC   C3B  552   0.119   6.698   6.571
   20POPC   C4B  553   0.344   6.757   6.192
   21POPC   NC3  554   2.418   2.031   8.087
   21POPC   PO4  555   2.490   1.403   8.088
   21POPC   GL1  556   2.676   1.666   7.767
   21POPC   GL2  557   2.733   2.039   7.676
   21POPC   C1A  558   2.596   1.622   7.350
   21POPC   D2A  559   2.794   1.786   7.001
   21POPC   C3A  560   2.659   1.728   6.588
   21POPC   C4A  561   2.548   1.526   6.225
   21POPC   C1B  562   2.476   2.104   7.295
   21POPC   C2B  563   2.348   2.055   6.859
   21POPC   C3B  564   2.446   2.167   6.431
   21POPC   C4B  565   2.862   2.109   6.259
   22POPC   NC3  566   9.192   0.110   8.180
   22POPC   PO4  567   9.353  10.012   8.012
   22POPC   GL1  568   9.373  10.338   7.701
   22POPC   GL2  569   9.703  10.355   7.500
   22POPC   C1A  570   9.275  10.436   7.267
   22POPC   D2A  571   9.495  10.381   6.870
   22POPC   C3A  572   9.163  10.378   6.549
   22POPC   C4A  573   9.028   0.071   6.154
   22POPC   C1B  574   9.577   9.981   7.301
   22POPC   C2B  575   9.661   9.845   6.878
   22POPC   C3B  576   9.546  10.009   6.523
   22POPC   C4B  577   9.690  10.374   6.287
   23POPC   NC3  578   9.686   8.525   8.055
   23POPC   PO4  579   9.179   8.261   7.786
   23POPC   GL1  580   9.485   8.525   7.592
   23POPC   GL2  581   9.482   8.873   7.719
   23POPC   C1A  582   9.708   8.491   7.220
   23POPC   D2A  583   9.540   8.513   6.864
   23POPC   C3A  584   9.797   8.462   6.560
   23POPC   C4A  585   9.663   8.355   6.193
   23POPC   C1B  586   9.654   8.982   7.348
   23POPC   C2B  587   9.479   9.013   6.953
   23POPC   C3B  588   9.642   8.946   6.531
   23POPC   C4B  589   9.374   8.792   6.223
   24POPC   NC3  590   5.499   2.080   8.272
   24POPC   PO4  591   6.036   2.293   7.778
   24POPC   GL1  592   5.676   2.377   7.566
   24POPC   GL2  593   5.650   2.737   7.584
   24POPC   C1A  594   5.710   2.476   7.129
   24POPC   D2A  595   5.682   2.347   6.741
   24POPC   C3A  596   5.778   2.570   6.400
   24POPC   C4A  597   5.581   2.729   6.002
   24POPC   C1B  598   5.605   2.974   7.179
   24POPC   C2B  599   5.510   2.861   6.748
   24POPC   C3B  600   5.748   3.075   6.396
   24POPC   C4B  601   6.023   3.075   6.042
   25POPC   NC3  602   7.485   4.141   8.096
   25POPC   PO4  603   7.096   3.727   7.865
   25POPC   GL1  604   7.239   3.898   7.484
   25POPC   GL2  605   7.212   4.215   7.617
   25POPC   C1A  606   7.466   4.231   7.195
   25POPC   D2A  607   7.452   4.356   6.752
   25POPC   C3A  608   7.375   4.001   6.460
   25POPC   C4A  609   7.265   3.913   6.057
   25POPC   C1B  610   6.957   4.158   7.174
   25POPC   C2B  611   6.964   4.219   6.721
   25POPC   C3B  612   6.706   4.216   6.379
   25POPC   C4B  613   6.845   4.158   6.000
   26POPC   NC3  614   2.640   9.964   7.996
   26POPC   PO4  615   3.118   0.049   8.211
   26POPC   GL1  616   3.045  10.384   7.810
   26POPC   GL2  617   2.684  10.435   7.776
   26POPC   C1A  618   2.982  10.280   7.365
   26POPC   D2A  619   3.124  10.232   6.954
   26POPC   C3A  620   2.824  10.237   6.662
   26POPC   C4A  621   2.646  10.393   6.330
   26POPC   C1B  622   2.440  10.297   7.389
   26POPC   C2B  623   2.427  10.116   6.959
   26POPC   C3B  624   2.268  10.110   6.538
   26POPC   C4B  625   2.475   9.827   6.323
   27POPC   NC3  626   1.021   0.225   8.108
   27POPC   PO4  627   0.922   0.932   8.038
   27POPC   GL1  628   1.132   0.603   7.738
   27POPC   GL2  629   1.252   0.277   7.670
   27POPC   C1A  630   0.969   0.461   7.311
   27POPC   D2A  631   1.073   0.503   6.863
   27POPC   C3A  632   0.899   0.304   6.488
   27POPC   C4A  633   0.888   0.500   6.060
   27POPC   C1B  634   1.485   0.357   7.299
   27POPC   C2B  635   1.483   0.216   6.907
   27POPC   C3B  636   1.424   0.352   6.506
   27POPC   C4B  637   1.410   0.401   6.090
   28POPC   NC3  638   4.405  10.282   8.109
   28POPC   PO4  639   3.869   9.917   8.086
   28POPC   GL1  640   3.999  10.050   7.675
   28POPC   GL2  641   4.163  10.345   7.654
   28POPC   C1A  642   3.930  10.133   7.211
   28POPC   D2A  643   3.889   9.932   6.770
   28POPC   C3A  644   4.201   9.824   6.415
   28POPC   C4A  645   4.199   9.927   5.934
   28POPC   C1B  646   4.423  10.139   7.343
   28POPC   C2B  647   4.504  10.270   6.908
   28POPC   C3B  648   4.215  10.350   6.567
   28POPC   C4B  649   4.245  10.388   6.139
   29POPC   NC3  650   8.434   1.850   8.074
   29POPC   PO4  651   8.443   2.432   8.370
   29POPC   GL1  652   8.428   2.288   7.827
   29POPC   GL2  653   8.586   1.995   7.638
   29POPC   C1A  654   8.275   2.171   7.316
   29POPC   D2A  655   8.323   2.264   6.844
   29POPC   C3A  656   8.466   2.002   6.477
   29POPC   C4A  657   8.553   1.992   6.019
   29POPC   C1B  658   8.699   1.873   7.259
   29POPC   C2B  659   8.797   2.011   6.868
   29POPC   C3B  660   8.934   1.804   6.493
   29POPC   C4B  661   9.027   2.145   6.271
   30POPC   NC3  662   3.329   4.163   8.065
   30POPC   PO4  663   3.790   3.685   8.135
   30POPC   GL1  664   3.611   3.888   7.695
   30POPC   GL2  665   3.324   4.129   7.578
   30POPC   C1A  666   3.529   3.875   7.210
   30POPC   D2A  667   3.481   4.145   6.829
   30POPC   C3A  668   3.763   4.093   6.461
   30POPC   C4A  669   3.688   3.969   6.026
   30POPC   C1B  670   3.124   4.472   7.343
   30POPC   C2B  671   3.137   4.675   6.930
   30POPC   C3B  672   3.155   4.441   6.561
   30POPC   C4B  673   3.421   4.411   6.233
   31POPC   NC3  674   3.611   1.225   8.345
   31POPC   PO4  675   4.271   1.404   8.139
   31POPC   GL1  676   4.125   1.307   7.758
   31POPC   GL2  677   4.277   0.964   7.737
   31POPC   C1A  678   3.883   1.131   7.414
   31POPC   D2A  679   3.914   0.834   7.055
   31POPC   C3A  680   3.897   1.017   6.629
   31POPC   C4A  681   3.972   1.306   6.270
   31POPC   C1B  682   4.390   1.144   7.330
   31POPC   C2B  683   4.493   1.009   6.920
   31POPC   C3B  684   4.401   1.095   6.513
   31POPC   C4B  685   4.215   0.864   6.233
   32POPC   NC3  686   1.995   9.224   8.186
   32POPC   PO4  687   2.222   8.596   8.181
   32POPC   GL1  688   1.865   8.688   7.850
   32POPC   GL2  689   1.615   8.956   7.894
   32POPC   C1A  690   1.800   8.546   7.401
   32POPC   D2A  691   2.021   8.337   7.042
   32POPC   C3A  692   1.999   8.569   6.662
   32POPC   C4A  693   2.300   8.826   6.419
   32POPC   C1B  694   1.593   9.027   7.445
   32POPC   C2B  695   1.646   8.898   7.007
   32POPC   C3B  696   1.503   8.776   6.587
   32POPC   C4B  697   1.748   8.680   6.228
   33POPC   NC3  698   0.190   5.009   8.101
   33POPC   PO4  699   0.767   5.375   8.136
   33POPC   GL1  700   0.587   5.250   7.723
   33POPC   GL2  701   0.389   4.942   7.655
   33POPC   C1A  702   0.715   5.133   7.289
   33POPC   D2A  703   0.563   5.158   6.876
   33POPC   C3A  704   0.779   5.056   6.496
   33POPC   C4A  705   0.648   4.999   6.068
   33POPC   C1B  706   0.251   4.902   7.253
   33POPC   C2B  707   0.102   4.963   6.847
   33POPC   C3B  708   0.231   4.990   6.402
   33POPC   C4B  709   0.274   4.639   6.081
   34POPC   NC3  710   9.904   4.885   8.002
   34POPC   PO4  711   0.042   4.581   7.989
   34POPC   GL1  712  10.361   4.750   7.689
   34POPC   GL2  713  10.323   5.068   7.758
   34POPC   C1A  714  10.297   4.650   7.287
   34POPC   D2A  715  10.116   4.861   6.958
   34POPC   C3A  716  10.227   4.788   6.538
   34POPC   C4A  717  10.309   4.877   6.114
   34POPC   C1B  718  10.326   5.170   7.335
   34POPC   C2B  719  10.243   5.370   6.964
   34POPC   C3B  720  10.418   5.374   6.600
   34POPC   C4B  721  10.130   5.291   6.334
   35POPC   NC3  722   7.867   0.758   8.081
   35POPC   PO4  723   8.215   0.275   7.964
   35POPC   GL1  724   8.143   0.515   7.591
   35POPC   GL2  725   7.795   0.674   7.567
   35POPC   C1A  726   8.078   0.477   7.130
   35POPC   D2A  727   8.249   0.722   6.796
   35POPC   C3A  728   8.066   0.645   6.382
   35POPC   C4A  729   8.313   0.610   6.001
   35POPC   C1B  730   7.748   0.214   7.422
   35POPC   C2B  731   7.771  10.464   7.036
   35POPC   C3B  732   7.712  10.477   6.594
   35POPC   C4B  733   7.736   0.257   6.202
   36POPC   NC3  734   8.107   5.793   8.626
   36POPC   PO4  735   8.009   5.398   8.114
   36POPC   GL1  736   8.138   5.438   7.696
   36POPC   GL2  737   8.118   5.798   7.689
   36POPC   C1A  738   7.948   5.502   7.288
   36POPC   D2A  739   7.677   5.295   7.000
   36POPC   C3A  740   7.746   5.371   6.573
   36POPC   C4A  741   8.004   5.496   6.275
   36POPC   C1B  742   8.069   5.986   7.297
   36POPC   C2B  743   7.785   5.893   6.949
   36POPC   C3B  744   7.935   5.933   6.538
   36POPC   C4B  745   7.778   5.973   6.133
   37POPC   NC3  746   8.607   0.428   8.182
   37POPC   PO4  747   9.109   0.841   7.961
   37POPC   GL1  748   8.700   0.679   7.728
   37POPC   GL2  749   8.653   0.292   7.697
   37POPC   C1A  750   8.564   0.576   7.284
   37POPC   D2A  751   8.744   0.508   6.874
   37POPC   C3A  752   8.590   0.515   6.453
   37POPC   C4A  753   8.827   0.574   6.084
   37POPC   C1B  754   8.433   0.069   7.386
   37POPC   C2B  755   8.310   0.001   6.975
   37POPC   C3B  756   8.161   0.224   6.657
   37POPC   C4B  757   8.234   0.186   6.243
   38POPC   NC3  758   3.305   7.125   8.054
   38POPC   PO4  759   2.645   7.028   8.111
   38POPC   GL1  760   2.884   7.052   7.710
   38POPC   GL2  761   3.007   7.409   7.725
   38POPC   C1A  762   2.814   6.904   7.260
   38POPC   D2A  763   2.645   6.822   6.836
   38POPC   C3A  764   2.874   6.887   6.451
   38POPC   C4A  765   2.931   7.182   6.097
   38POPC   C1B  766   2.727   7.407   7.342
   38POPC   C2B  767   2.584   7.476   6.917
   38POPC   C3B  768   2.500   7.251   6.541
   38POPC   C4B  769   2.503   7.498   6.193
   39POPC   NC3  770   4.742   8.569   7.982
   39POPC   PO4  771   5.423   8.709   8.030
   39POPC   GL1  772   5.145   8.820   7.704
   39POPC   GL2  773   5.108   8.490   7.568
   39POPC   C1A  774   4.968   8.939   7.302
   39POPC   D2A  775   5.012   8.685   6.941
   39POPC   C3A  776   5.031   8.918   6.548
   39POPC   C4A  777   5.235   9.093   6.179
   39POPC   C1B  778   4.702   8.510   7.324
   39POPC   C2B  779   4.556   8.454   6.895
   39POPC   C3B  780   4.817   8.396   6.564
   39POPC   C4B  781   4.887   8.408   6.162
   40POPC   NC3  782   5.826   1.914   7.892
   40POPC   PO4  783   5.220   1.716   8.150
   40POPC   GL1  784   5.337   2.025   7.782
   40POPC   GL2  785   5.459   1.779   7.571
   40POPC   C1A  786   5.318   2.137   7.275
   40POPC   D2A  787   5.452   1.895   6.907
   40POPC   C3A  788   5.406   2.019   6.484
   40POPC   C4A  789   5.517   1.746   6.160
   40POPC   C1B  790   5.814   1.976   7.254
   40POPC   C2B  791   6.083   2.056   6.862
   40POPC   C3B  792   5.926   2.014   6.416
   40POPC   C4B  793   5.702   2.198   6.056
   41POPC   NC3  794   0.450   2.126   8.054
   41POPC   PO4  795   0.457   1.477   8.078
   41POPC   GL1  796   0.463   1.740   7.676
   41POPC   GL2  797   0.683   2.042   7.609
   41POPC   C1A  798   0.626   1.741   7.229
   41POPC   D2A  799   0.686   2.025   6.936
   41POPC   C3A  800   0.431   2.004   6.637
   41POPC   C4A  801   0.611   1.842   6.277
   41POPC   C1B  802   0.344   2.180   7.308
   41POPC   C2B  803   0.164   2.437   6.958
   41POPC   C3B  804  10.488   2.324   6.557
   41POPC   C4B  805   0.160   2.088   6.218
   42POPC   NC3  806   6.006   1.024   7.924
   42POPC   PO4  807   6.584   0.734   8.112
   42POPC   GL1  808   6.501   1.010   7.762
   42POPC   GL2  809   6.357   1.364   7.755
   42POPC   C1A  810   6.327   0.967   7.346
   42POPC   D2A  811   6.237   1.241   7.012
   42POPC   C3A  812   6.131   1.118   6.591
   42POPC   C4A  813   6.323   1.106   6.195
   42POPC   C1B  814   6.612   1.397   7.377
   42POPC   C2B  815   6.826   1.275   7.027
   42POPC   C3B  816   6.625   1.298   6.654
   42POPC   C4B  817   6.671   1.482   6.265
   43POPC   NC3  818   1.425   1.921   8.137
   43POPC   PO4  819   1.452   2.586   8.234
   43POPC   GL1  820   1.472   2.376   7.776
   43POPC   GL2  821   1.256   2.067   7.688
   43POPC   C1A  822   1.481   2.220   7.282
   43POPC   D2A  823   1.524   1.971   6.878
   43POPC   C3A  824   1.456   2.219   6.489
   43POPC   C4A  825   1.460   2.167   6.032
   43POPC   C1B  826   1.131   1.796   7.375
   43POPC   C2B  827   1.084   1.702   6.962
   43POPC   C3B  828   1.051   1.882   6.561
   43POPC   C4B  829   1.338   1.717   6.261
   44POPC   NC3  830   2.593   4.048   8.090
   44POPC   PO4  831   3.148   3.749   7.947
   44POPC   GL1  832   2.885   3.870   7.626
   44POPC   GL2  833   2.782   4.205   7.632
   44POPC   C1A  834   3.007   3.953   7.224
   44POPC   D2A  835   2.877   4.237   6.957
   44POPC   C3A  836   2.792   4.074   6.590
   44POPC   C4A  837   2.890   4.174   6.191
   44POPC   C1B  838   2.496   4.047   7.289
   44POPC   C2B  839   2.370   4.244   6.888
   44POPC   C3B  840   2.328   4.265   6.446
   44POPC   C4B  841   2.465   4.382   6.034
   45POPC   NC3  842   8.499   7.836   8.171
   45POPC   PO4  843   9.028   8.110   8.325
   45POPC   GL1  844   8.821   7.949   7.819
   45POPC   GL2  845   8.495   8.030   7.699
   45POPC   C1A  846   8.973   7.731   7.407
   45POPC   D2A  847   9.074   7.853   6.978
   45POPC   C3A  848   8.966   7.764   6.552
   45POPC   C4A  849   9.054   7.550   6.149
   45POPC   C1B  850   8.625   8.082   7.273
   45POPC   C2B  851   8.612   8.012   6.858
   45POPC   C3B  852   8.610   8.191   6.483
   45POPC   C4B  853   8.714   7.964   6.147
   46POPC   NC3  854   9.809  10.186   7.958
   46POPC   PO4  855  10.417   0.065   8.117
   46POPC   GL1  856   0.018  10.430   7.734
   46POPC   GL2  857  10.317  10.117   7.748
   46POPC   C1A  858  10.346  10.467   7.338
   46POPC   D2A  859  10.461   0.131   6.921
   46POPC   C3A  860  10.286   0.025   6.550
   46POPC   C4A  861  10.328  10.336   6.147
   46POPC   C1B  862  10.095  10.029   7.347
   46POPC   C2B  863   9.990  10.244   6.962
   46POPC   C3B  864  10.058  10.074   6.543
   46POPC   C4B  865   9.976   9.970   6.118
   47POPC   NC3  866   0.967   4.453   8.076
   47POPC   PO4  867   1.492   4.429   8.479
   47POPC   GL1  868   1.349   4.148   7.937
   47POPC   GL2  869   1.116   3.922   7.751
   47POPC   C1A  870   1.422   4.242   7.425
   47POPC   D2A  871   1.427   4.487   6.987
   47POPC   C3A  872   1.399   4.224   6.586
   47POPC   C4A  873   1.481   4.260   6.118
   47POPC   C1B  874   0.935   4.114   7.381
   47POPC   C2B  875   0.942   4.305   6.988
   47POPC   C3B  876   0.880   4.153   6.579
   47POPC   C4B  877   1.033   4.037   6.194
   48POPC   NC3  878   2.191   0.356   8.044
   48POPC   PO4  879   1.467   0.398   8.101
   48POPC   GL1  880   1.753   0.366   7.748
   48POPC   GL2  881   1.635   0.694   7.639
   48POPC   C1A  882   2.023   0.167   7.400
   48POPC   D2A  883   2.056  10.464   6.989
   48POPC   C3A  884   2.288   0.104   6.631
   48POPC   C4A  885   2.186   0.012   6.180
   48POPC   C1B  886   2.033   0.676   7.382
   48POPC   C2B  887   2.224   0.479   7.029
   48POPC   C3B  888   1.916   0.421   6.731
   48POPC   C4B  889   1.896   0.395   6.301
   49POPC   NC3  890   6.924   0.440   7.984
   49POPC   PO4  891   7.430   0.894   7.993
   49POPC   GL1  892   7.258   0.760   7.642
   49POPC   GL2  893   7.322   0.398   7.649
   49POPC   C1A  894   7.378   0.664   7.220
   49POPC   D2A  895   7.337   0.314   6.939
   49POPC   C3A  896   7.527   0.475   6.598
   49POPC   C4A  897   7.572   0.772   6.252
   49POPC   C1B  898   6.993   0.321   7.337
   49POPC   C2B  899   6.819   0.179   6.952
   49POPC   C3B  900   6.907   0.359   6.569
   49POPC   C4B  901   7.206   0.368   6.206
   50POPC   NC3  902   6.953   2.948   8.260
   50POPC   PO4  903   7.697   3.060   8.150
   50POPC   GL1  904   7.431   2.903   7.800
   50POPC   GL2  905   7.301   2.533   7.838
   50POPC   C1A  906   7.496   2.691   7.389
   50POPC   D2A  907   7.233   2.626   7.002
   50POPC   C3A  908   7.315   2.856   6.602
   50POPC   C4A  909   6.977   2.934   6.277
   50POPC   C1B  910   7.187   2.277   7.427
   50POPC   C2B  911   7.308   2.130   6.996
   50POPC   C3B  912   7.474   2.347   6.610
   50POPC   C4B  913   7.299   2.524   6.227
   51POPC   NC3  914   7.206   9.681   8.513
   51POPC   PO4  915   7.560  10.034   8.118
   51POPC   GL1  916   7.276  10.083   7.751
   51POPC   GL2  917   7.104  10.412   7.705
   51POPC   C1A  918   7.063   9.945   7.366
   51POPC   D2A  919   7.075   9.707   6.984
   51POPC   C3A  920   7.113   9.933   6.611
   51POPC   C4A  921   6.948  10.052   6.228
   51POPC   C1B  922   7.322  10.416   7.328
   51POPC   C2B  923   7.174  10.318   6.943
   51POPC   C3B  924   7.201  10.449   6.527
   51POPC   C4B  925   7.419  10.251   6.229
   52POPC   NC3  926  10.257   1.309   8.173
   52POPC   PO4  927   9.808   0.775   8.284
   52POPC   GL1  928  10.006   0.905   7.870
   52POPC   GL2  929  10.050   1.249   7.730
   52POPC   C1A  930  10.117   0.840   7.413
   52POPC   D2A  931  10.250   1.018   6.993
   52POPC   C3A  932   9.977   0.947   6.657
   52POPC   C4A  933  10.074   0.866   6.264
   52POPC   C1B  934  10.249   1.367   7.371
   52POPC   C2B  935  10.215   1.531   6.966
   52POPC   C3B  936  10.285   1.341   6.568
   52POPC   C4B  937  10.421   1.235   6.149
   53POPC   NC3  938   8.510   7.070   7.964
   53POPC   PO4  939   8.965   7.553   8.110
   53POPC   GL1  940   8.653   7.486   7.726
   53POPC   GL2  941   8.712   7.167   7.526
   53POPC   C1A  942   8.496   7.556   7.292
   53POPC   D2A  943   8.720   7.481   6.908
   53POPC   C3A  944   8.490   7.598   6.529
   53POPC   C4A  945   8.549   7.441   6.108
   53POPC   C1B  946   8.339   7.044   7.315
   53POPC   C2B  947   8.317   7.162   6.899
   53POPC   C3B  948   8.518   7.085   6.540
   53POPC   C4B  949   8.740   6.988   6.215
   54POPC   NC3  950   8.922   4.040   8.057
   54POPC   PO4  951   8.544   4.587   8.064
   54POPC   GL1  952   8.552   4.314   7.640
   54POPC   GL2  953   8.806   4.100   7.579
   54POPC   C1A  954   8.423   3.964   7.301
   54POPC   D2A  955   8.390   3.776   6.891
   54POPC   C3A  956   8.508   4.089   6.618
   54POPC   C4A  957   8.554   4.024   6.180
   54POPC   C1B  958   8.930   4.428   7.318
   54POPC   C2B  959   8.760   4.482   6.925
   54POPC   C3B  960   8.909   4.413   6.570
   54POPC   C4B  961   8.790   4.466   6.204
   55POPC   NC3  962   9.313   7.258   8.224
   55POPC   PO4  963   9.062   6.659   8.316
   55POPC   GL1  964   9.274   6.885   7.836
   55POPC   GL2  965   9.469   7.192   7.743
   55POPC   C1A  966   9.162   7.089   7.353
   55POPC   D2A  967   8.937   6.990   6.936
   55POPC   C3A  968   9.050   7.228   6.550
   55POPC   C4A  969   9.235   7.073   6.128
   55POPC   C1B  970   9.661   7.038   7.366
   55POPC   C2B  971   9.496   6.956   6.965
   55POPC   C3B  972   9.546   7.094   6.571
   55POPC   C4B  973   9.841   7.014   6.304
   56POPC   NC3  974  10.130   7.629   8.056
   56POPC   PO4  975  10.481   8.172   8.248
   56POPC   GL1  976  10.397   7.990   7.801
   56POPC   GL2  977  10.121   7.904   7.651
   56POPC   C1A  978  10.405   7.771   7.304
   56POPC   D2A  979   0.061   7.928   6.974
   56POPC   C3A  980  10.310   7.786   6.698
   56POPC   C4A  981  10.354   7.799   6.297
   56POPC   C1B  982   9.931   7.986   7.283
   56POPC   C2B  983  10.013   8.152   6.910
   56POPC   C3B  984   9.876   7.970   6.500
   56POPC   C4B  985   9.778   7.869   6.091
   57POPC   NC3  986   1.545   2.961   8.482
   57POPC   PO4  987   0.922   3.094   8.114
   57POPC   GL1  988   1.022   3.360   7.762
   57POPC   GL2  989   1.400   3.388   7.713
   57POPC   C1A  990   1.051   3.264   7.340
   57POPC   D2A  991   1.284   3.206   6.980
   57POPC   C3A  992   1.031   3.277   6.617
   57POPC   C4A  993   1.174   3.372   6.211
   57POPC   C1B  994   1.314   3.701   7.352
   57POPC   C2B  995   1.084   3.790   6.972
   57POPC   C3B  996   1.224   3.745   6.564
   57POPC   C4B  997   1.522   3.756   6.219
   58POPC   NC3  998  10.158   3.679   8.038
   58POPC   PO4  999   9.855   3.086   8.145
   58POPC   GL1 1000   9.963   3.106   7.700
   58POPC   GL2 1001  10.143   3.406   7.553
   58POPC   C1A 1002  10.012   2.961   7.277
   58POPC   D2A 1003   9.810   3.065   6.883
   58POPC   C3A 1004  10.084   3.128   6.548
   58POPC   C4A 1005   9.991   3.236   6.136
   58POPC   C1B 1006  10.077   3.651   7.174
   58POPC   C2B 1007  10.253   3.548   6.788
   58POPC   C3B 1008  10.230   3.649   6.355
   58POPC   C4B 1009  10.031   3.700   5.962
   59POPC   NC3 1010   7.090   7.775   8.382
   59POPC   PO4 1011   7.277   7.783   7.888
   59POPC   GL1 1012   7.145   7.940   7.571
   59POPC   GL2 1013   7.098   8.270   7.603
   59POPC   C1A 1014   7.137   7.743   7.219
   59POPC   D2A 1015   7.347   7.610   6.876
   59POPC   C3A 1016   7.184   7.671   6.441
   59POPC   C4A 1017   7.294   7.686   5.994
   59POPC   C1B 1018   7.257   8.262   7.201
   59POPC   C2B 1019   7.162   8.089   6.842
   59POPC   C3B 1020   7.133   8.176   6.484
   59POPC   C4B 1021   6.972   8.041   6.128
   60POPC   NC3 1022   2.655   6.558   8.120
   60POPC   PO4 1023   3.023   5.980   8.003
   60POPC   GL1 1024   2.756   6.244   7.661
   60POPC   GL2 1025   2.467   6.484   7.658
   60POPC   C1A 1026   2.864   6.374   7.204
   60POPC   D2A 1027   3.133   6.262   6.809
   60POPC   C3A 1028   3.023   6.391   6.385
   60POPC   C4A 1029   3.067   6.133   5.972
   60POPC   C1B 1030   2.294   6.249   7.324
   60POPC   C2B 1031   2.227   6.213   6.893
   60POPC   C3B 1032   2.451   6.408   6.519
   60POPC   C4B 1033   2.600   6.348   6.086
   61POPC   NC3 1034   8.190   4.283   7.985
   61POPC   PO4 1035   7.802   3.767   8.149
   61POPC   GL1 1036   7.662   3.823   7.732
   61POPC   GL2 1037   7.757   4.111   7.622
   61POPC   C1A 1038   7.672   3.707   7.305
   61POPC   D2A 1039   7.587   3.852   6.896
   61POPC   C3A 1040   7.917   3.868   6.600
   61POPC   C4A 1041   8.094   4.134   6.352
   61POPC   C1B 1042   7.975   4.202   7.227
   61POPC   C2B 1043   7.952   4.343   6.787
   61POPC   C3B 1044   7.766   4.501   6.370
   61POPC   C4B 1045   7.611   4.319   5.997
   62POPC   NC3 1046   0.131   0.427   7.932
   62POPC   PO4 1047   0.604   0.026   8.060
   62POPC   GL1 1048   0.506   0.179   7.683
   62POPC   GL2 1049   0.630   0.508   7.767
   62POPC   C1A 1050   0.357   0.075   7.273
   62POPC   D2A 1051   0.472   0.279   6.862
   62POPC   C3A 1052   0.299   0.079   6.490
   62POPC   C4A 1053   0.575   0.099   6.110
   62POPC   C1B 1054   0.474   0.573   7.348
   62POPC   C2B 1055   0.668   0.769   7.033
   62POPC   C3B 1056   0.630   0.779   6.626
   62POPC   C4B 1057   0.450   0.527   6.346
   63POPC   NC3 1058   0.202   4.435   8.402
   63POPC   PO4 1059   0.407   3.911   8.091
   63POPC   GL1 1060   0.605   4.099   7.758
   63POPC   GL2 1061   0.515   4.435   7.749
   63POPC   C1A 1062   0.427   4.092   7.310
   63POPC   D2A 1063   0.543   3.982   6.924
   63POPC   C3A 1064   0.377   4.104   6.530
   63POPC   C4A 1065   0.515   4.045   6.129
   63POPC   C1B 1066   0.633   4.567   7.348
   63POPC   C2B 1067   0.464   4.519   6.944
   63POPC   C3B 1068   0.548   4.595   6.532
   63POPC   C4B 1069   0.752   4.474   6.170
   64POPC   NC3 1070   4.021   0.674   8.113
   64POPC   PO4 1071   3.983   0.010   8.103
   64POPC   GL1 1072   3.910   0.280   7.773
   64POPC   GL2 1073   4.247   0.408   7.712
   64POPC   C1A 1074   3.891   0.187   7.346
   64POPC   D2A 1075   3.702   0.343   6.982
   64POPC   C3A 1076   3.824   0.238   6.566
   64POPC   C4A 1077   3.817   0.547   6.286
   64POPC   C1B 1078   4.381   0.164   7.336
   64POPC   C2B 1079   4.207   0.216   6.938
   64POPC   C3B 1080   4.186   0.575   6.673
   64POPC   C4B 1081   4.322   0.375   6.300
   65POPC   NC3 1082   4.978   9.471   8.225
   65POPC   PO4 1083   4.560   8.995   8.080
   65POPC   GL1 1084   4.877   9.287   7.754
   65POPC   GL2 1085   5.040   9.672   7.753
   65POPC   C1A 1086   5.145   9.411   7.353
   65POPC   D2A 1087   4.936   9.404   6.977
   65POPC   C3A 1088   5.171   9.430   6.613
   65POPC   C4A 1089   5.082   9.594   6.246
   65POPC   C1B 1090   4.694   9.665   7.423
   65POPC   C2B 1091   4.542   9.761   6.993
   65POPC   C3B 1092   4.675   9.643   6.583
   65POPC   C4B 1093   4.722   9.270   6.346
   66POPC   NC3 1094   2.755   5.034   8.094
   66POPC   PO4 1095   2.986   4.468   8.049
   66POPC   GL1 1096   2.821   4.721   7.697
   66POPC   GL2 1097   2.464   4.739   7.744
   66POPC   C1A 1098   2.722   5.024   7.351
   66POPC   D2A 1099   2.773   5.373   7.076
   66POPC   C3A 1100   2.843   5.136   6.702
   66POPC   C4A 1101   2.741   5.116   6.290
   66POPC   C1B 1102   2.537   4.549   7.312
   66POPC   C2B 1103   2.621   4.696   6.899
   66POPC   C3B 1104   2.684   4.634   6.460
   66POPC   C4B 1105   2.992   4.661   6.131
   67POPC   NC3 1106   8.817   8.424   8.027
   67POPC   PO4 1107   9.083   9.050   7.987
   67POPC   GL1 1108   8.994   8.737   7.651
   67POPC   GL2 1109   8.740   8.487   7.549
   67POPC   C1A 1110   9.151   8.672   7.245
   67POPC   D2A 1111   9.054   8.356   6.975
   67POPC   C3A 1112   9.082   8.554   6.591
   67POPC   C4A 1113   8.985   8.416   6.205
   67POPC   C1B 1114   8.603   8.718   7.228
   67POPC   C2B 1115   8.610   8.591   6.813
   67POPC   C3B 1116   8.620   8.716   6.384
   67POPC   C4B 1117   8.495   8.435   6.021
   68POPC   NC3 1118   5.269   0.383   7.806
   68POPC   PO4 1119   4.885  10.485   8.168
   68POPC   GL1 1120   4.712   0.181   7.777
   68POPC   GL2 1121   4.767   0.547   7.746
   68POPC   C1A 1122   4.863   0.225   7.324
   68POPC   D2A 1123   5.113   0.440   7.052
   68POPC   C3A 1124   5.112   0.410   6.637
   68POPC   C4A 1125   5.029   0.384   6.230
   68POPC   C1B 1126   4.570   0.653   7.351
   68POPC   C2B 1127   4.630   0.499   6.932
   68POPC   C3B 1128   4.675   0.654   6.542
   68POPC   C4B 1129   4.695   0.755   6.151
   69POPC   NC3 1130   9.256   5.474   7.920
   69POPC   PO4 1131   9.716   5.913   8.195
   69POPC   GL1 1132   9.682   5.756   7.794
   69POPC   GL2 1133   9.383   5.876   7.612
   69POPC   C1A 1134   9.837   5.853   7.393
   69POPC   D2A 1135   9.570   6.046   7.117
   69POPC   C3A 1136   9.620   5.994   6.682
   69POPC   C4A 1137   9.432   5.911   6.299
   69POPC   C1B 1138   9.438   5.555   7.270
   69POPC   C2B 1139   9.242   5.338   6.931
   69POPC   C3B 1140   9.171   5.499   6.531
   69POPC   C4B 1141   9.178   5.335   6.140
   70POPC   NC3 1142   4.331   2.763   7.879
   70POPC   PO4 1143   3.877   2.319   8.055
   70POPC   GL1 1144   3.945   2.545   7.624
   70POPC   GL2 1145   3.800   2.870   7.502
   70POPC   C1A 1146   4.281   2.496   7.272
   70POPC   D2A 1147   4.500   2.722   6.915
   70POPC   C3A 1148   4.269   2.820   6.526
   70POPC   C4A 1149   4.080   2.637   6.153
   70POPC   C1B 1150   3.811   2.616   7.126
   70POPC   C2B 1151   3.777   2.703   6.657
   70POPC   C3B 1152   3.667   2.899   6.275
   70POPC   C4B 1153   3.832   2.946   5.816
   71POPC   NC3 1154   7.012   7.054   8.357
   71POPC   PO4 1155   7.499   6.814   7.998
   71POPC   GL1 1156   7.531   6.666   7.646
   71POPC   GL2 1157   7.359   6.371   7.701
   71POPC   C1A 1158   7.342   6.749   7.236
   71POPC   D2A 1159   7.201   6.845   6.835
   71POPC   C3A 1160   7.492   6.780   6.533
   71POPC   C4A 1161   7.211   6.615   6.223
   71POPC   C1B 1162   7.200   6.238   7.276
   71POPC   C2B 1163   7.213   6.039   6.853
   71POPC   C3B 1164   7.052   6.189   6.461
   71POPC   C4B 1165   7.297   6.128   6.066
   72POPC   NC3 1166   1.090   5.703   8.110
   72POPC   PO4 1167   1.509   6.206   8.042
   72POPC   GL1 1168   1.554   5.845   7.725
   72POPC   GL2 1169   1.348   5.518   7.716
   72POPC   C1A 1170   1.505   5.697   7.281
   72POPC   D2A 1171   1.290   5.861   6.939
   72POPC   C3A 1172   1.499   5.975   6.563
   72POPC   C4A 1173   1.372   5.773   6.203
   72POPC   C1B 1174   1.020   5.552   7.380
   72POPC   C2B 1175   1.063   5.366   6.956
   72POPC   C3B 1176   1.100   5.539   6.557
   72POPC   C4B 1177   0.946   5.418   6.150
   73POPC   NC3 1178   3.575  10.280   8.154
   73POPC   PO4 1179   3.087   9.870   7.916
   73POPC   GL1 1180   3.453  10.017   7.670
   73POPC   GL2 1181   3.596  10.366   7.663
   73POPC   C1A 1182   3.451   9.947   7.228
   73POPC   D2A 1183   3.416   9.716   6.837
   73POPC   C3A 1184   3.283  10.000   6.523
   73POPC   C4A 1185   2.947   9.987   6.231
   73POPC   C1B 1186   3.471  10.444   7.263
   73POPC   C2B 1187   3.617  10.356   6.856
   73POPC   C3B 1188   3.706  10.274   6.423
   73POPC   C4B 1189   3.745   9.911   6.218
   74POPC   NC3 1190   0.283   8.359   7.945
   74POPC   PO4 1191   0.817   8.724   8.087
   74POPC   GL1 1192   0.715   8.542   7.725
   74POPC   GL2 1193   0.505   8.783   7.596
   74POPC   C1A 1194   0.798   8.494   7.304
   74POPC   D2A 1195   0.643   8.751   6.973
   74POPC   C3A 1196   0.767   8.583   6.604
   74POPC   C4A 1197   0.649   8.589   6.211
   74POPC   C1B 1198   0.201   8.825   7.262
   74POPC   C2B 1199   0.165   8.862   6.834
   74POPC   C3B 1200   0.234   8.594   6.519
   74POPC   C4B 1201   0.059   8.547   6.147
   75POPC   NC3 1202   1.077   6.433   8.053
   75POPC   PO4 1203   0.981   7.048   8.159
   75POPC   GL1 1204   1.243   6.863   7.761
   75POPC   GL2 1205   1.062   6.588   7.575
   75POPC   C1A 1206   1.464   6.716   7.318
   75POPC   D2A 1207   1.225   6.538   6.938
   75POPC   C3A 1208   1.420   6.539   6.497
   75POPC   C4A 1209   1.326   6.483   6.043
   75POPC   C1B 1210   1.093   6.185   7.353
   75POPC   C2B 1211   0.864   6.147   6.962
   75POPC   C3B 1212   1.028   6.184   6.547
   75POPC   C4B 1213   0.996   6.110   6.123
   76POPC   NC3 1214   0.102   4.155   7.844
   76POPC   PO4 1215  10.079   4.468   8.163
   76POPC   GL1 1216  10.119   4.289   7.728
   76POPC   GL2 1217  10.096   3.936   7.624
   76POPC   C1A 1218   9.938   4.286   7.309
   76POPC   D2A 1219  10.122   4.335   6.914
   76POPC   C3A 1220   9.891   4.386   6.577
   76POPC   C4A 1221  10.038   4.453   6.184
   76POPC   C1B 1222  10.388   4.042   7.268
   76POPC   C2B 1223   0.005   3.992   6.854
   76POPC   C3B 1224  10.365   4.146   6.447
   76POPC   C4B 1225  10.437   4.015   6.015
   77POPC   NC3 1226   1.893   5.911   8.135
   77POPC   PO4 1227   1.509   5.381   8.175
   77POPC   GL1 1228   1.849   5.442   7.822
   77POPC   GL2 1229   2.128   5.669   7.761
   77POPC   C1A 1230   1.833   5.322   7.407
   77POPC   D2A 1231   1.895   5.337   6.973
   77POPC   C3A 1232   1.631   5.458   6.629
   77POPC   C4A 1233   1.873   5.405   6.236
   77POPC   C1B 1234   1.995   5.831   7.364
   77POPC   C2B 1235   1.832   5.875   6.938
   77POPC   C3B 1236   2.009   5.808   6.535
   77POPC   C4B 1237   2.253   6.009   6.246
   78POPC   NC3 1238   8.474   3.374   7.867
   78POPC   PO4 1239   9.103   3.105   8.036
   78POPC   GL1 1240   8.907   3.279   7.665
   78POPC   GL2 1241   8.935   3.622   7.709
   78POPC   C1A 1242   8.692   3.481   7.275
   78POPC   D2A 1243   8.504   3.270   6.933
   78POPC   C3A 1244   8.692   3.337   6.529
   78POPC   C4A 1245   8.477   3.259   6.145
   78POPC   C1B 1246   9.111   3.803   7.309
   78POPC   C2B 1247   8.905   3.954   6.934
   78POPC   C3B 1248   8.971   3.916   6.481
   78POPC   C4B 1249   8.879   3.626   6.157
   79POPC   NC3 1250   9.835   4.212   8.484
   79POPC   PO4 1251   9.250   4.363   8.125
   79POPC   GL1 1252   9.281   4.200   7.707
   79POPC   GL2 1253   9.358   3.908   7.762
   79POPC   C1A 1254   9.429   4.339   7.326
   79POPC   D2A 1255   9.265   4.315   6.926
   79POPC   C3A 1256   9.404   4.499   6.540
   79POPC   C4A 1257   9.258   4.256   6.196
   79POPC   C1B 1258   9.627   3.865   7.390
   79POPC   C2B 1259   9.687   4.012   6.964
   79POPC   C3B 1260   9.488   3.979   6.578
   79POPC   C4B 1261   9.746   4.033   6.229
   80POPC   NC3 1262   6.187   6.754   7.682
   80POPC   PO4 1263   6.575   7.116   8.136
   80POPC   GL1 1264   6.636   7.133   7.664
   80POPC   GL2 1265   6.345   7.322   7.578
   80POPC   C1A 1266   6.741   6.869   7.252
   80POPC   D2A 1267   6.667   6.901   6.797
   80POPC   C3A 1268   6.716   6.592   6.440
   80POPC   C4A 1269   6.393   6.457   6.144
   80POPC   C1B 1270   6.590   7.371   7.185
   80POPC   C2B 1271   6.482   7.392   6.735
   80POPC   C3B 1272   6.273   7.179   6.404
   80POPC   C4B 1273   5.983   7.318   6.069
   81POPC   NC3 1274   0.576   1.097   8.310
   81POPC   PO4 1275  10.437   0.790   8.136
   81POPC   GL1 1276   0.007   0.961   7.744
   81POPC   GL2 1277   0.086   1.313   7.755
   81POPC   C1A 1278   0.125   0.935   7.320
   81POPC   D2A 1279   0.299   1.099   6.934
   81POPC   C3A 1280   0.159   0.991   6.543
   81POPC   C4A 1281   0.377   0.979   6.169
   81POPC   C1B 1282   0.274   1.405   7.346
   81POPC   C2B 1283   0.230   1.597   6.924
   81POPC   C3B 1284   0.295   1.480   6.436
   81POPC   C4B 1285   0.608   1.389   6.041
   82POPC   NC3 1286   9.234   6.262   8.165
   82POPC   PO4 1287   8.805   6.739   7.836
   82POPC   GL1 1288   9.006   6.343   7.706
   82POPC   GL2 1289   9.375   6.382   7.691
   82POPC   C1A 1290   9.066   6.181   7.288
   82POPC   D2A 1291   8.836   6.258   6.882
   82POPC   C3A 1292   9.122   6.294   6.507
   82POPC   C4A 1293   9.182   6.723   6.470
   82POPC   C1B 1294   9.327   6.610   7.318
   82POPC   C2B 1295   9.389   6.468   6.894
   82POPC   C3B 1296   9.637   6.477   6.499
   82POPC   C4B 1297   9.953   6.197   6.312
   83POPC   NC3 1298   9.547   0.651   7.922
   83POPC   PO4 1299   9.064   0.502   8.375
   83POPC   GL1 1300   9.142   0.381   7.784
   83POPC   GL2 1301   9.471   0.322   7.552
   83POPC   C1A 1302   9.067   0.512   7.330
   83POPC   D2A 1303   9.225   0.315   6.936
   83POPC   C3A 1304   9.133   0.436   6.522
   83POPC   C4A 1305   9.083   0.844   6.425
   83POPC   C1B 1306   9.586   0.636   7.224
   83POPC   C2B 1307   9.573   0.654   6.782
   83POPC   C3B 1308   9.595   0.656   6.363
   83POPC   C4B 1309   9.484   0.321   6.130
   84POPC   NC3 1310   7.108   6.959   7.804
   84POPC   PO4 1311   7.376   7.335   8.357
   84POPC   GL1 1312   7.428   7.319   7.849
   84POPC   GL2 1313   7.095   7.409   7.605
   84POPC   C1A 1314   7.532   7.370   7.380
   84POPC   D2A 1315   7.581   7.165   6.961
   84POPC   C3A 1316   7.559   7.307   6.541
   84POPC   C4A 1317   7.297   7.161   6.249
   84POPC   C1B 1318   7.088   7.239   7.155
   84POPC   C2B 1319   6.983   7.290   6.702
   84POPC   C3B 1320   6.799   7.081   6.325
   84POPC   C4B 1321   6.803   6.772   5.952
   85POPC   NC3 1322   7.796   1.749   8.143
   85POPC   PO4 1323   8.085   2.139   8.138
   85POPC   GL1 1324   8.043   1.904   7.698
   85POPC   GL2 1325   7.719   1.710   7.636
   85POPC   C1A 1326   8.030   1.724   7.239
   85POPC   D2A 1327   8.204   1.750   6.828
   85POPC   C3A 1328   8.008   1.598   6.434
   85POPC   C4A 1329   8.121   1.554   5.951
   85POPC   C1B 1330   7.699   2.091   7.325
   85POPC   C2B 1331   7.827   2.117   6.929
   85POPC   C3B 1332   7.924   2.096   6.531
   85POPC   C4B 1333   8.063   2.016   6.164
   86POPC   NC3 1334   6.976   9.154   8.006
   86POPC   PO4 1335   7.474   9.353   8.361
   86POPC   GL1 1336   7.448   9.285   7.859
   86POPC   GL2 1337   7.219   9.552   7.714
   86POPC   C1A 1338   7.353   9.142   7.396
   86POPC   D2A 1339   7.357   8.879   7.001
   86POPC   C3A 1340   7.328   9.133   6.630
   86POPC   C4A 1341   7.461   9.070   6.189
   86POPC   C1B 1342   6.911   9.404   7.389
   86POPC   C2B 1343   6.916   9.215   6.979
   86POPC   C3B 1344   6.918   9.425   6.550
   86POPC   C4B 1345   7.304   9.568   6.305
   87POPC   NC3 1346   6.970   1.078   8.135
   87POPC   PO4 1347   7.429   1.488   8.181
   87POPC   GL1 1348   7.274   1.328   7.752
   87POPC   GL2 1349   6.956   1.217   7.669
   87POPC   C1A 1350   7.286   1.182   7.311
   87POPC   D2A 1351   7.315   1.115   6.888
   87POPC   C3A 1352   7.137   1.371   6.560
   87POPC   C4A 1353   7.172   1.332   6.116
   87POPC   C1B 1354   6.846   0.875   7.370
   87POPC   C2B 1355   6.946   0.711   6.948
   87POPC   C3B 1356   7.122   0.812   6.529
   87POPC   C4B 1357   6.837   1.008   6.301
   88POPC   NC3 1358   2.531   0.934   8.119
   88POPC   PO4 1359   3.186   1.047   8.196
   88POPC   GL1 1360   3.110   1.283   7.776
   88POPC   GL2 1361   2.785   1.160   7.707
   88POPC   C1A 1362   3.042   1.387   7.308
   88POPC   D2A 1363   3.012   1.129   6.954
   88POPC   C3A 1364   2.867   1.250   6.557
   88POPC   C4A 1365   3.042   1.119   6.201
   88POPC   C1B 1366   2.590   1.115   7.291
   88POPC   C2B 1367   2.499   1.334   6.908
   88POPC   C3B 1368   2.333   1.174   6.519
   88POPC   C4B 1369   2.467   1.035   6.117
   89POPC   NC3 1370   0.519   9.092   8.018
   89POPC   PO4 1371   0.407   9.748   7.979
   89POPC   GL1 1372   0.630   9.439   7.681
   89POPC   GL2 1373   0.340   9.273   7.573
   89POPC   C1A 1374   0.696   9.183   7.250
   89POPC   D2A 1375   0.459   9.278   6.853
   89POPC   C3A 1376   0.514   9.033   6.474
   89POPC   C4A 1377   0.533   9.033   5.996
   89POPC   C1B 1378   0.428   9.633   7.286
   89POPC   C2B 1379   0.330   9.777   6.915
   89POPC   C3B 1380   0.505   9.786   6.543
   89POPC   C4B 1381   0.355   9.478   6.245
   90POPC   NC3 1382   5.734   9.049   8.014
   90POPC   PO4 1383   5.410   9.680   8.121
   90POPC   GL1 1384   5.550   9.461   7.727
   90POPC   GL2 1385   5.926   9.448   7.733
   90POPC   C1A 1386   5.592   9.153   7.362
   90POPC   D2A 1387   5.345   9.080   6.959
   90POPC   C3A 1388   5.575   9.112   6.566
   90POPC   C4A 1389   5.734   9.356   6.225
   90POPC   C1B 1390   5.871   9.608   7.326
   90POPC   C2B 1391   5.565   9.545   7.014
   90POPC   C3B 1392   5.658   9.641   6.637
   90POPC   C4B 1393   6.021   9.779   6.378
   91POPC   NC3 1394   3.795   2.782   8.139
   91POPC   PO4 1395   3.128   2.968   8.187
   91POPC   GL1 1396   3.406   2.950   7.822
   91POPC   GL2 1397   3.460   2.574   7.804
   91POPC   C1A 1398   3.265   2.996   7.392
   91POPC   D2A 1399   3.036   2.840   7.048
   91POPC   C3A 1400   3.202   2.858   6.634
   91POPC   C4A 1401   3.160   3.006   6.253
   91POPC   C1B 1402   3.341   2.487   7.381
   91POPC   C2B 1403   3.374   2.484   6.938
   91POPC   C3B 1404   3.403   2.405   6.509
   91POPC   C4B 1405   3.314   2.525   6.124
   92POPC   NC3 1406   1.882   8.233   8.108
   92POPC   PO4 1407   1.823   7.581   8.244
   92POPC   GL1 1408   1.623   7.794   7.833
   92POPC   GL2 1409   1.673   8.100   7.639
   92POPC   C1A 1410   1.678   7.646   7.359
   92POPC   D2A 1411   1.677   7.912   6.980
   92POPC   C3A 1412   1.684   7.772   6.537
   92POPC   C4A 1413   1.692   8.175   6.288
   92POPC   C1B 1414   2.053   7.969   7.397
   92POPC   C2B 1415   2.157   7.786   6.972
   92POPC   C3B 1416   2.105   8.043   6.618
   92POPC   C4B 1417   2.113   7.836   6.241
   93POPC   NC3 1418   7.738   7.705   7.946
   93POPC   PO4 1419   8.170   8.157   8.140
   93POPC   GL1 1420   7.984   8.056   7.695
   93POPC   GL2 1421   7.613   8.155   7.680
   93POPC   C1A 1422   8.117   7.898   7.281
   93POPC   D2A 1423   8.131   8.129   6.893
   93POPC   C3A 1424   8.142   7.980   6.492
   93POPC   C4A 1425   8.049   8.215   6.157
   93POPC   C1B 1426   7.614   7.889   7.322
   93POPC   C2B 1427   7.653   8.002   6.939
   93POPC   C3B 1428   7.629   7.904   6.521
   93POPC   C4B 1429   7.526   8.132   6.185
   94POPC   NC3 1430   0.602   7.470   7.960
   94POPC   PO4 1431   0.331   6.887   7.818
   94POPC   GL1 1432   0.725   6.968   7.653
   94POPC   GL2 1433   0.571   7.246   7.497
   94POPC   C1A 1434   0.804   6.910   7.209
   94POPC   D2A 1435   0.483   7.128   6.983
   94POPC   C3A 1436   0.496   7.032   6.594
   94POPC   C4A 1437   0.720   7.157   6.253
   94POPC   C1B 1438   0.114   7.199   7.329
   94POPC   C2B 1439  10.420   7.372   6.998
   94POPC   C3B 1440   0.203   7.474   6.668
   94POPC   C4B 1441   0.216   7.311   6.261
   95POPC   NC3 1442   2.243   7.469   8.088
   95POPC   PO4 1443   1.675   7.017   7.997
   95POPC   GL1 1444   1.730   7.102   7.593
   95POPC   GL2 1445   1.897   7.389   7.719
   95POPC   C1A 1446   1.703   7.173   7.155
   95POPC   D2A 1447   1.659   6.883   6.837
   95POPC   C3A 1448   1.610   7.044   6.462
   95POPC   C4A 1449   1.691   6.820   6.119
   95POPC   C1B 1450   2.198   7.457   7.399
   95POPC   C2B 1451   2.226   7.169   7.072
   95POPC   C3B 1452   2.006   7.267   6.716
   95POPC   C4B 1453   2.017   7.324   6.280
   96POPC   NC3 1454   4.250   3.491   8.043
   96POPC   PO4 1455   4.653   3.937   7.767
   96POPC   GL1 1456   4.368   3.618   7.544
   96POPC   GL2 1457   4.429   3.262   7.625
   96POPC   C1A 1458   4.277   3.489   7.103
   96POPC   D2A 1459   4.459   3.267   6.751
   96POPC   C3A 1460   4.465   3.556   6.393
   96POPC   C4A 1461   4.146   3.805   6.182
   96POPC   C1B 1462   4.282   3.014   7.294
   96POPC   C2B 1463   4.071   3.004   6.959
   96POPC   C3B 1464   3.937   3.225   6.635
   96POPC   C4B 1465   4.065   3.244   6.226
   97POPC   NC3 1466   5.086   2.856   8.204
   97POPC   PO4 1467   4.521   3.079   8.143
   97POPC   GL1 1468   4.804   2.936   7.758
   97POPC   GL2 1469   5.144   2.793   7.691
   97POPC   C1A 1470   4.802   2.919   7.285
   97POPC   D2A 1471   5.003   2.861   6.855
   97POPC   C3A 1472   4.795   2.742   6.489
   97POPC   C4A 1473   4.570   2.764   6.117
   97POPC   C1B 1474   5.234   2.629   7.255
   97POPC   C2B 1475   5.177   2.374   6.837
   97POPC   C3B 1476   5.271   2.527   6.405
   97POPC   C4B 1477   5.253   2.972   6.313
   98POPC   NC3 1478   1.776   6.585   8.050
   98POPC   PO4 1479   2.276   6.180   8.058
   98POPC   GL1 1480   1.951   6.205   7.719
   98POPC   GL2 1481   1.939   6.543   7.588
   98POPC   C1A 1482   1.657   6.208   7.336
   98POPC   D2A 1483   1.712   6.388   6.926
   98POPC   C3A 1484   1.906   6.335   6.526
   98POPC   C4A 1485   1.734   6.209   6.158
   98POPC   C1B 1486   1.982   6.727   7.221
   98POPC   C2B 1487   2.141   6.722   6.821
   98POPC   C3B 1488   2.117   6.829   6.416
   98POPC   C4B 1489   2.122   6.538   6.080
   99POPC   NC3 1490   1.305   2.891   7.925
   99POPC   PO4 1491   0.913   2.233   8.012
   99POPC   GL1 1492   0.990   2.500   7.663
   99POPC   GL2 1493   0.885   2.850   7.647
   99POPC   C1A 1494   0.959   2.289   7.271
   99POPC   D2A 1495   1.135   2.292   6.881
   99POPC   C3A 1496   0.968   2.392   6.466
   99POPC   C4A 1497   1.113   2.509   6.032
   99POPC   C1B 1498   1.114   2.765   7.238
   99POPC   C2B 1499   1.059   2.793   6.792
   99POPC   C3B 1500   1.231   2.851   6.428
   99POPC   C4B 1501   0.879   2.922   6.203
  100POPC   NC3 1502   8.242  10.332   8.044
  100POPC   PO4 1503   8.390   9.742   8.010
  100POPC   GL1 1504   8.048   9.939   7.742
  100POPC   GL2 1505   7.799  10.244   7.726
  100POPC   C1A 1506   8.092  10.178   7.335
  100POPC   D2A 1507   8.103  10.021   6.920
  100POPC   C3A 1508   8.184  10.220   6.530
  100POPC   C4A 1509   7.926  10.290   6.171
  100POPC   C1B 1510   7.618   9.979   7.361
  100POPC   C2B 1511   7.570   9.995   6.896
  100POPC   C3B 1512   7.755   9.924   6.492
  100POPC   C4B 1513   7.680   9.862   6.050
  101POPC   NC3 1514   1.975   1.332   8.088
  101POPC   PO4 1515   1.883   2.015   8.137
  101POPC   GL1 1516   1.754   1.922   7.716
  101POPC   GL2 1517   1.935   2.212   7.638
  101POPC   C1A 1518   1.683   1.693   7.298
  101POPC   D2A 1519   1.980   1.715   6.908
  101POPC   C3A 1520   2.134   1.724   6.473
  101POPC   C4A 1521   1.826   1.668   6.094
  101POPC   C1B 1522   1.975   2.104   7.244
  101POPC   C2B 1523   1.890   2.327   6.909
  101POPC   C3B 1524   1.951   2.376   6.512
  101POPC   C4B 1525   1.902   2.121   6.259
  102POPC   NC3 1526   0.641   3.508   8.106
  102POPC   PO4 1527  10.487   3.387   7.914
  102POPC   GL1 1528   0.085   3.692   7.617
  102POPC   GL2 1529   0.426   3.630   7.649
  102POPC   C1A 1530   0.193   3.617   7.176
  102POPC   D2A 1531   0.202   3.225   6.929
  102POPC   C3A 1532   0.119   3.309   6.487
  102POPC   C4A 1533   0.232   3.661   6.276
  102POPC   C1B 1534   0.705   3.638   7.318
  102POPC   C2B 1535   0.660   3.504   6.896
  102POPC   C3B 1536   0.706   3.674   6.501
  102POPC   C4B 1537   0.660   3.378   6.217
  103POPC   NC3 1538   0.297  10.191   8.119
  103POPC   PO4 1539   1.065  10.236   8.132
  103POPC   GL1 1540   0.823  10.269   7.685
  103POPC   GL2 1541   0.500  10.156   7.666
  103POPC   C1A 1542   0.752  10.075   7.242
  103POPC   D2A 1543   0.508  10.252   6.898
  103POPC   C3A 1544   0.712  10.295   6.515
  103POPC   C4A 1545   0.655  10.099   6.158
  103POPC   C1B 1546   0.185  10.077   7.374
  103POPC   C2B 1547  10.483  10.126   6.992
  103POPC   C3B 1548   0.094  10.125   6.594
  103POPC   C4B 1549   0.146   9.952   6.224
  104POPC   NC3 1550   7.745   1.266   7.928
  104POPC   PO4 1551   8.278   0.961   8.147
  104POPC   GL1 1552   8.186   1.023   7.701
  104POPC   GL2 1553   7.993   1.295   7.502
  104POPC   C1A 1554   8.243   0.955   7.262
  104POPC   D2A 1555   8.147   1.240   6.893
  104POPC   C3A 1556   8.155   1.125   6.480
  104POPC   C4A 1557   8.008   1.064   6.074
  104POPC   C1B 1558   7.757   1.034   7.188
  104POPC   C2B 1559   7.759   0.921   6.744
  104POPC   C3B 1560   7.628   1.239   6.436
  104POPC   C4B 1561   7.639   1.515   6.077
  105POPC   NC3 1562   6.812  10.076   8.005
  105POPC   PO4 1563   6.214   9.668   8.096
  105POPC   GL1 1564   6.194   9.907   7.727
  105POPC   GL2 1565   6.377  10.211   7.737
  105POPC   C1A 1566   6.102  10.074   7.316
  105POPC   D2A 1567   6.087   9.905   6.901
  105POPC   C3A 1568   6.087  10.247   6.612
  105POPC   C4A 1569   6.337  10.236   6.279
  105POPC   C1B 1570   6.653  10.270   7.376
  105POPC   C2B 1571   6.709  10.082   6.976
  105POPC   C3B 1572   6.722  10.296   6.614
  105POPC   C4B 1573   6.734   0.038   6.233
  106POPC   NC3 1574   4.833   1.907   8.005
  106POPC   PO4 1575   5.149   2.410   8.123
  106POPC   GL1 1576   4.927   2.326   7.677
  106POPC   GL2 1577   4.915   1.988   7.517
  106POPC   C1A 1578   4.792   2.384   7.224
  106POPC   D2A 1579   4.636   2.231   6.834
  106POPC   C3A 1580   4.856   2.243   6.438
  106POPC   C4A 1581   4.699   2.300   5.995
  106POPC   C1B 1582   4.815   1.846   7.130
  106POPC   C2B 1583   4.969   1.830   6.741
  106POPC   C3B 1584   5.011   1.741   6.348
  106POPC   C4B 1585   5.104   2.022   6.057
  107POPC   NC3 1586  10.249   8.487   8.029
  107POPC   PO4 1587   9.833   8.977   8.074
  107POPC   GL1 1588   9.988   8.765   7.687
  107POPC   GL2 1589   9.987   8.404   7.616
  107POPC   C1A 1590  10.164   8.751   7.282
  107POPC   D2A 1591   9.975   8.843   6.922
  107POPC   C3A 1592  10.223   8.746   6.607
  107POPC   C4A 1593  10.066   8.744   6.222
  107POPC   C1B 1594  10.340   8.285   7.363
  107POPC   C2B 1595  10.445   8.419   6.942
  107POPC   C3B 1596  10.322   8.268   6.523
  107POPC   C4B 1597  10.150   8.234   6.131
  108POPC   NC3 1598   1.946   9.889   7.982
  108POPC   PO4 1599   1.559   9.374   8.248
  108POPC   GL1 1600   1.770   9.446   7.784
  108POPC   GL2 1601   2.025   9.183   7.694
  108POPC   C1A 1602   1.966   9.506   7.327
  108POPC   D2A 1603   1.770   9.425   6.935
  108POPC   C3A 1604   1.902   9.556   6.507
  108POPC   C4A 1605   1.656   9.568   6.142
  108POPC   C1B 1606   2.101   8.980   7.315
  108POPC   C2B 1607   2.148   9.065   6.896
  108POPC   C3B 1608   1.889   9.073   6.566
  108POPC   C4B 1609   1.936   9.141   6.160
  109POPC   NC3 1610   0.852   9.838   7.953
  109POPC   PO4 1611   1.502   9.978   7.994
  109POPC   GL1 1612   1.243   9.980   7.665
  109POPC   GL2 1613   1.312  10.284   7.616
  109POPC   C1A 1614   1.272   9.980   7.224
  109POPC   D2A 1615   1.337   9.758   6.891
  109POPC   C3A 1616   1.055   9.912   6.610
  109POPC   C4A 1617   1.188   9.782   6.254
  109POPC   C1B 1618   1.111  10.468   7.283
  109POPC   C2B 1619   1.058  10.378   6.872
  109POPC   C3B 1620   1.235  10.365   6.444
  109POPC   C4B 1621   1.071   0.012   6.049
  110POPC   NC3 1622   7.753   9.618   8.113
  110POPC   PO4 1623   8.128   9.107   8.279
  110POPC   GL1 1624   7.980   9.182   7.847
  110POPC   GL2 1625   8.248   9.375   7.701
  110POPC   C1A 1626   7.798   9.393   7.448
  110POPC   D2A 1627   7.550   9.499   7.062
  110POPC   C3A 1628   7.733   9.441   6.649
  110POPC   C4A 1629   7.830   9.417   6.241
  110POPC   C1B 1630   8.214   9.669   7.337
  110POPC   C2B 1631   8.144   9.515   6.939
  110POPC   C3B 1632   8.294   9.698   6.557
  110POPC   C4B 1633   8.185   9.824   6.161
  111POPC   NC3 1634   9.287   7.881   8.025
  111POPC   PO4 1635   9.938   8.136   8.042
  111POPC   GL1 1636   9.638   8.034   7.700
  111POPC   GL2 1637   9.681   7.667   7.726
  111POPC   C1A 1638   9.436   8.060   7.270
  111POPC   D2A 1639   9.553   7.966   6.896
  111POPC   C3A 1640   9.357   8.129   6.578
  111POPC   C4A 1641   9.265   8.004   6.205
  111POPC   C1B 1642   9.464   7.545   7.347
  111POPC   C2B 1643   9.359   7.444   6.928
  111POPC   C3B 1644   9.448   7.612   6.528
  111POPC   C4B 1645   9.572   7.433   6.163
  112POPC   NC3 1646   8.733   1.137   8.054
  112POPC   PO4 1647   8.151   1.493   7.976
  112POPC   GL1 1648   8.440   1.489   7.666
  112POPC   GL2 1649   8.786   1.509   7.684
  112POPC   C1A 1650   8.447   1.441   7.236
  112POPC   D2A 1651   8.668   1.513   6.851
  112POPC   C3A 1652   8.513   1.491   6.427
  112POPC   C4A 1653   8.600   1.459   5.987
  112POPC   C1B 1654   8.767   1.101   7.417
  112POPC   C2B 1655   8.661   1.012   7.005
  112POPC   C3B 1656   8.642   1.020   6.610
  112POPC   C4B 1657   8.563   0.999   6.203
  113POPC   NC3 1658   5.216   0.299   8.307
  113POPC   PO4 1659   5.762   0.704   8.150
  113POPC   GL1 1660   5.691   0.658   7.691
  113POPC   GL2 1661   5.810   0.330   7.672
  113POPC   C1A 1662   5.557   0.472   7.242
  113POPC   D2A 1663   5.544   0.640   6.794
  113POPC   C3A 1664   5.517   0.546   6.316
  113POPC   C4A 1665   5.440   0.767   5.904
  113POPC   C1B 1666   6.026   0.544   7.296
  113POPC   C2B 1667   5.996   0.320   6.945
  113POPC   C3B 1668   5.923   0.362   6.556
  113POPC   C4B 1669   5.999   0.720   6.303
  114POPC   NC3 1670   2.071   3.492   8.154
  114POPC   PO4 1671   2.400   2.861   8.265
  114POPC   GL1 1672   2.244   3.138   7.835
  114POPC   GL2 1673   1.964   3.407   7.685
  114POPC   C1A 1674   2.177   3.095   7.361
  114POPC   D2A 1675   1.984   2.939   6.990
  114POPC   C3A 1676   2.192   3.063   6.627
  114POPC   C4A 1677   2.172   3.418   6.357
  114POPC   C1B 1678   1.725   3.371   7.299
  114POPC   C2B 1679   1.602   3.601   6.922
  114POPC   C3B 1680   1.576   3.358   6.556
  114POPC   C4B 1681   1.689   3.182   6.184
  115POPC   NC3 1682   7.999   2.606   8.168
  115POPC   PO4 1683   7.576   2.092   7.933
  115POPC   GL1 1684   7.894   2.405   7.697
  115POPC   GL2 1685   7.933   2.802   7.695
  115POPC   C1A 1686   7.970   2.556   7.259
  115POPC   D2A 1687   7.736   2.632   6.935
  115POPC   C3A 1688   7.988   2.593   6.612
  115POPC   C4A 1689   7.804   2.515   6.235
  115POPC   C1B 1690   8.186   3.021   7.355
  115POPC   C2B 1691   8.065   3.005   6.946
  115POPC   C3B 1692   7.793   3.058   6.611
  115POPC   C4B 1693   8.035   2.983   6.253
  116POPC   NC3 1694   2.960   9.484   8.177
  116POPC   PO4 1695   2.294   9.587   8.057
  116POPC   GL1 1696   2.499   9.374   7.731
  116POPC   GL2 1697   2.777   9.542   7.679
  116POPC   C1A 1698   2.468   9.373   7.272
  116POPC   D2A 1699   2.342   9.594   6.880
  116POPC   C3A 1700   2.354   9.349   6.499
  116POPC   C4A 1701   2.416   9.246   6.075
  116POPC   C1B 1702   2.701   9.833   7.338
  116POPC   C2B 1703   2.871   9.797   6.949
  116POPC   C3B 1704   2.822   9.577   6.610
  116POPC   C4B 1705   2.835   9.496   6.210
  117POPC   NC3 1706   9.484   2.827   7.940
  117POPC   PO4 1707   9.550   2.258   8.322
  117POPC   GL1 1708   9.493   2.262   7.820
  117POPC   GL2 1709   9.279   2.480   7.601
  117POPC   C1A 1710   9.640   2.251   7.336
  117POPC   D2A 1711   9.429   2.357   6.946
  117POPC   C3A 1712   9.522   2.601   6.588
  117POPC   C4A 1713   9.273   2.624   6.211
  117POPC   C1B 1714   9.500   2.761   7.279
  117POPC   C2B 1715   9.291   2.924   6.950
  117POPC   C3B 1716   9.158   2.979   6.580
  117POPC   C4B 1717   9.565   3.096   6.411
  118POPC   NC3 1718   5.633   8.286   8.016
  118POPC   PO4 1719   6.106   8.817   8.170
  118POPC   GL1 1720   6.011   8.615   7.769
  118POPC   GL2 1721   5.660   8.591   7.610
  118POPC   C1A 1722   6.020   8.794   7.339
  118POPC   D2A 1723   5.838   8.910   6.957
  118POPC   C3A 1724   5.880   8.698   6.547
  118POPC   C4A 1725   6.007   8.925   6.168
  118POPC   C1B 1726   5.462   8.662   7.226
  118POPC   C2B 1727   5.447   8.476   6.799
  118POPC   C3B 1728   5.343   8.569   6.378
  118POPC   C4B 1729   5.634   8.598   6.082
  119POPC   NC3 1730   1.194   9.007   8.173
  119POPC   PO4 1731   1.460   8.448   8.123
  119POPC   GL1 1732   1.375   8.508   7.724
  119POPC   GL2 1733   1.181   8.739   7.730
  119POPC   C1A 1734   1.312   8.382   7.306
  119POPC   D2A 1735   1.528   8.387   6.921
  119POPC   C3A 1736   1.285   8.315   6.569
  119POPC   C4A 1737   1.215   8.531   6.235
  119POPC   C1B 1738   1.114   8.874   7.342
  119POPC   C2B 1739   1.147   8.729   6.957
  119POPC   C3B 1740   1.046   8.985   6.659
  119POPC   C4B 1741   0.964   8.967   6.259
  120POPC   NC3 1742   2.761  10.323   8.366
  120POPC   PO4 1743   2.618   0.473   8.212
  120POPC   GL1 1744   2.820   0.445   7.815
  120POPC   GL2 1745   3.067   0.727   7.767
  120POPC   C1A 1746   2.613   0.318   7.409
  120POPC   D2A 1747   2.654   0.080   7.025
  120POPC   C3A 1748   2.775   0.280   6.664
  120POPC   C4A 1749   2.922   0.297   6.263
  120POPC   C1B 1750   2.937   0.741   7.334
  120POPC   C2B 1751   2.694   0.735   6.937
  120POPC   C3B 1752   2.729   0.760   6.487
  120POPC   C4B 1753   2.433   0.479   6.310
  121POPC   NC3 1754   4.227   7.967   8.357
  121POPC   PO4 1755   4.385   7.403   8.077
  121POPC   GL1 1756   4.344   7.421   7.652
  121POPC   GL2 1757   4.061   7.222   7.653
  121POPC   C1A 1758   4.295   7.343   7.204
  121POPC   D2A 1759   4.458   7.441   6.795
  121POPC   C3A 1760   4.350   7.194   6.424
  121POPC   C4A 1761   4.598   6.849   6.221
  121POPC   C1B 1762   4.038   6.918   7.319
  121POPC   C2B 1763   4.135   6.973   6.865
  121POPC   C3B 1764   3.973   6.794   6.474
  121POPC   C4B 1765   4.100   6.910   6.058
  122POPC   NC3 1766   8.030   3.362   8.265
  122POPC   PO4 1767   8.515   3.822   7.954
  122POPC   GL1 1768   8.147   3.709   7.679
  122POPC   GL2 1769   7.935   3.362   7.727
  122POPC   C1A 1770   8.151   3.518   7.275
  122POPC   D2A 1771   7.935   3.477   6.915
  122POPC   C3A 1772   8.165   3.406   6.547
  122POPC   C4A 1773   8.189   3.656   6.182
  122POPC   C1B 1774   7.709   3.180   7.327
  122POPC   C2B 1775   7.444   3.329   6.963
  122POPC   C3B 1776   7.564   3.503   6.526
  122POPC   C4B 1777   7.734   3.354   6.113
  123POPC   NC3 1778   2.597   8.468   8.442
  123POPC   PO4 1779   2.309   8.006   8.001
  123POPC   GL1 1780   2.557   7.810   7.707
  123POPC   GL2 1781   2.871   7.889   7.869
  123POPC   C1A 1782   2.539   7.888   7.270
  123POPC   D2A 1783   2.565   8.136   6.920
  123POPC   C3A 1784   2.584   7.889   6.574
  123POPC   C4A 1785   2.597   8.026   6.179
  123POPC   C1B 1786   2.997   7.834   7.418
  123POPC   C2B 1787   2.990   7.777   6.955
  123POPC   C3B 1788   2.950   7.547   6.539
  123POPC   C4B 1789   2.983   7.682   6.130
  124POPC   NC3 1790   2.520   8.406   7.877
  124POPC   PO4 1791   3.007   8.278   8.354
  124POPC   GL1 1792   3.032   8.369   7.826
  124POPC   GL2 1793   2.984   8.708   7.662
  124POPC   C1A 1794   2.882   8.318   7.338
  124POPC   D2A 1795   2.736   8.629   6.994
  124POPC   C3A 1796   2.700   8.499   6.531
  124POPC   C4A 1797   2.973   8.427   6.172
  124POPC   C1B 1798   2.895   9.031   7.308
  124POPC   C2B 1799   2.661   9.121   6.876
  124POPC   C3B 1800   2.763   9.061   6.453
  124POPC   C4B 1801   2.690   8.833   6.085
  125POPC   NC3 1802   7.746   6.416   8.076
  125POPC   PO4 1803   8.217   6.813   8.217
  125POPC   GL1 1804   8.070   6.671   7.755
  125POPC   GL2 1805   7.994   6.307   7.673
  125POPC   C1A 1806   8.171   6.549   7.283
  125POPC   D2A 1807   8.063   6.313   6.905
  125POPC   C3A 1808   8.019   6.503   6.508
  125POPC   C4A 1809   8.257   6.722   6.188
  125POPC   C1B 1810   7.706   6.347   7.305
  125POPC   C2B 1811   7.550   6.418   6.901
  125POPC   C3B 1812   7.555   6.276   6.489
  125POPC   C4B 1813   7.697   6.489   6.100
  126POPC   NC3 1814   2.583   5.848   7.938
  126POPC   PO4 1815   2.340   5.235   8.076
  126POPC   GL1 1816   2.430   5.261   7.682
  126POPC   GL2 1817   2.716   5.487   7.604
  126POPC   C1A 1818   2.315   5.448   7.310
  126POPC   D2A 1819   2.301   5.683   6.956
  126POPC   C3A 1820   2.533   5.547   6.637
  126POPC   C4A 1821   2.433   5.528   6.244
  126POPC   C1B 1822   2.654   5.858   7.285
  126POPC   C2B 1823   2.686   6.019   6.841
  126POPC   C3B 1824   2.762   5.949   6.400
  126POPC   C4B 1825   2.959   5.581   6.218
  127POPC   NC3 1826   9.404   9.352   8.106
  127POPC   PO4 1827   9.921   9.722   7.910
  127POPC   GL1 1828   9.683   9.445   7.660
  127POPC   GL2 1829   9.349   9.617   7.656
  127POPC   C1A 1830   9.658   9.472   7.213
  127POPC   D2A 1831   9.829   9.344   6.810
  127POPC   C3A 1832   9.844   9.590   6.445
  127POPC   C4A 1833   9.546   9.694   6.128
  127POPC   C1B 1834   9.161   9.405   7.304
  127POPC   C2B 1835   9.271   9.485   6.867
  127POPC   C3B 1836   9.346   9.365   6.455
  127POPC   C4B 1837   9.109   9.247   6.097
  128POPC   NC3 1838   4.675   1.288   7.934
  128POPC   PO4 1839   5.141   0.760   8.070
  128POPC   GL1 1840   5.179   0.862   7.630
  128POPC   GL2 1841   4.880   1.042   7.527
  128POPC   C1A 1842   5.291   0.917   7.186
  128POPC   D2A 1843   5.024   0.895   6.827
  128POPC   C3A 1844   5.127   0.867   6.372
  128POPC   C4A 1845   5.023   1.048   5.923
  128POPC   C1B 1846   5.124   1.393   7.298
  128POPC   C2B 1847   5.242   1.387   6.839
  128POPC   C3B 1848   4.872   1.296   6.552
  128POPC   C4B 1849   4.659   1.394   6.165
  129POPC   NC3 1850   8.871   9.865   8.089
  129POPC   PO4 1851   8.675  10.468   8.183
  129POPC   GL1 1852   8.848  10.299   7.779
  129POPC   GL2 1853   8.563  10.096   7.667
  129POPC   C1A 1854   9.043  10.013   7.427
  129POPC   D2A 1855   9.174   9.989   6.971
  129POPC   C3A 1856   9.042   9.833   6.559
  129POPC   C4A 1857   8.787  10.022   6.262
  129POPC   C1B 1858   8.578  10.101   7.214
  129POPC   C2B 1859   8.698  10.178   6.784
  129POPC   C3B 1860   8.626  10.460   6.441
  129POPC   C4B 1861   8.412  10.260   6.035
  130POPC   NC3 1862   3.425   3.404   8.066
  130POPC   PO4 1863   4.015   3.102   7.902
  130POPC   GL1 1864   3.812   3.403   7.654
  130POPC   GL2 1865   3.420   3.438   7.561
  130POPC   C1A 1866   3.794   3.337   7.222
  130POPC   D2A 1867   3.553   3.043   6.955
  130POPC   C3A 1868   3.429   3.311   6.591
  130POPC   C4A 1869   3.684   3.583   6.345
  130POPC   C1B 1870   3.314   3.450   7.101
  130POPC   C2B 1871   3.171   3.746   6.784
  130POPC   C3B 1872   3.277   3.916   6.393
  130POPC   C4B 1873   3.264   3.698   6.017
  131POPC   NC3 1874   5.204  10.107   8.024
  131POPC   PO4 1875   4.651   9.767   8.059
  131POPC   GL1 1876   4.779  10.129   7.714
  131POPC   GL2 1877   5.093  10.379   7.634
  131POPC   C1A 1878   4.923  10.074   7.243
  131POPC   D2A 1879   5.155   9.870   6.897
  131POPC   C3A 1880   5.068  10.043   6.498
  131POPC   C4A 1881   4.628  10.101   6.342
  131POPC   C1B 1882   5.264  10.442   7.233
  131POPC   C2B 1883   5.000  10.454   6.863
  131POPC   C3B 1884   4.745   0.064   6.500
  131POPC   C4B 1885   4.986  10.387   6.125
  132POPC   NC3 1886   6.411   7.649   7.997
  132POPC   PO4 1887   6.726   8.085   8.331
  132POPC   GL1 1888   6.673   8.034   7.792
  132POPC   GL2 1889   6.687   7.711   7.584
  132POPC   C1A 1890   6.744   8.099   7.276
  132POPC   D2A 1891   6.754   7.786   6.913
  132POPC   C3A 1892   6.665   7.960   6.530
  132POPC   C4A 1893   6.463   8.041   6.139
  132POPC   C1B 1894   6.319   7.804   7.304
  132POPC   C2B 1895   6.254   7.885   6.848
  132POPC   C3B 1896   6.203   7.697   6.411
  132POPC   C4B 1897   5.949   7.835   6.058
  133POPC   NC3 1898   5.428   1.083   8.248
  133POPC   PO4 1899   5.907   1.467   8.042
  133POPC   GL1 1900   5.834   1.423   7.632
  133POPC   GL2 1901   5.573   1.184   7.677
  133POPC   C1A 1902   5.641   1.474   7.233
  133POPC   D2A 1903   5.879   1.592   6.936
  133POPC   C3A 1904   5.703   1.542   6.579
  133POPC   C4A 1905   5.865   1.370   6.208
  133POPC   C1B 1906   5.787   0.995   7.305
  133POPC   C2B 1907   5.724   1.098   6.889
  133POPC   C3B 1908   5.600   1.039   6.475
  133POPC   C4B 1909   5.309   1.321   6.301
  134POPC   NC3 1910   4.687   7.730   7.940
  134POPC   PO4 1911   5.318   7.927   8.006
  134POPC   GL1 1912   5.098   7.948   7.632
  134POPC   GL2 1913   4.772   8.103   7.605
  134POPC   C1A 1914   5.182   7.683   7.281
  134POPC   D2A 1915   4.930   7.554   6.940
  134POPC   C3A 1916   5.094   7.572   6.518
  134POPC   C4A 1917   5.129   7.716   6.086
  134POPC   C1B 1918   4.821   8.046   7.164
  134POPC   C2B 1919   4.629   7.945   6.781
  134POPC   C3B 1920   4.708   7.861   6.372
  134POPC   C4B 1921   4.694   7.973   5.955
  135POPC   NC3 1922   1.025   8.268   8.078
  135POPC   PO4 1923   0.409   7.906   7.994
  135POPC   GL1 1924   0.752   8.042   7.675
  135POPC   GL2 1925   1.130   8.048   7.648
  135POPC   C1A 1926   0.751   7.984   7.261
  135POPC   D2A 1927   0.957   8.189   6.927
  135POPC   C3A 1928   0.814   8.107   6.483
  135POPC   C4A 1929   0.891   8.166   6.057
  135POPC   C1B 1930   1.238   7.849   7.281
  135POPC   C2B 1931   1.331   7.552   6.965
  135POPC   C3B 1932   1.188   7.812   6.663
  135POPC   C4B 1933   1.264   7.881   6.237
  136POPC   NC3 1934   8.628   6.534   8.203
  136POPC   PO4 1935   8.126   6.062   8.191
  136POPC   GL1 1936   8.481   6.122   7.840
  136POPC   GL2 1937   8.494   6.414   7.652
  136POPC   C1A 1938   8.575   6.049   7.340
  136POPC   D2A 1939   8.430   5.902   6.925
  136POPC   C3A 1940   8.407   6.153   6.563
  136POPC   C4A 1941   8.241   6.186   6.157
  136POPC   C1B 1942   8.665   6.599   7.236
  136POPC   C2B 1943   8.458   6.656   6.838
  136POPC   C3B 1944   8.674   6.569   6.471
  136POPC   C4B 1945   8.740   6.261   6.165
  137POPC   NC3 1946   5.595   7.576   8.048
  137POPC   PO4 1947   6.108   7.995   8.037
  137POPC   GL1 1948   5.890   7.870   7.647
  137POPC   GL2 1949   5.601   8.068   7.574
  137POPC   C1A 1950   5.725   7.771   7.189
  137POPC   D2A 1951   5.807   7.644   6.743
  137POPC   C3A 1952   5.571   7.613   6.341
  137POPC   C4A 1953   5.460   7.302   5.999
  137POPC   C1B 1954   5.345   8.166   7.227
  137POPC   C2B 1955   5.214   7.977   6.844
  137POPC   C3B 1956   5.204   8.075   6.438
  137POPC   C4B 1957   5.598   8.127   6.268
  138POPC   NC3 1958   8.391   5.652   8.095
  138POPC   PO4 1959   9.050   5.841   8.123
  138POPC   GL1 1960   8.885   5.817   7.706
  138POPC   GL2 1961   8.609   5.640   7.640
  138POPC   C1A 1962   8.955   5.686   7.270
  138POPC   D2A 1963   9.137   5.852   6.890
  138POPC   C3A 1964   8.840   5.881   6.540
  138POPC   C4A 1965   8.955   5.798   6.136
  138POPC   C1B 1966   8.477   5.498   7.252
  138POPC   C2B 1967   8.729   5.487   6.847
  138POPC   C3B 1968   8.691   5.399   6.400
  138POPC   C4B 1969   8.460   5.720   6.216
  139POPC   NC3 1970   3.809   7.978   7.922
  139POPC   PO4 1971   4.504   8.152   8.032
  139POPC   GL1 1972   4.271   7.946   7.650
  139POPC   GL2 1973   3.951   7.723   7.517
  139POPC   C1A 1974   4.322   7.845   7.200
  139POPC   D2A 1975   4.011   7.651   6.898
  139POPC   C3A 1976   4.189   7.731   6.494
  139POPC   C4A 1977   4.373   7.589   6.090
  139POPC   C1B 1978   3.808   8.010   7.195
  139POPC   C2B 1979   3.659   7.994   6.746
  139POPC   C3B 1980   3.837   8.086   6.341
  139POPC   C4B 1981   3.888   7.702   6.102
  140POPC   NC3 1982   3.285   7.914   8.292
  140POPC   PO4 1983   3.529   8.327   7.895
  140POPC   GL1 1984   3.421   8.131   7.552
  140POPC   GL2 1985   3.365   7.837   7.732
  140POPC   C1A 1986   3.326   8.146   7.118
  140POPC   D2A 1987   3.070   8.293   6.827
  140POPC   C3A 1988   3.080   8.046   6.496
  140POPC   C4A 1989   3.351   8.081   6.171
  140POPC   C1B 1990   3.444   7.687   7.289
  140POPC   C2B 1991   3.456   7.546   6.855
  140POPC   C3B 1992   3.457   7.641   6.397
  140POPC   C4B 1993   3.438   7.628   5.918
  141POPC   NC3 1994   3.490   9.663   8.052
  141POPC   PO4 1995   3.075   9.075   8.007
  141POPC   GL1 1996   3.251   9.355   7.727
  141POPC   GL2 1997   3.515   9.158   7.679
  141POPC   C1A 1998   3.162   9.532   7.311
  141POPC   D2A 1999   3.119   9.300   6.928
  141POPC   C3A 2000   3.258   9.306   6.519
  141POPC   C4A 2001   3.332   9.609   6.209
  141POPC   C1B 2002   3.441   9.106   7.277
  141POPC   C2B 2003   3.624   9.154   6.899
  141POPC   C3B 2004   3.656   8.963   6.535
  141POPC   C4B 2005   3.602   9.153   6.170
  142POPC   NC3 2006   3.463   6.138   8.070
  142POPC   PO4 2007   3.609   6.773   8.091
  142POPC   GL1 2008   3.250   6.671   7.778
  142POPC   GL2 2009   3.255   6.338   7.630
  142POPC   C1A 2010   3.292   6.728   7.296
  142POPC   D2A 2011   3.193   6.760   6.852
  142POPC   C3A 2012   3.485   6.574   6.551
  142POPC   C4A 2013   3.468   6.420   6.086
  142POPC   C1B 2014   3.457   6.260   7.206
  142POPC   C2B 2015   3.660   6.138   6.793
  142POPC   C3B 2016   3.828   6.230   6.386
  142POPC   C4B 2017   3.759   5.994   5.991
  143POPC   NC3 2018   1.963   2.501   8.078
  143POPC   PO4 2019   1.709   3.134   8.091
  143POPC   GL1 2020   1.761   2.932   7.686
  143POPC   GL2 2021   2.038   2.717   7.633
  143POPC   C1A 2022   1.659   2.693   7.314
  143POPC   D2A 2023   1.518   2.659   6.903
  143POPC   C3A 2024   1.728   2.826   6.556
  143POPC   C4A 2025   1.624   2.627   6.181
  143POPC   C1B 2026   2.218   2.555   7.236
  143POPC   C2B 2027   2.336   2.548   6.775
  143POPC   C3B 2028   2.338   2.661   6.337
  143POPC   C4B 2029   2.146   2.970   6.110
  144POPC   NC3 2030   2.697   3.177   8.143
  144POPC   PO4 2031   2.414   3.713   8.370
  144POPC   GL1 2032   2.541   3.573   7.873
  144POPC   GL2 2033   2.873   3.371   7.716
  144POPC   C1A 2034   2.389   3.556   7.427
  144POPC   D2A 2035   2.407   3.372   6.989
  144POPC   C3A 2036   2.543   3.624   6.650
  144POPC   C4A 2037   2.498   3.823   6.251
  144POPC   C1B 2038   2.849   3.458   7.253
  144POPC   C2B 2039   2.922   3.305   6.809
  144POPC   C3B 2040   2.970   3.476   6.366
  144POPC   C4B 2041   2.963   3.299   5.905
  145POPC   NC3 2042   0.799   2.644   8.167
  145POPC   PO4 2043   0.141   2.469   8.119
  145POPC   GL1 2044   0.360   2.794   7.839
  145POPC   GL2 2045   0.500   2.513   7.725
  145POPC   C1A 2046   0.472   3.107   7.467
  145POPC   D2A 2047   0.699   3.035   7.053
  145POPC   C3A 2048   0.559   3.024   6.609
  145POPC   C4A 2049   0.372   2.955   6.181
  145POPC   C1B 2050   0.572   2.624   7.315
  145POPC   C2B 2051   0.651   2.530   6.890
  145POPC   C3B 2052   0.461   2.518   6.489
  145POPC   C4B 2053   0.621   2.452   6.099
  146POPC   NC3 2054   7.873   8.735   8.136
  146POPC   PO4 2055   8.487   8.750   7.938
  146POPC   GL1 2056   8.242   8.492   7.739
  146POPC   GL2 2057   7.900   8.584   7.666
  146POPC   C1A 2058   8.214   8.397   7.318
  146POPC   D2A 2059   8.118   8.638   6.951
  146POPC   C3A 2060   8.160   8.521   6.544
  146POPC   C4A 2061   8.163   8.797   6.204
  146POPC   C1B 2062   8.028   8.914   7.387
  146POPC   C2B 2063   7.855   9.072   6.989
  146POPC   C3B 2064   7.796   8.918   6.550
  146POPC   C4B 2065   7.704   8.614   6.186
  147POPC   NC3 2066   1.248   9.773   8.314
  147POPC   PO4 2067   0.887   9.353   8.100
  147POPC   GL1 2068   1.252   9.504   7.845
  147POPC   GL2 2069   1.168   9.249   7.666
  147POPC   C1A 2070   1.464   9.525   7.383
  147POPC   D2A 2071   1.271   9.270   7.032
  147POPC   C3A 2072   1.403   9.345   6.577
  147POPC   C4A 2073   1.427   9.113   6.199
  147POPC   C1B 2074   0.977   9.587   7.366
  147POPC   C2B 2075   0.834   9.617   6.957
  147POPC   C3B 2076   0.868   9.434   6.544
  147POPC   C4B 2077   0.845   9.433   6.110
  148POPC   NC3 2078   9.678   4.378   7.953
  148POPC   PO4 2079   9.495   4.939   8.249
  148POPC   GL1 2080   9.454   4.775   7.781
  148POPC   GL2 2081   9.176   4.686   7.691
  148POPC   C1A 2082   9.765   4.750   7.387
  148POPC   D2A 2083   9.664   4.635   6.974
  148POPC   C3A 2084   9.715   4.941   6.654
  148POPC   C4A 2085   9.795   4.904   6.234
  148POPC   C1B 2086   9.278   4.852   7.294
  148POPC   C2B 2087   9.152   4.822   6.888
  148POPC   C3B 2088   9.231   4.995   6.514
  148POPC   C4B 2089   9.298   4.813   6.143
  149POPC   NC3 2090   0.820   1.342   7.828
  149POPC   PO4 2091   1.460   1.396   8.036
  149POPC   GL1 2092   1.236   1.105   7.624
  149POPC   GL2 2093   0.842   0.950   7.517
  149POPC   C1A 2094   1.216   0.900   7.198
  149POPC   D2A 2095   1.073   1.011   6.775
  149POPC   C3A 2096   1.361   0.884   6.434
  149POPC   C4A 2097   1.501   1.212   6.144
  149POPC   C1B 2098   0.766   1.252   7.169
  149POPC   C2B 2099   0.689   1.456   6.774
  149POPC   C3B 2100   0.931   1.398   6.431
  149POPC   C4B 2101   0.897   0.999   6.255
  150POPC   NC3 2102   7.796   7.085   8.270
  150POPC   PO4 2103   8.202   7.524   7.978
  150POPC   GL1 2104   8.043   7.431   7.606
  150POPC   GL2 2105   7.884   7.142   7.732
  150POPC   C1A 2106   7.988   7.405   7.181
  150POPC   D2A 2107   7.943   7.601   6.806
  150POPC   C3A 2108   8.004   7.499   6.377
  150POPC   C4A 2109   7.804   7.718   6.054
  150POPC   C1B 2110   7.829   6.926   7.345
  150POPC   C2B 2111   7.928   6.809   6.923
  150POPC   C3B 2112   7.987   7.012   6.546
  150POPC   C4B 2113   7.792   6.994   6.173
  151POPC   NC3 2114   5.832   9.938   8.147
  151POPC   PO4 2115   5.463   0.001   8.014
  151POPC   GL1 2116   5.633  10.326   7.640
  151POPC   GL2 2117   5.672   9.963   7.673
  151POPC   C1A 2118   5.765  10.464   7.220
  151POPC   D2A 2119   5.510   0.137   6.841
  151POPC   C3A 2120   5.414   0.059   6.412
  151POPC   C4A 2121   5.796   0.065   6.169
  151POPC   C1B 2122   5.480   9.974   7.289
  151POPC   C2B 2123   5.607  10.119   6.882
  151POPC   C3B 2124   5.619  10.114   6.457
  151POPC   C4B 2125   5.512   9.819   6.191
  152POPC   NC3 2126   6.289   2.535   8.079
  152POPC   PO4 2127   6.927   2.444   8.244
  152POPC   GL1 2128   6.777   2.596   7.780
  152POPC   GL2 2129   6.413   2.616   7.602
  152POPC   C1A 2130   6.801   2.600   7.301
  152POPC   D2A 2131   6.487   2.658   6.971
  152POPC   C3A 2132   6.713   2.684   6.622
  152POPC   C4A 2133   6.809   2.432   6.280
  152POPC   C1B 2134   6.106   2.792   7.303
  152POPC   C2B 2135   6.007   2.845   6.851
  152POPC   C3B 2136   6.232   2.794   6.456
  152POPC   C4B 2137   6.317   2.345   6.348
  153POPC   NC3 2138  10.156   5.909   8.043
  153POPC   PO4 2139  10.485   6.483   8.170
  153POPC   GL1 2140  10.242   6.392   7.774
  153POPC   GL2 2141   9.884   6.246   7.740
  153POPC   C1A 2142  10.256   6.204   7.357
  153POPC   D2A 2143   0.047   6.221   7.004
  153POPC   C3A 2144  10.363   6.207   6.617
  153POPC   C4A 2145  10.465   6.365   6.227
  153POPC   C1B 2146   9.835   6.495   7.332
  153POPC   C2B 2147  10.088   6.531   6.944
  153POPC   C3B 2148  10.119   6.648   6.502
  153POPC   C4B 2149   9.990   6.632   6.027
  154POPC   NC3 2150   8.239   4.998   8.020
  154POPC   PO4 2151   7.765   4.482   7.983
  154POPC   GL1 2152   7.858   4.611   7.575
  154POPC   GL2 2153   8.182   4.670   7.628
  154POPC   C1A 2154   7.763   4.678   7.133
  154POPC   D2A 2155   7.839   4.873   6.741
  154POPC   C3A 2156   7.490   4.920   6.442
  154POPC   C4A 2157   7.461   4.826   5.993
  154POPC   C1B 2158   8.111   5.025   7.326
  154POPC   C2B 2159   8.196   5.230   6.922
  154POPC   C3B 2160   8.273   5.112   6.525
  154POPC   C4B 2161   7.979   4.965   6.263
  155POPC   NC3 2162   6.301   8.373   8.239
  155POPC   PO4 2163   6.659   8.830   8.000
  155POPC   GL1 2164   6.493   8.823   7.593
  155POPC   GL2 2165   6.616   8.497   7.583
  155POPC   C1A 2166   6.482   8.763   7.117
  155POPC   D2A 2167   6.312   8.924   6.729
  155POPC   C3A 2168   6.481   8.890   6.299
  155POPC   C4A 2169   6.405   8.975   5.836
  155POPC   C1B 2170   6.250   8.330   7.377
  155POPC   C2B 2171   6.112   8.422   6.940
  155POPC   C3B 2172   6.349   8.423   6.531
  155POPC   C4B 2173   6.752   8.461   6.312
  156POPC   NC3 2174   9.351   0.881   8.376
  156POPC   PO4 2175   9.093   1.461   8.149
  156POPC   GL1 2176   9.247   1.300   7.734
  156POPC   GL2 2177   9.555   1.145   7.754
  156POPC   C1A 2178   9.264   1.018   7.345
  156POPC   D2A 2179   9.136   0.865   6.945
  156POPC   C3A 2180   9.091   1.265   6.710
  156POPC   C4A 2181   9.001   1.325   6.272
  156POPC   C1B 2182   9.750   1.172   7.310
  156POPC   C2B 2183   9.562   1.139   6.889
  156POPC   C3B 2184   9.516   1.153   6.422
  156POPC   C4B 2185   9.693   1.076   6.005
  157POPC   NC3 2186   1.757   4.316   8.133
  157POPC   PO4 2187   2.161   3.912   7.945
  157POPC   GL1 2188   1.840   4.072   7.681
  157POPC   GL2 2189   1.819   4.456   7.660
  157POPC   C1A 2190   1.817   3.903   7.285
  157POPC   D2A 2191   2.127   3.796   6.990
  157POPC   C3A 2192   1.949   3.805   6.600
  157POPC   C4A 2193   1.997   3.939   6.225
  157POPC   C1B 2194   2.026   4.378   7.266
  157POPC   C2B 2195   1.862   4.243   6.861
  157POPC   C3B 2196   1.849   4.413   6.443
  157POPC   C4B 2197   1.958   4.380   5.980
  158POPC   NC3 2198   4.009   1.809   8.046
  158POPC   PO4 2199   4.568   1.679   7.720
  158POPC   GL1 2200   4.397   1.991   7.460
  158POPC   GL2 2201   4.075   2.054   7.593
  158POPC   C1A 2202   4.183   2.030   7.060
  158POPC   D2A 2203   4.133   2.374   6.782
  158POPC   C3A 2204   4.350   2.297   6.415
  158POPC   C4A 2205   4.524   1.882   6.309
  158POPC   C1B 2206   3.979   1.653   7.374
  158POPC   C2B 2207   4.049   1.390   6.997
  158POPC   C3B 2208   4.217   1.578   6.623
  158POPC   C4B 2209   4.009   1.879   6.363
  159POPC   NC3 2210   2.811   2.634   8.238
  159POPC   PO4 2211   2.363   2.414   7.859
  159POPC   GL1 2212   2.602   2.783   7.781
  159POPC   GL2 2213   2.954   2.732   7.748
  159POPC   C1A 2214   2.687   3.008   7.418
  159POPC   D2A 2215   2.537   2.897   7.050
  159POPC   C3A 2216   2.687   2.896   6.653
  159POPC   C4A 2217   2.615   3.126   6.303
  159POPC   C1B 2218   2.814   2.499   7.388
  159POPC   C2B 2219   2.786   2.358   6.990
  159POPC   C3B 2220   2.909   2.438   6.628
  159POPC   C4B 2221   2.831   2.627   6.240
  160POPC   NC3 2222   7.486   3.449   8.004
  160POPC   PO4 2223   6.888   3.406   8.329
  160POPC   GL1 2224   7.009   3.250   7.789
  160POPC   GL2 2225   7.311   3.372   7.555
  160POPC   C1A 2226   6.913   3.489   7.285
  160POPC   D2A 2227   7.066   3.739   6.869
  160POPC   C3A 2228   6.876   3.741   6.388
  160POPC   C4A 2229   6.871   3.662   5.901
  160POPC   C1B 2230   7.123   3.028   7.333
  160POPC   C2B 2231   6.974   3.051   6.916
  160POPC   C3B 2232   7.071   3.316   6.600
  160POPC   C4B 2233   7.194   3.398   6.204
  161POPC   NC3 2234   6.665   3.580   7.980
  161POPC   PO4 2235   6.516   2.940   8.074
  161POPC   GL1 2236   6.542   3.101   7.670
  161POPC   GL2 2237   6.425   3.423   7.551
  161POPC   C1A 2238   6.596   3.075   7.237
  161POPC   D2A 2239   6.600   3.392   6.889
  161POPC   C3A 2240   6.585   3.203   6.478
  161POPC   C4A 2241   6.494   3.376   6.088
  161POPC   C1B 2242   6.148   3.297   7.154
  161POPC   C2B 2243   6.129   3.311   6.684
  161POPC   C3B 2244   6.053   3.548   6.300
  161POPC   C4B 2245   5.916   3.922   6.030
  162POPC   NC3 2246   3.467   2.158   8.175
  162POPC   PO4 2247   2.881   1.999   8.197
  162POPC   GL1 2248   3.198   1.844   7.811
  162POPC   GL2 2249   3.561   1.990   7.700
  162POPC   C1A 2250   3.177   1.968   7.332
  162POPC   D2A 2251   3.201   2.031   6.853
  162POPC   C3A 2252   3.178   1.649   6.633
  162POPC   C4A 2253   3.034   1.631   6.210
  162POPC   C1B 2254   3.692   2.123   7.253
  162POPC   C2B 2255   3.713   2.067   6.779
  162POPC   C3B 2256   3.511   1.945   6.372
  162POPC   C4B 2257   3.718   2.231   6.081
  163POPC   NC3 2258   4.007   7.020   8.123
  163POPC   PO4 2259   3.520   7.537   8.128
  163POPC   GL1 2260   3.580   7.384   7.685
  163POPC   GL2 2261   3.567   7.038   7.614
  163POPC   C1A 2262   3.759   7.318   7.240
  163POPC   D2A 2263   3.633   7.058   6.910
  163POPC   C3A 2264   3.818   7.284   6.556
  163POPC   C4A 2265   3.704   7.234   6.137
  163POPC   C1B 2266   3.238   7.227   7.322
  163POPC   C2B 2267   3.051   7.237   6.924
  163POPC   C3B 2268   3.293   7.169   6.529
  163POPC   C4B 2269   3.340   6.902   6.196
  164POPC   NC3 2270   1.892   5.111   8.189
  164POPC   PO4 2271   1.420   4.640   8.004
  164POPC   GL1 2272   1.607   4.950   7.734
  164POPC   GL2 2273   1.989   4.949   7.720
  164POPC   C1A 2274   1.720   4.803   7.300
  164POPC   D2A 2275   1.962   4.770   6.894
  164POPC   C3A 2276   1.779   4.945   6.513
  164POPC   C4A 2277   1.638   4.761   6.121
  164POPC   C1B 2278   2.209   4.948   7.319
  164POPC   C2B 2279   2.355   5.128   6.921
  164POPC   C3B 2280   2.268   5.107   6.500
  164POPC   C4B 2281   2.193   4.748   6.251
  165POPC   NC3 2282   6.903   8.419   8.042
  165POPC   PO4 2283   7.427   8.766   7.991
  165POPC   GL1 2284   7.134   8.774   7.698
  165POPC   GL2 2285   7.418   8.651   7.488
  165POPC   C1A 2286   6.955   8.771   7.311
  165POPC   D2A 2287   6.919   8.539   6.931
  165POPC   C3A 2288   6.844   8.836   6.653
  165POPC   C4A 2289   6.981   8.955   6.279
  165POPC   C1B 2290   7.708   8.483   7.194
  165POPC   C2B 2291   7.648   8.470   6.750
  165POPC   C3B 2292   7.318   8.639   6.515
  165POPC   C4B 2293   7.208   8.534   6.095
  166POPC   NC3 2294   3.096   0.542   8.255
  166POPC   PO4 2295   3.713   0.784   8.418
  166POPC   GL1 2296   3.534   0.613   7.961
  166POPC   GL2 2297   3.374   0.299   7.854
  166POPC   C1A 2298   3.564   0.562   7.458
  166POPC   D2A 2299   3.356   0.712   7.040
  166POPC   C3A 2300   3.400   0.549   6.614
  166POPC   C4A 2301   3.252   0.647   6.217
  166POPC   C1B 2302   3.135   0.274   7.449
  166POPC   C2B 2303   3.167   0.239   6.981
  166POPC   C3B 2304   3.254   0.046   6.553
  166POPC   C4B 2305   3.451   0.151   6.148
  167POPC   NC3 2306   4.149   8.743   8.095
  167POPC   PO4 2307   4.033   9.137   7.666
  167POPC   GL1 2308   4.359   8.841   7.605
  167POPC   GL2 2309   4.333   8.477   7.679
  167POPC   C1A 2310   4.323   8.798   7.178
  167POPC   D2A 2311   4.095   8.916   6.825
  167POPC   C3A 2312   4.020   8.612   6.501
  167POPC   C4A 2313   4.015   8.871   6.124
  167POPC   C1B 2314   4.181   8.332   7.278
  167POPC   C2B 2315   4.143   8.165   6.827
  167POPC   C3B 2316   4.344   8.216   6.436
  167POPC   C4B 2317   4.388   8.489   6.123
  168POPC   NC3 2318   9.976   2.329   8.160
  168POPC   PO4 2319   9.979   1.679   8.122
  168POPC   GL1 2320  10.267   1.742   7.774
  168POPC   GL2 2321  10.141   2.086   7.691
  168POPC   C1A 2322  10.491   1.822   7.377
  168POPC   D2A 2323  10.392   2.018   6.983
  168POPC   C3A 2324  10.435   1.827   6.604
  168POPC   C4A 2325  10.322   1.729   6.232
  168POPC   C1B 2326   9.989   1.886   7.306
  168POPC   C2B 2327   9.870   2.056   6.884
  168POPC   C3B 2328  10.015   2.082   6.468
  168POPC   C4B 2329  10.182   2.359   6.139
  169POPC   NC3 2330   1.408   7.348   8.169
  169POPC   PO4 2331   0.911   7.794   8.071
  169POPC   GL1 2332   0.985   7.556   7.638
  169POPC   GL2 2333   1.320   7.423   7.669
  169POPC   C1A 2334   0.876   7.481   7.170
  169POPC   D2A 2335   0.858   7.373   6.725
  169POPC   C3A 2336   1.202   7.358   6.467
  169POPC   C4A 2337   1.141   7.409   6.045
  169POPC   C1B 2338   1.227   7.169   7.355
  169POPC   C2B 2339   1.202   7.059   6.935
  169POPC   C3B 2340   1.018   6.876   6.582
  169POPC   C4B 2341   1.192   6.935   6.184
  170POPC   NC3 2342  10.360   2.930   7.976
  170POPC   PO4 2343   9.862   2.607   7.815
  170POPC   GL1 2344  10.195   2.603   7.600
  170POPC   GL2 2345   0.007   2.453   7.627
  170POPC   C1A 2346  10.188   2.423   7.217
  170POPC   D2A 2347   9.897   2.562   6.953
  170POPC   C3A 2348  10.045   2.612   6.562
  170POPC   C4A 2349   9.850   2.748   6.204
  170POPC   C1B 2350   0.062   2.801   7.321
  170POPC   C2B 2351  10.354   2.847   6.924
  170POPC   C3B 2352   0.038   2.820   6.557
  170POPC   C4B 2353  10.356   2.901   6.189
  171POPC   NC3 2354  10.141   9.330   7.986
  171POPC   PO4 2355   0.071   8.809   7.903
  171POPC   GL1 2356  10.359   9.125   7.593
  171POPC   GL2 2357  10.413   9.543   7.633
  171POPC   C1A 2358  10.111   9.250   7.250
  171POPC   D2A 2359  10.329   9.246   6.862
  171POPC   C3A 2360  10.171   9.202   6.440
  171POPC   C4A 2361   0.044   9.051   6.232
  171POPC   C1B 2362  10.421   9.650   7.228
  171POPC   C2B 2363  10.166   9.730   6.906
  171POPC   C3B 2364  10.377   9.660   6.541
  171POPC   C4B 2365  10.320   9.562   6.120
  172POPC   NC3 2366  10.377   6.896   7.977
  172POPC   PO4 2367   9.775   7.334   8.125
  172POPC   GL1 2368  10.004   7.179   7.750
  172POPC   GL2 2369  10.254   7.386   7.632
  172POPC   C1A 2370  10.155   6.970   7.326
  172POPC   D2A 2371  10.004   7.061   6.889
  172POPC   C3A 2372  10.313   7.132   6.561
  172POPC   C4A 2373  10.365   6.965   6.179
  172POPC   C1B 2374   9.976   7.467   7.320
  172POPC   C2B 2375   9.880   7.584   6.927
  172POPC   C3B 2376   9.937   7.467   6.527
  172POPC   C4B 2377  10.101   7.405   6.134
  173POPC   NC3 2378   8.773   2.598   8.106
  173POPC   PO4 2379   8.242   3.020   8.033
  173POPC   GL1 2380   8.558   2.882   7.712
  173POPC   GL2 2381   8.433   2.624   7.481
  173POPC   C1A 2382   8.746   2.951   7.277
  173POPC   D2A 2383   8.486   2.732   6.960
  173POPC   C3A 2384   8.445   2.892   6.541
  173POPC   C4A 2385   8.794   2.885   6.214
  173POPC   C1B 2386   8.779   2.406   7.264
  173POPC   C2B 2387   8.955   2.521   6.861
  173POPC   C3B 2388   8.716   2.462   6.500
  173POPC   C4B 2389   8.331   2.440   6.264
  174POPC   NC3 2390   6.381   0.685   4.042
  174POPC   PO4 2391   6.820   0.189   3.916
  174POPC   GL1 2392   6.611   0.320   4.285
  174POPC   GL2 2393   6.266   0.212   4.246
  174POPC   C1A 2394   6.729   0.541   4.661
  174POPC   D2A 2395   6.722   0.273   5.020
  174POPC   C3A 2396   6.609   0.449   5.391
  174POPC   C4A 2397   6.617   0.202   5.758
  174POPC   C1B 2398   6.243   0.411   4.658
  174POPC   C2B 2399   6.168   0.274   5.079
  174POPC   C3B 2400   6.143   0.317   5.519
  174POPC   C4B 2401   6.324   0.650   5.831
  175POPC   NC3 2402   5.603   2.168   3.920
  175POPC   PO4 2403   6.051   1.572   3.880
  175POPC   GL1 2404   6.107   1.716   4.301
  175POPC   GL2 2405   5.746   1.817   4.295
  175POPC   C1A 2406   5.977   1.728   4.753
  175POPC   D2A 2407   5.658   1.781   5.074
  175POPC   C3A 2408   5.825   1.948   5.454
  175POPC   C4A 2409   5.869   1.685   5.800
  175POPC   C1B 2410   5.634   2.090   4.644
  175POPC   C2B 2411   5.322   2.149   4.962
  175POPC   C3B 2412   5.352   2.231   5.363
  175POPC   C4B 2413   5.329   2.346   5.760
  176POPC   NC3 2414  10.473   9.539   3.982
  176POPC   PO4 2415   0.577   9.858   3.753
  176POPC   GL1 2416   0.568   9.586   4.135
  176POPC   GL2 2417   0.417   9.251   4.095
  176POPC   C1A 2418   0.760   9.627   4.544
  176POPC   D2A 2419   0.889   9.644   4.972
  176POPC   C3A 2420   0.651   9.399   5.223
  176POPC   C4A 2421   0.640   9.386   5.646
  176POPC   C1B 2422   0.222   9.229   4.539
  176POPC   C2B 2423   0.156   9.364   4.976
  176POPC   C3B 2424   0.202   9.216   5.385
  176POPC   C4B 2425   0.140   9.356   5.795
  177POPC   NC3 2426   3.536   0.922   3.788
  177POPC   PO4 2427   3.234   0.286   3.898
  177POPC   GL1 2428   3.405   0.429   4.233
  177POPC   GL2 2429   3.611   0.153   4.296
  177POPC   C1A 2430   3.492   0.524   4.661
  177POPC   D2A 2431   3.661   0.506   5.057
  177POPC   C3A 2432   3.631   0.773   5.421
  177POPC   C4A 2433   3.568   0.541   5.824
  177POPC   C1B 2434   3.269   0.068   4.585
  177POPC   C2B 2435   3.191   0.239   4.986
  177POPC   C3B 2436   3.262   0.416   5.388
  177POPC   C4B 2437   3.109   0.362   5.793
  178POPC   NC3 2438   2.940   4.343   3.968
  178POPC   PO4 2439   2.356   4.147   4.067
  178POPC   GL1 2440   2.582   4.274   4.380
  178POPC   GL2 2441   2.905   4.133   4.409
  178POPC   C1A 2442   2.635   4.314   4.802
  178POPC   D2A 2443   2.446   4.131   5.106
  178POPC   C3A 2444   2.502   4.356   5.485
  178POPC   C4A 2445   2.849   4.437   5.707
  178POPC   C1B 2446   3.034   3.861   4.702
  178POPC   C2B 2447   2.934   3.922   5.094
  178POPC   C3B 2448   3.120   4.095   5.443
  178POPC   C4B 2449   3.254   4.157   5.839
  179POPC   NC3 2450   9.510   8.109   3.601
  179POPC   PO4 2451   8.916   8.054   3.889
  179POPC   GL1 2452   9.151   8.066   4.263
  179POPC   GL2 2453   9.454   7.918   4.364
  179POPC   C1A 2454   9.110   7.941   4.707
  179POPC   D2A 2455   9.425   7.985   5.035
  179POPC   C3A 2456   9.199   7.877   5.391
  179POPC   C4A 2457   9.402   7.937   5.745
  179POPC   C1B 2458   9.615   7.620   4.634
  179POPC   C2B 2459   9.822   7.628   5.007
  179POPC   C3B 2460   9.728   7.712   5.414
  179POPC   C4B 2461   9.836   7.485   5.723
  180POPC   NC3 2462   9.405   6.502   3.874
  180POPC   PO4 2463   9.902   6.955   3.965
  180POPC   GL1 2464   9.766   6.734   4.364
  180POPC   GL2 2465   9.395   6.649   4.385
  180POPC   C1A 2466   9.694   6.625   4.788
  180POPC   D2A 2467   9.674   6.356   5.163
  180POPC   C3A 2468   9.694   6.572   5.583
  180POPC   C4A 2469   9.469   6.604   6.021
  180POPC   C1B 2470   9.294   6.337   4.785
  180POPC   C2B 2471   9.170   6.242   5.186
  180POPC   C3B 2472   9.212   6.389   5.566
  180POPC   C4B 2473   9.188   6.188   5.937
  181POPC   NC3 2474   3.208   7.235   4.066
  181POPC   PO4 2475   3.818   7.505   3.974
  181POPC   GL1 2476   3.628   7.390   4.420
  181POPC   GL2 2477   3.236   7.420   4.530
  181POPC   C1A 2478   3.596   7.421   4.898
  181POPC   D2A 2479   3.352   7.258   5.238
  181POPC   C3A 2480   3.527   7.198   5.636
  181POPC   C4A 2481   3.657   6.805   5.812
  181POPC   C1B 2482   3.113   7.023   4.781
  181POPC   C2B 2483   3.142   6.797   5.187
  181POPC   C3B 2484   3.030   7.017   5.576
  181POPC   C4B 2485   3.057   7.468   5.651
  182POPC   NC3 2486   9.666   9.954   3.929
  182POPC   PO4 2487   9.029   9.801   4.169
  182POPC   GL1 2488   9.117  10.022   4.455
  182POPC   GL2 2489   9.314  10.238   4.242
  182POPC   C1A 2490   9.194   9.942   4.897
  182POPC   D2A 2491   9.491   9.922   5.239
  182POPC   C3A 2492   9.459   9.971   5.701
  182POPC   C4A 2493   9.275  10.124   6.116
  182POPC   C1B 2494   9.553  10.321   4.582
  182POPC   C2B 2495   9.513  10.410   4.990
  182POPC   C3B 2496   9.636  10.389   5.391
  182POPC   C4B 2497   9.440  10.463   5.791
  183POPC   NC3 2498   9.310   2.841   3.826
  183POPC   PO4 2499   9.667   2.519   4.173
  183POPC   GL1 2500   9.323   2.596   4.381
  183POPC   GL2 2501   9.048   2.809   4.264
  183POPC   C1A 2502   9.528   2.714   4.766
  183POPC   D2A 2503   9.582   2.508   5.093
  183POPC   C3A 2504   9.449   2.730   5.422
  183POPC   C4A 2505   9.596   2.599   5.789
  183POPC   C1B 2506   9.107   2.953   4.673
  183POPC   C2B 2507   9.257   3.045   5.054
  183POPC   C3B 2508   9.025   3.025   5.389
  183POPC   C4B 2509   9.110   2.845   5.789
  184POPC   NC3 2510   8.838   7.630   4.063
  184POPC   PO4 2511   8.379   8.133   4.166
  184POPC   GL1 2512   8.673   8.043   4.415
  184POPC   GL2 2513   8.596   7.748   4.486
  184POPC   C1A 2514   8.658   8.128   4.842
  184POPC   D2A 2515   8.501   7.911   5.210
  184POPC   C3A 2516   8.527   8.119   5.590
  184POPC   C4A 2517   8.913   8.205   5.745
  184POPC   C1B 2518   8.722   7.599   4.852
  184POPC   C2B 2519   8.489   7.397   5.141
  184POPC   C3B 2520   8.469   7.457   5.575
  184POPC   C4B 2521   8.811   7.708   5.728
  185POPC   NC3 2522   4.709   0.560   3.826
  185POPC   PO4 2523   5.315   0.170   3.927
  185POPC   GL1 2524   5.134   0.348   4.309
  185POPC   GL2 2525   4.807   0.352   4.275
  185POPC   C1A 2526   5.269   0.622   4.686
  185POPC   D2A 2527   5.131   0.801   5.072
  185POPC   C3A 2528   5.020   0.482   5.330
  185POPC   C4A 2529   4.958   0.523   5.757
  185POPC   C1B 2530   4.791   0.445   4.715
  185POPC   C2B 2531   4.584   0.311   5.086
  185POPC   C3B 2532   4.663   0.137   5.505
  185POPC   C4B 2533   4.627   0.168   5.956
  186POPC   NC3 2534   5.725  10.455   3.853
  186POPC   PO4 2535   5.352  10.043   3.597
  186POPC   GL1 2536   5.436  10.231   4.180
  186POPC   GL2 2537   5.755  10.186   4.335
  186POPC   C1A 2538   5.356  10.112   4.664
  186POPC   D2A 2539   5.399  10.155   5.127
  186POPC   C3A 2540   5.279  10.344   5.531
  186POPC   C4A 2541   5.426  10.249   5.968
  186POPC   C1B 2542   5.806  10.320   4.792
  186POPC   C2B 2543   5.832  10.423   5.235
  186POPC   C3B 2544   5.777  10.406   5.655
  186POPC   C4B 2545   5.904  10.111   6.024
  187POPC   NC3 2546  10.389   7.938   4.032
  187POPC   PO4 2547   9.892   8.256   3.815
  187POPC   GL1 2548   9.921   8.115   4.229
  187POPC   GL2 2549   9.951   7.735   4.252
  187POPC   C1A 2550   9.816   8.103   4.662
  187POPC   D2A 2551  10.050   8.091   4.993
  187POPC   C3A 2552   9.862   8.176   5.308
  187POPC   C4A 2553   9.842   8.225   5.725
  187POPC   C1B 2554  10.241   7.733   4.636
  187POPC   C2B 2555  10.487   7.823   5.016
  187POPC   C3B 2556  10.318   7.921   5.409
  187POPC   C4B 2557  10.193   7.830   5.809
  188POPC   NC3 2558   2.836   1.570   3.938
  188POPC   PO4 2559   2.658   0.959   3.806
  188POPC   GL1 2560   2.585   1.193   4.150
  188POPC   GL2 2561   2.943   1.124   4.256
  188POPC   C1A 2562   2.513   1.207   4.556
  188POPC   D2A 2563   2.707   0.983   4.866
  188POPC   C3A 2564   2.404   0.842   5.164
  188POPC   C4A 2565   2.365   0.991   5.583
  188POPC   C1B 2566   3.005   1.405   4.601
  188POPC   C2B 2567   2.937   1.436   5.037
  188POPC   C3B 2568   2.756   1.194   5.336
  188POPC   C4B 2569   2.802   1.238   5.777
  189POPC   NC3 2570   5.642   8.842   3.875
  189POPC   PO4 2571   6.190   8.291   3.857
  189POPC   GL1 2572   5.932   8.343   4.251
  189POPC   GL2 2573   5.759   8.630   4.314
  189POPC   C1A 2574   5.853   8.351   4.716
  189POPC   D2A 2575   5.997   8.524   5.109
  189POPC   C3A 2576   5.809   8.227   5.356
  189POPC   C4A 2577   5.719   8.201   5.771
  189POPC   C1B 2578   5.672   8.957   4.623
  189POPC   C2B 2579   5.750   9.009   5.048
  189POPC   C3B 2580   5.583   8.890   5.431
  189POPC   C4B 2581   5.633   9.043   5.834
  190POPC   NC3 2582   7.334   1.241   3.889
  190POPC   PO4 2583   6.766   0.873   3.882
  190POPC   GL1 2584   7.011   0.959   4.240
  190POPC   GL2 2585   7.054   1.279   4.299
  190POPC   C1A 2586   6.984   0.975   4.706
  190POPC   D2A 2587   7.055   1.133   5.124
  190POPC   C3A 2588   6.898   0.860   5.474
  190POPC   C4A 2589   7.118   0.841   5.919
  190POPC   C1B 2590   7.240   1.411   4.691
  190POPC   C2B 2591   7.096   1.649   4.965
  190POPC   C3B 2592   7.081   1.631   5.363
  190POPC   C4B 2593   7.119   1.272   5.626
  191POPC   NC3 2594   5.868   7.945   3.929
  191POPC   PO4 2595   5.237   8.104   3.940
  191POPC   GL1 2596   5.477   8.099   4.336
  191POPC   GL2 2597   5.797   7.887   4.431
  191POPC   C1A 2598   5.396   8.050   4.774
  191POPC   D2A 2599   5.140   8.150   5.120
  191POPC   C3A 2600   5.169   7.900   5.480
  191POPC   C4A 2601   5.501   7.742   5.757
  191POPC   C1B 2602   5.844   7.844   4.877
  191POPC   C2B 2603   5.673   7.694   5.258
  191POPC   C3B 2604   5.960   7.761   5.559
  191POPC   C4B 2605   6.221   8.121   5.678
  192POPC   NC3 2606   8.086   4.094   3.614
  192POPC   PO4 2607   7.942   4.675   4.052
  192POPC   GL1 2608   7.972   4.446   4.486
  192POPC   GL2 2609   8.145   4.049   4.511
  192POPC   C1A 2610   8.048   4.342   4.912
  192POPC   D2A 2611   8.117   4.020   5.156
  192POPC   C3A 2612   7.960   4.208   5.499
  192POPC   C4A 2613   8.098   4.192   5.874
  192POPC   C1B 2614   7.784   3.916   4.777
  192POPC   C2B 2615   7.616   3.931   5.199
  192POPC   C3B 2616   7.567   3.927   5.653
  192POPC   C4B 2617   7.747   3.853   6.096
  193POPC   NC3 2618   0.294   0.506   3.654
  193POPC   PO4 2619  10.082   0.425   3.809
  193POPC   GL1 2620   9.993   0.234   4.242
  193POPC   GL2 2621  10.153   0.526   4.335
  193POPC   C1A 2622  10.158  10.474   4.621
  193POPC   D2A 2623  10.323   0.019   5.017
  193POPC   C3A 2624  10.167   0.240   5.332
  193POPC   C4A 2625  10.233   0.357   5.725
  193POPC   C1B 2626   9.930   0.390   4.724
  193POPC   C2B 2627   9.723   0.360   5.125
  193POPC   C3B 2628   9.738   0.329   5.598
  193POPC   C4B 2629   9.829   0.617   5.901
  194POPC   NC3 2630   7.222   8.569   4.025
  194POPC   PO4 2631   6.827   8.990   3.664
  194POPC   GL1 2632   6.853   8.879   4.236
  194POPC   GL2 2633   7.141   8.680   4.489
  194POPC   C1A 2634   6.784   8.863   4.732
  194POPC   D2A 2635   7.151   8.763   5.037
  194POPC   C3A 2636   7.070   8.568   5.472
  194POPC   C4A 2637   6.827   8.714   5.830
  194POPC   C1B 2638   7.487   8.504   4.685
  194POPC   C2B 2639   7.741   8.517   5.045
  194POPC   C3B 2640   7.591   8.496   5.456
  194POPC   C4B 2641   7.453   8.814   5.739
  195POPC   NC3 2642   3.825   9.568   3.919
  195POPC   PO4 2643   4.457   9.702   3.878
  195POPC   GL1 2644   4.418   9.353   4.214
  195POPC   GL2 2645   4.139   9.176   4.208
  195POPC   C1A 2646   4.443   9.098   4.628
  195POPC   D2A 2647   4.218   9.179   5.045
  195POPC   C3A 2648   4.469   9.174   5.446
  195POPC   C4A 2649   4.402   9.264   5.910
  195POPC   C1B 2650   4.052   9.443   4.602
  195POPC   C2B 2651   4.046   9.663   5.053
  195POPC   C3B 2652   4.133   9.557   5.498
  195POPC   C4B 2653   3.975   9.164   5.643
  196POPC   NC3 2654   8.779   0.394   3.898
  196POPC   PO4 2655   9.158   0.958   4.020
  196POPC   GL1 2656   9.116   0.632   4.301
  196POPC   GL2 2657   8.986   0.303   4.334
  196POPC   C1A 2658   9.130   0.779   4.693
  196POPC   D2A 2659   8.910   0.868   5.031
  196POPC   C3A 2660   8.973   0.686   5.397
  196POPC   C4A 2661   8.626   0.609   5.608
  196POPC   C1B 2662   8.740   0.447   4.665
  196POPC   C2B 2663   8.670   0.385   5.098
  196POPC   C3B 2664   8.782   0.143   5.455
  196POPC   C4B 2665   8.610   0.174   5.866
  197POPC   NC3 2666  10.058   2.747   4.045
  197POPC   PO4 2667   9.840   2.203   3.720
  197POPC   GL1 2668  10.074   2.261   4.199
  197POPC   GL2 2669  10.335   2.454   4.427
  197POPC   C1A 2670   9.938   2.338   4.700
  197POPC   D2A 2671  10.036   2.707   4.961
  197POPC   C3A 2672   9.958   2.645   5.402
  197POPC   C4A 2673  10.081   2.830   5.771
  197POPC   C1B 2674  10.459   2.868   4.586
  197POPC   C2B 2675  10.442   3.040   4.998
  197POPC   C3B 2676  10.449   2.813   5.366
  197POPC   C4B 2677   0.086   2.937   5.737
  198POPC   NC3 2678   8.368   3.478   3.798
  198POPC   PO4 2679   8.993   3.194   3.874
  198POPC   GL1 2680   8.698   3.323   4.202
  198POPC   GL2 2681   8.772   3.658   4.204
  198POPC   C1A 2682   8.725   3.266   4.653
  198POPC   D2A 2683   8.477   3.187   5.027
  198POPC   C3A 2684   8.578   3.334   5.421
  198POPC   C4A 2685   8.819   3.266   5.783
  198POPC   C1B 2686   8.559   3.748   4.614
  198POPC   C2B 2687   8.555   3.740   5.063
  198POPC   C3B 2688   8.490   3.885   5.465
  198POPC   C4B 2689   8.525   3.678   5.807
  199POPC   NC3 2690   7.973   7.166   3.802
  199POPC   PO4 2691   8.620   7.221   3.906
  199POPC   GL1 2692   8.256   7.287   4.250
  199POPC   GL2 2693   7.887   7.202   4.303
  199POPC   C1A 2694   8.225   7.241   4.723
  199POPC   D2A 2695   7.995   7.081   5.109
  199POPC   C3A 2696   7.963   7.304   5.490
  199POPC   C4A 2697   8.096   7.314   5.912
  199POPC   C1B 2698   7.686   7.179   4.717
  199POPC   C2B 2699   7.573   7.424   5.108
  199POPC   C3B 2700   7.340   7.410   5.497
  199POPC   C4B 2701   7.584   7.316   5.842
  200POPC   NC3 2702   0.398   7.797   3.796
  200POPC   PO4 2703   0.093   8.355   3.973
  200POPC   GL1 2704   0.342   8.067   4.232
  200POPC   GL2 2705   0.257   7.715   4.277
  200POPC   C1A 2706   0.337   8.084   4.688
  200POPC   D2A 2707   0.494   8.022   5.114
  200POPC   C3A 2708   0.253   8.201   5.401
  200POPC   C4A 2709   0.054   8.183   5.792
  200POPC   C1B 2710   0.296   7.585   4.656
  200POPC   C2B 2711   0.384   7.508   5.077
  200POPC   C3B 2712   0.294   7.692   5.485
  200POPC   C4B 2713   0.575   7.987   5.713
  201POPC   NC3 2714   7.294   7.237   3.767
  201POPC   PO4 2715   7.700   6.813   3.960
  201POPC   GL1 2716   7.403   7.027   4.252
  201POPC   GL2 2717   7.375   7.377   4.259
  201POPC   C1A 2718   7.228   6.879   4.649
  201POPC   D2A 2719   7.388   6.733   5.057
  201POPC   C3A 2720   7.565   6.958   5.407
  201POPC   C4A 2721   7.419   6.851   5.830
  201POPC   C1B 2722   7.226   7.377   4.667
  201POPC   C2B 2723   7.132   7.178   5.071
  201POPC   C3B 2724   7.031   6.998   5.483
  201POPC   C4B 2725   7.004   7.242   5.862
  202POPC   NC3 2726   8.874  10.195   3.966
  202POPC   PO4 2727   8.418   9.670   3.894
  202POPC   GL1 2728   8.561   9.981   4.308
  202POPC   GL2 2729   8.662  10.368   4.388
  202POPC   C1A 2730   8.691  10.056   4.772
  202POPC   D2A 2731   8.509  10.395   5.060
  202POPC   C3A 2732   8.448  10.243   5.498
  202POPC   C4A 2733   8.504   9.835   5.750
  202POPC   C1B 2734   9.014  10.453   4.673
  202POPC   C2B 2735   9.015  10.388   5.075
  202POPC   C3B 2736   9.133  10.271   5.437
  202POPC   C4B 2737   8.884  10.225   5.797
  203POPC   NC3 2738   9.526   5.704   3.691
  203POPC   PO4 2739   9.594   6.229   4.200
  203POPC   GL1 2740   9.728   5.923   4.417
  203POPC   GL2 2741   9.599   5.640   4.259
  203POPC   C1A 2742   9.659   5.947   4.827
  203POPC   D2A 2743   9.547   5.820   5.184
  203POPC   C3A 2744   9.557   6.025   5.522
  203POPC   C4A 2745   9.693   6.152   5.897
  203POPC   C1B 2746   9.327   5.539   4.649
  203POPC   C2B 2747   9.434   5.355   5.046
  203POPC   C3B 2748   9.298   5.450   5.462
  203POPC   C4B 2749   9.369   5.687   5.836
  204POPC   NC3 2750   6.418   1.935   3.923
  204POPC   PO4 2751   6.041   2.447   3.858
  204POPC   GL1 2752   6.102   2.222   4.262
  204POPC   GL2 2753   6.450   2.113   4.376
  204POPC   C1A 2754   6.133   2.257   4.730
  204POPC   D2A 2755   6.185   2.039   5.103
  204POPC   C3A 2756   6.243   2.254   5.462
  204POPC   C4A 2757   6.160   2.100   5.861
  204POPC   C1B 2758   6.452   1.849   4.707
  204POPC   C2B 2759   6.624   1.788   5.127
  204POPC   C3B 2760   6.476   1.797   5.555
  204POPC   C4B 2761   6.801   1.625   5.808
  205POPC   NC3 2762   1.785   3.349   3.787
  205POPC   PO4 2763   1.578   2.824   3.805
  205POPC   GL1 2764   1.718   3.087   4.223
  205POPC   GL2 2765   1.681   3.485   4.271
  205POPC   C1A 2766   1.668   3.213   4.687
  205POPC   D2A 2767   1.876   3.070   5.049
  205POPC   C3A 2768   1.811   3.259   5.422
  205POPC   C4A 2769   2.186   3.126   5.633
  205POPC   C1B 2770   2.024   3.567   4.635
  205POPC   C2B 2771   1.962   3.684   5.090
  205POPC   C3B 2772   2.147   3.621   5.500
  205POPC   C4B 2773   1.971   3.513   5.905
  206POPC   NC3 2774   6.330   3.554   3.925
  206POPC   PO4 2775   6.806   3.859   3.938
  206POPC   GL1 2776   6.674   3.673   4.338
  206POPC   GL2 2777   6.385   3.467   4.410
  206POPC   C1A 2778   6.605   3.681   4.803
  206POPC   D2A 2779   6.568   3.448   5.151
  206POPC   C3A 2780   6.518   3.713   5.531
  206POPC   C4A 2781   6.414   3.866   5.972
  206POPC   C1B 2782   6.197   3.316   4.785
  206POPC   C2B 2783   6.172   3.143   5.210
  206POPC   C3B 2784   6.377   3.236   5.599
  206POPC   C4B 2785   6.093   3.505   5.784
  207POPC   NC3 2786   9.783   7.393   3.836
  207POPC   PO4 2787   0.008   7.521   3.856
  207POPC   GL1 2788  10.381   7.377   4.265
  207POPC   GL2 2789  10.303   7.038   4.268
  207POPC   C1A 2790  10.450   7.241   4.713
  207POPC   D2A 2791  10.300   7.123   5.102
  207POPC   C3A 2792  10.253   7.425   5.404
  207POPC   C4A 2793  10.464   7.407   5.791
  207POPC   C1B 2794   9.966   7.247   4.552
  207POPC   C2B 2795   9.773   7.118   4.943
  207POPC   C3B 2796   9.852   7.075   5.388
  207POPC   C4B 2797  10.130   7.044   5.739
  208POPC   NC3 2798   0.137  10.011   3.702
  208POPC   PO4 2799   0.392   0.108   3.891
  208POPC   GL1 2800   0.281  10.381   4.238
  208POPC   GL2 2801   0.419  10.074   4.197
  208POPC   C1A 2802   0.190  10.481   4.660
  208POPC   D2A 2803   0.375  10.484   5.076
  208POPC   C3A 2804   0.406  10.238   5.462
  208POPC   C4A 2805   0.262  10.291   5.867
  208POPC   C1B 2806   0.478  10.062   4.652
  208POPC   C2B 2807   0.410   9.819   5.014
  208POPC   C3B 2808   0.244   9.719   5.421
  208POPC   C4B 2809   0.391   9.797   5.822
  209POPC   NC3 2810   4.041   0.386   3.918
  209POPC   PO4 2811   4.378   0.836   3.675
  209POPC   GL1 2812   4.364   0.652   4.187
  209POPC   GL2 2813   4.306   0.315   4.351
  209POPC   C1A 2814   4.349   0.716   4.653
  209POPC   D2A 2815   4.139   0.665   5.069
  209POPC   C3A 2816   4.331   0.563   5.431
  209POPC   C4A 2817   4.404   0.574   5.804
  209POPC   C1B 2818   3.998   0.318   4.679
  209POPC   C2B 2819   4.063   0.153   5.101
  209POPC   C3B 2820   3.891   0.313   5.490
  209POPC   C4B 2821   4.002   0.284   5.910
  210POPC   NC3 2822   1.941   8.180   3.794
  210POPC   PO4 2823   2.123   7.481   3.731
  210POPC   GL1 2824   2.140   7.642   4.174
  210POPC   GL2 2825   2.032   7.999   4.283
  210POPC   C1A 2826   2.301   7.631   4.607
  210POPC   D2A 2827   2.436   7.766   5.032
  210POPC   C3A 2828   2.226   7.626   5.413
  210POPC   C4A 2829   2.112   7.522   5.821
  210POPC   C1B 2830   1.969   7.990   4.747
  210POPC   C2B 2831   2.004   8.020   5.184
  210POPC   C3B 2832   1.780   7.877   5.517
  210POPC   C4B 2833   1.686   7.810   5.938
  211POPC   NC3 2834   1.739   9.720   3.985
  211POPC   PO4 2835   2.005  10.356   3.779
  211POPC   GL1 2836   1.906  10.213   4.173
  211POPC   GL2 2837   1.542  10.224   4.177
  211POPC   C1A 2838   2.042  10.267   4.615
  211POPC   D2A 2839   2.201  10.396   5.044
  211POPC   C3A 2840   2.092  10.140   5.413
  211POPC   C4A 2841   1.965  10.277   5.788
  211POPC   C1B 2842   1.493  10.185   4.622
  211POPC   C2B 2843   1.720  10.195   5.017
  211POPC   C3B 2844   1.581  10.184   5.434
  211POPC   C4B 2845   1.713   9.844   5.705
  212POPC   NC3 2846   2.315   5.652   3.771
  212POPC   PO4 2847   1.685   5.371   3.686
  212POPC   GL1 2848   1.845   5.433   4.138
  212POPC   GL2 2849   1.527   5.497   4.302
  212POPC   C1A 2850   1.963   5.548   4.621
  212POPC   D2A 2851   2.204   5.828   4.946
  212POPC   C3A 2852   2.313   5.756   5.390
  212POPC   C4A 2853   2.234   5.639   5.806
  212POPC   C1B 2854   1.524   5.792   4.667
  212POPC   C2B 2855   1.728   5.778   5.076
  212POPC   C3B 2856   1.827   5.583   5.508
  212POPC   C4B 2857   1.781   5.779   5.913
  213POPC   NC3 2858   3.076   9.502   3.921
  213POPC   PO4 2859   3.744   9.124   3.824
  213POPC   GL1 2860   3.654   9.252   4.287
  213POPC   GL2 2861   3.578   9.619   4.355
  213POPC   C1A 2862   3.628   9.204   4.729
  213POPC   D2A 2863   3.713   9.098   5.144
  213POPC   C3A 2864   3.646   9.463   5.365
  213POPC   C4A 2865   3.501   9.439   5.776
  213POPC   C1B 2866   3.260   9.569   4.662
  213POPC   C2B 2867   3.221   9.335   5.043
  213POPC   C3B 2868   3.142   9.475   5.435
  213POPC   C4B 2869   3.008   9.737   5.783
  214POPC   NC3 2870   1.759   7.199   3.741
  214POPC   PO4 2871   2.212   6.784   3.893
  214POPC   GL1 2872   2.029   6.948   4.243
  214POPC   GL2 2873   1.818   7.235   4.240
  214POPC   C1A 2874   2.124   7.144   4.648
  214POPC   D2A 2875   2.307   7.272   5.022
  214POPC   C3A 2876   2.189   7.105   5.425
  214POPC   C4A 2877   2.078   7.010   5.857
  214POPC   C1B 2878   1.773   7.530   4.599
  214POPC   C2B 2879   1.846   7.548   5.063
  214POPC   C3B 2880   1.736   7.361   5.495
  214POPC   C4B 2881   1.625   7.299   5.946
  215POPC   NC3 2882   1.766   6.477   3.977
  215POPC   PO4 2883   2.344   6.087   3.917
  215POPC   GL1 2884   2.054   6.124   4.222
  215POPC   GL2 2885   2.182   6.447   4.297
  215POPC   C1A 2886   1.927   6.113   4.645
  215POPC   D2A 2887   1.834   6.302   5.061
  215POPC   C3A 2888   1.881   6.084   5.450
  215POPC   C4A 2889   2.113   6.134   5.785
  215POPC   C1B 2890   2.033   6.629   4.671
  215POPC   C2B 2891   2.183   6.715   5.090
  215POPC   C3B 2892   2.108   6.593   5.530
  215POPC   C4B 2893   1.731   6.500   5.731
  216POPC   NC3 2894   4.622   2.117   4.111
  216POPC   PO4 2895   5.250   1.856   4.018
  216POPC   GL1 2896   5.216   1.974   4.401
  216POPC   GL2 2897   4.903   2.074   4.529
  216POPC   C1A 2898   5.204   1.708   4.760
  216POPC   D2A 2899   4.985   1.786   5.110
  216POPC   C3A 2900   5.248   1.641   5.390
  216POPC   C4A 2901   5.406   1.849   5.692
  216POPC   C1B 2902   4.813   2.367   4.865
  216POPC   C2B 2903   4.861   2.423   5.307
  216POPC   C3B 2904   4.924   2.056   5.577
  216POPC   C4B 2905   4.652   1.811   5.820
  217POPC   NC3 2906   7.912   9.962   3.825
  217POPC   PO4 2907   7.668   0.149   3.885
  217POPC   GL1 2908   7.879   0.159   4.292
  217POPC   GL2 2909   8.133  10.397   4.244
  217POPC   C1A 2910   7.797   0.054   4.730
  217POPC   D2A 2911   7.997  10.425   5.114
  217POPC   C3A 2912   7.690  10.354   5.412
  217POPC   C4A 2913   7.586  10.477   5.804
  217POPC   C1B 2914   8.204  10.210   4.648
  217POPC   C2B 2915   8.247   9.952   5.001
  217POPC   C3B 2916   8.121   9.850   5.377
  217POPC   C4B 2917   8.010  10.082   5.726
  218POPC   NC3 2918   5.003   7.708   3.975
  218POPC   PO4 2919   4.614   7.985   4.253
  218POPC   GL1 2920   4.976   7.900   4.471
  218POPC   GL2 2921   4.976   8.243   4.532
  218POPC   C1A 2922   4.999   7.711   4.908
  218POPC   D2A 2923   4.728   7.556   5.251
  218POPC   C3A 2924   4.815   7.545   5.708
  218POPC   C4A 2925   4.805   7.340   6.154
  218POPC   C1B 2926   4.683   8.130   4.884
  218POPC   C2B 2927   4.646   8.068   5.331
  218POPC   C3B 2928   4.876   8.306   5.639
  218POPC   C4B 2929   5.237   8.180   5.909
  219POPC   NC3 2930   2.741   8.627   3.956
  219POPC   PO4 2931   3.190   9.135   4.170
  219POPC   GL1 2932   3.054   8.736   4.356
  219POPC   GL2 2933   2.683   8.747   4.429
  219POPC   C1A 2934   2.976   8.450   4.724
  219POPC   D2A 2935   2.853   8.540   5.113
  219POPC   C3A 2936   2.951   8.375   5.429
  219POPC   C4A 2937   2.946   8.719   5.668
  219POPC   C1B 2938   2.490   8.695   4.818
  219POPC   C2B 2939   2.317   8.827   5.165
  219POPC   C3B 2940   2.470   8.634   5.505
  219POPC   C4B 2941   2.566   8.401   5.851
  220POPC   NC3 2942   6.347   7.176   4.080
  220POPC   PO4 2943   6.913   7.489   3.884
  220POPC   GL1 2944   6.828   7.399   4.339
  220POPC   GL2 2945   6.726   7.064   4.460
  220POPC   C1A 2946   6.752   7.451   4.813
  220POPC   D2A 2947   6.630   7.187   5.161
  220POPC   C3A 2948   6.597   7.284   5.559
  220POPC   C4A 2949   6.461   7.145   5.939
  220POPC   C1B 2950   6.346   7.115   4.745
  220POPC   C2B 2951   6.138   6.992   5.131
  220POPC   C3B 2952   6.292   6.851   5.519
  220POPC   C4B 2953   6.068   6.796   5.905
  221POPC   NC3 2954   0.957   4.590   3.909
  221POPC   PO4 2955   1.153   5.263   4.002
  221POPC   GL1 2956   1.209   5.083   4.348
  221POPC   GL2 2957   1.240   4.755   4.308
  221POPC   C1A 2958   1.386   5.046   4.718
  221POPC   D2A 2959   1.533   5.325   4.987
  221POPC   C3A 2960   1.491   5.193   5.398
  221POPC   C4A 2961   1.737   5.132   5.787
  221POPC   C1B 2962   0.956   4.726   4.635
  221POPC   C2B 2963   0.988   4.945   5.030
  221POPC   C3B 2964   1.137   4.809   5.432
  221POPC   C4B 2965   1.063   5.104   5.760
  222POPC   NC3 2966   2.864   0.572   3.920
  222POPC   PO4 2967   2.260   0.223   4.115
  222POPC   GL1 2968   2.540   0.365   4.406
  222POPC   GL2 2969   2.900   0.289   4.320
  222POPC   C1A 2970   2.436   0.342   4.841
  222POPC   D2A 2971   2.361   0.337   5.260
  222POPC   C3A 2972   2.380   0.051   5.561
  222POPC   C4A 2973   2.586   0.212   5.897
  222POPC   C1B 2974   2.944   0.557   4.680
  222POPC   C2B 2975   2.819   0.542   5.126
  222POPC   C3B 2976   2.844   0.731   5.524
  222POPC   C4B 2977   2.797   0.708   5.966
  223POPC   NC3 2978   8.493   5.733   3.958
  223POPC   PO4 2979   9.185   5.635   3.997
  223POPC   GL1 2980   8.859   5.615   4.314
  223POPC   GL2 2981   8.689   5.931   4.392
  223POPC   C1A 2982   8.748   5.521   4.732
  223POPC   D2A 2983   8.917   5.274   5.055
  223POPC   C3A 2984   8.790   5.286   5.456
  223POPC   C4A 2985   8.778   5.447   5.840
  223POPC   C1B 2986   8.858   6.019   4.813
  223POPC   C2B 2987   9.051   5.758   5.119
  223POPC   C3B 2988   8.970   5.858   5.552
  223POPC   C4B 2989   8.584   5.952   5.783
  224POPC   NC3 2990   3.331  10.334   3.938
  224POPC   PO4 2991   2.766   9.903   3.847
  224POPC   GL1 2992   3.135   9.907   4.238
  224POPC   GL2 2993   3.460  10.131   4.399
  224POPC   C1A 2994   3.063  10.046   4.686
  224POPC   D2A 2995   3.171  10.242   5.065
  224POPC   C3A 2996   3.283  10.028   5.462
  224POPC   C4A 2997   3.361  10.065   5.934
  224POPC   C1B 2998   3.687  10.379   4.772
  224POPC   C2B 2999   3.580   0.012   5.203
  224POPC   C3B 3000   3.491  10.497   5.638
  224POPC   C4B 3001   3.794  10.324   5.918
  225POPC   NC3 3002   6.681  10.237   3.939
  225POPC   PO4 3003   6.043  10.041   3.916
  225POPC   GL1 3004   6.269  10.201   4.300
  225POPC   GL2 3005   6.617  10.335   4.416
  225POPC   C1A 3006   6.297  10.170   4.760
  225POPC   D2A 3007   6.168  10.024   5.164
  225POPC   C3A 3008   6.338  10.348   5.433
  225POPC   C4A 3009   6.221  10.441   5.847
  225POPC   C1B 3010   6.836  10.147   4.753
  225POPC   C2B 3011   6.698  10.115   5.135
  225POPC   C3B 3012   6.704   9.903   5.506
  225POPC   C4B 3013   6.659  10.184   5.845
  226POPC   NC3 3014   6.553   8.672   3.887
  226POPC   PO4 3015   6.916   8.165   4.008
  226POPC   GL1 3016   6.715   8.393   4.368
  226POPC   GL2 3017   6.393   8.543   4.345
  226POPC   C1A 3018   6.570   8.431   4.826
  226POPC   D2A 3019   6.662   8.692   5.198
  226POPC   C3A 3020   6.416   8.573   5.523
  226POPC   C4A 3021   6.348   8.503   5.992
  226POPC   C1B 3022   6.175   8.768   4.664
  226POPC   C2B 3023   6.264   8.968   5.053
  226POPC   C3B 3024   6.081   9.015   5.452
  226POPC   C4B 3025   5.954   8.655   5.700
  227POPC   NC3 3026   7.122   1.859   3.867
  227POPC   PO4 3027   6.691   2.359   3.972
  227POPC   GL1 3028   6.952   2.157   4.305
  227POPC   GL2 3029   6.997   1.806   4.375
  227POPC   C1A 3030   6.887   2.067   4.765
  227POPC   D2A 3031   7.092   2.136   5.113
  227POPC   C3A 3032   6.886   2.087   5.515
  227POPC   C4A 3033   7.059   2.193   5.906
  227POPC   C1B 3034   7.365   1.994   4.662
  227POPC   C2B 3035   7.565   1.895   5.052
  227POPC   C3B 3036   7.432   2.019   5.456
  227POPC   C4B 3037   7.289   1.768   5.806
  228POPC   NC3 3038   9.422   1.322   4.048
  228POPC   PO4 3039  10.027   1.457   3.914
  228POPC   GL1 3040   9.828   1.465   4.325
  228POPC   GL2 3041   9.756   1.102   4.357
  228POPC   C1A 3042   9.892   1.361   4.768
  228POPC   D2A 3043   9.810   1.079   5.086
  228POPC   C3A 3044   9.708   1.177   5.490
  228POPC   C4A 3045   9.777   1.514   5.732
  228POPC   C1B 3046   9.412   1.218   4.652
  228POPC   C2B 3047   9.297   1.243   5.024
  228POPC   C3B 3048   9.218   1.144   5.419
  228POPC   C4B 3049   9.302   1.326   5.847
  229POPC   NC3 3050   9.297   5.141   4.008
  229POPC   PO4 3051   9.840   5.380   3.838
  229POPC   GL1 3052   9.736   5.120   4.278
  229POPC   GL2 3053   9.523   4.795   4.304
  229POPC   C1A 3054   9.721   4.989   4.736
  229POPC   D2A 3055   9.700   4.748   5.115
  229POPC   C3A 3056   9.639   5.045   5.443
  229POPC   C4A 3057   9.606   5.216   5.876
  229POPC   C1B 3058   9.219   4.997   4.616
  229POPC   C2B 3059   9.246   4.907   4.984
  229POPC   C3B 3060   9.148   4.920   5.351
  229POPC   C4B 3061   9.159   5.045   5.724
  230POPC   NC3 3062   7.079   0.553   3.769
  230POPC   PO4 3063   7.684   0.803   3.931
  230POPC   GL1 3064   7.461   0.530   4.236
  230POPC   GL2 3065   7.088   0.467   4.272
  230POPC   C1A 3066   7.314   0.567   4.687
  230POPC   D2A 3067   7.123   0.615   5.088
  230POPC   C3A 3068   7.400   0.745   5.440
  230POPC   C4A 3069   7.514   0.514   5.824
  230POPC   C1B 3070   7.026   0.135   4.622
  230POPC   C2B 3071   7.239   0.116   5.021
  230POPC   C3B 3072   7.320   0.227   5.420
  230POPC   C4B 3073   7.048   0.417   5.673
  231POPC   NC3 3074   1.944   4.375   4.044
  231POPC   PO4 3075   1.910   3.763   3.894
  231POPC   GL1 3076   1.967   3.942   4.312
  231POPC   GL2 3077   1.619   4.015   4.287
  231POPC   C1A 3078   2.112   4.257   4.684
  231POPC   D2A 3079   2.102   4.492   5.102
  231POPC   C3A 3080   2.055   4.136   5.422
  231POPC   C4A 3081   2.278   3.982   5.809
  231POPC   C1B 3082   1.690   3.971   4.743
  231POPC   C2B 3083   1.659   4.280   5.084
  231POPC   C3B 3084   1.632   4.357   5.563
  231POPC   C4B 3085   1.754   3.955   5.789
  232POPC   NC3 3086   2.462   7.186   3.867
  232POPC   PO4 3087   2.965   7.581   3.878
  232POPC   GL1 3088   2.735   7.401   4.263
  232POPC   GL2 3089   2.535   7.058   4.337
  232POPC   C1A 3090   2.715   7.337   4.708
  232POPC   D2A 3091   2.907   7.451   5.058
  232POPC   C3A 3092   2.652   7.359   5.384
  232POPC   C4A 3093   2.547   7.232   5.764
  232POPC   C1B 3094   2.536   6.843   4.734
  232POPC   C2B 3095   2.650   6.908   5.168
  232POPC   C3B 3096   2.589   6.747   5.611
  232POPC   C4B 3097   2.519   6.854   6.088
  233POPC   NC3 3098   3.998   1.330   3.921
  233POPC   PO4 3099   3.274   1.285   3.888
  233POPC   GL1 3100   3.583   1.220   4.208
  233POPC   GL2 3101   3.551   0.911   4.308
  233POPC   C1A 3102   3.665   1.347   4.623
  233POPC   D2A 3103   3.449   1.426   5.010
  233POPC   C3A 3104   3.686   1.447   5.406
  233POPC   C4A 3105   3.711   1.259   5.779
  233POPC   C1B 3106   3.284   0.986   4.653
  233POPC   C2B 3107   3.199   0.897   5.069
  233POPC   C3B 3108   3.254   1.132   5.422
  233POPC   C4B 3109   3.260   0.941   5.789
  234POPC   NC3 3110   2.032   8.781   3.701
  234POPC   PO4 3111   2.170   8.822   4.324
  234POPC   GL1 3112   1.862   8.776   4.577
  234POPC   GL2 3113   1.725   8.432   4.575
  234POPC   C1A 3114   1.836   8.982   4.943
  234POPC   D2A 3115   1.746   8.955   5.326
  234POPC   C3A 3116   2.083   9.015   5.583
  234POPC   C4A 3117   2.207   8.782   5.918
  234POPC   C1B 3118   1.988   8.473   4.947
  234POPC   C2B 3119   1.975   8.493   5.396
  234POPC   C3B 3120   1.864   8.399   5.820
  234POPC   C4B 3121   2.168   8.356   6.201
  235POPC   NC3 3122   6.831   2.778   4.133
  235POPC   PO4 3123   7.413   3.066   3.886
  235POPC   GL1 3124   7.373   2.879   4.267
  235POPC   GL2 3125   7.326   2.520   4.220
  235POPC   C1A 3126   7.275   2.972   4.688
  235POPC   D2A 3127   7.476   2.951   5.084
  235POPC   C3A 3128   7.308   2.995   5.516
  235POPC   C4A 3129   7.389   2.979   5.977
  235POPC   C1B 3130   7.153   2.481   4.650
  235POPC   C2B 3131   7.037   2.652   5.045
  235POPC   C3B 3132   7.145   2.515   5.457
  235POPC   C4B 3133   6.997   2.680   5.834
  236POPC   NC3 3134   7.160   3.599   3.817
  236POPC   PO4 3135   7.798   3.752   3.873
  236POPC   GL1 3136   7.426   3.501   4.214
  236POPC   GL2 3137   7.068   3.300   4.214
  236POPC   C1A 3138   7.378   3.476   4.646
  236POPC   D2A 3139   7.648   3.444   4.998
  236POPC   C3A 3140   7.436   3.471   5.345
  236POPC   C4A 3141   7.380   3.463   5.757
  236POPC   C1B 3142   6.859   3.266   4.623
  236POPC   C2B 3143   7.038   3.248   5.051
  236POPC   C3B 3144   6.945   3.374   5.473
  236POPC   C4B 3145   6.897   3.168   5.836
  237POPC   NC3 3146   2.361   3.679   3.966
  237POPC   PO4 3147   3.007   3.875   3.936
  237POPC   GL1 3148   2.775   3.655   4.304
  237POPC   GL2 3149   2.531   3.376   4.331
  237POPC   C1A 3150   2.522   3.806   4.677
  237POPC   D2A 3151   2.475   3.639   5.108
  237POPC   C3A 3152   2.630   3.833   5.478
  237POPC   C4A 3153   2.812   3.821   5.847
  237POPC   C1B 3154   2.563   3.292   4.755
  237POPC   C2B 3155   2.409   3.144   5.158
  237POPC   C3B 3156   2.629   3.319   5.518
  237POPC   C4B 3157   2.472   3.439   5.922
  238POPC   NC3 3158   9.625   0.440   3.769
  238POPC   PO4 3159   9.148   0.077   3.886
  238POPC   GL1 3160   9.478   0.232   4.213
  238POPC   GL2 3161   9.628   0.600   4.267
  238POPC   C1A 3162   9.420   0.315   4.648
  238POPC   D2A 3163   9.158   0.360   4.974
  238POPC   C3A 3164   9.279   0.264   5.362
  238POPC   C4A 3165   9.132   0.357   5.751
  238POPC   C1B 3166   9.631   0.775   4.721
  238POPC   C2B 3167   9.422   0.760   5.133
  238POPC   C3B 3168   9.458   0.735   5.572
  238POPC   C4B 3169   9.295   0.781   5.975
  239POPC   NC3 3170   8.474   8.546   3.971
  239POPC   PO4 3171   9.065   8.841   3.892
  239POPC   GL1 3172   8.984   8.654   4.325
  239POPC   GL2 3173   8.663   8.545   4.426
  239POPC   C1A 3174   8.945   8.674   4.810
  239POPC   D2A 3175   9.025   8.372   5.139
  239POPC   C3A 3176   8.978   8.637   5.497
  239POPC   C4A 3177   8.850   8.811   5.909
  239POPC   C1B 3178   8.430   8.610   4.787
  239POPC   C2B 3179   8.525   8.472   5.188
  239POPC   C3B 3180   8.475   8.626   5.550
  239POPC   C4B 3181   8.370   8.934   5.777
  240POPC   NC3 3182   1.795   0.218   3.977
  240POPC   PO4 3183   1.763   0.884   3.786
  240POPC   GL1 3184   2.012   0.668   4.165
  240POPC   GL2 3185   1.872   0.457   4.419
  240POPC   C1A 3186   2.218   0.755   4.623
  240POPC   D2A 3187   1.962   0.545   4.987
  240POPC   C3A 3188   2.016   0.619   5.458
  240POPC   C4A 3189   2.230   0.627   5.884
  240POPC   C1B 3190   1.673   0.172   4.700
  240POPC   C2B 3191   1.606   0.171   5.136
  240POPC   C3B 3192   1.884   0.125   5.419
  240POPC   C4B 3193   1.898   0.268   5.822
  241POPC   NC3 3194   4.250   3.635   3.952
  241POPC   PO4 3195   4.680   3.269   3.953
  241POPC   GL1 3196   4.507   3.350   4.369
  241POPC   GL2 3197   4.179   3.263   4.360
  241POPC   C1A 3198   4.498   3.378   4.862
  241POPC   D2A 3199   4.512   3.329   5.347
  241POPC   C3A 3200   4.350   3.697   5.644
  241POPC   C4A 3201   4.455   4.091   5.902
  241POPC   C1B 3202   4.087   3.075   4.742
  241POPC   C2B 3203   3.910   3.126   5.148
  241POPC   C3B 3204   4.027   3.316   5.501
  241POPC   C4B 3205   3.896   3.537   5.838
  242POPC   NC3 3206   0.384   8.733   3.991
  242POPC   PO4 3207   0.733   8.155   3.827
  242POPC   GL1 3208   0.770   8.396   4.269
  242POPC   GL2 3209   0.451   8.510   4.432
  242POPC   C1A 3210   0.831   8.763   4.617
  242POPC   D2A 3211   0.572   8.948   4.997
  242POPC   C3A 3212   0.660   8.865   5.473
  242POPC   C4A 3213   0.478   8.499   5.750
  242POPC   C1B 3214   0.098   8.723   4.607
  242POPC   C2B 3215   0.040   8.866   5.002
  242POPC   C3B 3216   0.196   8.710   5.356
  242POPC   C4B 3217   0.133   8.857   5.756
  243POPC   NC3 3218   1.249   2.592   4.025
  243POPC   PO4 3219   1.298   3.323   3.838
  243POPC   GL1 3220   1.203   3.119   4.195
  243POPC   GL2 3221   1.136   3.456   4.317
  243POPC   C1A 3222   1.191   3.040   4.648
  243POPC   D2A 3223   0.874   3.214   4.914
  243POPC   C3A 3224   0.893   3.155   5.354
  243POPC   C4A 3225   0.942   3.247   5.784
  243POPC   C1B 3226   1.319   3.595   4.664
  243POPC   C2B 3227   1.354   3.426   5.069
  243POPC   C3B 3228   1.222   3.513   5.469
  243POPC   C4B 3229   1.475   3.455   5.805
  244POPC   NC3 3230   6.029   2.841   4.096
  244POPC   PO4 3231   5.466   2.825   3.896
  244POPC   GL1 3232   5.521   2.830   4.324
  244POPC   GL2 3233   5.674   2.505   4.305
  244POPC   C1A 3234   5.498   3.006   4.771
  244POPC   D2A 3235   5.745   2.850   5.185
  244POPC   C3A 3236   5.734   3.036   5.599
  244POPC   C4A 3237   5.369   3.180   5.853
  244POPC   C1B 3238   5.750   2.574   4.745
  244POPC   C2B 3239   5.784   2.350   5.132
  244POPC   C3B 3240   5.794   2.469   5.590
  244POPC   C4B 3241   6.059   2.571   5.984
  245POPC   NC3 3242   0.231   4.511   3.946
  245POPC   PO4 3243   0.768   4.960   3.719
  245POPC   GL1 3244   0.740   4.997   4.187
  245POPC   GL2 3245   0.519   4.802   4.408
  245POPC   C1A 3246   0.719   5.193   4.636
  245POPC   D2A 3247   0.488   5.056   5.005
  245POPC   C3A 3248   0.651   4.983   5.427
  245POPC   C4A 3249   0.665   4.648   5.699
  245POPC   C1B 3250   0.127   4.853   4.700
  245POPC   C2B 3251   0.068   4.759   5.140
  245POPC   C3B 3252   0.172   4.800   5.565
  245POPC   C4B 3253   0.172   5.108   5.873
  246POPC   NC3 3254   4.324  10.141   3.912
  246POPC   PO4 3255   3.645   9.994   3.937
  246POPC   GL1 3256   3.946  10.024   4.241
  246POPC   GL2 3257   4.034  10.385   4.246
  246POPC   C1A 3258   3.884   9.923   4.646
  246POPC   D2A 3259   3.565   9.902   4.962
  246POPC   C3A 3260   3.782  10.051   5.325
  246POPC   C4A 3261   3.764   9.860   5.701
  246POPC   C1B 3262   4.195  10.332   4.651
  246POPC   C2B 3263   4.395  10.056   4.967
  246POPC   C3B 3264   4.309  10.033   5.403
  246POPC   C4B 3265   4.203  10.411   5.619
  247POPC   NC3 3266   6.230   9.602   3.985
  247POPC   PO4 3267   6.823   9.839   4.092
  247POPC   GL1 3268   6.550   9.812   4.447
  247POPC   GL2 3269   6.327   9.540   4.463
  247POPC   C1A 3270   6.482   9.721   4.903
  247POPC   D2A 3271   6.149   9.466   5.057
  247POPC   C3A 3272   6.156   9.542   5.470
  247POPC   C4A 3273   6.232   9.925   5.691
  247POPC   C1B 3274   6.518   9.267   4.715
  247POPC   C2B 3275   6.712   9.239   5.137
  247POPC   C3B 3276   6.658   9.368   5.603
  247POPC   C4B 3277   6.675   9.317   6.098
  248POPC   NC3 3278   0.842   7.038   4.109
  248POPC   PO4 3279   1.473   6.868   3.936
  248POPC   GL1 3280   1.322   7.078   4.319
  248POPC   GL2 3281   1.128   7.409   4.345
  248POPC   C1A 3282   1.173   7.051   4.741
  248POPC   D2A 3283   1.271   6.989   5.163
  248POPC   C3A 3284   0.902   6.925   5.389
  248POPC   C4A 3285   0.861   7.007   5.799
  248POPC   C1B 3286   1.251   7.562   4.770
  248POPC   C2B 3287   1.345   7.605   5.213
  248POPC   C3B 3288   1.210   7.335   5.548
  248POPC   C4B 3289   1.363   6.909   5.697
  249POPC   NC3 3290   4.148   7.192   3.948
  249POPC   PO4 3291   4.636   7.502   3.796
  249POPC   GL1 3292   4.489   7.481   4.243
  249POPC   GL2 3293   4.166   7.357   4.419
  249POPC   C1A 3294   4.589   7.430   4.701
  249POPC   D2A 3295   4.511   7.093   5.002
  249POPC   C3A 3296   4.364   7.218   5.385
  249POPC   C4A 3297   4.476   7.166   5.813
  249POPC   C1B 3298   4.029   7.146   4.806
  249POPC   C2B 3299   3.880   7.099   5.247
  249POPC   C3B 3300   4.088   6.831   5.559
  249POPC   C4B 3301   4.478   6.660   5.740
  250POPC   NC3 3302   4.798   8.315   3.983
  250POPC   PO4 3303   4.721   8.961   3.963
  250POPC   GL1 3304   4.885   8.717   4.311
  250POPC   GL2 3305   5.220   8.565   4.196
  250POPC   C1A 3306   4.914   8.766   4.770
  250POPC   D2A 3307   4.882   8.572   5.189
  250POPC   C3A 3308   4.802   8.808   5.580
  250POPC   C4A 3309   4.747   8.872   6.036
  250POPC   C1B 3310   5.366   8.542   4.627
  250POPC   C2B 3311   5.476   8.540   5.056
  250POPC   C3B 3312   5.341   8.453   5.485
  250POPC   C4B 3313   5.208   8.700   5.848
  251POPC   NC3 3314   7.800   5.046   4.296
  251POPC   PO4 3315   8.248   5.289   3.935
  251POPC   GL1 3316   8.306   5.208   4.330
  251POPC   GL2 3317   8.308   4.857   4.363
  251POPC   C1A 3318   8.207   5.343   4.717
  251POPC   D2A 3319   7.867   5.184   4.984
  251POPC   C3A 3320   7.907   5.236   5.424
  251POPC   C4A 3321   7.866   5.232   5.851
  251POPC   C1B 3322   8.165   4.825   4.778
  251POPC   C2B 3323   8.147   4.773   5.181
  251POPC   C3B 3324   7.871   4.724   5.474
  251POPC   C4B 3325   7.932   4.679   5.861
  252POPC   NC3 3326   7.551   9.035   3.752
  252POPC   PO4 3327   8.096   8.594   3.697
  252POPC   GL1 3328   7.919   8.805   4.100
  252POPC   GL2 3329   8.191   8.754   4.335
  252POPC   C1A 3330   7.799   8.876   4.590
  252POPC   D2A 3331   8.026   9.024   4.958
  252POPC   C3A 3332   7.985   8.899   5.404
  252POPC   C4A 3333   7.883   9.057   5.862
  252POPC   C1B 3334   8.005   8.415   4.599
  252POPC   C2B 3335   8.136   8.185   4.969
  252POPC   C3B 3336   8.081   8.311   5.393
  252POPC   C4B 3337   8.018   8.558   5.777
  253POPC   NC3 3338   8.794   1.280   4.024
  253POPC   PO4 3339   8.395   0.737   3.857
  253POPC   GL1 3340   8.390   1.058   4.220
  253POPC   GL2 3341   8.681   0.922   4.410
  253POPC   C1A 3342   8.402   1.390   4.591
  253POPC   D2A 3343   8.446   1.679   4.973
  253POPC   C3A 3344   8.404   1.462   5.426
  253POPC   C4A 3345   8.411   1.064   5.713
  253POPC   C1B 3346   8.886   1.254   4.686
  253POPC   C2B 3347   8.817   1.367   5.126
  253POPC   C3B 3348   8.877   1.449   5.573
  253POPC   C4B 3349   8.896   1.037   5.822
  254POPC   NC3 3350   1.333   5.648   3.820
  254POPC   PO4 3351   0.722   5.957   3.774
  254POPC   GL1 3352   0.984   6.012   4.133
  254POPC   GL2 3353   0.990   5.676   4.233
  254POPC   C1A 3354   1.070   6.025   4.599
  254POPC   D2A 3355   0.821   6.035   4.992
  254POPC   C3A 3356   0.969   6.014   5.402
  254POPC   C4A 3357   0.959   5.749   5.759
  254POPC   C1B 3358   1.116   5.501   4.638
  254POPC   C2B 3359   1.118   5.624   5.052
  254POPC   C3B 3360   1.354   5.702   5.406
  254POPC   C4B 3361   1.389   5.500   5.785
  255POPC   NC3 3362   7.230   9.568   3.979
  255POPC   PO4 3363   7.342   8.989   4.149
  255POPC   GL1 3364   7.200   9.280   4.396
  255POPC   GL2 3365   6.860   9.386   4.332
  255POPC   C1A 3366   7.144   9.208   4.782
  255POPC   D2A 3367   7.311   9.293   5.113
  255POPC   C3A 3368   7.115   9.089   5.438
  255POPC   C4A 3369   7.079   9.163   5.840
  255POPC   C1B 3370   6.938   9.643   4.693
  255POPC   C2B 3371   6.977   9.684   5.104
  255POPC   C3B 3372   7.136   9.606   5.494
  255POPC   C4B 3373   6.976   9.668   5.904
  256POPC   NC3 3374   0.441   3.712   4.099
  256POPC   PO4 3375   0.646   3.179   3.879
  256POPC   GL1 3376   0.400   3.197   4.258
  256POPC   GL2 3377   0.653   3.364   4.417
  256POPC   C1A 3378   0.217   3.317   4.648
  256POPC   D2A 3379   0.381   3.499   5.020
  256POPC   C3A 3380   0.217   3.351   5.410
  256POPC   C4A 3381   0.442   3.277   5.779
  256POPC   C1B 3382   0.784   3.665   4.705
  256POPC   C2B 3383   0.885   3.668   5.120
  256POPC   C3B 3384   0.696   3.615   5.476
  256POPC   C4B 3385   0.807   3.721   5.875
  257POPC   NC3 3386   7.253   0.066   4.036
  257POPC   PO4 3387   7.462   9.960   3.943
  257POPC   GL1 3388   7.274   9.873   4.369
  257POPC   GL2 3389   7.105  10.184   4.332
  257POPC   C1A 3390   7.414   9.759   4.807
  257POPC   D2A 3391   7.723   9.972   5.058
  257POPC   C3A 3392   7.612   9.840   5.484
  257POPC   C4A 3393   7.304  10.027   5.758
  257POPC   C1B 3394   7.360  10.243   4.713
  257POPC   C2B 3395   7.242  10.124   5.165
  257POPC   C3B 3396   6.998  10.342   5.483
  257POPC   C4B 3397   7.089  10.469   5.899
  258POPC   NC3 3398   0.212   3.786   3.628
  258POPC   PO4 3399   0.714   4.101   3.945
  258POPC   GL1 3400   0.452   4.176   4.314
  258POPC   GL2 3401   0.216   4.406   4.444
  258POPC   C1A 3402   0.353   3.975   4.700
  258POPC   D2A 3403   0.526   4.010   5.087
  258POPC   C3A 3404   0.266   3.874   5.371
  258POPC   C4A 3405   0.297   3.750   5.778
  258POPC   C1B 3406   0.490   4.499   4.818
  258POPC   C2B 3407   0.737   4.478   5.198
  258POPC   C3B 3408   0.702   4.155   5.552
  258POPC   C4B 3409   0.312   4.260   5.722
  259POPC   NC3 3410   9.076   7.300   3.647
  259POPC   PO4 3411   9.506   7.752   3.913
  259POPC   GL1 3412   9.295   7.422   4.162
  259POPC   GL2 3413   9.487   7.162   4.324
  259POPC   C1A 3414   9.150   7.429   4.596
  259POPC   D2A 3415   9.220   7.526   4.996
  259POPC   C3A 3416   9.425   7.320   5.289
  259POPC   C4A 3417   9.333   7.435   5.716
  259POPC   C1B 3418   9.312   6.979   4.753
  259POPC   C2B 3419   9.337   6.759   5.168
  259POPC   C3B 3420   9.311   6.919   5.594
  259POPC   C4B 3421   9.643   7.036   5.844
  260POPC   NC3 3422   2.755   2.564   3.863
  260POPC   PO4 3423   2.282   3.163   3.906
  260POPC   GL1 3424   2.422   2.867   4.253
  260POPC   GL2 3425   2.565   2.527   4.328
  260POPC   C1A 3426   2.493   2.804   4.721
  260POPC   D2A 3427   2.820   2.872   5.023
  260POPC   C3A 3428   2.665   2.796   5.444
  260POPC   C4A 3429   2.591   2.881   5.861
  260POPC   C1B 3430   2.934   2.546   4.599
  260POPC   C2B 3431   3.237   2.501   4.929
  260POPC   C3B 3432   3.124   2.573   5.339
  260POPC   C4B 3433   2.960   2.507   5.760
  261POPC   NC3 3434   8.908   4.314   3.898
  261POPC   PO4 3435   9.584   3.931   3.924
  261POPC   GL1 3436   9.258   3.972   4.230
  261POPC   GL2 3437   9.256   4.330   4.285
  261POPC   C1A 3438   9.403   3.975   4.662
  261POPC   D2A 3439   9.461   3.731   5.037
  261POPC   C3A 3440   9.377   3.975   5.391
  261POPC   C4A 3441   9.492   4.010   5.795
  261POPC   C1B 3442   9.348   4.488   4.696
  261POPC   C2B 3443   9.220   4.445   5.152
  261POPC   C3B 3444   9.459   4.549   5.516
  261POPC   C4B 3445   9.610   4.484   5.925
  262POPC   NC3 3446   5.050   3.002   3.923
  262POPC   PO4 3447   4.514   2.520   3.888
  262POPC   GL1 3448   4.763   2.601   4.278
  262POPC   GL2 3449   5.106   2.466   4.182
  262POPC   C1A 3450   4.911   2.847   4.679
  262POPC   D2A 3451   4.915   2.990   5.138
  262POPC   C3A 3452   4.742   2.888   5.568
  262POPC   C4A 3453   4.838   3.166   5.975
  262POPC   C1B 3454   5.257   2.485   4.601
  262POPC   C2B 3455   5.283   2.644   5.052
  262POPC   C3B 3456   5.265   2.779   5.504
  262POPC   C4B 3457   5.049   2.706   5.937
  263POPC   NC3 3458   0.269   6.113   3.860
  263POPC   PO4 3459   0.614   6.726   3.871
  263POPC   GL1 3460   0.584   6.369   4.166
  263POPC   GL2 3461   0.236   6.285   4.314
  263POPC   C1A 3462   0.618   6.249   4.593
  263POPC   D2A 3463   0.522   6.477   4.967
  263POPC   C3A 3464   0.533   6.271   5.350
  263POPC   C4A 3465   0.645   6.149   5.767
  263POPC   C1B 3466   0.098   6.225   4.718
  263POPC   C2B 3467  10.484   6.452   5.053
  263POPC   C3B 3468   0.203   6.655   5.357
  263POPC   C4B 3469   0.501   6.634   5.708
  264POPC   NC3 3470   0.606   1.446   3.792
  264POPC   PO4 3471   0.923   0.829   3.739
  264POPC   GL1 3472   0.809   1.046   4.147
  264POPC   GL2 3473   0.476   1.206   4.216
  264POPC   C1A 3474   0.777   1.165   4.611
  264POPC   D2A 3475   0.574   1.027   4.989
  264POPC   C3A 3476   0.617   1.104   5.412
  264POPC   C4A 3477   0.780   0.965   5.766
  264POPC   C1B 3478   0.214   1.087   4.573
  264POPC   C2B 3479   0.112   0.866   4.937
  264POPC   C3B 3480   0.037   0.889   5.392
  264POPC   C4B 3481   0.194   1.149   5.725
  265POPC   NC3 3482   6.556   7.903   3.867
  265POPC   PO4 3483   6.047   7.524   4.020
  265POPC   GL1 3484   6.353   7.652   4.313
  265POPC   GL2 3485   6.644   7.882   4.371
  265POPC   C1A 3486   6.289   7.627   4.740
  265POPC   D2A 3487   6.211   7.514   5.149
  265POPC   C3A 3488   6.444   7.741   5.427
  265POPC   C4A 3489   6.363   7.636   5.857
  265POPC   C1B 3490   6.275   8.096   4.572
  265POPC   C2B 3491   6.269   8.080   5.048
  265POPC   C3B 3492   6.666   8.176   5.286
  265POPC   C4B 3493   6.744   8.223   5.721
  266POPC   NC3 3494   8.046   1.068   3.807
  266POPC   PO4 3495   7.624   1.545   3.670
  266POPC   GL1 3496   7.773   1.308   4.142
  266POPC   GL2 3497   7.516   1.061   4.344
  266POPC   C1A 3498   7.979   1.108   4.514
  266POPC   D2A 3499   8.117   0.916   4.888
  266POPC   C3A 3500   7.842   0.948   5.243
  266POPC   C4A 3501   7.970   1.219   5.577
  266POPC   C1B 3502   7.545   1.019   4.814
  266POPC   C2B 3503   7.515   1.370   5.123
  266POPC   C3B 3504   7.554   1.459   5.530
  266POPC   C4B 3505   7.555   1.077   5.828
  267POPC   NC3 3506   0.603   5.434   3.845
  267POPC   PO4 3507   0.205   4.953   4.066
  267POPC   GL1 3508   0.372   5.330   4.285
  267POPC   GL2 3509   0.401   5.730   4.218
  267POPC   C1A 3510   0.223   5.426   4.681
  267POPC   D2A 3511   0.042   5.294   5.042
  267POPC   C3A 3512   0.265   5.305   5.413
  267POPC   C4A 3513   0.563   5.417   5.760
  267POPC   C1B 3514   0.635   5.717   4.618
  267POPC   C2B 3515   0.541   5.602   5.076
  267POPC   C3B 3516   0.359   5.811   5.475
  267POPC   C4B 3517   0.177   6.029   5.872
  268POPC   NC3 3518   9.172   6.049   4.226
  268POPC   PO4 3519   8.619   6.216   3.877
  268POPC   GL1 3520   8.684   6.414   4.236
  268POPC   GL2 3521   8.966   6.506   4.156
  268POPC   C1A 3522   8.513   6.358   4.634
  268POPC   D2A 3523   8.420   6.271   5.038
  268POPC   C3A 3524   8.660   6.267   5.390
  268POPC   C4A 3525   8.471   6.463   5.764
  268POPC   C1B 3526   8.941   6.637   4.611
  268POPC   C2B 3527   8.838   6.607   5.039
  268POPC   C3B 3528   8.854   6.736   5.486
  268POPC   C4B 3529   8.963   6.662   5.920
  269POPC   NC3 3530   5.599   9.840   3.914
  269POPC   PO4 3531   5.904   9.233   3.961
  269POPC   GL1 3532   5.836   9.591   4.295
  269POPC   GL2 3533   5.518   9.725   4.393
  269POPC   C1A 3534   5.942   9.804   4.687
  269POPC   D2A 3535   5.690   9.748   5.049
  269POPC   C3A 3536   5.746   9.919   5.463
  269POPC   C4A 3537   5.819   9.675   5.824
  269POPC   C1B 3538   5.380   9.444   4.682
  269POPC   C2B 3539   5.364   9.345   5.100
  269POPC   C3B 3540   5.609   9.402   5.453
  269POPC   C4B 3541   5.376   9.477   5.851
  270POPC   NC3 3542   4.339   2.958   3.943
  270POPC   PO4 3543   3.931   2.405   3.996
  270POPC   GL1 3544   4.211   2.420   4.281
  270POPC   GL2 3545   4.169   2.739   4.356
  270POPC   C1A 3546   4.223   2.234   4.664
  270POPC   D2A 3547   4.327   2.305   5.072
  270POPC   C3A 3548   3.977   2.315   5.321
  270POPC   C4A 3549   3.958   2.465   5.698
  270POPC   C1B 3550   4.431   2.691   4.691
  270POPC   C2B 3551   4.434   2.812   5.105
  270POPC   C3B 3552   4.231   2.838   5.484
  270POPC   C4B 3553   4.345   3.116   5.831
  271POPC   NC3 3554   3.455   2.167   3.993
  271POPC   PO4 3555   3.953   1.740   3.708
  271POPC   GL1 3556   3.686   1.720   4.177
  271POPC   GL2 3557   3.302   1.652   4.269
  271POPC   C1A 3558   3.546   1.841   4.660
  271POPC   D2A 3559   3.672   1.969   5.094
  271POPC   C3A 3560   3.478   1.886   5.488
  271POPC   C4A 3561   3.245   1.549   5.737
  271POPC   C1B 3562   3.049   1.915   4.638
  271POPC   C2B 3563   3.123   1.992   5.076
  271POPC   C3B 3564   3.031   2.085   5.502
  271POPC   C4B 3565   3.239   2.034   5.930
  272POPC   NC3 3566   7.821   3.298   4.000
  272POPC   PO4 3567   8.286   3.894   3.979
  272POPC   GL1 3568   8.205   3.562   4.258
  272POPC   GL2 3569   7.881   3.584   4.412
  272POPC   C1A 3570   8.246   3.280   4.572
  272POPC   D2A 3571   8.127   3.550   4.873
  272POPC   C3A 3572   8.124   3.523   5.297
  272POPC   C4A 3573   8.030   3.725   5.677
  272POPC   C1B 3574   7.772   3.137   4.610
  272POPC   C2B 3575   7.970   3.032   5.000
  272POPC   C3B 3576   7.825   3.144   5.425
  272POPC   C4B 3577   8.141   3.241   5.763
  273POPC   NC3 3578   2.205   1.014   3.844
  273POPC   PO4 3579   2.356   1.683   3.883
  273POPC   GL1 3580   2.145   1.470   4.255
  273POPC   GL2 3581   2.023   1.142   4.309
  273POPC   C1A 3582   2.079   1.442   4.707
  273POPC   D2A 3583   2.352   1.347   5.043
  273POPC   C3A 3584   2.157   1.432   5.403
  273POPC   C4A 3585   2.321   1.451   5.792
  273POPC   C1B 3586   1.790   1.022   4.708
  273POPC   C2B 3587   1.927   1.041   5.134
  273POPC   C3B 3588   1.839   1.060   5.568
  273POPC   C4B 3589   1.700   1.389   5.703
  274POPC   NC3 3590   7.232   7.810   3.993
  274POPC   PO4 3591   7.617   8.354   4.025
  274POPC   GL1 3592   7.308   8.176   4.344
  274POPC   GL2 3593   7.332   7.840   4.490
  274POPC   C1A 3594   7.053   8.214   4.713
  274POPC   D2A 3595   7.264   8.276   5.085
  274POPC   C3A 3596   7.166   8.045   5.405
  274POPC   C4A 3597   7.271   8.170   5.753
  274POPC   C1B 3598   7.228   7.781   4.958
  274POPC   C2B 3599   6.924   7.618   5.281
  274POPC   C3B 3600   6.860   7.717   5.731
  274POPC   C4B 3601   6.745   7.573   6.184
  275POPC   NC3 3602   4.220   2.125   3.762
  275POPC   PO4 3603   4.574   1.644   4.083
  275POPC   GL1 3604   4.455   1.771   4.444
  275POPC   GL2 3605   4.153   1.906   4.274
  275POPC   C1A 3606   4.532   1.882   4.868
  275POPC   D2A 3607   4.526   1.858   5.311
  275POPC   C3A 3608   4.413   2.203   5.572
  275POPC   C4A 3609   4.212   2.120   5.960
  275POPC   C1B 3610   4.035   1.755   4.716
  275POPC   C2B 3611   4.080   1.668   5.140
  275POPC   C3B 3612   3.993   1.864   5.553
  275POPC   C4B 3613   3.736   1.758   5.914
  276POPC   NC3 3614   2.411   9.194   4.192
  276POPC   PO4 3615   1.932   9.360   3.744
  276POPC   GL1 3616   1.903   9.276   4.223
  276POPC   GL2 3617   1.620   9.067   4.249
  276POPC   C1A 3618   2.074   9.358   4.703
  276POPC   D2A 3619   2.372   9.345   5.060
  276POPC   C3A 3620   2.148   9.544   5.402
  276POPC   C4A 3621   2.044   9.480   5.809
  276POPC   C1B 3622   1.572   9.285   4.622
  276POPC   C2B 3623   1.676   9.520   4.992
  276POPC   C3B 3624   1.630   9.449   5.407
  276POPC   C4B 3625   1.632   9.196   5.751
  277POPC   NC3 3626   5.006   1.488   4.187
  277POPC   PO4 3627   5.004   0.916   3.782
  277POPC   GL1 3628   4.780   0.902   4.222
  277POPC   GL2 3629   4.584   1.201   4.341
  277POPC   C1A 3630   4.815   0.943   4.699
  277POPC   D2A 3631   4.619   0.828   5.078
  277POPC   C3A 3632   4.729   0.906   5.490
  277POPC   C4A 3633   4.471   1.076   5.825
  277POPC   C1B 3634   4.743   1.434   4.756
  277POPC   C2B 3635   4.933   1.277   5.134
  277POPC   C3B 3636   4.829   1.398   5.555
  277POPC   C4B 3637   5.068   1.544   5.891
  278POPC   NC3 3638   0.824   0.508   4.062
  278POPC   PO4 3639   0.219   0.842   3.947
  278POPC   GL1 3640   0.400   0.673   4.322
  278POPC   GL2 3641   0.175   0.396   4.318
  278POPC   C1A 3642   0.486   0.428   4.727
  278POPC   D2A 3643   0.710   0.376   5.119
  278POPC   C3A 3644   0.523   0.616   5.419
  278POPC   C4A 3645   0.437   0.587   5.838
  278POPC   C1B 3646  10.460   0.430   4.726
  278POPC   C2B 3647   0.121   0.417   5.163
  278POPC   C3B 3648   0.202   0.216   5.566
  278POPC   C4B 3649   0.103   0.246   6.041
  279POPC   NC3 3650   0.437   2.287   3.921
  279POPC   PO4 3651   0.678   1.705   4.156
  279POPC   GL1 3652   0.405   1.753   4.415
  279POPC   GL2 3653   0.493   2.131   4.412
  279POPC   C1A 3654   0.394   1.512   4.796
  279POPC   D2A 3655   0.255   1.377   5.205
  279POPC   C3A 3656   0.457   1.557   5.570
  279POPC   C4A 3657   0.216   1.655   5.941
  279POPC   C1B 3658   0.658   1.963   4.789
  279POPC   C2B 3659   0.454   1.882   5.150
  279POPC   C3B 3660   0.247   2.007   5.489
  279POPC   C4B 3661   0.480   2.056   5.833
  280POPC   NC3 3662   9.893   4.306   3.945
  280POPC   PO4 3663   0.045   3.968   4.007
  280POPC   GL1 3664  10.308   4.150   4.255
  280POPC   GL2 3665  10.057   3.956   4.326
  280POPC   C1A 3666  10.346   4.187   4.691
  280POPC   D2A 3667   0.085   4.250   5.055
  280POPC   C3A 3668  10.371   4.200   5.445
  280POPC   C4A 3669  10.369   4.478   5.812
  280POPC   C1B 3670   9.840   4.227   4.624
  280POPC   C2B 3671   9.650   4.244   5.026
  280POPC   C3B 3672   9.827   4.236   5.421
  280POPC   C4B 3673   9.987   4.153   5.780
  281POPC   NC3 3674   2.564   6.483   3.909
  281POPC   PO4 3675   2.899   6.914   4.005
  281POPC   GL1 3676   2.792   6.603   4.356
  281POPC   GL2 3677   2.652   6.240   4.350
  281POPC   C1A 3678   2.914   6.500   4.783
  281POPC   D2A 3679   2.785   6.419   5.194
  281POPC   C3A 3680   3.035   6.450   5.565
  281POPC   C4A 3681   2.980   6.661   5.952
  281POPC   C1B 3682   2.419   6.295   4.769
  281POPC   C2B 3683   2.318   6.243   5.223
  281POPC   C3B 3684   2.561   6.211   5.599
  281POPC   C4B 3685   2.657   5.866   5.893
  282POPC   NC3 3686   2.413  10.298   3.998
  282POPC   PO4 3687   2.253   9.676   4.171
  282POPC   GL1 3688   2.601   9.955   4.349
  282POPC   GL2 3689   2.806  10.285   4.313
  282POPC   C1A 3690   2.532  10.101   4.756
  282POPC   D2A 3691   2.416   9.902   5.115
  282POPC   C3A 3692   2.617  10.083   5.493
  282POPC   C4A 3693   2.480  10.180   5.911
  282POPC   C1B 3694   2.796   0.014   4.720
  282POPC   C2B 3695   2.713  10.477   5.140
  282POPC   C3B 3696   2.966  10.472   5.496
  282POPC   C4B 3697   2.987  10.394   5.937
  283POPC   NC3 3698   5.367   0.686   4.025
  283POPC   PO4 3699   5.996   0.902   3.901
  283POPC   GL1 3700   5.877   0.555   4.277
  283POPC   GL2 3701   5.663   0.225   4.301
  283POPC   C1A 3702   5.752   0.459   4.749
  283POPC   D2A 3703   5.622   0.708   5.112
  283POPC   C3A 3704   5.843   0.716   5.479
  283POPC   C4A 3705   5.849   0.473   5.888
  283POPC   C1B 3706   5.381   0.110   4.664
  283POPC   C2B 3707   5.411   0.201   5.093
  283POPC   C3B 3708   5.512   0.328   5.499
  283POPC   C4B 3709   5.384   0.243   5.906
  284POPC   NC3 3710   4.609   1.203   3.817
  284POPC   PO4 3711   3.955   0.865   3.982
  284POPC   GL1 3712   4.054   1.028   4.356
  284POPC   GL2 3713   4.110   1.382   4.395
  284POPC   C1A 3714   3.860   0.891   4.721
  284POPC   D2A 3715   3.880   1.128   5.081
  284POPC   C3A 3716   4.093   1.021   5.454
  284POPC   C4A 3717   3.972   0.821   5.812
  284POPC   C1B 3718   4.284   1.220   4.778
  284POPC   C2B 3719   4.435   1.301   5.189
  284POPC   C3B 3720   4.310   1.475   5.570
  284POPC   C4B 3721   4.223   1.605   5.972
  285POPC   NC3 3722   3.229   5.221   4.031
  285POPC   PO4 3723   2.680   5.373   3.789
  285POPC   GL1 3724   2.392   5.325   4.166
  285POPC   GL2 3725   2.312   5.670   4.276
  285POPC   C1A 3726   2.385   5.258   4.628
  285POPC   D2A 3727   2.530   5.442   5.011
  285POPC   C3A 3728   2.717   5.426   5.407
  285POPC   C4A 3729   2.674   5.345   5.827
  285POPC   C1B 3730   2.586   5.788   4.618
  285POPC   C2B 3731   2.697   5.931   5.060
  285POPC   C3B 3732   2.935   5.911   5.450
  285POPC   C4B 3733   3.117   5.605   5.733
  286POPC   NC3 3734   4.811   9.397   3.896
  286POPC   PO4 3735   5.136   9.864   4.076
  286POPC   GL1 3736   4.849   9.627   4.352
  286POPC   GL2 3737   4.906   9.251   4.374
  286POPC   C1A 3738   4.521   9.632   4.679
  286POPC   D2A 3739   4.552   9.570   5.138
  286POPC   C3A 3740   4.655   9.681   5.581
  286POPC   C4A 3741   4.626   9.695   6.050
  286POPC   C1B 3742   4.892   9.310   4.805
  286POPC   C2B 3743   4.915   9.101   5.173
  286POPC   C3B 3744   5.153   9.154   5.538
  286POPC   C4B 3745   4.903   9.316   5.848
  287POPC   NC3 3746   7.861   5.378   3.703
  287POPC   PO4 3747   7.728   5.890   3.915
  287POPC   GL1 3748   7.892   5.592   4.243
  287POPC   GL2 3749   8.204   5.724   4.369
  287POPC   C1A 3750   7.842   5.680   4.721
  287POPC   D2A 3751   8.043   5.628   5.146
  287POPC   C3A 3752   7.746   5.729   5.514
  287POPC   C4A 3753   7.507   5.607   5.920
  287POPC   C1B 3754   8.352   5.843   4.781
  287POPC   C2B 3755   8.546   5.737   5.188
  287POPC   C3B 3756   8.354   5.552   5.552
  287POPC   C4B 3757   8.116   5.731   5.848
  288POPC   NC3 3758   9.753   9.083   3.730
  288POPC   PO4 3759  10.461   9.078   3.856
  288POPC   GL1 3760  10.213   9.147   4.228
  288POPC   GL2 3761  10.038   9.497   4.234
  288POPC   C1A 3762  10.177   9.038   4.663
  288POPC   D2A 3763  10.143   9.189   5.073
  288POPC   C3A 3764  10.252   8.982   5.438
  288POPC   C4A 3765  10.185   9.109   5.875
  288POPC   C1B 3766  10.285   9.550   4.628
  288POPC   C2B 3767  10.248   9.680   5.061
  288POPC   C3B 3768  10.243   9.521   5.485
  288POPC   C4B 3769   9.928   9.583   5.798
  289POPC   NC3 3770   9.241   9.156   4.173
  289POPC   PO4 3771   9.405   9.620   3.755
  289POPC   GL1 3772   9.535   9.597   4.266
  289POPC   GL2 3773   9.301   9.537   4.504
  289POPC   C1A 3774   9.781   9.465   4.726
  289POPC   D2A 3775   9.768   9.501   5.227
  289POPC   C3A 3776   9.789   9.164   5.558
  289POPC   C4A 3777   9.704   9.188   6.061
  289POPC   C1B 3778   9.309   9.392   4.895
  289POPC   C2B 3779   9.052   9.128   5.083
  289POPC   C3B 3780   9.151   9.324   5.453
  289POPC   C4B 3781   9.425   9.466   5.706
  290POPC   NC3 3782   8.853   9.482   3.901
  290POPC   PO4 3783   8.602   8.970   4.136
  290POPC   GL1 3784   8.807   9.288   4.377
  290POPC   GL2 3785   8.529   9.470   4.361
  290POPC   C1A 3786   8.833   9.545   4.766
  290POPC   D2A 3787   8.765   9.555   5.212
  290POPC   C3A 3788   8.979   9.797   5.501
  290POPC   C4A 3789   9.045   9.728   5.928
  290POPC   C1B 3790   8.468   9.146   4.721
  290POPC   C2B 3791   8.526   8.982   5.128
  290POPC   C3B 3792   8.723   9.077   5.466
  290POPC   C4B 3793   8.720   9.367   5.765
  291POPC   NC3 3794   2.493   4.959   3.812
  291POPC   PO4 3795   3.124   4.781   3.973
  291POPC   GL1 3796   2.811   5.005   4.221
  291POPC   GL2 3797   2.541   4.794   4.305
  291POPC   C1A 3798   2.881   5.195   4.638
  291POPC   D2A 3799   2.857   5.037   5.072
  291POPC   C3A 3800   3.088   5.080   5.494
  291POPC   C4A 3801   3.128   5.117   5.949
  291POPC   C1B 3802   2.333   4.737   4.699
  291POPC   C2B 3803   2.357   4.937   5.106
  291POPC   C3B 3804   2.607   4.887   5.484
  291POPC   C4B 3805   2.598   4.845   5.899
  292POPC   NC3 3806  10.240   8.607   3.799
  292POPC   PO4 3807   9.636   8.655   3.631
  292POPC   GL1 3808   9.864   8.647   4.130
  292POPC   GL2 3809  10.201   8.601   4.290
  292POPC   C1A 3810   9.864   8.622   4.653
  292POPC   D2A 3811  10.064   8.661   5.031
  292POPC   C3A 3812   9.851   8.671   5.423
  292POPC   C4A 3813   9.744   8.730   5.839
  292POPC   C1B 3814  10.313   8.289   4.598
  292POPC   C2B 3815  10.488   8.348   5.000
  292POPC   C3B 3816  10.295   8.420   5.405
  292POPC   C4B 3817  10.218   8.584   5.771
  293POPC   NC3 3818   8.274   9.228   3.944
  293POPC   PO4 3819   7.694   9.481   3.753
  293POPC   GL1 3820   7.726   9.319   4.205
  293POPC   GL2 3821   8.047   9.258   4.379
  293POPC   C1A 3822   7.647   9.339   4.685
  293POPC   D2A 3823   7.798   9.476   5.108
  293POPC   C3A 3824   7.647   9.293   5.479
  293POPC   C4A 3825   7.483   9.452   5.841
  293POPC   C1B 3826   8.134   9.544   4.701
  293POPC   C2B 3827   8.301   9.447   5.094
  293POPC   C3B 3828   8.248   9.351   5.506
  293POPC   C4B 3829   7.978   9.564   5.768
  294POPC   NC3 3830   1.006   8.533   3.831
  294POPC   PO4 3831   1.486   8.176   3.943
  294POPC   GL1 3832   1.291   8.394   4.277
  294POPC   GL2 3833   1.219   8.748   4.237
  294POPC   C1A 3834   1.145   8.364   4.706
  294POPC   D2A 3835   0.980   8.564   5.080
  294POPC   C3A 3836   0.883   8.337   5.453
  294POPC   C4A 3837   0.969   8.590   5.802
  294POPC   C1B 3838   1.362   8.817   4.643
  294POPC   C2B 3839   1.495   8.612   5.010
  294POPC   C3B 3840   1.423   8.574   5.437
  294POPC   C4B 3841   1.453   8.742   5.829
  295POPC   NC3 3842   1.427   0.963   4.105
  295POPC   PO4 3843   1.110   1.436   3.741
  295POPC   GL1 3844   1.121   1.448   4.251
  295POPC   GL2 3845   1.269   1.233   4.474
  295POPC   C1A 3846   1.031   1.589   4.721
  295POPC   D2A 3847   0.795   1.498   5.112
  295POPC   C3A 3848   1.005   1.407   5.505
  295POPC   C4A 3849   1.090   1.382   5.930
  295POPC   C1B 3850   1.287   1.111   4.868
  295POPC   C2B 3851   1.436   1.243   5.254
  295POPC   C3B 3852   1.330   1.038   5.617
  295POPC   C4B 3853   1.241   0.835   5.929
  296POPC   NC3 3854   7.948   1.778   3.905
  296POPC   PO4 3855   7.390   1.623   4.139
  296POPC   GL1 3856   7.704   1.781   4.354
  296POPC   GL2 3857   7.684   2.125   4.231
  296POPC   C1A 3858   7.951   1.636   4.693
  296POPC   D2A 3859   8.018   1.419   5.078
  296POPC   C3A 3860   7.970   1.711   5.424
  296POPC   C4A 3861   7.784   1.898   5.777
  296POPC   C1B 3862   7.864   2.161   4.660
  296POPC   C2B 3863   8.060   2.024   5.031
  296POPC   C3B 3864   7.965   2.211   5.427
  296POPC   C4B 3865   8.028   2.370   5.822
  297POPC   NC3 3866   2.519   2.058   3.660
  297POPC   PO4 3867   3.030   1.977   4.008
  297POPC   GL1 3868   2.694   2.027   4.246
  297POPC   GL2 3869   2.584   1.711   4.347
  297POPC   C1A 3870   2.584   2.173   4.682
  297POPC   D2A 3871   2.742   2.362   5.062
  297POPC   C3A 3872   2.574   2.292   5.472
  297POPC   C4A 3873   2.523   2.341   5.931
  297POPC   C1B 3874   2.592   1.677   4.745
  297POPC   C2B 3875   2.600   1.855   5.126
  297POPC   C3B 3876   2.736   1.672   5.481
  297POPC   C4B 3877   2.745   1.838   5.852
  298POPC   NC3 3878  10.402   0.129   3.983
  298POPC   PO4 3879  10.219   9.938   3.896
  298POPC   GL1 3880  10.310  10.130   4.272
  298POPC   GL2 3881   9.950  10.206   4.267
  298POPC   C1A 3882  10.433  10.048   4.727
  298POPC   D2A 3883   0.021  10.095   5.163
  298POPC   C3A 3884  10.378  10.300   5.516
  298POPC   C4A 3885  10.377   9.946   5.789
  298POPC   C1B 3886   9.932   9.963   4.644
  298POPC   C2B 3887   9.972  10.114   5.068
  298POPC   C3B 3888   9.952  10.012   5.507
  298POPC   C4B 3889   9.947  10.380   5.808
  299POPC   NC3 3890   0.959   9.532   3.821
  299POPC   PO4 3891   0.818   8.921   3.950
  299POPC   GL1 3892   0.917   9.192   4.289
  299POPC   GL2 3893   1.194   9.412   4.287
  299POPC   C1A 3894   1.047   9.219   4.730
  299POPC   D2A 3895   1.329   9.134   5.059
  299POPC   C3A 3896   1.127   9.280   5.406
  299POPC   C4A 3897   1.048   9.086   5.782
  299POPC   C1B 3898   1.287   9.699   4.647
  299POPC   C2B 3899   1.315   9.897   5.064
  299POPC   C3B 3900   1.252   9.789   5.467
  299POPC   C4B 3901   1.280   9.535   5.822
  300POPC   NC3 3902   8.017   0.454   3.894
  300POPC   PO4 3903   8.522   0.014   3.923
  300POPC   GL1 3904   8.426   0.319   4.265
  300POPC   GL2 3905   8.203   0.601   4.349
  300POPC   C1A 3906   8.284   0.217   4.681
  300POPC   D2A 3907   8.156   0.423   5.044
  300POPC   C3A 3908   8.288   0.244   5.429
  300POPC   C4A 3909   8.084   0.092   5.774
  300POPC   C1B 3910   7.832   0.573   4.625
  300POPC   C2B 3911   7.645   0.450   5.044
  300POPC   C3B 3912   7.803   0.383   5.432
  300POPC   C4B 3913   7.951   0.717   5.688
  301POPC   NC3 3914   4.133   8.824   3.827
  301POPC   PO4 3915   4.413   8.262   3.706
  301POPC   GL1 3916   4.347   8.435   4.167
  301POPC   GL2 3917   4.118   8.670   4.305
  301POPC   C1A 3918   4.481   8.530   4.617
  301POPC   D2A 3919   4.412   8.717   5.021
  301POPC   C3A 3920   4.422   8.522   5.430
  301POPC   C4A 3921   4.326   8.793   5.742
  301POPC   C1B 3922   3.987   8.821   4.693
  301POPC   C2B 3923   3.798   8.599   5.021
  301POPC   C3B 3924   3.943   8.687   5.416
  301POPC   C4B 3925   3.940   8.482   5.825
  302POPC   NC3 3926  10.029   3.628   3.952
  302POPC   PO4 3927   0.133   3.385   3.831
  302POPC   GL1 3928  10.448   3.541   4.268
  302POPC   GL2 3929  10.119   3.394   4.401
  302POPC   C1A 3930  10.394   3.689   4.736
  302POPC   D2A 3931  10.278   3.496   5.153
  302POPC   C3A 3932  10.341   3.676   5.567
  302POPC   C4A 3933  10.448   3.393   5.940
  302POPC   C1B 3934   9.874   3.677   4.699
  302POPC   C2B 3935   9.991   3.895   5.073
  302POPC   C3B 3936   9.833   3.719   5.469
  302POPC   C4B 3937   9.985   3.309   5.621
  303POPC   NC3 3938   0.897   6.384   3.744
  303POPC   PO4 3939   1.465   6.119   3.885
  303POPC   GL1 3940   1.451   6.209   4.286
  303POPC   GL2 3941   1.203   6.493   4.254
  303POPC   C1A 3942   1.473   6.340   4.694
  303POPC   D2A 3943   1.336   6.106   5.035
  303POPC   C3A 3944   1.410   6.275   5.408
  303POPC   C4A 3945   1.383   6.063   5.776
  303POPC   C1B 3946   1.008   6.554   4.694
  303POPC   C2B 3947   1.005   6.487   5.164
  303POPC   C3B 3948   0.999   6.492   5.650
  303POPC   C4B 3949   0.829   6.595   6.101
  304POPC   NC3 3950   9.998   5.853   3.987
  304POPC   PO4 3951   0.149   5.564   3.785
  304POPC   GL1 3952  10.405   5.489   4.267
  304POPC   GL2 3953  10.085   5.483   4.295
  304POPC   C1A 3954  10.293   5.720   4.699
  304POPC   D2A 3955   0.051   5.825   5.035
  304POPC   C3A 3956  10.365   5.632   5.361
  304POPC   C4A 3957  10.487   5.580   5.746
  304POPC   C1B 3958   9.834   5.486   4.675
  304POPC   C2B 3959   9.937   5.470   5.090
  304POPC   C3B 3960   9.820   5.522   5.494
  304POPC   C4B 3961  10.017   5.821   5.668
  305POPC   NC3 3962   8.379   4.770   3.868
  305POPC   PO4 3963   9.086   4.727   4.004
  305POPC   GL1 3964   8.835   4.673   4.348
  305POPC   GL2 3965   8.796   5.045   4.325
  305POPC   C1A 3966   8.875   4.618   4.813
  305POPC   D2A 3967   8.670   4.795   5.179
  305POPC   C3A 3968   8.746   4.754   5.609
  305POPC   C4A 3969   9.057   4.527   5.795
  305POPC   C1B 3970   8.610   5.038   4.736
  305POPC   C2B 3971   8.391   5.213   5.155
  305POPC   C3B 3972   8.331   5.038   5.604
  305POPC   C4B 3973   8.357   5.234   6.017
  306POPC   NC3 3974   0.996   2.936   3.712
  306POPC   PO4 3975   0.887   2.321   4.078
  306POPC   GL1 3976   0.978   2.306   4.429
  306POPC   GL2 3977   1.268   2.451   4.512
  306POPC   C1A 3978   0.804   2.447   4.781
  306POPC   D2A 3979   0.870   2.739   5.072
  306POPC   C3A 3980   1.064   2.626   5.435
  306POPC   C4A 3981   0.831   2.362   5.640
  306POPC   C1B 3982   1.304   2.515   4.957
  306POPC   C2B 3983   1.384   2.904   5.122
  306POPC   C3B 3984   1.364   3.036   5.515
  306POPC   C4B 3985   1.311   2.954   5.931
  307POPC   NC3 3986   8.014   8.161   3.895
  307POPC   PO4 3987   7.644   7.531   3.853
  307POPC   GL1 3988   7.916   7.709   4.214
  307POPC   GL2 3989   7.815   8.014   4.348
  307POPC   C1A 3990   8.118   7.752   4.663
  307POPC   D2A 3991   8.042   7.630   5.093
  307POPC   C3A 3992   8.106   7.809   5.510
  307POPC   C4A 3993   8.279   7.823   5.927
  307POPC   C1B 3994   7.682   8.041   4.778
  307POPC   C2B 3995   7.674   7.982   5.195
  307POPC   C3B 3996   7.607   7.817   5.567
  307POPC   C4B 3997   7.777   8.122   5.755
  308POPC   NC3 3998   4.343   7.860   3.898
  308POPC   PO4 3999   3.867   8.442   3.922
  308POPC   GL1 4000   3.904   8.178   4.272
  308POPC   GL2 4001   4.061   7.849   4.301
  308POPC   C1A 4002   4.021   8.282   4.673
  308POPC   D2A 4003   4.218   8.244   5.056
  308POPC   C3A 4004   4.077   8.143   5.471
  308POPC   C4A 4005   4.197   8.059   5.929
  308POPC   C1B 4006   4.235   7.803   4.741
  308POPC   C2B 4007   4.247   7.737   5.172
  308POPC   C3B 4008   4.288   7.675   5.595
  308POPC   C4B 4009   4.009   7.348   5.750
  309POPC   NC3 4010   0.815  10.236   3.879
  309POPC   PO4 4011   1.280   9.807   3.985
  309POPC   GL1 4012   1.023  10.000   4.293
  309POPC   GL2 4013   1.062  10.391   4.326
  309POPC   C1A 4014   0.982  10.103   4.733
  309POPC   D2A 4015   0.791  10.179   5.113
  309POPC   C3A 4016   0.748   9.862   5.420
  309POPC   C4A 4017   0.894   9.841   5.819
  309POPC   C1B 4018   1.101   0.129   4.760
  309POPC   C2B 4019   1.112   0.076   5.234
  309POPC   C3B 4020   1.060  10.264   5.569
  309POPC   C4B 4021   1.340  10.109   5.904
  310POPC   NC3 4022   3.413   8.815   3.932
  310POPC   PO4 4023   3.231   8.283   3.647
  310POPC   GL1 4024   3.434   8.390   4.192
  310POPC   GL2 4025   3.608   8.700   4.368
  310POPC   C1A 4026   3.500   8.293   4.642
  310POPC   D2A 4027   3.330   8.278   5.063
  310POPC   C3A 4028   3.529   8.404   5.426
  310POPC   C4A 4029   3.335   8.431   5.800
  310POPC   C1B 4030   3.377   8.771   4.761
  310POPC   C2B 4031   3.273   8.805   5.179
  310POPC   C3B 4032   3.337   9.015   5.524
  310POPC   C4B 4033   3.610   8.856   5.773
  311POPC   NC3 4034   8.651   2.877   3.954
  311POPC   PO4 4035   9.044   2.439   3.767
  311POPC   GL1 4036   8.903   2.321   4.186
  311POPC   GL2 4037   8.588   2.506   4.308
  311POPC   C1A 4038   8.923   2.325   4.649
  311POPC   D2A 4039   9.074   2.547   5.037
  311POPC   C3A 4040   8.924   2.483   5.472
  311POPC   C4A 4041   8.807   2.458   5.941
  311POPC   C1B 4042   8.641   2.753   4.707
  311POPC   C2B 4043   8.567   2.696   5.159
  311POPC   C3B 4044   8.594   2.846   5.589
  311POPC   C4B 4045   8.364   2.795   5.921
  312POPC   NC3 4046   8.861   1.989   3.556
  312POPC   PO4 4047   8.356   1.542   3.896
  312POPC   GL1 4048   8.359   1.804   4.277
  312POPC   GL2 4049   8.728   1.854   4.362
  312POPC   C1A 4050   8.385   2.110   4.633
  312POPC   D2A 4051   8.585   2.190   5.018
  312POPC   C3A 4052   8.432   1.993   5.389
  312POPC   C4A 4053   8.460   2.340   5.608
  312POPC   C1B 4054   8.943   1.807   4.773
  312POPC   C2B 4055   8.901   1.849   5.227
  312POPC   C3B 4056   8.887   1.980   5.628
  312POPC   C4B 4057   9.012   1.745   5.974
  313POPC   NC3 4058   7.932   4.176   4.085
  313POPC   PO4 4059   8.479   4.349   3.685
  313POPC   GL1 4060   8.412   4.367   4.158
  313POPC   GL2 4061   8.627   4.136   4.274
  313POPC   C1A 4062   8.456   4.442   4.617
  313POPC   D2A 4063   8.562   4.252   5.006
  313POPC   C3A 4064   8.418   4.397   5.389
  313POPC   C4A 4065   8.563   4.318   5.776
  313POPC   C1B 4066   8.911   4.136   4.612
  313POPC   C2B 4067   9.008   3.997   5.019
  313POPC   C3B 4068   8.905   4.174   5.428
  313POPC   C4B 4069   8.963   4.018   5.848
  314POPC   NC3 4070   3.577   8.057   3.855
  314POPC   PO4 4071   2.970   8.259   4.120
  314POPC   GL1 4072   3.152   7.900   4.294
  314POPC   GL2 4073   3.491   7.860   4.301
  314POPC   C1A 4074   3.255   7.859   4.760
  314POPC   D2A 4075   3.309   7.752   5.185
  314POPC   C3A 4076   3.280   7.975   5.541
  314POPC   C4A 4077   2.969   8.072   5.824
  314POPC   C1B 4078   3.740   7.848   4.668
  314POPC   C2B 4079   3.770   7.961   5.081
  314POPC   C3B 4080   3.751   7.746   5.489
  314POPC   C4B 4081   3.695   8.055   5.811
  315POPC   NC3 4082   2.839   8.016   3.754
  315POPC   PO4 4083   2.314   8.448   3.897
  315POPC   GL1 4084   2.478   8.274   4.266
  315POPC   GL2 4085   2.582   7.917   4.210
  315POPC   C1A 4086   2.432   8.188   4.701
  315POPC   D2A 4087   2.424   8.300   5.119
  315POPC   C3A 4088   2.422   8.113   5.459
  315POPC   C4A 4089   2.193   8.027   5.789
  315POPC   C1B 4090   2.774   7.834   4.618
  315POPC   C2B 4091   2.864   8.032   5.019
  315POPC   C3B 4092   2.826   7.841   5.386
  315POPC   C4B 4093   2.606   7.730   5.755
  316POPC   NC3 4094   0.244   2.929   3.861
  316POPC   PO4 4095   0.692   2.560   3.637
  316POPC   GL1 4096   0.651   2.742   4.114
  316POPC   GL2 4097   0.355   2.636   4.315
  316POPC   C1A 4098   0.718   2.881   4.548
  316POPC   D2A 4099   0.428   2.935   4.904
  316POPC   C3A 4100   0.461   2.906   5.354
  316POPC   C4A 4101   0.672   2.827   5.748
  316POPC   C1B 4102   0.287   2.465   4.743
  316POPC   C2B 4103   0.458   2.411   5.182
  316POPC   C3B 4104   0.320   2.491   5.615
  316POPC   C4B 4105   0.140   2.532   6.022
  317POPC   NC3 4106   2.017   2.741   3.911
  317POPC   PO4 4107   1.531   2.218   4.061
  317POPC   GL1 4108   1.704   2.565   4.277
  317POPC   GL2 4109   2.039   2.558   4.370
  317POPC   C1A 4110   1.691   2.718   4.706
  317POPC   D2A 4111   1.795   2.547   5.130
  317POPC   C3A 4112   1.597   2.561   5.526
  317POPC   C4A 4113   1.776   2.881   5.773
  317POPC   C1B 4114   2.144   2.436   4.763
  317POPC   C2B 4115   2.297   2.616   5.148
  317POPC   C3B 4116   2.184   2.615   5.572
  317POPC   C4B 4117   2.042   2.478   5.950
  318POPC   NC3 4118  10.207   1.899   3.822
  318POPC   PO4 4119   0.011   2.511   3.967
  318POPC   GL1 4120   0.033   2.044   4.201
  318POPC   GL2 4121  10.213   1.815   4.339
  318POPC   C1A 4122   0.054   1.991   4.690
  318POPC   D2A 4123  10.447   1.766   5.097
  318POPC   C3A 4124  10.245   1.959   5.455
  318POPC   C4A 4125  10.314   2.364   5.650
  318POPC   C1B 4126  10.035   1.847   4.773
  318POPC   C2B 4127   9.846   2.072   5.146
  318POPC   C3B 4128   9.801   2.156   5.608
  318POPC   C4B 4129   9.979   1.936   5.940
  319POPC   NC3 4130   7.752   6.355   3.883
  319POPC   PO4 4131   8.158   6.784   3.600
  319POPC   GL1 4132   8.145   6.779   4.136
  319POPC   GL2 4133   8.177   6.432   4.203
  319POPC   C1A 4134   7.994   6.775   4.574
  319POPC   D2A 4135   7.874   6.592   4.959
  319POPC   C3A 4136   8.100   6.577   5.351
  319POPC   C4A 4137   7.971   6.801   5.734
  319POPC   C1B 4138   8.022   6.208   4.584
  319POPC   C2B 4139   7.949   6.097   5.024
  319POPC   C3B 4140   8.171   6.046   5.425
  319POPC   C4B 4141   7.976   6.254   5.743
  320POPC   NC3 4142   5.039  10.257   3.854
  320POPC   PO4 4143   4.440   0.099   3.900
  320POPC   GL1 4144   4.597  10.377   4.289
  320POPC   GL2 4145   4.969  10.337   4.357
  320POPC   C1A 4146   4.669  10.463   4.734
  320POPC   D2A 4147   4.963  10.434   5.076
  320POPC   C3A 4148   4.828  10.134   5.392
  320POPC   C4A 4149   4.628  10.171   5.810
  320POPC   C1B 4150   4.866  10.008   4.699
  320POPC   C2B 4151   5.044   9.762   5.034
  320POPC   C3B 4152   5.218   9.764   5.449
  320POPC   C4B 4153   5.067   9.911   5.852
  321POPC   NC3 4154   7.687   2.730   3.732
  321POPC   PO4 4155   8.224   3.043   3.892
  321POPC   GL1 4156   8.122   2.879   4.277
  321POPC   GL2 4157   7.844   2.653   4.229
  321POPC   C1A 4158   8.163   2.617   4.644
  321POPC   D2A 4159   8.039   2.527   5.046
  321POPC   C3A 4160   8.120   2.731   5.448
  321POPC   C4A 4161   7.839   2.830   5.817
  321POPC   C1B 4162   7.650   2.627   4.642
  321POPC   C2B 4163   7.529   2.423   5.019
  321POPC   C3B 4164   7.633   2.584   5.412
  321POPC   C4B 4165   7.525   2.403   5.796
  322POPC   NC3 4166   3.767   2.828   3.928
  322POPC   PO4 4167   3.214   2.585   3.996
  322POPC   GL1 4168   3.399   2.444   4.402
  322POPC   GL2 4169   3.664   2.690   4.398
  322POPC   C1A 4170   3.711   2.326   4.723
  322POPC   D2A 4171   3.907   2.649   4.957
  322POPC   C3A 4172   3.642   2.725   5.355
  322POPC   C4A 4173   3.469   2.387   5.643
  322POPC   C1B 4174   3.339   2.906   4.622
  322POPC   C2B 4175   3.305   3.031   5.059
  322POPC   C3B 4176   3.089   3.064   5.448
  322POPC   C4B 4177   3.302   2.873   5.764
  323POPC   NC3 4178   1.166   3.783   3.925
  323POPC   PO4 4179   1.418   4.469   3.940
  323POPC   GL1 4180   1.168   4.244   4.218
  323POPC   GL2 4181   0.960   3.987   4.361
  323POPC   C1A 4182   1.331   4.318   4.614
  323POPC   D2A 4183   1.217   4.501   5.000
  323POPC   C3A 4184   1.169   4.288   5.383
  323POPC   C4A 4185   1.111   4.417   5.803
  323POPC   C1B 4186   0.891   4.157   4.770
  323POPC   C2B 4187   1.249   3.979   4.995
  323POPC   C3B 4188   1.511   3.887   5.348
  323POPC   C4B 4189   1.262   3.930   5.753
  324POPC   NC3 4190   9.343   8.484   3.940
  324POPC   PO4 4191   9.691   9.116   4.175
  324POPC   GL1 4192   9.466   8.781   4.395
  324POPC   GL2 4193   9.501   8.421   4.390
  324POPC   C1A 4194   9.409   8.894   4.773
  324POPC   D2A 4195   9.657   9.013   5.068
  324POPC   C3A 4196   9.403   8.884   5.370
  324POPC   C4A 4197   9.311   8.958   5.752
  324POPC   C1B 4198   9.356   8.384   4.724
  324POPC   C2B 4199   9.541   8.488   5.064
  324POPC   C3B 4200   9.422   8.367   5.458
  324POPC   C4B 4201   9.327   8.453   5.843
  325POPC   NC3 4202   5.669   1.280   3.846
  325POPC   PO4 4203   5.228   1.086   4.229
  325POPC   GL1 4204   5.654   1.004   4.322
  325POPC   GL2 4205   5.936   1.241   4.298
  325POPC   C1A 4206   5.857   0.963   4.726
  325POPC   D2A 4207   6.001   1.274   5.037
  325POPC   C3A 4208   5.835   1.244   5.464
  325POPC   C4A 4209   5.921   1.000   5.877
  325POPC   C1B 4210   5.618   1.410   4.632
  325POPC   C2B 4211   5.448   1.252   5.038
  325POPC   C3B 4212   5.315   1.119   5.469
  325POPC   C4B 4213   5.503   1.302   5.841
  326POPC   NC3 4214  10.354   1.120   3.857
  326POPC   PO4 4215   0.177   1.710   3.753
  326POPC   GL1 4216   0.036   1.470   4.187
  326POPC   GL2 4217  10.264   1.197   4.325
  326POPC   C1A 4218  10.410   1.493   4.671
  326POPC   D2A 4219  10.300   1.242   5.033
  326POPC   C3A 4220  10.116   1.451   5.347
  326POPC   C4A 4221  10.276   1.539   5.752
  326POPC   C1B 4222  10.153   0.911   4.665
  326POPC   C2B 4223  10.150   0.692   5.060
  326POPC   C3B 4224  10.009   0.751   5.446
  326POPC   C4B 4225  10.137   1.049   5.754
  327POPC   NC3 4226   1.089   1.901   4.038
  327POPC   PO4 4227   1.633   1.407   4.140
  327POPC   GL1 4228   1.614   1.646   4.470
  327POPC   GL2 4229   1.374   1.906   4.450
  327POPC   C1A 4230   1.540   1.613   4.894
  327POPC   D2A 4231   1.239   1.748   5.205
  327POPC   C3A 4232   1.316   2.098   5.511
  327POPC   C4A 4233   1.381   1.760   5.756
  327POPC   C1B 4234   1.172   2.058   4.813
  327POPC   C2B 4235   0.927   2.157   5.177
  327POPC   C3B 4236   0.847   1.883   5.524
  327POPC   C4B 4237   0.980   1.986   5.970
  328POPC   NC3 4238   9.340   3.531   3.919
  328POPC   PO4 4239   9.887   3.184   3.957
  328POPC   GL1 4240   9.518   3.095   4.257
  328POPC   GL2 4241   9.201   3.303   4.332
  328POPC   C1A 4242   9.549   3.259   4.697
  328POPC   D2A 4243   9.765   3.320   5.106
  328POPC   C3A 4244   9.491   3.268   5.466
  328POPC   C4A 4245   9.578   3.090   5.874
  328POPC   C1B 4246   9.098   3.587   4.653
  328POPC   C2B 4247   8.980   3.473   5.065
  328POPC   C3B 4248   8.965   3.659   5.450
  328POPC   C4B 4249   9.228   3.580   5.773
  329POPC   NC3 4250   9.428   2.213   3.938
  329POPC   PO4 4251   9.088   1.638   4.060
  329POPC   GL1 4252   9.271   1.969   4.347
  329POPC   GL2 4253   9.662   1.968   4.337
  329POPC   C1A 4254   9.408   2.205   4.713
  329POPC   D2A 4255   9.339   2.031   5.084
  329POPC   C3A 4256   9.339   2.230   5.435
  329POPC   C4A 4257   9.272   2.220   5.848
  329POPC   C1B 4258   9.531   1.711   4.723
  329POPC   C2B 4259   9.612   1.605   5.188
  329POPC   C3B 4260   9.367   1.750   5.577
  329POPC   C4B 4261   9.499   1.789   6.064
  330POPC   NC3 4262   0.241   7.112   3.892
  330POPC   PO4 4263   0.004   6.522   3.908
  330POPC   GL1 4264   0.252   6.782   4.270
  330POPC   GL2 4265   0.356   7.151   4.378
  330POPC   C1A 4266   0.209   6.794   4.720
  330POPC   D2A 4267   0.454   6.997   5.063
  330POPC   C3A 4268   0.219   7.156   5.417
  330POPC   C4A 4269   0.358   7.102   5.826
  330POPC   C1B 4270   0.698   7.264   4.689
  330POPC   C2B 4271   0.887   7.359   5.088
  330POPC   C3B 4272   0.686   7.367   5.479
  330POPC   C4B 4273   0.672   7.506   5.878
  331POPC   NC3 4274   1.495   4.983   3.869
  331POPC   PO4 4275   2.124   4.796   4.006
  331POPC   GL1 4276   2.035   4.997   4.364
  331POPC   GL2 4277   1.713   4.968   4.333
  331POPC   C1A 4278   1.945   5.067   4.810
  331POPC   D2A 4279   2.040   5.357   5.117
  331POPC   C3A 4280   2.241   5.240   5.509
  331POPC   C4A 4281   2.213   5.154   5.958
  331POPC   C1B 4282   1.715   4.643   4.666
  331POPC   C2B 4283   1.623   4.784   5.092
  331POPC   C3B 4284   1.905   4.892   5.366
  331POPC   C4B 4285   2.162   4.713   5.667
  332POPC   NC3 4286   1.103   7.920   3.965
  332POPC   PO4 4287   0.607   7.427   3.996
  332POPC   GL1 4288   0.752   7.760   4.312
  332POPC   GL2 4289   1.066   7.942   4.444
  332POPC   C1A 4290   0.756   7.763   4.764
  332POPC   D2A 4291   1.014   7.975   5.015
  332POPC   C3A 4292   0.900   7.809   5.373
  332POPC   C4A 4293   1.079   7.805   5.755
  332POPC   C1B 4294   1.475   7.984   4.604
  332POPC   C2B 4295   1.532   8.093   5.025
  332POPC   C3B 4296   1.334   8.085   5.418
  332POPC   C4B 4297   1.370   8.227   5.849
  333POPC   NC3 4298  10.041   6.497   4.019
  333POPC   PO4 4299  10.424   5.950   4.119
  333POPC   GL1 4300  10.188   6.191   4.387
  333POPC   GL2 4301  10.316   6.542   4.427
  333POPC   C1A 4302  10.066   6.260   4.797
  333POPC   D2A 4303  10.066   5.998   5.154
  333POPC   C3A 4304  10.385   6.131   5.448
  333POPC   C4A 4305  10.209   6.237   5.830
  333POPC   C1B 4306  10.172   6.792   4.725
  333POPC   C2B 4307  10.045   6.691   5.130
  333POPC   C3B 4308  10.199   6.613   5.491
  333POPC   C4B 4309  10.499   6.664   5.813
  334POPC   NC3 4310   3.352   3.607   3.847
  334POPC   PO4 4311   3.926   3.284   3.929
  334POPC   GL1 4312   3.649   3.202   4.283
  334POPC   GL2 4313   3.316   3.372   4.303
  334POPC   C1A 4314   3.623   3.314   4.737
  334POPC   D2A 4315   3.483   3.510   5.132
  334POPC   C3A 4316   3.535   3.268   5.519
  334POPC   C4A 4317   3.496   3.274   5.984
  334POPC   C1B 4318   3.076   3.348   4.694
  334POPC   C2B 4319   2.936   3.411   5.111
  334POPC   C3B 4320   3.111   3.583   5.496
  334POPC   C4B 4321   3.520   3.782   5.580
  335POPC   NC3 4322  10.371   5.196   3.859
  335POPC   PO4 4323  10.286   4.486   3.824
  335POPC   GL1 4324  10.308   4.660   4.244
  335POPC   GL2 4325  10.247   4.989   4.296
  335POPC   C1A 4326  10.129   4.660   4.665
  335POPC   D2A 4327  10.115   4.448   5.049
  335POPC   C3A 4328  10.124   4.653   5.413
  335POPC   C4A 4329   9.953   4.802   5.760
  335POPC   C1B 4330  10.224   5.173   4.670
  335POPC   C2B 4331  10.131   5.009   5.058
  335POPC   C3B 4332  10.262   5.140   5.467
  335POPC   C4B 4333  10.107   5.282   5.842
  336POPC   NC3 4334   6.338   1.222   3.793
  336POPC   PO4 4335   6.728   1.766   3.608
  336POPC   GL1 4336   6.651   1.529   4.108
  336POPC   GL2 4337   6.526   1.175   4.253
  336POPC   C1A 4338   6.725   1.445   4.623
  336POPC   D2A 4339   6.552   1.242   4.998
  336POPC   C3A 4340   6.661   1.332   5.413
  336POPC   C4A 4341   6.680   1.119   5.839
  336POPC   C1B 4342   6.365   0.941   4.630
  336POPC   C2B 4343   6.243   0.794   5.061
  336POPC   C3B 4344   6.288   0.994   5.467
  336POPC   C4B 4345   6.259   1.372   5.751
  337POPC   NC3 4346   2.362   9.677   3.728
  337POPC   PO4 4347   2.745   9.130   3.862
  337POPC   GL1 4348   2.791   9.471   4.306
  337POPC   GL2 4349   2.847   9.221   4.518
  337POPC   C1A 4350   2.743   9.641   4.746
  337POPC   D2A 4351   2.911   9.795   5.123
  337POPC   C3A 4352   2.659   9.578   5.436
  337POPC   C4A 4353   2.502   9.680   5.832
  337POPC   C1B 4354   2.908   8.979   4.846
  337POPC   C2B 4355   2.793   9.033   5.259
  337POPC   C3B 4356   2.589   9.111   5.616
  337POPC   C4B 4357   2.930   9.224   5.820
  338POPC   NC3 4358   6.436   2.549   3.633
  338POPC   PO4 4359   6.423   3.103   4.023
  338POPC   GL1 4360   6.462   2.960   4.439
  338POPC   GL2 4361   6.398   2.624   4.361
  338POPC   C1A 4362   6.523   2.923   4.892
  338POPC   D2A 4363   6.222   2.642   5.119
  338POPC   C3A 4364   6.207   2.772   5.567
  338POPC   C4A 4365   6.490   2.880   5.983
  338POPC   C1B 4366   6.616   2.472   4.695
  338POPC   C2B 4367   6.619   2.330   5.100
  338POPC   C3B 4368   6.652   2.576   5.440
  338POPC   C4B 4369   6.559   2.419   5.827
  339POPC   NC3 4370   1.332   1.028   3.616
  339POPC   PO4 4371   1.295   0.486   4.093
  339POPC   GL1 4372   1.120   0.717   4.424
  339POPC   GL2 4373   1.435   0.715   4.543
  339POPC   C1A 4374   0.926   0.715   4.802
  339POPC   D2A 4375   1.023   0.849   5.235
  339POPC   C3A 4376   1.019   0.522   5.548
  339POPC   C4A 4377   0.731   0.165   5.624
  339POPC   C1B 4378   1.394   0.574   4.914
  339POPC   C2B 4379   1.538   0.730   5.257
  339POPC   C3B 4380   1.528   0.536   5.605
  339POPC   C4B 4381   1.422   0.107   5.674
  340POPC   NC3 4382   1.862   1.796   4.006
  340POPC   PO4 4383   2.317   2.365   3.937
  340POPC   GL1 4384   2.196   2.065   4.305
  340POPC   GL2 4385   1.875   2.086   4.402
  340POPC   C1A 4386   2.145   1.930   4.785
  340POPC   D2A 4387   2.131   2.127   5.198
  340POPC   C3A 4388   2.283   1.900   5.556
  340POPC   C4A 4389   2.274   1.909   6.009
  340POPC   C1B 4390   1.674   2.212   4.728
  340POPC   C2B 4391   1.609   2.079   5.095
  340POPC   C3B 4392   1.754   1.800   5.386
  340POPC   C4B 4393   1.842   2.048   5.737
  341POPC   NC3 4394   8.533   6.728   3.864
  341POPC   PO4 4395   9.126   6.892   3.866
  341POPC   GL1 4396   8.910   6.998   4.268
  341POPC   GL2 4397   8.736   7.268   4.400
  341POPC   C1A 4398   8.493   6.847   4.492
  341POPC   D2A 4399   8.365   6.770   4.931
  341POPC   C3A 4400   8.438   6.957   5.344
  341POPC   C4A 4401   8.452   6.973   5.786
  341POPC   C1B 4402   8.784   7.095   4.797
  341POPC   C2B 4403   8.961   7.100   5.127
  341POPC   C3B 4404   8.935   7.339   5.407
  341POPC   C4B 4405   8.892   7.199   5.786
  342W        W 4406   1.287   4.687  10.466
  343W        W 4407   6.557   2.884   1.432
  344W        W 4408   6.523   8.530   9.180
  345W        W 4409   2.642   8.751  11.366
  346W        W 4410   6.224   6.129   1.297
  347W        W 4411   8.633   1.960   1.210
  348W        W 4412   3.759   7.516  11.551
  349W        W 4413   3.835   1.822   1.727
  350W        W 4414   6.950   3.253   0.071
  351W        W 4415   3.758   7.482   2.332
  352W        W 4416   7.654   7.456   3.041
  353W        W 4417   7.254   2.912  10.938
  354W        W 4418   6.627   6.039   2.550
  355W        W 4419  10.424   4.071   2.323
  356W        W 4420   0.726   2.885  11.587
  357W        W 4421   2.108   0.949  11.411
  358W        W 4422   0.691   2.628   8.795
  359W        W 4423   3.840   2.360  10.514
  360W        W 4424   7.598   0.736  11.924
  361W        W 4425   7.979   6.288  10.353
  362W        W 4426   9.601   5.047   1.976
  363W        W 4427   2.664   7.890   2.249
  364W        W 4428   3.757   6.452  10.490
  365W        W 4429   3.647   8.956   2.272
  366W        W 4430   5.590   9.692   1.305
  367W        W 4431   2.565   8.891   9.201
  368W        W 4432   4.955   4.815   1.660
  369W        W 4433   6.099   8.008   0.890
  370W        W 4434   9.186   3.305   9.367
  371W        W 4435  10.267   4.671   1.630
  372W        W 4436   8.582   9.383   3.236
  373W        W 4437   9.811   1.687  10.518
  374W        W 4438   4.624   4.396  10.883
  375W        W 4439   2.839   9.548   0.903
  376W        W 4440   3.920   8.611  11.471
  377W        W 4441  10.440   0.162   9.911
  378W        W 4442   8.550   8.309  10.382
  379W        W 4443   2.336   4.478   3.653
  380W        W 4444   3.342   9.679   0.986
  381W        W 4445   1.138   4.464   1.798
  382W        W 4446   6.146   8.562  10.903
  383W        W 4447   1.652   6.041   3.397
  384W        W 4448   1.544   9.256   0.402
  385W        W 4449   0.480   1.199   3.102
  386W        W 4450   2.190   7.807  10.983
  387W        W 4451   6.806   9.036  10.326
  388W        W 4452   3.061   7.704  11.934
  389W        W 4453   6.083   7.781  10.639
  390W        W 4454   2.594   5.267   2.828
  391W        W 4455   6.630   8.448  11.102
  392W        W 4456   9.038   9.521   2.998
  393W        W 4457   4.631  10.263   0.038
  394W        W 4458   7.274   6.243   3.794
  395W        W 4459   3.546   4.101   2.666
  396W        W 4460   1.525   9.654   3.528
  397W        W 4461  10.207   9.593   0.144
  398W        W 4462   3.752   7.717   9.965
  399W        W 4463   7.525  10.485   1.373
  400W        W 4464   5.157   4.555   8.235
  401W        W 4465   0.314   9.551  10.116
  402W        W 4466   9.685   9.435   2.417
  403W        W 4467   6.041   3.963   1.267
  404W        W 4468   7.209   1.296  10.335
  405W        W 4469   8.399   7.651   0.767
  406W        W 4470   3.779   0.260  10.071
  407W        W 4471   9.292   4.403   3.073
  408W        W 4472   2.357   3.240   9.341
  409W        W 4473   7.896   4.486  10.892
  410W        W 4474   7.925   7.609   3.443
  411W        W 4475   5.624   6.976   0.435
  412W        W 4476   9.052   9.155   2.144
  413W        W 4477   5.595   7.326   1.853
  414W        W 4478   8.402   6.265   8.593
  415W        W 4479   1.095   9.220   9.647
  416W        W 4480   8.077  10.175  10.163
  417W        W 4481   1.922  10.450   3.268
  418W        W 4482   7.884   0.958   2.254
  419W        W 4483   6.854   4.668   0.048
  420W        W 4484   8.909   3.467   2.315
  421W        W 4485   1.695   2.032   2.286
  422W        W 4486   9.667   8.343   0.796
  423W        W 4487   5.465   7.453  10.012
  424W        W 4488   1.328   7.448  10.927
  425W        W 4489   6.054   4.768  11.440
  426W        W 4490   0.930   9.554   0.420
  427W        W 4491   1.354   9.879   2.405
  428W        W 4492   4.127   4.498   0.200
  429W        W 4493   4.074   9.467   9.882
  430W        W 4494   4.812   3.209  10.300
  431W        W 4495   5.196   7.952   8.955
  432W        W 4496   6.038  10.031   2.771
  433W        W 4497   8.864   4.808  11.831
  434W        W 4498   0.845   7.522   3.111
  435W        W 4499   0.845   4.932   2.647
  436W        W 4500   4.360  10.404   9.996
  437W        W 4501   3.846   0.439  11.450
  438W        W 4502   0.016   6.988  11.316
  439W        W 4503   8.440   3.141   8.814
  440W        W 4504   3.597   6.416   3.658
  441W        W 4505   4.257   8.472   0.742
  442W        W 4506   4.258   8.831  11.107
  443W        W 4507   1.923   5.614   3.307
  444W        W 4508   7.595   8.588   1.253
  445W        W 4509   5.112   7.229   3.917
  446W        W 4510   6.450   9.793  11.495
  447W        W 4511   7.151   0.906   9.194
  448W        W 4512   4.788  10.456  10.581
  449W        W 4513   9.027   5.611   3.498
  450W        W 4514   1.667   6.650   9.347
  451W        W 4515   8.412   4.026   2.195
  452W        W 4516   9.005   6.560   1.451
  453W        W 4517   7.473   7.710   2.647
  454W        W 4518   7.000   6.005   3.106
  455W        W 4519   1.847   6.598  10.867
  456W        W 4520   8.707   3.404   0.084
  457W        W 4521   7.170   0.802   1.008
  458W        W 4522   1.898   5.282   9.108
  459W        W 4523   9.029   5.478  10.119
  460W        W 4524  10.248   5.010   0.730
  461W        W 4525   2.833   4.693   3.550
  462W        W 4526   0.977   7.017   1.322
  463W        W 4527   0.873   4.447  10.284
  464W        W 4528   6.989   4.899   0.998
  465W        W 4529   6.405   2.050   9.529
  466W        W 4530   7.508   0.508  11.292
  467W        W 4531   5.630   8.496  10.849
  468W        W 4532   3.752   7.074   9.144
  469W        W 4533  10.126   7.590  10.399
  470W        W 4534   9.348   1.836  10.351
  471W        W 4535   1.611   1.942   1.776
  472W        W 4536   7.061   3.130   3.077
  473W        W 4537   3.990   0.366   8.688
  474W        W 4538   4.791   4.889   8.445
  475W        W 4539   5.042   2.583   0.347
  476W        W 4540   6.698   6.685  11.923
  477W        W 4541   7.756   0.471   2.302
  478W        W 4542   4.529   9.679   8.544
  479W        W 4543   8.393   0.867   2.311
  480W        W 4544   5.265   9.149  11.970
  481W        W 4545   4.704   6.588  10.721
  482W        W 4546   6.733   3.088   0.985
  483W        W 4547   0.861   2.112   0.698
  484W        W 4548   8.376   7.440   3.282
  485W        W 4549   1.301  10.311   3.268
  486W        W 4550   6.436   6.961   3.287
  487W        W 4551   3.760   8.486   0.895
  488W        W 4552   5.690   8.436   2.693
  489W        W 4553   2.680   6.097   8.364
  490W        W 4554   3.730   8.712   3.522
  491W        W 4555   2.142   8.531   1.633
  492W        W 4556   7.272   6.495  10.713
  493W        W 4557   1.180   5.631   9.023
  494W        W 4558   7.739   6.875   9.246
  495W        W 4559   4.563   7.116  10.737
  496W        W 4560   5.396   3.676   8.209
  497W        W 4561   3.162   4.101   9.753
  498W        W 4562   8.968   1.332   9.723
  499W        W 4563   0.041   3.153   2.692
  500W        W 4564   6.015   4.759   2.475
  501W        W 4565   7.738   8.971  11.491
  502W        W 4566   4.124   2.588   9.445
  503W        W 4567  10.018   0.185  10.204
  504W        W 4568   7.534   0.041   3.397
  505W        W 4569   0.741   2.514  10.752
  506W        W 4570   3.205   6.748   2.473
  507W        W 4571   1.160   2.360   9.682
  508W        W 4572   4.097   6.253   1.966
  509W        W 4573   3.829   5.014  10.627
  510W        W 4574   9.241   2.773  11.367
  511W        W 4575   5.481   4.896   3.683
  512W        W 4576   8.568   9.865   1.681
  513W        W 4577   2.440   9.192   1.210
  514W        W 4578   4.510   4.551   9.995
  515W        W 4579   6.763   7.526   1.318
  516W        W 4580   4.660   9.304  11.557
  517W        W 4581   5.178   3.599   3.266
  518W        W 4582   8.925   6.000   0.843
  519W        W 4583   2.851   3.755   3.157
  520W        W 4584   6.983   4.380   3.912
  521W        W 4585   4.832   9.840  10.309
  522W        W 4586  10.393   6.092   8.879
  523W        W 4587   5.278   4.068   0.194
  524W        W 4588   9.484   4.243   0.735
  525W        W 4589   5.306   4.124  10.326
  526W        W 4590  10.257   4.252  10.092
  527W        W 4591   4.294  10.114   2.722
  528W        W 4592   2.553   1.472   3.063
  529W        W 4593   6.171   3.467   3.109
  530W        W 4594   6.941   0.373   2.012
  531W        W 4595   2.786   1.423   1.019
  532W        W 4596   5.997   3.145   8.866
  533W        W 4597   3.148   2.238   9.539
  534W        W 4598   9.119   4.172   9.570
  535W        W 4599   8.459   2.449   0.385
  536W        W 4600   5.694   5.468   9.479
  537W        W 4601   2.691   1.522   9.098
  538W        W 4602   8.896   4.299  10.529
  539W        W 4603   2.215   9.959   8.993
  540W        W 4604   5.753   7.170  11.890
  541W        W 4605   8.450   3.895   2.729
  542W        W 4606  10.184   9.568   2.359
  543W        W 4607   9.329   5.088  11.011
  544W        W 4608   7.932   6.419   2.258
  545W        W 4609   6.927   4.763   9.760
  546W        W 4610   1.264   5.128   2.360
  547W        W 4611   9.641   0.429  10.440
  548W        W 4612   9.817   0.356   1.233
  549W        W 4613   4.784   1.778   1.942
  550W        W 4614   5.319   7.367   0.292
  551W        W 4615   0.531   4.006  11.393
  552W        W 4616   8.004   5.738   3.383
  553W        W 4617   4.242   8.272  11.172
  554W        W 4618   4.743   9.864   2.694
  555W        W 4619   1.327   9.767   1.388
  556W        W 4620  10.313   1.167   1.401
  557W        W 4621   7.922   5.420   9.390
  558W        W 4622   3.872   0.675   9.783
  559W        W 4623   0.497   0.848   2.739
  560W        W 4624   3.764   9.533   0.649
  561W        W 4625   1.586   1.972  10.987
  562W        W 4626   5.472   2.613   9.240
  563W        W 4627   3.500   3.380   0.364
  564W        W 4628   4.049   8.245  10.283
  565W        W 4629   9.067   1.465   8.713
  566W        W 4630   8.033   6.244  11.720
  567W        W 4631   8.083   4.623  10.446
  568W        W 4632   3.264   0.892   8.699
  569W        W 4633   2.325   8.187   1.326
  570W        W 4634   0.615   6.025   3.277
  571W        W 4635   3.529   6.742   3.229
  572W        W 4636   8.233   3.411   0.266
  573W        W 4637   3.022   0.113   0.954
  574W        W 4638   2.647  10.243   8.854
  575W        W 4639   3.750   1.406   1.410
  576W        W 4640   2.076   5.091   9.751
  577W        W 4641   4.236   0.219  11.753
  578W        W 4642   9.909   4.889  10.033
  579W        W 4643   5.445   1.303  10.025
  580W        W 4644   9.982   8.532   9.479
  581W        W 4645   0.740   4.042   9.990
  582W        W 4646   9.331   0.481   9.528
  583W        W 4647   3.923   5.929   3.205
  584W        W 4648  10.264   7.445   8.507
  585W        W 4649   5.189   8.214   1.426
  586W        W 4650   7.065   1.542  10.816
  587W        W 4651  10.248   1.666   2.868
  588W        W 4652   2.288   2.674   0.666
  589W        W 4653  10.339   9.391   9.002
  590W        W 4654   1.745   3.325  11.490
  591W        W 4655   7.868   9.367   2.126
  592W        W 4656   9.953   3.762   1.147
  593W        W 4657   1.255   0.042  10.323
  594W        W 4658   1.491   8.962   9.403
  595W        W 4659   7.935   8.498  10.715
  596W        W 4660  10.119   4.344   3.288
  597W        W 4661   5.559   5.002  11.355
  598W        W 4662   1.734   2.662   2.923
  599W        W 4663   0.108   4.276   3.494
  600W        W 4664   8.370   0.481  11.252
  601W        W 4665  10.375  10.368   1.250
  602W        W 4666   1.011   4.824   3.128
  603W        W 4667   4.518   6.224   8.541
  604W        W 4668  10.209   3.437   3.488
  605W        W 4669  10.392   5.140  10.081
  606W        W 4670   8.946   5.249   2.295
  607W        W 4671   9.421   6.151   3.286
  608W        W 4672  10.290   0.626  10.077
  609W        W 4673   4.310   3.729   2.730
  610W        W 4674  10.352  10.075  10.763
  611W        W 4675   7.112   3.285  10.594
  612W        W 4676   4.952   2.133   9.688
  613W        W 4677   6.424   3.619   8.474
  614W        W 4678  10.397   3.778   1.447
  615W        W 4679   9.562   5.860   2.441
  616W        W 4680   5.078   2.603   9.566
  617W        W 4681   1.766  10.282  11.651
  618W        W 4682   3.632   1.302  10.401
  619W        W 4683   8.355  10.046  10.921
  620W        W 4684   2.886   1.270   0.228
  621W        W 4685   2.416   8.389   9.097
  622W        W 4686  10.274  10.197   1.746
  623W        W 4687   9.731   2.674   0.460
  624W        W 4688   0.381   1.175   1.743
  625W        W 4689   2.108   5.547   9.527
  626W        W 4690   8.067   6.992   1.428
  627W        W 4691   0.320   9.525   9.599
  628W        W 4692   5.327   5.025   1.385
  629W        W 4693   5.339   0.216   1.169
  630W        W 4694   9.492   7.965   9.939
  631W        W 4695   9.756   7.830  11.847
  632W        W 4696   3.712   2.288   3.563
  633W        W 4697   9.893   3.875   9.313
  634W        W 4698   6.539   7.449  10.143
  635W        W 4699   7.683   3.152   9.278
  636W        W 4700   3.194   0.600   3.509
  637W        W 4701   0.867   3.991   8.988
  638W        W 4702   8.456   0.350  11.721
  639W        W 4703   0.820   0.450   8.964
  640W        W 4704   7.078   4.087   2.582
  641W        W 4705   9.521   0.024   8.550
  642W        W 4706   5.143   7.213   1.651
  643W        W 4707   6.048   2.051   2.161
  644W        W 4708   9.575   7.039  11.506
  645W        W 4709   5.200   7.615   2.579
  646W        W 4710   7.474   7.610   8.948
  647W        W 4711   3.585   5.154   1.221
  648W        W 4712   7.867   3.979  11.000
  649W        W 4713   6.123   5.979   2.749
  650W        W 4714   6.162   1.873   9.105
  651W        W 4715   7.907   4.343   0.463
  652W        W 4716   5.798   8.379  10.017
  653W        W 4717   7.135   5.951  11.799
  654W        W 4718   0.934   1.420   9.808
  655W        W 4719   9.958   6.236   0.909
  656W        W 4720   8.166   5.635   0.577
  657W        W 4721   2.820   5.044   9.552
  658W        W 4722   0.393   1.245  11.851
  659W        W 4723   8.068   5.477   1.282
  660W        W 4724   4.546   9.857   2.211
  661W        W 4725   2.597   1.984  11.800
  662W        W 4726   1.894   4.708   8.514
  663W        W 4727   6.027   3.237   0.743
  664W        W 4728   0.131   9.311   2.479
  665W        W 4729   6.543   1.395   1.335
  666W        W 4730   7.186   0.398   9.409
  667W        W 4731   2.118   6.583   9.015
  668W        W 4732   7.006   3.196   0.569
  669W        W 4733   2.463   9.674   0.200
  670W        W 4734   4.018   3.267  10.030
  671W        W 4735   5.069   3.525   2.786
  672W        W 4736   8.811   8.413  11.872
  673W        W 4737   4.578   0.599  10.490
  674W        W 4738   4.248   0.937   9.975
  675W        W 4739   5.152   0.880   8.909
  676W        W 4740   9.949   0.315   0.209
  677W        W 4741   6.048   9.645   0.017
  678W        W 4742   6.518   4.752  11.672
  679W        W 4743   2.285   1.358   8.531
  680W        W 4744   1.764   4.674  10.609
  681W        W 4745   4.217   7.991   1.642
  682W        W 4746   4.619   0.529   1.007
  683W        W 4747   7.481   0.145  10.862
  684W        W 4748   0.106   4.940  11.272
  685W        W 4749   4.041   2.882  10.385
  686W        W 4750   7.964   6.808   0.936
  687W        W 4751   7.866   9.037   1.347
  688W        W 4752   5.671   4.517  10.300
  689W        W 4753   2.115   8.571  11.435
  690W        W 4754   5.663   7.564   2.328
  691W        W 4755   7.730   1.876  11.398
  692W        W 4756   0.516   6.975  11.139
  693W        W 4757   2.825   4.513   1.494
  694W        W 4758   9.849   1.200  10.665
  695W        W 4759   6.011   0.647   1.464
  696W        W 4760   0.711   0.672  10.347
  697W        W 4761   9.558   2.630   9.962
  698W        W 4762   3.565   9.180   1.802
  699W        W 4763   1.491   5.591   2.369
  700W        W 4764   4.972   6.598   9.023
  701W        W 4765   6.397   0.715   9.527
  702W        W 4766   2.365   3.059  10.969
  703W        W 4767   4.593   6.042   2.841
  704W        W 4768   5.199   2.225   0.019
  705W        W 4769   3.775   9.853   2.739
  706W        W 4770   3.022   7.960  10.044
  707W        W 4771   3.831   8.223   1.879
  708W        W 4772   2.475   0.950   2.186
  709W        W 4773   3.008   1.109  11.361
  710W        W 4774   0.349   2.393   9.166
  711W        W 4775   8.546   7.183   1.587
  712W        W 4776   2.330   1.190   1.713
  713W        W 4777   4.148   1.772   0.205
  714W        W 4778   5.644   7.908   2.786
  715W        W 4779   2.757   7.017  11.320
  716W        W 4780   7.177   1.705   2.265
  717W        W 4781   7.312   8.560  11.517
  718W        W 4782   1.265   3.310   8.760
  719W        W 4783   0.942   3.698  11.257
  720W        W 4784   1.880   4.132   1.264
  721W        W 4785   7.993   8.354   9.738
  722W        W 4786   2.062   7.627  10.053
  723W        W 4787   6.189   3.043   2.234
  724W        W 4788   1.209  10.008  11.687
  725W        W 4789   6.432   6.997  10.523
  726W        W 4790   5.765   6.581   8.499
  727W        W 4791   0.875   2.623   0.611
  728W        W 4792   9.962   6.120  11.984
  729W        W 4793   9.390   8.723  11.316
  730W        W 4794   9.216   5.239  10.529
  731W        W 4795   8.789   2.759   2.984
  732W        W 4796   0.611   9.460   3.426
  733W        W 4797   1.410   6.710   1.388
  734W        W 4798   6.528   8.029  11.387
  735W        W 4799   6.152   8.491   8.829
  736W        W 4800   1.002  10.186   2.247
  737W        W 4801   2.775   2.194   1.270
  738W        W 4802   5.141   3.603   0.036
  739W        W 4803   7.566   4.587   3.706
  740W        W 4804   6.003   0.561  10.630
  741W        W 4805   0.798   0.140   2.299
  742W        W 4806  10.168  10.234   9.985
  743W        W 4807   3.515   8.843  11.682
  744W        W 4808   2.819   5.111   1.843
  745W        W 4809   1.477   0.947   2.542
  746W        W 4810   6.593   6.505   2.183
  747W        W 4811   2.589   7.001   9.728
  748W        W 4812   4.758   7.525   2.298
  749W        W 4813   0.004   3.451  11.953
  750W        W 4814   3.242   8.951   1.465
  751W        W 4815   4.646  10.249   3.506
  752W        W 4816   9.119   8.800   1.802
  753W        W 4817   6.192  10.500   2.653
  754W        W 4818   6.436   3.393   2.664
  755W        W 4819   4.523   3.096   8.931
  756W        W 4820   4.760   0.768   3.349
  757W        W 4821   2.174   8.049   2.404
  758W        W 4822   8.662   1.789   1.991
  759W        W 4823   9.497   6.999   8.798
  760W        W 4824   7.375   2.306   8.801
  761W        W 4825   2.752   1.658   0.563
  762W        W 4826   7.721   8.569   8.885
  763W        W 4827   3.267   4.516   1.761
  764W        W 4828   9.864   8.751   1.018
  765W        W 4829   0.235   9.862  10.540
  766W        W 4830   9.377   5.123  10.031
  767W        W 4831   7.908   4.568   1.534
  768W        W 4832   3.361   9.464   1.439
  769W        W 4833   0.673   5.638   9.575
  770W        W 4834   4.029   6.633   9.216
  771W        W 4835   5.847   1.647   1.927
  772W        W 4836   7.306  10.019   9.226
  773W        W 4837   6.736   4.685   9.097
  774W        W 4838   2.319   8.206  10.690
  775W        W 4839   4.540   8.361   8.510
  776W        W 4840   5.614   8.796   9.684
  777W        W 4841   8.304   9.481  11.778
  778W        W 4842   7.330   7.849  11.037
  779W        W 4843   6.830   9.808   1.673
  780W        W 4844   7.671   2.632  10.965
  781W        W 4845   7.077   6.896   0.840
  782W        W 4846   0.466  10.300  10.478
  783W        W 4847   1.281   7.950   9.109
  784W        W 4848   1.854   8.401   0.265
  785W        W 4849   1.686   3.820   0.437
  786W        W 4850   8.332   9.058   9.279
  787W        W 4851   2.370   5.727  11.889
  788W        W 4852   6.373   4.011   9.715
  789W        W 4853   9.785   2.823   1.469
  790W        W 4854   3.182   7.487   0.388
  791W        W 4855   1.822   5.717   0.519
  792W        W 4856   6.221   5.546   3.028
  793W        W 4857   9.976   9.987   0.362
  794W        W 4858   4.580  10.416   9.179
  795W        W 4859  10.481   7.940   1.843
  796W        W 4860   3.719   7.061  11.850
  797W        W 4861   8.371   1.275   9.067
  798W        W 4862   9.143   8.051   0.619
  799W        W 4863   1.255   5.522   0.602
  800W        W 4864   2.283  10.024   2.499
  801W        W 4865   3.751   8.436  11.941
  802W        W 4866   0.789   0.179  10.473
  803W        W 4867   9.564   8.935   0.180
  804W        W 4868   4.924   1.614   3.694
  805W        W 4869   3.414  10.369  10.378
  806W        W 4870   3.086   8.532  10.384
  807W        W 4871   4.906   4.172  11.270
  808W        W 4872   6.204   1.408   0.249
  809W        W 4873   9.095   5.538  10.942
  810W        W 4874   0.404   6.054   8.828
  811W        W 4875   7.015   2.725   1.713
  812W        W 4876   2.676   3.222   1.979
  813W        W 4877   1.888   7.944   1.457
  814W        W 4878   1.936  10.375   2.674
  815W        W 4879   8.577   4.686  10.578
  816W        W 4880   9.868   8.336   3.300
  817W        W 4881   3.910   3.395   0.699
  818W        W 4882   5.046   4.615   3.637
  819W        W 4883   3.558   7.869   9.441
  820W        W 4884   5.101   8.474   8.867
  821W        W 4885   4.579   6.834   3.437
  822W        W 4886   6.949   8.054   2.528
  823W        W 4887   0.018   3.678   8.878
  824W        W 4888   8.506   9.996   2.175
  825W        W 4889   0.342   9.908   1.714
  826W        W 4890   6.941  10.494   9.691
  827W        W 4891   6.487   6.622   9.808
  828W        W 4892  10.198   6.186   3.647
  829W        W 4893   7.669   8.888   1.983
  830W        W 4894   9.114   7.562  11.963
  831W        W 4895  10.009   3.286  10.983
  832W        W 4896   6.119   0.058   0.713
  833W        W 4897   1.232   3.618  10.096
  834W        W 4898   9.813   1.883   8.576
  835W        W 4899   0.284   2.688   1.507
  836W        W 4900   9.367   8.351   1.999
  837W        W 4901   2.810   7.455   3.396
  838W        W 4902   0.081   6.583   0.703
  839W        W 4903   8.129   9.343   8.723
  840W        W 4904   2.911   1.628  10.504
  841W        W 4905   2.359   7.000   8.798
  842W        W 4906   3.273   8.441  10.929
  843W        W 4907   4.008   6.184   8.348
  844W        W 4908   5.510   3.844   3.587
  845W        W 4909   1.690   8.037   9.389
  846W        W 4910   7.534   8.395   1.831
  847W        W 4911  10.438   4.205   1.166
  848W        W 4912   7.773   6.423  10.785
  849W        W 4913   7.150   7.465   3.227
  850W        W 4914   9.682   6.469  10.734
  851W        W 4915   3.153   2.630   0.984
  852W        W 4916   2.989   1.770   0.061
  853W        W 4917   3.282   4.895  11.549
  854W        W 4918   5.170   5.749  11.862
  855W        W 4919   1.349   3.315   1.192
  856W        W 4920   9.021   3.568  10.824
  857W        W 4921   8.193   8.811   0.408
  858W        W 4922   2.743   6.974   1.447
  859W        W 4923   9.837   7.353   1.774
  860W        W 4924   5.162  10.480  11.367
  861W        W 4925   5.807   8.080   3.408
  862W        W 4926   3.351   9.388   3.485
  863W        W 4927  10.421   0.862   1.826
  864W        W 4928   7.322   6.746   3.646
  865W        W 4929   7.492   4.902  11.802
  866W        W 4930   6.463   8.854   2.522
  867W        W 4931   6.966   7.496   1.801
  868W        W 4932   1.950   4.794   2.481
  869W        W 4933   7.640   9.148   9.998
  870W        W 4934   0.262   4.265   0.470
  871W        W 4935   7.004   2.689   8.727
  872W        W 4936   8.142   3.228   1.508
  873W        W 4937   1.284   6.233   1.524
  874W        W 4938   4.246   4.682  11.724
  875W        W 4939  10.441   7.529  10.011
  876W        W 4940   9.601   0.665   9.936
  877W        W 4941   9.932   0.713  10.782
  878W        W 4942   4.139   4.584   3.689
  879W        W 4943   3.595   9.054   9.098
  880W        W 4944   3.318   9.270   2.477
  881W        W 4945   5.007   7.693   0.065
  882W        W 4946   8.617   5.057  11.374
  883W        W 4947   0.406   0.498   9.264
  884W        W 4948   0.944   8.585  10.244
  885W        W 4949   4.209   2.386   3.032
  886W        W 4950   0.474   8.324   1.217
  887W        W 4951   1.836   8.866   1.878
  888W        W 4952   5.489   3.176   8.054
  889W        W 4953   3.810   0.382   0.444
  890W        W 4954   1.186   5.162   9.710
  891W        W 4955   9.059   9.385   3.463
  892W        W 4956   1.624   0.938   1.093
  893W        W 4957   7.617   1.052   1.140
  894W        W 4958   9.991  10.050   1.227
  895W        W 4959   1.243   5.012   0.400
  896W        W 4960   1.741   0.713   9.481
  897W        W 4961   1.812   6.694   2.278
  898W        W 4962   7.841   8.962  10.440
  899W        W 4963  10.385   3.199   8.720
  900W        W 4964  10.310   7.951   8.711
  901W        W 4965   9.139   9.607  10.960
  902W        W 4966  10.110   9.947   8.984
  903W        W 4967   2.392   7.263   0.941
  904W        W 4968  10.055   9.083   0.351
  905W        W 4969   0.287   0.691  10.675
  906W        W 4970   4.786   0.822   2.181
  907W        W 4971   4.558   8.710   3.548
  908W        W 4972  10.388   8.575   0.234
  909W        W 4973   3.273   2.096  10.805
  910W        W 4974   6.514   0.737  11.278
  911W        W 4975   0.050   3.264   2.178
  912W        W 4976   5.127   7.197   2.172
  913W        W 4977   1.136   3.787   2.381
  914W        W 4978   7.626   9.273  11.913
  915W        W 4979   9.834   1.250   0.506
  916W        W 4980   5.629   7.702  10.429
  917W        W 4981   2.815   7.437   0.724
  918W        W 4982   8.472   3.593   3.305
  919W        W 4983   0.651   5.594  11.859
  920W        W 4984   2.179   9.559   1.469
  921W        W 4985   5.470   7.682   3.730
  922W        W 4986   0.473   8.466   0.385
  923W        W 4987   5.932   7.559  11.580
  924W        W 4988   6.631   7.194   0.830
  925W        W 4989   8.771   7.314   0.892
  926W        W 4990   4.958   0.768   2.686
  927W        W 4991   4.438   6.933  11.212
  928W        W 4992   7.470   5.093   3.565
  929W        W 4993   3.072   3.028   1.725
  930W        W 4994   8.615   3.298   1.733
  931W        W 4995   1.376   2.771   3.333
  932W        W 4996   7.551   8.558  10.279
  933W        W 4997   4.852   3.088   2.215
  934W        W 4998   5.812   2.234   9.212
  935W        W 4999   6.493   9.350  10.729
  936W        W 5000   7.121   7.400   0.924
  937W        W 5001   4.996   5.498   2.125
  938W        W 5002   4.597   7.615   9.042
  939W        W 5003   0.534   9.910   0.270
  940W        W 5004   3.093   2.828  10.304
  941W        W 5005   0.284   5.549   1.874
  942W        W 5006  10.324   9.932   2.751
  943W        W 5007   9.922   9.559   9.283
  944W        W 5008   7.106   9.890   2.138
  945W        W 5009   5.621   5.969   2.947
  946W        W 5010  10.047   2.520   2.857
  947W        W 5011   8.390   2.946   0.298
  948W        W 5012   3.801   7.057  11.333
  949W        W 5013   6.094   6.556  10.122
  950W        W 5014   8.030   5.576   2.360
  951W        W 5015   5.209   7.673   2.050
  952W        W 5016   6.012   9.572   0.518
  953W        W 5017   9.814  10.461   3.842
  954W        W 5018   6.069   0.018  11.268
  955W        W 5019   6.531   4.013   0.024
  956W        W 5020   7.730   2.478   0.644
  957W        W 5021   1.869   4.798   3.563
  958W        W 5022   6.615   9.152   9.866
  959W        W 5023   1.390   0.556   2.951
  960W        W 5024   9.521   6.962  10.745
  961W        W 5025   9.157   3.027   2.292
  962W        W 5026   9.844   0.922   3.880
  963W        W 5027   0.628   4.719   8.703
  964W        W 5028   3.316   6.161  10.505
  965W        W 5029   6.052   7.097   3.670
  966W        W 5030   2.757   3.720   2.127
  967W        W 5031   3.566   6.488   2.205
  968W        W 5032   5.244   2.094   1.226
  969W        W 5033   3.391   4.999   0.787
  970W        W 5034   2.658   0.173   9.264
  971W        W 5035   4.595   4.582   1.942
  972W        W 5036  10.098   7.262   2.406
  973W        W 5037   7.099   8.311   8.573
  974W        W 5038   5.224   2.214   2.108
  975W        W 5039   1.209   5.244   2.915
  976W        W 5040   8.117   1.767   9.012
  977W        W 5041   6.678   5.432   9.479
  978W        W 5042   6.505   4.134   0.947
  979W        W 5043   4.984   1.421  10.194
  980W        W 5044   2.184   6.068   8.567
  981W        W 5045   0.922   6.825   2.813
  982W        W 5046   7.163   3.116   2.046
  983W        W 5047   7.472   6.601   0.997
  984W        W 5048   2.926   9.555  11.774
  985W        W 5049   0.729   2.345   2.161
  986W        W 5050   4.608   8.207   9.909
  987W        W 5051   2.446   9.364   3.175
  988W        W 5052   4.547   1.235   9.428
  989W        W 5053   3.872   3.670   3.588
  990W        W 5054   6.269   1.545   9.460
  991W        W 5055   4.742   6.539   4.174
  992W        W 5056   6.302   1.473   3.306
  993W        W 5057   9.510   4.134  11.344
  994W        W 5058   2.334   7.950   3.594
  995W        W 5059   1.626   5.540   1.863
  996W        W 5060   8.708   1.571   1.521
  997W        W 5061   1.290   9.472   9.245
  998W        W 5062   0.856   6.850   8.695
  999W        W 5063   2.944   1.464   2.750
 1000W        W 5064   5.612   9.501   9.935
 1001W        W 5065   0.553   1.798   1.358
 1002W        W 5066   5.535   6.966   0.953
 1003W        W 5067   5.505   4.864  10.853
 1004W        W 5068   1.754   9.978  10.832
 1005W        W 5069   3.790   4.943  11.616
 1006W        W 5070   0.029   6.211  10.889
 1007W        W 5071   8.369   2.793  11.425
 1008W        W 5072   6.789   8.505  11.572
 1009W        W 5073   1.323   0.539   1.163
 1010W        W 5074   0.917   7.310   2.648
 1011W        W 5075   1.229   0.600   1.687
 1012W        W 5076   5.204   5.611   9.433
 1013W        W 5077   7.655   4.711   8.732
 1014W        W 5078   3.760   4.542   2.447
 1015W        W 5079   9.554   9.741   9.613
 1016W        W 5080   5.837   3.271   3.919
 1017W        W 5081   9.083   3.112  11.016
 1018W        W 5082   8.176   1.739   1.274
 1019W        W 5083   0.714   9.902  11.778
 1020W        W 5084   8.688   8.995   0.498
 1021W        W 5085   6.940   7.977   9.359
 1022W        W 5086   9.081   2.611  10.903
 1023W        W 5087   7.592   0.975   8.947
 1024W        W 5088   4.089   4.708  10.270
 1025W        W 5089   4.512   8.944   1.650
 1026W        W 5090   3.549   0.009   0.189
 1027W        W 5091   6.754   6.109   1.283
 1028W        W 5092   7.674   1.765   2.323
 1029W        W 5093   7.945   1.936  10.009
 1030W        W 5094   5.970   4.562   3.821
 1031W        W 5095   2.828   6.017   0.563
 1032W        W 5096   4.907  10.497   0.409
 1033W        W 5097   1.889   6.118   8.984
 1034W        W 5098   8.951   9.397   0.806
 1035W        W 5099   6.495   8.907  11.535
 1036W        W 5100   8.656   0.212  10.389
 1037W        W 5101  10.032   2.631  10.122
 1038W        W 5102   1.282   2.382   2.987
 1039W        W 5103   2.001   7.630   2.658
 1040W        W 5104   4.230   9.951   0.156
 1041W        W 5105   0.253   8.610   9.954
 1042W        W 5106   9.424   6.576  11.673
 1043W        W 5107   2.083   7.615   8.704
 1044W        W 5108   7.486   3.148  11.818
 1045W        W 5109   4.070   6.615   0.440
 1046W        W 5110   4.099   6.615   0.952
 1047W        W 5111   8.437  10.049   0.759
 1048W        W 5112   5.080   6.720   3.844
 1049W        W 5113   6.508   3.504   0.063
 1050W        W 5114   0.277   3.718   2.231
 1051W        W 5115   0.695   6.443   9.023
 1052W        W 5116   9.071   5.013   0.361
 1053W        W 5117   9.632   3.180   2.296
 1054W        W 5118   3.453   4.657   9.120
 1055W        W 5119   9.720   7.286  10.390
 1056W        W 5120   6.788   4.053   8.479
 1057W        W 5121   1.247   4.119   9.927
 1058W        W 5122   4.240   4.692  10.760
 1059W        W 5123   8.136   9.555  10.889
 1060W        W 5124   4.465   6.899   9.350
 1061W        W 5125   9.771   9.864   2.163
 1062W        W 5126   7.411   4.672   0.281
 1063W        W 5127   8.562   3.780   0.923
 1064W        W 5128   0.069   1.953  10.703
 1065W        W 5129   4.375   5.241   1.012
 1066W        W 5130   9.293   8.826   9.899
 1067W        W 5131   5.857   0.390   9.122
 1068W        W 5132   9.925   2.201   9.287
 1069W        W 5133   4.069   7.864   9.347
 1070W        W 5134   6.556   2.796   1.941
 1071W        W 5135   3.613   1.411   3.522
 1072W        W 5136   1.703   1.660   9.100
 1073W        W 5137   5.993  10.415   1.171
 1074W        W 5138   9.990   6.132   9.627
 1075W        W 5139   2.770   4.740   3.022
 1076W        W 5140   9.009   0.960   1.685
 1077W        W 5141   2.731   5.506   0.260
 1078W        W 5142   5.891   4.857   1.978
 1079W        W 5143   2.655  10.213   0.207
 1080W        W 5144   5.594   9.756   3.241
 1081W        W 5145   0.014   2.318   0.436
 1082W        W 5146   5.710   1.906   2.544
 1083W        W 5147   5.999  10.085   0.461
 1084W        W 5148   2.640   2.691  11.270
 1085W        W 5149   4.843   8.590   1.471
 1086W        W 5150   8.101   8.086   3.408
 1087W        W 5151   0.795  10.299   3.311
 1088W        W 5152   5.605   5.951   9.478
 1089W        W 5153   2.872   7.890   0.971
 1090W        W 5154   0.283   2.630   3.293
 1091W        W 5155   6.581   1.188  11.518
 1092W        W 5156   5.978   0.844   0.945
 1093W        W 5157   7.913   7.796   0.690
 1094W        W 5158   1.826   5.515   1.381
 1095W        W 5159   2.701   3.396  11.739
 1096W        W 5160   1.372   6.457   3.517
 1097W        W 5161   3.332   8.397   2.119
 1098W        W 5162   6.613   6.691   0.884
 1099W        W 5163   3.300   8.676   1.035
 1100W        W 5164   7.422   0.254   2.885
 1101W        W 5165   0.506   3.380  11.828
 1102W        W 5166   3.794   8.806   2.765
 1103W        W 5167   2.759   4.320   1.023
 1104W        W 5168   6.016   3.676   0.473
 1105W        W 5169   2.323   8.128   0.381
 1106W        W 5170   9.953   6.334  10.312
 1107W        W 5171   9.806   8.970   9.954
 1108W        W 5172   1.656   3.872   2.355
 1109W        W 5173   2.791   9.501   3.517
 1110W        W 5174   9.896   5.474   1.909
 1111W        W 5175   2.171   7.369   9.150
 1112W        W 5176  10.495   1.133   9.866
 1113W        W 5177   3.139  10.261   1.940
 1114W        W 5178   7.016  10.352   1.245
 1115W        W 5179   0.421   9.338   1.006
 1116W        W 5180   4.513   0.484   2.997
 1117W        W 5181   3.404   3.550   0.849
 1118W        W 5182   7.202  10.354  10.530
 1119W        W 5183   5.072  10.483  11.908
 1120W        W 5184   4.797   9.974   9.358
 1121W        W 5185   7.235   8.844   0.812
 1122W        W 5186   5.399   5.777   9.901
 1123W        W 5187   9.335   9.108   2.980
 1124W        W 5188   3.525   3.099  10.084
 1125W        W 5189   1.277   8.181  10.155
 1126W        W 5190   4.104   4.182  10.876
 1127W        W 5191   9.423   3.243   2.770
 1128W        W 5192   5.720  10.026   9.845
 1129W        W 5193   4.616   9.441   1.511
 1130W        W 5194   9.208   8.647   8.896
 1131W        W 5195   3.423   1.805  11.757
 1132W        W 5196   3.499   6.225   3.193
 1133W        W 5197   0.029   4.061  11.327
 1134W        W 5198   6.504   6.126  10.991
 1135W        W 5199   5.596   8.771   1.504
 1136W        W 5200   1.306   6.954  10.520
 1137W        W 5201   4.750   1.687   9.569
 1138W        W 5202   4.548   9.585   9.552
 1139W        W 5203   6.021   1.052   9.455
 1140W        W 5204   9.658   6.706   2.691
 1141W        W 5205   6.684   7.945  10.381
 1142W        W 5206   9.939   2.603   9.609
 1143W        W 5207  10.384   4.716   1.145
 1144W        W 5208   4.321   2.253   2.520
 1145W        W 5209   3.841   9.818  10.871
 1146W        W 5210   7.787   7.019   2.815
 1147W        W 5211   9.021   7.916  10.129
 1148W        W 5212   3.240   7.285  11.684
 1149W        W 5213   7.507   7.374  10.958
 1150W        W 5214  10.450   3.258   9.226
 1151W        W 5215   4.026   6.542   2.440
 1152W        W 5216   3.275   6.230   1.371
 1153W        W 5217   5.541   5.337  11.752
 1154W        W 5218   3.705   4.582   9.904
 1155W        W 5219  10.257   9.355   1.563
 1156W        W 5220   1.271   7.603   1.187
 1157W        W 5221   0.667   1.967  10.890
 1158W        W 5222   9.073   0.398   3.499
 1159W        W 5223  10.356   6.153   9.961
 1160W        W 5224   0.810  10.256   9.577
 1161W        W 5225   9.883   8.588   0.413
 1162W        W 5226   6.062   9.449   1.447
 1163W        W 5227   0.862   1.645   0.979
 1164W        W 5228   0.356   3.696  11.027
 1165W        W 5229   8.127   8.702  11.217
 1166W        W 5230   0.349   7.863   1.439
 1167W        W 5231   4.749   8.612   0.967
 1168W        W 5232   4.693   5.146   0.272
 1169W        W 5233   5.655   2.129   1.852
 1170W        W 5234   5.439   6.477   0.378
 1171W        W 5235   9.298   9.636   0.539
 1172W        W 5236   2.809   8.098   9.009
 1173W        W 5237   3.557   9.384  10.815
 1174W        W 5238   7.658   2.681   9.021
 1175W        W 5239   0.391   6.671  10.406
 1176W        W 5240   9.390   3.924  10.879
 1177W        W 5241   9.738   0.873   2.237
 1178W        W 5242   9.098   4.454   1.276
 1179W        W 5243   8.461  10.000   9.883
 1180W        W 5244   3.754   4.562  10.874
 1181W        W 5245   7.256   0.298   2.403
 1182W        W 5246   2.105   0.282   0.131
 1183W        W 5247   7.594   5.173   0.246
 1184W        W 5248   8.075   0.837   0.937
 1185W        W 5249   6.400  10.286  11.580
 1186W        W 5250   4.992   5.703   8.963
 1187W        W 5251   8.166   0.733  10.863
 1188W        W 5252   0.677   2.388   1.647
 1189W        W 5253   6.495   5.079   9.955
 1190W        W 5254   5.627   3.127  11.408
 1191W        W 5255   9.781   2.577  10.567
 1192W        W 5256   8.319   2.613   3.071
 1193W        W 5257   3.148   8.828  11.261
 1194W        W 5258   4.149   7.990   9.831
 1195W        W 5259   6.028   2.788  11.454
 1196W        W 5260   9.830   5.306   2.376
 1197W        W 5261   2.624   2.375   9.734
 1198W        W 5262   3.642   0.364   2.481
 1199W        W 5263   4.572   3.321   3.103
 1200W        W 5264   0.219   7.925   2.328
 1201W        W 5265   4.238   5.466   3.216
 1202W        W 5266   3.387   5.479   2.699
 1203W        W 5267   3.820   7.443   9.520
 1204W        W 5268   3.897   5.815   7.988
 1205W        W 5269   0.794   3.569   9.770
 1206W        W 5270   9.849   6.287   2.371
 1207W        W 5271   1.673   0.314  11.374
 1208W        W 5272   9.566   3.660  11.945
 1209W        W 5273   2.742   8.795   3.206
 1210W        W 5274   5.148   8.574   2.384
 1211W        W 5275   8.868   4.578   8.637
 1212W        W 5276   2.187   4.175   9.563
 1213W        W 5277   9.835   3.060  10.352
 1214W        W 5278   9.726   2.650   9.149
 1215W        W 5279   8.485   8.595   0.772
 1216W        W 5280   2.201   3.980   3.529
 1217W        W 5281   2.433   7.494   9.579
 1218W        W 5282   3.628   9.000  11.196
 1219W        W 5283   4.361   3.978   2.280
 1220W        W 5284   5.214   7.169  11.822
 1221W        W 5285   0.773   3.277   1.082
 1222W        W 5286   1.436   2.591  11.107
 1223W        W 5287   2.253   6.993  11.488
 1224W        W 5288   5.695   6.412   9.359
 1225W        W 5289   4.316   3.136  10.960
 1226W        W 5290   7.641   5.839  11.797
 1227W        W 5291   1.647   5.363   9.607
 1228W        W 5292   4.230   3.140   9.439
 1229W        W 5293   0.401   2.258   2.895
 1230W        W 5294   0.374   6.395   1.625
 1231W        W 5295   1.390  10.227   8.967
 1232W        W 5296   7.097   4.714  11.013
 1233W        W 5297   9.708   3.651  11.446
 1234W        W 5298   4.456   5.741   8.792
 1235W        W 5299   8.845   8.972   9.127
 1236W        W 5300   5.010   1.341   8.664
 1237W        W 5301   5.506  10.355  11.702
 1238W        W 5302   8.050   2.794   1.204
 1239W        W 5303   9.388  10.495   0.022
 1240W        W 5304   4.177   8.885   9.060
 1241W        W 5305   2.145   1.809   2.482
 1242W        W 5306  10.036   0.505   2.010
 1243W        W 5307   3.469   8.114   9.875
 1244W        W 5308   6.430   6.793   1.786
 1245W        W 5309   6.175   3.255  10.202
 1246W        W 5310   3.292   8.581   0.127
 1247W        W 5311   0.584   9.893   8.437
 1248W        W 5312   8.825   2.750   8.600
 1249W        W 5313   5.528   6.491   4.007
 1250W        W 5314   9.541   1.677   8.972
 1251W        W 5315   9.599   4.289   9.466
 1252W        W 5316   4.546   4.206   2.741
 1253W        W 5317   5.612   5.168   0.222
 1254W        W 5318   1.601   9.107  11.278
 1255W        W 5319   9.282   7.675  11.459
 1256W        W 5320   9.915   0.794   0.719
 1257W        W 5321   3.737   6.003   1.680
 1258W        W 5322   0.336   2.110   3.415
 1259W        W 5323   5.606  10.285  11.198
 1260W        W 5324   5.992  10.411   8.787
 1261W        W 5325   7.813   2.271   9.504
 1262W        W 5326   4.610   1.205   2.490
 1263W        W 5327   6.446   4.408   9.406
 1264W        W 5328   9.613   4.752  10.767
 1265W        W 5329   3.366   5.217  10.760
 1266W        W 5330   4.524   6.416   3.179
 1267W        W 5331   2.184  10.413   0.461
 1268W        W 5332   9.805   5.652   9.432
 1269W        W 5333   4.268   2.180   2.004
 1270W        W 5334  10.330   6.841   3.204
 1271W        W 5335   7.049   1.269  11.251
 1272W        W 5336   7.423   8.283  10.753
 1273W        W 5337   9.698  10.094   9.262
 1274W        W 5338   6.535   2.818   8.970
 1275W        W 5339   0.009  10.370   2.578
 1276W        W 5340   4.506   2.311   9.846
 1277W        W 5341   6.595   2.190   3.311
 1278W        W 5342   9.914   1.294   2.586
 1279W        W 5343   2.399   5.954   9.492
 1280W        W 5344   5.736   3.771   3.139
 1281W        W 5345   8.162   1.740   3.444
 1282W        W 5346   2.720   1.473   2.301
 1283W        W 5347   1.848   2.590  10.041
 1284W        W 5348   8.950   3.662   2.841
 1285W        W 5349   1.213   5.591  11.875
 1286W        W 5350   0.917   1.294  11.225
 1287W        W 5351   0.344   4.486   0.963
 1288W        W 5352   1.222   3.124  10.324
 1289W        W 5353   0.006   4.574   3.047
 1290W        W 5354   7.023   3.575   3.319
 1291W        W 5355   3.739   0.938   9.380
 1292W        W 5356   4.854   1.857  10.578
 1293W        W 5357   5.594  10.393   0.796
 1294W        W 5358   3.630   6.200  10.930
 1295W        W 5359  10.304   8.236   2.224
 1296W        W 5360   4.070   4.703  11.247
 1297W        W 5361  10.284   3.480   2.967
 1298W        W 5362   1.563  10.148  10.385
 1299W        W 5363   8.043  10.370   1.327
 1300W        W 5364   4.747   2.065   2.758
 1301W        W 5365   7.451   4.527   1.827
 1302W        W 5366   3.136   3.799  10.596
 1303W        W 5367   5.173   5.143   0.486
 1304W        W 5368   4.745   4.513  11.622
 1305W        W 5369   8.274   1.354   2.235
 1306W        W 5370   4.679   8.506   0.455
 1307W        W 5371   5.180   1.579   1.281
 1308W        W 5372  10.479   4.787   3.493
 1309W        W 5373   1.355   9.387  10.089
 1310W        W 5374   5.490   3.813  10.725
 1311W        W 5375   3.811  10.310   9.833
 1312W        W 5376   9.215   4.475   0.108
 1313W        W 5377   5.034   4.070   1.148
 1314W        W 5378   4.910   5.591   1.207
 1315W        W 5379   7.527   1.776  10.852
 1316W        W 5380   2.307   9.440   9.146
 1317W        W 5381   2.665   7.959   3.218
 1318W        W 5382   7.466   7.102   8.848
 1319W        W 5383   3.790   6.262   0.719
 1320W        W 5384   0.568   0.341   0.268
 1321W        W 5385   3.140   3.307   2.183
 1322W        W 5386   4.908   2.071   0.404
 1323W        W 5387   6.886   2.211   8.926
 1324W        W 5388   6.497  10.194   2.387
 1325W        W 5389  10.343   6.590   9.575
 1326W        W 5390   4.583   5.032  10.101
 1327W        W 5391   9.495   0.554   0.908
 1328W        W 5392   7.509   3.305   3.230
 1329W        W 5393   3.358   5.905   4.049
 1330W        W 5394   0.031   1.835   0.592
 1331W        W 5395   8.102   1.717  11.045
 1332W        W 5396   7.878   3.462  11.131
 1333W        W 5397   4.799   2.011  11.082
 1334W        W 5398   4.482   5.702   0.219
 1335W        W 5399   8.799   6.073   2.767
 1336W        W 5400   4.018   3.624   0.264
 1337W        W 5401   4.169   2.723   0.696
 1338W        W 5402   7.457   9.860  10.601
 1339W        W 5403   9.827   6.608   3.590
 1340W        W 5404   8.540   1.904   9.258
 1341W        W 5405   3.154   7.859   3.357
 1342W        W 5406   7.484   6.082  10.472
 1343W        W 5407   0.245   2.232   1.857
 1344W        W 5408   3.127   8.504   9.836
 1345W        W 5409   9.815   9.836  10.112
 1346W        W 5410   5.950   1.107   3.417
 1347W        W 5411   3.857   2.676   1.206
 1348W        W 5412   7.309   9.001  10.352
 1349W        W 5413   9.806  10.338   1.932
 1350W        W 5414   9.793   0.356   9.227
 1351W        W 5415   5.956   2.178   9.683
 1352W        W 5416   5.641   0.887   8.676
 1353W        W 5417   0.433   6.787   9.920
 1354W        W 5418   2.551   5.603   0.732
 1355W        W 5419   1.217   3.216   9.788
 1356W        W 5420   0.775   5.702  10.904
 1357W        W 5421   0.355   3.408   0.780
 1358W        W 5422   7.956   4.800   2.903
 1359W        W 5423   7.010   6.982   9.033
 1360W        W 5424   5.579   9.326   0.403
 1361W        W 5425   2.699   3.874   0.738
 1362W        W 5426   8.316   8.530  11.706
 1363W        W 5427   2.465   6.868   0.079
 1364W        W 5428   7.739   8.635   0.763
 1365W        W 5429   1.773   9.873   2.682
 1366W        W 5430   5.062   4.180  10.763
 1367W        W 5431   0.359   5.559   3.305
 1368W        W 5432   7.274   0.293   1.058
 1369W        W 5433   7.533   2.161   2.714
 1370W        W 5434   5.684   2.472  10.007
 1371W        W 5435   0.324   4.186  10.925
 1372W        W 5436   6.959   3.728   1.718
 1373W        W 5437   3.843   9.629   0.169
 1374W        W 5438   3.254   9.318   9.487
 1375W        W 5439   8.147  10.484  11.877
 1376W        W 5440   3.875   5.765   0.671
 1377W        W 5441   8.374   0.213   1.523
 1378W        W 5442   8.853   2.316   9.365
 1379W        W 5443   1.905   2.809  10.898
 1380W        W 5444   7.091   6.607   9.863
 1381W        W 5445   2.448   3.758   1.163
 1382W        W 5446   6.076   7.036   1.496
 1383W        W 5447   1.811   7.448   1.286
 1384W        W 5448   5.961   6.119  10.391
 1385W        W 5449   9.321   1.471   9.370
 1386W        W 5450   9.464   4.223   1.737
 1387W        W 5451   8.912   8.587  11.087
 1388W        W 5452   8.918   4.266   3.397
 1389W        W 5453   3.683   7.182   3.487
 1390W        W 5454   3.140   4.028   1.830
 1391W        W 5455   2.814   7.898  11.511
 1392W        W 5456   3.396   8.031   0.194
 1393W        W 5457   3.831   5.059   8.568
 1394W        W 5458   0.471   7.354   0.563
 1395W        W 5459   2.847   7.603  10.397
 1396W        W 5460   5.960   3.566  10.802
 1397W        W 5461   2.199   6.920   9.383
 1398W        W 5462   5.050   5.494   2.641
 1399W        W 5463   9.348   1.019   0.421
 1400W        W 5464   4.981   8.108  10.807
 1401W        W 5465   0.361   8.180   3.441
 1402W        W 5466   4.637   0.829   0.150
 1403W        W 5467   6.584   4.211   2.798
 1404W        W 5468   0.021   7.068   9.774
 1405W        W 5469   1.289   3.554  10.604
 1406W        W 5470   2.615   5.557   1.726
 1407W        W 5471   0.684   9.847  10.318
 1408W        W 5472   3.106   9.688   2.279
 1409W        W 5473   1.744   8.014   8.819
 1410W        W 5474   8.557   9.457  11.333
 1411W        W 5475   5.926   3.078  10.613
 1412W        W 5476   6.995  10.447   9.170
 1413W        W 5477   0.689   2.252  10.018
 1414W        W 5478   6.067   7.323   3.059
 1415W        W 5479   5.473   6.081  10.295
 1416W        W 5480   5.504   9.421  11.433
 1417W        W 5481   4.207   4.468   3.205
 1418W        W 5482   7.190   5.182   2.374
 1419W        W 5483   3.428   7.030   2.824
 1420W        W 5484   1.864   5.839   3.819
 1421W        W 5485   8.797   6.873  10.242
 1422W        W 5486   1.270   7.642  10.048
 1423W        W 5487   3.975   8.756  10.275
 1424W        W 5488   5.075  10.071   1.382
 1425W        W 5489   6.979   5.713   8.640
 1426W        W 5490   2.877  10.390   9.661
 1427W        W 5491   6.774   2.937  10.783
 1428W        W 5492   3.026  10.293   9.187
 1429W        W 5493   8.093   2.904   9.917
 1430W        W 5494   0.930   5.625   3.461
 1431W        W 5495   3.414   9.779   9.340
 1432W        W 5496   1.722   1.698   8.541
 1433W        W 5497   9.861   4.728   9.528
 1434W        W 5498   1.192   3.456   0.740
 1435W        W 5499   9.875   5.394   3.315
 1436W        W 5500   7.855   2.438  11.411
 1437W        W 5501   7.106   5.753   9.546
 1438W        W 5502   4.198   5.281   1.970
 1439W        W 5503   5.971   4.763  10.685
 1440W        W 5504   8.487   2.875   0.910
 1441W        W 5505   0.910   6.542   3.255
 1442W        W 5506   9.530   1.337  10.256
 1443W        W 5507   3.393   4.352   0.306
 1444W        W 5508   9.374   4.990   2.438
 1445W        W 5509   9.316   3.280  11.451
 1446W        W 5510   9.504   4.692  10.263
 1447W        W 5511   2.847   8.368   2.271
 1448W        W 5512   0.433   5.887   1.519
 1449W        W 5513   8.557   8.265   3.560
 1450W        W 5514   5.345   1.832   3.517
 1451W        W 5515   7.642   5.793   9.610
 1452W        W 5516   3.537   8.001  10.912
 1453W        W 5517   3.165   6.250   2.394
 1454W        W 5518   1.401   0.944  10.389
 1455W        W 5519   5.165   5.191  11.064
 1456W        W 5520   5.717   4.389  11.966
 1457W        W 5521   6.960   6.478   9.014
 1458W        W 5522   7.035   2.846  10.267
 1459W        W 5523   7.945   8.608   1.630
 1460W        W 5524   9.776   9.794  11.918
 1461W        W 5525   1.733   1.140  11.693
 1462W        W 5526  10.369   4.501   0.699
 1463W        W 5527   5.650   4.228   0.481
 1464W        W 5528   9.796   3.041   3.488
 1465W        W 5529   6.030   1.281   1.194
 1466W        W 5530   0.249   0.963   2.275
 1467W        W 5531   3.612   0.757  10.221
 1468W        W 5532   4.429  10.490   1.529
 1469W        W 5533   8.855   3.285   3.198
 1470W        W 5534   4.244   0.830   9.455
 1471W        W 5535   6.468   2.479   0.400
 1472W        W 5536   6.564   0.308  10.929
 1473W        W 5537   2.725  10.326  11.151
 1474W        W 5538   5.294   9.748   1.719
 1475W        W 5539   3.272   1.375   1.186
 1476W        W 5540   2.281   0.045  11.022
 1477W        W 5541   1.363   5.739   1.466
 1478W        W 5542   7.944   0.301  11.540
 1479W        W 5543   9.080   3.739   0.170
 1480W        W 5544   1.731   1.174   9.257
 1481W        W 5545   7.143   1.282   1.217
 1482W        W 5546   9.804   3.304   1.287
 1483W        W 5547   3.595   5.082   3.109
 1484W        W 5548   8.527   5.214   1.245
 1485W        W 5549   8.354   3.639   9.417
 1486W        W 5550   2.690   8.145  10.365
 1487W        W 5551   3.621   7.474   0.715
 1488W        W 5552   6.006   5.125   9.307
 1489W        W 5553   8.355   9.266   0.232
 1490W        W 5554   7.064   9.414   1.454
 1491W        W 5555   6.187   7.554   9.318
 1492W        W 5556   8.110   4.013   0.816
 1493W        W 5557   8.190   9.947   9.452
 1494W        W 5558   0.820   0.584   1.018
 1495W        W 5559   7.317   5.082   0.655
 1496W        W 5560  10.460   1.345  11.368
 1497W        W 5561   3.813   9.293  10.359
 1498W        W 5562   2.763   7.398   2.297
 1499W        W 5563   8.978   3.166   0.922
 1500W        W 5564   4.024   7.457  11.989
 1501W        W 5565   6.756   7.754  11.041
 1502W        W 5566   9.501   4.063   3.419
 1503W        W 5567   1.641   5.148   3.229
 1504W        W 5568   4.659   9.982   9.856
 1505W        W 5569   0.947   8.198   0.398
 1506W        W 5570   9.945   3.638   1.673
 1507W        W 5571   8.820   6.108  11.353
 1508W        W 5572   5.133   8.003   3.210
 1509W        W 5573   1.271   2.107  11.400
 1510W        W 5574   6.476   6.492   2.689
 1511W        W 5575   0.657   5.669   9.059
 1512W        W 5576   1.815   4.386   9.277
 1513W        W 5577   8.528   4.716   0.993
 1514W        W 5578   0.888   8.956  10.859
 1515W        W 5579   6.227   7.955   8.566
 1516W        W 5580   6.009   9.018   1.714
 1517W        W 5581   8.158   4.992   9.551
 1518W        W 5582   2.754   4.233   8.867
 1519W        W 5583   9.495   9.400  10.630
 1520W        W 5584   3.742   7.643   3.229
 1521W        W 5585   0.855   6.023  11.331
 1522W        W 5586   9.937   2.413   1.171
 1523W        W 5587   8.593   1.465   1.058
 1524W        W 5588   3.261   2.915   0.494
 1525W        W 5589   4.078   4.972   3.278
 1526W        W 5590   0.295   7.810   8.878
 1527W        W 5591   3.783   0.885   2.239
 1528W        W 5592  10.263   0.821  11.428
 1529W        W 5593  10.237   0.964   2.285
 1530W        W 5594   3.404   4.246   2.202
 1531W        W 5595   0.809   7.387   9.434
 1532W        W 5596   5.761   6.321  11.642
 1533W        W 5597   1.941   1.549   0.221
 1534W        W 5598   2.838   1.019   3.017
 1535W        W 5599   1.932   2.205   1.438
 1536W        W 5600   2.568   8.002   9.455
 1537W        W 5601   4.199   2.760   9.920
 1538W        W 5602   6.971   7.904   1.040
 1539W        W 5603   6.698  10.027   8.976
 1540W        W 5604   3.197   6.670   1.051
 1541W        W 5605   4.272   7.524   2.056
 1542W        W 5606   6.018   5.754   2.209
 1543W        W 5607   8.832   7.421  11.501
 1544W        W 5608   3.332   0.413   0.665
 1545W        W 5609  10.213   0.456  11.800
 1546W        W 5610   2.451  10.440  10.008
 1547W        W 5611   7.719   6.572   3.354
 1548W        W 5612   9.031   9.852   1.470
 1549W        W 5613   5.139   9.586  10.735
 1550W        W 5614   7.880   5.713  11.205
 1551W        W 5615  10.350   1.654   1.562
 1552W        W 5616   1.750   3.552   0.860
 1553W        W 5617   4.957   5.079   3.392
 1554W        W 5618   3.784   3.654   2.629
 1555W        W 5619   4.187   4.201   0.918
 1556W        W 5620   3.670   0.313  10.558
 1557W        W 5621   6.707   0.643   3.221
 1558W        W 5622   0.759   4.767   0.317
 1559W        W 5623   6.832   2.682   3.278
 1560W        W 5624   0.945   1.734   9.388
 1561W        W 5625   7.734   8.969   8.576
 1562W        W 5626   8.188   3.173   9.259
 1563W        W 5627   5.475   8.011  10.823
 1564W        W 5628   3.578   3.654  10.889
 1565W        W 5629   5.052   7.835   9.910
 1566W        W 5630   3.269   6.202   0.824
 1567W        W 5631   1.126   9.443   2.266
 1568W        W 5632   2.568   8.064   2.730
 1569W        W 5633   5.097  10.405   9.285
 1570W        W 5634   8.380   4.466   2.906
 1571W        W 5635   9.995   4.157   1.472
 1572W        W 5636   2.139   2.733   2.586
 1573W        W 5637   9.235   0.296  11.503
 1574W        W 5638   9.854   7.966  10.614
 1575W        W 5639   5.096   7.498   8.235
 1576W        W 5640   1.622   9.879   9.954
 1577W        W 5641   1.227   5.668   9.550
 1578W        W 5642   6.552   6.001  11.501
 1579W        W 5643   4.503   4.483   0.576
 1580W        W 5644   1.215   4.747   9.380
 1581W        W 5645   8.632   6.268   1.252
 1582W        W 5646   3.567   9.997   1.410
 1583W        W 5647  10.488   2.823  11.133
 1584W        W 5648   6.149   4.666   2.943
 1585W        W 5649  10.402   9.467   1.078
 1586W        W 5650   9.841   9.285  11.935
 1587W        W 5651   4.969   3.705   8.531
 1588W        W 5652   2.749   0.650   9.444
 1589W        W 5653   7.938   5.410  10.761
 1590W        W 5654   5.137   2.349   0.786
 1591W        W 5655   8.285   7.819   2.333
 1592W        W 5656   1.898   2.355  11.163
 1593W        W 5657   3.207   3.787   2.390
 1594W        W 5658   7.043   8.526   2.747
 1595W        W 5659   7.555   3.346   2.715
 1596W        W 5660   1.381   4.658   3.452
 1597W        W 5661   3.167   1.971   2.971
 1598W        W 5662   8.301  10.303   1.805
 1599W        W 5663   2.382   2.459   1.424
 1600W        W 5664   3.461   6.911   1.958
 1601W        W 5665   7.682   0.007   2.518
 1602W        W 5666   1.336   6.960   8.982
 1603W        W 5667   7.214  10.315   2.639
 1604W        W 5668   6.536   2.223   2.295
 1605W        W 5669   1.838   9.138   2.315
 1606W        W 5670   3.672   7.229  10.053
 1607W        W 5671   2.835   2.614   1.912
 1608W        W 5672   4.904   0.252   2.597
 1609W        W 5673   7.717   1.875   3.220
 1610W        W 5674   2.946   3.601   1.097
 1611W        W 5675   3.567   2.617   0.197
 1612W        W 5676   6.737   0.150   1.566
 1613W        W 5677   8.425   4.597   2.001
 1614W        W 5678   7.965   6.155   3.096
 1615W        W 5679   1.060   9.961   9.258
 1616W        W 5680   8.539   9.251  10.434
 1617W        W 5681   8.079   0.516   9.691
 1618W        W 5682   0.229  10.411   1.607
 1619W        W 5683   8.441   0.720   9.074
 1620W        W 5684   4.734   6.440   9.447
 1621W        W 5685   3.204   9.113  11.975
 1622W        W 5686  10.054   9.940   9.580
 1623W        W 5687  10.080   4.735  10.947
 1624W        W 5688   2.164   1.672  11.721
 1625W        W 5689   1.065   0.785  11.172
 1626W        W 5690   8.884   8.005   0.154
 1627W        W 5691   3.901   5.134   0.810
 1628W        W 5692   5.565   5.883   1.017
 1629W        W 5693  10.289   8.860   9.755
 1630W        W 5694   0.213   7.910   9.371
 1631W        W 5695   6.223   6.498   3.168
 1632W        W 5696   3.180   6.063   3.575
 1633W        W 5697   9.514   2.955   9.548
 1634W        W 5698   6.452   1.857   0.477
 1635W        W 5699   0.905   1.307   2.835
 1636W        W 5700   1.698   1.514   2.290
 1637W        W 5701   5.290   7.511   9.261
 1638W        W 5702   8.837   9.986  10.741
 1639W        W 5703   8.241   7.862   0.299
 1640W        W 5704   1.407   1.966   9.498
 1641W        W 5705   4.154   9.947   9.999
 1642W        W 5706   4.943   6.491   1.459
 1643W        W 5707   2.018   8.010   0.945
 1644W        W 5708   1.309   0.759   9.054
 1645W        W 5709   6.967   0.416  10.007
 1646W        W 5710   7.222   1.831   3.356
 1647W        W 5711   3.638   1.742   0.217
 1648W        W 5712   3.304   3.660   2.882
 1649W        W 5713   2.115   3.845   0.169
 1650W        W 5714   9.448   3.227   9.998
 1651W        W 5715   8.281   6.282  10.809
 1652W        W 5716   6.646   4.993   0.438
 1653W        W 5717   1.080   5.161  11.412
 1654W        W 5718   0.469   1.314  10.017
 1655W        W 5719   9.837   7.690   2.683
 1656W        W 5720  10.481   6.946   2.284
 1657W        W 5721   4.234   5.137  11.025
 1658W        W 5722   3.096   8.209  11.819
 1659W        W 5723   1.035   9.997   0.173
 1660W        W 5724   9.607   6.232   9.948
 1661W        W 5725   8.716   6.043   2.247
 1662W        W 5726   7.488   2.368   3.220
 1663W        W 5727   4.110   0.321   2.273
 1664W        W 5728   1.944   1.716  10.645
 1665W        W 5729   1.740   4.057  11.820
 1666W        W 5730   0.490   2.688  10.198
 1667W        W 5731   6.942   2.608   9.249
 1668W        W 5732   6.974   5.863   0.870
 1669W        W 5733   6.216   0.916  11.935
 1670W        W 5734   2.957   5.591   2.947
 1671W        W 5735  10.346   3.709   1.963
 1672W        W 5736   9.188   3.759  11.342
 1673W        W 5737   6.225   4.016   3.134
 1674W        W 5738   6.282  10.101   0.872
 1675W        W 5739   0.672   0.878   1.407
 1676W        W 5740   8.765   4.622   0.318
 1677W        W 5741   4.575   4.775  11.232
 1678W        W 5742   1.431   1.872  10.494
 1679W        W 5743   5.797   9.853   1.747
 1680W        W 5744   5.140   8.564  11.583
 1681W        W 5745   4.066   7.510   0.972
 1682W        W 5746   4.686   5.558   2.978
 1683W        W 5747   4.570   0.344   2.044
 1684W        W 5748   9.454   1.174   8.941
 1685W        W 5749  10.213   1.860  11.060
 1686W        W 5750   6.610   7.607   8.511
 1687W        W 5751   7.929   6.042   2.612
 1688W        W 5752   5.017   3.346   8.963
 1689W        W 5753   3.679   6.350  11.765
 1690W        W 5754   7.893   5.930  10.720
 1691W        W 5755   3.810   5.936   2.686
 1692W        W 5756   4.225   5.181  11.555
 1693W        W 5757   6.564   5.707   3.372
 1694W        W 5758   2.998   4.706   8.930
 1695W        W 5759   2.677   3.766   2.654
 1696W        W 5760   0.877   2.756   3.224
 1697W        W 5761   6.013   9.151   0.196
 1698W        W 5762   5.524   8.930   1.983
 1699W        W 5763   7.016   6.081  11.302
 1700W        W 5764   1.355   9.127  11.746
 1701W        W 5765   3.431   8.013   2.945
 1702W        W 5766   2.643   4.079   9.354
 1703W        W 5767   5.049   3.610   3.760
 1704W        W 5768   7.083   2.828  11.844
 1705W        W 5769   8.170   4.159   1.320
 1706W        W 5770   5.169   3.289  11.239
 1707W        W 5771   5.653   1.867   1.403
 1708W        W 5772   4.030   3.226   1.886
 1709W        W 5773   7.393   0.799   2.126
 1710W        W 5774   7.029   1.432  11.721
 1711W        W 5775   8.001   4.086   2.934
 1712W        W 5776   5.249   1.690   0.509
 1713W        W 5777   9.371   0.834   3.600
 1714W        W 5778   8.360   8.857   1.386
 1715W        W 5779  10.117   7.129  10.084
 1716W        W 5780   0.415   2.253  10.469
 1717W        W 5781   4.041   1.986   3.294
 1718W        W 5782   3.044   1.683   1.975
 1719W        W 5783   8.413   5.981  10.422
 1720W        W 5784   2.248   0.893   9.454
 1721W        W 5785   0.421   3.885  11.888
 1722W        W 5786  10.011   1.753   2.360
 1723W        W 5787   4.201   9.617  10.395
 1724W        W 5788   5.235   6.632   9.467
 1725W        W 5789   9.116   1.305   3.619
 1726W        W 5790   5.401   5.567   1.378
 1727W        W 5791   7.490   6.219   9.366
 1728W        W 5792   5.204   4.791   0.858
 1729W        W 5793   1.715   9.417  11.935
 1730W        W 5794   2.836   8.841   0.209
 1731W        W 5795   0.294   5.007   3.125
 1732W        W 5796   8.907   4.601   1.710
 1733W        W 5797   4.763  10.342   2.965
 1734W        W 5798   5.702   4.520  11.184
 1735W        W 5799   7.708  10.423  10.436
 1736W        W 5800   8.150   6.759  11.561
 1737W        W 5801   0.462   7.240   0.049
 1738W        W 5802   7.427   4.814   9.460
 1739W        W 5803   5.996   7.877  10.122
 1740W        W 5804   0.111   7.497  10.506
 1741W        W 5805   7.973   9.252   9.616
 1742W        W 5806   6.268   7.023  10.038
 1743W        W 5807   8.592   5.125   0.359
 1744W        W 5808   9.396   4.684   0.528
 1745W        W 5809   5.528   4.788   2.328
 1746W        W 5810   5.584   3.630  11.253
 1747W        W 5811   8.013   8.819   9.908
 1748W        W 5812   9.457   0.354   0.437
 1749W        W 5813   8.985   7.224   9.394
 1750W        W 5814   8.889   8.065   9.651
 1751W        W 5815   7.644   5.586  10.391
 1752W        W 5816   5.055   1.263   2.860
 1753W        W 5817   2.194   0.769   0.292
 1754W        W 5818   3.611   3.529   9.835
 1755W        W 5819  10.315   6.052   1.981
 1756W        W 5820   4.257   3.685   0.973
 1757W        W 5821   9.349   7.453   9.082
 1758W        W 5822   2.177   3.785   1.606
 1759W        W 5823   9.046   6.226  11.820
 1760W        W 5824   4.723   1.313   3.321
 1761W        W 5825  10.454   1.866   2.115
 1762W        W 5826   9.712   5.134  10.447
 1763W        W 5827   1.493   1.696   9.998
 1764W        W 5828   1.179   3.308   3.336
 1765W        W 5829   4.696   9.834   0.304
 1766W        W 5830  10.024   8.516   1.431
 1767W        W 5831   2.181   5.040  10.719
 1768W        W 5832   9.561   2.200   8.925
 1769W        W 5833   4.784   7.637  10.727
 1770W        W 5834   8.206   5.374  11.412
 1771W        W 5835   6.930   0.366   2.832
 1772W        W 5836   7.070   9.837   1.183
 1773W        W 5837   2.952   8.360  11.339
 1774W        W 5838   3.299   1.049   3.329
 1775W        W 5839   6.555   5.737   9.056
 1776W        W 5840   7.870   4.530   9.558
 1777W        W 5841   4.271   4.055   0.412
 1778W        W 5842   9.639   0.326   1.725
 1779W        W 5843   9.597   7.912   3.137
 1780W        W 5844   2.218   6.427   2.067
 1781W        W 5845   9.986   6.851  10.503
 1782W        W 5846   2.655   0.781   1.695
 1783W        W 5847   8.321   2.366   9.242
 1784W        W 5848  10.125   7.461  11.785
 1785W        W 5849   7.542   4.386   9.185
 1786W        W 5850   0.435   3.654   3.197
 1787W        W 5851   7.917   7.365   8.749
 1788W        W 5852   1.056   8.358   0.933
 1789W        W 5853   0.840   1.628   2.429
 1790W        W 5854   0.330   1.402   0.733
 1791W        W 5855   9.424   0.797   1.411
 1792W        W 5856   0.484   4.796  11.877
 1793W        W 5857   6.147   2.735   9.969
 1794W        W 5858   6.634   0.917   9.094
 1795W        W 5859   7.242   8.333   9.528
 1796W        W 5860   4.563   9.492  10.055
 1797W        W 5861   7.083   3.699   8.734
 1798W        W 5862   0.847   7.076   0.349
 1799W        W 5863   6.424   8.743   3.414
 1800W        W 5864   8.047  10.418   3.301
 1801W        W 5865   8.317   3.742  11.030
 1802W        W 5866  10.171   6.614   2.728
 1803W        W 5867   7.386   5.716  11.368
 1804W        W 5868   6.004   5.641  10.826
 1805W        W 5869   1.655   7.360   9.903
 1806W        W 5870   3.838   2.717   1.751
 1807W        W 5871   2.121   0.089   1.390
 1808W        W 5872   8.401   7.462   1.988
 1809W        W 5873   4.241   4.951   2.333
 1810W        W 5874   8.832   2.121  10.379
 1811W        W 5875   4.697   5.494   0.712
 1812W        W 5876   4.653   7.879   0.435
 1813W        W 5877   7.440   2.728  11.470
 1814W        W 5878   9.130   7.070  11.744
 1815W        W 5879   0.006   7.057   2.777
 1816W        W 5880   6.501   4.928   9.480
 1817W        W 5881   6.022   5.232  10.479
 1818W        W 5882   1.610   9.631  10.470
 1819W        W 5883   0.215   9.010  10.360
 1820W        W 5884   9.954   9.457   9.788
 1821W        W 5885   2.845   4.716  11.171
 1822W        W 5886   5.408   4.093  11.164
 1823W        W 5887  10.399   0.185   3.456
 1824W        W 5888   3.663   2.816   2.787
 1825W        W 5889   2.372   3.638  11.153
 1826W        W 5890   4.198   7.059   1.228
 1827W        W 5891   6.981   5.424   1.873
 1828W        W 5892   5.984   9.459   9.117
 1829W        W 5893   1.182   6.511   9.167
 1830W        W 5894   4.659   4.049   0.786
 1831W        W 5895  10.228   8.816  11.257
 1832W        W 5896   1.227   1.832   2.156
 1833W        W 5897  10.008   0.964   9.823
 1834W        W 5898   7.114   0.843   2.962
 1835W        W 5899   0.178   0.795   1.397
 1836W        W 5900   2.902   5.787   9.853
 1837W        W 5901   8.088   7.751   1.743
 1838W        W 5902   2.199   9.814   2.954
 1839W        W 5903   0.268   2.591  11.537
 1840W        W 5904   2.976   5.223  11.318
 1841W        W 5905   0.260   5.226  11.694
 1842W        W 5906   2.768   3.184   1.337
 1843W        W 5907   6.736   6.527   3.148
 1844W        W 5908   7.860   5.796   0.941
 1845W        W 5909   7.548   4.665  11.280
 1846W        W 5910   0.255   0.929  11.460
 1847W        W 5911   1.499   1.851   3.647
 1848W        W 5912   8.524   6.374   9.422
 1849W        W 5913   5.145   4.262   0.671
 1850W        W 5914   5.750  10.451   2.898
 1851W        W 5915   5.675   2.879   1.435
 1852W        W 5916   0.217  10.063  11.866
 1853W        W 5917   2.732   2.332   0.789
 1854W        W 5918   4.498   0.271  10.903
 1855W        W 5919   3.403   9.469   2.948
 1856W        W 5920   9.984   9.376  10.300
 1857W        W 5921   9.044   9.391   9.997
 1858W        W 5922   3.622   4.527  11.404
 1859W        W 5923   1.833   1.207   1.895
 1860W        W 5924   6.750   5.048   8.317
 1861W        W 5925   8.551   9.513   9.997
 1862W        W 5926   9.423   1.472   0.206
 1863W        W 5927   6.090   5.434   0.815
 1864W        W 5928   9.228   0.440   2.697
 1865W        W 5929   2.917   5.487  10.825
 1866W        W 5930   4.127   3.607  10.864
 1867W        W 5931   1.460  10.382   2.392
 1868W        W 5932   4.992   2.717  10.556
 1869W        W 5933   4.059   1.284   9.633
 1870W        W 5934   1.776   4.781  11.102
 1871W        W 5935   9.368  10.159   2.273
 1872W        W 5936   3.230   7.525   1.021
 1873W        W 5937   5.623   0.756  10.238
 1874W        W 5938   3.294   2.718   9.804
 1875W        W 5939   3.137   9.112   8.548
 1876W        W 5940   9.930   0.202  10.811
 1877W        W 5941   5.598   5.508   0.654
 1878W        W 5942   2.282   6.918  10.470
 1879W        W 5943   5.791   3.999  10.345
 1880W        W 5944   8.582  10.272  11.695
 1881W        W 5945   3.735   5.050  10.105
 1882W        W 5946   1.930   3.364   0.365
 1883W        W 5947   6.486   3.854   0.505
 1884W        W 5948   8.904   0.181  11.903
 1885W        W 5949   6.434   6.315   9.157
 1886W        W 5950   8.291   4.705   0.505
 1887W        W 5951   6.125   2.338   3.135
 1888W        W 5952   4.532   6.651  11.661
 1889W        W 5953   9.165   1.924  11.984
 1890W        W 5954   1.465   0.752  10.842
 1891W        W 5955   1.670   8.858   8.393
 1892W        W 5956   3.797   5.195   1.670
 1893W        W 5957   2.495   6.241   2.841
 1894W        W 5958  10.229   0.335   8.947
 1895W        W 5959  10.008   2.767  10.992
 1896W        W 5960   6.203   7.468   8.805
 1897W        W 5961   5.498   4.291   9.884
 1898W        W 5962   8.810   8.935  10.106
 1899W        W 5963   8.354   2.663  10.552
 1900W        W 5964   5.431   9.194   1.255
 1901W        W 5965   3.296   2.618  10.862
 1902W        W 5966   9.221   0.968   9.394
 1903W        W 5967   7.360   3.290   8.464
 1904W        W 5968   6.136   6.989   0.986
 1905W        W 5969   5.678   0.238  10.423
 1906W        W 5970   9.736   8.446   9.925
 1907W        W 5971   0.431   7.011   9.466
 1908W        W 5972   2.587   3.347   0.826
 1909W        W 5973   0.732   6.504   9.529
 1910W        W 5974   1.688   8.187   2.312
 1911W        W 5975   7.906   2.882  10.393
 1912W        W 5976   4.692   0.829   9.712
 1913W        W 5977   9.910   1.341   8.750
 1914W        W 5978   5.731   2.959  10.161
 1915W        W 5979   4.277   8.999   9.950
 1916W        W 5980   5.509   8.357   0.213
 1917W        W 5981   1.449   0.459   0.662
 1918W        W 5982   4.159   9.748   1.281
 1919W        W 5983   2.033   5.541  10.512
 1920W        W 5984   7.801   7.500   9.747
 1921W        W 5985   2.316   8.776  11.869
 1922W        W 5986   3.027   1.725   8.695
 1923W        W 5987   5.216   8.918   3.319
 1924W        W 5988   6.053   0.914  10.004
 1925W        W 5989   6.165   7.601   2.160
 1926W        W 5990   2.162   7.754   0.082
 1927W        W 5991   7.537   9.928   2.478
 1928W        W 5992   8.534   2.566   3.550
 1929W        W 5993  10.493   5.141   1.709
 1930W        W 5994   9.816   4.582   1.832
 1931W        W 5995   7.897   7.178  10.646
 1932W        W 5996   8.143   8.165   1.479
 1933W        W 5997   4.683   3.435  11.166
 1934W        W 5998   9.171   0.311   2.210
 1935W        W 5999   7.454   0.832  10.453
 1936W        W 6000   0.050   0.351   1.153
 1937W        W 6001   1.378   3.681  11.596
 1938W        W 6002   9.993   5.443   0.522
 1939W        W 6003  10.148   9.326   3.281
 1940W        W 6004   3.623   4.059  11.229
 1941W        W 6005   4.971   9.069   1.421
 1942W        W 6006   4.633   8.418  11.957
 1943W        W 6007   1.565   5.266  11.298
 1944W        W 6008   1.663   0.734   2.099
 1945W        W 6009   3.813   9.595   1.640
 1946W        W 6010   2.636   1.970   3.166
 1947W        W 6011   1.893   3.955   3.061
 1948W        W 6012   9.818   2.076   2.696
 1949W        W 6013   6.429   8.010   2.357
 1950W        W 6014   2.857   6.436  10.577
 1951W        W 6015   3.103   5.074   2.803
 1952W        W 6016   1.238   9.066  10.482
 1953W        W 6017   2.191   7.055   3.429
 1954W        W 6018   5.145   4.698   9.230
 1955W        W 6019   8.753   6.211   9.873
 1956W        W 6020   2.254   7.348   0.429
 1957W        W 6021   6.858   4.238   9.847
 1958W        W 6022   4.640   6.081  10.961
 1959W        W 6023   7.473   4.504   4.207
 1960W        W 6024   2.757   0.991  11.807
 1961W        W 6025   8.987   8.020  11.112
 1962W        W 6026   8.882   6.389   9.054
 1963W        W 6027   7.625   4.136  11.437
 1964W        W 6028   9.724   6.213   2.860
 1965W        W 6029   9.298   2.346  10.500
 1966W        W 6030   8.172   4.628   2.462
 1967W        W 6031   0.461   7.031   2.474
 1968W        W 6032  10.452   2.243  11.350
 1969W        W 6033   2.678   6.883   3.534
 1970W        W 6034   8.002   9.072   3.525
 1971W        W 6035   5.494   8.850   0.306
 1972W        W 6036   2.506   9.869  11.740
 1973W        W 6037   4.505   3.180   9.885
 1974W        W 6038   2.222  10.293   0.972
 1975W        W 6039   0.860   9.008  11.785
 1976W        W 6040   3.589  10.493   1.205
 1977W        W 6041   8.302   5.141   0.790
 1978W        W 6042   7.542   0.750   8.489
 1979W        W 6043   0.741   1.118   2.367
 1980W        W 6044   9.547   0.170   9.970
 1981W        W 6045   8.937   2.868   3.475
 1982W        W 6046   6.608   7.114  10.997
 1983W        W 6047   5.626   7.893   9.236
 1984W        W 6048   1.990   6.970   0.226
 1985W        W 6049   5.981   4.108   3.583
 1986W        W 6050   2.770  10.047   0.983
 1987W        W 6051   9.697   3.443   9.548
 1988W        W 6052   0.691   8.580   2.456
 1989W        W 6053   0.662   8.660   0.824
 1990W        W 6054   5.758   9.941   8.971
 1991W        W 6055   7.642   3.183  10.754
 1992W        W 6056   3.548   0.270   9.068
 1993W        W 6057   2.898   2.137  10.472
 1994W        W 6058   3.907   1.319   0.319
 1995W        W 6059   0.351   5.848  10.646
 1996W        W 6060   8.333   4.738  11.036
 1997W        W 6061   3.322   9.466  10.359
 1998W        W 6062   5.074   6.204   3.774
 1999W        W 6063   7.157   4.287  11.336
 2000W        W 6064   5.459   0.927   2.652
 2001W        W 6065   7.862   2.752   3.256
 2002W        W 6066   0.376   2.517   9.672
 2003W        W 6067  10.349   7.420   3.339
 2004W        W 6068   5.767   2.709   0.943
 2005W        W 6069   7.450   2.691  10.512
 2006W        W 6070   2.242   2.892   8.945
 2007W        W 6071   6.873   8.086   1.503
 2008W        W 6072   6.530   0.622   1.674
 2009W        W 6073  10.001   8.322   9.004
 2010W        W 6074   7.400   8.711   9.232
 2011W        W 6075   3.377   3.109   3.764
 2012W        W 6076   8.350   1.268   2.722
 2013W        W 6077   9.317   1.615   3.270
 2014W        W 6078   7.246   7.622   1.391
 2015W        W 6079   0.748   1.868   2.865
 2016W        W 6080   1.287   8.057   2.028
 2017W        W 6081   5.764   3.897   2.269
 2018W        W 6082   4.999   0.418   9.693
 2019W        W 6083  10.339   7.477   9.513
 2020W        W 6084   9.633  10.289   3.131
 2021W        W 6085   5.184   8.046   9.465
 2022W        W 6086   0.431   4.503  10.001
 2023W        W 6087   5.166   9.065  11.479
 2024W        W 6088   9.134   8.336  11.481
 2025W        W 6089   2.840   9.228   2.274
 2026W        W 6090   7.748   9.438   3.225
 2027W        W 6091  10.256   8.411   9.998
 2028W        W 6092   2.716   0.734   0.250
 2029W        W 6093   1.488   7.605   0.731
 2030W        W 6094   8.069   1.419  10.358
 2031W        W 6095   3.818   7.587  11.029
 2032W        W 6096   4.233   4.455   2.286
 2033W        W 6097   7.411   7.945   0.743
 2034W        W 6098   9.043   1.604  11.575
 2035W        W 6099   1.229   8.573   3.236
 2036W        W 6100   0.463   1.395  11.364
 2037W        W 6101   9.855   8.389  10.968
 2038W        W 6102   3.788   0.392   0.946
 2039W        W 6103   8.545   1.372   0.565
 2040W        W 6104   5.726   2.883   2.348
 2041W        W 6105   3.398   5.716   3.204
 2042W        W 6106   8.461   2.790   9.555
 2043W        W 6107   8.900   6.203   1.786
 2044W        W 6108   2.368   0.303   3.248
 2045W        W 6109   8.656   9.029   1.781
 2046W        W 6110   6.705   1.792   9.200
 2047W        W 6111   1.510   9.940   9.455
 2048W        W 6112   1.875   8.075  11.473
 2049W        W 6113   1.678   6.178   8.518
 2050W        W 6114   1.334   1.069   1.850
 2051W        W 6115  10.081   6.974  11.592
 2052W        W 6116   3.602   2.290   9.088
 2053W        W 6117   2.301   5.704   2.750
 2054W        W 6118   7.457   2.654   9.493
 2055W        W 6119   2.397   9.649  11.284
 2056W        W 6120   1.250   9.391  11.023
 2057W        W 6121  10.418   5.699  10.864
 2058W        W 6122   9.966   1.359  11.531
 2059W        W 6123   0.347   1.462   9.516
 2060W        W 6124  10.399   2.396   9.540
 2061W        W 6125   6.183   6.497   0.731
 2062W        W 6126   2.361   9.635  10.121
 2063W        W 6127   1.064   7.410  10.450
 2064W        W 6128   4.592   5.162   8.824
 2065W        W 6129   5.147   9.544   2.653
 2066W        W 6130   2.361   2.112   0.518
 2067W        W 6131   3.955   4.237   4.038
 2068W        W 6132   4.720   2.406   3.181
 2069W        W 6133   2.765   4.594   8.487
 2070W        W 6134   5.529   4.377   3.566
 2071W        W 6135   5.245   0.887  11.434
 2072W        W 6136   4.517   4.669   1.431
 2073W        W 6137   5.710   0.776   3.087
 2074W        W 6138   1.488   8.917   1.525
 2075W        W 6139   1.107   8.988  11.322
 2076W        W 6140   2.340   6.037   2.361
 2077W        W 6141   0.783   2.635   9.298
 2078W        W 6142   3.896   1.906  10.246
 2079W        W 6143   0.846   7.692   1.879
 2080W        W 6144   5.290   4.447  11.507
 2081W        W 6145   5.249  10.500  10.855
 2082W        W 6146   2.863   3.999   1.399
 2083W        W 6147   7.450   6.112  11.014
 2084W        W 6148   5.926   3.183   9.747
 2085W        W 6149   8.483   9.513   9.500
 2086W        W 6150   9.610  10.188  11.615
 2087W        W 6151   8.294   5.102  10.476
 2088W        W 6152   2.648   7.137   9.194
 2089W        W 6153   6.146   9.400   8.596
 2090W        W 6154   0.819   5.249   0.537
 2091W        W 6155  10.105   1.438   9.707
 2092W        W 6156   6.508   1.133   1.878
 2093W        W 6157   0.049   9.525   2.965
 2094W        W 6158   9.484   2.899  11.793
 2095W        W 6159   3.667   9.336  11.787
 2096W        W 6160   9.855   5.165   2.857
 2097W        W 6161   6.566   4.342   0.437
 2098W        W 6162   8.287  10.459  11.283
 2099W        W 6163   9.224   6.095   2.160
 2100W        W 6164   0.454   2.055   0.387
 2101W        W 6165   3.011   8.706  11.729
 2102W        W 6166   5.479   2.148   0.447
 2103W        W 6167   8.986   7.525  11.013
 2104W        W 6168   8.740   3.561  11.253
 2105W        W 6169   5.047   5.193   9.085
 2106W        W 6170   8.994   8.383  10.617
 2107W        W 6171   2.354   4.884   8.422
 2108W        W 6172   3.691   0.860   0.184
 2109W        W 6173   4.216   9.297   3.698
 2110W        W 6174   9.095   2.415   8.918
 2111W        W 6175   2.641   0.521   2.457
 2112W        W 6176   8.484   7.941  10.980
 2113W        W 6177   7.031   3.571   2.270
 2114W        W 6178   3.649  10.387   8.736
 2115W        W 6179   6.244   6.751  11.052
 2116W        W 6180   3.532   1.725   2.162
 2117W        W 6181   9.825   1.517  11.048
 2118W        W 6182   3.757   0.407   1.464
 2119W        W 6183  10.095  10.243   3.463
 2120W        W 6184   8.382   8.110   1.025
 2121W        W 6185   8.800   9.254  11.834
 2122W        W 6186   2.953   7.671   2.917
 2123W        W 6187   9.956   9.281  10.784
 2124W        W 6188   5.657   6.699   9.765
 2125W        W 6189   7.948   6.223  11.211
 2126W        W 6190   7.469   0.321   1.914
 2127W        W 6191   6.821   9.400  11.585
 2128W        W 6192   8.146   1.329   0.868
 2129W        W 6193   1.176   2.631  11.565
 2130W        W 6194   8.914   9.951   2.501
 2131W        W 6195   4.962   5.987  10.074
 2132W        W 6196   1.017   4.693   2.227
 2133W        W 6197   2.797   8.896  10.876
 2134W        W 6198   4.256   0.316   0.711
 2135W        W 6199  10.379   0.390  10.517
 2136W        W 6200   4.045   9.847   2.295
 2137W        W 6201   9.108   3.859  10.424
 2138W        W 6202   5.728   0.209   1.482
 2139W        W 6203   3.246   3.462   8.606
 2140W        W 6204   3.640   9.045   0.807
 2141W        W 6205   0.836   0.746   9.385
 2142W        W 6206   2.387   1.242   0.349
 2143W        W 6207   0.862   6.955   9.742
 2144W        W 6208   1.697   2.181   8.751
 2145W        W 6209   3.423   1.410  11.369
 2146W        W 6210   5.779   7.368   1.229
 2147W        W 6211   0.800   5.847   0.775
 2148W        W 6212   6.083   8.034   9.068
 2149W        W 6213   1.949  10.407  10.149
 2150W        W 6214   6.148   1.655   2.465
 2151W        W 6215   1.809   6.731   3.554
 2152W        W 6216   1.392   5.929  10.969
 2153W        W 6217   1.489   2.638   1.766
 2154W        W 6218   7.887   1.694   0.582
 2155W        W 6219   9.751   1.823   0.370
 2156W        W 6220   2.077   5.425   0.916
 2157W        W 6221   3.987   6.506   3.314
 2158W        W 6222   4.259   9.555   1.863
 2159W        W 6223   2.856   5.545  11.727
 2160W        W 6224   9.306   9.852   3.297
 2161W        W 6225   7.967   2.258   2.992
 2162W        W 6226   2.207   2.259   3.307
 2163W        W 6227   8.008  10.137   2.344
 2164W        W 6228   6.913  10.339  11.460
 2165W        W 6229   2.760   3.627   8.757
 2166W        W 6230   7.825   8.493  11.620
 2167W        W 6231   9.101  10.292  11.582
 2168W        W 6232   6.961   2.716   0.341
 2169W        W 6233   3.139   0.889   1.458
 2170W        W 6234   1.038   5.001   8.906
 2171W        W 6235   0.696  10.345   1.425
 2172W        W 6236   7.087   2.307   0.055
 2173W        W 6237   6.537   4.673   2.594
 2174W        W 6238   8.539   2.700  10.059
 2175W        W 6239   3.624   7.968  10.391
 2176W        W 6240   9.070   6.984   1.180
 2177W        W 6241   8.012   4.460   3.287
 2178W        W 6242   1.407   4.664  11.470
 2179W        W 6243   4.695   8.918  10.732
 2180W        W 6244   6.702   7.207  11.897
 2181W        W 6245   8.067   9.818   8.483
 2182W        W 6246   9.490   4.110   2.242
 2183W        W 6247   9.370   8.036  10.484
 2184W        W 6248   5.031   3.298  10.752
 2185W        W 6249   5.655   5.824  11.676
 2186W        W 6250   3.683   9.544   8.959
 2187W        W 6251   4.086  10.463   9.024
 2188W        W 6252   5.642   8.478   2.189
 2189W        W 6253   3.314   6.645  10.852
 2190W        W 6254   1.651   6.628   0.071
 2191W        W 6255   8.069   1.233  10.870
 2192W        W 6256   3.275   6.647  10.326
 2193W        W 6257   9.467   1.786   2.440
 2194W        W 6258   8.906   0.888   3.362
 2195W        W 6259   7.338   4.373  11.836
 2196W        W 6260   1.186   2.746  10.685
 2197W        W 6261   1.169   4.507   0.523
 2198W        W 6262   3.362   2.043   1.812
 2199W        W 6263   2.184   7.006  10.971
 2200W        W 6264   4.511   3.185   0.799
 2201W        W 6265   5.649   6.039   0.561
 2202W        W 6266   5.343   6.811   1.913
 2203W        W 6267   1.757   3.625   1.361
 2204W        W 6268   7.620   4.055   9.578
 2205W        W 6269   9.376   7.593   1.803
 2206W        W 6270   6.974   1.941  11.706
 2207W        W 6271   1.705   5.217  10.805
 2208W        W 6272   2.833   0.575   0.805
 2209W        W 6273   9.527   6.996   9.324
 2210W        W 6274   2.641   4.161   1.841
 2211W        W 6275   2.443   6.260  11.943
 2212W        W 6276   6.196   4.711   1.592
 2213W        W 6277   0.608   8.145   0.775
 2214W        W 6278   9.004   8.301   9.222
 2215W        W 6279   9.516   1.444   8.451
 2216W        W 6280   6.450   5.230   9.069
 2217W        W 6281   3.690   5.721  11.201
 2218W        W 6282   2.554   5.580  10.443
 2219W        W 6283   5.355   1.740  10.389
 2220W        W 6284   5.275   1.285   0.161
 2221W        W 6285   8.840   7.836   1.009
 2222W        W 6286   8.779   5.080  10.335
 2223W        W 6287   6.713   5.656   2.877
 2224W        W 6288   3.183   5.306   0.427
 2225W        W 6289   8.664   2.257   0.799
 2226W        W 6290   0.674   7.931  10.982
 2227W        W 6291   8.564   9.053   8.622
 2228W        W 6292   3.335   3.039   3.204
 2229W        W 6293   2.294   0.257   2.743
 2230W        W 6294   5.244   2.140   2.627
 2231W        W 6295   6.977   8.035   9.878
 2232W        W 6296   1.880   0.124   2.226
 2233W        W 6297   2.872   9.890  10.876
 2234W        W 6298   4.024   9.110  11.483
 2235W        W 6299   1.892   2.231   3.721
 2236W        W 6300   7.061   4.032   3.551
 2237W        W 6301   0.309   0.510   9.773
 2238W        W 6302   8.939   2.277   2.770
 2239W        W 6303   2.858   2.682   1.411
 2240W        W 6304   7.097   7.937   3.003
 2241W        W 6305   3.186   1.833   9.187
 2242W        W 6306   4.621   1.294   2.007
 2243W        W 6307   9.442   9.240   9.606
 2244W        W 6308   0.408   0.746   8.761
 2245W        W 6309  10.292   8.316  11.237
 2246W        W 6310   5.406   0.425   8.849
 2247W        W 6311   0.820  10.323  11.483
 2248W        W 6312   8.473   9.521   0.683
 2249W        W 6313   7.986   2.294   3.503
 2250W        W 6314   3.487   8.896  10.317
 2251W        W 6315   4.219   6.062   0.951
 2252W        W 6316   5.277   0.004   9.771
 2253W        W 6317   7.324   8.380   3.161
 2254W        W 6318   6.636   0.224   2.457
 2255W        W 6319   1.609   9.575   2.094
 2256W        W 6320   4.364   1.962  10.459
 2257W        W 6321   1.528   4.695   2.253
 2258W        W 6322   3.163   9.466   8.998
 2259W        W 6323   8.957   1.114  11.364
 2260W        W 6324   3.072   2.200  11.738
 2261W        W 6325   3.361   8.360   9.337
 2262W        W 6326   1.406   7.557   9.505
 2263W        W 6327   0.927   7.391  11.911
 2264W        W 6328   5.150   9.058   2.826
 2265W        W 6329   6.914   6.968   1.819
 2266W        W 6330   1.865   2.162  10.360
 2267W        W 6331   8.982   0.507   0.300
 2268W        W 6332   7.631   6.892   9.748
 2269W        W 6333   6.664   1.169   0.010
 2270W        W 6334   1.420   5.130  11.789
 2271W        W 6335   4.580   9.301  11.057
 2272W        W 6336   4.633   9.379   3.428
 2273W        W 6337   3.369   7.873  11.551
 2274W        W 6338   1.060  10.476  11.924
 2275W        W 6339   8.919   1.534   0.271
 2276W        W 6340   3.650   5.570   1.969
 2277W        W 6341   6.202   1.862  10.459
 2278W        W 6342   3.034   6.924   3.136
 2279W        W 6343   1.077   1.886   1.384
 2280W        W 6344   7.338   9.665  11.062
 2281W        W 6345   8.158   9.453   2.923
 2282W        W 6346   3.289   4.269   8.788
 2283W        W 6347   2.282   9.079  11.440
 2284W        W 6348   1.516   6.164   2.909
 2285W        W 6349   8.180   2.559  11.019
 2286W        W 6350   5.666   2.046  11.987
 2287W        W 6351   1.573   1.773   1.280
 2288W        W 6352   0.411   7.113  10.654
 2289W        W 6353   0.444   2.115  11.449
 2290W        W 6354   1.303   4.088   8.769
 2291W        W 6355   1.952   7.014   0.965
 2292W        W 6356   0.963   0.274   0.632
 2293W        W 6357   3.681   2.215   3.037
 2294W        W 6358   8.989   4.164   0.443
 2295W        W 6359   2.387   8.628   0.360
 2296W        W 6360   1.773   4.241  10.984
 2297W        W 6361   1.944   8.434   8.576
 2298W        W 6362   4.255   7.050   0.190
 2299W        W 6363   9.215   7.468   2.313
 2300W        W 6364   0.724   3.972   2.923
 2301W        W 6365   2.127   8.018   9.702
 2302W        W 6366   7.124   6.622   4.107
 2303W        W 6367   9.440   6.162   0.711
 2304W        W 6368   7.697   9.710   0.844
 2305W        W 6369   1.064   9.443   2.796
 2306W        W 6370   6.888   1.278   2.196
 2307W        W 6371   2.288   4.793   3.233
 2308W        W 6372   3.833   8.468   1.405
 2309W        W 6373   8.894   8.372   0.967
 2310W        W 6374   3.954   6.729   1.979
 2311W        W 6375   9.223   3.588   8.888
 2312W        W 6376   5.534   9.862   2.174
 2313W        W 6377   0.469   6.140  11.654
 2314W        W 6378   8.806   6.678   0.561
 2315W        W 6379   6.124   1.851  11.550
 2316W        W 6380  10.427   1.349   1.950
 2317W        W 6381   9.839   1.745  10.009
 2318W        W 6382   9.984   1.173   0.015
 2319W        W 6383   8.996   1.997   1.588
 2320W        W 6384   7.986   2.729   1.714
 2321W        W 6385   1.565   5.367   0.221
 2322W        W 6386   0.857   8.035  10.533
 2323W        W 6387   6.682   7.994   0.257
 2324W        W 6388   5.471   5.201   2.668
 2325W        W 6389  10.489   8.462   2.654
 2326W        W 6390   9.939   2.582   3.365
 2327W        W 6391   3.170   3.538   1.742
 2328W        W 6392   9.862   3.241  11.836
 2329W        W 6393   7.192   3.068   9.355
 2330W        W 6394   1.369   0.499   8.597
 2331W        W 6395   3.468   4.160  10.749
 2332W        W 6396   7.643   5.990   8.356
 2333W        W 6397   4.831   2.790   0.927
 2334W        W 6398   1.730   5.857   9.716
 2335W        W 6399   7.388   6.061   1.795
 2336W        W 6400   4.140   8.846   2.389
 2337W        W 6401   4.533   3.633  10.128
 2338W        W 6402   0.728   1.648   0.487
 2339W        W 6403   1.579   6.482   1.867
 2340W        W 6404   4.335   0.995  11.400
 2341W        W 6405   7.010   7.607  10.162
 2342W        W 6406   1.689   0.064   0.365
 2343W        W 6407   4.397   2.642  11.061
 2344W        W 6408   4.230   3.402  11.417
 2345W        W 6409   3.541   1.724   0.868
 2346W        W 6410   6.455   0.219   1.986
 2347W        W 6411   5.019   4.052   8.139
 2348W        W 6412   3.201   4.659  10.042
 2349W        W 6413   1.443   0.769  11.884
 2350W        W 6414   8.965   8.430  10.089
 2351W        W 6415   8.990   7.923   1.540
 2352W        W 6416   2.911   0.281   0.400
 2353W        W 6417   9.978   8.778  11.940
 2354W        W 6418   2.222   6.039  10.994
 2355W        W 6419   3.629   2.599   0.742
 2356W        W 6420  10.154   8.726  10.740
 2357W        W 6421   1.862   7.412  11.149
 2358W        W 6422   0.224   0.257   8.851
 2359W        W 6423   7.461   7.542  11.439
 2360W        W 6424   8.551   6.565  11.786
 2361W        W 6425   9.630   6.622   0.898
 2362W        W 6426   7.245   3.201   1.019
 2363W        W 6427   7.755   9.111   9.070
 2364W        W 6428   8.892   7.873  10.625
 2365W        W 6429   3.353   6.916   8.529
 2366W        W 6430   6.689   1.678  10.261
 2367W        W 6431   3.299   7.886   0.673
 2368W        W 6432   4.569   9.859   3.172
 2369W        W 6433   9.690  10.207   9.796
 2370W        W 6434   9.869   5.443  11.521
 2371W        W 6435   7.940  10.181   0.867
 2372W        W 6436   6.635   8.753   2.973
 2373W        W 6437   0.414   1.432   2.674
 2374W        W 6438   0.150   6.728  10.884
 2375W        W 6439   7.462   5.527   1.712
 2376W        W 6440   6.692   1.677   9.735
 2377W        W 6441   6.426   5.772   1.610
 2378W        W 6442   3.385   9.763  11.630
 2379W        W 6443   4.764   1.243  11.873
 2380W        W 6444   1.135   6.064   3.252
 2381W        W 6445   6.285   3.658   0.936
 2382W        W 6446   8.139   3.062  10.820
 2383W        W 6447   7.167   5.469   2.780
 2384W        W 6448   5.683  10.261   2.438
 2385W        W 6449   1.369   6.572  10.198
 2386W        W 6450   8.103   7.544  10.334
 2387W        W 6451   8.020   2.262   2.474
 2388W        W 6452   7.053   3.355  11.587
 2389W        W 6453   2.740   8.812  10.053
 2390W        W 6454  10.093   0.140   1.604
 2391W        W 6455   1.855   6.445   3.152
 2392W        W 6456   1.667   9.209  10.765
 2393W        W 6457   2.699   4.468   0.043
 2394W        W 6458   4.482   6.604   2.701
 2395W        W 6459   1.405   7.228   1.513
 2396W        W 6460   2.234   6.015  10.452
 2397W        W 6461   7.434   4.540   1.318
 2398W        W 6462   4.700   9.362   0.068
 2399W        W 6463   8.765   5.191   3.251
 2400W        W 6464   9.771   6.950   0.532
 2401W        W 6465   4.844   5.037   1.210
 2402W        W 6466   3.113   6.423   8.330
 2403W        W 6467   2.583   3.861  11.937
 2404W        W 6468   7.483   7.502   1.860
 2405W        W 6469   6.951   0.869   1.897
 2406W        W 6470   9.474   1.521   0.733
 2407W        W 6471   7.526   5.472   1.187
 2408W        W 6472   5.032   9.653   2.166
 2409W        W 6473   1.993   2.875   9.396
 2410W        W 6474   6.907   5.599  11.510
 2411W        W 6475   9.816   5.608   0.040
 2412W        W 6476   4.250   8.360   9.197
 2413W        W 6477   2.352   2.284   2.807
 2414W        W 6478   6.992   4.193   0.190
 2415W        W 6479   0.374   7.536   3.364
 2416W        W 6480   7.013   9.855  11.774
 2417W        W 6481   5.105   5.392  11.511
 2418W        W 6482   3.816   6.463   9.637
 2419W        W 6483   2.940   9.874   9.476
 2420W        W 6484   7.933   3.331  11.621
 2421W        W 6485   3.540   4.322   9.506
 2422W        W 6486   0.782   1.147   0.965
 2423W        W 6487   7.198   5.798   4.046
 2424W        W 6488   3.768   9.906   8.594
 2425W        W 6489   4.203   7.946   0.677
 2426W        W 6490   9.094   2.375   0.565
 2427W        W 6491   8.464   2.837   1.553
 2428W        W 6492   9.372   4.602   2.094
 2429W        W 6493   8.207   1.031   1.840
 2430W        W 6494   2.983   9.235   3.145
 2431W        W 6495   5.004   0.361   3.079
 2432W        W 6496   8.549   7.969   1.888
 2433W        W 6497   8.102   6.637   9.522
 2434W        W 6498   5.201   4.636  10.517
 2435W        W 6499   6.071  10.216   9.269
 2436W        W 6500   8.329   1.714   0.263
 2437W        W 6501   1.935   7.380   1.795
 2438W        W 6502   3.246   9.409   0.575
 2439W        W 6503   3.959   1.047   3.507
 2440W        W 6504   9.850   1.281   9.269
 2441W        W 6505   5.906   4.101  11.417
 2442W        W 6506   7.967   5.639   1.819
 2443W        W 6507   7.455   8.211   2.703
 2444W        W 6508  10.297   7.988   2.658
 2445W        W 6509  10.135   6.757   0.881
 2446W        W 6510   5.712  10.292  10.684
 2447W        W 6511   5.664   0.729  11.700
 2448W        W 6512   4.231  10.319  10.842
 2449W        W 6513   3.711   6.953   2.409
 2450W        W 6514   6.957   9.833   3.612
 2451W        W 6515   3.262   3.812  11.504
 2452W        W 6516   1.198   5.658  11.370
 2453W        W 6517   2.112   3.161   0.782
 2454W        W 6518  10.482   7.001  10.409
 2455W        W 6519   4.011   2.264   9.878
 2456W        W 6520   5.923   2.651   9.524
 2457W        W 6521   3.573   6.569  11.319
 2458W        W 6522   4.739   3.200   9.393
 2459W        W 6523   3.837   2.372   2.580
 2460W        W 6524   6.391   6.686   3.710
 2461W        W 6525   0.178   6.601   2.614
 2462W        W 6526   8.661   6.501   3.453
 2463W        W 6527   4.551   7.980   9.447
 2464W        W 6528   3.663   1.362  11.842
 2465W        W 6529   5.719   7.868   8.734
 2466W        W 6530   0.831   5.017   1.269
 2467W        W 6531   0.977   3.290  10.920
 2468W        W 6532   6.565   4.365   1.408
 2469W        W 6533   6.988   2.015  10.964
 2470W        W 6534   7.626   6.704  10.356
 2471W        W 6535   4.116   9.633   9.240
 2472W        W 6536   5.031   7.727   1.586
 2473W        W 6537   1.162   8.954   3.560
 2474W        W 6538   4.093   3.102   1.053
 2475W        W 6539   1.411   1.447   3.324
 2476W        W 6540   3.835   9.857   9.607
 2477W        W 6541   3.294   1.355   1.689
 2478W        W 6542   8.458  10.260   0.225
 2479W        W 6543   3.281   8.928   2.876
 2480W        W 6544   8.011   8.204   2.005
 2481W        W 6545   0.733   9.038  10.367
 2482W        W 6546   7.308   2.834   3.415
 2483W        W 6547   9.234  10.343   0.547
 2484W        W 6548   5.958   0.340   1.909
 2485W        W 6549   7.162   4.186   1.578
 2486W        W 6550   6.144   9.109   3.209
 2487W        W 6551   8.663   3.583   9.001
 2488W        W 6552  10.482   5.304   0.385
 2489W        W 6553   8.936   2.518   1.486
 2490W        W 6554   6.489   1.942   8.710
 2491W        W 6555   6.197   7.796   3.173
 2492W        W 6556   9.991   9.224   0.853
 2493W        W 6557  10.456   8.004  10.252
 2494W        W 6558   7.981   7.309   0.810
 2495W        W 6559   3.301   9.977   8.868
 2496W        W 6560   6.002   9.109   9.518
 2497W        W 6561   8.841   0.440   3.048
 2498W        W 6562   4.411   7.057   8.461
 2499W        W 6563   1.162   8.521   2.285
 2500W        W 6564   8.629   7.065  11.803
 2501W        W 6565   5.242   8.687   1.146
 2502W        W 6566   3.740   3.863   3.106
 2503W        W 6567   6.046   1.220   1.693
 2504W        W 6568  10.314   5.691   3.080
 2505W        W 6569   3.292   0.238   2.128
 2506W        W 6570  10.408   5.750   0.685
 2507W        W 6571   9.415   2.670   3.373
 2508W        W 6572  10.080   3.038   0.360
 2509W        W 6573   1.697   7.084   3.218
 2510W        W 6574   3.621   6.732   0.692
 2511W        W 6575   8.139   7.109   9.694
 2512W        W 6576   4.206   7.044   2.331
 2513W        W 6577   5.655   8.908   9.155
 2514W        W 6578   9.317   3.317   1.391
 2515W        W 6579   8.836   7.146   2.188
 2516W        W 6580   3.526   7.513   0.025
 2517W        W 6581   2.785   6.455   1.359
 2518W        W 6582   3.069   3.138   0.906
 2519W        W 6583   8.596   3.313   0.619
 2520W        W 6584   7.442   1.381   9.207
 2521W        W 6585   0.485   9.431  10.577
 2522W        W 6586   7.370   6.728   1.519
 2523W        W 6587   5.186   4.004   4.217
 2524W        W 6588   1.265   9.436   1.754
 2525W        W 6589   8.031   3.816   9.804
 2526W        W 6590   8.194   7.070   9.126
 2527W        W 6591   1.261   0.478   9.488
 2528W        W 6592   5.591   3.179   1.014
 2529W        W 6593   1.698   2.201   0.955
 2530W        W 6594   8.513   0.201   3.454
 2531W        W 6595   2.866   8.356   1.209
 2532W        W 6596   5.419   9.930   8.573
 2533W        W 6597   0.770   6.117  10.370
 2534W        W 6598   6.693   0.145   3.351
 2535W        W 6599   2.305   6.259   1.266
 2536W        W 6600   8.445   2.141   3.276
 2537W        W 6601   2.241   0.452  10.716
 2538W        W 6602   3.115   2.806   2.827
 2539W        W 6603   0.358   0.195   2.031
 2540W        W 6604   7.501   7.694  10.098
 2541W        W 6605   7.007   8.420   9.075
 2542W        W 6606   7.271   9.474   3.412
 2543W        W 6607   2.395   0.794  10.366
 2544W        W 6608   4.693   8.368   1.920
 2545W        W 6609   5.558   8.114  11.765
 2546W        W 6610   0.192   3.612  11.503
 2547W        W 6611   8.896   9.125  11.090
 2548W        W 6612  10.378   6.504  10.521
 2549W        W 6613   0.216   2.821   8.841
 2550W        W 6614   0.050   1.653   9.891
 2551W        W 6615   1.431  10.041  11.230
 2552W        W 6616   4.476   5.182   1.540
 2553W        W 6617   6.117   2.548   2.157
 2554W        W 6618   3.249   0.901  11.930
 2555W        W 6619   2.133   6.641   9.842
 2556W        W 6620   8.073   4.121   1.814
 2557W        W 6621   7.967   8.150   2.544
 2558W        W 6622   7.069   8.575  10.509
 2559W        W 6623   7.609   2.309   1.681
 2560W        W 6624   9.294   4.056   2.712
 2561W        W 6625   9.980   4.230   0.951
 2562W        W 6626   7.475   9.447   0.431
 2563W        W 6627   9.055   0.774   0.770
 2564W        W 6628   3.076   5.637  10.345
 2565W        W 6629   6.533   5.440   8.606
 2566W        W 6630   5.679   3.025  11.945
 2567W        W 6631   4.259   0.797   1.395
 2568W        W 6632   2.767   9.265  11.265
 2569W        W 6633   3.613   2.728  11.257
 2570W        W 6634   7.188   9.361   0.929
 2571W        W 6635   5.692   1.862   9.977
 2572W        W 6636   3.676   2.132   0.543
 2573W        W 6637   0.005   5.199   9.057
 2574W        W 6638   4.649   9.838  11.268
 2575W        W 6639  10.100   5.004   1.975
 2576W        W 6640   7.462   9.307   1.771
 2577W        W 6641   4.289   7.595  10.803
 2578W        W 6642   3.175   4.585  11.918
 2579W        W 6643  10.184   4.971  10.501
 2580W        W 6644   5.593   5.529  11.232
 2581W        W 6645   0.522   4.597   2.906
 2582W        W 6646   8.120   3.890   0.310
 2583W        W 6647   2.426   8.515   2.498
 2584W        W 6648   1.312   4.205   9.292
 2585W        W 6649   7.969   0.796  11.365
 2586W        W 6650   3.374   0.893   1.924
 2587W        W 6651   5.654   5.001   0.699
 2588W        W 6652   1.977   1.607   1.578
 2589W        W 6653   4.070   5.761   9.180
 2590W        W 6654   6.539   8.440   1.249
 2591W        W 6655   3.676   6.671   8.851
 2592W        W 6656   1.795   1.061   0.175
 2593W        W 6657   5.160   7.352   3.050
 2594W        W 6658   6.139   8.656   2.919
 2595W        W 6659   1.381   5.880   0.259
 2596W        W 6660   3.057   6.519  11.361
 2597W        W 6661   0.862   9.307   8.978
 2598W        W 6662   3.110   9.958  10.265
 2599W        W 6663   2.512   7.206   1.900
 2600W        W 6664   0.392   7.746  10.156
 2601W        W 6665   7.269   3.655   0.767
 2602W        W 6666   2.934   1.733   1.451
 2603W        W 6667   1.939   3.085   3.178
 2604W        W 6668   3.731   1.876  10.752
 2605W        W 6669   9.362   2.845  10.387
 2606W        W 6670   0.842   1.381   1.441
 2607W        W 6671   1.294   3.472   2.001
 2608W        W 6672   3.081   8.806   2.425
 2609W        W 6673  10.285   9.861  10.305
 2610W        W 6674   3.775  10.429  11.705
 2611W        W 6675   1.402   5.205   9.201
 2612W        W 6676   1.327   8.303   0.065
 2613W        W 6677   6.087   4.785  10.174
 2614W        W 6678   1.236   2.313   3.582
 2615W        W 6679   3.454   5.028   3.622
 2616W        W 6680   3.979   5.723   0.172
 2617W        W 6681   6.694   3.666  10.513
 2618W        W 6682   8.449   1.855   9.891
 2619W        W 6683   2.714   6.731   2.742
 2620W        W 6684   4.241   9.865   0.728
 2621W        W 6685   8.194   6.516   1.304
 2622W        W 6686   8.956   0.104   9.505
 2623W        W 6687   5.063   9.398  10.241
 2624W        W 6688   6.510  10.303  11.102
 2625W        W 6689   7.220   7.272  11.798
 2626W        W 6690   6.597   1.235  11.016
 2627W        W 6691   2.022   1.841  11.222
 2628W        W 6692   9.570   5.513  10.771
 2629W        W 6693   0.528   4.620   2.352
 2630W        W 6694   9.410   4.742   1.564
 2631W        W 6695   8.480   4.255   8.987
 2632W        W 6696   8.329   8.790  10.437
 2633W        W 6697   6.742   8.410   9.637
 2634W        W 6698   6.449   8.068   9.416
 2635W        W 6699   2.258   3.399  11.974
 2636W        W 6700   6.465   7.925   9.912
 2637W        W 6701   0.719   5.399   2.799
 2638W        W 6702   2.771   0.758   8.589
 2639W        W 6703   8.610   0.485  10.807
 2640W        W 6704   7.495   6.220  11.504
 2641W        W 6705   1.957   0.836  10.935
 2642W        W 6706   6.085   9.969   3.327
 2643W        W 6707   8.900  10.387   2.210
 2644W        W 6708   6.421   5.517  11.654
 2645W        W 6709   7.068   4.421   9.405
 2646W        W 6710   8.610   5.908   0.456
 2647W        W 6711   5.804   9.922   0.888
 2648W        W 6712   2.128   3.884   2.629
 2649W        W 6713   7.385   2.250  11.233
 2650W        W 6714   5.673   7.842   1.899
 2651W        W 6715  10.294   0.766   8.629
 2652W        W 6716   1.441   8.472   8.670
 2653W        W 6717   9.835   3.848   0.655
 2654W        W 6718   0.869   2.213  11.732
 2655W        W 6719   9.717   0.261  11.721
 2656W        W 6720   2.197   0.853   3.330
 2657W        W 6721   4.823   6.880   1.916
 2658W        W 6722   0.266  10.381   0.309
 2659W        W 6723   1.626   0.733   9.979
 2660W        W 6724   9.242   2.727   0.202
 2661W        W 6725   8.821   0.696   2.093
 2662W        W 6726   4.419   6.606   8.179
 2663W        W 6727   4.025   2.891   9.031
 2664W        W 6728   8.554   3.362  10.761
 2665W        W 6729   9.931   3.522  10.543
 2666W        W 6730   8.898   4.530   9.162
 2667W        W 6731   0.515   9.052   1.633
 2668W        W 6732   5.143   0.411   0.197
 2669W        W 6733   8.269   8.023   8.636
 2670W        W 6734   4.436   1.664   3.607
 2671W        W 6735   7.706   0.325   9.393
 2672W        W 6736   8.855   4.693   3.093
 2673W        W 6737   3.814   5.369  11.864
 2674W        W 6738   2.848   2.124   1.772
 2675W        W 6739   7.541  10.434   8.998
 2676W        W 6740   2.528  10.158   9.352
 2677W        W 6741   7.816   5.305   0.787
 2678W        W 6742   6.551   7.723  11.827
 2679W        W 6743   3.096   4.292   9.263
 2680W        W 6744   4.794   7.340   0.368
 2681W        W 6745   7.920   8.037  11.810
 2682W        W 6746   3.797   3.320  10.540
 2683W        W 6747   2.196   5.705   9.050
 2684W        W 6748   0.019   6.098  11.897
 2685W        W 6749  10.201   0.315   2.572
 2686W        W 6750   3.220   9.116   9.950
 2687W        W 6751   9.441   4.733   1.038
 2688W        W 6752   6.001   1.235   2.212
 2689W        W 6753   8.731   6.715   8.690
 2690W        W 6754   2.849   2.872  10.808
 2691W        W 6755   5.084   8.157  11.892
 2692W        W 6756   9.310   2.860   0.676
 2693W        W 6757   1.382   4.180   1.447
 2694W        W 6758   7.377   9.505  10.247
 2695W        W 6759   4.075   0.591  10.360
 2696W        W 6760   4.238   1.894   8.891
 2697W        W 6761   8.972   5.597   2.981
 2698W        W 6762   4.501   2.837  10.585
 2699W        W 6763   2.835   4.628   2.007
 2700W        W 6764   7.659   8.494  11.148
 2701W        W 6765  10.267   2.377   1.999
 2702W        W 6766  10.260  10.426   0.339
 2703W        W 6767  10.173   2.666  11.502
 2704W        W 6768   7.886   2.231   8.976
 2705W        W 6769   8.088   0.924  11.888
 2706W        W 6770   4.094   5.137   2.787
 2707W        W 6771   3.275   4.660   8.454
 2708W        W 6772   8.501  10.227  10.430
 2709W        W 6773   8.128   5.685   9.790
 2710W        W 6774   3.228   3.956   3.469
 2711W        W 6775   9.509   6.234   1.233
 2712W        W 6776   5.003   1.256   9.709
 2713W        W 6777   3.051   8.327   3.178
 2714W        W 6778   0.420  10.002  11.378
 2715W        W 6779   0.707   4.807   9.265
 2716W        W 6780   1.807   4.754   2.970
 2717W        W 6781   8.375  10.134   3.594
 2718W        W 6782   2.452   8.200  11.241
 2719W        W 6783   7.156  10.463   1.745
 2720W        W 6784   2.871   1.856  10.993
 2721W        W 6785   1.171   5.098   0.900
 2722W        W 6786   6.391   5.283  10.824
 2723W        W 6787   5.654   6.523   2.236
 2724W        W 6788   4.541   1.475  10.433
 2725W        W 6789   2.414   1.236   2.627
 2726W        W 6790   4.140   7.405   9.929
 2727W        W 6791   5.447   1.314   8.943
 2728W        W 6792   3.714   6.015   2.203
 2729W        W 6793   6.129   0.800   1.971
 2730W        W 6794   0.280   6.349   9.748
 2731W        W 6795   6.205   8.503  11.417
 2732W        W 6796  10.311   8.965   1.184
 2733W        W 6797   4.123   2.602   3.553
 2734W        W 6798   7.667   1.176  10.081
 2735W        W 6799  10.191   2.631   0.690
 2736W        W 6800   3.661   6.516   1.181
 2737W        W 6801   6.245   6.909   2.823
 2738W        W 6802   9.021   1.297   0.740
 2739W        W 6803   9.091   7.930   2.058
 2740W        W 6804   2.786   8.998   1.657
 2741W        W 6805   2.642   1.480  11.807
 2742W        W 6806   0.308   9.459   1.990
 2743W        W 6807   1.304   6.846   0.433
 2744W        W 6808   4.741   2.099   3.616
 2745W        W 6809  10.234   3.056   1.205
 2746W        W 6810   5.511   3.793   9.965
 2747W        W 6811   7.814   4.232  10.034
 2748W        W 6812   4.872   1.675  11.475
 2749W        W 6813   6.470  10.337   0.407
 2750W        W 6814   2.533   1.874   0.977
 2751W        W 6815   7.002   7.897   8.861
 2752W        W 6816   0.302  10.209  10.941
 2753W        W 6817  10.448   6.114   9.391
 2754W        W 6818   3.790   7.933  11.869
 2755W        W 6819   1.197   0.894   0.834
 2756W        W 6820   5.239   1.292   3.457
 2757W        W 6821   2.290   5.241   1.403
 2758W        W 6822   2.736   4.994   1.347
 2759W        W 6823   0.786   9.572   9.409
 2760W        W 6824   3.367   4.408   4.254
 2761W        W 6825   4.054   9.300  10.961
 2762W        W 6826   3.034   7.129  10.871
 2763W        W 6827   0.791   2.021   3.657
 2764W        W 6828   9.620   5.157   9.584
 2765W        W 6829   8.607   3.801   0.399
 2766W        W 6830   0.404  10.468   9.245
 2767W        W 6831   4.535   5.686  10.052
 2768W        W 6832   3.133  10.466   8.721
 2769W        W 6833   7.097   8.829   3.207
 2770W        W 6834   7.969   2.745   9.434
 2771W        W 6835   9.300   9.076  11.694
 2772W        W 6836   5.599   0.923   9.729
 2773W        W 6837   8.264   4.188  11.777
 2774W        W 6838   8.826   5.488   9.141
 2775W        W 6839   4.997   3.521   4.268
 2776W        W 6840   4.387   4.302  11.337
 2777W        W 6841   9.504   5.935  11.795
 2778W        W 6842   2.763   4.395   9.772
 2779W        W 6843   2.188   6.046   3.224
 2780W        W 6844   5.145   1.075   1.414
 2781W        W 6845   7.768  10.425   9.849
 2782W        W 6846   4.661   2.208   8.844
 2783W        W 6847   0.410   0.010   9.769
 2784W        W 6848   8.508   0.785   2.812
 2785W        W 6849   6.554   7.406  11.419
 2786W        W 6850   4.372   8.771  11.649
 2787W        W 6851   3.776   9.958   0.953
 2788W        W 6852   8.414   2.647   2.027
 2789W        W 6853   9.573   8.655   1.613
 2790W        W 6854   2.081   9.396  10.506
 2791W        W 6855   0.055   4.520   2.547
 2792W        W 6856   8.395   4.786   3.319
 2793W        W 6857   8.545   9.586   8.496
 2794W        W 6858   2.683   7.848  10.827
 2795W        W 6859   4.426   1.997   1.011
 2796W        W 6860   6.095   7.678   2.675
 2797W        W 6861   1.691   6.352   9.868
 2798W        W 6862   7.980   0.331   1.107
 2799W        W 6863   1.828   0.472   1.215
 2800W        W 6864   8.071   1.442   9.846
 2801W        W 6865   7.440   2.650  10.007
 2802W        W 6866   8.879   3.954   2.427
 2803W        W 6867   3.147   0.218   3.176
 2804W        W 6868   9.961   5.664  11.058
 2805W        W 6869   2.875   5.675   3.438
 2806W        W 6870   8.804   4.212   9.998
 2807W        W 6871   9.899   7.074  11.123
 2808W        W 6872   8.388   5.836   2.635
 2809W        W 6873   8.392   3.533   2.335
 2810W        W 6874   4.595   2.757   9.597
 2811W        W 6875   4.500   6.142   9.840
 2812W        W 6876   0.420   9.789   0.769
 2813W        W 6877   0.496   4.638  11.049
 2814W        W 6878   1.748   4.607   1.469
 2815W        W 6879   5.271   8.403   9.864
 2816W        W 6880   5.489   4.632   1.735
 2817W        W 6881   0.986   4.482   8.994
 2818W        W 6882   2.832   8.601   8.869
 2819W        W 6883   0.983   0.985  10.715
 2820W        W 6884   0.347   7.501   9.692
 2821W        W 6885   4.775   4.585   2.992
 2822W        W 6886   5.103   5.923   1.834
 2823W        W 6887   8.422   4.251  10.328
 2824W        W 6888   6.974   9.404   1.958
 2825W        W 6889   2.263   6.482   3.489
 2826W        W 6890   5.253   1.399  11.178
 2827W        W 6891   7.409   4.194   0.495
 2828W        W 6892   0.301   8.860   2.630
 2829W        W 6893   2.459   0.259   1.027
 2830W        W 6894   7.865   1.355   2.562
 2831W        W 6895   8.219   6.003   2.184
 2832W        W 6896  10.212   8.878  10.266
 2833W        W 6897   1.372   8.809  10.909
 2834W        W 6898   4.257   1.253  10.967
 2835W        W 6899   1.875   8.446   1.206
 2836W        W 6900   3.928   8.800   9.508
 2837W        W 6901   5.192   2.326   3.687
 2838W        W 6902   0.823   9.024   1.147
 2839W        W 6903   7.398   1.839   1.828
 2840W        W 6904   7.668   9.551   8.782
 2841W        W 6905   5.965   0.485   8.635
 2842W        W 6906   8.028   3.828  11.470
 2843W        W 6907   1.322   4.464  10.963
 2844W        W 6908   0.409   4.977   0.685
 2845W        W 6909   8.902   5.801   0.061
 2846W        W 6910   6.968   1.362   8.983
 2847W        W 6911   7.807   9.854  11.147
 2848W        W 6912   6.849   8.495   0.406
 2849W        W 6913   5.156   0.839   9.969
 2850W        W 6914   5.586   5.017  10.342
 2851W        W 6915   3.649   8.573   9.932
 2852W        W 6916   8.800  10.364   1.699
 2853W        W 6917   2.566   3.562   0.338
 2854W        W 6918   8.489   1.472   9.548
 2855W        W 6919   5.026   5.691  10.908
 2856W        W 6920   8.578   9.133   1.019
 2857W        W 6921   3.355   2.646  11.691
 2858W        W 6922   0.109   7.429   2.414
 2859W        W 6923   5.686   2.154  10.417
 2860W        W 6924   5.922   6.074   9.031
 2861W        W 6925   9.473   6.654   9.708
 2862W        W 6926   1.173   4.702   9.955
 2863W        W 6927   9.383   2.292   2.508
 2864W        W 6928   4.707   4.639   8.910
 2865W        W 6929   4.183   2.749   2.674
 2866W        W 6930   3.121   5.317   1.392
 2867W        W 6931   0.907   7.004   2.231
 2868W        W 6932   8.423   0.269   0.240
 2869W        W 6933   1.738   1.243  10.732
 2870W        W 6934  10.413   8.104   0.525
 2871W        W 6935   7.204  10.014   9.737
 2872W        W 6936   3.562   2.862  10.528
 2873W        W 6937   4.112   4.753   4.171
 2874W        W 6938   3.936  10.315  10.342
 2875W        W 6939   0.438   9.971   9.358
 2876W        W 6940   6.086  10.436   2.176
 2877W        W 6941   6.562   8.591  10.590
 2878W        W 6942   2.467   0.593   8.979
 2879W        W 6943   5.625   6.011   1.984
 2880W        W 6944   7.598   4.027   1.951
 2881W        W 6945   9.476   8.570  11.812
 2882W        W 6946   1.906   0.323   9.812
 2883W        W 6947   8.873   7.521   1.842
 2884W        W 6948   7.558   4.212   3.340
 2885W        W 6949   3.242   7.857   9.036
 2886W        W 6950   3.702   8.705   0.404
 2887W        W 6951   1.222   2.398   8.672
 2888W        W 6952   1.219   2.425   0.944
 2889W        W 6953   3.749   9.068   9.901
 2890W        W 6954   0.356   3.245   0.302
 2891W        W 6955   4.367   2.630  11.729
 2892W        W 6956   0.267   7.411   9.194
 2893W        W 6957   8.538   7.512  10.620
 2894W        W 6958   5.255   6.177   2.285
 2895W        W 6959  10.393   0.439   0.665
 2896W        W 6960   1.362   1.195   9.962
 2897W        W 6961   6.909   5.532   8.166
 2898W        W 6962   4.206   8.271  11.710
 2899W        W 6963  10.349   5.431   2.143
 2900W        W 6964   4.466   6.538   8.984
 2901W        W 6965   4.239   4.907   9.100
 2902W        W 6966   1.378   8.470   1.304
 2903W        W 6967   3.457   5.370  11.506
 2904W        W 6968   3.245   3.326  10.449
 2905W        W 6969   3.651   4.034   9.918
 2906W        W 6970   1.784   9.860   1.703
 2907W        W 6971   4.018   2.093   9.370
 2908W        W 6972   9.356   7.506  10.090
 2909W        W 6973   7.548   0.517   3.569
 2910W        W 6974   2.056   9.601   2.353
 2911W        W 6975   0.615   5.376   0.984
 2912W        W 6976   0.404   3.309   8.980
 2913W        W 6977   6.646   5.956   8.298
 2914W        W 6978   2.439   1.678  10.797
 2915W        W 6979   9.228   7.525   0.812
 2916W        W 6980   8.963   1.200  11.881
 2917W        W 6981   6.060   4.679   9.576
 2918W        W 6982   3.114   5.671   9.403
 2919W        W 6983   6.737   6.419   0.421
 2920W        W 6984   0.007   0.758   9.092
 2921W        W 6985   5.519   1.804   3.012
 2922W        W 6986   3.768   5.469   9.800
 2923W        W 6987   6.994   9.349   9.477
 2924W        W 6988   5.808   7.414   8.493
 2925W        W 6989   8.442   9.377   1.460
 2926W        W 6990   2.119   8.873  10.541
 2927W        W 6991   1.700   9.383   1.472
 2928W        W 6992   9.886   5.926   3.290
 2929W        W 6993   1.103   9.425   3.332
 2930W        W 6994   6.509   4.214   3.732
 2931W        W 6995   6.512   8.920  10.990
 2932W        W 6996   6.780   3.612   0.854
 2933W        W 6997   1.751   3.565  11.937
 2934W        W 6998   1.508   8.046   1.023
 2935W        W 6999   0.758   5.700   1.944
 2936W        W 7000   1.672   1.761   3.019
 2937W        W 7001   7.265   6.720   9.399
 2938W        W 7002   2.172   5.689  11.384
 2939W        W 7003   4.770   9.955  10.783
 2940W        W 7004   7.804   5.090  10.364
 2941W        W 7005   9.745   5.021   0.422
 2942W        W 7006   3.419   8.834   9.541
 2943W        W 7007  10.414   8.860  11.728
 2944W        W 7008   6.448   5.598   9.907
 2945W        W 7009   1.215   4.020   2.816
 2946W        W 7010   9.498   9.129   1.851
 2947W        W 7011   1.850  10.248   9.227
 2948W        W 7012   8.369   4.662  11.952
 2949W        W 7013   4.056  10.458   0.151
 2950W        W 7014   2.573   1.612   1.805
 2951W        W 7015   0.304   9.089   9.835
 2952W        W 7016   8.492   1.219   0.070
 2953W        W 7017   5.062  10.390   0.905
 2954W        W 7018   7.452   0.347   9.835
 2955W        W 7019   6.047   9.564   2.999
 2956W        W 7020   8.791   4.531  11.009
 2957W        W 7021   8.498   4.717  10.056
 2958W        W 7022   0.976   2.613   0.058
 2959W        W 7023   6.691   2.415   1.305
 2960W        W 7024   3.840   2.206   0.056
 2961W        W 7025   7.042   4.677   2.402
 2962W        W 7026   6.001   6.161  10.900
 2963W        W 7027   2.405   3.233   3.390
 2964W        W 7028   6.606   7.285   9.100
 2965W        W 7029  10.267   8.784   0.702
 2966W        W 7030   4.120   0.009  11.312
 2967W        W 7031   2.643  10.430   0.675
 2968W        W 7032   7.904   6.370   8.572
 2969W        W 7033   2.721   9.012   2.735
 2970W        W 7034   0.715   2.169   9.512
 2971W        W 7035   5.999   3.749   1.817
 2972W        W 7036   2.143   2.867  10.401
 2973W        W 7037   7.649   5.956   7.845
 2974W        W 7038  10.443   3.867   3.224
 2975W        W 7039   1.359   1.201  11.046
 2976W        W 7040   2.616   8.381  11.725
 2977W        W 7041   2.914   4.207   2.296
 2978W        W 7042   1.367   7.188   2.319
 2979W        W 7043   9.345   4.271   9.018
 2980W        W 7044   8.814   7.124   8.386
 2981W        W 7045   9.924   5.731   0.938
 2982W        W 7046   7.534   6.787   2.424
 2983W        W 7047   7.176   5.133   7.970
 2984W        W 7048   4.094   3.646   9.358
 2985W        W 7049   2.148   8.008   3.050
 2986W        W 7050   8.586   0.239   8.872
 2987W        W 7051   0.290   8.426   2.199
 2988W        W 7052   9.591   8.093  11.412
 2989W        W 7053   2.816   9.545  10.337
 2990W        W 7054   3.854   2.670  11.768
 2991W        W 7055   8.870   7.283   2.692
 2992W        W 7056   2.352   2.538   0.190
 2993W        W 7057   8.384   8.811   3.309
 2994W        W 7058   1.783   3.320  10.526
 2995W        W 7059  10.377   0.586  10.981
 2996W        W 7060   1.131   0.693   9.996
 2997W        W 7061   9.435   1.301  11.326
 2998W        W 7062   9.505   6.064   9.477
 2999W        W 7063   6.127   4.228   1.712
 3000W        W 7064   5.444   7.100   8.252
 3001W        W 7065   5.584   9.349   2.841
 3002W        W 7066   0.917   8.162   1.692
 3003W        W 7067   4.625   7.507   0.817
 3004W        W 7068   4.126   3.803  10.385
 3005W        W 7069   0.266   0.727   0.457
 3006W        W 7070   3.672   7.470   1.368
 3007W        W 7071   3.857   5.213   8.076
 3008W        W 7072   1.250   8.548   1.791
 3009W        W 7073   4.744   2.254   1.721
 3010W        W 7074   6.525   2.228  10.976
 3011W        W 7075   8.949   8.214   2.468
 3012W        W 7076   9.058   3.752   3.351
 3013W        W 7077  10.438   3.801   9.371
 3014W        W 7078   6.609   8.181   0.772
 3015W        W 7079   8.866   9.466   0.294
 3016W        W 7080   5.661   8.357   9.000
 3017W        W 7081   2.226   3.737   9.298
 3018W        W 7082   9.124   6.513  10.053
 3019W        W 7083   3.354   3.155   9.580
 3020W        W 7084   5.237   1.787   9.324
 3021W        W 7085   3.996   8.026  10.756
 3022W        W 7086   6.907   4.246  10.875
 3023W        W 7087   0.785   8.023   3.213
 3024W        W 7088   8.343   9.733  10.416
 3025W        W 7089   5.011   7.120  10.479
 3026W        W 7090   0.959   0.931   0.024
 3027W        W 7091   0.888  10.402   9.068
 3028W        W 7092   7.790   4.004   8.957
 3029W        W 7093   3.709   5.478   3.951
 3030W        W 7094   6.528   2.637  11.392
 3031W        W 7095   8.696   7.676   3.595
 3032W        W 7096   6.927   1.777   0.213
 3033W        W 7097   1.245   3.966  10.924
 3034W        W 7098   4.064   3.056   8.493
 3035W        W 7099  10.377   9.724   1.913
 3036W        W 7100   3.058   2.620   0.089
 3037W        W 7101   0.489   0.982   3.550
 3038W        W 7102   0.037   2.632   2.805
 3039W        W 7103   7.598   2.249   2.191
 3040W        W 7104   1.260   8.103   3.037
 3041W        W 7105   9.450   7.332  11.087
 3042W        W 7106   1.979   4.390   3.280
 3043W        W 7107   3.098   1.846   2.453
 3044W        W 7108   4.406   2.005  11.400
 3045W        W 7109   4.531   1.305   8.924
 3046W        W 7110   2.206   0.680   0.909
 3047W        W 7111   9.953   5.864  10.082
 3048W        W 7112   9.379   3.805   9.321
 3049W        W 7113   3.440   4.283   3.137
 3050W        W 7114   6.657   1.139   3.140
 3051W        W 7115   9.353   1.999   9.359
 3052W        W 7116   5.656   0.328   0.481
 3053W        W 7117   8.388   7.352   0.347
 3054W        W 7118   3.661   4.641   3.905
 3055W        W 7119   0.818   6.177   1.773
 3056W        W 7120   0.197   5.591   8.752
 3057W        W 7121   9.027   6.226   0.376
 3058W        W 7122   8.733   3.540  10.241
 3059W        W 7123   8.571   6.930  11.276
 3060W        W 7124   9.873   6.610  11.934
 3061W        W 7125   3.822   4.659   2.922
 3062W        W 7126   4.952   9.030   0.363
 3063W        W 7127   6.719  10.047   9.889
 3064W        W 7128   6.248   5.899   8.663
 3065W        W 7129   8.974   7.451   1.346
 3066W        W 7130   5.564   7.950   0.807
 3067W        W 7131   5.313   3.102  10.391
 3068W        W 7132   5.955   1.388   0.700
 3069W        W 7133   5.786   3.641   0.944
 3070W        W 7134   1.385   6.351   0.440
 3071W        W 7135   3.640   3.107  11.570
 3072W        W 7136   0.559   6.382   2.912
 3073W        W 7137   4.634   6.967   0.941
 3074W        W 7138   0.828   6.898  11.860
 3075W        W 7139   9.437   3.779   0.959
 3076W        W 7140   7.560   1.150   2.945
 3077W        W 7141   7.028   2.143   1.019
 3078W        W 7142   8.902   4.035  10.990
 3079W        W 7143   3.570   7.562   8.762
 3080W        W 7144   3.280   0.757   9.264
 3081W        W 7145   3.689   4.156   1.080
 3082W        W 7146  10.344   7.465   1.714
 3083W        W 7147   6.053   9.941   1.316
 3084W        W 7148  10.412  10.349   9.089
 3085W        W 7149   8.622   8.082   0.589
 3086W        W 7150   7.596   7.569   1.024
 3087W        W 7151   5.355   7.494   8.739
 3088W        W 7152   2.228   1.430   2.156
 3089W        W 7153   6.447   4.058  10.757
 3090W        W 7154   9.923   8.431  10.405
 3091W        W 7155   1.633   4.301   2.748
 3092W        W 7156   2.379   8.147   1.902
 3093W        W 7157   8.366   3.137  11.810
 3094W        W 7158   6.730  10.233  11.949
 3095W        W 7159   9.896   3.515  10.034
 3096W        W 7160   5.256   4.524   1.275
 3097W        W 7161   2.969   1.793   3.500
 3098W        W 7162   0.854   4.281   8.547
 3099W        W 7163   7.173   8.040   3.527
 3100W        W 7164   6.817   8.337   3.198
 3101W        W 7165   5.539   6.374  10.739
 3102W        W 7166   2.145   8.926   3.203
 3103W        W 7167   6.054   8.541   1.383
 3104W        W 7168   1.853   4.539  11.984
 3105W        W 7169   9.976   0.389   9.717
 3106W        W 7170   6.099   8.157   2.819
 3107W        W 7171   3.900   5.937   4.095
 3108W        W 7172   5.056   5.145   9.597
 3109W        W 7173   7.009   9.011  10.787
 3110W        W 7174   8.911   1.729  10.069
 3111W        W 7175   7.335   0.963   1.571
 3112W        W 7176   9.870   4.832   9.003
 3113W        W 7177   2.737   2.865   3.188
 3114W        W 7178   7.900   2.453  10.038
 3115W        W 7179   4.692   1.073  10.709
 3116W        W 7180   7.127   5.680  10.495
 3117W        W 7181   2.726   3.248   2.484
 3118W        W 7182   5.995   5.243   9.941
 3119W        W 7183   1.335   6.684   2.512
 3120W        W 7184   7.835   5.221   3.200
 3121W        W 7185   9.754   1.728   9.483
 3122W        W 7186   6.526   3.147  11.211
 3123W        W 7187   7.040   0.966   3.459
 3124W        W 7188   5.977   0.025   0.238
 3125W        W 7189   7.415   8.524   0.385
 3126W        W 7190   8.477   4.789   8.926
 3127W        W 7191   8.595   5.750   1.274
 3128W        W 7192   8.941   6.443   2.469
 3129W        W 7193   7.460   2.649   2.480
 3130W        W 7194   3.727   5.105  11.136
 3131W        W 7195   3.008   9.385  10.801
 3132W        W 7196   4.033   0.437   9.219
 3133W        W 7197   3.996   1.863   2.327
 3134W        W 7198   8.165   0.537   1.959
 3135W        W 7199   8.142   5.568  10.300
 3136W        W 7200   3.789  10.381   3.231
 3137W        W 7201   5.113   9.000   9.450
 3138W        W 7202   0.185   3.096  11.529
 3139W        W 7203   8.831   5.072  10.891
 3140W        W 7204   0.895   9.988   0.668
 3141W        W 7205   5.445   5.112   3.183
 3142W        W 7206   7.944   0.751   9.231
 3143W        W 7207   9.568   1.224   9.747
 3144W        W 7208   2.291   4.354   9.085
 3145W        W 7209   9.304   8.046  11.856
 3146W        W 7210   5.116   9.958   3.067
 3147W        W 7211   5.572   5.360  10.745
 3148W        W 7212   2.246   6.583   2.543
 3149W        W 7213   5.687   2.145  11.484
 3150W        W 7214   5.923   1.402   9.096
 3151W        W 7215   7.701   5.164   8.460
 3152W        W 7216   9.874   0.208   3.367
 3153W        W 7217   0.429   4.243   8.823
 3154W        W 7218  10.397   2.328  10.377
 3155W        W 7219   4.827   6.937   2.984
 3156W        W 7220   9.435   1.018  10.894
 3157W        W 7221   9.912   9.399   1.943
 3158W        W 7222   3.692   2.643   8.692
 3159W        W 7223   7.896   6.835   8.755
 3160W        W 7224   4.666   5.266  11.297
 3161W        W 7225   1.883   7.554  11.658
 3162W        W 7226   4.608   7.305   3.305
 3163W        W 7227   6.234   6.423  11.879
 3164W        W 7228   8.523   5.574   2.188
 3165W        W 7229   0.797   0.323  11.319
 3166W        W 7230   5.177   2.310  11.504
 3167W        W 7231   5.018   8.449   3.499
 3168W        W 7232   2.640   0.850   9.916
 3169W        W 7233   8.755   7.669   2.351
 3170W        W 7234   1.053   1.915   9.892
 3171W        W 7235   8.401  10.358   9.182
 3172W        W 7236   6.037   3.762   2.707
 3173W        W 7237   9.815   9.986   2.678
 3174W        W 7238   7.434   9.771   2.968
 3175W        W 7239   6.897   5.187  10.726
 3176W        W 7240   9.456   3.699   3.040
 3177W        W 7241   4.181   7.263  10.420
 3178W        W 7242   8.532   7.825  10.228
 3179W        W 7243   9.340   1.103   3.187
 3180W        W 7244   1.357   2.748   9.966
 3181W        W 7245   2.174   3.976  10.816
 3182W        W 7246   2.214   5.439   0.352
 3183W        W 7247   4.751   2.745   1.476
 3184W        W 7248   6.197   5.594   9.472
 3185W        W 7249   6.920   0.234  11.772
 3186W        W 7250   0.662   6.394   8.527
 3187W        W 7251   1.816   3.406   9.348
 3188W        W 7252   5.120   6.117   9.605
 3189W        W 7253   6.411   5.114  11.316
 3190W        W 7254   2.335   5.549  10.904
 3191W        W 7255   8.687   5.524  10.575
 3192W        W 7256   0.787   7.449  11.054
 3193W        W 7257   4.530   1.752   0.554
 3194W        W 7258   1.945   2.749   1.565
 3195W        W 7259   0.728   5.207   3.274
 3196W        W 7260   8.607   7.581  11.950
 3197W        W 7261   9.639   1.278   3.564
 3198W        W 7262   2.425   9.129   0.279
 3199W        W 7263   5.999   6.582   8.975
 3200W        W 7264   4.699   2.439  11.398
 3201W        W 7265   2.303   9.145  10.946
 3202W        W 7266   9.074   0.250  10.981
 3203W        W 7267   1.036   1.251   0.509
 3204W        W 7268   7.177   5.986   8.133
 3205W        W 7269   0.514   0.317   3.225
 3206W        W 7270   9.136   8.400   1.508
 3207W        W 7271   6.968   5.905   3.597
 3208W        W 7272   8.334   7.098  10.245
 3209W        W 7273   1.420   3.536  11.117
 3210W        W 7274   3.719   3.586  11.428
 3211W        W 7275   8.100   1.850   9.521
 3212W        W 7276   1.235   2.343   2.303
 3213W        W 7277   5.239   2.397   1.632
 3214W        W 7278   1.259   1.944   2.678
 3215W        W 7279   8.909   9.802   9.723
 3216W        W 7280   9.893  10.434   2.424
 3217W        W 7281   3.412   9.901   0.518
 3218W        W 7282   4.526   5.551  10.878
 3219W        W 7283   3.826   4.374   0.599
 3220W        W 7284   5.313   2.850   0.712
 3221W        W 7285   7.900   7.908   8.997
 3222W        W 7286   0.189   6.453   0.219
 3223W        W 7287   5.225   6.707  10.986
 3224W        W 7288   3.463   5.510   4.398
 3225W        W 7289   7.829   4.405   1.006
 3226W        W 7290   4.747   5.566   3.477
 3227W        W 7291   9.836   3.658   2.201
 3228W        W 7292   8.003   1.316  11.367
 3229W        W 7293   2.172   5.253   2.497
 3230W        W 7294   5.792   0.355   0.970
 3231W        W 7295   0.259   9.081   3.103
 3232W        W 7296   0.938   8.269   9.342
 3233W        W 7297   3.859   8.293   2.811
 3234W        W 7298   2.743  10.475   2.701
 3235W        W 7299   8.638   5.032   1.733
 3236W        W 7300   3.581   3.066   0.950
 3237W        W 7301  10.011   0.784   2.699
 3238W        W 7302   6.133   4.341  10.483
 3239W        W 7303   8.446   4.093   3.240
 3240W        W 7304  10.499  10.356   8.580
 3241W        W 7305   7.376   3.528   9.493
 3242W        W 7306   9.285   8.099   1.127
 3243W        W 7307   5.566   5.243   8.976
 3244W        W 7308   4.184   8.523  10.703
 3245W        W 7309   1.946   0.238   0.780
 3246W        W 7310   1.005   0.802   2.689
 3247W        W 7311   2.686   0.231   8.674
 3248W        W 7312   8.449   9.058   9.768
 3249W        W 7313   9.943   7.561   0.249
 3250W        W 7314  10.301   9.339  11.729
 3251W        W 7315   0.252   4.718   9.035
 3252W        W 7316   3.767   9.438   1.142
 3253W        W 7317   4.730  10.348  11.095
 3254W        W 7318   2.688   6.005   1.057
 3255W        W 7319   2.421   0.377   0.527
 3256W        W 7320   9.346   0.857  10.394
 3257W        W 7321   5.994   9.534  11.499
 3258W        W 7322   0.735   1.465  10.778
 3259W        W 7323   6.884   7.211  10.462
 3260W        W 7324   6.162   7.497   9.824
 3261W        W 7325  10.063   1.780   0.780
 3262W        W 7326   6.242   3.938   9.227
 3263W        W 7327   8.526   6.672   9.843
 3264W        W 7328   2.142   0.561   2.350
 3265W        W 7329   4.097   8.439   3.274
 3266W        W 7330   4.150   5.648   3.700
 3267W        W 7331   1.312   3.259   9.276
 3268W        W 7332   8.916   3.159   2.713
 3269W        W 7333   9.181   2.271  11.306
 3270W        W 7334   8.947   5.433   1.499
 3271W        W 7335   6.219   4.459  11.040
 3272W        W 7336   0.424   3.232  10.814
 3273W        W 7337   5.648   6.044   3.759
 3274W        W 7338   1.704   8.947   2.779
 3275W        W 7339   8.010   5.585   2.878
 3276W        W 7340   5.664   1.206  11.446
 3277W        W 7341   2.917   5.454   2.458
 3278W        W 7342   0.513  10.251   2.439
 3279W        W 7343   1.918   8.410   9.084
 3280W        W 7344   3.111   6.155  10.980
 3281W        W 7345   3.249   5.319   9.765
 3282W        W 7346   7.818   3.650   1.628
 3283W        W 7347   6.781  10.078   0.800
 3284W        W 7348   1.175   0.507  10.511
 3285W        W 7349   0.246  10.099  10.059
 3286W        W 7350   0.974  10.369   2.757
 3287W        W 7351   3.311   8.932  10.792
 3288W        W 7352   8.158   8.843   8.868
 3289W        W 7353  10.358   8.360  11.751
 3290W        W 7354   2.154   2.759  11.381
 3291W        W 7355   6.385   0.897   1.250
 3292W        W 7356   0.772   9.468   1.401
 3293W        W 7357   6.606   8.237   8.788
 3294W        W 7358   7.548   8.673   9.757
 3295W        W 7359   6.243  10.109   0.015
 3296W        W 7360   9.549   1.948   0.987
 3297W        W 7361   0.863   6.515   1.377
 3298W        W 7362  10.365   2.414  10.871
 3299W        W 7363   6.941  10.387   2.211
 3300W        W 7364   1.885   2.370   1.922
 3301W        W 7365   1.972   4.602   9.921
 3302W        W 7366   5.172   9.445   3.180
 3303W        W 7367   5.512   0.861   3.564
 3304W        W 7368   8.949   3.256   9.830
 3305W        W 7369  10.186   4.909   0.217
 3306W        W 7370   3.870   7.790   2.749
 3307W        W 7371   3.833   8.231   0.447
 3308W        W 7372   8.686   9.950   9.295
 3309W        W 7373   4.627   6.890   1.444
 3310W        W 7374   3.799   5.946  10.510
 3311W        W 7375   9.288   4.444  11.020
 3312W        W 7376   8.318   7.572   9.848
 3313W        W 7377   9.885   4.619   1.277
 3314W        W 7378   9.454   7.650   1.267
 3315W        W 7379   3.172   4.015   0.870
 3316W        W 7380   2.898   4.390   0.537
 3317W        W 7381   0.483   2.817  11.125
 3318W        W 7382   8.811   2.586  11.580
 3319W        W 7383   8.168   6.014   0.188
 3320W        W 7384   3.401   0.274  11.688
 3321W        W 7385   6.467   7.941   1.243
 3322W        W 7386   0.793   3.507   1.546
 3323W        W 7387   9.491   6.663  11.167
 3324W        W 7388   6.490   5.670   0.623
 3325W        W 7389   7.456   9.810   0.039
 3326W        W 7390   4.287   0.858   2.061
 3327W        W 7391   3.683   2.295  11.031
 3328W        W 7392   7.803   4.826   0.640
 3329W        W 7393  10.311   1.319   0.788
 3330W        W 7394   4.615   3.204   1.295
 3331W        W 7395   8.035   0.793   8.715
 3332W        W 7396   2.035   1.800   3.479
 3333W        W 7397   5.936   4.054  10.904
 3334W        W 7398   4.059   8.402   8.695
 3335W        W 7399   8.780   4.288  11.891
 3336W        W 7400   6.023   5.122   8.764
 3337W        W 7401   1.524   9.427   2.569
 3338W        W 7402   2.208   8.935   2.687
 3339W        W 7403   8.060   8.408  10.229
 3340W        W 7404   1.040   0.237   3.145
 3341W        W 7405   7.305   4.008   9.980
 3342W        W 7406   1.674   2.203   3.264
 3343W        W 7407   0.911   5.285   9.304
 3344W        W 7408   8.147   5.065   1.583
 3345W        W 7409   2.557   9.895   3.302
 3346W        W 7410   5.460   4.822  11.830
 3347W        W 7411  10.327   9.810   3.335
 3348W        W 7412  10.463   6.122   1.483
 3349W        W 7413   4.258   7.504   2.555
 3350W        W 7414   6.606   9.753   2.126
 3351W        W 7415  10.411   1.418  11.882
 3352W        W 7416   9.009   7.030   1.694
 3353W        W 7417   0.251   9.460   1.475
 3354W        W 7418   7.876   3.564   2.160
 3355W        W 7419   2.970   5.117   0.002
 3356W        W 7420   5.476   6.563   8.940
 3357W        W 7421   6.042   2.231   8.761
 3358W        W 7422   3.830   7.118   8.606
 3359W        W 7423   3.824   8.902  10.736
 3360W        W 7424   8.122   8.970   0.885
 3361W        W 7425   5.207   2.658  10.097
 3362W        W 7426   0.982   9.488  10.569
 3363W        W 7427   3.146   1.366  11.795
 3364W        W 7428   7.476   5.543   8.137
 3365W        W 7429   6.780  10.463  10.169
 3366W        W 7430   6.694   5.067   2.293
 3367W        W 7431   0.311   0.274   2.524
 3368W        W 7432   6.892   9.422  11.053
 3369W        W 7433   5.984   8.956   2.225
 3370W        W 7434  10.120   4.303   9.460
 3371W        W 7435   9.147   6.461   2.936
 3372W        W 7436   7.128   1.906  10.454
 3373W        W 7437   5.943   5.134  11.026
 3374W        W 7438   2.687   5.521   1.227
 3375W        W 7439   6.950   2.514  11.048
 3376W        W 7440   9.493   1.156   1.822
 3377W        W 7441   1.763   0.344  10.878
 3378W        W 7442   4.949  10.070  11.600
 3379W        W 7443   6.470   3.100   9.815
 3380W        W 7444   1.189   3.962   0.578
 3381W        W 7445   0.451   6.250   1.152
 3382W        W 7446   5.143   5.735   0.758
 3383W        W 7447   2.564   8.628  10.483
 3384W        W 7448   9.535   9.573   2.878
 3385W        W 7449   1.325   7.041  11.952
 3386W        W 7450   2.333   8.081   8.696
 3387W        W 7451   6.439   8.855   1.973
 3388W        W 7452   9.350   8.658   0.571
 3389W        W 7453  10.347   5.028   2.902
 3390W        W 7454   4.651   7.786   3.197
 3391W        W 7455   7.557   8.069  11.440
 3392W        W 7456   4.716   7.038  11.958
 3393W        W 7457   3.350   2.165   0.130
 3394W        W 7458   4.668   9.406   2.460
 3395W        W 7459   4.981   9.071   0.901
 3396W        W 7460   1.108  10.469   1.832
 3397W        W 7461   6.328   9.287  11.801
 3398W        W 7462   4.578   0.819   8.138
 3399W        W 7463   8.107   6.717  11.049
 3400W        W 7464  10.353   2.305   3.510
 3401W        W 7465   8.753   8.056   8.812
 3402W        W 7466   4.676   3.629  10.624
 3403W        W 7467   7.219   4.717   8.990
 3404W        W 7468   4.145   8.146   1.148
 3405W        W 7469   3.531   5.602   1.462
 3406W        W 7470   8.437   2.158   2.773
 3407W        W 7471  10.354   1.791   3.354
 3408W        W 7472   6.549   6.115  10.415
 3409W        W 7473   8.995   2.385   3.260
 3410W        W 7474   4.244   4.907   0.476
 3411W        W 7475   5.061   7.617  11.549
 3412W        W 7476   8.863   0.621  11.260
 3413W        W 7477   5.146   0.475   3.553
 3414W        W 7478   2.051   8.888   9.307
 3415W        W 7479   5.609   1.406   2.541
 3416W        W 7480   5.041   4.305   1.681
 3417W        W 7481   7.064  10.348   3.611
 3418W        W 7482   9.405   4.535  11.648
 3419W        W 7483   4.604   1.505   1.018
 3420W        W 7484   6.595  10.371  10.618
 3421W        W 7485   6.497   3.543   9.498
 3422W        W 7486   6.099   5.106   0.412
 3423W        W 7487   2.874   1.289   3.478
 3424W        W 7488   4.463   8.580  10.277
 3425W        W 7489   3.469   1.887   3.411
 3426W        W 7490   5.732   5.544   3.193
 3427W        W 7491   7.038   7.362  11.159
 3428W        W 7492   7.398   3.391   0.282
 3429W        W 7493   3.680   5.980   1.138
 3430W        W 7494   6.311   6.428   8.599
 3431W        W 7495   5.385   1.727   2.166
 3432W        W 7496   4.744   2.184   2.247
 3433W        W 7497   1.066   7.878   0.768
 3434W        W 7498   7.189   8.430   2.263
 3435W        W 7499   5.940   5.634   1.736
 3436W        W 7500   7.997   0.937   3.297
 3437W        W 7501   5.443   4.309   8.985
 3438W        W 7502   7.723   6.395   1.391
 3439W        W 7503   6.043   6.005   3.283
 3440W        W 7504  10.186   3.174  11.450
 3441W        W 7505   9.905   7.042   1.354
 3442W        W 7506   8.052   6.706  10.037
 3443W        W 7507   9.838   1.861  11.418
 3444W        W 7508   6.422   5.163   0.013
 3445W        W 7509   9.418   5.428  11.765
 3446W        W 7510   4.056   0.426   2.785
 3447W        W 7511  10.298   4.422   0.211
 3448W        W 7512   1.819   2.140   9.257
 3449W        W 7513   0.265   0.422  11.699
 3450W        W 7514   1.303   1.382   1.016
 3451W        W 7515  10.354   5.190  10.909
 3452W        W 7516   4.375   2.591   1.133
 3453W        W 7517   1.738   8.436  10.036
 3454W        W 7518   4.789   4.517   1.009
 3455W        W 7519   1.264   6.766  11.538
 3456W        W 7520   3.295   7.385   3.176
 3457W        W 7521   1.253   1.399  10.551
 3458W        W 7522   1.405  10.381  10.820
 3459W        W 7523   0.417   3.763   0.393
 3460W        W 7524   3.739   7.994   8.500
 3461W        W 7525   2.522   1.227  11.391
 3462W        W 7526   5.110   4.604   2.105
 3463W        W 7527   2.865   9.367   0.253
 3464W        W 7528   3.924   1.874  11.235
 3465W        W 7529   9.419   4.705   8.726
 3466W        W 7530   2.838   8.461   9.390
 3467W        W 7531  10.274   5.198   1.252
 3468W        W 7532   6.084   0.934  11.449
 3469W        W 7533  10.372   7.737  10.870
 3470W        W 7534   3.235   0.346  10.269
 3471W        W 7535   4.718   0.464   0.501
 3472W        W 7536   6.914   5.770  10.037
 3473W        W 7537   7.203   9.027  11.698
 3474W        W 7538   6.519   7.785   1.728
 3475W        W 7539   1.599   9.438   9.638
 3476W        W 7540   4.284   6.115   2.441
 3477W        W 7541   8.585   6.801   2.478
 3478W        W 7542   5.188   0.347   0.699
 3479W        W 7543   8.514   0.416   9.942
 3480W        W 7544   1.427   7.246  11.449
 3481W        W 7545   9.977   7.001   9.056
 3482W        W 7546   7.024   7.396   8.730
 3483W        W 7547   4.185   9.349   8.809
 3484W        W 7548   2.599   6.663   1.822
 3485W        W 7549   6.197   2.317  11.775
 3486W        W 7550   5.011   3.337   1.791
 3487W        W 7551   9.331   6.625   0.489
 3488W        W 7552   8.859   2.854   1.903
 3489W        W 7553  10.279   7.437   9.010
 3490W        W 7554   4.914   6.387   8.201
 3491W        W 7555   9.846   5.698   2.834
 3492W        W 7556   7.975   1.420   3.076
 3493W        W 7557   5.543   6.126   8.675
 3494W        W 7558   0.312   8.118   9.819
 3495W        W 7559   1.018   2.697   1.929
 3496W        W 7560   8.413   8.552   1.803
 3497W        W 7561   6.837   6.597   8.532
 3498W        W 7562   1.057   2.610   1.412
 3499W        W 7563   7.426   0.014  11.398
 3500W        W 7564   9.553   2.029  10.814
 3501W        W 7565   8.356   5.223   9.975
 3502W        W 7566   2.056   7.400  10.621
 3503W        W 7567   0.260   2.731  10.663
 3504W        W 7568   5.743   3.877   0.094
 3505W        W 7569   2.837   7.878   0.444
 3506W        W 7570   7.459   0.479   8.971
 3507W        W 7571   3.248   1.505   3.151
 3508W        W 7572   2.397   0.622  11.828
 3509W        W 7573   4.692   6.382  10.251
 3510W        W 7574   2.126  10.373   1.863
 3511W        W 7575   3.341   5.061   8.772
 3512W        W 7576   9.120   8.677   2.803
 3513W        W 7577   8.485   7.408   9.399
 3514W        W 7578   4.245   0.801   8.927
 3515W        W 7579  10.464   9.783   9.315
 3516W        W 7580   1.310   8.888   9.985
 3517W        W 7581   7.403   3.555   1.920
 3518W        W 7582   1.658   5.722   9.218
 3519W        W 7583   5.632   2.206   0.924
 3520W        W 7584   6.839   9.119   0.610
 3521W        W 7585   6.048   7.485   0.787
 3522W        W 7586   4.191   2.227   0.446
 3523W        W 7587   5.149   5.150  10.568
 3524W        W 7588   9.659  10.395   1.441
 3525W        W 7589   4.068   1.236   9.126
 3526W        W 7590   0.492   1.858   9.121
 3527W        W 7591   3.017   7.398   8.861
 3528W        W 7592   1.447   7.579   1.882
 3529W        W 7593   6.395   4.000   8.137
 3530W        W 7594   7.661   5.893   1.412
 3531W        W 7595   6.892   2.186   0.522
 3532W        W 7596   8.422   4.632   1.483
 3533W        W 7597   9.008   3.646   0.678
 3534W        W 7598   3.276   6.975  11.288
 3535W        W 7599   7.397   7.049  11.330
 3536W        W 7600   5.533   1.246   2.050
 3537W        W 7601  10.405   8.748   2.230
 3538W        W 7602  10.257   1.513  10.700
 3539W        W 7603   0.335   8.855   1.184
 3540W        W 7604   2.910   1.137   1.973
 3541W        W 7605   2.653   3.595   1.627
 3542W        W 7606   3.150   5.778   1.135
 3543W        W 7607   8.432   8.398   0.238
 3544W        W 7608   0.346   0.519  11.179
 3545W        W 7609   9.859   3.725   2.718
 3546W        W 7610   2.359   8.632  10.961
 3547W        W 7611   0.349   6.751  11.701
 3548W        W 7612  10.415   7.056   1.394
 3549W        W 7613   4.112   6.176   3.677
 3550W        W 7614   3.879  10.427   2.709
 3551W        W 7615  10.038  10.454  11.502
 3552W        W 7616   6.031   9.115   2.703
 3553W        W 7617   0.023   9.921   0.388
 3554W        W 7618   8.580   1.893  11.192
 3555W        W 7619   9.110   6.495   0.954
 3556W        W 7620  10.439   5.654  10.107
 3557W        W 7621   4.527   6.433   0.696
 3558W        W 7622   8.142   4.873  11.503
 3559W        W 7623   9.548   5.025  11.471
 3560W        W 7624   9.465   3.574   0.459
 3561W        W 7625   7.604   6.073   3.442
 3562W        W 7626  10.371   1.177   9.363
 3563W        W 7627  10.470   4.778  11.791
 3564W        W 7628   5.312   9.497   3.673
 3565W        W 7629   8.374   9.858   3.153
 3566W        W 7630   5.086   9.516   9.752
 3567W        W 7631   4.699   8.386   2.585
 3568W        W 7632   5.845   4.028   9.585
 3569W        W 7633   6.517   6.204   3.525
 3570W        W 7634   8.640   8.582   2.690
 3571W        W 7635   1.688   6.511  11.566
 3572W        W 7636   5.521   7.823   1.383
 3573W        W 7637   8.886  10.338   3.462
 3574W        W 7638   0.870   3.182   1.950
 3575W        W 7639   2.854  10.295   3.169
 3576W        W 7640  10.326   9.068   2.808
 3577W        W 7641   4.244   3.175   0.366
 3578W        W 7642   5.431   9.899  11.525
 3579W        W 7643   9.798   0.441   8.688
 3580W        W 7644   6.886   0.094   0.265
 3581W        W 7645   3.713   4.648   3.403
 3582W        W 7646   8.593   6.886   9.374
 3583W        W 7647   7.608   6.066   8.865
 3584W        W 7648   8.795   0.043   0.464
 3585W        W 7649   4.408   5.938   3.323
 3586W        W 7650   2.064   5.213  11.198
 3587W        W 7651   7.674   4.107   1.442
 3588W        W 7652   1.595   1.291   1.448
 3589W        W 7653   7.683   8.528   2.356
 3590W        W 7654   6.886   5.097   8.832
 3591W        W 7655   1.796   6.034   1.260
 3592W        W 7656   0.973   2.832  11.120
 3593W        W 7657   5.912   5.133   2.926
 3594W        W 7658   5.482  10.402   8.914
 3595W        W 7659   2.186   3.346  10.207
 3596W        W 7660   9.749   0.364   2.890
 3597W        W 7661   6.148   8.480   2.401
 3598W        W 7662   2.178   1.826   2.988
 3599W        W 7663   6.006   7.940   9.609
 3600W        W 7664   7.618   3.114   2.280
 3601W        W 7665   7.404  10.019   3.423
 3602W        W 7666   4.492   3.613   0.525
 3603W        W 7667   3.843   6.690  10.928
 3604W        W 7668   6.905   1.222   2.694
 3605W        W 7669   1.485   8.309  10.841
 3606W        W 7670   8.268   9.882  11.399
 3607W        W 7671  10.411   0.269  11.372
 3608W        W 7672   9.363   9.161   9.101
 3609W        W 7673   6.481   2.609   9.544
 3610W        W 7674   3.631   1.252   8.865
 3611W        W 7675   5.967   9.023   0.678
 3612W        W 7676   9.336   9.892  11.320
 3613W        W 7677   4.183   6.706   3.746
 3614W        W 7678   4.681   9.202   8.690
 3615W        W 7679   0.140   1.875   2.606
 3616W        W 7680   7.058   9.638   9.005
 3617W        W 7681   6.684   4.486  11.270
 3618W        W 7682   0.919   6.584  10.550
 3619W        W 7683   9.005   4.277  11.424
 3620W        W 7684   6.524   7.680   0.823
 3621W        W 7685   9.719   2.699   2.500
 3622W        W 7686   8.093  10.406   2.790
 3623W        W 7687   9.995  10.464   8.388
 3624W        W 7688   6.383   9.289   2.301
 3625W        W 7689   4.139   4.275   8.549
 3626W        W 7690   1.123   6.450   2.096
 3627W        W 7691   1.991   8.957   1.366
 3628W        W 7692   4.214   7.012   8.929
 3629W        W 7693   2.118   0.773   1.873
 3630W        W 7694   9.969   0.843   9.008
 3631W        W 7695   6.981   5.015   3.431
 3632W        W 7696   5.234   5.287   0.963
 3633W        W 7697   8.788   9.928  11.269
 3634W        W 7698   8.589   5.714  10.024
 3635W        W 7699   4.702   0.826   9.166
 3636W        W 7700   4.296   9.484   0.377
 3637W        W 7701   0.356   9.480   9.098
 3638W        W 7702   5.664   8.295   1.683
 3639W        W 7703   7.027   4.502   2.899
 3640W        W 7704   4.697   8.141   8.972
 3641W        W 7705   2.120   5.572   1.813
 3642W        W 7706  10.284   3.587   2.462
 3643W        W 7707   5.560   2.260  10.977
 3644W        W 7708   7.481   5.617   8.650
 3645W        W 7709   5.133   3.524   2.274
 3646W        W 7710   0.696   9.439  11.989
 3647W        W 7711   0.913   6.005   8.753
 3648W        W 7712   7.341   8.925   2.391
 3649W        W 7713   3.747   7.943   0.899
 3650W        W 7714   1.768   3.384   2.170
 3651W        W 7715   0.812   0.752   0.506
 3652W        W 7716   6.922   3.449   1.302
 3653W        W 7717   3.848   3.198   0.017
 3654W        W 7718   8.066   7.903   9.491
 3655W        W 7719   4.312   0.148  10.442
 3656W        W 7720   0.957   4.695  11.229
 3657W        W 7721   5.402   6.621   8.037
 3658W        W 7722   3.715   4.829   0.422
 3659W        W 7723   2.867   5.961   1.549
 3660W        W 7724   7.186   8.076   0.299
 3661W        W 7725   3.174   1.376   0.690
 3662W        W 7726   5.025   6.647  11.829
 3663W        W 7727   8.021   1.246   1.394
 3664W        W 7728   7.098   3.587   2.787
 3665W        W 7729   1.181   9.839  10.246
 3666W        W 7730   5.085   0.873   0.470
 3667W        W 7731  10.463   6.642  10.056
 3668W        W 7732   6.076   5.978   0.830
 3669W        W 7733   7.132   0.480   1.542
 3670W        W 7734   4.295  10.435   3.143
 3671W        W 7735   4.029   1.775   0.706
 3672W        W 7736   0.477   9.513  11.496
 3673W        W 7737   6.050   3.646   8.835
 3674W        W 7738   0.518   2.790   1.952
 3675W        W 7739   8.901   7.116  10.699
 3676W        W 7740   9.086   2.167   1.090
 3677W        W 7741   6.836   8.044   2.029
 3678W        W 7742   5.706   7.558  10.926
 3679W        W 7743   0.763   0.525  10.847
 3680W        W 7744   5.493   6.909  11.462
 3681W        W 7745   1.967   9.521   3.286
 3682W        W 7746   5.034   8.781   1.899
 3683W        W 7747   2.269   3.318   1.345
 3684W        W 7748   0.734   0.370   2.766
 3685W        W 7749   1.261   6.952   3.485
 3686W        W 7750   5.090   4.119   3.730
 3687W        W 7751   6.274   3.276   1.781
 3688W        W 7752   8.842   7.612   0.470
 3689W        W 7753   5.876   3.027   3.172
 3690W        W 7754   3.081   9.903   1.391
 3691W        W 7755  10.490   8.405   9.538
 3692W        W 7756   7.432   8.146   8.953
 3693W        W 7757   5.954   4.940  11.910
 3694W        W 7758   1.918   3.449   2.811
 3695W        W 7759   0.881   8.429   2.895
 3696W        W 7760   0.079   7.674  11.691
 3697W        W 7761   4.091   3.385   8.911
 3698W        W 7762   8.384   4.567   9.400
 3699W        W 7763   4.537   2.144   9.353
 3700W        W 7764   2.616   4.279  11.022
 3701W        W 7765   2.853   6.665  10.023
 3702W        W 7766   4.992   2.822   9.098
 3703W        W 7767   8.813   4.764   3.591
 3704W        W 7768   3.272  10.168   0.972
 3705W        W 7769   1.890   2.839   0.370
 3706W        W 7770   7.396  10.167  11.004
 3707W        W 7771  10.108   7.817   0.885
 3708W        W 7772   1.478   4.133  11.372
 3709W        W 7773   6.842   5.568   2.388
 3710W        W 7774   9.472   6.328   0.112
 3711W        W 7775   2.350   1.346   3.500
 3712W        W 7776   2.236   2.218  10.019
 3713W        W 7777   8.564   4.554  11.482
 3714W        W 7778   8.517   8.075   9.280
 3715W        W 7779   5.016   6.211   8.682
 3716W        W 7780   5.170  10.044   2.479
 3717W        W 7781   1.130   4.194   3.629
 3718W        W 7782   7.507   1.642   2.806
 3719W        W 7783   7.432   4.771   2.716
 3720W        W 7784   0.677   0.872   9.858
 3721W        W 7785   5.060   2.454  11.025
 3722W        W 7786   7.569   2.189   0.234
 3723W        W 7787   1.381   2.419   0.436
 3724W        W 7788   1.294   8.464   9.717
 3725W        W 7789   8.180   0.971  10.042
 3726W        W 7790   5.958   8.665  10.435
 3727W        W 7791   8.894   8.492   0.433
 3728W        W 7792   3.157   2.254   3.602
 3729W        W 7793   0.941   6.039  11.874
 3730W        W 7794  10.154   7.933  11.550
 3731W        W 7795   5.609   3.889   8.625
 3732W        W 7796   6.961   7.544   2.689
 3733W        W 7797   6.842   5.142  11.735
 3734W        W 7798   9.829   6.449   0.448
 3735W        W 7799   0.985   2.588  10.266
 3736W        W 7800   3.609   0.301   2.986
 3737W        W 7801   8.629   9.730   1.135
 3738W        W 7802   6.159   5.999   3.811
 3739W        W 7803   6.676   7.573   2.217
 3740W        W 7804   5.324   4.068   9.439
 3741W        W 7805   9.497   2.277   0.268
 3742W        W 7806   0.501   7.682   0.971
 3743W        W 7807   7.010   1.732   2.729
 3744W        W 7808   8.204   0.107  10.654
 3745W        W 7809   3.747   1.370  10.926
 3746W        W 7810   7.811   3.598   0.030
 3747W        W 7811   4.128   0.839   3.082
 3748W        W 7812   3.609   5.536   9.317
 3749W        W 7813   2.703   6.620   9.037
 3750W        W 7814   8.910   3.023   1.405
 3751W        W 7815   5.499   2.636  10.530
 3752W        W 7816   5.192   3.057   0.222
 3753W        W 7817   4.282   1.655   9.335
 3754W        W 7818   4.305   5.140  10.517
 3755W        W 7819   1.300   7.677   3.332
 3756W        W 7820  10.204   2.971   3.091
 3757W        W 7821   5.756   7.401   9.056
 3758W        W 7822   4.822   7.921   2.758
 3759W        W 7823   3.731   4.187   9.054
 3760W        W 7824   4.793   2.870  11.907
 3761W        W 7825   4.682   5.090   2.029
 3762W        W 7826   1.428   5.289   8.686
 3763W        W 7827   3.819   3.220  11.070
 3764W        W 7828   5.525   4.154   8.053
 3765W        W 7829   1.477   3.102  10.870
 3766W        W 7830   0.012   4.251   9.125
 3767W        W 7831   2.411   8.924   9.676
 3768W        W 7832   9.871   1.412   1.050
 3769W        W 7833   3.160   1.168  10.585
 3770W        W 7834   6.792   0.438   1.148
 3771W        W 7835   7.885   7.441   0.310
 3772W        W 7836   7.946   1.886  10.544
 3773W        W 7837   1.512   7.731  11.363
 3774W        W 7838  10.499  10.240   3.110
 3775W        W 7839   4.168   1.337   2.790
 3776W        W 7840   0.968   4.947   1.743
 3777W        W 7841   5.557   5.673   0.169
 3778W        W 7842   2.767   7.447   1.259
 3779W        W 7843  10.280   1.821  10.290
 3780W        W 7844   1.534   4.469   9.686
 3781W        W 7845   8.641   8.309   1.420
 3782W        W 7846   7.816   0.452  10.564
 3783W        W 7847   5.165   3.619  10.352
 3784W        W 7848   4.985   5.476   9.965
 3785W        W 7849   1.591   5.647   0.964
 3786W        W 7850   1.942   2.887   2.069
 3787W        W 7851  10.213  10.077   2.263
 3788W        W 7852   1.823   4.098   9.912
 3789W        W 7853   6.114   5.538   3.549
 3790W        W 7854   5.561   6.944   1.469
 3791W        W 7855   7.630   5.005   1.665
 3792W        W 7856   5.700   5.602  10.311
 3793W        W 7857   1.920   4.306   2.313
 3794W        W 7858   7.689   3.770   0.510
 3795W        W 7859   3.011   9.051  10.406
 3796W        W 7860   0.040   4.636  10.813
 3797W        W 7861   3.533   9.968   2.300
 3798W        W 7862   3.279   0.442   1.668
 3799W        W 7863   9.802   7.417   8.794
 3800W        W 7864   2.493   4.788   8.898
 3801W        W 7865   0.218   1.349  10.880
 3802W        W 7866   6.942   5.434   0.519
 3803W        W 7867   0.851   9.934   1.174
 3804W        W 7868   6.413   8.849   0.458
 3805W        W 7869   7.179   7.605   9.688
 3806W        W 7870   7.457   3.222  11.298
 3807W        W 7871   9.998   1.883   1.854
 3808W        W 7872   3.092   7.950  11.095
 3809W        W 7873   0.415   7.398   2.846
 3810W        W 7874   4.500   6.446   1.208
 3811W        W 7875   4.997   3.026   9.825
 3812W        W 7876   0.886   3.925   1.236
 3813W        W 7877   1.990   9.552  10.973
 3814W        W 7878   1.165   2.225   1.807
 3815W        W 7879   7.910   2.400  10.553
 3816W        W 7880   5.714   1.605  11.759
 3817W        W 7881   5.547   1.270   3.055
 3818W        W 7882  10.219   7.718   2.223
 3819W        W 7883   9.388   5.469   2.176
 3820W        W 7884   0.885   4.145   0.202
 3821W        W 7885   0.355   7.233  10.143
 3822W        W 7886   4.717   5.047  10.826
 3823W        W 7887  10.341   3.426   9.715
 3824W        W 7888   9.360   2.601   2.117
 3825W        W 7889   4.953   6.456   2.872
 3826W        W 7890   7.452   6.558   8.953
 3827W        W 7891   8.922   5.592   9.638
 3828W        W 7892   7.317   5.197  10.447
 3829W        W 7893   8.373   4.246  10.861
 3830W        W 7894   8.211   1.812  11.564
 3831W        W 7895  10.479   7.091  11.913
 3832W        W 7896   3.274   7.225   2.313
 3833W        W 7897   6.042   0.408   3.307
 3834W        W 7898   9.395   3.382  10.499
 3835W        W 7899   0.809   0.241   9.453
 3836W        W 7900   8.315   9.881   8.937
 3837W        W 7901   5.914   0.417   2.803
 3838W        W 7902   0.362   0.199  10.777
 3839W        W 7903   9.405   9.214  11.166
 3840W        W 7904   2.017   9.377   1.894
 3841W        W 7905   0.861   6.523  10.045
 3842W        W 7906   7.015   5.613  11.013
 3843W        W 7907   2.103   5.227   3.003
 3844W        W 7908   8.700   7.208   8.963
 3845W        W 7909   4.741  10.300   2.431
 3846W        W 7910   7.604   9.971  10.107
 3847W        W 7911   2.389   8.474   3.004
 3848W        W 7912   8.746   2.007   0.345
 3849W        W 7913   0.177   5.608   0.031
 3850W        W 7914   6.419   8.937   1.419
 3851W        W 7915   9.152   5.773  10.505
 3852W        W 7916   7.794   4.122  11.991
 3853W        W 7917   2.377   6.036   1.782
 3854W        W 7918   4.168   1.856   2.814
 3855W        W 7919   6.000   6.737   4.041
 3856W        W 7920   2.105   7.158   9.828
 3857W        W 7921   4.001   7.938   2.266
 3858W        W 7922   4.680   0.918   8.639
 3859W        W 7923   7.299   9.999   1.618
 3860W        W 7924   7.020   2.183   3.024
 3861W        W 7925   1.928   3.337  11.022
 3862W        W 7926   1.194   9.719   8.822
 3863W        W 7927   7.438   3.730  11.135
 3864W        W 7928   5.944   3.466   1.404
 3865W        W 7929   2.365   3.167   2.870
 3866W        W 7930   7.383  10.489   0.318
 3867W        W 7931   7.838   6.517   2.749
 3868W        W 7932   2.887   6.953  11.833
 3869W        W 7933   4.965   4.672   0.431
 3870W        W 7934   2.383   4.828   2.721
 3871W        W 7935   0.642   0.619   2.300
 3872W        W 7936   9.962   4.519  10.449
 3873W        W 7937   7.153   0.425   3.286
 3874W        W 7938   1.661   1.630  11.794
 3875W        W 7939  10.197   0.624   1.427
 3876W        W 7940   9.372   4.674   9.757
 3877W        W 7941   2.823   7.032   0.407
 3878W        W 7942   8.411   6.503   0.832
 3879W        W 7943   1.454   4.183   3.224
 3880W        W 7944   3.611   6.481   1.697
 3881W        W 7945   1.287   0.234   9.031
 3882W        W 7946  10.245   6.716   0.316
 3883W        W 7947   6.943   3.679   0.352
 3884W        W 7948   4.407   0.096   2.661
 3885W        W 7949   7.490   8.792  10.771
 3886W        W 7950   3.392   1.027  11.024
 3887W        W 7951   4.649   2.345  10.720
 3888W        W 7952   4.936   8.470  10.434
 3889W        W 7953   9.286   8.469   3.323
 3890W        W 7954   4.719   9.415   2.943
 3891W        W 7955   6.114   4.084   8.605
 3892W        W 7956   9.249   7.953   8.917
 3893W        W 7957   8.149   8.348   9.044
 3894W        W 7958   7.140   2.262   1.496
 3895W        W 7959   3.376   0.574   9.794
 3896W        W 7960   2.315   7.811  11.575
 3897W        W 7961   0.449   5.202   0.189
 3898W        W 7962   1.964   4.567   0.885
 3899W        W 7963   2.828   5.957   0.052
 3900W        W 7964   6.179   1.939   3.478
 3901W        W 7965   2.595   2.532  10.265
 3902W        W 7966   6.684   0.312   9.396
 3903W        W 7967   2.904  10.350  10.658
 3904W        W 7968   8.650   4.241   1.229
 3905W        W 7969  10.290   4.569   8.768
 3906W        W 7970   6.734   1.245  10.531
 3907W        W 7971   7.541   5.646   3.103
 3908W        W 7972   5.252   6.153   9.130
 3909W        W 7973   2.362   6.763   1.159
 3910W        W 7974   4.734   3.290   0.209
 3911W        W 7975   6.033   7.551   1.666
 3912W        W 7976   7.025   6.453   1.782
 3913W        W 7977   9.723   3.393   8.615
 3914W        W 7978   4.160   1.243  11.826
 3915W        W 7979   7.976   7.477   2.637
 3916W        W 7980   7.809   9.950   9.086
 3917W        W 7981  10.215   3.659  11.316
 3918W        W 7982   2.625   5.069   2.327
 3919W        W 7983   1.260   1.874   8.987
 3920W        W 7984   5.075   4.631  11.038
 3921W        W 7985   9.381   6.452   1.786
 3922W        W 7986   5.157   8.561  11.061
 3923W        W 7987   3.709  10.438   2.217
 3924W        W 7988   9.433   7.203   1.495
 3925W        W 7989   7.432   2.078   0.704
 3926W        W 7990   5.166   7.692  11.059
 3927W        W 7991  10.367   0.704   9.576
 3928W        W 7992   4.059  10.382   0.891
 3929W        W 7993   7.571   3.585   9.957
 3930W        W 7994   4.740   1.751   9.069
 3931W        W 7995   0.226   8.637  11.401
 3932W        W 7996   0.889   5.688   0.286
 3933W        W 7997   7.066   6.696   2.251
 3934W        W 7998  10.083   3.730  11.805
 3935W        W 7999   5.671   0.772   2.202
 3936W        W 8000   4.268   9.095  10.519
 3937W        W 8001   1.268  10.424   9.440
 3938W        W 8002   6.973   9.955  10.770
 3939W        W 8003   7.925   4.101   2.380
 3940W        W 8004   2.701   0.682   3.389
 3941W        W 8005   1.705   8.319   1.795
 3942W        W 8006   9.013   0.890   2.849
 3943W        W 8007   6.966   9.035   2.730
 3944W        W 8008   2.630   2.783   2.691
 3945W        W 8009   4.614   3.655   1.563
 3946W        W 8010   0.469   0.773  11.998
 3947W        W 8011   0.334   5.354   9.874
 3948W        W 8012   2.307   8.989   1.756
 3949W        W 8013   3.722   8.963   1.339
 3950W        W 8014   8.483   0.321   9.401
 3951W        W 8015   7.016   0.324  11.264
 3952W        W 8016  10.341   4.967   2.405
 3953W        W 8017   4.615   6.889  10.276
 3954W        W 8018   7.216   8.999   0.281
 3955W        W 8019   6.220   4.333  11.755
 3956W        W 8020   4.191   1.001   8.464
 3957W        W 8021   1.922  10.424  10.650
 3958W        W 8022   7.972  10.496   0.369
 3959W        W 8023   4.324   5.776   8.300
 3960W        W 8024   9.909  10.342  11.982
 3961W        W 8025   6.109   2.328  11.266
 3962W        W 8026   8.893   4.757   2.190
 3963W        W 8027   5.243   6.656   8.514
 3964W        W 8028   6.962   2.417  10.548
 3965W        W 8029   1.075   9.108   0.238
 3966W        W 8030   5.465   4.679   0.341
 3967W        W 8031   6.958   7.714   0.573
 3968W        W 8032  10.006   3.166   2.641
 3969W        W 8033   2.404   2.928  11.834
 3970W        W 8034   2.635   6.117   3.512
 3971W        W 8035   9.411   9.009   2.495
 3972W        W 8036   6.851   9.058   1.152
 3973W        W 8037   2.354   7.670   1.724
 3974W        W 8038   9.526   8.306   9.230
 3975W        W 8039   3.700  10.329  10.814
 3976W        W 8040   9.768   4.288  10.902
 3977W        W 8041   6.486   1.487   2.801
 3978W        W 8042   5.671   2.370   2.352
 3979W        W 8043   1.220   9.560  11.988
 3980W        W 8044   6.282   7.446   1.235
 3981W        W 8045   5.619   7.383   2.802
 3982W        W 8046   8.265   0.150   8.475
 3983W        W 8047   1.686   0.460   2.551
 3984W        W 8048   7.404   5.188   8.958
 3985W        W 8049   2.727   3.588   9.264
 3986W        W 8050   2.713   0.298  10.882
 3987W        W 8051   5.068   2.255   9.177
 3988W        W 8052   2.347  10.301   2.989
 3989W        W 8053   4.281   1.677   1.927
 3990W        W 8054   4.333   6.601   9.717
 3991W        W 8055   0.763   8.878   9.865
 3992W        W 8056   6.921   9.875  11.276
 3993W        W 8057   7.242   1.736  11.317
 3994W        W 8058   9.305   5.632   9.280
 3995W        W 8059   6.191   3.138   3.570
 3996W        W 8060   0.762   8.564   1.954
 3997W        W 8061   9.291   1.911   8.605
 3998W        W 8062   4.753   8.859  11.278
 3999W        W 8063   5.293   9.848  10.116
 4000W        W 8064   1.370   7.991   1.524
 4001W        W 8065   1.227   2.929   0.399
 4002W        W 8066   1.757   5.963  10.212
 4003W        W 8067   9.362   0.683   1.924
 4004W        W 8068   2.257   2.240  11.519
 4005W        W 8069   4.539   3.912  11.014
 4006W        W 8070   0.890   7.046  10.784
 4007W        W 8071   1.520   0.274   3.387
 4008W        W 8072   0.563   1.790   9.839
 4009W        W 8073   9.536   7.121   1.001
 4010W        W 8074   0.333   7.346   1.450
 4011W        W 8075   3.211   4.817   1.272
 4012W        W 8076   2.814   5.938   2.078
 4013W        W 8077   4.228   7.949   8.868
 4014W        W 8078   5.993   4.336   8.177
 4015W        W 8079   6.484   3.342   0.561
 4016W        W 8080   2.872   7.826   8.586
 4017W        W 8081   7.112   0.926  11.878
 4018W        W 8082   3.162   0.262   9.415
 4019W        W 8083   2.696   9.945   2.799
 4020W        W 8084   8.563   7.921   3.179
 4021W        W 8085   6.979   9.506   2.948
 4022W        W 8086   6.052   7.125   1.995
 4023W        W 8087   6.631   7.406   3.124
 4024W        W 8088   1.153   0.709   2.206
 4025W        W 8089   4.546   9.776  11.780
 4026W        W 8090   0.002   4.646  10.282
 4027W        W 8091  10.462   7.587   1.221
 4028W        W 8092   2.632   4.345  11.537
 4029W        W 8093   5.211   1.716   9.835
 4030W        W 8094   4.539   0.398   9.445
 4031W        W 8095   5.117   1.186   2.339
 4032W        W 8096   6.122   7.271  10.826
 4033W        W 8097   0.394   0.679   1.853
 4034W        W 8098   5.725   5.193   1.635
 4035W        W 8099   4.904   0.476   8.660
 4036W        W 8100   7.994   9.375   0.584
 4037W        W 8101   4.225   5.651  10.473
 4038W        W 8102   9.732   8.930  10.482
 4039W        W 8103   4.288   6.209  10.535
 4040W        W 8104   8.673   9.070   3.639
 4041W        W 8105   0.740   3.591  10.289
 4042W        W 8106   2.297   7.684   1.216
 4043W        W 8107   1.006   8.764   9.427
 4044W        W 8108   4.616   4.043   8.795
 4045W        W 8109   3.356   3.819   1.332
 4046W        W 8110   7.548   2.778   1.460
 4047W        W 8111   9.558   5.584  10.259
 4048W        W 8112   3.144   6.484   2.909
 4049W        W 8113   9.531   9.387  10.096
 4050W        W 8114   2.553   7.644   8.957
 4051W        W 8115   7.493   3.650  11.632
 4052W        W 8116  10.359   5.707   1.188
 4053W        W 8117   4.579   4.717   3.449
 4054W        W 8118   2.779   1.304  10.921
 4055W        W 8119   7.881   0.265   1.623
 4056W        W 8120   1.545   5.654  10.552
 4057W        W 8121   7.536   7.062   0.173
 4058W        W 8122   0.394   9.048  10.880
 4059W        W 8123   2.861   7.503  11.166
 4060W        W 8124   6.568   9.457   1.328
 4061W        W 8125   5.628  10.422   1.928
 4062W        W 8126   7.409   5.319   9.518
 4063W        W 8127   8.028   2.281   1.389
 4064W        W 8128   6.019   3.671   9.917
 4065W        W 8129   5.817   7.463   0.324
 4066W        W 8130   3.412   7.958   1.876
 4067W        W 8131   5.684   6.906   9.243
 4068W        W 8132   6.051   9.074  10.827
 4069W        W 8133   8.442   6.453   2.116
 4070W        W 8134   0.370   8.545   1.658
 4071W        W 8135   6.914   5.011   2.782
 4072W        W 8136   4.138   3.901   8.924
 4073W        W 8137   9.041   4.013   1.527
 4074W        W 8138   4.938   6.907   8.143
 4075W        W 8139   6.140   1.395  11.242
 4076W        W 8140   7.950   8.993   3.004
 4077W        W 8141   3.266   7.110   0.732
 4078W        W 8142   4.967   0.420  10.774
 4079W        W 8143   4.066   3.944   1.387
 4080W        W 8144   6.534   2.971   0.240
 4081W        W 8145   2.343   3.630   3.060
 4082W        W 8146   1.678   7.161   0.573
 4083W        W 8147   6.032   3.159  11.102
 4084W        W 8148   4.739   3.816   3.034
 4085W        W 8149  10.290   4.130   2.826
 4086W        W 8150   7.969   3.686   3.288
 4087W        W 8151   8.443   0.680   3.328
 4088W        W 8152   8.436   1.674   3.014
 4089W        W 8153   1.362   6.492  10.795
 4090W        W 8154   4.070   5.627   1.626
 4091W        W 8155   3.264   2.461   3.166
 4092W        W 8156   2.676   9.301   9.881
 4093W        W 8157   6.215   1.760   9.941
 4094W        W 8158   0.767   4.097   1.704
 4095W        W 8159   5.594   7.015   8.734
 4096W        W 8160   6.173   8.541   0.831
 4097W        W 8161   9.170   5.961   9.998
 4098W        W 8162   3.786   3.582   1.155
 4099W        W 8163   9.063   4.606   2.642
 4100W        W 8164   9.871   0.938   1.215
 4101W        W 8165   5.044   9.494   9.252
 4102W        W 8166   2.391   2.588  10.764
 4103W        W 8167   1.373   6.570   0.900
 4104W        W 8168   2.914   8.925   9.591
 4105W        W 8169   1.040   3.819   3.299
 4106W        W 8170   4.213   1.227   1.696
 4107W        W 8171   0.694   7.322   8.918
 4108W        W 8172   5.564   3.819   1.417
 4109W        W 8173   9.053   0.338   9.976
 4110W        W 8174   0.970   3.053   2.849
 4111W        W 8175   2.952   7.195   2.714
 4112W        W 8176   3.157   3.823   9.067
 4113W        W 8177   8.362   0.313   2.956
 4114W        W 8178   9.771   8.990  11.528
 4115W        W 8179   5.078   6.707   0.758
 4116W        W 8180  10.499   2.835   1.923
 4117W        W 8181   8.655   6.640  10.800
 4118W        W 8182   4.275   9.117   2.809
 4119W        W 8183   9.981   3.068   9.327
 4120W        W 8184   7.447   9.318  10.716
 4121W        W 8185   5.978   5.304  11.499
 4122W        W 8186   9.416   4.291  10.541
 4123W        W 8187   6.698   4.290   2.315
 4124W        W 8188   3.722   9.834  10.309
 4125W        W 8189   7.308   2.211   9.290
 4126W        W 8190   9.735   0.777   0.222
 4127W        W 8191   5.061   3.739  11.005
 4128W        W 8192   0.506   8.270  10.254
 4129W        W 8193   0.816   7.848   2.717
 4130W        W 8194   5.097   3.089   3.057
 4131W        W 8195   9.912   0.283   0.729
 4132W        W 8196   7.481   6.295   0.016
 4133W        W 8197   3.577   1.110   9.843
 4134W        W 8198   8.285   4.292   9.833
 4135W        W 8199   2.254   3.259  11.468
 4136W        W 8200   4.130   6.158   8.858
 4137W        W 8201   4.596   4.651   0.101
 4138W        W 8202   7.912   1.346   8.803
 4139W        W 8203   9.526   0.877   2.747
 4140W        W 8204   6.652   2.296   1.797
 4141W        W 8205   4.773   1.871   1.392
 4142W        W 8206   5.711  10.311   3.370
 4143W        W 8207   4.342   7.421   9.446
 4144W        W 8208   5.795   3.172   1.884
 4145W        W 8209  10.399   3.290  10.606
 4146W        W 8210   5.132   9.089  10.962
 4147W        W 8211   8.614   2.886  10.971
 4148W        W 8212   5.539   0.685   1.254
 4149W        W 8213   4.225   7.766  10.310
 4150W        W 8214   2.392   5.642   8.389
 4151W        W 8215   1.342   6.095   2.427
 4152W        W 8216   4.701   4.962   0.738
 4153W        W 8217   0.293   7.985  10.627
 4154W        W 8218   7.448   6.083   0.905
 4155W        W 8219   4.603   5.233   2.570
 4156W        W 8220   5.233  10.074  10.573
 4157W        W 8221   5.753   6.223   9.894
 4158W        W 8222  10.455   1.172   2.941
 4159W        W 8223   7.541   1.057   3.465
 4160W        W 8224   5.681   9.028  10.155
 4161W        W 8225   2.715   5.720   9.058
 4162W        W 8226   3.620   1.616   9.917
 4163W        W 8227   5.712   2.383   1.402
 4164W        W 8228   3.403   5.775   9.964
 4165W        W 8229   8.024   2.937   0.670
 4166W        W 8230   3.409   6.105  11.393
 4167W        W 8231   2.465   6.505   8.604
 4168W        W 8232   2.380   1.952   1.492
 4169W        W 8233   4.579   5.602   1.811
 4170W        W 8234   6.893   2.181   9.580
 4171W        W 8235   0.363   0.027  11.348
 4172W        W 8236   8.392   6.951   2.015
 4173W        W 8237   6.440   3.362   1.308
 4174W        W 8238   9.403   6.203  10.405
 4175W        W 8239   9.072   6.861   9.062
 4176W        W 8240   2.443   2.899   1.661
 4177W        W 8241   0.802   8.350   9.824
 4178W        W 8242   1.948   8.458   2.687
 4179W        W 8243   2.714   9.238   8.846
 4180W        W 8244   8.934   9.109   9.603
 4181W        W 8245   5.957   6.773  11.614
 4182W        W 8246   8.681   4.984   9.348
 4183W        W 8247   5.055   2.736   3.426
 4184W        W 8248   1.698   3.213   1.693
 4185W        W 8249   4.285   6.446  11.006
 4186W        W 8250   2.695   9.107  11.779
 4187W        W 8251   0.787   9.409   1.899
 4188W        W 8252   7.448  10.297   2.126
 4189W        W 8253   9.793   4.382   9.936
 4190W        W 8254   4.080   0.375   3.324
 4191W        W 8255   4.521   8.958   0.660
 4192W        W 8256   7.250   5.742   2.164
 4193W        W 8257   0.790   3.744  10.775
 4194W        W 8258   3.139   2.285   2.194
 4195W        W 8259  10.408   9.842   1.416
 4196W        W 8260   5.920   9.575   3.587
 4197W        W 8261   6.934   8.154  10.787
 4198W        W 8262   0.772   5.160   2.173
 4199W        W 8263   0.474   1.917   2.223
 4200W        W 8264   1.178   6.432   8.602
 4201W        W 8265   4.490   1.730   2.396
 4202W        W 8266   0.870   3.073   9.010
 4203W        W 8267   2.733   6.474   0.843
 4204W        W 8268   0.499   7.724  11.403
 4205W        W 8269   3.715   0.442   1.970
 4206W        W 8270   0.835   1.793  11.396
 4207W        W 8271   4.951   4.236   9.120
 4208W        W 8272   7.751   0.775   1.788
 4209W        W 8273   5.493   6.692   3.544
 4210W        W 8274   1.255   6.066   9.926
 4211W        W 8275   9.995   4.026   0.219
 4212W        W 8276   8.439   1.174   3.212
 4213W        W 8277  10.243   5.441   2.639
 4214W        W 8278   5.767   7.057  10.091
 4215W        W 8279   7.474   2.713   1.968
 4216W        W 8280   9.189  10.309   9.867
 4217W        W 8281   0.313   5.441  11.050
 4218W        W 8282   4.769   7.946  10.314
 4219W        W 8283   8.853   1.472   9.185
 4220W        W 8284   1.220   3.981   1.926
 4221W        W 8285   3.748   5.838  11.711
 4222W        W 8286   6.556   8.343   2.722
 4223W        W 8287   3.222   6.969   9.049
 4224W        W 8288   1.361   2.275  11.883
 4225W        W 8289   7.849   9.508  10.457
 4226W        W 8290   6.745   4.012   9.342
 4227W        W 8291   8.393   2.615  11.901
 4228W        W 8292   8.064   9.986   0.410
 4229W        W 8293   7.592   6.600   0.489
 4230W        W 8294   8.738   9.535   2.268
 4231W        W 8295   4.703   4.210   3.374
 4232W        W 8296   6.027   8.587   9.339
 4233W        W 8297   3.745   1.319   1.938
 4234W        W 8298   0.861   6.913   9.211
 4235W        W 8299   7.860   1.806   0.064
 4236W        W 8300   6.682   6.495  11.334
 4237W        W 8301  10.440   8.294   3.151
 4238W        W 8302   9.682   3.856   8.848
 4239W        W 8303   4.226   7.407  11.280
 4240W        W 8304  10.401   9.418   0.579
 4241W        W 8305   4.672   8.948   3.127
 4242W        W 8306   3.188   3.723  10.084
 4243W        W 8307   6.055   9.566  10.980
 4244W        W 8308  10.493   9.702  11.437
 4245W        W 8309   1.489   3.645   3.050
 4246W        W 8310   7.623   1.314  10.622
 4247W        W 8311   8.379   7.069  10.793
 4248W        W 8312   4.291   5.246   8.396
 4249W        W 8313   2.325   3.922   8.829
 4250W        W 8314   4.759   6.046   1.022
 4251W        W 8315   1.898   3.059  11.905
 4252W        W 8316   3.316   7.149  10.455
 4253W        W 8317   9.319   2.849   1.684
 4254W        W 8318   3.533   2.697   2.301
 4255W        W 8319   4.716   7.020   2.456
 4256W        W 8320   6.117   2.234  10.139
 4257W        W 8321   1.823   6.008   1.769
 4258W        W 8322   7.805   9.729  11.657
 4259W        W 8323   6.676   6.161  11.961
 4260W        W 8324   9.350   9.051   1.347
 4261W        W 8325   9.452  10.489   2.665
 4262W        W 8326   1.932   9.757   0.710
 4263W        W 8327   2.052   9.942  10.406
 4264W        W 8328   0.393   2.893   0.699
 4265W        W 8329   2.169   4.504  10.852
 4266W        W 8330   3.291   4.440   3.615
 4267W        W 8331   0.038   2.818   0.337
 4268W        W 8332  10.297   8.216  10.731
 4269W        W 8333   5.250   9.483   0.774
 4270W        W 8334   4.804   2.331   1.185
 4271W        W 8335   1.719   8.475  11.781
 4272W        W 8336   3.217   7.206   1.409
 4273W        W 8337   0.316   5.123   3.600
 4274W        W 8338   8.909   6.215   8.562
 4275W        W 8339   6.948   4.072   0.687
 4276W        W 8340   1.347   7.854   0.308
 4277W        W 8341   2.862   9.830   1.871
 4278W        W 8342   2.108   6.627  11.807
 4279W        W 8343   1.939   9.437  11.469
 4280W        W 8344   5.962   4.327   9.079
 4281W        W 8345   8.023   9.704   9.912
 4282W        W 8346   8.125   8.625   2.680
 4283W        W 8347   9.363   1.707   9.830
 4284W        W 8348   3.612   3.563   2.151
 4285W        W 8349   3.561   9.544   9.909
 4286W        W 8350   1.390   3.187  11.848
 4287W        W 8351   2.199   3.720   9.819
 4288W        W 8352   3.231   8.850   3.423
 4289W        W 8353   8.366   5.240  10.954
 4290W        W 8354   3.236   0.677   2.975
 4291W        W 8355   3.773   4.592   8.330
 4292W        W 8356  10.225   6.094   2.769
 4293W        W 8357   6.553   4.872   1.279
 4294W        W 8358   3.744   4.532   1.955
 4295W        W 8359   2.593   1.973   8.865
 4296W        W 8360   4.415  10.104  10.420
 4297W        W 8361   7.068   2.299  10.059
 4298W        W 8362   9.572   2.987  10.827
 4299W        W 8363   1.695   7.567   9.073
 4300W        W 8364   6.783   6.176   3.998
 4301W        W 8365   1.798   7.051  11.762
 4302W        W 8366   0.017  10.229   9.587
 4303W        W 8367   0.275   3.103   1.197
 4304W        W 8368   9.480   5.637   0.711
 4305W        W 8369   9.028   5.006   8.945
 4306W        W 8370   8.544   6.622   1.653
 4307W        W 8371   0.861   4.776  10.720
 4308W        W 8372   2.326   4.758  11.253
 4309W        W 8373   3.838   8.292   9.523
 4310W        W 8374   2.077   1.021   1.309
 4311W        W 8375   6.349   9.797   9.272
 4312W        W 8376   5.093   4.208   8.623
 4313W        W 8377   6.147   2.229   1.669
 4314W        W 8378   4.673   5.880  10.497
 4315W        W 8379  10.325   2.980  11.900
 4316W        W 8380   8.421   4.266   0.254
 4317W        W 8381   7.836   9.006   2.496
 4318W        W 8382   2.857   8.513   2.767
 4319W        W 8383   3.379  10.346   2.920
 4320W        W 8384   0.028  10.465   0.773
 4321W        W 8385   2.746  10.312  11.684
 4322W        W 8386   8.160   6.644   3.115
 4323W        W 8387   0.253   6.542   9.269
 4324W        W 8388   4.144   9.243   1.428
 4325W        W 8389   3.460   0.355   8.565
 4326W        W 8390   6.552   3.645   2.001
 4327W        W 8391   8.958  10.193   0.075
 4328W        W 8392   0.370   8.951   2.120
 4329W        W 8393   1.335   1.300   0.041
 4330W        W 8394   8.857   9.989   3.022
 4331W        W 8395   0.563   0.978  11.031
 4332W        W 8396   5.945   6.444   3.601
 4333W        W 8397   6.168   0.961  10.944
 4334W        W 8398   7.879   0.836   0.367
 4335W        W 8399   9.582   7.367  11.886
 4336W        W 8400   2.361   1.124   8.987
 4337W        W 8401   2.001   9.827  11.817
 4338W        W 8402   3.360   7.484  11.228
 4339W        W 8403   0.052   2.661   1.049
 4340W        W 8404   2.749   2.191  11.366
 4341W        W 8405   5.230   9.998   0.013
 4342W        W 8406   6.514   8.376   1.755
 4343W        W 8407   4.723   5.502  11.827
 4344W        W 8408   1.666   7.926   9.901
 4345W        W 8409   1.299   2.755   2.613
 4346W        W 8410  10.155   7.269   0.977
 4347W        W 8411   6.569  10.264   9.430
 4348W        W 8412   4.172   8.503   9.855
 4349W        W 8413   5.977   0.005  11.755
 4350W        W 8414   0.110   5.335   0.890
 4351W        W 8415  10.274   6.555   9.071
 4352W        W 8416   8.113   4.107   9.368
 4353W        W 8417   3.354   2.394  10.407
 4354W        W 8418   7.670   5.275  11.419
 4355W        W 8419   6.620   6.909   0.387
 4356W        W 8420   6.131   1.867   0.061
 4357W        W 8421   9.310   0.298   1.319
 4358W        W 8422   5.917   5.743   9.871
 4359W        W 8423   9.028   5.711   2.474
 4360W        W 8424   9.528  -0.001   0.944
 4361W        W 8425   0.471   6.079   9.346
 4362W        W 8426   7.483   6.145   2.932
 4363W        W 8427   6.100   6.116   9.509
 4364W        W 8428   6.709   3.074   9.372
 4365W        W 8429   0.794   9.005   2.715
 4366W        W 8430   4.943   2.651   1.974
 4367W        W 8431   3.062   0.207  11.307
 4368W        W 8432   4.229   1.067  10.471
 4369W        W 8433  10.410   6.971   8.750
 4370W        W 8434   3.699   3.297   2.975
 4371W        W 8435   7.541   3.983   4.343
 4372W        W 8436   9.347   6.170  11.373
 4373W        W 8437   2.697   7.416  11.659
 4374W        W 8438   0.525   7.744  11.935
 4375W        W 8439   7.172   4.959   1.916
 4376W        W 8440   0.313   4.981   2.633
 4377W        W 8441   4.121   6.281   2.887
 4378W        W 8442   3.607   3.767  10.370
 4379W        W 8443   5.568   1.671   0.924
 4380W        W 8444   3.713   0.737   8.921
 4381W        W 8445   7.547   1.346  11.122
 4382W        W 8446   2.727   9.760   9.019
 4383W        W 8447   4.715  10.036   0.804
 4384W        W 8448   6.673   8.475   2.243
 4385W        W 8449   5.054   4.005   9.871
 4386W        W 8450   6.900   0.787   9.620
 4387W        W 8451   2.118   6.901   1.907
 4388W        W 8452   8.818   2.917  11.990
 4389W        W 8453   5.098   6.675   2.353
 4390W        W 8454   0.776   2.232   1.171
 4391W        W 8455   9.004   8.877   0.872
 4392W        W 8456   9.841   8.201   2.801
 4393W        W 8457   3.323   7.592  10.221
 4394W        W 8458   4.904   6.199  11.567
 4395W        W 8459   7.044   5.388   1.009
 4396W        W 8460   7.918   6.302   0.907
 4397W        W 8461   8.336   5.919  11.356
 4398W        W 8462   6.322   2.716  10.919
 4399W        W 8463   8.340   6.359   2.615
 4400W        W 8464  10.021   6.172  10.977
 4401W        W 8465   2.079   8.497   2.140
 4402W        W 8466   8.942   2.650   0.993
 4403W        W 8467   9.445   5.465   1.678
 4404W        W 8468   4.088   8.885   0.989
 4405W        W 8469   2.583  10.000  10.440
 4406W        W 8470   5.073   9.564   1.274
 4407W        W 8471   7.046   7.510   9.210
 4408W        W 8472  10.142   6.668  10.957
 4409W        W 8473   4.127   3.762  11.792
 4410W        W 8474   9.936   2.960   8.804
 4411W        W 8475   2.907   9.912  11.404
 4412W        W 8476   5.521   0.746   0.737
 4413W        W 8477   0.260   7.033   3.400
 4414W        W 8478   5.585  10.298   9.408
 4415W        W 8479   7.940   3.322   9.689
 4416W        W 8480   7.400   1.384   8.686
 4417W        W 8481   5.444   5.552   1.871
 4418W        W 8482   9.542   4.489   2.595
 4419W        W 8483   9.953   4.090   1.966
 4420W        W 8484   9.300   8.831  10.813
 4421W        W 8485   6.002   3.501   9.333
 4422W        W 8486   2.825   8.340   0.242
 4423W        W 8487   1.480   4.704   0.912
 4424W        W 8488   9.772   8.888  11.026
 4425W        W 8489   9.825   5.188   0.971
 4426W        W 8490   1.455   6.169   9.437
 4427W        W 8491   8.029   6.126   9.521
 4428W        W 8492   5.192   0.300  10.307
 4429W        W 8493   4.987   3.758   0.515
 4430W        W 8494   2.713   1.188  10.325
 4431W        W 8495   8.523   1.723   2.496
 4432W        W 8496   4.574   3.844  11.525
 4433W        W 8497   5.181  10.030   9.664
 4434W        W 8498   1.378   6.670   3.043
 4435W        W 8499   0.434   8.203   2.713
 4436W        W 8500   6.100   4.268   2.623
 4437W        W 8501   8.065   0.211  10.153
 4438W        W 8502   3.536   9.911   3.193
 4439W        W 8503   5.451   8.575  10.336
 4440W        W 8504   9.401   7.296   0.359
 4441W        W 8505   2.362   7.095   2.497
 4442W        W 8506   2.784   1.838   9.523
 4443W        W 8507   2.357   7.755  10.454
 4444W        W 8508   6.115   4.175   0.258
 4445W        W 8509   4.315   8.047   2.861
 4446W        W 8510   2.690   4.605   9.323
 4447W        W 8511  10.389   8.445   1.785
 4448W        W 8512   1.795   0.300   8.891
 4449W        W 8513   2.231   4.130  11.301
 4450W        W 8514   4.781   6.053   0.023
 4451W        W 8515   6.014   0.873   2.577
 4452W        W 8516   4.668   9.113   9.204
 4453W        W 8517   8.515   1.100   1.419
 4454W        W 8518   8.384   2.643   2.550
 4455W        W 8519   4.678  10.339   1.935
 4456W        W 8520   9.056   0.711  10.799
 4457W        W 8521   0.749   8.516   3.405
 4458W        W 8522   6.116   1.684   1.482
 4459W        W 8523   5.229   8.208   2.747
 4460W        W 8524   0.304   1.702   1.773
 4461W        W 8525   7.402   7.187  10.492
 4462W        W 8526   8.319   5.164   2.991
 4463W        W 8527   7.006   5.387   3.783
 4464W        W 8528  10.293   4.204  11.761
 4465W        W 8529   0.321   7.554   1.917
 4466W        W 8530   9.903   5.517   1.399
 4467W        W 8531   5.651   3.510  11.756
 4468W        W 8532   4.070   2.390  11.372
 4469W        W 8533   6.030   4.095   0.774
 4470W        W 8534   8.017   3.561  10.660
 4471W        W 8535   3.143   0.306   2.633
 4472W        W 8536   5.748   9.156  11.772
 4473W        W 8537   2.829   0.763  10.608
 4474W        W 8538   6.694   1.400   0.466
 4475W        W 8539   7.375   5.559   9.977
 4476W        W 8540   4.181   3.436   1.439
 4477W        W 8541   3.589  10.044   0.010
 4478W        W 8542   4.269   9.621   2.736
 4479W        W 8543   5.620   6.585  10.279
 4480W        W 8544   9.383   1.515  10.770
 4481W        W 8545   8.258   3.751  10.260
 4482W        W 8546   0.696   5.515  11.374
 4483W        W 8547   0.435   1.894   0.880
 4484W        W 8548   4.168   7.054   0.708
 4485W        W 8549   4.230   0.729  11.828
 4486W        W 8550   5.303   8.555   9.327
 4487W        W 8551   1.771   2.125   9.829
 4488W        W 8552   3.321   6.125   9.574
 4489W        W 8553   7.048  10.087   0.315
 4490W        W 8554   1.671   7.739   3.696
 4491W        W 8555   8.435   3.291   9.820
 4492W        W 8556   6.562   2.128  11.481
 4493W        W 8557   1.802   6.987  10.277
 4494W        W 8558   0.350   6.037   2.003
 4495W        W 8559   5.949   7.093   9.620
 4496W        W 8560   2.653   5.140   3.332
 4497W        W 8561   1.878   0.344   1.767
 4498W        W 8562   1.707   7.969  11.950
 4499W        W 8563   6.279   8.274  10.288
 4500W        W 8564   7.030   2.203   2.501
 4501W        W 8565   6.206   8.980   9.050
 4502W        W 8566   8.886   6.196  10.388
 4503W        W 8567   6.334   2.807   3.203
 4504W        W 8568   7.097   2.731   1.202
 4505W        W 8569   9.916   6.504  11.422
 4506W        W 8570   9.516   3.780   1.454
 4507W        W 8571   0.846   6.065   2.291
 4508W        W 8572   7.785   8.145   1.038
 4509W        W 8573   4.302   3.274   3.561
 4510W        W 8574   0.547   8.961   0.214
 4511W        W 8575   5.685   0.271   2.346
 4512W        W 8576   2.188   0.349  10.228
 4513W        W 8577   9.864   6.581   9.389
 4514W        W 8578   3.787   2.975   0.465
 4515W        W 8579   8.840   4.600   9.662
 4516W        W 8580   0.976   9.440  11.538
 4517W        W 8581   1.405   1.433   2.738
 4518W        W 8582   1.832   5.729  12.001
 4519W        W 8583   7.900   7.159  11.192
 4520W        W 8584   9.213   0.084   3.114
 4521W        W 8585   1.497   9.511   0.883
 4522W        W 8586   8.578   0.240   2.010
 4523W        W 8587  10.431   4.196   1.748
 4524W        W 8588   7.182   5.170   1.446
 4525W        W 8589   8.439  10.452   2.411
 4526W        W 8590   3.183   3.321  11.548
 4527W        W 8591   4.646   6.859   0.448
 4528W        W 8592   3.399   5.731  10.767
 4529W        W 8593   9.698   5.689   8.921
 4530W        W 8594   7.865   9.090  10.957
 4531W        W 8595   2.932   0.495  11.777
 4532W        W 8596   9.112   3.759   9.924
 4533W        W 8597   5.702   5.282   2.211
 4534W        W 8598   4.249  10.314   2.246
 4535W        W 8599   0.464   8.071   1.885
 4536W        W 8600   0.901   6.619  11.076
 4537W        W 8601   0.916   3.927   8.205
 4538W        W 8602   5.724   6.889   2.759
 4539W        W 8603   8.361   2.136  10.767
 4540W        W 8604   6.762   0.779  10.848
 4541W        W 8605   5.827   1.516  10.325
 4542W        W 8606   8.261   7.268  11.520
 4543W        W 8607   5.063   9.099   2.312
 4544W        W 8608   6.972   5.276   9.854
 4545W        W 8609   9.839   5.938   0.465
 4546W        W 8610   6.971   3.257   9.796
 4547W        W 8611   4.773   3.803   2.502
 4548W        W 8612   8.642   7.166   9.827
 4549W        W 8613   5.530   7.670   3.220
 4550W        W 8614   3.554   7.147  10.897
 4551W        W 8615   3.026   0.666  11.061
 4552W        W 8616   8.050   8.958  11.922
 4553W        W 8617   9.820   5.106  11.911
 4554W        W 8618   8.921   1.830   9.574
 4555W        W 8619   6.140   3.783  11.783
 4556W        W 8620   7.373   0.332  10.345
 4557W        W 8621   1.124   2.214  10.918
 4558W        W 8622   3.308   3.306   1.321
 4559W        W 8623   8.933   7.823   2.818
 4560W        W 8624   4.749   9.426   0.605
 4561W        W 8625   7.048   1.761   1.392
 4562W        W 8626   2.224   8.636  10.068
 4563W        W 8627   4.337   9.721  10.871
 4564W        W 8628   3.132   5.569   1.840
 4565W        W 8629   5.718   3.071   9.290
 4566W        W 8630   7.197   8.082  10.334
 4567W        W 8631   6.694   5.345   1.451
 4568W        W 8632   9.822   0.771  11.696
 4569W        W 8633   3.925   9.798  11.693
 4570W        W 8634   3.686   6.961   1.507
 4571W        W 8635   1.480   0.196   1.498
 4572W        W 8636   6.059   5.807  11.316
 4573W        W 8637   3.864   4.035   2.223
 4574W        W 8638   4.040   4.193   2.725
 4575W        W 8639   3.232   4.749   3.217
 4576W        W 8640   9.173   6.892   2.595
 4577W        W 8641   2.625   8.393   3.489
 4578W        W 8642   3.843   0.869   1.705
 4579W        W 8643   4.849   6.709   9.860
 4580W        W 8644   2.563   0.224  11.457
 4581W        W 8645   3.340   3.133  10.912
 4582W        W 8646   9.593   9.381   3.337
 4583W        W 8647   6.963   2.917  11.356
 4584W        W 8648   1.260   1.560   1.725
 4585W        W 8649   5.083   6.939   1.222
 4586W        W 8650   7.054   7.207   2.287
 4587W        W 8651   8.034   6.908   2.379
 4588W        W 8652   5.487   3.793   2.688
 4589W        W 8653   8.775   9.816   3.509
 4590W        W 8654   3.656   4.718   1.500
 4591W        W 8655   5.967   8.339  11.950
 4592W        W 8656   1.239   8.084   2.538
 4593W        W 8657   7.889   0.391   2.814
 4594W        W 8658   1.886   8.798  10.986
 4595W        W 8659   1.877   9.470  10.053
 4596W        W 8660   4.637   2.853   2.905
 4597W        W 8661   9.890   1.439   1.578
 4598W        W 8662   6.174   0.433   2.367
 4599W        W 8663   6.589   7.042   1.325
 4600W        W 8664   3.822   4.087   0.153
 4601W        W 8665   3.666   0.700   3.289
 4602W        W 8666   7.822   5.293   9.886
 4603W        W 8667   7.102   8.540   9.995
 4604W        W 8668   4.705   9.028  10.227
 4605W        W 8669   0.837   0.924   1.881
 4606W        W 8670   4.250   7.489   0.466
 4607W        W 8671   2.754   1.056   0.671
 4608W        W 8672   2.759   0.448   2.944
 4609W        W 8673   7.655   3.302   0.720
 4610W        W 8674   4.171   5.336  10.059
 4611W        W 8675   0.529   2.775   2.834
 4612W        W 8676   4.265   4.388   9.034
 4613W        W 8677   7.370   3.866   0.095
 4614W        W 8678   1.919   6.468  10.333
 4615W        W 8679   3.701   4.581  11.952
 4616W        W 8680   8.451   9.034   2.850
 4617W        W 8681   6.420   8.102  10.808
 4618W        W 8682  10.432   6.470  11.330
 4619W        W 8683   6.034   5.566   9.010
 4620W        W 8684   0.737   5.907   2.775
 4621W        W 8685   0.053   6.597   1.230
 4622W        W 8686   8.661  10.465  10.870
 4623W        W 8687   0.021   2.648  10.013
 4624W        W 8688   9.836   5.168  11.046
 4625W        W 8689   5.061   2.818  11.416
 4626W        W 8690   0.601   9.000  11.334
 4627W        W 8691   2.517   2.331   8.499
 4628W        W 8692   8.719   1.033   9.369
 4629W        W 8693   3.492   4.166  11.770
 4630W        W 8694   8.809   8.865  10.636
 4631W        W 8695   8.482   5.063   2.215
 4632W        W 8696   1.131   2.935   0.930
 4633W        W 8697   9.380   6.489   9.232
 4634W        W 8698   7.119   8.347   0.818
 4635W        W 8699   9.854   2.339   1.683
 4636W        W 8700   5.627   4.731   2.833
 4637W        W 8701   2.935  10.427  10.163
 4638W        W 8702   4.514   0.561   2.501
 4639W        W 8703   6.753   6.222   9.921
 4640W        W 8704   5.913   8.624   3.406
 4641W        W 8705   3.058   8.053   2.600
 4642W        W 8706   5.121   9.047   8.937
 4643W        W 8707   6.548   3.618  10.004
 4644W        W 8708   2.548   3.299   9.846
 4645W        W 8709   0.969   6.164  10.847
 4646W        W 8710   8.889   7.453   3.175
 4647W        W 8711   6.872   6.536   3.647
 4648W        W 8712  10.314   4.692   9.797
 4649W        W 8713   5.473   0.443   1.855
 4650W        W 8714   5.499   3.606   1.918
 4651W        W 8715   8.521   7.726   1.428
 4652W        W 8716   6.496   4.549   4.122
 4653W        W 8717   1.801   9.804   1.189
 4654W        W 8718   8.623   4.132   9.477
 4655W        W 8719   0.364   2.882  11.948
 4656W        W 8720   4.993   8.588   2.970
 4657W        W 8721   8.306   5.312   3.452
 4658W        W 8722   8.042  10.312   8.807
 4659W        W 8723  10.432   2.485  11.943
 4660W        W 8724   4.299   8.598   2.829
 4661W        W 8725   9.558  10.072  10.901
 4662W        W 8726   3.904   4.639   9.366
 4663W        W 8727   1.174   7.436   9.066
 4664W        W 8728   4.782   2.091  11.766
 4665W        W 8729   8.765   0.124  11.366
 4666W        W 8730   3.875   5.573   8.447
 4667W        W 8731   3.724   2.279   1.510
 4668W        W 8732   2.245   2.362   9.013
 4669W        W 8733   7.389   4.587   0.817
 4670W        W 8734   5.157   0.840   9.435
 4671W        W 8735   7.022   8.485   1.787
 4672W        W 8736   9.351   3.205   3.295
 4673W        W 8737   0.847   0.979   8.910
 4674W        W 8738   1.170   7.975  11.066
 4675W        W 8739   0.010   0.525   2.200
 4676W        W 8740   5.670   7.032  10.973
 4677W        W 8741   6.578  10.147   3.444
 4678W        W 8742   8.513   1.487  10.841
 4679W        W 8743   7.537   4.803  10.736
 4680W        W 8744   4.686   4.689  10.463
 4681W        W 8745   3.765   0.896  11.680
 4682W        W 8746   9.597   3.850  10.306
 4683W        W 8747   8.681   3.213   9.354
 4684W        W 8748   3.324   5.525  11.987
 4685W        W 8749   5.682   4.805   9.879
 4686W        W 8750   0.252   0.826  10.175
 4687W        W 8751   3.191   5.914   8.508
 4688W        W 8752   1.832   7.899  10.426
 4689W        W 8753   6.582  10.232   1.859
 4690W        W 8754   8.081   9.863   1.914
 4691W        W 8755   4.636   7.886  11.177
 4692W        W 8756   2.609   0.912   1.166
 4693W        W 8757   6.208   7.409   0.006
 4694W        W 8758   9.349   2.480   9.498
 4695W        W 8759   1.811   6.791   2.777
 4696W        W 8760   1.651   6.856   9.812
 4697W        W 8761   0.226   2.003   9.514
 4698W        W 8762   8.533   6.060  11.813
 4699W        W 8763   3.174   2.853   8.835
 4700W        W 8764   9.923   0.925   1.734
 4701W        W 8765   5.475   8.994   0.795
 4702W        W 8766   6.115   3.262  11.653
 4703W        W 8767   9.985   1.719  11.917
 4704W        W 8768   3.000   4.104  11.829
 4705W        W 8769   1.779   1.284  10.234
 4706W        W 8770   3.571   0.064  11.245
 4707W        W 8771   0.391   6.916   8.957
 4708W        W 8772   7.110   5.721   1.378
 4709W        W 8773   5.498   2.848   9.710
 4710W        W 8774   8.467   2.141   1.671
 4711W        W 8775   8.474   9.758   0.225
 4712W        W 8776   6.444   9.346   0.366
 4713W        W 8777   6.975   4.665   4.341
 4714W        W 8778   8.551   3.804   9.854
 4715W        W 8779   3.221   2.324   1.426
 4716W        W 8780   1.368   5.219   1.395
 4717W        W 8781   0.209   0.738   3.174
 4718W        W 8782   7.895   4.997  11.054
 4719W        W 8783   0.699   4.979   9.773
 4720W        W 8784  10.276   5.669   9.622
 4721W        W 8785  10.155   3.621   8.526
 4722W        W 8786   9.119   4.744  10.634
 4723W        W 8787   7.626   0.412   0.359
 4724W        W 8788   5.262   4.041   2.280
 4725W        W 8789   9.838   9.827   3.209
 4726W        W 8790   1.959   8.288  11.029
 4727W        W 8791   9.252   4.049  11.799
 4728W        W 8792   1.400   5.554  10.044
 4729W        W 8793   2.259   8.471   9.561
 4730W        W 8794   8.441   6.425  11.293
 4731W        W 8795   8.333   8.374   3.072
 4732W        W 8796   7.694   9.973   1.305
 4733W        W 8797   7.087   3.587  10.183
 4734W        W 8798   9.396   6.005  10.894
 4735W        W 8799   7.777  10.236   1.747
 4736W        W 8800   4.741   5.787   9.555
 4737W        W 8801   6.155   6.251   2.298
 4738W        W 8802   7.535   2.179  10.262
 4739W        W 8803   6.615   0.221   0.699
 4740W        W 8804   6.145   0.943   8.420
 4741W        W 8805   7.381   0.876   0.397
 4742W        W 8806   9.602   3.892   9.788
 4743W        W 8807  10.385   9.213   2.036
 4744W        W 8808   6.138   8.058   1.902
 4745W        W 8809  10.208   1.556   0.332
 4746W        W 8810   7.102   5.088   0.173
 4747W        W 8811   8.600   3.054   2.311
 4748W        W 8812   2.802   5.196   9.039
 4749W        W 8813   8.260   6.186   9.951
 4750W        W 8814   4.223   6.724  10.565
 4751W        W 8815   3.643   3.666   8.925
 4752W        W 8816   0.799   3.547   8.721
 4753W        W 8817   4.315   3.307  10.459
 4754W        W 8818   3.694   6.728  10.048
 4755W        W 8819   0.797   0.736   3.166
 4756W        W 8820   2.787   8.352  10.851
 4757W        W 8821   4.675   4.917   9.353
 4758W        W 8822   5.514   5.864  10.767
 4759W        W 8823   5.316   5.065   1.932
 4760W        W 8824   7.529   0.793   9.544
 4761W        W 8825   5.135   6.204  11.042
 4762W        W 8826   6.504   6.090   3.038
 4763W        W 8827   5.475   1.338   9.465
 4764W        W 8828  10.433   3.515   0.465
 4765W        W 8829   2.481   5.240  11.497
 4766W        W 8830  10.188   3.994   3.650
 4767W        W 8831   9.413   6.553   2.280
 4768W        W 8832   2.670   1.189   9.491
 4769W        W 8833  10.408   9.127  10.894
 4770W        W 8834   0.863   3.108   0.071
 4771W        W 8835   4.604   6.408   3.691
 4772W        W 8836   2.448   5.152  11.997
 4773W        W 8837   7.768   0.653  10.082
 4774W        W 8838   0.825   0.232   3.625
 4775W        W 8839   3.122  10.428   1.429
 4776W        W 8840   8.396   7.265   2.441
 4777W        W 8841   8.472   7.583   2.809
 4778W        W 8842   0.847   7.661   0.350
 4779W        W 8843   0.941   9.515   0.920
 4780W        W 8844   0.935   9.866  11.263
 4781W        W 8845   8.727   9.780  11.770
 4782W        W 8846   1.046   6.322   2.779
 4783W        W 8847  10.444   9.966   0.903
 4784W        W 8848   4.577   2.986  11.426
 4785W        W 8849   1.870   0.890   2.854
 4786W        W 8850   1.705   2.542   2.379
 4787W        W 8851   5.991   0.523   0.136
 4788W        W 8852   8.042   4.869   1.126
 4789W        W 8853   2.683   2.385   2.396
 4790W        W 8854   0.278   3.642  10.513
 4791W        W 8855   3.622   6.218  10.051
 4792W        W 8856   6.566   5.219   0.896
 4793W        W 8857   6.591   5.941   9.530
 4794W        W 8858   6.704   8.685   0.849
 4795W        W 8859   2.369   0.765   2.835
 4796W        W 8860   6.763   9.114   0.034
 4797W        W 8861   1.753   3.140   8.928
 4798W        W 8862   4.978   7.319   9.936
 4799W        W 8863   1.920  10.016   0.283
 4800W        W 8864   8.841   1.846   8.377
 4801W        W 8865   6.573   0.697   2.200
 4802W        W 8866   9.580   6.618   3.168
 4803W        W 8867   2.267   3.411   8.860
 4804W        W 8868   1.772   7.452   0.174
 4805W        W 8869   1.312   6.117  10.449
 4806W        W 8870   3.862   4.631   8.837
 4807W        W 8871   3.758   8.567   9.082
 4808W        W 8872   4.092   2.385   8.943
 4809W        W 8873   1.195   7.978   9.664
 4810W        W 8874   4.199   4.804   8.123
 4811W        W 8875   3.941   2.740  10.869
 4812W        W 8876   4.032   0.007   1.833
 4813W        W 8877   6.570   9.971   1.271
 4814W        W 8878   6.997   6.187   2.209
 4815W        W 8879   4.298  10.057   9.468
 4816W        W 8880   3.653   0.817   0.687
 4817W        W 8881  10.412   3.567   0.986
 4818W        W 8882   1.235   1.080  11.559
 4819W        W 8883   9.592   7.863   0.801
 4820W        W 8884   5.557   3.441   8.959
 4821W        W 8885   7.001   2.423  11.547
 4822W        W 8886   0.989   4.206  11.331
 4823W        W 8887   9.453   0.022  10.709
 4824W        W 8888   1.244  10.223   9.908
 4825W        W 8889   4.335   0.494  11.334
 4826W        W 8890   2.707   9.987   9.938
 4827W        W 8891   4.149   2.956   3.149
 4828W        W 8892  10.457   9.437  10.514
 4829W        W 8893   3.281   8.422   1.580
 4830W        W 8894   3.352   3.206   2.622
 4831W        W 8895   3.240   5.141  10.253
 4832W        W 8896   5.243   0.016   2.297
 4833W        W 8897   9.501   1.855   1.495
 4834W        W 8898   4.165   8.938   3.295
 4835W        W 8899   2.322   5.273   8.784
 4836W        W 8900   7.928   8.461   0.132
 4837W        W 8901   0.496   4.322   9.320
 4838W        W 8902   4.632   6.992   3.917
 4839W        W 8903   9.867   4.672   0.756
 4840W        W 8904   8.137   9.045   1.806
 4841W        W 8905   0.679   9.878  10.824
 4842W        W 8906   5.182   0.423  11.666
 4843W        W 8907   4.921   7.056   9.478
 4844W        W 8908   9.749   4.158  11.803
 4845W        W 8909   1.344   5.783   8.535
 4846W        W 8910   5.731   9.893  10.361
 4847W        W 8911   2.376   4.615   2.246
 4848W        W 8912   4.149   6.905  10.083
 4849W        W 8913   6.943   4.414   1.057
 4850W        W 8914   5.740  10.066   0.028
 4851W        W 8915   9.379   2.996   8.619
 4852W        W 8916   8.115   4.335  11.312
 4853W        W 8917   6.627   9.930  10.383
 4854W        W 8918   5.467   3.602   4.038
 4855W        W 8919   2.954   6.428  11.875
 4856W        W 8920   6.813   7.044   3.643
 4857W        W 8921   2.357  10.482   2.320
 4858W        W 8922   9.727   2.186  10.246
 4859W        W 8923   6.975   4.612   0.549
 4860W        W 8924   3.691   9.493   2.176
 4861W        W 8925   0.284   4.165   3.028
 4862W        W 8926   3.059   0.453   8.927
 4863W        W 8927   0.701   6.679   1.882
 4864W        W 8928   6.640   2.586  11.902
 4865W        W 8929   6.339   9.163   3.697
 4866W        W 8930   4.707   1.838  10.063
 4867W        W 8931   0.671   3.688   2.525
 4868W        W 8932   4.481   0.351   8.931
 4869W        W 8933   0.879   6.354   0.876
 4870W        W 8934   0.335   2.332  11.006
 4871W        W 8935  10.360   0.843   0.984
 4872W        W 8936   3.606   3.668  11.931
 4873W        W 8937   7.561   8.771  11.949
 4874W        W 8938   8.528   1.374  10.075
 4875W        W 8939   7.106   7.624  10.657
 4876W        W 8940   0.337  10.047   1.218
 4877W        W 8941   5.131   6.903   0.272
 4878W        W 8942   4.918   0.046   1.403
 4879W        W 8943   4.331   7.012   1.825
 4880W        W 8944   6.477   0.287   9.869
 4881W        W 8945   0.774  10.386   0.352
 4882W        W 8946   8.389   3.132  10.325
 4883W        W 8947   2.987   5.308   0.890
 4884W        W 8948   5.966   3.216   2.690
 4885W        W 8949   2.427   6.477   9.443
 4886W        W 8950   4.878   3.227   3.489
 4887W        W 8951   6.947   0.798  10.377
 4888W        W 8952   6.345   4.591   2.084
 4889W        W 8953   1.892   8.421  10.529
 4890W        W 8954   2.637   0.720  11.388
 4891W        W 8955   8.161   1.713   8.493
 4892W        W 8956   9.477   6.723   1.357
 4893W        W 8957   0.987   0.244   1.383
 4894W        W 8958   7.180   7.697   2.232
 4895W        W 8959   5.138   7.595  10.374
 4896W        W 8960   9.441   9.526   1.548
 4897W        W 8961   0.005   8.490   1.292
 4898W        W 8962   7.384   6.682   2.913
 4899W        W 8963   8.621   2.234   8.825
 4900W        W 8964   8.182   9.982  11.885
 4901W        W 8965   2.057   2.568   8.576
 4902W        W 8966   6.656   4.932   1.795
 4903W        W 8967   0.172   8.486   0.802
 4904W        W 8968   9.249   2.746   2.737
 4905W        W 8969   4.412   6.187  11.442
 4906W        W 8970   3.120  10.321   0.482
 4907W        W 8971   8.943   1.183  10.746
 4908W        W 8972   2.795   1.264   8.621
 4909W        W 8973   8.849   2.614  10.464
 4910W        W 8974   7.816   4.953   9.168
 4911W        W 8975   0.834   4.480   9.667
 4912W        W 8976   6.410   2.857  10.428
 4913W        W 8977   0.234   8.984   0.656
 4914W        W 8978   6.448   1.156   2.419
 4915W        W 8979   5.933   3.678   4.232
 4916W        W 8980   6.487   7.349   2.641
 4917W        W 8981   7.570   3.784   2.966
 4918W        W 8982   9.632   3.247   1.788
 4919W        W 8983   9.376   1.802  11.232
 4920W        W 8984   9.465   7.785   0.292
 4921W        W 8985   1.473   8.791   0.127
 4922W        W 8986   7.021   5.500   9.105
 4923W        W 8987   0.033   4.172  10.516
 4924W        W 8988   7.707   8.093  10.396
 4925W        W 8989   0.779   7.048   3.312
 4926W        W 8990   0.625   9.839   2.140
 4927W        W 8991   2.188   1.304  11.019
 4928W        W 8992   3.300   6.015  11.873
 4929W        W 8993   0.022   3.325  11.098
 4930W        W 8994   8.542   3.316   1.178
 4931W        W 8995   4.495   6.476   1.717
 4932W        W 8996   5.984   2.607  10.441
 4933W        W 8997   1.693   8.012   2.795
 4934W        W 8998   6.944   9.555   9.961
 4935W        W 8999   7.203   6.572  11.210
 4936W        W 9000   2.497   7.539   2.735
 4937W        W 9001   7.280   1.679   0.947
 4938W        W 9002   6.254   4.492   3.394
 4939W        W 9003   6.021   0.416  10.098
 4940W        W 9004   0.150   4.705   1.989
 4941W        W 9005   0.595   4.093   3.441
 4942W        W 9006   9.951   3.520   0.268
 4943W        W 9007   7.933   7.208   1.942
 4944W        W 9008   4.692   3.896   3.985
 4945W        W 9009  10.015   9.060   2.341
 4946W        W 9010   8.586   4.971   8.422
 4947W        W 9011   7.476   4.141  10.437
 4948W        W 9012   2.235   1.143  11.870
 4949W        W 9013   0.771   3.683   2.025
 4950W        W 9014   9.111   1.665   1.190
 4951W        W 9015   4.430   4.202  11.888
 4952W        W 9016   5.572   1.391   1.557
 4953W        W 9017   7.495   0.744   2.626
 4954W        W 9018   6.651   4.708   3.653
 4955W        W 9019   1.007   8.997   1.664
 4956W        W 9020   1.977   6.247   9.460
 4957W        W 9021   3.707   2.696   3.275
 4958W        W 9022   2.347   4.269  10.033
 4959W        W 9023   7.589   7.937   3.182
 4960W        W 9024   8.870   8.956   3.157
 4961W        W 9025   0.172   4.765   0.295
 4962W        W 9026   2.770   4.826  11.653
 4963W        W 9027   6.240   8.368   9.765
 4964W        W 9028   1.019   3.546   2.868
 4965W        W 9029   6.868   8.966   2.214
 4966W        W 9030   2.660   8.504   1.651
 4967W        W 9031   6.953   3.823  11.319
 4968W        W 9032  10.373   8.864   3.365
 4969W        W 9033   1.975   2.549  11.840
 4970W        W 9034   5.613   0.860   9.198
 4971W        W 9035   7.531   8.715   2.815
 4972W        W 9036   0.954   4.337   3.173
 4973W        W 9037   5.428   3.300   9.922
 4974W        W 9038   3.055   4.109   2.793
 4975W        W 9039   7.834   4.525  11.693
 4976W        W 9040   1.399   2.988   2.147
 4977W        W 9041   7.588   9.780   1.973
 4978W        W 9042   0.799   3.172   0.578
 4979W        W 9043   3.605   6.420   2.713
 4980W        W 9044   2.759   9.081   0.689
 4981W        W 9045   9.153   6.568   3.444
 4982W        W 9046   5.475   0.617  10.700
 4983W        W 9047   0.842   9.852   2.597
 4984W        W 9048   7.618  10.040   8.626
 4985W        W 9049   4.212   7.768  11.626
 4986W        W 9050   1.976   1.042   2.371
 4987W        W 9051   2.159  10.087   1.444
 4988W        W 9052   3.572   1.945   2.617
 4989W        W 9053   7.433   4.274  10.921
 4990W        W 9054   7.226   1.813   8.959
 4991W        W 9055   8.582   6.840   1.187
 4992W        W 9056   7.935   2.711   2.227
 4993W        W 9057   9.429   5.587   9.772
 4994W        W 9058   4.644   7.862   1.902
 4995W        W 9059   4.820   0.332  11.298
 4996W        W 9060   6.407   0.851  10.485
 4997W        W 9061   1.629   2.820  10.448
 4998W        W 9062   0.709   1.648   3.325
 4999W        W 9063   4.531   7.114   9.815
 5000W        W 9064   2.040   3.104   8.505
 5001W        W 9065   9.805   5.924  10.583
 5002W        W 9066   4.853   7.568   9.495
 5003W        W 9067   3.419   6.569   9.296
 5004W        W 9068   0.486   2.556   0.306
 5005W        W 9069   1.865   4.219   8.789
 5006W        W 9070   2.187   1.631   8.939
 5007W        W 9071   2.715   3.793   9.783
 5008W        W 9072   4.826   1.171  11.378
 5009W        W 9073   1.648   5.188   0.704
 5010W        W 9074   9.923   6.118   9.126
 5011W        W 9075   9.016   4.229   2.031
 5012W        W 9076   9.194  10.075   9.388
 5013W        W 9077   6.515   9.472  10.240
 5014W        W 9078   8.314   4.506   8.525
 5015W        W 9079   8.817   2.080  11.625
 5016W        W 9080   8.135   9.252  10.130
 5017W        W 9081   9.944   2.114   3.189
 5018W        W 9082  10.209   5.662   9.099
 5019W        W 9083   7.118   6.787  10.334
 5020W        W 9084   9.967  10.275  10.510
 5021W        W 9085   2.255   0.840   8.553
 5022W        W 9086   4.741   5.994   0.530
 5023W        W 9087   8.106   6.733  10.546
 5024W        W 9088   1.186   1.904   3.218
 5025W        W 9089   8.442   5.497   1.686
 5026W        W 9090   5.534   3.340   2.936
 5027W        W 9091  10.293   7.507   2.831
 5028W        W 9092   8.836   4.198   2.896
 5029W        W 9093   0.186   5.650   9.279
 5030W        W 9094   7.589   4.627  10.268
 5031W        W 9095   6.248   0.204   1.516
 5032W        W 9096   4.298  10.046   1.764
 5033W        W 9097   7.944   9.589   0.132
 5034W        W 9098   6.467   4.559   9.913
 5035W        W 9099   9.298   8.351   9.686
 5036W        W 9100   4.165   2.231  10.879
 5037W        W 9101   0.329   4.964   1.195
 5038W        W 9102   3.871   7.214   1.918
 5039W        W 9103   1.622  10.359   1.840
 5040W        W 9104   4.718   7.427   2.804
 5041W        W 9105   8.888   9.837   8.838
 5042W        W 9106   2.099   7.203   2.924
 5043W        W 9107   1.888   1.267   3.217
 5044W        W 9108   8.063   2.138   0.414
 5045W        W 9109   7.042   6.263  10.318
 5046W        W 9110   0.711   4.338  11.753
 5047W        W 9111   5.930   7.844   0.005
 5048W        W 9112  10.341   0.923  10.506
 5049W        W 9113   9.947   6.022   1.438
 5050W        W 9114   7.524   3.624  10.487
 5051W        W 9115   1.439   0.065   0.986
 5052W        W 9116   5.943   6.595   0.285
 5053W        W 9117   2.677   7.461   0.176
 5054W        W 9118   0.219   4.023  10.079
 5055W        W 9119   5.939  10.038  11.559
 5056W        W 9120   9.329   7.881   9.434
 5057W        W 9121   4.436   0.395   8.402
 5058W        W 9122   7.932   7.680  11.352
 5059W        W 9123   6.141   5.934  11.802
 5060W        W 9124   1.850   8.963  11.699
 5061W        W 9125   6.432   6.909  11.523
 5062W        W 9126   4.742   3.382  11.696
 5063W        W 9127   8.498   2.204   2.265
 5064W        W 9128   6.902   5.146  11.234
 5065W        W 9129   5.582   7.881  11.319
 5066W        W 9130   9.378   3.723   1.936
 5067W        W 9131   2.952   0.620   2.071
 5068W        W 9132   5.288   0.457  11.157
 5069W        W 9133   2.864   8.577   0.715
 5070W        W 9134   4.065   1.546  10.585
 5071W        W 9135   1.837   4.920  11.593
 5072W        W 9136   2.825   0.113   2.218
 5073W        W 9137   4.147   0.795   0.896
 5074W        W 9138   6.138   6.753   2.330
 5075W        W 9139   3.699   6.129   0.230
 5076W        W 9140   8.795   5.975  10.849
 5077W        W 9141   7.886   9.933   3.310
 5078W        W 9142   4.150   7.492   3.551
 5079W        W 9143   2.578   7.130   3.066
 5080W        W 9144   2.793   1.254   1.497
 5081W        W 9145   1.971   7.518   0.812
 5082W        W 9146   1.228   5.753   2.811
 5083W        W 9147   8.504   7.428  11.114
 5084W        W 9148   3.930   6.783   2.879
 5085W        W 9149   6.991   7.626   0.074
 5086W        W 9150   7.980   0.074   2.094
 5087W        W 9151   0.248   2.335   2.391
 5088W        W 9152   7.991   0.891   2.772
 5089W        W 9153   5.771   3.393   8.471
 5090W        W 9154   5.262   4.630   3.173
 5091W        W 9155   6.539   1.988   2.764
 5092W        W 9156   6.641   0.675  11.772
 5093W        W 9157   1.923   9.916  11.318
 5094W        W 9158   4.707   0.909   1.682
 5095W        W 9159   9.890   8.359   1.902
 5096W        W 9160   7.564   5.711   2.589
 5097W        W 9161   0.329  10.401   3.444
 5098W        W 9162   8.148   1.837   2.163
 5099W        W 9163   8.996   1.168   1.226
 5100W        W 9164   3.869   6.465   4.089
 5101W        W 9165   6.882   3.199   8.804
 5102W        W 9166   8.743   0.394   2.518
 5103W        W 9167   1.149   6.873   1.792
 5104W        W 9168   7.939   0.944  10.474
 5105W        W 9169   9.057   9.484  11.459
 5106W        W 9170   5.057   1.258   0.907
 5107W        W 9171   9.928   0.448  11.277
 5108W        W 9172   5.946   1.056  10.498
 5109W        W 9173   9.996   6.534   1.348
 5110W        W 9174   5.578  10.207   1.411
 5111W        W 9175   7.454   2.900   0.449
 5112W        W 9176   8.584   1.683   8.792
 5113W        W 9177   6.088   9.934   2.186
 5114W        W 9178   2.280   4.662   0.251
 5115W        W 9179   1.704   8.780   0.596
 5116W        W 9180   0.369   1.201   9.052
 5117W        W 9181  10.293   5.279  11.878
 5118W        W 9182   4.045   6.662  11.933
 5119W        W 9183   8.246   1.010   9.541
 5120W        W 9184   4.332   1.768  10.948
 5121W        W 9185   5.719   5.271   1.120
 5122W        W 9186   1.674   3.139  10.060
 5123W        W 9187  10.119   7.897   3.117
 5124W        W 9188   5.563   8.891  11.194
 5125W        W 9189   4.725   0.256  10.117
 5126W        W 9190   3.646   2.445   9.570
 5127W        W 9191   3.635   2.230  11.575
 5128W        W 9192   0.504   6.340  10.770
 5129W        W 9193   8.989   0.376   1.711
 5130W        W 9194   7.139   6.683   0.226
 5131W        W 9195   7.549   9.485   1.283
 5132W        W 9196   1.641   2.536   9.559
 5133W        W 9197   1.384   6.092   8.942
 5134W        W 9198   2.475   4.146   0.374
 5135W        W 9199   0.882   8.991   2.188
 5136W        W 9200   2.293   0.563   1.427
 5137W        W 9201   6.427   9.345  11.257
 5138W        W 9202   1.562   8.564   3.619
 5139W        W 9203  10.184   7.000   1.874
 5140W        W 9204  10.362   9.313   9.507
 5141W        W 9205   0.741   9.415  11.053
 5142W        W 9206   2.495   5.121   0.920
 5143W        W 9207   0.804   2.391  11.261
 5144W        W 9208   4.177   1.242   1.186
 5145W        W 9209   6.010   5.716   0.401
 5146W        W 9210   2.244   4.238  11.865
 5147W        W 9211   9.071   8.813   0.068
 5148W        W 9212   9.458  10.014   0.237
 5149W        W 9213   4.774   6.535  11.218
 5150W        W 9214   9.368   2.126   1.934
 5151W        W 9215   1.752   7.158   9.403
 5152W        W 9216   3.890   5.483  10.807
 5153W        W 9217   4.627   3.758   0.040
 5154W        W 9218   4.359   4.281  10.429
 5155W        W 9219   2.842   0.950   9.050
 5156W        W 9220   5.321   6.233  11.893
 5157W        W 9221   4.198   0.312   1.225
 5158W        W 9222   3.192   2.386   0.550
 5159W        W 9223   8.920   1.652  10.570
 5160W        W 9224  10.343   3.694  10.238
 5161W        W 9225   6.302   9.021  10.368
 5162W        W 9226   9.581   3.245   9.071
 5163W        W 9227   1.716   9.036  10.285
 5164W        W 9228   6.110   3.639  11.286
 5165W        W 9229   0.922   1.191   3.350
 5166W        W 9230   3.542  10.488   1.719
 5167W        W 9231   5.021   9.596   8.738
 5168W        W 9232   0.355   9.104  11.772
 5169W        W 9233   2.253   8.775   8.800
 5170W        W 9234   0.343   1.298   1.244
 5171W        W 9235   6.462   3.819   1.502
 5172W        W 9236   2.809   5.933   2.593
 5173W        W 9237   0.210   5.444   2.822
 5174W        W 9238   0.915   4.406   2.657
 5175W        W 9239   3.523   2.161   9.987
 5176W        W 9240   4.689   6.090   9.087
 5177W        W 9241   7.016   6.377   0.884
 5178W        W 9242   8.117   8.708   2.179
 5179W        W 9243   5.192   7.209  10.948
 5180W        W 9244   8.958   1.558  11.082
 5181W        W 9245   9.848   4.333   9.019
 5182W        W 9246   0.367   1.436   2.187
 5183W        W 9247   1.290   7.647   2.814
 5184W        W 9248   0.477   5.993   0.161
 5185W        W 9249   6.260   6.493  10.611
 5186W        W 9250   8.279   3.654   1.845
 5187W        W 9251   8.994   6.064   9.433
 5188W        W 9252   0.639   5.370  10.515
 5189W        W 9253   2.199   0.326   8.569
 5190W        W 9254   1.639   8.683   2.322
 5191W        W 9255   5.629   8.506   0.706
 5192W        W 9256   5.211   6.011   0.325
 5193W        W 9257   4.527   1.926   3.190
 5194W        W 9258   4.092   3.760   9.861
 5195W        W 9259   2.916   6.043  11.523
 5196W        W 9260   0.875   1.388  11.741
 5197W        W 9261   6.277   1.681   0.963
 5198W        W 9262   8.236   0.407   2.452
 5199W        W 9263   9.499   7.096   3.021
 5200W        W 9264   3.143   8.050  10.572
 5201W        W 9265  10.159   2.175   9.936
 5202W        W 9266   7.719   8.988   0.381
 5203W        W 9267   5.836   6.504   1.344
 5204W        W 9268   4.567  10.058   1.306
 5205W        W 9269   7.122   8.573  11.042
 5206W        W 9270   1.457   6.107  11.795
 5207W        W 9271   8.676   5.568  11.190
 5208W        W 9272   2.144   7.907   9.165
 5209W        W 9273   4.263   4.072   3.658
 5210W        W 9274   1.687   9.989   3.164
 5211W        W 9275   7.346   4.167   8.620
 5212W        W 9276   8.056   9.514   9.193
 5213W        W 9277   1.942   5.031   0.113
 5214W        W 9278   4.293   8.377   2.265
 5215W        W 9279   0.424   4.150   2.539
 5216W        W 9280   5.399   6.369   1.693
 5217W        W 9281   7.339   9.014   1.317
 5218W        W 9282   7.710   3.747   1.023
 5219W        W 9283   1.332   4.737   2.722
 5220W        W 9284   4.253   6.196   9.385
 5221W        W 9285   6.086   3.032   1.204
 5222W        W 9286   6.174   9.997  10.591
 5223W        W 9287   7.658   1.840   9.252
 5224W        W 9288   8.098   7.579  11.875
 5225W        W 9289  10.240   1.885   9.525
 5226W        W 9290   5.076   5.054   2.375
 5227W        W 9291   5.806   8.185  10.487
 5228W        W 9292   9.205   5.531   8.779
 5229W        W 9293   1.716  10.284   1.304
 5230W        W 9294   2.701   2.276   9.257
 5231W        W 9295   7.734   6.046   0.471
 5232W        W 9296   4.355   8.582   1.302
 5233W        W 9297   6.889   3.944   1.230
 5234W        W 9298   9.450   5.643   3.184
 5235W        W 9299   5.090   8.610   0.113
 5236W        W 9300   4.824   2.290  10.251
 5237W        W 9301   9.341   1.958   2.903
 5238W        W 9302   2.452   2.809   2.191
 5239W        W 9303   8.789   1.177   2.467
 5240W        W 9304   1.518   9.499   3.053
 5241W        W 9305   7.229   0.570  10.845
 5242W        W 9306   0.823   4.185   2.205
 5243W        W 9307  10.217   4.505   2.144
 5244W        W 9308   5.367   6.148   3.353
 5245W        W 9309   8.628   0.491   0.669
 5246W        W 9310   4.517   4.042   9.326
 5247W        W 9311   6.589   7.425   0.356
 5248W        W 9312   1.489  10.202   0.073
 5249W        W 9313   0.757   2.214   8.499
 5250W        W 9314   2.937   8.108   1.855
 5251W        W 9315   8.474   6.483  10.318
 5252W        W 9316   2.130   4.230   1.855
 5253W        W 9317   4.925  10.003   8.415
 5254W        W 9318   2.042   1.836   1.099
 5255W        W 9319   0.360   3.416   9.483
 5256W        W 9320   9.476   3.286   0.885
 5257W        W 9321   4.956   7.801   1.102
 5258W        W 9322   6.534   3.756   3.491
 5259W        W 9323   9.921   3.053   9.839
 5260W        W 9324   0.487   5.069   1.693
 5261W        W 9325   2.152   1.996   8.577
 5262W        W 9326   9.094   8.672   2.298
 5263W        W 9327   9.483   0.009   9.467
 5264W        W 9328   6.438   8.210  11.846
 5265W        W 9329  10.436   9.759   9.833
 5266W        W 9330   9.683   2.164   9.736
 5267W        W 9331   8.938   0.663   1.260
 5268W        W 9332   9.422   7.413   9.601
 5269W        W 9333   4.864   1.357   0.453
 5270W        W 9334   2.001   6.155   2.740
 5271W        W 9335   6.115   2.235   2.624
 5272W        W 9336   9.765   9.502   0.407
 5273W        W 9337   9.831   1.147   3.059
 5274W        W 9338   3.398   2.804   1.391
 5275W        W 9339   1.771   5.166   2.171
 5276W        W 9340   4.589   3.689   3.511
 5277W        W 9341   4.615   0.946   0.667
 5278W        W 9342   7.613   8.783   3.317
 5279W        W 9343   1.681   5.727  11.509
 5280W        W 9344   4.852   4.387   9.590
 5281W        W 9345   5.539   7.441   0.754
 5282W        W 9346   7.813   8.015  10.941
 5283W        W 9347   3.207   5.546   8.915
 5284W        W 9348   3.922   6.156  11.349
 5285W        W 9349   9.284  10.469   1.833
 5286W        W 9350   7.012   0.773   2.442
 5287W        W 9351   5.223   7.065   2.648
 5288W        W 9352   0.478   6.860   1.438
 5289W        W 9353   2.952   3.282   3.472
 5290W        W 9354   0.864   2.375   2.680
 5291W        W 9355  10.004   4.115  11.358
 5292W        W 9356   0.068   6.027   8.402
 5293W        W 9357   5.042   7.044   3.451
 5294W        W 9358   9.700   2.881   2.993
 5295W        W 9359   7.405  10.006  11.487
 5296W        W 9360  10.432   3.096   0.751
 5297W        W 9361   9.431   9.495   1.029
 5298W        W 9362   4.624   8.125   0.899
 5299W        W 9363   8.876   9.945   0.510
 5300W        W 9364   4.287   0.413   9.907
 5301W        W 9365   8.445   5.406   9.490
 5302W        W 9366  10.404   2.139   9.091
 5303W        W 9367   2.577   9.662   2.268
 5304W        W 9368   5.276   7.412   1.198
 5305W        W 9369   1.738   6.168   0.761
 5306W        W 9370   9.511   0.500  10.969
 5307W        W 9371  10.052   8.857   1.853
 5308W        W 9372   9.712   0.813   9.447
 5309W        W 9373   9.283   5.972   2.835
 5310W        W 9374   5.217   8.290   1.930
 5311W        W 9375   2.144   0.413   9.327
 5312W        W 9376   4.009  10.245   1.381
 5313W        W 9377   0.328   0.289  10.253
 5314W        W 9378   4.062   4.983   1.311
 5315W        W 9379   3.181   0.863   0.444
 5316W        W 9380  10.026   2.383   8.795
 5317W        W 9381  10.394   5.266   3.345
 5318W        W 9382   9.074   3.223   0.408
 5319W        W 9383   6.972  10.445  10.957
 5320W        W 9384   4.059   4.453   1.351
 5321W        W 9385   6.033   9.024  11.349
 5322W        W 9386   1.976   4.246  10.402
 5323W        W 9387   7.575   1.450  11.634
 5324W        W 9388   2.899   9.837   0.478
 5325W        W 9389   7.646   5.229   2.689
 5326W        W 9390   0.957   8.423   8.861
 5327W        W 9391  10.300   4.531  11.359
 5328W        W 9392   0.761   4.497   1.343
 5329W        W 9393   3.089   0.982   9.689
 5330W        W 9394   1.187   8.893   8.961
 5331W        W 9395   7.488   3.804   2.432
 5332W        W 9396   5.216   5.851  11.376
 5333W        W 9397   4.349   7.080   2.842
 5334W        W 9398   7.490   3.742   3.472
 5335W        W 9399   0.160   3.184   3.233
 5336W        W 9400   7.419   7.007   1.955
 5337W        W 9401   2.709   6.515   3.204
 5338W        W 9402   5.099   2.602   2.875
 5339W        W 9403   2.373   6.867   0.614
 5340W        W 9404   9.019   6.950   3.108
 5341W        W 9405   8.358   0.888   0.489
 5342W        W 9406   5.360   6.518   1.191
 5343W        W 9407   2.270   7.554   2.221
 5344W        W 9408   5.041   9.517  11.236
 5345W        W 9409   9.821   0.744   3.380
 5346W        W 9410   9.359   2.863   1.183
 5347W        W 9411   0.802   7.419   9.960
 5348W        W 9412   5.199   4.708   8.733
 5349W        W 9413   6.429   1.407   8.980
 5350W        W 9414   1.506   2.763   1.260
 5351W        W 9415   9.411   8.541  10.340
 5352W        W 9416   0.648   6.452   0.018
 5353W        W 9417   1.394   8.466   9.188
 5354W        W 9418   7.584   7.073   1.183
 5355W        W 9419   4.276   6.781   4.251
 5356W        W 9420   0.487   0.361   1.437
 5357W        W 9421   8.178   8.007  10.566
 5358W        W 9422   4.141   6.151  11.900
 5359W        W 9423   8.004   5.849   9.116
 5360W        W 9424   9.959   7.859   1.790
 5361W        W 9425   5.595   8.954  10.656
 5362W        W 9426   7.832   1.402   1.973
 5363W        W 9427   0.070   0.233   2.965
 5364W        W 9428   1.271   3.675   1.534
 5365W        W 9429   8.403   7.005   0.725
 5366W        W 9430   1.274   7.055   9.487
 5367W        W 9431   4.111   5.361   8.876
 5368W        W 9432   6.130   3.534   2.264
 5369W        W 9433   9.855   2.760   1.992
 5370W        W 9434   6.552   6.150   0.816
 5371W        W 9435   9.401   4.740   9.250
 5372W        W 9436   1.555   1.310   0.559
 5373W        W 9437   9.472   5.637  11.275
 5374W        W 9438   0.762   2.983  10.544
 5375W        W 9439   2.427   5.586   3.237
 5376W        W 9440   0.631   9.393   2.403
 5377W        W 9441   2.420   0.394   9.758
 5378W        W 9442   9.974   1.886   1.282
 5379W        W 9443   2.250   7.294  11.901
 5380W        W 9444   6.940   3.777  11.841
 5381W        W 9445   4.611   8.310   3.195
 5382W        W 9446   5.599   9.845  10.886
 5383W        W 9447   8.351   6.601   8.994
 5384W        W 9448   8.832   9.879  10.234
 5385W        W 9449   4.539   9.071   1.152
 5386W        W 9450   3.195   9.187   1.022
 5387W        W 9451   3.732   8.063   9.006
 5388W        W 9452   5.982   3.610   3.560
 5389W        W 9453   8.389   0.064   0.892
 5390W        W 9454   2.019   9.447   0.332
 5391W        W 9455   4.733   1.495  11.011
 5392W        W 9456   2.338   9.177   2.244
 5393W        W 9457   6.589   4.815  10.912
 5394W        W 9458   0.261   7.433  11.037
 5395W        W 9459   9.251   1.895   0.490
 5396W        W 9460   4.176   0.469   1.754
 5397W        W 9461   2.306   4.375   8.562
 5398W        W 9462   4.136   3.524   2.293
 5399W        W 9463   7.456   6.692   8.476
 5400W        W 9464   2.915   0.378   9.862
 5401W        W 9465   4.721   7.074   8.960
 5402W        W 9466   0.779   3.118   9.515
 5403W        W 9467   0.035   1.165   0.338
 5404W        W 9468   7.509   5.661   9.152
 5405W        W 9469   1.285   1.907   0.882
 5406W        W 9470   5.137   8.954  10.470
 5407W        W 9471  10.401   0.052  10.917
 5408W        W 9472   3.158   7.712   2.233
 5409W        W 9473   2.852   6.147   9.339
 5410W        W 9474   7.087   6.956  10.861
 5411W        W 9475   0.355   5.023  10.759
 5412W        W 9476   3.759   1.275   0.871
 5413W        W 9477   9.082   0.265   0.831
 5414W        W 9478   7.943   3.350  10.200
 5415W        W 9479   8.162   2.726   8.924
 5416W        W 9480   9.882   9.779  10.623
 5417W        W 9481   4.338   8.841   8.561
 5418W        W 9482   6.272  10.306   9.837
 5419W        W 9483  10.312   4.751   9.279
 5420W        W 9484   3.200   6.258   0.294
 5421W        W 9485   5.040   3.835   1.875
 5422W        W 9486  10.213   5.746  11.721
 5423W        W 9487   3.328   5.259   2.232
 5424W        W 9488   1.234   6.569   9.686
 5425W        W 9489   1.691   7.843  10.911
 5426W        W 9490   7.277   7.186   9.987
 5427W        W 9491   5.759   1.779  10.756
 5428W        W 9492   3.041   3.254   9.976
 5429W        W 9493   7.294   6.095   9.890
 5430W        W 9494   6.428   1.209   0.853
 5431W        W 9495   7.570   0.207  11.878
 5432W        W 9496   1.960   9.375   2.810
 5433W        W 9497   8.622   7.015   3.427
 5434W        W 9498   0.439   6.868   2.966
 5435W        W 9499   6.201   0.169   9.447
 5436W        W 9500   1.926   7.599   9.543
 5437W        W 9501   7.151   4.543  10.523
 5438W        W 9502   5.243   2.643   2.384
 5439W        W 9503   5.711   3.894   9.125
 5440W        W 9504   4.254   9.981   8.883
 5441W        W 9505   3.397   7.432   1.843
 5442W        W 9506   5.663   0.282  11.450
 5443W        W 9507   1.246   7.100  10.037
 5444W        W 9508   7.464   8.269  11.915
 5445W        W 9509   2.877   1.002   2.499
 5446W        W 9510   0.055   7.527   0.194
 5447W        W 9511   5.046   7.555   3.486
 5448W        W 9512   1.266   3.699   9.583
 5449W        W 9513   4.695   4.726   2.442
 5450W        W 9514   4.204   9.365   0.874
 5451W        W 9515   3.169   1.469   9.579
 5452W        W 9516   3.160   7.109   3.586
 5453W        W 9517   1.156   5.387   1.898
 5454W        W 9518  10.027   7.043   9.577
 5455W        W 9519   9.855   7.802   8.454
 5456W        W 9520   7.529   8.172   9.910
 5457W        W 9521  10.064   6.398   3.190
 5458W        W 9522   6.532   0.245  11.432
 5459W        W 9523   1.997   4.784   9.002
 5460W        W 9524   5.650   0.902   1.696
 5461W        W 9525   2.412  10.474  10.527
 5462W        W 9526   0.150   9.799   2.349
 5463W        W 9527   2.621   4.356   2.691
 5464W        W 9528   6.100   8.804  11.834
 5465W        W 9529   4.703   6.033   1.527
 5466W        W 9530   7.524   4.280   2.828
 5467W        W 9531   5.277   3.595   0.945
 5468W        W 9532   4.582   5.926   3.812
 5469W        W 9533   9.938   9.577   3.678
 5470W        W 9534   3.433   1.827   1.367
 5471W        W 9535   4.422   5.688   1.265
 5472W        W 9536   7.693   9.970   9.589
 5473W        W 9537   6.044   9.482  10.473
 5474W        W 9538   8.342   7.067   8.632
 5475W        W 9539   8.503   8.081   2.704
 5476W        W 9540   2.871   7.583   1.815
 5477W        W 9541   1.864   1.380   3.703
 5478W        W 9542   3.605   9.186   0.283
 5479W        W 9543   1.413   7.102   1.009
 5480W        W 9544   1.681   0.208   9.374
 5481W        W 9545   6.740   6.572  10.806
 5482W        W 9546   5.543   9.783   9.412
 5483W        W 9547   0.327   0.950   9.497
 5484W        W 9548  10.463   6.166   0.970
 5485W        W 9549   5.067   6.154  10.563
 5486W        W 9550   0.107   9.185  11.341
 5487W        W 9551   7.096   7.127   1.360
 5488W        W 9552   4.984  10.486   8.771
 5489W        W 9553   3.747   6.200   9.174
 5490W        W 9554   3.335   0.474   1.168
 5491W        W 9555   4.809   2.922  10.988
 5492W        W 9556   2.743   3.229  11.258
 5493W        W 9557   6.487   9.911   3.006
 5494W        W 9558   4.249   9.543  11.381
 5495W        W 9559   0.722   9.135   0.645
 5496W        W 9560   9.036   2.309   8.420
 5497W        W 9561   9.958   6.644   9.908
 5498W        W 9562   5.155  10.021  11.106
 5499W        W 9563   7.044   2.646   2.793
 5500W        W 9564   3.800   2.938   9.664
 5501W        W 9565   3.219   2.363  11.281
 5502W        W 9566   6.609   3.819   8.898
 5503W        W 9567   1.034   7.901  11.910
 5504W        W 9568  10.336   3.124  10.124
 5505W        W 9569   3.023   2.818   2.330
 5506W        W 9570   0.482   5.622   2.377
 5507W        W 9571   7.746   1.550   1.061
 5508W        W 9572   1.147   9.731   9.740
 5509W        W 9573   2.160   6.129   9.936
 5510W        W 9574   9.288   6.511   8.735
 5511W        W 9575   0.097   5.989   3.403
 5512W        W 9576   8.090   6.458   0.438
 5513W        W 9577   7.535   1.925   1.332
 5514W        W 9578   9.822   3.355   3.094
 5515W        W 9579   5.459   2.950   8.857
 5516W        W 9580   5.942   6.635   1.831
 5517W        W 9581   6.219   0.840   3.051
 5518W        W 9582   7.600   1.582   9.711
 5519W        W 9583   0.435   6.475  11.259
 5520W        W 9584   6.287   6.150   0.341
 5521W        W 9585   3.810   3.123   2.365
 5522W        W 9586   2.840   0.471   1.305
 5523W        W 9587   3.730   9.518  11.303
 5524W        W 9588   0.722   3.639   3.665
 5525W        W 9589   7.985   6.686   1.823
 5526W        W 9590   9.264   2.842   9.112
 5527W        W 9591   1.276   0.983   9.515
 5528W        W 9592   1.388   1.472   9.534
 5529W        W 9593   1.843   3.792  11.273
 5530W        W 9594   9.069   5.288  11.414
 5531W        W 9595   4.226   8.013   0.154
 5532W        W 9596   5.072   4.116   2.758
 5533W        W 9597   3.736   3.298   9.287
 5534W        W 9598   6.076   3.262   0.184
 5535W        W 9599   3.532   8.009   2.416
 5536W        W 9600   3.321   0.689  10.630
 5537W        W 9601   0.116   7.071   0.891
 5538W        W 9602   4.501   7.592   0.043
 5539W        W 9603   1.893   0.803  10.429
 5540W        W 9604   7.460   5.337   4.031
 5541W        W 9605   1.791   6.658   0.597
 5542W        W 9606   3.945   5.527   1.136
 5543W        W 9607   8.621   8.813   2.234
 5544W        W 9608   5.059   4.895  11.483
 5545W        W 9609   9.078   5.759  11.583
 5546W        W 9610   5.251   6.419   9.978
 5547W        W 9611   5.692   6.481   0.820
 5548W        W 9612   2.436  10.357   3.491
 5549W        W 9613   2.465   0.873  10.937
 5550W        W 9614   1.041   5.678  10.448
 5551W        W 9615   7.133   2.266   1.999
 5552W        W 9616   3.992   0.315  10.939
 5553W        W 9617   7.456   6.280   2.444
 5554W        W 9618   2.301   1.946   9.318
 5555W        W 9619   5.926   7.570   3.529
 5556W        W 9620   4.411  10.334   0.507
 5557W        W 9621   4.124   6.627   8.601
 5558W        W 9622   5.744   2.528  11.826
 5559W        W 9623   6.976   7.136   9.545
 5560W        W 9624   7.403   2.249  10.739
 5561W        W 9625   6.437   5.693   0.128
 5562W        W 9626   3.352   9.583   8.530
 5563W        W 9627   2.170   5.920   0.879
 5564W        W 9628   5.995   2.818   0.431
 5565W        W 9629   6.513   2.470   8.581
 5566W        W 9630   0.814   2.816   2.391
 5567W        W 9631   2.073   8.461   0.729
 5568W        W 9632   4.214   6.107   0.427
 5569W        W 9633   5.727   1.274  10.929
 5570W        W 9634   6.404   9.124   0.916
 5571W        W 9635   0.068   6.406   3.076
 5572W        W 9636   5.169   1.832   8.793
 5573W        W 9637   5.903   0.956   0.439
 5574W        W 9638   2.078   9.984   3.459
 5575W        W 9639   4.666   9.431  10.573
 5576W        W 9640   7.040   8.583   1.272
 5577W        W 9641   1.758   8.527   9.541
 5578W        W 9642   8.067   7.867   2.959
 5579W        W 9643   6.107   0.490  11.129
 5580W        W 9644   1.170   0.426   0.183
 5581W        W 9645   1.512   4.257   0.254
 5582W        W 9646   9.304   4.615   3.540
 5583W        W 9647   3.147   3.614   9.565
 5584W        W 9648   8.881   8.812  11.552
 5585W        W 9649   9.779   7.428   0.692
 5586W        W 9650   3.282   1.569  10.871
 5587W        W 9651   7.407   1.635   0.454
 5588W        W 9652   5.919   8.031   2.351
 5589W        W 9653   7.005   2.749   9.736
 5590W        W 9654   2.673   2.832   0.961
 5591W        W 9655   3.038   9.777   3.170
 5592W        W 9656   9.604   7.197   2.527
 5593W        W 9657   8.165   6.265   3.563
 5594W        W 9658   4.705   0.332  11.951
 5595W        W 9659   0.255   5.432   1.376
 5596W        W 9660   5.996   8.007   1.409
 5597W        W 9661   6.565   3.644  11.028
 5598W        W 9662   7.137   1.371   3.132
 5599W        W 9663   9.992   7.069   2.878
 5600W        W 9664   9.822   0.973  11.214
 5601W        W 9665   5.240   3.166   9.394
 5602W        W 9666   9.279   6.043   8.971
 5603W        W 9667   1.318   9.959   1.896
 5604W        W 9668   6.968   8.102  11.833
 5605W        W 9669   3.132   6.665   0.551
 5606W        W 9670   7.298  10.407  10.044
 5607W        W 9671   7.522   2.382   1.137
 5608W        W 9672   6.594   2.109  10.011
 5609W        W 9673   9.466   1.054   0.920
 5610W        W 9674   2.239   9.132  10.098
 5611W        W 9675   8.086   1.421  11.851
 5612W        W 9676   5.628   3.400   2.369
 5613W        W 9677   3.797   5.946   9.611
 5614W        W 9678  10.444   1.953   0.047
 5615W        W 9679   4.137   1.326   2.273
 5616W        W 9680   4.676   9.290   1.985
 5617W        W 9681   7.840   5.610   0.198
 5618W        W 9682   5.543   8.913   2.504
 5619W        W 9683   0.791   5.191  10.987
 5620W        W 9684   8.982   4.581   0.792
 5621W        W 9685   5.229   9.961   9.058
 5622W        W 9686   0.210   6.952   0.376
 5623W        W 9687   8.027   4.500   9.032
 5624W        W 9688   0.265   2.830   2.382
 5625W        W 9689   7.466   3.150  10.260
 5626W        W 9690   1.421   9.283   3.845
 5627W        W 9691   2.272  10.041  10.915
 5628W        W 9692   8.870   8.816   1.353
 5629W        W 9693   6.576   7.849   2.839
 5630W        W 9694   0.935   8.633   0.129
 5631W        W 9695   4.190   6.115   1.468
 5632W        W 9696   6.557   8.663   0.006
 5633W        W 9697   2.427   1.723   0.190
 5634W        W 9698   0.192   9.957   8.883
 5635W        W 9699   7.539   8.057   2.225
 5636W        W 9700   2.275   5.116   1.976
 5637W        W 9701   2.721   3.567  10.274
 5638W        W 9702   5.284   2.637   1.181
 5639W        W 9703   5.938   9.014   1.189
 5640W        W 9704   7.922   3.212   3.514
 5641W        W 9705   4.677   7.935  11.704
 5642W        W 9706   1.959   8.948   0.197
 5643W        W 9707  10.484   0.241   9.404
 5644W        W 9708   4.992   4.456  10.097
 5645W        W 9709   0.467  10.403   2.923
 5646W        W 9710   4.556   2.837   3.447
 5647W        W 9711   7.261   3.183   1.549
 5648W        W 9712   8.423   8.104   9.816
 5649W        W 9713   1.577   8.550  11.305
 5650W        W 9714   0.865   7.985   1.224
 5651W        W 9715   8.149   3.655   1.235
 5652W        W 9716   1.910   7.863   1.980
 5653W        W 9717   2.862   9.422   1.393
 5654W        W 9718   8.495   2.452   1.238
 5655W        W 9719   1.838   1.176   9.742
 5656W        W 9720   3.326   5.029   1.768
 5657W        W 9721   7.122   5.994   9.061
 5658W        W 9722   0.117   5.388  10.496
 5659W        W 9723   6.070  10.278   1.695
 5660W        W 9724   4.082   2.908  11.378
 5661W        W 9725   6.468   9.297   9.371
 5662W        W 9726   6.916   8.958  11.294
 5663W        W 9727   3.484   2.208   1.019
 5664W        W 9728   3.341   6.738  11.746
 5665W        W 9729   0.597   4.988  11.417
 5666W        W 9730  10.363   5.426  11.350
 5667W        W 9731   5.532   4.118   1.840
 5668W        W 9732   0.811   2.259   3.207
 5669W        W 9733   5.227   7.038   9.076
 5670W        W 9734   3.255   5.148   9.274
 5671W        W 9735   0.500   8.253   9.094
 5672W        W 9736   1.000   7.375   0.781
 5673W        W 9737   0.997   2.132   0.224
 5674W        W 9738   7.851   6.647   0.012
 5675W        W 9739   9.370   0.595   3.152
 5676W        W 9740   4.612   4.403   3.861
 5677W        W 9741   6.423   0.154  11.961
 5678W        W 9742  10.487   3.930   0.154
 5679W        W 9743   6.102   9.320   9.983
 5680W        W 9744   4.557   5.303   9.688
 5681W        W 9745   8.511   5.896   9.537
 5682W        W 9746   9.897   8.289  11.977
 5683W        W 9747   5.644   1.812   8.973
 5684W        W 9748   1.239   0.318  11.033
 5685W        W 9749   3.275   8.318   8.817
 5686W        W 9750   9.465   7.830  10.972
 5687W        W 9751   9.921   9.835   1.678
 5688W        W 9752   5.702   3.475  10.345
 5689W        W 9753   7.355   3.051   8.891
 5690W        W 9754   1.841   7.909   0.468
 5691W        W 9755   1.368   3.836   1.053
 5692W        W 9756   5.142   8.645   0.627
 5693W        W 9757   0.746   0.892  11.553
 5694W        W 9758   1.413   0.230   9.890
 5695W        W 9759   8.142   6.006   1.333
 5696W        W 9760   9.483   5.723   1.220
 5697W        W 9761   0.875   5.439  10.011
 5698W        W 9762   3.669   5.904   3.634
 5699W        W 9763   3.490  10.319   9.394
 5700W        W 9764   7.686   1.826   8.701
 5701W        W 9765   1.293   4.961  10.953
 5702W        W 9766   7.710   6.389   9.823
 5703W        W 9767   5.085   3.641   1.402
 5704W        W 9768   1.213  10.257   1.393
 5705W        W 9769   6.605   3.265   3.281
 5706W        W 9770   0.879   4.007   9.492
 5707W        W 9771   1.327   7.857  10.557
 5708W        W 9772   3.400   7.555   2.693
 5709W        W 9773   2.815   4.072  10.201
 5710W        W 9774   1.666   2.796  11.517
 5711W        W 9775   0.854   6.476  11.562
 5712W        W 9776   5.457   8.420   3.179
 5713W        W 9777   2.183   3.307   1.853
 5714W        W 9778   5.993   5.456  11.977
 5715W        W 9779   7.656   0.104   0.768
 5716W        W 9780   2.120   9.329   9.618
 5717W        W 9781   7.665   1.219   0.657
 5718W        W 9782   3.710   3.616   1.657
 5719W        W 9783   7.111  10.448   3.120
 5720W        W 9784   5.685   0.785  11.142
 5721W        W 9785   7.993   2.624   0.245
 5722W        W 9786   3.332   0.723  11.463
 5723W        W 9787   8.763   2.262   9.878
 5724W        W 9788   2.761   1.480   9.905
 5725W        W 9789   6.931   4.920  10.247
 5726W        W 9790   4.426   5.177   3.599
 5727W        W 9791   1.240   9.277   1.263
 5728W        W 9792   2.403   5.680   9.960
 5729W        W 9793   3.216   3.307   9.112
 5730W        W 9794   9.108   3.303   1.857
 5731W        W 9795   5.500   3.721   0.512
 5732W        W 9796   0.197   9.570  11.951
 5733W        W 9797   5.104   3.150   1.170
 5734W        W 9798   5.704   6.440   3.139
 5735W        W 9799  10.328   7.186  10.850
 5736W        W 9800   9.853   9.062   1.433
 5737W        W 9801   6.873   9.926   2.618
 5738W        W 9802   4.611   2.380   0.698
 5739W        W 9803   1.344   0.878   0.362
 5740W        W 9804   6.144   0.056  10.761
 5741W        W 9805   3.774   5.010   2.134
 5742W        W 9806   1.305   1.036   3.049
 5743W        W 9807   3.881   0.891  11.186
 5744W        W 9808   7.427   9.557   9.757
 5745W        W 9809   7.033   8.145  11.312
 5746W        W 9810  10.075  10.441   2.915
 5747W        W 9811   1.850   1.689   9.596
 5748W        W 9812   4.752  10.455   9.666
 5749W        W 9813   6.233   9.909   8.757
 5750W        W 9814   2.892   7.587   9.341
 5751W        W 9815   2.422   6.111  11.464
 5752W        W 9816   7.609   5.382   2.173
 5753W        W 9817   4.543   3.151   1.801
 5754W        W 9818   8.955   0.495   9.134
 5755W        W 9819   8.331   2.240  10.247
 5756W        W 9820   9.163  10.313   1.322
 5757W        W 9821   6.976   6.085  10.790
 5758W        W 9822   4.442   7.739   1.229
 5759W        W 9823   9.426   2.126   3.402
 5760W        W 9824   4.129   7.034   3.300
 5761W        W 9825   4.580   8.810   2.142
 5762W        W 9826   2.149   2.403   9.544
 5763W        W 9827   4.670   8.379  11.449
 5764W        W 9828   4.520   5.468   9.217
 5765W        W 9829   5.175   0.956  10.937
 5766W        W 9830   9.462   4.862   2.943
 5767W        W 9831  10.299   2.910   3.601
 5768W        W 9832   4.624   0.447   1.515
 5769W        W 9833   3.438   5.620   8.144
 5770W        W 9834   8.610   0.976   0.918
 5771W        W 9835   1.469   9.289   8.763
 5772W        W 9836   2.219   6.412   0.787
 5773W        W 9837   2.907   4.798   0.865
 5774W        W 9838   8.099   8.526   1.121
 5775W        W 9839   8.867   7.406  10.243
 5776W        W 9840   0.975  10.201  10.553
 5777W        W 9841   7.353   4.108   1.028
 5778W        W 9842   1.160   6.512  11.997
 5779W        W 9843   2.484   9.591  10.758
 5780W        W 9844   7.105   9.951  10.238
 5781W        W 9845   3.070   8.010   9.545
 5782W        W 9846   0.418   5.213   9.387
 5783W        W 9847   9.074   7.951   3.332
 5784W        W 9848   0.310   8.609  11.918
 5785W        W 9849   7.422   5.624   3.600
 5786W        W 9850   0.536   8.626  10.617
 5787W        W 9851   8.370   9.461   1.952
 5788W        W 9852   8.951   6.610  11.481
 5789W        W 9853   0.865   2.199   9.022
 5790W        W 9854   7.512   6.507   1.979
 5791W        W 9855   4.540   4.145   1.313
 5792W        W 9856   0.443   4.555  10.529
 5793W        W 9857   3.699   0.788   2.761
 5794W        W 9858   5.532   3.312  10.848
 5795W        W 9859   2.501   1.733  11.335
 5796W        W 9860   2.382   0.339   1.945
 5797W        W 9861   3.146   5.257   3.285
 5798W        W 9862   4.232  10.201  11.718
 5799W        W 9863   0.494   4.623   3.432
 5800W        W 9864   9.144   6.633  10.564
 5801W        W 9865  10.258   7.200   0.484
 5802W        W 9866   0.722   6.071   9.837
 5803W        W 9867   0.186   8.141   0.088
 5804W        W 9868   2.122   2.095   0.028
 5805W        W 9869   3.668   5.038   4.223
 5806W        W 9870   4.649   5.740   2.414
 5807W        W 9871   7.529   2.644   0.002
 5808W        W 9872   8.995   9.461  10.494
 5809W        W 9873   9.992  10.239  11.057
 5810W        W 9874   3.338   8.384   0.603
 5811W        W 9875   0.957  10.403   0.975
 5812W        W 9876   8.446   1.765  10.404
 5813W        W 9877   3.155   4.800   0.384
 5814W        W 9878   5.663   2.307   2.889
 5815W        W 9879   0.503   1.120  10.506
 5816W        W 9880   3.687   8.138   3.372
 5817W        W 9881   9.359   9.424   0.067
 5818W        W 9882   1.703   3.781  10.288
 5819W        W 9883   6.214   7.681  11.136
 5820W        W 9884   2.608  10.385   1.341
 5821W        W 9885   9.100   9.870   0.963
 5822W        W 9886   0.670   8.234  11.968
 5823W        W 9887   9.974   4.621  11.790
 5824W        W 9888   1.462   3.454   2.575
 5825W        W 9889   3.812   9.320   2.672
 5826W        W 9890   3.066   9.608   9.887
 5827W        W 9891   0.404   3.895   9.632
 5828W        W 9892   1.345   3.716   9.087
 5829W        W 9893   0.870   8.579   1.399
 5830W        W 9894   4.033   7.486   9.009
 5831W        W 9895   3.334   0.464   0.159
 5832W        W 9896   9.445  10.000   1.762
 5833W        W 9897   2.317   5.975   0.372
 5834W        W 9898   3.815   0.418  11.950
 5835W        W 9899   1.080   9.930   3.529
 5836W        W 9900   9.505   3.449  11.011
 5837W        W 9901   2.122   4.397   2.768
 5838W        W 9902   5.054   7.117   8.591
 5839W        W 9903   4.237   1.807   9.825
 5840W        W 9904   0.499  10.297   0.784
 5841W        W 9905   2.681   5.948  10.786
 5842W        W 9906   0.783   0.321   9.964
 5843W        W 9907   6.564   1.649  11.829
 5844W        W 9908   4.536   5.059   3.063
 5845W        W 9909   3.949   5.059   3.771
 5846W        W 9910   1.944   4.705   1.963
 5847W        W 9911   1.852   7.028   8.922
 5848W        W 9912   8.279   2.327   9.738
 5849W        W 9913   4.653   5.011  11.758
 5850W        W 9914   5.094   4.975  10.106
 5851W        W 9915   0.215   7.020   1.842
 5852W        W 9916  10.294   0.070   2.104
 5853W        W 9917   6.780   7.011   9.996
 5854W        W 9918   1.059   3.987  10.413
 5855W        W 9919   6.945   4.512   1.939
 5856W        W 9920   5.965   6.458   2.715
 5857W        W 9921   1.984   9.779   9.426
 5858W        W 9922   3.064  10.009  11.987
 5859W        W 9923   2.579   6.600  11.573
 5860W        W 9924   4.722   0.729  11.624
 5861W        W 9925   7.139   1.683   9.980
 5862W        W 9926   2.617  10.273   1.847
 5863W        W 9927  10.039   9.526   2.834
 5864W        W 9928   2.164   2.290   2.339
 5865W        W 9929   1.303   3.108  11.353
 5866W        W 9930   3.755   9.356   9.470
 5867W        W 9931   0.515  10.487  11.868
 5868W        W 9932   0.968   3.358  11.633
 5869W        W 9933  10.326   7.949   9.737
 5870W        W 9934   6.137   6.649   9.458
 5871W        W 9935   0.486   5.731  10.176
 5872W        W 9936   6.716   5.033   4.071
 5873W        W 9937   7.843   3.105   0.189
 5874W        W 9938   3.771   7.135   0.364
 5875W        W 9939   6.482   4.098  10.199
 5876W        W 9940   7.663   8.315   3.531
 5877W        W 9941   6.634   2.611  10.050
 5878W        W 9942   5.982   5.690   1.241
 5879W        W 9943   4.142   4.262   1.814
 5880W        W 9944  10.468  10.401  10.383
 5881W        W 9945   5.544   9.593  11.944
 5882W        W 9946   5.520   0.293   3.235
 5883W        W 9947   6.444   4.038  11.369
 5884W        W 9948   9.473   1.286   2.313
 5885W        W 9949   8.325   5.747  10.874
 5886W        W 9950   5.716   2.148   3.393
 5887W        W 9951   3.088   9.362   1.860
 5888W        W 9952   5.019   5.038   2.884
 5889W        W 9953   2.515   2.751   9.383
 5890W        W 9954   0.335   3.024   9.825
 5891W        W 9955   4.104   3.885  11.293
 5892W        W 9956   1.265   8.986   2.524
 5893W        W 9957   1.990   0.439   3.566
 5894W        W 9958   7.833   8.368   3.035
 5895W        W 9959   6.485   7.293   1.761
 5896W        W 9960   7.267   0.842   9.983
 5897W        W 9961   1.183   8.158   3.528
 5898W        W 9962   6.587   5.701   3.885
 5899W        W 9963   2.314   5.196  10.206
 5900W        W 9964   4.977   3.364   8.074
 5901W        W 9965   1.140   4.316   1.006
 5902W        W 9966   1.601   4.961   9.919
 5903W        W 9967   8.666   1.532   3.486
 5904W        W 9968   3.533   3.101   1.913
 5905W        W 9969   2.164   5.219   3.528
 5906W        W 9970   5.543   2.629   3.309
 5907W        W 9971   7.239   6.216   0.454
 5908W        W 9972   5.229   1.346  11.677
 5909W        W 9973   9.137   7.033   0.688
 5910W        W 9974   2.297   2.787   9.886
 5911W        W 9975  10.033   4.022  10.516
 5912W        W 9976  10.078   1.329  10.214
 5913W        W 9977   7.722   9.469   2.661
 5914W        W 9978   0.858   1.628  10.283
 5915W        W 9979   3.778   8.458  11.017
 5916W        W 9980   3.077   0.026  11.998
 5917W        W 9981   1.989   9.352   1.018
 5918W        W 9982   5.340   6.836   3.086
 5919W        W 9983   9.715  10.416   0.438
 5920W        W 9984   4.306   2.439  10.312
 5921W        W 9985   7.707   8.018   0.293
 5922W        W 9986   4.704   1.389   1.512
 5923W        W 9987   6.582   9.694  11.987
 5924W        W 9988   3.278   5.770   2.294
 5925W        W 9989   6.020   4.303   9.976
 5926W        W 9990   5.001   1.313   9.197
 5927W        W 9991   6.958   9.497  10.530
 5928W        W 9992   0.617   6.626   0.487
 5929W        W 9993   8.906  10.361   9.045
 5930W        W 9994   9.130   7.021   9.837
 5931W        W 9995   9.352   5.153   0.755
 5932W        W 9996   9.896   7.546   9.845
 5933W        W 9997   9.659   0.399   2.385
 5934W        W 9998   2.319   9.783   1.049
 5935W        W 9999   8.188   3.137   2.004
 5936W        W10000   3.284   1.293   2.289
 5937W        W10001   6.056   1.826   2.969
 5938W        W10002   6.057   7.386  10.333
 5939W        W10003   2.431   9.437   2.680
 5940W        W10004   7.229   1.223   9.644
 5941W        W10005   2.688   1.985  10.046
 5942W        W10006   8.637   9.540  10.844
 5943W        W10007   9.339   7.026   2.095
 5944W        W10008   5.714   6.078   2.475
 5945W        W10009   3.923   1.357  11.395
 5946W        W10010   3.254   4.316   1.288
 5947W        W10011   4.541   4.063   9.848
 5948W        W10012   5.201   5.605   3.128
 5949W        W10013   7.991   3.632   2.675
 5950W        W10014   2.790   3.360  10.738
 5951W        W10015   4.756  10.040   8.871
 5952W        W10016   1.860  10.298   8.716
 5953W        W10017   7.397   5.000   9.960
 5954W        W10018   1.903   2.329   0.478
 5955W        W10019   1.088   5.557   1.085
 5956W        W10020  10.274   8.038   1.391
 5957W        W10021   0.832   8.100  11.470
 5958W        W10022   0.987   0.132   8.604
 5959W        W10023   5.438   7.576   4.224
 5960W        W10024   0.027   5.827   2.438
 5961W        W10025   5.430   0.330   9.389
 5962W        W10026  10.453   7.003   9.267
 5963W        W10027   4.613   7.390  11.611
 5964W        W10028   1.332   2.365   9.181
 5965W        W10029   6.980   7.683  11.545
 5966W        W10030   5.284   2.155  10.085
 5967W        W10031   5.479   3.999  11.681
 5968W        W10032   3.296   5.557   3.672
 5969W        W10033   1.787   7.606   3.143
 5970W        W10034   9.052   1.528   2.188
 5971W        W10035   4.373   4.520   9.509
 5972W        W10036   6.590   2.112   0.043
 5973W        W10037   4.639  10.469  11.577
 5974W        W10038   3.185   7.055   9.986
 5975W        W10039   4.647   4.399   8.422
 5976W        W10040   3.236   9.907   2.720
 5977W        W10041   3.426   3.508   3.355
 5978W        W10042   5.771   5.617   8.584
 5979W        W10043   6.052  10.063  11.067
 5980W        W10044   2.550   9.431   1.814
 5981W        W10045   2.942   6.069   3.111
 5982W        W10046  10.009   9.733   0.803
 5983W        W10047   9.762   1.660   2.994
 5984W        W10048   5.575   4.393   8.502
 5985W        W10049   2.540   9.152  10.497
 5986W        W10050   1.262  10.334   0.535
 5987W        W10051   9.204   0.853   2.370
 5988W        W10052   5.073   8.172   0.408
 5989W        W10053  10.216   8.847   9.094
 5990W        W10054   9.395   1.389   2.790
 5991W        W10055  10.039   1.754   9.047
 5992W        W10056   2.510   8.234   0.849
 5993W        W10057   8.462   1.076  10.512
 5994W        W10058   3.728   7.086   1.021
 5995W        W10059   6.644   6.599  10.283
 5996W        W10060   3.036   2.694   9.325
 5997W        W10061   8.922   6.067   3.255
 5998W        W10062   8.704   3.876   3.698
 5999W        W10063   9.116  10.267  11.060
 6000W        W10064   9.842   8.924   3.268
 6001W        W10065   5.701   4.759   9.004
 6002W        W10066   0.271   2.224   1.275
 6003W        W10067   2.660   3.848  10.745
 6004W        W10068  10.263   2.652   1.514
 6005W        W10069   3.379   8.455   2.637
 6006W        W10070   5.483   2.278   8.808
 6007W        W10071   3.741   4.165   3.558
 6008W        W10072   5.614   4.920   8.518
 6009W        W10073   3.336   7.509   9.725
 6010W        W10074   4.675   8.124   1.438
 6011W        W10075   8.988   1.658   2.675
 6012W        W10076   9.509   9.939   1.259
 6013W        W10077   8.684   2.734   9.091
 6014W        W10078   2.626   3.059  10.325
 6015W        W10079   2.279   3.840  10.315
 6016W        W10080   0.611   7.577  10.589
 6017W        W10081   6.699   1.665  11.297
 6018W        W10082   8.558   8.847   0.017
 6019W        W10083   2.267   9.868   1.916
 6020W        W10084   6.354   0.490   9.038
 6021W        W10085   7.337   5.746   0.221
 6022W        W10086   9.854   9.213   8.919
 6023W        W10087   6.699   7.862   3.360
 6024W        W10088   1.845   6.536   1.123
 6025W        W10089   8.084   9.442   1.090
 6026W        W10090   7.414   5.610   0.699
 6027W        W10091   0.277   4.747   9.560
 6028W        W10092   1.638   1.981   0.181
 6029W        W10093   2.219  10.292  11.947
 6030W        W10094   5.704   1.589   0.275
 6031W        W10095   0.790   1.242   9.362
 6032W        W10096   2.630   5.504   9.518
 6033W        W10097   2.894   4.287   3.244
 6034W        W10098   8.902  10.436   2.727
 6035W        W10099   1.844   3.715   8.936
 6036W        W10100   7.918  10.374   9.346
 6037W        W10101   5.220   1.884   1.697
 6038W        W10102   6.603   3.067  11.725
 6039W        W10103   6.390   3.287  10.704
 6040W        W10104   8.125   5.716  11.772
 6041W        W10105   8.948   5.304  11.960
 6042W        W10106   1.856   1.245   8.772
 6043W        W10107   8.801   0.172   1.257
 6044W        W10108   3.332   8.160   1.115
 6045W        W10109   0.696   9.837   8.936
 6046W        W10110   4.231   7.548   3.052
 6047W        W10111   5.519   4.998   9.430
 6048W        W10112   2.399   9.976   0.595
 6049W        W10113   1.765   5.686   2.816
 6050W        W10114   6.522  10.466   1.130
 6051W        W10115   5.071   0.805  10.461
 6052W        W10116   6.039   2.247  10.773
 6053W        W10117   8.179   9.663   2.419
 6054W        W10118   7.273   7.959   1.793
 6055W        W10119   4.130   1.469   3.270
 6056W        W10120   4.053   2.636   2.204
 6057W        W10121   0.262   9.609  11.008
 6058W        W10122   6.927   1.348   1.676
 6059W        W10123   5.155   9.277   1.837
 6060W        W10124   8.192   2.447   0.830
 6061W        W10125   3.790   0.885  10.690
 6062W        W10126   6.019   7.222   2.496
 6063W        W10127   3.348   5.795   0.449
 6064W        W10128   6.962   8.830   9.464
 6065W        W10129   7.657   7.638  10.574
 6066W        W10130   3.484   5.501   0.859
 6067W        W10131   2.029   5.356  11.730
 6068W        W10132   8.548   0.717   0.052
 6069W        W10133   0.407   2.387   0.790
 6070W        W10134   9.740   7.867   9.047
 6071W        W10135   1.817   2.683   0.865
 6072W        W10136   7.885  10.335  10.981
 6073W        W10137   9.143   0.343  10.471
 6074W        W10138   5.839   8.304   8.478
 6075W        W10139   5.110   5.165  11.974
 6076W        W10140   4.691   7.369   1.801
 6077W        W10141   4.308   4.673   2.759
 6078W        W10142   0.991   5.578   2.389
 6079W        W10143   6.132   0.474  11.646
 6080W        W10144   7.929   5.221  11.850
 6081W        W10145   7.148   1.722   9.464
 6082W        W10146   5.709   7.532   9.571
 6083W        W10147   9.284   8.761   9.391
 6084W        W10148   7.540   4.981   1.108
 6085W        W10149   8.821   0.723  10.320
 6086W        W10150   1.732   1.789   0.654
 6087W        W10151   1.688   0.797   1.583
 6088W        W10152   1.199   5.174   3.491
 6089W        W10153  10.236   2.767   2.382
 6090W        W10154   0.025   8.920   1.643
 6091W        W10155   5.687   1.692  11.252
 6092W        W10156   8.076   1.291   0.350
 6093W        W10157   2.186  10.464   9.562
 6094W        W10158   2.649   6.364  11.093
 6095W        W10159   4.150   9.440   3.199
 6096W        W10160   8.841   5.089   0.822
 6097W        W10161   9.507   9.049   0.836
 6098W        W10162   9.306   9.846  10.036
 6099W        W10163   2.861   3.149   9.477
 6100W        W10164   3.115   6.211  10.049
 6101W        W10165   6.683   3.191   2.256
 6102W        W10166   6.989   6.964   3.163
 6103W        W10167   8.678   2.391  11.115
 6104W        W10168   3.139   4.396  11.436
 6105W        W10169   4.179   0.047   9.536
 6106W        W10170   6.656   7.589   9.564
 6107W        W10171   2.440   1.634  10.292
 6108W        W10172   0.234   5.708  11.544
 6109W        W10173   8.411   7.761  11.474
 6110W        W10174   0.205   1.786  11.165
 6111W        W10175   4.586   9.591   9.043
 6112W        W10176   3.538   2.814   9.214
 6113W        W10177   0.073   1.348  10.338
 6114W        W10178   7.619   0.636   0.813
 6115W        W10179   2.195   8.155  10.182
 6116W        W10180   8.999   1.237  10.242
 6117W        W10181   3.831   8.024  11.351
 6118W        W10182   8.990   5.518   0.488
 6119W        W10183   6.456   4.448   8.390
 6120W        W10184   7.941   2.822  11.758
 6121W        W10185   6.396   0.977   0.397
 6122W        W10186   7.050   5.514   3.275
 6123W        W10187   3.465   5.030   0.024
 6124W        W10188   4.634   0.250   3.428
 6125W        W10189   1.565  10.136   3.671
 6126W        W10190   3.623   3.149   8.801
 6127W        W10191   2.907   4.708   2.507
 6128W        W10192   7.107   4.046   2.082
 6129W        W10193   9.842   7.470   3.149
 6130W        W10194   2.672   5.007   0.442
 6131W        W10195   8.883   7.708   9.214
 6132W        W10196   6.849   1.222   9.993
 6133W        W10197   5.888   8.139   0.445
 6134W        W10198   7.168   4.864   3.897
 6135W        W10199   4.562   0.001   1.007
 6136W        W10200   8.543   4.049  11.364
 6137W        W10201   3.171   5.691  11.229
 6138W        W10202   5.615   2.648   1.899
 6139W        W10203   6.427   8.818   9.562
 6140W        W10204   2.582   1.948   2.179
 6141W        W10205   3.371   9.789   1.841
 6142W        W10206   0.662   7.621   8.491
 6143W        W10207   5.631   8.314   1.174
 6144W        W10208   2.485   4.819   9.883
 6145W        W10209   0.242   4.355  11.971
 6146W        W10210   3.706   0.872   1.205
 6147W        W10211   0.422   3.819   9.140
 6148W        W10212   5.900   9.569   2.493
 6149W        W10213   1.699   3.792   1.840
 6150W        W10214   4.782   6.266   2.430
 6151W        W10215   1.690   8.112   3.331
 6152W        W10216   1.732   3.910   9.422
 6153W        W10217   4.721   0.765  11.096
 6154W        W10218   9.892   8.495  11.496
 6155W        W10219   0.392   6.166   2.483
 6156W        W10220   2.339   1.742   9.773
 6157W        W10221   7.998   5.073   2.060
 6158W        W10222   5.493  10.329  10.199
 6159W        W10223   3.318   2.378   2.660
 6160W        W10224   1.937   3.557   3.361
 6161W        W10225   5.134   9.554   0.273
 6162W        W10226   6.020   1.300   2.869
 6163W        W10227   8.991   2.023   2.323
 6164W        W10228   9.126   5.081   1.838
 6165W        W10229   0.714   7.191   1.780
 6166W        W10230   2.270   4.158   0.885
 6167W        W10231   7.138   1.242   0.709
 6168W        W10232   7.598   2.852   0.958
 6169W        W10233   6.800   6.921   2.676
 6170W        W10234   9.483   8.420   2.494
 6171W        W10235   1.220   2.811   9.467
 6172W        W10236   2.235   9.349  11.868
 6173W        W10237   7.493   5.638  10.863
 6174W        W10238   0.378   0.847   0.933
 6175W        W10239   5.582   4.291   2.591
 6176W        W10240   1.421   3.393   0.304
 6177W        W10241   8.895   9.477   1.786
 6178W        W10242   4.701   5.762  11.368
 6179W        W10243   7.238   2.543   0.737
 6180W        W10244   3.707   7.977   1.425
 6181W        W10245   7.733  10.221   0.004
 6182W        W10246   0.388   5.964  11.143
 6183W        W10247   0.795   0.428  11.817
 6184W        W10248   3.111   3.564   0.008
 6185W        W10249   0.373   8.580   3.066
 6186W        W10250   4.239   9.198   9.472
 6187W        W10251   2.373   3.066   0.345
 6188W        W10252   3.086   2.759   3.534
 6189W        W10253   5.220   3.831   8.965
 6190W        W10254   2.830   8.865   1.162
 6191W        W10255  10.323   5.642   1.677
 6192W        W10256   0.953   2.109  10.446
 6193W        W10257   5.545   2.641   0.294
 6194W        W10258   6.455   4.317   8.890
 6195W        W10259   3.259   9.280  11.474
 6196W        W10260   3.759   4.686   1.001
 6197W        W10261   0.817   1.425   1.953
 6198W        W10262   9.527   1.598  11.727
 6199W        W10263   8.092   8.280   0.612
 6200W        W10264   1.832   5.097  10.333
 6201W        W10265   9.941   6.423   1.864
 6202W        W10266   4.935   6.436   0.339
 6203W        W10267   3.372   9.904  10.687
 6204W        W10268   6.562   2.471   2.878
 6205W        W10269   5.264   3.279   8.514
 6206W        W10270   8.946   3.160   8.902
 6207W        W10271   3.204   1.361  10.113
 6208W        W10272   9.775   6.560   8.884
 6209W        W10273   9.950   7.001   8.514
 6210W        W10274   4.618   1.550   2.865
 6211W        W10275   4.636   2.659   2.409
 6212W        W10276   3.977   4.245  11.649
 6213W        W10277   4.448   8.740   9.498
 6214W        W10278   6.247   6.914   0.012
 6215W        W10279   6.110   4.931   0.920
 6216W        W10280   2.779  10.116   2.316
 6217W        W10281   2.141  10.024   9.859
 6218W        W10282   4.694   1.003  10.198
 6219W        W10283   6.557   1.927   1.385
 6220W        W10284   6.030  10.387  10.276
 6221W        W10285   9.344   9.584   2.053
 6222W        W10286   8.636   5.787   8.529
 6223W        W10287   5.482   1.232   0.602
 6224W        W10288   0.642   9.854   9.821
 6225W        W10289   6.856   0.906   1.398
 6226W        W10290   5.223   3.200  11.733
 6227W        W10291   6.021   2.668   9.026
 6228W        W10292   0.417   9.012   3.583
 6229W        W10293   8.140   3.582   8.930
 6230W        W10294   0.691   1.799  11.992
 6231W        W10295   0.972   6.045   9.292
 6232W        W10296   8.086   7.586  10.870
 6233W        W10297   7.939   9.479   1.615
 6234W        W10298   6.959   3.752   9.704
 6235W        W10299   6.061   2.076   1.166
 6236W        W10300   9.290   7.506  10.602
 6237W        W10301   6.650   2.979   2.843
 6238W        W10302   5.626   9.354   1.699
 6239W        W10303   7.077   8.605  11.976
 6240W        W10304   2.845   2.376  10.909
 6241W        W10305   8.553   9.433   9.000
 6242W        W10306   1.292   6.059   1.006
 6243W        W10307   5.263   1.842  10.928
 6244W        W10308   9.080   7.003  11.181
 6245W        W10309   0.011   1.700   1.091
 6246W        W10310   6.572   0.771  10.017
 6247W        W10311   5.921   3.809   8.212
 6248W        W10312   9.247   2.195   9.995
 6249W        W10313   4.076   6.626   1.482
 6250W        W10314   5.203   8.991   9.955
 6251W        W10315   6.102   2.781   1.695
 6252W        W10316   5.229   4.685   9.720
 6253W        W10317   1.711   4.166   3.651
 6254W        W10318   7.360   5.179  11.018
 6255W        W10319   4.528   3.608   9.610
 6256W        W10320   1.940   1.411   2.735
 6257W        W10321   3.105   2.302   8.951
 6258W        W10322   9.468   8.291   0.267
 6259W        W10323   0.810   1.513   8.922
 6260W        W10324   3.839   7.703   1.840
 6261W        W10325   5.591   9.350  10.950
 6262W        W10326   0.714   2.985   1.513
 6263W        W10327   6.897   5.936   1.773
 6264W        W10328   3.078   4.050  11.072
 6265W        W10329   3.087   8.966   9.117
 6266W        W10330   9.867   2.231   0.688
 6267W        W10331   7.947   6.175   1.784
 6268W        W10332  10.232   0.752   0.301
 6269W        W10333   7.512   3.541   8.967
 6270W        W10334   5.913   0.553   9.609
 6271W        W10335   7.905   4.534   2.049
 6272W        W10336   6.912   0.296  10.550
 6273W        W10337   2.170   0.485  11.236
 6274W        W10338   3.311   0.750   2.420
 6275W        W10339   5.810   0.044   9.808
 6276W        W10340  10.138   1.306   3.420
 6277W        W10341   1.230   4.269  11.799
 6278W        W10342   6.706   6.131   8.764
 6279W        W10343   7.998   0.420   3.346
 6280W        W10344   1.420   0.290   2.063
 6281W        W10345   0.332   3.794   1.734
 6282W        W10346   7.945   9.986  10.622
 6283W        W10347   4.141   2.690   0.188
 6284W        W10348   9.533   5.215   9.066
 6285W        W10349   4.180   3.750   1.847
 6286W        W10350   6.630   3.814   2.477
 6287W        W10351   7.713   3.161   1.786
 6288W        W10352   5.394   0.427   2.754
 6289W        W10353   4.900   9.804   3.577
 6290W        W10354   3.803   2.111   8.582
 6291W        W10355   5.470   5.275   9.903
 6292W        W10356   3.109   4.777  10.597
 6293W        W10357   6.964   4.083  10.363
 6294W        W10358   0.268   1.716   3.075
 6295W        W10359   5.581   0.279  11.966
 6296W        W10360   3.298  10.304   3.433
 6297W        W10361   3.426   7.582   3.667
 6298W        W10362   1.250   1.709   0.394
 6299W        W10363   1.759   8.591   4.093
 6300W        W10364   3.735   1.177   3.074
 6301W        W10365   6.031   8.046  11.529
 6302W        W10366   2.856   3.134   0.167
 6303W        W10367   4.246   5.706   9.642
 6304W        W10368   3.667   8.693   1.831
 6305W        W10369   5.557   9.827   0.443
 6306W        W10370   2.280   4.734  11.752
 6307W        W10371   4.165   0.895   2.569
 6308W        W10372   6.776   3.237   1.741
 6309W        W10373   2.456   7.318  10.185
 6310W        W10374   7.924   0.334  11.043
 6311W        W10375   7.357   3.696   1.389
 6312W        W10376   9.853   5.988  11.439
 6313W        W10377   6.153   7.065   9.150
 6314W        W10378   9.161   0.886   9.906
 6315W        W10379   2.755   5.120  10.481
 6316W        W10380   7.482   2.882   2.932
 6317W        W10381   2.266   5.763   1.356
 6318W        W10382   1.224   0.481  11.548
 6319W        W10383   9.459   1.083  11.852
 6320W        W10384   6.086   8.810   9.943
 6321W        W10385   1.488   3.723   3.546
 6322W        W10386   4.826   8.908  11.821
 6323W        W10387   3.311   5.976   2.779
 6324W        W10388   9.055   2.692   9.999
 6325W        W10389   5.237   3.108   2.569
 6326W        W10390   8.956   4.939   1.313
 6327W        W10391   3.768   3.142   1.448
 6328W        W10392   3.208   7.764   1.459
 6329W        W10393  10.125   3.893   9.773
 6330W        W10394   0.026   0.369   1.698
 6331W        W10395   7.108   3.789  10.767
 6332W        W10396   7.867   3.149   8.784
 6333W        W10397   0.166   7.846   3.005
 6334W        W10398   8.439   5.143  11.854
 6335W        W10399   9.065   5.522   1.014
 6336W        W10400   5.790   1.595   3.410
 6337W        W10401   4.052   1.404  10.113
 6338W        W10402   3.180   8.853   1.948
 6339W        W10403   3.339   0.045   9.863
 6340W        W10404   2.435   6.467  10.232
 6341W        W10405   9.363   5.859   0.273
 6342W        W10406   3.119   6.572   3.502
 6343W        W10407   3.805  10.054   1.873
 6344W        W10408   3.346  10.031   9.803
 6345W        W10409   5.025   0.222   1.877
 6346W        W10410   5.290   8.088  10.320
 6347W        W10411   1.377   9.023   2.031
 6348W        W10412   1.380   2.254  10.139
 6349W        W10413   1.879   2.646   3.424
 6350W        W10414   0.189   3.733   2.749
 6351W        W10415   5.762   6.571  11.167
 6352W        W10416   8.031   9.376  11.359
 6353W        W10417   6.177   1.855  11.050
 6354W        W10418   5.107   8.106  11.354
 6355W        W10419   4.523   1.378   9.911
 6356W        W10420   6.144   7.083   0.479
 6357W        W10421   3.059   1.878   0.979
 6358W        W10422   6.988   4.697   1.480
 6359W        W10423   0.994  10.132   8.628
 6360W        W10424   6.308   8.276   3.275
 6361W        W10425   2.471   4.265  10.524
 6362W        W10426   2.121   0.777   9.936
 6363W        W10427   7.208   9.805   0.702
 6364W        W10428   9.558   1.652   1.961
 6365W        W10429   1.798   9.324   9.179
 6366W        W10430   5.583   8.673  11.815
 6367W        W10431   9.769   4.592  11.309
 6368W        W10432   7.118   5.937   2.626
 6369W        W10433   1.834   5.669  10.998
 6370W        W10434   9.349   4.946  11.950
 6371W        W10435   3.178   1.319   9.085
 6372W        W10436   7.872  10.243  11.504
 6373W        W10437   1.554   0.212  11.875
 6374W        W10438   6.359   5.588   2.527
 6375W        W10439   8.561   0.994  11.042
 6376W        W10440   0.639   4.583   1.854
 6377W        W10441   7.517   7.122   0.677
 6378W        W10442   6.631   4.737   3.125
 6379W        W10443   8.518  10.350   3.086
 6380W        W10444   8.024   1.813   2.724
 6381W        W10445   7.063   0.479   0.619
 6382W        W10446   2.214   3.242   2.379
 6383W        W10447   3.190   4.704   9.547
 6384W        W10448   9.291   9.874  10.534
 6385W        W10449   5.340   3.072   2.073
 6386W        W10450   4.192   7.955   3.365
 6387W        W10451   2.419   4.115   2.296
 6388W        W10452   0.727   4.221   0.703
 6389W        W10453   9.432   9.675   9.105
 6390W        W10454   5.748   1.151  11.982
 6391W        W10455   8.877   2.342   1.950
 6392W        W10456   6.914   0.466   8.969
 6393W        W10457   8.972   5.686   1.941
 6394W        W10458   1.718   3.771  10.783
 6395W        W10459   9.685   3.549   3.553
 6396W        W10460   8.454   8.480  10.865
 6397W        W10461   8.097   0.433   0.612
 6398W        W10462   0.775   3.141  10.058
 6399W        W10463   6.223   9.603   0.975
 6400W        W10464   5.311   9.949   0.957
 6401W        W10465  10.076   3.227   2.047
 6402W        W10466  10.387   9.291  10.022
 6403W        W10467   6.038   7.163  11.305
 6404W        W10468   2.359   1.467   1.277
 6405W        W10469   6.709   3.222  10.266
 6406W        W10470   3.680   9.099   3.182
 6407W        W10471   2.853   6.155   8.819
 6408W        W10472   3.328   4.749   2.223
 6409W        W10473   3.584  10.465   0.696
 6410W        W10474   8.948   7.577   8.679
 6411W        W10475   9.701   8.754   9.082
 6412W        W10476  10.416   2.156   2.996
 6413W        W10477   2.375   2.107  10.504
 6414W        W10478   2.056   3.223   9.747
 6415W        W10479   6.880   1.831   1.870
 6416W        W10480   9.936   1.329   2.073
 6417W        W10481   9.811   9.080   2.798
 6418W        W10482   2.967   4.296  10.641
 6419W        W10483   5.612   4.489   9.432
 6420W        W10484   5.553   3.315   3.476
 6421W        W10485   0.401   7.253  11.550
 6422W        W10486   2.173   3.762  11.646
 6423W        W10487  10.043   3.489   9.016
 6424W        W10488   2.726   3.136   8.977
 6425W        W10489   8.610   3.859  10.617
 6426W        W10490   3.796   3.160   3.460
 6427W        W10491   7.289   7.168   2.778
 6428W        W10492   1.867   5.013   1.145
 6429W        W10493   6.844   9.830   9.431
 6430W        W10494   3.599   5.015   2.610
 6431W        W10495   0.377   7.849   0.449
 6432W        W10496   8.958   9.360   1.305
 6433W        W10497   5.778   1.757   9.468
 6434W        W10498   2.182   6.503   0.298
 6435W        W10499   5.325   2.875  10.954
 6436W        W10500   8.981   9.512   9.287
 6437W        W10501   7.199   5.241   8.474
 6438W        W10502   5.139   6.633  10.452
 6439W        W10503   9.485   4.058   0.265
 6440W        W10504   8.343   1.842   0.774
 6441W        W10505   9.134   6.090   3.720
 6442W        W10506   8.832   8.377   3.124
 6443W        W10507   1.713   0.554   0.240
 6444W        W10508   1.305  10.479  11.455
 6445W        W10509   9.984   8.560   2.468
 6446W        W10510   8.447   6.014   1.735
 6447W        W10511   1.225   7.183   3.039
 6448W        W10512   5.669   8.300   9.534
 6449W        W10513   4.302   4.768   8.617
 6450W        W10514   9.963   7.918  11.100
 6451W        W10515   7.333   5.124   3.082
 6452W        W10516   8.056   2.285   1.949
 6453W        W10517   6.456   9.838   0.468
 6454W        W10518   4.992   3.668   9.391
 6455W        W10519   6.183   6.332  11.364
 6456W        W10520   1.896   0.405   3.031
 6457W        W10521   2.206   4.676   9.471
 6458W        W10522   6.480   9.629   9.747
 6459W        W10523   4.941   8.054   2.280
 6460W        W10524   4.439   2.647   1.881
 6461W        W10525  10.252   9.646  10.975
 6462W        W10526   6.187   5.183   2.279
 6463W        W10527   5.463   3.325   1.501
 6464W        W10528   0.779   7.809   9.075
 6465W        W10529   6.227  10.424   3.157
 6466W        W10530   6.328   2.836   0.802
 6467W        W10531   5.455   1.146  10.509
 6468W        W10532   4.680   2.747  10.111
 6469W        W10533   1.817   6.174   2.258
 6470W        W10534   6.221   5.024   3.318
 6471W        W10535   1.622   6.553   8.852
 6472W        W10536   6.084   6.129   1.803
 6473W        W10537   5.706   4.314   1.390
 6474W        W10538   3.822   7.747   0.360
 6475W        W10539   0.413   6.463   3.471
 6476W        W10540   0.884   4.984  10.260
 6477W        W10541   0.162  10.219   2.079
 6478W        W10542   5.273   2.699  11.856
 6479W        W10543   9.575   3.124   0.262
 6480W        W10544  10.181   6.511   8.573
 6481W        W10545   5.249  10.427   2.827
 6482W        W10546   7.477   9.113   9.513
 6483W        W10547   4.474   6.470   0.145
 6484W        W10548   8.611   9.558   2.746
 6485W        W10549   2.385   4.232   1.395
 6486W        W10550  10.357   2.186   0.946
 6487W        W10551   7.984   7.922  10.015
 6488W        W10552   1.459   9.591  11.490
 6489W        W10553   5.529   7.215   3.457
 6490W        W10554   2.848   6.897   8.628
 6491W        W10555   3.020   3.487   0.535
 6492W        W10556   0.350   9.881   3.276
 6493W        W10557   5.497   9.367   2.250
 6494W        W10558   7.697   3.278   1.260
 6495W        W10559   6.185   4.099   4.094
 6496W        W10560   8.100   0.720   1.439
 6497W        W10561   0.409   4.110   1.338
 6498W        W10562   3.544   0.530  11.046
 6499W        W10563   4.784   9.854   1.752
 6500W        W10564   5.011   6.536   3.369
 6501W        W10565   1.840   1.389   0.993
 6502W        W10566   6.213   5.186   1.772
 6503W        W10567  10.040   5.795   2.339
 6504W        W10568   8.622   1.654  11.847
 6505W        W10569   6.045   8.552   1.898
 6506W        W10570   7.399   9.186   2.964
 6507W        W10571   8.858   8.375   1.949
 6508W        W10572   7.367   1.231   2.469
 6509W        W10573   9.573   9.496  11.559
 6510W        W10574   0.960   6.867   0.822
 6511W        W10575   7.000   0.798  11.398
 6512W        W10576   1.212   1.306   2.277
 6513W        W10577   1.657   9.079   3.381
 6514W        W10578   4.030   5.877  10.063
 6515W        W10579   2.647   2.487  11.778
 6516W        W10580   1.580   7.432  10.415
 6517W        W10581   1.172   0.996   1.353
 6518W        W10582   6.137   4.463   1.127
 6519W        W10583   3.350   2.584   1.845
 6520W        W10584   5.819   2.703  10.946
 6521W        W10585   8.344   7.312   1.153
 6522W        W10586   6.241   7.786   0.406
 6523W        W10587   0.549   4.068  10.463
 6524W        W10588   6.519   2.716   2.440
 6525W        W10589   2.217   2.837   1.153
 6526W        W10590   0.637  10.299   1.920
 6527W        W10591   6.305   1.333  10.244
 6528W        W10592   8.931   4.005   9.089
 6529W        W10593   8.819   2.799   0.515
 6530W        W10594   3.193   6.722   1.548
 6531W        W10595   5.192   0.885   1.899
 6532W        W10596   8.072   7.737   1.173
 6533W        W10597   8.266  10.471   9.719
 6534W        W10598   1.745   3.033   2.541
 6535W        W10599   1.789   6.112  10.702
 6536W        W10600   9.425   2.383   1.423
 6537W        W10601   4.947   6.396   1.952
 6538W        W10602   9.415   5.435   2.708
 6539W        W10603   4.814   8.662   9.876
 6540W        W10604   2.161   6.523  11.267
 6541W        W10605   4.632   3.324   2.599
 6542W        W10606   5.703   0.236  10.946
 6543W        W10607   1.403   8.520   2.750
 6544W        W10608   2.714   6.028  10.280
 6545W        W10609   2.790   2.210   0.246
 6546W        W10610   3.762   5.423   3.448
 6547W        W10611   4.570   6.062   2.017
 6548W        W10612   6.421   2.329   9.101
 6549W        W10613   1.845   2.183   2.758
 6550W        W10614   8.902   1.349   3.067
 6551W        W10615   7.188   1.066  10.809
 6552W        W10616   2.402   2.353   1.906
 6553W        W10617   0.932   1.124  10.228
 6554W        W10618   6.602   0.778   2.727
 6555W        W10619   0.360   9.912   2.785
 6556W        W10620   4.516   2.620   9.117
 6557W        W10621   2.213   1.403   9.400
 6558W        W10622   3.694   5.354   0.382
 6559W        W10623   8.558   6.357   0.242
 6560W        W10624   7.234  10.314  11.867
 6561W        W10625   3.619   8.452  10.531
 6562W        W10626   4.701   8.901   2.623
 6563W        W10627   7.915   2.709   2.741
 6564W        W10628   3.201   0.922   0.950
 6565W        W10629   1.583   3.104   0.717
 6566W        W10630   5.432   8.034   2.328
 6567W        W10631   9.379   3.632   2.451
 6568W        W10632   4.256   5.676  11.746
 6569W        W10633   1.054   2.874   8.544
 6570W        W10634   9.067   6.408  11.011
 6571W        W10635   3.780   6.960  10.485
 6572W        W10636   8.803   3.761   1.921
 6573W        W10637   9.927   7.798   3.571
 6574W        W10638   6.605   0.520   0.266
 6575W        W10639   3.307   6.589   9.789
 6576W        W10640  10.068   9.307  11.286
 6577W        W10641   5.773   4.285   3.090
 6578W        W10642   5.614   3.207   0.458
 6579W        W10643   0.776   9.005   3.218
 6580W        W10644   7.802   7.167  10.145
 6581W        W10645   8.526   6.013   9.029
 6582W        W10646   1.507   0.060   2.883
 6583W        W10647   0.426   0.328   0.769
 6584W        W10648   3.633   5.488  10.345
 6585W        W10649   8.860  10.304   0.904
 6586W        W10650   8.610   8.546   8.974
 6587W        W10651   5.851   4.384   2.150
 6588W        W10652   0.184   6.508   8.710
 6589W        W10653   6.523   6.783   8.917
 6590W        W10654   0.111   8.623  10.913
 6591W        W10655   7.844   3.661   9.338
 6592W        W10656   3.005   7.091   1.872
 6593W        W10657   7.843   7.668   2.177
 6594W        W10658   5.167  10.205   1.888
 6595W        W10659   5.664   4.110   4.002
 6596W        W10660   5.487   7.611  11.840
 6597W        W10661   6.165   2.804  11.943
 6598W        W10662   4.862   8.769   8.472
 6599W        W10663   5.517   0.750   0.205
 6600W        W10664   8.356   6.003   0.880
 6601W        W10665   5.130   5.988   2.756
 6602W        W10666   8.580   4.193   1.733
 6603W        W10667   6.208   3.724  10.401
 6604W        W10668   2.207   2.298   0.980
 6605W        W10669   9.424   5.362   0.265
 6606W        W10670   7.486   3.097   9.763
 6607W        W10671   5.797   4.744   3.318
 6608W        W10672   1.985   6.121  11.719
 6609W        W10673   4.139   4.892   9.783
 6610W        W10674   5.900   1.383   9.818
 6611W        W10675   1.851   6.951   1.461
 6612W        W10676   4.994   1.669   2.507
 6613W        W10677   3.738   2.252   2.072
 6614W        W10678   6.989   6.270   9.478
 6615W        W10679   3.411   1.897  11.247
 6616W        W10680   1.808   0.855   0.641
 6617W        W10681   3.334   4.491   0.802
 6618W        W10682   9.748   4.191   2.947
 6619W        W10683   4.472  10.412   8.635
 6620W        W10684   0.261   6.197  10.266
 6621W        W10685   3.319   1.135   2.782
 6622W        W10686   1.828   5.674   8.683
 6623W        W10687   8.570   8.416   8.467
 6624W        W10688   5.087   1.412  10.686
 6625W        W10689   0.779   5.476   1.491
 6626W        W10690   9.266   8.199   2.896
 6627W        W10691   6.519   5.618  11.170
 6628W        W10692  10.365   5.961  11.299
 6629W        W10693   9.475   6.885   0.078
 6630W        W10694   9.678   2.507  11.518
 6631W        W10695   7.557   8.450   8.411
 6632W        W10696   7.942   1.384   9.339
 6633W        W10697   0.809   7.510   1.385
 6634W        W10698   0.899   3.596   0.277
 6635W        W10699   1.603   0.810  11.328
 6636W        W10700  10.276   7.458  11.293
 6637W        W10701   8.427   8.060  11.870
 6638W        W10702   7.046   2.284   3.562
 6639W        W10703   3.106   3.551  11.087
 6640W        W10704   0.330   5.792   1.004
 6641W        W10705   4.264   0.744  10.872
 6642W        W10706   7.970   6.953   0.440
 6643W        W10707   1.402   7.561  11.849
 6644W        W10708   4.962   3.515   9.882
 6645W        W10709   1.891   7.221   2.303
 6646W        W10710   1.283   6.314  11.292
 6647W        W10711   4.201   8.563   1.796
 6648W        W10712   4.976  10.296  10.128
 6649W        W10713   7.978   4.100  10.523
 6650W        W10714   8.973   2.829   9.522
 6651W        W10715   2.405   6.170   9.030
 6652W        W10716   1.014   8.470  10.726
 6653W        W10717   8.983   9.944   1.982
 6654W        W10718   1.266   9.033   3.033
 6655W        W10719   7.260   3.943   9.218
 6656W        W10720   7.179   0.485   0.123
 6657W        W10721   8.714  10.431   9.972
 6658W        W10722   2.763   6.895   2.263
 6659W        W10723   4.744   7.367  11.140
 6660W        W10724   2.201   3.699   0.667
 6661W        W10725   4.767   3.598   0.999
 6662W        W10726   9.453   1.742   3.748
 6663W        W10727   9.879   3.801  10.967
 6664W        W10728   6.419   9.569   3.387
 6665W        W10729   3.332   4.578   2.734
 6666W        W10730   3.287   7.042   0.171
 6667W        W10731   6.720   9.568   0.858
 6668W        W10732   5.641   9.232   3.348
 6669W        W10733   4.250   1.304   0.700
 6670W        W10734   8.815   3.786  11.723
 6671W        W10735  10.038   2.230   0.216
 6672W        W10736   6.088   0.922   8.956
 6673W        W10737   6.349   0.780   3.540
 6674W        W10738   9.153   1.500   1.696
 6675W        W10739   2.288  10.245  11.437
 6676W        W10740   0.691   7.875   9.573
 6677W        W10741   4.336   3.057   2.269
 6678W        W10742   2.467   9.700   9.591
 6679W        W10743   0.779   1.907   1.815
 6680W        W10744   5.555   9.863   2.747
 6681W        W10745   0.017   0.702   2.686
 6682W        W10746   0.376   4.993  10.234
 6683W        W10747   2.861   7.447   9.886
 6684W        W10748   8.679   1.242   1.942
 6685W        W10749  10.015   4.866   3.263
 6686W        W10750  10.113   8.633   2.957
 6687W        W10751   2.661   6.242   9.818
 6688W        W10752   6.634   5.706  10.688
 6689W        W10753   2.164   8.234  11.881
 6690W        W10754   5.278   6.932  10.066
 6691W        W10755   0.238   5.946   2.914
 6692W        W10756   1.028   7.627  11.465
 6693W        W10757   8.126   3.501   0.750
 6694W        W10758  10.444  10.206  11.318
 6695W        W10759   0.558   9.437   2.905
 6696W        W10760   6.462   2.345  10.484
 6697W        W10761   4.212   7.078  11.674
 6698W        W10762   6.385   5.122   2.745
 6699W        W10763   2.220   1.632   0.656
 6700W        W10764   8.997   1.921   9.012
 6701W        W10765   2.265   2.706   3.075
 6702W        W10766   0.376   3.601   1.259
 6703W        W10767   8.852   8.608   9.621
 6704W        W10768   5.988   2.334   0.250
 6705W        W10769   6.314   9.808   1.721
 6706W        W10770   2.557   7.333  10.744
 6707W        W10771   3.230   8.899   0.536
 6708W        W10772   3.313   4.205  10.261
 6709W        W10773   0.011   8.397   9.033
 6710W        W10774   7.414  10.191   0.955
 6711W        W10775   3.147   1.847   9.905
 6712W        W10776   8.095   3.137   2.506
 6713W        W10777   6.021   4.596   8.631
 6714W        W10778   4.603   4.078   1.839
 6715W        W10779   0.201   9.018   8.900
 6716W        W10780   4.144   3.249   2.728
 6717W        W10781   2.667   5.675  11.257
 6718W        W10782   7.069  10.474   0.723
 6719W        W10783   2.289   1.176   0.854
 6720W        W10784   3.845   5.450   2.431
 6721W        W10785   4.027   4.137   9.479
 6722W        W10786   9.754   5.961   1.955
 6723W        W10787   3.225  10.228  11.064
 6724W        W10788   0.028   7.576   0.714
 6725W        W10789   4.114   5.947  10.921
 6726W        W10790   6.996   3.360  11.079
 6727W        W10791   1.265   9.942   2.896
 6728W        W10792   7.407  10.429   9.503
 6729W        W10793   2.313   7.550   3.243
 6730W        W10794  10.391   1.218   8.852
 6731W        W10795   5.184   6.041   1.323
 6732W        W10796   8.404   3.058   3.360
 6733W        W10797   9.963   7.086   3.451
 6734W        W10798   6.976   9.977   3.127
 6735W        W10799   4.289   1.682   1.420
 6736W        W10800   6.562   3.555  11.547
 6737W        W10801   1.337  10.013   0.943
 6738W        W10802   3.676   5.777   8.861
 6739W        W10803   9.979   3.361   0.775
 6740W        W10804   4.475   7.929   2.390
 6741W        W10805   6.494   5.692   1.117
 6742W        W10806   0.904   6.193   0.384
 6743W        W10807   0.877   5.980   1.292
 6744W        W10808  10.331   3.988   0.650
 6745W        W10809   6.555   7.048   2.222
 6746W        W10810   9.522  10.255  10.277
 6747W        W10811   9.556   2.402   2.979
 6748W        W10812   6.381   1.778   1.899
 6749W        W10813   2.201   8.967   0.731
 6750W        W10814   5.076   7.210   0.769
 6751W        W10815   3.279   6.097   1.889
 6752W        W10816   7.578  10.061   0.480
 6753W        W10817   0.386   9.429   0.407
 6754W        W10818   6.957   4.238   8.937
 6755W        W10819   5.693   6.022   1.481
 6756W        W10820   9.187   3.294  11.929
 6757W        W10821   6.575   8.655  10.063
 6758W        W10822   4.655   8.473  10.948
 6759W        W10823   9.946   3.830   3.226
 6760W        W10824   5.111   0.864  11.928
 6761W        W10825   0.239   5.851   9.749
 6762W        W10826   5.542   1.166   1.094
 6763W        W10827   4.107   3.506   3.165
 6764W        W10828   2.270   6.719   3.033
 6765W        W10829   7.667   0.863  10.932
 6766W        W10830   6.849   9.442   2.453
 6767W        W10831  10.227   7.910   9.226
 6768W        W10832   2.632   8.785   2.102
 6769W        W10833   8.986   6.672   0.065
 6770W        W10834   1.611   8.999   1.037
 6771W        W10835   8.012   0.449   0.035
 6772W        W10836   2.325   4.717   1.211
 6773W        W10837   2.593   9.859   1.462
 6774W        W10838   6.706   5.391  10.302
 6775W        W10839   7.481   2.740   8.495
 6776W        W10840   8.857   1.779   0.772
 6777W        W10841   1.230   5.453  10.903
 6778W        W10842   5.314   6.453  11.433
 6779W        W10843   2.362   8.661   1.142
 6780W        W10844   5.491   0.438   9.890
 6781W        W10845   8.875   2.606   2.385
 6782W        W10846   6.736   9.000   9.036
 6783W        W10847   5.404   7.127   9.608
 6784W        W10848   0.310   8.265   8.619
 6785W        W10849   8.565   4.268   0.730
 6786W        W10850   8.925   3.096  10.342
 6787W        W10851   5.211   0.847   3.135
 6788W        W10852   7.634   1.243   0.104
 6789W        W10853   7.646   9.153   0.887
 6790W        W10854   5.552   4.337  10.741
 6791W        W10855   9.810   2.883   0.934
 6792W        W10856   1.759  10.232   0.751
 6793W        W10857   2.399   4.680   1.720
 6794W        W10858   6.343   8.343   0.358
 6795W        W10859   0.253   4.562   1.503
 6796W        W10860   5.208   2.902   1.618
 6797W        W10861   6.561   9.503   8.905
 6798W        W10862   3.516   8.538   3.112
 6799W        W10863   1.429   8.603  10.419
 6800W        W10864   8.928   6.658   2.020
 6801W        W10865   1.733   8.599   3.138
 6802W        W10866   5.229   4.113   3.236
 6803W        W10867   8.162   9.546   3.492
 6804W        W10868   6.168   9.852  10.086
 6805W        W10869   7.784   5.936  10.064
 6806W        W10870   4.167   0.878   0.385
 6807W        W10871   9.851   7.454   9.321
 6808W        W10872   4.283   0.411   0.222
 6809W        W10873   7.202   6.222   8.597
 6810W        W10874   1.253   9.857  10.789
 6811W        W10875   9.374   0.542  11.955
 6812W        W10876  10.255   5.770   0.219
 6813W        W10877   1.673   0.781   3.309
 6814W        W10878   2.455   4.606   0.717
 6815W        W10879   5.548   7.941   9.874
 6816W        W10880   5.189   5.653  10.410
 6817W        W10881   4.717   9.138   9.722
 6818W        W10882   8.332   3.268  11.267
 6819W        W10883  10.041  10.444   9.458
 6820W        W10884   6.877   8.971   1.671
 6821W        W10885   3.237   0.198  10.808
 6822W        W10886   4.479   8.076  10.695
 6823W        W10887   6.812   4.279  11.709
 6824W        W10888   9.847   4.789   2.351
 6825W        W10889   5.793   6.138   0.104
 6826W        W10890   5.107   1.395   1.826
 6827W        W10891   3.560   4.654  10.400
 6828W        W10892   5.648   8.404  11.356
 6829W        W10893   4.579   1.007   2.939
 6830W        W10894   0.521   3.304   2.833
 6831W        W10895   0.132   8.888   9.384
 6832W        W10896   4.969   1.692   0.044
 6833W        W10897  10.392   3.289   1.637
 6834W        W10898   8.972   0.980   8.923
 6835W        W10899   6.425   0.325  10.398
 6836W        W10900   3.329   9.592   0.109
 6837W        W10901   9.941   4.193   2.464
 6838W        W10902  10.261   2.221   2.490
 6839W        W10903   1.223   3.064   1.612
 6840W        W10904   2.983   1.739  11.494
 6841W        W10905   5.422   5.687   2.364
 6842W        W10906   8.875   3.681   9.480
 6843W        W10907   0.674   3.216   3.348
 6844W        W10908   3.947   8.924  11.967
 6845W        W10909   9.474   6.994   3.522
 6846W        W10910   6.505   5.484   2.027
 6847W        W10911   7.592   0.577   1.336
 6848W        W10912   5.602   7.036   2.286
 6849W        W10913   7.134   1.309   0.199
 6850W        W10914   5.435  10.398   0.289
 6851W        W10915   8.557  10.242   8.657
 6852W        W10916   8.890   7.152   0.242
 6853W        W10917   4.068   7.133  10.890
 6854W        W10918   8.842   5.090   9.831
 6855W        W10919   3.743   5.078   9.091
 6856W        W10920   0.376   2.234  11.926
 6857W        W10921   7.268   8.771   8.729
 6858W        W10922   0.110   9.424   3.493
 6859W        W10923   0.286   1.725  11.712
 6860W        W10924   1.769   2.100  11.617
 6861W        W10925   7.667   2.254   8.400
 6862W        W10926   4.265   3.980   3.163
 6863W        W10927   3.268  10.277  11.582
 6864W        W10928   7.578   1.664  10.250
 6865W        W10929   9.281   5.168   3.322
 6866W        W10930   9.581  10.012   0.753
 6867W        W10931   0.588   3.308  11.294
 6868W        W10932   1.783   2.612   9.020
 6869W        W10933   4.894   6.034   3.253
 6870W        W10934   9.893   6.809   2.258
 6871W        W10935   2.475   5.562   2.220
 6872W        W10936   5.015   1.722   3.137
 6873W        W10937   6.755   2.589   0.826
 6874W        W10938   5.452   2.216   9.591
 6875W        W10939   6.400   1.190   9.774
 6876W        W10940   7.956   2.281  11.879
 6877W        W10941   1.328   2.832   8.964
 6878W        W10942   1.269   7.361   0.332
 6879W        W10943   4.934   1.871   0.886
 6880W        W10944   0.839   4.279  10.831
 6881W        W10945   7.373   9.116  11.174
 6882W        W10946  10.033   5.212   9.302
 6883W        W10947   4.326   3.125  11.861
 6884W        W10948   3.395   1.291   0.255
 6885W        W10949   9.943   5.386   9.917
 6886W        W10950   7.447   4.115   3.856
 6887W        W10951   6.256   4.043   2.186
 6888W        W10952   2.115   1.908   1.964
 6889W        W10953   0.608   7.562   2.336
 6890W        W10954   6.442   3.356   9.017
 6891W        W10955   9.698   6.858   1.787
 6892W        W10956   5.663   8.861   3.001
 6893W        W10957  10.423   1.414   2.458
 6894W        W10958   0.340   4.215   2.039
 6895W        W10959   3.958   1.770  11.731
 6896W        W10960   0.362   1.764  10.316
 6897W        W10961   6.647   3.735   2.996
 6898W        W10962   8.601   5.544   0.814
 6899W        W10963   7.964   4.892   3.575
 6900W        W10964   7.151   9.423  11.998
 6901W        W10965   1.786   6.153  11.223
 6902W        W10966   2.616   7.944  11.982
 6903W        W10967   8.498   0.903  11.559
 6904W        W10968  10.089   5.496  10.479
 6905W        W10969   8.482   5.682   3.123
 6906W        W10970   3.700   0.252   9.558
 6907W        W10971   6.014   9.456   2.000
 6908W        W10972   0.873   0.638   8.472
 6909W        W10973   0.516  10.339   8.716
 6910W        W10974   8.997   9.323   8.789
 6911W        W10975   6.153   1.371  11.743
 6912W        W10976   0.058   8.507  10.414
 6913W        W10977   6.513   9.808  10.955
 6914W        W10978   2.691   2.628   8.884
 6915W        W10979   7.902   2.956  11.267
 6916W        W10980   0.860   3.544   9.248
 6917W        W10981   6.639   4.490  10.486
 6918W        W10982   2.591   5.133  11.005
 6919W        W10983   8.616   5.577  11.677
 6920W        W10984   4.422   1.327   0.235
 6921W        W10985   5.210   6.227   0.797
 6922W        W10986   6.332  10.149   8.252
 6923W        W10987   4.245   5.658   2.721
 6924W        W10988   9.965   7.996  10.105
 6925W        W10989   2.414   7.749   0.714
 6926W        W10990   8.984   3.620   1.186
 6927W        W10991   7.343   5.406  11.808
 6928W        W10992   8.324   3.676  11.849
 6929W        W10993   6.456   7.116   9.572
 6930W        W10994   9.964   7.082   0.080
 6931W        W10995   3.807   5.510   2.953
 6932W        W10996  10.480   0.902  11.889
 6933W        W10997   7.612  10.264   2.978
 6934W        W10998   5.126  10.443   3.358
 6935W        W10999   9.544   4.234   1.232
 6936W        W11000   7.564   4.704   3.212
 6937W        W11001   3.219  10.343   2.441
 6938W        W11002   6.939   3.135   3.661
 6939W        W11003   9.359   8.335  10.968
 6940W        W11004   7.991   7.118   3.265
 6941W        W11005   7.539   7.842   9.417
 6942W        W11006   8.454   3.364   2.833
 6943W        W11007   4.623   3.564   2.084
 6944W        W11008   6.462   4.962  10.449
 6945W        W11009   7.545   1.440   1.522
 6946W        W11010   6.031   4.588   0.555
 6947W        W11011   3.859   7.286   2.825
 6948W        W11012   8.568   0.663   1.657
 6949W        W11013   8.523   1.410  11.384
 6950W        W11014   1.240   4.708   1.358
 6951W        W11015   7.464   7.754  11.906
 6952W        W11016  10.295   2.705   9.134
 6953W        W11017   7.944   9.909   2.810
 6954W        W11018   4.474   6.611   2.193
 6955W        W11019   0.823   4.715   0.852
 6956W        W11020   7.065   4.733  11.547
 6957W        W11021   5.201   2.228  10.591
 6958W        W11022   1.694   4.714   0.450
 6959W        W11023   8.534  10.225   1.287
 6960W        W11024   0.109   8.022   0.994
 6961W        W11025   4.635   7.419  10.298
 6962W        W11026   8.397   9.017  11.531
 6963W        W11027   7.237   9.166   9.054
 6964W        W11028   6.274   6.089   9.982
 6965W        W11029   9.883  10.442   8.925
 6966W        W11030   5.943   1.909   0.605
 6967W        W11031   2.763   2.731   0.474
 6968W        W11032   0.271   5.155   2.173
 6969W        W11033   4.057   9.055   1.908
 6970W        W11034   1.878   5.104   1.657
 6971W        W11035   9.028   4.078   0.946
 6972W        W11036   0.404   5.604   0.522
 6973W        W11037   6.701   4.244   3.274
 6974W        W11038  10.446   7.902   3.513
 6975W        W11039   1.980   1.734  10.117
 6976W        W11040   7.594   0.678   3.110
 6977W        W11041   7.555   2.074   3.691
 6978W        W11042   1.220   8.639  11.690
 6979W        W11043   2.781   5.306  10.003
 6980W        W11044   2.377   2.750   3.567
 6981W        W11045  10.331   2.156   1.526
 6982W        W11046   6.021   1.712   8.640
 6983W        W11047   9.369   8.607   1.108
 6984W        W11048   0.762   3.714   0.783
 6985W        W11049   4.183   7.447   1.555
 6986W        W11050   6.325   4.672   0.144
 6987W        W11051   3.560   1.931   9.521
 6988W        W11052   3.076   6.372   3.979
 6989W        W11053   8.597   4.868   2.672
 6990W        W11054   9.345   0.164   9.011
 6991W        W11055   3.643   4.157   1.620
 6992W        W11056   1.605   4.210   0.783
 6993W        W11057   3.388   7.415   9.233
 6994W        W11058   9.903   9.061   9.446
 6995W        W11059   5.655   4.536   0.901
 6996W        W11060   2.239   4.697  10.347
 6997W        W11061  10.029   2.118  10.657
 6998W        W11062   9.242   9.843  11.810
 6999W        W11063   5.115  10.044   0.502
 7000W        W11064   1.196   0.314   2.546
 7001W        W11065   7.476   0.981  11.476
 7002W        W11066   9.974   2.286  11.173
 7003W        W11067   3.382   1.812  10.370
 7004W        W11068   7.985   4.792   9.980
 7005W        W11069   9.352   7.541   2.844
 7006W        W11070   6.414   0.350   2.931
 7007W        W11071   1.726   4.877   9.427
 7008W        W11072   3.635   1.437   9.380
 7009W        W11073   9.909   8.048   0.437
 7010W        W11074   8.845   1.001   0.360
 7011W        W11075   5.514   7.209  10.508
 7012W        W11076   2.393   9.450   0.679
 7013W        W11077   3.842   4.237  10.409
 7014W        W11078   4.796   4.254   2.288
 7015W        W11079   4.604   2.415   0.151
 7016W        W11080   8.428   5.557   0.148
 7017W        W11081   3.655  10.057  11.307
 7018W        W11082   9.068   4.787  11.349
 7019W        W11083   9.636   7.082   9.925
 7020W        W11084   4.630   8.662   8.955
 7021W        W11085   4.797   4.036  10.328
 7022W        W11086   1.967   0.781   9.004
 7023W        W11087   8.436  10.030   2.683
 7024W        W11088  10.209   5.669   3.583
 7025W        W11089   5.219   2.209   3.178
 7026W        W11090   6.898   5.549   0.021
 7027W        W11091   2.239   0.020   9.010
 7028W        W11092   8.119   5.129   2.548
 7029W        W11093   8.306   0.594  10.386
 7030W        W11094  10.023   5.285   8.789
 7031W        W11095   9.241   9.039  10.354
 7032W        W11096  10.046   4.607   2.792
 7033W        W11097   9.010   4.667  10.141
 7034W        W11098   5.784   4.807   1.310
 7035W        W11099   7.222   6.403   3.299
 7036W        W11100   1.696   3.588   9.822
 7037W        W11101   7.564   4.864   2.233
 7038W        W11102   3.734   1.791   9.022
 7039W        W11103   8.618   5.390   2.659
 7040W        W11104   4.063   9.948   3.158
 7041W        W11105   4.230   2.911   1.496
 7042W        W11106   7.120   4.525   3.422
 7043W        W11107   6.931   6.944  11.485
 7044W        W11108   9.778   4.504   0.249
 7045W        W11109   6.641   4.128   1.846
 7046W        W11110   2.641   6.817  10.857
 7047W        W11111   6.897   9.585   0.383
 7048W        W11112   1.684   3.475   8.505
 7049W        W11113  10.362   4.064   8.288
 7050W        W11114   5.480   9.486   8.975
 7051W        W11115   8.944   7.574   9.752
 7052W        W11116   1.310   3.833   0.075
 7053W        W11117   1.095   4.726   8.493
 7054W        W11118   4.557   3.592   9.082
 7055W        W11119   5.553   1.563   8.501
 7056W        W11120   0.849   7.914  10.053
 7057W        W11121  10.444  10.486  11.821
 7058W        W11122   1.432   2.262   1.385
 7059W        W11123   7.360   9.440   2.299
 7060W        W11124   5.538   6.709  11.938
 7061W        W11125   8.852   2.409   0.071
 7062W        W11126   6.438   3.107   8.549
 7063W        W11127   8.952   0.702  11.745
 7064W        W11128   0.296   4.488  11.483
 7065W        W11129   4.738   6.692   8.582
 7066W        W11130   6.722   6.718   9.384
 7067W        W11131   0.561   1.165   0.332
 7068W        W11132   9.262   2.418  11.790
 7069W        W11133   5.295   1.855  11.666
 7070W        W11134   1.184   1.797  11.869
 7071W        W11135   0.080   4.277   9.653
 7072W        W11136   1.023   3.289   2.410
 7073W        W11137   2.716   7.916   1.454
 7074W        W11138   3.281   6.044   9.059
 7075W        W11139   9.804   2.251   2.204
 7076W        W11140   4.263   2.210   1.473
 7077W        W11141   6.540   6.313   1.688
 7078W        W11142   3.074   6.562   2.006
 7079W        W11143   5.432   6.455   2.702
 7080W        W11144   0.822   9.822   3.106
 7081W        W11145   2.823   0.190   3.566
 7082W        W11146   7.885   2.049   0.949
 7083W        W11147   0.495   6.705   0.963
 7084W        W11148   2.211   1.242  10.515
 7085W        W11149   8.456   0.538   1.138
 7086W        W11150   7.892   1.861   1.701
 7087W        W11151   6.505   5.977   2.078
 7088W        W11152   6.674  10.377   2.859
 7089W        W11153   6.991   6.421   2.704
 7090W        W11154   4.286   2.149  11.865
 7091W        W11155   6.483   9.329   1.802
 7092W        W11156   6.091   2.727   2.742
 7093W        W11157   0.707   8.574  11.596
 7094W        W11158   2.285   7.217   1.440
 7095W        W11159   4.158  10.013  11.250
 7096W        W11160  10.300   6.478   2.251
 7097W        W11161  10.323   1.797  11.549
 7098W        W11162   9.309   4.235  10.052
 7099W        W11163   1.304   6.936  11.057
 7100W        W11164   3.738   7.486  10.526
 7101W        W11165   1.308   1.573  11.428
 7102W        W11166   9.578   0.029  11.216
 7103W        W11167   1.146   1.703  10.960
 7104W        W11168   0.386   3.280   1.786
 7105W        W11169   6.531   4.656   0.825
 7106W        W11170   0.034   9.103   0.175
 7107W        W11171   1.819   3.143   1.192
 7108W        W11172   9.877   7.492  10.841
 7109W        W11173   1.439   9.812   0.452
 7110W        W11174   1.616   4.310   1.899
 7111W        W11175   4.666   1.014   1.172
 7112W        W11176   6.890   6.629   1.321
 7113W        W11177   2.819   7.009  10.402
 7114W        W11178   3.527   7.007   9.597
 7115W        W11179   5.110   0.564   1.495
 7116W        W11180   1.990   4.276   0.440
 7117W        W11181   2.769   9.358   9.357
 7118W        W11182   9.302   8.962   3.456
 7119W        W11183   8.391   7.645   8.961
 7120W        W11184   4.031   6.993   9.597
 7121W        W11185   4.327   6.249   4.138
 7122W        W11186   0.808   0.385   1.854
 7123W        W11187   9.477   2.451   0.910
 7124W        W11188   9.844   5.044   1.532
 7125W        W11189   2.533   7.823   9.970
 7126W        W11190  10.203   0.542   3.107
 7127W        W11191   2.828   0.224   1.733
 7128W        W11192   3.331   4.778  11.055
 7129W        W11193   3.575   6.228   8.627
 7130W        W11194   9.552   2.510  11.021
 7131W        W11195   9.598   8.631   2.943
 7132W        W11196   5.524   9.289   9.477
 7133W        W11197   8.465   8.587   9.965
 7134W        W11198   7.877   5.392   8.882
 7135W        W11199   6.990   2.684   2.254
 7136W        W11200   2.631   1.869   2.675
 7137W        W11201   9.780   7.544  11.409
 7138W        W11202   6.935   3.523   9.213
 7139W        W11203   2.284   3.478  10.678
 7140W        W11204   9.190   9.125   0.453
 7141W        W11205   6.467  10.496   8.996
 7142W        W11206   9.019   2.058  10.869
 7143W        W11207   0.922   7.117  11.410
 7144W        W11208   1.409   5.604   3.274
 7145W        W11209   0.331   2.906   9.327
 7146W        W11210  10.312   5.993  10.466
 7147W        W11211   9.147   5.166   9.430
 7148W        W11212   0.528   3.255   2.311
 7149W        W11213   7.468   2.205  11.722
 7150W        W11214   0.136   1.329   3.435
 7151W        W11215  10.261   4.236  10.935
 7152W        W11216  10.378   2.914   9.611
 7153W        W11217   5.475   7.858   0.288
 7154W        W11218   4.771   7.352   1.290
 7155W        W11219   4.620   2.841   0.438
 7156W        W11220   2.372   7.413  11.241
 7157W        W11221   9.314  10.021   2.801
 7158W        W11222   6.537   5.242   3.644
 7159W        W11223   3.585   0.248   3.525
 7160W        W11224   6.232   5.682  10.353
 7161W        W11225   2.582   0.183   0.009
 7162W        W11226   1.453   4.907   1.814
 7163W        W11227   1.839   8.951   9.804
 7164W        W11228  10.261   1.089  10.981
 7165W        W11229   4.289   4.718   0.959
 7166W        W11230   1.818  10.387  11.153
 7167W        W11231   0.390   6.166   0.639
 7168W        W11232   6.778   1.679   0.904
 7169W        W11233   0.909   3.856  11.751
 7170W        W11234   6.194   3.352   8.103
 7171W        W11235   3.592   6.633   0.194
 7172W        W11236   6.994   5.051   9.342
 7173W        W11237   7.346   9.498  11.537
 7174W        W11238   4.609   9.609   1.046
 7175W        W11239   2.607   4.708  10.729
 7176W        W11240   5.590   7.040   3.939
 7177W        W11241   9.707   7.587   2.201
 7178W        W11242   9.720   2.996  11.336
 7179W        W11243   6.212   5.253   1.287
 7180W        W11244   0.312   3.146  10.328
 7181W        W11245   0.499   8.566   9.499
 7182W        W11246   3.795   8.464   2.329
 7183W        W11247   9.642   8.748   2.136
 7184W        W11248   8.346   2.291  11.487
 7185W        W11249   0.183   2.146   9.999
 7186W        W11250   4.971   0.386   9.161
 7187W        W11251   5.105   7.707   0.625
 7188W        W11252  10.044  10.285   0.795
 7189W        W11253   2.307   6.457  10.721
 7190W        W11254   4.992   5.337   1.638
 7191W        W11255   9.465   1.329   1.339
 7192W        W11256   1.884   4.433  11.481
 7193W        W11257   7.700   6.653  11.357
 7194W        W11258   6.640   5.249   3.150
 7195W        W11259   1.251   5.913   1.955
 7196W        W11260   7.129   4.023   3.069
 7197W        W11261   1.819   6.169   0.237
 7198W        W11262   7.574   7.287   2.361
 7199W        W11263   5.529   9.429  10.444
 7200W        W11264   2.687   6.399   2.327
 7201W        W11265   4.057   9.049   0.481
 7202W        W11266   6.094   2.380   0.745
 7203W        W11267   0.805   8.098   2.257
 7204W        W11268   3.187   6.518   8.831
 7205W        W11269   1.709   8.850   8.922
 7206W        W11270   1.312   5.205  10.444
 7207W        W11271   5.568   2.814   2.822
 7208W        W11272   3.219   1.862   0.503
 7209W        W11273   1.617   6.999   1.917
 7210W        W11274   6.218   3.030   9.348
 7211W        W11275   4.814   7.987   3.612
 7212W        W11276   7.526   9.555   9.266
 7213W        W11277   6.653   1.711   2.343
 7214W        W11278   2.801   2.824   9.868
 7215W        W11279  10.264   2.805  10.541
 7216W        W11280   1.778   6.910  11.272
 7217W        W11281   5.941   8.107  11.020
 7218W        W11282   4.153   5.752   2.125
 7219W        W11283   9.959   7.589   1.335
 7220W        W11284   0.826   9.424  10.042
 7221W        W11285   4.188   5.591  11.259
 7222W        W11286   1.341   8.157  11.563
 7223W        W11287   8.583   3.769   1.452
 7224W        W11288   6.889   0.911   0.401
 7225W        W11289   4.736   5.391  10.423
 7226W        W11290   9.833   8.068   2.309
 7227W        W11291   7.139  10.150   8.754
 7228W        W11292   8.115   8.178  11.329
 7229W        W11293   3.033   2.358  10.028
 7230W        W11294   7.585   6.868  10.890
 7231W        W11295   4.097   4.270   9.969
 7232W        W11296  10.294   6.216   0.469
 7233W        W11297   6.384   9.710   2.571
 7234W        W11298   5.060   9.576  11.747
 7235W        W11299   8.634   4.400   2.453
 7236W        W11300   1.629   7.278   2.742
 7237W        W11301   7.484   7.046   3.278
 7238W        W11302   9.400   5.194   1.266
 7239W        W11303   8.311   9.180   2.383
 7240W        W11304   0.322   8.168  11.598
 7241W        W11305   9.864   1.727   3.486
 7242W        W11306   8.446   8.321   2.270
 7243W        W11307   6.904   4.614   8.593
 7244W        W11308   0.595   7.190   1.036
 7245W        W11309   0.780  10.439  10.966
 7246W        W11310   4.185   9.343   2.315
 7247W        W11311   6.515   2.142   0.902
 7248W        W11312   0.791   6.996  10.272
 7249W        W11313   2.825   5.872   3.931
 7250W        W11314   4.071   6.632  11.429
 7251W        W11315   5.933   6.885  10.545
 7252W        W11316   8.379   8.557   9.456
 7253W        W11317   9.439   0.671   9.015
 7254W        W11318   8.095   5.181   0.333
 7255W        W11319   4.783   4.184   0.278
 7256W        W11320   9.873   0.863  10.300
 7257W        W11321   2.909   6.639   9.497
 7258W        W11322   6.844   5.920   0.372
 7259W        W11323  10.414   6.576   1.733
 7260W        W11324   7.381   4.478   9.826
 7261W        W11325   7.976   3.201   3.002
 7262W        W11326   1.377   4.694   0.037
 7263W        W11327   6.282   0.418   1.073
 7264W        W11328   3.098   0.838  10.175
 7265W        W11329   9.500   8.052   1.621
 7266W        W11330   2.113   4.990   0.612
 7267W        W11331   4.211   9.373  11.881
 7268W        W11332   2.807   6.972   0.936
 7269W        W11333   2.751   3.833  11.434
 7270W        W11334   1.710  10.331   9.717
 7271W        W11335   0.896   5.498   8.615
 7272W        W11336   5.888   6.888   3.246
 7273W        W11337   7.408   7.563   0.396
 7274W        W11338   5.210   0.542   2.288
 7275W        W11339   3.279   9.688  11.136
 7276W        W11340   9.258   7.069  10.322
 7277W        W11341   4.977   5.570   0.289
 7278W        W11342   1.766   1.403  11.268
 7279W        W11343   0.543   5.190   8.895
 7280W        W11344   5.744   9.415   0.915
 7281W        W11345   4.964   6.979  11.410
 7282W        W11346   0.869   9.897   1.682
 7283W        W11347   1.687   9.796   8.988
 7284W        W11348   8.980   6.596   9.549
 7285W        W11349   9.912   2.666  11.968
 7286W        W11350   8.070   8.487   8.527
 7287W        W11351   1.976   5.681   2.298
 7288W        W11352   7.918   7.466   9.257
 7289W        W11353   5.525   5.736   9.028
 7290W        W11354   0.302   3.524   9.989
 7291W        W11355  10.366   6.590  11.822
 7292W        W11356   3.336   3.065  11.991
 7293W        W11357   4.557   7.686   9.884
 7294W        W11358   8.422   2.113  11.968
 7295W        W11359   6.528   7.525  10.651
 7296W        W11360   2.840   2.366   2.904
 7297W        W11361   7.432   2.065   9.772
 7298W        W11362   3.635   5.007   9.596
 7299W        W11363   9.384   7.912   2.492
 7300W        W11364   5.952   8.655   0.332
 7301W        W11365   3.599   3.821   9.415
 7302W        W11366   0.281   6.546   2.116
 7303W        W11367   2.354   5.127   9.294
 7304W        W11368   9.799   8.083   1.221
 7305W        W11369   9.352  10.150   8.884
 7306W        W11370   7.367   1.761  11.966
 7307W        W11371   1.473   3.123   2.963
 7308W        W11372   0.776  10.310  10.085
 7309W        W11373   0.849   7.676   3.597
 7310W        W11374   1.253   1.297   9.077
 7311W        W11375   8.092   0.284   9.043
 7312W        W11376   5.083   0.753   1.001
 7313ION    NA+11377   6.455   4.860   8.699
 7314ION    NA+11378   1.843  10.063   2.201
 7315ION    NA+11379   7.756   7.052  11.707
 7316ION    NA+11380   9.049   5.982   1.335
 7317ION    NA+11381   5.519   3.582   9.489
 7318ION    NA+11382   7.899   4.756   0.134
 7319ION    NA+11383   5.518   4.060   0.962
 7320ION    NA+11384   6.212   1.440  10.736
 7321ION    NA+11385   2.636   8.325   9.878
 7322ION    NA+11386   2.749   4.595  10.255
 7323ION    NA+11387   1.501   2.365  10.632
 7324ION    NA+11388  10.103   4.991  11.455
 7325ION    NA+11389   2.696   0.357  10.328
 7326ION    NA+11390   0.602   9.096   9.402
 7327ION    NA+11391   5.159   4.601   2.636
 7328ION    NA+11392   4.194   8.544   0.221
 7329ION    NA+11393   7.454   4.361   2.324
 7330ION    NA+11394   1.127   7.644   2.310
 7331ION    NA+11395   8.844   0.617   9.610
 7332ION    NA+11396   3.715   2.626  10.083
 7333ION    NA+11397   7.333   1.293   1.968
 7334ION    NA+11398   4.997   3.254   0.662
 7335ION    NA+11399   4.217   5.406   0.517
 7336ION    NA+11400   0.624   8.422  11.111
 7337ION    NA+11401   0.664   2.726   1.088
 7338ION    NA+11402   8.279   1.535   1.750
 7339ION    NA+11403   0.825   2.710   9.803
 7340ION    NA+11404   1.513   2.728   0.022
 7341ION    NA+11405   7.126   9.066   9.893
 7342ION    NA+11406   8.458   6.228   3.104
 7343ION    NA+11407   2.927   9.497   2.718
 7344ION    NA+11408   8.915   9.135   2.640
 7345ION    NA+11409   2.394   2.140  11.022
 7346ION    NA+11410   0.924   5.157  11.981
 7347ION    NA+11411   9.656   2.095  11.833
 7348ION    NA+11412   7.055   7.180   0.366
 7349ION    NA+11413   2.296   1.257   9.971
 7350ION    NA+11414   4.987   4.087  11.779
 7351ION    NA+11415   6.537   7.788   9.015
 7352ION    NA+11416   8.628   8.239  11.408
 7353ION    NA+11417   2.702   6.480   0.331
 7354ION    NA+11418   1.673   5.184   2.688
 7355ION    NA+11419   5.146   8.233   0.916
 7356ION    NA+11420   5.624   6.081  11.216
 7357ION    NA+11421   3.044   7.131   9.507
 7358ION    NA+11422   6.711   9.164   3.225
 7359ION    NA+11423   1.707   7.085  10.787
 7360ION    NA+11424   0.024   1.629   9.162
 7361ION    NA+11425   1.436   8.288   0.567
 7362ION    NA+11426   7.906   8.724   9.369
 7363ION    NA+11427   8.390   9.075  10.914
 7364ION    NA+11428   4.402   1.499  11.418
 7365ION    NA+11429   3.118   2.873  11.290
 7366ION    NA+11430   3.800   3.877   0.660
 7367ION    NA+11431   7.669   7.865   1.464
 7368ION    NA+11432   9.029   5.109   2.811
 7369ION    NA+11433   6.753   1.733   3.145
 7370ION    NA+11434   3.451   8.385  11.441
 7371ION    NA+11435   9.890   9.543   1.261
 7372ION    NA+11436   7.114   3.105   2.559
 7373ION    NA+11437   6.199   2.548   1.234
 7374ION    NA+11438   4.001   2.270   0.933
 7375ION    NA+11439   5.989   9.642   9.604
 7376ION    NA+11440   9.962   9.828  11.404
 7377ION    NA+11441   9.027  10.339  10.408
 7378ION    NA+11442   1.201   9.103   0.753
 7379ION    NA+11443   8.436   7.036   2.925
 7380ION    NA+11444   3.723   1.672   3.023
 7381ION    NA+11445   6.100   6.963   8.656
 7382ION    NA+11446   6.579   0.719   0.782
 7383ION    NA+11447   8.446   6.854   0.231
 7384ION    NA+11448   7.072   6.443  11.690
 7385ION    NA+11449   1.492   4.559   8.921
 7386ION    NA+11450   1.679   0.337  10.348
 7387ION    NA+11451   2.973   3.948   0.309
 7388ION    NA+11452   2.085   0.195  11.642
 7389ION    NA+11453   3.867  10.106   0.466
 7390ION    CL-11454   5.838   5.566   2.656
 7391ION    CL-11455   8.177   9.865   1.369
 7392ION    CL-11456   6.208   0.548   0.594
 7393ION    CL-11457   6.576   1.699  10.774
 7394ION    CL-11458   7.459   7.271   9.404
 7395ION    CL-11459  10.169   8.332   0.946
 7396ION    CL-11460   4.077   5.273   9.429
 7397ION    CL-11461   1.569   7.682   2.374
 7398ION    CL-11462   1.920   5.500  10.023
 7399ION    CL-11463   9.380   7.519   3.374
 7400ION    CL-11464   5.540   2.628  11.364
 7401ION    CL-11465   2.926   9.899   8.419
 7402ION    CL-11466   4.102   6.392  10.107
 7403ION    CL-11467   2.410   4.123   3.069
 7404ION    CL-11468   1.211   8.685   0.576
 7405ION    CL-11469  10.449   5.169   9.580
 7406ION    CL-11470   9.174   9.481   2.524
 7407ION    CL-11471   2.108   8.430   3.420
 7408ION    CL-11472  10.244   7.911   0.042
 7409ION    CL-11473   0.277   1.594   0.221
 7410ION    CL-11474   7.808   7.430   1.478
 7411ION    CL-11475   7.721   8.318   9.332
 7412ION    CL-11476   2.906   2.916  11.681
 7413ION    CL-11477   4.242   5.260   0.093
 7414ION    CL-11478   0.645   8.802   9.068
 7415ION    CL-11479   2.016   6.481   1.606
 7416ION    CL-11480   7.905   6.397   9.107
 7417ION    CL-11481   7.357   6.791  11.773
 7418ION    CL-11482   5.485   7.388  11.359
 7419ION    CL-11483   2.710   2.397   3.425
 7420ION    CL-11484   0.976   4.781  11.745
 7421ION    CL-11485   0.293   3.936   0.870
 7422ION    CL-11486   8.639   6.624   2.960
 7423ION    CL-11487   1.063   8.491  11.219
 7424ION    CL-11488  10.211  10.001  11.746
 7425ION    CL-11489   7.245   6.234   1.336
 7426ION    CL-11490   9.676   6.131   3.713
 7427ION    CL-11491   3.906   1.917   1.189
 7428ION    CL-11492   2.934   3.279   2.949
 7429ION    CL-11493   6.233   4.751   9.070
 7430ION    CL-11494   4.478   1.669  11.823
 7431ION    CL-11495   1.902   0.593  11.740
 7432ION    CL-11496   7.858   2.153  10.988
 7433ION    CL-11497   9.836   8.019   9.557
 7434ION    CL-11498   9.712   9.623  11.082
 7435ION    CL-11499   6.505   9.285   2.839
 7436ION    CL-11500  10.068   2.210  11.708
 7437ION    CL-11501   3.404   3.870   0.434
 7438ION    CL-11502   2.135   3.740   2.127
 7439ION    CL-11503   8.862   7.928  11.629
 7440ION    CL-11504   3.700   1.458   2.627
 7441ION    CL-11505  10.376   3.754  10.821
 7442ION    CL-11506   7.348   8.153   1.318
 7443ION    CL-11507   6.760   1.276   9.434
 7444ION    CL-11508   4.148   4.799   1.791
 7445ION    CL-11509   9.345   5.959   1.666
 7446ION    CL-11510   0.245   8.168  11.096
 7447ION    CL-11511   6.322   6.619   1.304
 7448ION    CL-11512   8.655   0.924   9.871
 7449ION    CL-11513   8.810   3.100  11.491
 7450ION    CL-11514   9.371   0.783  11.403
 7451ION    CL-11515   4.821   8.419   9.396
 7452ION    CL-11516   0.051   0.347   0.178
 7453ION    CL-11517   5.092   4.486  11.980
 7454ION    CL-11518   3.800  10.032   9.109
 7455ION    CL-11519   1.310   4.263   2.350
 7456ION    CL-11520   8.141   7.070  11.972
 7457ION    CL-11521   8.877   1.888   3.115
 7458ION    CL-11522   3.257   7.582  10.741
 7459ION    CL-11523   9.571   6.677  10.251
 7460ION    CL-11524   4.442   8.909   0.155
 7461ION    CL-11525   7.717   5.933   2.164
 7462ION    CL-11526   1.494   4.208  10.538
 7463ION    CL-11527   0.714   6.560   2.421
 7464ION    CL-11528   8.368   5.538   8.904
 7465ION    CL-11529  10.180   4.060   8.762
 7466ION    CL-11530   5.079   3.722  11.521
  10.50000  10.50000  12.00000
