Protein in INSANE! Membrane UpperLeaflet>POPC=1.0 LowerLeaflet>POPC=1.0
11125
    1AU     AUC    1   5.248   5.299   6.004
    1AU     AUC    2   5.543   5.299   5.828
    1AU     AUC    3   5.513   5.296   6.173
    1AU     AUC    4   4.966   5.289   5.841
    1AU     AUC    5   4.978   5.335   6.194
    1AU     AUC    6   5.069   5.572   6.005
    1AU     AUC    7   5.435   5.566   5.994
    1AU     AUC    8   5.059   5.040   6.010
    1AU     AUC    9   5.412   5.018   6.006
    1AU     AUC   10   5.251   5.131   6.282
    1AU     AUC   11   5.233   5.473   6.269
    1AU     AUC   12   5.247   5.128   5.730
    1AU     AUC   13   5.275   5.448   5.732
    1AU     AUC   14   5.868   5.297   5.666
    1AU     AUC   15   5.863   5.276   6.013
    1AU     AUC   16   5.796   5.283   6.356
    1AU     AUC   17   4.655   5.289   5.673
    1AU     AUC   18   4.633   5.327   6.038
    1AU     AUC   19   4.679   5.364   6.381
    1AU     AUC   20   4.902   5.892   5.976
    1AU     AUC   21   5.252   5.903   5.954
    1AU     AUC   22   5.617   5.863   5.984
    1AU     AUC   23   4.848   4.759   6.018
    1AU     AUC   24   5.198   4.703   6.002
    1AU     AUC   25   5.572   4.704   5.988
    1AU     AUC   26   5.232   4.958   6.580
    1AU     AUC   27   5.265   5.336   6.622
    1AU     AUC   28   5.255   5.669   6.559
    1AU     AUC   29   5.266   4.952   5.453
    1AU     AUC   30   5.267   5.279   5.398
    1AU     AUC   31   5.272   5.603   5.427
    1AU     AUC   32   5.520   5.113   6.497
    1AU     AUC   33   5.552   5.482   6.495
    1AU     AUC   34   5.588   5.121   5.509
    1AU     AUC   35   5.597   5.476   5.532
    1AU     AUC   36   4.942   5.179   6.529
    1AU     AUC   37   4.958   5.543   6.490
    1AU     AUC   38   4.944   5.109   5.546
    1AU     AUC   39   4.928   5.426   5.503
    1AU     AUC   40   5.783   5.575   5.835
    1AU     AUC   41   5.740   5.594   6.183
    1AU     AUC   42   4.753   5.597   5.837
    1AU     AUC   43   4.765   5.654   6.188
    1AU     AUC   44   5.738   4.983   5.823
    1AU     AUC   45   5.701   4.963   6.169
    1AU     AUC   46   4.717   4.997   5.865
    1AU     AUC   47   4.776   5.056   6.224
    1AU     AUC   48   5.067   5.843   6.266
    1AU     AUC   49   5.428   5.782   6.250
    1AU     AUC   50   5.048   4.832   6.311
    1AU     AUC   51   5.371   4.786   6.283
    1AU     AUC   52   5.075   5.726   5.696
    1AU     AUC   53   5.462   5.758   5.668
    1AU     AUC   54   5.038   4.827   5.714
    1AU     AUC   55   5.435   4.836   5.711
    1AU    AUSL   56   5.792   5.246   6.698
    1AU    AUSL   57   5.516   4.803   6.664
    1AU     AUL   58   5.832   4.835   6.837
    1AU       S   59   5.889   4.440   6.612
    1AU     LIG   60   5.790   4.309   6.995
    1AU     LIG   61   5.985   3.957   7.206
    1AU     LIG   62   6.239   3.624   7.419
    1AU     LIG   63   6.380   3.573   7.860
    1AU       S   64   6.063   5.222   6.768
    1AU     LIG   65   6.020   5.130   7.232
    1AU     LIG   66   6.163   5.061   7.689
    1AU     LIG   67   6.504   5.077   8.040
    1AU     LIG   68   6.892   5.158   8.322
    1AU    AUSL   69   5.400   5.150   6.897
    1AU    AUSL   70   5.110   5.501   6.913
    1AU     AUL   71   5.299   5.446   7.243
    1AU       S   72   5.540   5.101   7.061
    1AU     LIG   73   5.429   4.979   7.447
    1AU     LIG   74   5.665   4.829   7.819
    1AU     LIG   75   5.762   4.616   8.233
    1AU     LIG   76   5.920   4.641   8.674
    1AU       S   77   4.909   5.224   7.142
    1AU     LIG   78   4.976   5.195   7.615
    1AU     LIG   79   4.702   5.170   7.985
    1AU     LIG   80   4.543   5.194   8.425
    1AU     LIG   81   4.547   5.431   8.836
    1AU    AUSL   82   5.523   5.579   6.857
    1AU    AUSL   83   5.886   5.659   6.596
    1AU     AUL   84   5.799   5.519   6.991
    1AU       S   85   5.396   5.872   6.985
    1AU     LIG   86   5.637   5.820   7.376
    1AU     LIG   87   5.721   5.901   7.852
    1AU     LIG   88   5.767   5.943   8.339
    1AU     LIG   89   5.792   5.913   8.820
    1AU       S   90   5.968   5.898   6.777
    1AU     LIG   91   6.340   5.712   6.859
    1AU     LIG   92   6.651   5.872   7.174
    1AU     LIG   93   6.925   6.141   7.454
    1AU     LIG   94   7.202   6.422   7.709
    1AU    AUSL   95   5.793   5.358   5.354
    1AU    AUSL   96   5.676   5.783   5.312
    1AU     AUL   97   5.983   5.608   5.103
    1AU       S   98   5.612   5.528   4.855
    1AU     LIG   99   6.048   5.477   4.592
    1AU     LIG  100   6.212   5.147   4.318
    1AU     LIG  101   6.261   5.003   3.881
    1AU     LIG  102   6.482   5.032   3.465
    1AU       S  103   5.995   6.022   5.342
    1AU     LIG  104   6.107   6.157   4.945
    1AU     LIG  105   6.270   6.373   4.556
    1AU     LIG  106   6.493   6.666   4.266
    1AU     LIG  107   6.717   6.990   4.026
    1AU    AUSL  108   5.561   5.096   5.096
    1AU    AUSL  109   5.950   4.966   5.400
    1AU     AUL  110   5.956   5.134   5.113
    1AU       S  111   6.014   4.666   5.156
    1AU     LIG  112   6.213   4.374   4.829
    1AU     LIG  113   6.484   4.005   4.707
    1AU     LIG  114   6.763   3.725   4.441
    1AU     LIG  115   7.166   3.717   4.178
    1AU       S  116   5.658   5.359   4.838
    1AU     LIG  117   5.783   5.002   4.605
    1AU     LIG  118   5.871   4.774   4.186
    1AU     LIG  119   5.840   4.762   3.708
    1AU     LIG  120   6.026   4.874   3.285
    1AU    AUSL  121   5.381   5.466   5.267
    1AU    AUSL  122   5.149   5.081   5.225
    1AU     AUL  123   5.289   5.118   4.944
    1AU       S  124   4.831   5.123   4.807
    1AU     LIG  125   4.844   4.773   4.534
    1AU     LIG  126   4.711   4.625   4.101
    1AU     LIG  127   4.508   4.646   3.672
    1AU     LIG  128   4.580   4.774   3.230
    1AU       S  129   5.451   5.582   4.941
    1AU     LIG  130   5.445   5.412   4.408
    1AU     LIG  131   5.767   5.263   4.066
    1AU     LIG  132   5.909   5.270   3.605
    1AU     LIG  133   5.890   5.456   3.172
    1AU    AUSL  134   4.712   5.431   6.752
    1AU    AUSL  135   5.009   5.786   6.613
    1AU     AUL  136   4.872   5.730   6.955
    1AU       S  137   4.737   5.351   7.210
    1AU     LIG  138   4.517   5.006   7.411
    1AU     LIG  139   4.277   4.925   7.823
    1AU     LIG  140   4.111   4.947   8.275
    1AU     LIG  141   3.771   5.076   8.589
    1AU       S  142   4.579   6.032   6.716
    1AU     LIG  143   4.646   6.187   7.131
    1AU     LIG  144   4.472   6.437   7.506
    1AU     LIG  145   4.199   6.745   7.748
    1AU     LIG  146   4.016   6.900   8.162
    1AU    AUSL  147   5.030   5.144   6.676
    1AU    AUSL  148   4.595   5.015   6.641
    1AU     AUL  149   4.538   5.224   6.812
    1AU       S  150   4.460   4.767   6.891
    1AU     LIG  151   4.041   4.612   6.693
    1AU     LIG  152   3.832   4.210   6.833
    1AU     LIG  153   3.614   3.887   7.104
    1AU     LIG  154   3.223   3.763   7.357
    1AU       S  155   4.945   5.089   7.068
    1AU     LIG  156   4.969   4.750   7.378
    1AU     LIG  157   4.748   4.692   7.771
    1AU     LIG  158   4.572   4.707   8.201
    1AU     LIG  159   4.446   4.560   8.619
    1AU    AUSL  160   4.739   5.205   5.283
    1AU    AUSL  161   4.907   4.815   5.451
    1AU     AUL  162   4.956   4.808   5.122
    1AU       S  163   4.631   5.109   4.961
    1AU     LIG  164   4.367   4.859   4.702
    1AU     LIG  165   4.265   4.839   4.236
    1AU     LIG  166   4.059   4.913   3.807
    1AU     LIG  167   3.622   5.041   3.626
    1AU       S  168   4.528   4.727   5.272
    1AU     LIG  169   4.555   4.450   4.968
    1AU     LIG  170   4.219   4.151   4.848
    1AU     LIG  171   3.871   3.926   4.628
    1AU     LIG  172   3.636   3.722   4.272
    1AU    AUSL  173   5.008   5.489   5.066
    1AU    AUSL  174   4.532   5.561   5.421
    1AU     AUL  175   4.658   5.549   5.099
    1AU       S  176   4.248   5.743   5.244
    1AU     LIG  177   4.076   6.030   4.899
    1AU     LIG  178   3.976   6.261   4.516
    1AU     LIG  179   3.645   6.396   4.226
    1AU     LIG  180   3.169   6.455   4.191
    1AU       S  181   4.911   5.348   4.756
    1AU     LIG  182   4.621   5.215   4.370
    1AU     LIG  183   4.575   5.106   3.913
    1AU     LIG  184   4.620   5.227   3.460
    1AU     LIG  185   4.762   5.458   3.064
    1AU    AUSL  186   5.999   5.788   6.014
    1AU    AUSL  187   6.013   5.625   5.601
    1AU     AUL  188   6.293   5.940   5.876
    1AU       S  189   6.114   5.783   5.500
    1AU     LIG  190   6.442   5.827   5.191
    1AU     LIG  191   6.563   5.980   4.769
    1AU     LIG  192   6.786   6.304   4.517
    1AU     LIG  193   7.023   6.629   4.262
    1AU       S  194   6.464   5.650   6.214
    1AU     LIG  195   6.854   5.854   6.098
    1AU     LIG  196   7.293   6.049   6.097
    1AU     LIG  197   7.497   6.498   6.072
    1AU     LIG  198   7.762   6.766   6.357
    1AU    AUSL  199   6.223   5.401   5.900
    1AU    AUSL  200   6.166   5.061   6.195
    1AU     AUL  201   6.541   5.158   6.214
    1AU       S  202   6.355   5.481   5.954
    1AU     LIG  203   6.793   5.403   5.854
    1AU     LIG  204   7.234   5.580   5.852
    1AU     LIG  205   7.659   5.755   5.780
    1AU     LIG  206   8.057   5.558   5.583
    1AU       S  207   6.403   4.770   6.006
    1AU     LIG  208   6.847   4.681   6.111
    1AU     LIG  209   7.266   4.480   6.211
    1AU     LIG  210   7.684   4.365   6.335
    1AU     LIG  211   8.094   4.520   6.488
    1AU    AUSL  212   5.952   5.428   6.251
    1AU    AUSL  213   5.802   6.008   6.327
    1AU     AUL  214   6.075   5.871   6.323
    1AU       S  215   6.001   6.189   6.669
    1AU     LIG  216   6.389   6.246   6.925
    1AU     LIG  217   6.712   6.526   7.159
    1AU     LIG  218   6.869   6.972   7.292
    1AU     LIG  219   6.958   7.469   7.266
    1AU       S  220   6.277   5.476   6.398
    1AU     LIG  221   6.751   5.482   6.564
    1AU     LIG  222   7.185   5.557   6.368
    1AU     LIG  223   7.613   5.735   6.412
    1AU     LIG  224   8.034   5.882   6.571
    1AU    AUSL  225   4.571   5.873   6.015
    1AU    AUSL  226   4.641   5.668   6.409
    1AU     AUL  227   4.333   5.983   6.243
    1AU       S  228   4.501   5.823   6.643
    1AU     LIG  229   4.370   5.731   7.062
    1AU     LIG  230   4.159   6.082   7.297
    1AU     LIG  231   3.907   6.368   7.565
    1AU     LIG  232   3.643   6.485   7.940
    1AU       S  233   4.575   6.262   5.935
    1AU     LIG  234   4.115   6.219   5.815
    1AU     LIG  235   3.632   6.296   5.817
    1AU     LIG  236   3.201   6.515   5.860
    1AU     LIG  237   2.790   6.681   6.040
    1AU    AUSL  238   4.547   5.474   5.831
    1AU    AUSL  239   4.682   5.932   5.607
    1AU     AUL  240   4.366   5.806   5.700
    1AU       S  241   4.168   5.284   5.475
    1AU     LIG  242   3.835   5.631   5.576
    1AU     LIG  243   3.408   5.843   5.682
    1AU     LIG  244   3.091   6.145   5.492
    1AU     LIG  245   2.616   6.195   5.443
    1AU       S  246   4.515   6.174   5.432
    1AU     LIG  247   4.259   6.441   5.167
    1AU     LIG  248   4.211   6.651   4.758
    1AU     LIG  249   3.968   7.002   4.568
    1AU     LIG  250   3.627   7.301   4.716
    1AU    AUSL  251   4.306   5.525   6.201
    1AU    AUSL  252   4.279   5.155   5.915
    1AU     AUL  253   4.146   5.466   5.918
    1AU       S  254   4.085   5.076   6.199
    1AU     LIG  255   3.763   5.136   5.870
    1AU     LIG  256   3.387   4.891   5.724
    1AU     LIG  257   2.973   4.674   5.721
    1AU     LIG  258   2.566   4.814   5.626
    1AU       S  259   4.159   5.554   6.414
    1AU     LIG  260   3.736   5.548   6.215
    1AU     LIG  261   3.311   5.721   6.374
    1AU     LIG  262   2.877   5.936   6.395
    1AU     LIG  263   2.477   6.220   6.357
    1AU    AUSL  264   5.932   4.717   6.031
    1AU    AUSL  265   5.785   4.978   6.371
    1AU     AUL  266   6.111   4.872   6.418
    1AU       S  267   6.227   4.595   6.040
    1AU     LIG  268   6.551   4.286   5.925
    1AU     LIG  269   6.988   4.121   5.968
    1AU     LIG  270   7.432   3.969   6.069
    1AU     LIG  271   7.759   3.853   6.375
    1AU       S  272   6.006   4.431   6.463
    1AU     LIG  273   6.282   4.227   6.836
    1AU     LIG  274   6.512   4.005   7.190
    1AU     LIG  275   6.735   3.782   7.541
    1AU     LIG  276   7.020   3.810   7.925
    1AU    AUSL  277   5.952   5.089   5.804
    1AU    AUSL  278   5.831   4.607   5.625
    1AU     AUL  279   6.083   4.758   5.632
    1AU       S  280   6.435   4.973   5.799
    1AU     LIG  281   6.716   4.669   5.612
    1AU     LIG  282   7.153   4.529   5.702
    1AU     LIG  283   7.583   4.377   5.795
    1AU     LIG  284   7.993   4.324   5.586
    1AU       S  285   6.007   4.444   5.287
    1AU     LIG  286   6.127   4.011   5.195
    1AU     LIG  287   6.307   3.621   4.996
    1AU     LIG  288   6.585   3.322   4.760
    1AU     LIG  289   6.722   2.864   4.769
    1AU    AUSL  290   4.486   4.793   6.068
    1AU    AUSL  291   4.588   5.035   5.648
    1AU     AUL  292   4.235   4.864   5.789
    1AU       S  293   4.413   4.866   5.356
    1AU     LIG  294   4.067   4.570   5.139
    1AU     LIG  295   3.718   4.257   5.005
    1AU     LIG  296   3.368   4.043   4.757
    1AU     LIG  297   3.018   4.080   4.444
    1AU       S  298   4.065   4.850   6.237
    1AU     LIG  299   3.711   4.657   6.055
    1AU     LIG  300   3.260   4.550   6.130
    1AU     LIG  301   2.895   4.367   6.370
    1AU     LIG  302   2.542   4.027   6.331
    1AU    AUSL  303   4.556   5.184   6.257
    1AU    AUSL  304   4.821   4.810   6.335
    1AU     AUL  305   4.488   4.757   6.400
    1AU       S  306   4.507   4.558   6.816
    1AU     LIG  307   4.345   4.128   6.708
    1AU     LIG  308   4.034   3.732   6.748
    1AU     LIG  309   3.718   3.406   6.927
    1AU     LIG  310   3.273   3.323   7.095
    1AU       S  311   4.156   5.083   6.384
    1AU     LIG  312   3.626   5.066   6.372
    1AU     LIG  313   3.196   5.054   6.176
    1AU     LIG  314   2.769   4.872   6.157
    1AU     LIG  315   2.437   4.654   6.417
    1AU    AUSL  316   5.243   6.121   6.470
    1AU    AUSL  317   4.828   6.048   6.314
    1AU     AUL  318   5.038   6.125   6.708
    1AU       S  319   4.683   6.253   6.428
    1AU     LIG  320   4.393   6.484   6.778
    1AU     LIG  321   4.139   6.638   7.171
    1AU     LIG  322   3.921   7.021   7.388
    1AU     LIG  323   3.699   7.470   7.390
    1AU       S  324   5.286   6.456   6.430
    1AU     LIG  325   5.394   6.494   6.839
    1AU     LIG  326   5.484   6.907   7.010
    1AU     LIG  327   5.599   7.333   7.151
    1AU     LIG  328   5.649   7.679   7.468
    1AU    AUSL  329   5.081   6.268   6.052
    1AU    AUSL  330   5.417   6.213   5.711
    1AU     AUL  331   5.292   6.569   5.846
    1AU       S  332   5.100   6.523   6.270
    1AU     LIG  333   5.308   6.936   6.507
    1AU     LIG  334   5.328   7.373   6.694
    1AU     LIG  335   5.082   7.800   6.696
    1AU     LIG  336   4.834   8.169   6.884
    1AU       S  337   5.140   6.368   5.465
    1AU     LIG  338   5.473   6.759   5.418
    1AU     LIG  339   5.711   7.209   5.337
    1AU     LIG  340   5.992   7.650   5.314
    1AU     LIG  341   6.192   8.116   5.273
    1AU    AUSL  342   5.448   6.023   6.099
    1AU    AUSL  343   5.474   5.767   6.490
    1AU     AUL  344   5.553   6.096   6.549
    1AU       S  345   5.835   6.020   6.904
    1AU     LIG  346   6.120   5.967   7.261
    1AU     LIG  347   6.418   6.241   7.476
    1AU     LIG  348   6.696   6.554   7.694
    1AU     LIG  349   6.748   6.786   8.103
    1AU       S  350   5.536   6.387   6.188
    1AU     LIG  351   5.754   6.650   6.509
    1AU     LIG  352   5.794   7.113   6.656
    1AU     LIG  353   5.819   7.575   6.757
    1AU     LIG  354   5.893   8.023   6.696
    1AU    AUSL  355   5.195   4.602   6.453
    1AU    AUSL  356   5.603   4.595   6.279
    1AU     AUL  357   5.426   4.483   6.667
    1AU       S  358   5.176   4.115   6.514
    1AU     LIG  359   4.864   3.974   6.824
    1AU     LIG  360   4.821   3.511   6.912
    1AU     LIG  361   4.880   3.036   6.935
    1AU     LIG  362   4.710   2.638   7.158
    1AU       S  363   5.760   4.368   6.332
    1AU     LIG  364   5.904   3.946   6.616
    1AU     LIG  365   6.259   3.688   6.868
    1AU     LIG  366   6.634   3.478   7.108
    1AU     LIG  367   6.860   3.036   7.116
    1AU    AUSL  368   4.858   4.422   6.182
    1AU    AUSL  369   4.949   4.744   6.764
    1AU     AUL  370   4.864   4.472   6.533
    1AU       S  371   4.963   4.054   6.338
    1AU     LIG  372   4.753   3.657   6.415
    1AU     LIG  373   4.608   3.211   6.525
    1AU     LIG  374   4.492   2.774   6.699
    1AU     LIG  375   4.594   2.309   6.756
    1AU       S  376   4.735   4.657   6.961
    1AU     LIG  377   4.565   4.243   7.181
    1AU     LIG  378   4.169   3.969   7.181
    1AU     LIG  379   3.954   3.596   7.375
    1AU     LIG  380   3.969   3.387   7.803
    1AU    AUSL  381   5.292   4.350   6.116
    1AU    AUSL  382   5.043   4.600   5.833
    1AU     AUL  383   4.941   4.258   5.916
    1AU       S  384   5.325   4.148   5.691
    1AU     LIG  385   5.005   3.765   5.766
    1AU     LIG  386   4.776   3.321   5.656
    1AU     LIG  387   4.734   2.851   5.489
    1AU     LIG  388   4.619   2.461   5.242
    1AU       S  389   5.299   4.153   6.246
    1AU     LIG  390   5.258   3.676   6.219
    1AU     LIG  391   5.135   3.311   6.509
    1AU     LIG  392   5.340   2.907   6.657
    1AU     LIG  393   5.762   2.666   6.635
    1AU    AUSL  394   5.271   5.922   5.381
    1AU    AUSL  395   5.686   5.887   5.733
    1AU     AUL  396   5.545   6.121   5.384
    1AU       S  397   5.137   6.333   5.257
    1AU     LIG  398   5.450   6.487   4.995
    1AU     LIG  399   5.509   6.947   4.921
    1AU     LIG  400   5.498   7.310   4.621
    1AU     LIG  401   5.595   7.613   4.266
    1AU       S  402   5.931   6.110   5.639
    1AU     LIG  403   6.377   6.295   5.429
    1AU     LIG  404   6.559   6.448   4.996
    1AU     LIG  405   6.776   6.781   4.710
    1AU     LIG  406   7.108   7.137   4.668
    1AU    AUSL  407   5.067   5.954   5.769
    1AU    AUSL  408   4.966   5.631   5.462
    1AU     AUL  409   4.921   5.929   5.322
    1AU       S  410   4.957   6.323   5.591
    1AU     LIG  411   4.966   6.818   5.498
    1AU     LIG  412   5.175   7.210   5.322
    1AU     LIG  413   5.042   7.679   5.300
    1AU     LIG  414   4.789   8.030   5.100
    1AU       S  415   4.478   5.977   5.188
    1AU     LIG  416   4.574   6.208   4.825
    1AU     LIG  417   4.466   6.372   4.407
    1AU     LIG  418   4.157   6.668   4.214
    1AU     LIG  419   4.151   7.117   4.047
    1AU    AUSL  420   5.241   4.546   5.440
    1AU    AUSL  421   4.638   4.594   5.720
    1AU     AUL  422   4.900   4.443   5.478
    1AU       S  423   4.449   4.580   5.480
    1AU     LIG  424   4.343   4.178   5.365
    1AU     LIG  425   3.991   3.895   5.244
    1AU     LIG  426   3.640   3.675   5.022
    1AU     LIG  427   3.452   3.244   4.912
    1AU       S  428   5.279   4.146   5.516
    1AU     LIG  429   5.214   3.717   5.301
    1AU     LIG  430   4.992   3.282   5.185
    1AU     LIG  431   4.822   2.880   4.968
    1AU     LIG  432   4.732   2.599   4.580
    1AU    AUSL  433   5.469   4.595   5.824
    1AU    AUSL  434   5.517   4.872   5.452
    1AU     AUL  435   5.565   4.506   5.426
    1AU       S  436   5.575   4.198   5.778
    1AU     LIG  437   5.520   3.704   5.751
    1AU     LIG  438   5.289   3.310   5.618
    1AU     LIG  439   5.242   2.872   5.415
    1AU     LIG  440   5.397   2.410   5.419
    1AU       S  441   5.771   4.671   5.052
    1AU     LIG  442   5.720   4.231   4.936
    1AU     LIG  443   5.968   3.900   4.709
    1AU     LIG  444   6.243   3.610   4.460
    1AU     LIG  445   6.458   3.523   4.049
    2POPC   NC3  446  10.059   5.811   8.067
    2POPC   PO4  447   0.006   5.305   7.953
    2POPC   GL1  448  10.283   5.458   7.659
    2POPC   GL2  449   9.949   5.542   7.669
    2POPC   C1A  450  10.157   5.369   7.241
    2POPC   D2A  451  10.338   5.398   6.855
    2POPC   C3A  452  10.105   5.423   6.440
    2POPC   C4A  453  10.121   5.383   5.949
    2POPC   C1B  454  10.232   5.876   7.420
    2POPC   C2B  455  10.285   5.937   6.994
    2POPC   C3B  456  10.064   5.922   6.618
    2POPC   C4B  457  10.195   5.849   6.196
    3POPC   NC3  458   0.494   9.295   8.320
    3POPC   PO4  459   0.650   9.630   7.790
    3POPC   GL1  460   0.472   9.482   7.451
    3POPC   GL2  461   0.293   9.217   7.509
    3POPC   C1A  462   0.216   9.602   7.163
    3POPC   D2A  463   0.362   9.731   6.802
    3POPC   C3A  464   0.084   9.690   6.507
    3POPC   C4A  465   0.266   9.730   6.128
    3POPC   C1B  466   0.256   8.998   7.122
    3POPC   C2B  467   0.528   9.087   6.755
    3POPC   C3B  468   0.434   9.339   6.402
    3POPC   C4B  469   0.496   9.322   5.915
    4POPC   NC3  470   9.389   7.497   8.193
    4POPC   PO4  471   9.013   6.900   8.121
    4POPC   GL1  472   9.213   7.173   7.826
    4POPC   GL2  473   9.557   7.117   7.774
    4POPC   C1A  474   9.205   7.106   7.392
    4POPC   D2A  475   9.211   6.951   6.976
    4POPC   C3A  476   9.216   7.183   6.581
    4POPC   C4A  477   9.204   7.088   6.155
    4POPC   C1B  478   9.735   7.215   7.369
    4POPC   C2B  479   9.775   7.060   6.981
    4POPC   C3B  480   9.848   7.176   6.588
    4POPC   C4B  481   9.615   7.382   6.287
    5POPC   NC3  482   5.920   8.559   8.072
    5POPC   PO4  483   5.721   9.226   8.172
    5POPC   GL1  484   5.888   8.990   7.823
    5POPC   GL2  485   5.606   8.942   7.546
    5POPC   C1A  486   6.082   8.955   7.434
    5POPC   D2A  487   5.839   9.182   7.073
    5POPC   C3A  488   5.799   9.073   6.626
    5POPC   C4A  489   5.641   8.810   6.301
    5POPC   C1B  490   5.740   8.682   7.174
    5POPC   C2B  491   5.607   8.547   6.755
    5POPC   C3B  492   5.585   8.293   6.378
    5POPC   C4B  493   5.687   8.225   5.950
    6POPC   NC3  494   6.406   1.970   8.095
    6POPC   PO4  495   6.051   2.471   7.922
    6POPC   GL1  496   6.422   2.174   7.629
    6POPC   GL2  497   6.424   1.793   7.612
    6POPC   C1A  498   6.527   2.063   7.166
    6POPC   D2A  499   6.318   2.249   6.784
    6POPC   C3A  500   6.598   2.334   6.414
    6POPC   C4A  501   6.435   2.288   5.984
    6POPC   C1B  502   6.665   1.480   7.345
    6POPC   C2B  503   6.743   1.600   6.931
    6POPC   C3B  504   6.626   1.872   6.660
    6POPC   C4B  505   6.399   1.884   6.294
    7POPC   NC3  506   9.097   5.782   7.962
    7POPC   PO4  507   8.870   5.197   8.145
    7POPC   GL1  508   8.860   5.356   7.744
    7POPC   GL2  509   8.559   5.454   7.606
    7POPC   C1A  510   8.987   5.471   7.333
    7POPC   D2A  511   8.988   5.629   6.874
    7POPC   C3A  512   8.953   5.502   6.443
    7POPC   C4A  513   8.894   5.618   6.039
    7POPC   C1B  514   8.536   5.611   7.146
    7POPC   C2B  515   8.515   5.445   6.713
    7POPC   C3B  516   8.437   5.599   6.300
    7POPC   C4B  517   8.063   5.659   6.080
    8POPC   NC3  518   3.750   9.625   8.090
    8POPC   PO4  519   3.091   9.725   8.125
    8POPC   GL1  520   3.265   9.582   7.730
    8POPC   GL2  521   3.442   9.284   7.830
    8POPC   C1A  522   3.375   9.743   7.296
    8POPC   D2A  523   3.161   9.714   6.880
    8POPC   C3A  524   3.461   9.580   6.578
    8POPC   C4A  525   3.463   9.431   6.138
    8POPC   C1B  526   3.441   9.202   7.403
    8POPC   C2B  527   3.432   9.254   6.977
    8POPC   C3B  528   3.551   9.063   6.561
    8POPC   C4B  529   3.764   8.952   6.180
    9POPC   NC3  530   2.607   7.859   8.452
    9POPC   PO4  531   3.036   8.204   8.102
    9POPC   GL1  532   2.664   7.966   7.880
    9POPC   GL2  533   2.444   8.176   7.711
    9POPC   C1A  534   2.565   7.785   7.413
    9POPC   D2A  535   2.835   7.693   7.036
    9POPC   C3A  536   2.681   7.684   6.608
    9POPC   C4A  537   2.495   7.519   6.239
    9POPC   C1B  538   2.878   8.191   7.458
    9POPC   C2B  539   3.001   8.179   7.030
    9POPC   C3B  540   2.997   8.088   6.573
    9POPC   C4B  541   2.804   7.952   6.169
   10POPC   NC3  542   8.559   6.940   8.208
   10POPC   PO4  543   8.544   7.552   8.221
   10POPC   GL1  544   8.747   7.403   7.792
   10POPC   GL2  545   8.739   7.025   7.690
   10POPC   C1A  546   8.797   7.496   7.295
   10POPC   D2A  547   8.585   7.738   6.916
   10POPC   C3A  548   8.453   7.515   6.498
   10POPC   C4A  549   8.423   7.507   6.019
   10POPC   C1B  550   8.738   7.004   7.217
   10POPC   C2B  551   8.757   7.188   6.802
   10POPC   C3B  552   8.731   7.030   6.362
   10POPC   C4B  553   8.770   7.153   5.900
   11POPC   NC3  554   6.143   9.090   8.274
   11POPC   PO4  555   6.330   8.399   8.184
   11POPC   GL1  556   6.345   8.576   7.751
   11POPC   GL2  557   6.662   8.734   7.713
   11POPC   C1A  558   6.373   8.592   7.270
   11POPC   D2A  559   6.676   8.434   6.972
   11POPC   C3A  560   6.552   8.515   6.534
   11POPC   C4A  561   6.440   8.533   6.091
   11POPC   C1B  562   6.725   8.927   7.331
   11POPC   C2B  563   6.587   8.947   6.902
   11POPC   C3B  564   6.641   8.999   6.468
   11POPC   C4B  565   6.203   8.963   6.251
   12POPC   NC3  566   5.034   1.162   8.076
   12POPC   PO4  567   5.258   1.809   8.026
   12POPC   GL1  568   4.900   1.570   7.751
   12POPC   GL2  569   4.978   1.265   7.593
   12POPC   C1A  570   4.738   1.530   7.260
   12POPC   D2A  571   5.040   1.480   6.876
   12POPC   C3A  572   4.819   1.511   6.484
   12POPC   C4A  573   4.852   1.418   6.030
   12POPC   C1B  574   4.944   1.039   7.221
   12POPC   C2B  575   4.799   1.060   6.810
   12POPC   C3B  576   4.997   1.053   6.387
   12POPC   C4B  577   4.614   0.971   6.160
   13POPC   NC3  578   0.201   9.540   7.885
   13POPC   PO4  579   9.999   9.434   8.084
   13POPC   GL1  580  10.200   9.586   7.740
   13POPC   GL2  581  10.306   9.239   7.682
   13POPC   C1A  582  10.168   9.852   7.360
   13POPC   D2A  583  10.292   9.783   6.927
   13POPC   C3A  584  10.102   9.907   6.543
   13POPC   C4A  585  10.228   9.720   6.155
   13POPC   C1B  586  10.284   9.345   7.267
   13POPC   C2B  587  10.419   9.281   6.850
   13POPC   C3B  588  10.133   9.372   6.543
   13POPC   C4B  589   9.993   9.274   6.157
   14POPC   NC3  590   1.601   5.535   8.393
   14POPC   PO4  591   0.935   5.558   8.220
   14POPC   GL1  592   1.110   5.539   7.753
   14POPC   GL2  593   1.340   5.278   7.599
   14POPC   C1A  594   1.101   5.811   7.362
   14POPC   D2A  595   1.254   5.657   6.928
   14POPC   C3A  596   1.108   5.859   6.514
   14POPC   C4A  597   1.150   5.685   6.098
   14POPC   C1B  598   0.962   5.335   7.303
   14POPC   C2B  599   0.816   5.370   6.838
   14POPC   C3B  600   0.849   5.372   6.365
   14POPC   C4B  601   0.842   5.310   5.893
   15POPC   NC3  602   8.547   3.373   7.984
   15POPC   PO4  603   8.637   4.010   7.779
   15POPC   GL1  604   8.699   3.658   7.468
   15POPC   GL2  605   8.699   3.263   7.503
   15POPC   C1A  606   8.859   3.522   7.060
   15POPC   D2A  607   8.617   3.419   6.685
   15POPC   C3A  608   8.861   3.348   6.343
   15POPC   C4A  609   8.834   3.572   5.971
   15POPC   C1B  610   8.384   3.372   7.169
   15POPC   C2B  611   8.184   3.638   6.876
   15POPC   C3B  612   8.109   3.497   6.476
   15POPC   C4B  613   8.399   3.532   6.196
   16POPC   NC3  614   0.474   2.765   8.084
   16POPC   PO4  615   0.309   2.105   8.179
   16POPC   GL1  616   0.286   2.372   7.779
   16POPC   GL2  617   0.112   2.703   7.726
   16POPC   C1A  618   0.100   2.390   7.336
   16POPC   D2A  619   0.128   2.649   6.952
   16POPC   C3A  620   0.360   2.533   6.571
   16POPC   C4A  621   0.075   2.430   6.242
   16POPC   C1B  622   0.414   2.799   7.363
   16POPC   C2B  623   0.444   3.062   6.978
   16POPC   C3B  624   0.314   3.046   6.544
   16POPC   C4B  625   0.409   2.851   6.148
   17POPC   NC3  626   8.892   7.841   8.118
   17POPC   PO4  627   8.495   8.162   7.783
   17POPC   GL1  628   8.681   7.962   7.490
   17POPC   GL2  629   8.985   7.830   7.615
   17POPC   C1A  630   8.668   8.208   7.143
   17POPC   D2A  631   8.363   8.284   6.879
   17POPC   C3A  632   8.507   8.143   6.519
   17POPC   C4A  633   8.633   8.219   6.092
   17POPC   C1B  634   9.099   7.916   7.178
   17POPC   C2B  635   8.995   8.123   6.765
   17POPC   C3B  636   8.949   7.933   6.376
   17POPC   C4B  637   8.922   7.496   6.271
   18POPC   NC3  638   2.891  10.049   8.405
   18POPC   PO4  639   3.261  10.394   7.947
   18POPC   GL1  640   3.340  10.161   7.609
   18POPC   GL2  641   3.558   9.990   7.798
   18POPC   C1A  642   3.559  10.245   7.218
   18POPC   D2A  643   3.436  10.163   6.784
   18POPC   C3A  644   3.600  10.407   6.403
   18POPC   C4A  645   3.416  10.332   5.959
   18POPC   C1B  646   3.846   9.883   7.475
   18POPC   C2B  647   3.868   9.853   7.030
   18POPC   C3B  648   3.829   9.931   6.596
   18POPC   C4B  649   3.554   9.934   6.237
   19POPC   NC3  650   9.643   8.348   7.925
   19POPC   PO4  651   9.295   7.932   8.337
   19POPC   GL1  652   9.489   7.837   7.844
   19POPC   GL2  653   9.445   8.064   7.556
   19POPC   C1A  654   9.390   7.576   7.464
   19POPC   D2A  655   9.268   7.461   7.016
   19POPC   C3A  656   9.333   7.677   6.594
   19POPC   C4A  657   9.344   7.754   6.105
   19POPC   C1B  658   9.616   8.206   7.233
   19POPC   C2B  659   9.490   8.076   6.859
   19POPC   C3B  660   9.442   8.153   6.420
   19POPC   C4B  661   9.714   8.097   6.064
   20POPC   NC3  662   8.424   9.156   8.260
   20POPC   PO4  663   9.048   8.904   8.162
   20POPC   GL1  664   8.762   9.092   7.790
   20POPC   GL2  665   8.568   9.387   7.762
   20POPC   C1A  666   8.605   9.129   7.313
   20POPC   D2A  667   8.767   9.167   6.881
   20POPC   C3A  668   8.583   9.131   6.494
   20POPC   C4A  669   8.793   9.198   6.108
   20POPC   C1B  670   8.897   9.527   7.450
   20POPC   C2B  671   8.947   9.623   7.007
   20POPC   C3B  672   8.626   9.634   6.707
   20POPC   C4B  673   8.529   9.618   6.308
   21POPC   NC3  674   9.394   4.573   8.524
   21POPC   PO4  675   9.393   4.473   7.880
   21POPC   GL1  676   9.502   4.806   7.640
   21POPC   GL2  677   9.554   5.127   7.824
   21POPC   C1A  678   9.501   4.769   7.201
   21POPC   D2A  679   9.211   4.793   6.917
   21POPC   C3A  680   9.323   4.735   6.523
   21POPC   C4A  681   9.015   4.682   6.234
   21POPC   C1B  682   9.682   5.215   7.400
   21POPC   C2B  683   9.391   5.293   7.103
   21POPC   C3B  684   9.306   5.255   6.709
   21POPC   C4B  685   9.449   5.189   6.323
   22POPC   NC3  686   0.843   0.885   8.187
   22POPC   PO4  687   1.404   0.768   8.040
   22POPC   GL1  688   1.158   0.895   7.707
   22POPC   GL2  689   1.027   1.210   7.801
   22POPC   C1A  690   1.212   1.052   7.283
   22POPC   D2A  691   1.384   1.117   6.895
   22POPC   C3A  692   1.203   0.901   6.585
   22POPC   C4A  693   1.182   1.075   6.195
   22POPC   C1B  694   1.329   1.453   7.551
   22POPC   C2B  695   1.263   1.585   7.114
   22POPC   C3B  696   1.074   1.502   6.702
   22POPC   C4B  697   1.371   1.515   6.375
   23POPC   NC3  698   6.901   8.735   8.157
   23POPC   PO4  699   7.329   9.231   8.192
   23POPC   GL1  700   7.075   9.075   7.815
   23POPC   GL2  701   7.201   8.723   7.737
   23POPC   C1A  702   7.212   9.037   7.355
   23POPC   D2A  703   7.105   8.815   6.969
   23POPC   C3A  704   7.242   8.919   6.535
   23POPC   C4A  705   7.044   8.803   6.154
   23POPC   C1B  706   7.033   8.494   7.392
   23POPC   C2B  707   7.169   8.295   7.009
   23POPC   C3B  708   7.058   8.452   6.606
   23POPC   C4B  709   6.915   8.330   6.216
   24POPC   NC3  710   0.011   6.399   8.173
   24POPC   PO4  711   9.901   6.475   8.173
   24POPC   GL1  712   9.799   6.408   7.735
   24POPC   GL2  713  10.118   6.271   7.717
   24POPC   C1A  714   9.840   6.258   7.273
   24POPC   D2A  715  10.008   6.381   6.873
   24POPC   C3A  716   9.792   6.371   6.505
   24POPC   C4A  717   9.754   6.076   6.220
   24POPC   C1B  718  10.330   6.373   7.316
   24POPC   C2B  719  10.492   6.415   6.875
   24POPC   C3B  720  10.327   6.353   6.435
   24POPC   C4B  721  10.473   6.577   6.048
   25POPC   NC3  722   5.352   0.375   8.232
   25POPC   PO4  723   4.640   0.189   8.202
   25POPC   GL1  724   4.890   0.389   7.818
   25POPC   GL2  725   4.966   0.754   7.747
   25POPC   C1A  726   4.998   0.256   7.360
   25POPC   D2A  727   5.114   0.427   6.944
   25POPC   C3A  728   5.000   0.168   6.581
   25POPC   C4A  729   5.164   0.089   6.181
   25POPC   C1B  730   4.689   0.653   7.432
   25POPC   C2B  731   4.626   0.607   6.998
   25POPC   C3B  732   4.769   0.627   6.570
   25POPC   C4B  733   4.980   0.586   6.183
   26POPC   NC3  734   5.915   1.239   8.036
   26POPC   PO4  735   5.400   0.819   8.039
   26POPC   GL1  736   5.410   0.995   7.599
   26POPC   GL2  737   5.494   1.354   7.622
   26POPC   C1A  738   5.431   1.135   7.129
   26POPC   D2A  739   5.762   1.243   6.773
   26POPC   C3A  740   5.614   1.036   6.381
   26POPC   C4A  741   5.408   0.850   6.039
   26POPC   C1B  742   5.705   1.526   7.226
   26POPC   C2B  743   5.516   1.707   6.846
   26POPC   C3B  744   5.449   1.561   6.447
   26POPC   C4B  745   5.830   1.454   6.221
   27POPC   NC3  746   9.298   5.000   8.257
   27POPC   PO4  747   9.574   5.644   8.044
   27POPC   GL1  748   9.436   5.625   7.611
   27POPC   GL2  749   9.615   5.944   7.603
   27POPC   C1A  750   9.300   5.834   7.219
   27POPC   D2A  751   9.487   6.068   6.887
   27POPC   C3A  752   9.246   5.950   6.541
   27POPC   C4A  753   9.300   5.920   6.122
   27POPC   C1B  754   9.790   5.730   7.224
   27POPC   C2B  755   9.812   5.473   6.878
   27POPC   C3B  756   9.637   5.631   6.535
   27POPC   C4B  757   9.697   5.581   6.135
   28POPC   NC3  758   5.317   9.112   7.940
   28POPC   PO4  759   5.688   9.703   7.979
   28POPC   GL1  760   5.574   9.456   7.684
   28POPC   GL2  761   5.863   9.397   7.546
   28POPC   C1A  762   5.384   9.318   7.294
   28POPC   D2A  763   5.182   9.455   6.920
   28POPC   C3A  764   5.359   9.336   6.520
   28POPC   C4A  765   5.431   9.546   6.133
   28POPC   C1B  766   5.792   9.687   7.284
   28POPC   C2B  767   5.608   9.802   6.913
   28POPC   C3B  768   5.747   9.661   6.515
   28POPC   C4B  769   5.957   9.426   6.205
   29POPC   NC3  770   9.599   2.581   8.147
   29POPC   PO4  771   9.748   3.210   8.132
   29POPC   GL1  772   9.632   2.931   7.764
   29POPC   GL2  773   9.275   2.787   7.738
   29POPC   C1A  774   9.618   2.687   7.371
   29POPC   D2A  775   9.277   2.769   7.056
   29POPC   C3A  776   9.430   2.844   6.637
   29POPC   C4A  777   9.631   2.575   6.325
   29POPC   C1B  778   9.183   2.419   7.450
   29POPC   C2B  779   9.141   2.277   7.050
   29POPC   C3B  780   9.259   2.355   6.636
   29POPC   C4B  781   9.153   2.365   6.212
   30POPC   NC3  782   2.661   3.423   8.516
   30POPC   PO4  783   2.295   3.220   8.128
   30POPC   GL1  784   2.326   3.442   7.756
   30POPC   GL2  785   2.331   3.147   7.577
   30POPC   C1A  786   2.576   3.545   7.359
   30POPC   D2A  787   2.722   3.346   6.972
   30POPC   C3A  788   2.576   3.467   6.539
   30POPC   C4A  789   2.427   3.448   6.100
   30POPC   C1B  790   2.800   3.084   7.471
   30POPC   C2B  791   2.966   2.907   7.075
   30POPC   C3B  792   2.971   3.036   6.633
   30POPC   C4B  793   3.146   3.244   6.264
   31POPC   NC3  794   4.669  10.158   8.369
   31POPC   PO4  795   4.177   9.804   8.147
   31POPC   GL1  796   4.458   9.927   7.826
   31POPC   GL2  797   4.392  10.257   7.696
   31POPC   C1A  798   4.389   9.848   7.380
   31POPC   D2A  799   4.351  10.043   6.958
   31POPC   C3A  800   4.317   9.834   6.573
   31POPC   C4A  801   4.430   9.983   6.174
   31POPC   C1B  802   4.107  10.300   7.328
   31POPC   C2B  803   3.936  10.365   6.901
   31POPC   C3B  804   4.159  10.315   6.530
   31POPC   C4B  805   4.187   0.024   6.176
   32POPC   NC3  806   2.780   5.315   8.610
   32POPC   PO4  807   2.319   5.240   8.160
   32POPC   GL1  808   2.399   5.349   7.662
   32POPC   GL2  809   2.412   5.723   7.611
   32POPC   C1A  810   2.561   5.441   7.204
   32POPC   D2A  811   2.685   5.632   6.797
   32POPC   C3A  812   2.863   5.419   6.388
   32POPC   C4A  813   3.103   5.507   5.969
   32POPC   C1B  814   2.429   5.948   7.186
   32POPC   C2B  815   2.256   5.944   6.754
   32POPC   C3B  816   2.417   5.717   6.381
   32POPC   C4B  817   2.402   5.881   5.946
   33POPC   NC3  818   5.647  10.152   8.138
   33POPC   PO4  819   6.267  10.078   7.939
   33POPC   GL1  820   5.933  10.050   7.641
   33POPC   GL2  821   5.583  10.131   7.655
   33POPC   C1A  822   5.821  10.177   7.227
   33POPC   D2A  823   5.961  10.376   6.904
   33POPC   C3A  824   5.872  10.140   6.576
   33POPC   C4A  825   6.023  10.170   6.161
   33POPC   C1B  826   5.298  10.314   7.359
   33POPC   C2B  827   5.429  10.311   6.934
   33POPC   C3B  828   5.401  10.329   6.527
   33POPC   C4B  829   5.529  10.122   6.155
   34POPC   NC3  830   6.166   9.636   7.870
   34POPC   PO4  831   6.582   9.132   8.155
   34POPC   GL1  832   6.438   9.215   7.713
   34POPC   GL2  833   6.727   9.368   7.559
   34POPC   C1A  834   6.287   9.370   7.268
   34POPC   D2A  835   6.110   9.587   6.909
   34POPC   C3A  836   6.250   9.321   6.603
   34POPC   C4A  837   6.493   9.409   6.221
   34POPC   C1B  838   6.663   9.672   7.218
   34POPC   C2B  839   6.610   9.603   6.805
   34POPC   C3B  840   6.754   9.774   6.470
   34POPC   C4B  841   6.942   9.794   6.111
   35POPC   NC3  842   0.565   1.800   7.895
   35POPC   PO4  843  10.475   1.611   7.925
   35POPC   GL1  844   0.112   1.631   7.571
   35POPC   GL2  845   0.191   1.927   7.550
   35POPC   C1A  846   0.347   1.537   7.255
   35POPC   D2A  847   0.535   1.648   6.940
   35POPC   C3A  848   0.501   1.518   6.575
   35POPC   C4A  849   0.404   1.682   6.208
   35POPC   C1B  850   0.484   2.045   7.298
   35POPC   C2B  851   0.386   2.167   6.935
   35POPC   C3B  852   0.285   2.025   6.564
   35POPC   C4B  853   0.551   2.165   6.210
   36POPC   NC3  854   3.454   0.994   8.164
   36POPC   PO4  855   3.280   1.525   7.824
   36POPC   GL1  856   3.473   1.183   7.639
   36POPC   GL2  857   3.447   0.799   7.657
   36POPC   C1A  858   3.237   1.049   7.286
   36POPC   D2A  859   2.980   1.058   6.958
   36POPC   C3A  860   3.242   1.222   6.622
   36POPC   C4A  861   3.140   1.344   6.208
   36POPC   C1B  862   3.745   0.886   7.311
   36POPC   C2B  863   3.847   1.215   7.046
   36POPC   C3B  864   3.862   1.135   6.644
   36POPC   C4B  865   3.635   1.210   6.265
   37POPC   NC3  866   9.780   4.294   8.085
   37POPC   PO4  867   0.014   4.351   8.014
   37POPC   GL1  868  10.355   4.497   7.700
   37POPC   GL2  869  10.096   4.228   7.677
   37POPC   C1A  870  10.415   4.454   7.297
   37POPC   D2A  871  10.139   4.448   6.990
   37POPC   C3A  872  10.362   4.486   6.647
   37POPC   C4A  873  10.224   4.597   6.248
   37POPC   C1B  874  10.247   3.970   7.328
   37POPC   C2B  875  10.137   3.935   6.919
   37POPC   C3B  876   9.989   4.174   6.584
   37POPC   C4B  877  10.098   4.107   6.152
   38POPC   NC3  878   7.581   0.091   7.903
   38POPC   PO4  879   7.652   0.761   7.986
   38POPC   GL1  880   7.869   0.506   7.702
   38POPC   GL2  881   7.941   0.154   7.569
   38POPC   C1A  882   7.876   0.586   7.283
   38POPC   D2A  883   7.872   0.866   6.983
   38POPC   C3A  884   7.784   0.698   6.618
   38POPC   C4A  885   7.967   0.729   6.253
   38POPC   C1B  886   7.991   0.102   7.154
   38POPC   C2B  887   7.719   0.237   6.834
   38POPC   C3B  888   7.955   0.225   6.470
   38POPC   C4B  889   7.932   0.262   6.034
   39POPC   NC3  890   8.131   1.824   8.090
   39POPC   PO4  891   7.523   1.629   8.225
   39POPC   GL1  892   7.695   1.711   7.827
   39POPC   GL2  893   7.727   2.074   7.801
   39POPC   C1A  894   7.713   1.629   7.387
   39POPC   D2A  895   7.914   1.722   6.990
   39POPC   C3A  896   7.624   1.792   6.651
   39POPC   C4A  897   7.593   1.713   6.220
   39POPC   C1B  898   7.988   2.053   7.440
   39POPC   C2B  899   8.237   2.117   7.058
   39POPC   C3B  900   8.047   2.093   6.639
   39POPC   C4B  901   7.908   2.128   6.224
   40POPC   NC3  902  10.311   7.879   7.946
   40POPC   PO4  903   9.828   7.460   8.020
   40POPC   GL1  904   9.908   7.624   7.603
   40POPC   GL2  905   9.949   7.975   7.575
   40POPC   C1A  906   9.779   7.708   7.150
   40POPC   D2A  907   9.978   7.964   6.817
   40POPC   C3A  908  10.048   7.845   6.385
   40POPC   C4A  909  10.429   7.782   6.109
   40POPC   C1B  910  10.280   7.829   7.273
   40POPC   C2B  911  10.484   7.884   6.861
   40POPC   C3B  912  10.380   8.214   6.558
   40POPC   C4B  913  10.231   8.261   6.128
   41POPC   NC3  914   2.152   4.773   8.052
   41POPC   PO4  915   1.670   5.294   8.012
   41POPC   GL1  916   1.872   5.275   7.597
   41POPC   GL2  917   1.811   4.945   7.548
   41POPC   C1A  918   2.194   5.097   7.257
   41POPC   D2A  919   2.185   4.961   6.795
   41POPC   C3A  920   2.399   5.158   6.414
   41POPC   C4A  921   2.278   4.963   6.004
   41POPC   C1B  922   1.736   5.209   7.112
   41POPC   C2B  923   1.686   5.123   6.675
   41POPC   C3B  924   1.911   4.896   6.345
   41POPC   C4B  925   1.786   4.652   5.956
   42POPC   NC3  926   7.724   8.442   8.233
   42POPC   PO4  927   8.399   8.375   8.326
   42POPC   GL1  928   8.075   8.397   7.873
   42POPC   GL2  929   7.745   8.579   7.753
   42POPC   C1A  930   8.032   8.387   7.374
   42POPC   D2A  931   7.948   8.555   6.948
   42POPC   C3A  932   7.946   8.316   6.538
   42POPC   C4A  933   8.163   8.383   6.143
   42POPC   C1B  934   7.643   8.766   7.342
   42POPC   C2B  935   7.622   8.917   6.907
   42POPC   C3B  936   7.752   8.848   6.464
   42POPC   C4B  937   7.537   8.967   6.060
   43POPC   NC3  938   1.136   5.936   8.055
   43POPC   PO4  939   1.204   6.608   8.135
   43POPC   GL1  940   1.355   6.310   7.802
   43POPC   GL2  941   1.071   6.249   7.645
   43POPC   C1A  942   1.492   6.144   7.402
   43POPC   D2A  943   1.262   6.179   7.035
   43POPC   C3A  944   1.444   6.340   6.674
   43POPC   C4A  945   1.488   6.158   6.274
   43POPC   C1B  946   1.155   6.601   7.397
   43POPC   C2B  947   1.189   6.823   7.023
   43POPC   C3B  948   1.243   6.909   6.594
   43POPC   C4B  949   1.156   6.584   6.311
   44POPC   NC3  950   1.434   3.187   8.397
   44POPC   PO4  951   0.877   3.000   8.046
   44POPC   GL1  952   1.151   3.187   7.696
   44POPC   GL2  953   1.260   3.547   7.753
   44POPC   C1A  954   1.217   3.315   7.265
   44POPC   D2A  955   1.158   3.577   6.922
   44POPC   C3A  956   1.250   3.317   6.618
   44POPC   C4A  957   1.052   3.275   6.255
   44POPC   C1B  958   1.451   3.762   7.379
   44POPC   C2B  959   1.663   3.568   7.027
   44POPC   C3B  960   1.597   3.693   6.618
   44POPC   C4B  961   1.410   3.618   6.231
   45POPC   NC3  962   1.199   9.481   7.880
   45POPC   PO4  963   0.775   8.976   8.145
   45POPC   GL1  964   0.820   9.141   7.675
   45POPC   GL2  965   0.981   9.477   7.442
   45POPC   C1A  966   0.772   9.092   7.229
   45POPC   D2A  967   1.084   9.331   6.961
   45POPC   C3A  968   0.906   9.445   6.594
   45POPC   C4A  969   0.884   9.181   6.252
   45POPC   C1B  970   1.371   9.637   7.279
   45POPC   C2B  971   1.495   9.734   6.893
   45POPC   C3B  972   1.415   9.503   6.557
   45POPC   C4B  973   1.245   9.500   6.182
   46POPC   NC3  974   8.804   2.449   8.383
   46POPC   PO4  975   8.395   2.987   8.213
   46POPC   GL1  976   8.432   2.843   7.759
   46POPC   GL2  977   8.751   2.632   7.737
   46POPC   C1A  978   8.323   2.870   7.291
   46POPC   D2A  979   8.547   2.952   6.897
   46POPC   C3A  980   8.373   3.004   6.483
   46POPC   C4A  981   8.577   2.982   6.106
   46POPC   C1B  982   8.783   2.663   7.276
   46POPC   C2B  983   8.640   2.442   6.901
   46POPC   C3B  984   8.697   2.598   6.486
   46POPC   C4B  985   9.035   2.848   6.317
   47POPC   NC3  986   0.490   8.606   8.048
   47POPC   PO4  987   0.095   9.140   8.109
   47POPC   GL1  988   0.124   8.805   7.746
   47POPC   GL2  989   0.479   8.746   7.543
   47POPC   C1A  990   0.050   8.507   7.405
   47POPC   D2A  991   0.130   8.383   6.988
   47POPC   C3A  992   0.295   8.643   6.656
   47POPC   C4A  993   0.145   8.537   6.231
   47POPC   C1B  994   0.611   8.625   7.090
   47POPC   C2B  995   0.800   8.402   6.724
   47POPC   C3B  996   0.850   8.692   6.380
   47POPC   C4B  997   0.487   8.886   6.189
   48POPC   NC3  998   2.764   0.533   8.280
   48POPC   PO4  999   2.598  10.375   8.181
   48POPC   GL1 1000   2.600   0.243   7.819
   48POPC   GL2 1001   2.657   0.620   7.708
   48POPC   C1A 1002   2.499   0.245   7.354
   48POPC   D2A 1003   2.545   0.484   6.963
   48POPC   C3A 1004   2.710   0.316   6.570
   48POPC   C4A 1005   2.488   0.364   6.170
   48POPC   C1B 1006   2.892   0.655   7.302
   48POPC   C2B 1007   3.044   0.577   6.863
   48POPC   C3B 1008   3.031   0.774   6.529
   48POPC   C4B 1009   2.896   0.660   6.189
   49POPC   NC3 1010   9.876   0.355   8.351
   49POPC   PO4 1011   9.683   0.838   7.872
   49POPC   GL1 1012   9.582   0.491   7.616
   49POPC   GL2 1013   9.233   0.398   7.621
   49POPC   C1A 1014   9.500   0.322   7.199
   49POPC   D2A 1015   9.148   0.176   6.942
   49POPC   C3A 1016   9.373   0.232   6.552
   49POPC   C4A 1017   9.671   0.206   6.185
   49POPC   C1B 1018   9.289   0.766   7.306
   49POPC   C2B 1019   9.216   0.694   6.899
   49POPC   C3B 1020   9.302   0.797   6.490
   49POPC   C4B 1021   9.312   0.556   6.164
   50POPC   NC3 1022   3.951   1.113   7.858
   50POPC   PO4 1023   4.561   1.186   8.195
   50POPC   GL1 1024   4.539   1.057   7.779
   50POPC   GL2 1025   4.336   0.780   7.775
   50POPC   C1A 1026   4.446   1.095   7.329
   50POPC   D2A 1027   4.361   1.329   6.953
   50POPC   C3A 1028   4.384   1.233   6.541
   50POPC   C4A 1029   4.368   1.505   6.178
   50POPC   C1B 1030   4.191   0.647   7.355
   50POPC   C2B 1031   4.170   0.829   6.968
   50POPC   C3B 1032   4.226   0.721   6.572
   50POPC   C4B 1033   4.092   0.950   6.229
   51POPC   NC3 1034   3.188   2.735   8.018
   51POPC   PO4 1035   3.757   2.779   8.098
   51POPC   GL1 1036   3.640   2.752   7.651
   51POPC   GL2 1037   3.421   2.453   7.641
   51POPC   C1A 1038   3.641   2.941   7.195
   51POPC   D2A 1039   3.449   2.976   6.767
   51POPC   C3A 1040   3.639   3.029   6.344
   51POPC   C4A 1041   3.514   3.154   5.896
   51POPC   C1B 1042   3.292   2.529   7.205
   51POPC   C2B 1043   3.152   2.541   6.774
   51POPC   C3B 1044   3.325   2.631   6.382
   51POPC   C4B 1045   3.220   2.342   6.040
   52POPC   NC3 1046   2.514   1.163   7.989
   52POPC   PO4 1047   2.883   1.622   8.360
   52POPC   GL1 1048   2.770   1.579   7.833
   52POPC   GL2 1049   2.901   1.226   7.661
   52POPC   C1A 1050   2.667   1.571   7.325
   52POPC   D2A 1051   2.877   1.533   6.871
   52POPC   C3A 1052   2.733   1.219   6.514
   52POPC   C4A 1053   2.569   1.358   6.093
   52POPC   C1B 1054   2.608   1.058   7.335
   52POPC   C2B 1055   2.417   0.997   6.909
   52POPC   C3B 1056   2.478   0.775   6.523
   52POPC   C4B 1057   2.433   0.874   6.097
   53POPC   NC3 1058   3.449   7.925   8.087
   53POPC   PO4 1059   3.914   8.434   8.029
   53POPC   GL1 1060   3.670   8.324   7.631
   53POPC   GL2 1061   3.348   8.144   7.654
   53POPC   C1A 1062   3.532   8.230   7.184
   53POPC   D2A 1063   3.417   8.304   6.770
   53POPC   C3A 1064   3.482   8.025   6.412
   53POPC   C4A 1065   3.294   8.078   6.007
   53POPC   C1B 1066   3.260   7.827   7.341
   53POPC   C2B 1067   3.339   7.800   6.886
   53POPC   C3B 1068   3.178   7.610   6.493
   53POPC   C4B 1069   3.176   7.590   6.047
   54POPC   NC3 1070   3.623   8.796   7.934
   54POPC   PO4 1071   3.052   8.978   7.987
   54POPC   GL1 1072   3.057   8.915   7.575
   54POPC   GL2 1073   3.255   8.639   7.584
   54POPC   C1A 1074   2.972   8.684   7.171
   54POPC   D2A 1075   3.258   8.775   6.875
   54POPC   C3A 1076   3.215   8.679   6.474
   54POPC   C4A 1077   3.210   8.958   6.138
   54POPC   C1B 1078   3.598   8.729   7.257
   54POPC   C2B 1079   3.793   8.658   6.817
   54POPC   C3B 1080   3.690   8.490   6.383
   54POPC   C4B 1081   3.515   8.563   5.943
   55POPC   NC3 1082   1.377   4.145   8.115
   55POPC   PO4 1083   0.983   4.580   8.064
   55POPC   GL1 1084   0.941   4.344   7.699
   55POPC   GL2 1085   1.077   4.029   7.712
   55POPC   C1A 1086   1.172   4.395   7.302
   55POPC   D2A 1087   1.256   4.572   6.876
   55POPC   C3A 1088   1.001   4.510   6.537
   55POPC   C4A 1089   1.073   4.402   6.134
   55POPC   C1B 1090   0.987   3.922   7.283
   55POPC   C2B 1091   1.332   4.055   6.946
   55POPC   C3B 1092   1.251   4.054   6.499
   55POPC   C4B 1093   0.930   3.752   6.387
   56POPC   NC3 1094   9.141   8.460   8.297
   56POPC   PO4 1095   9.652   8.816   8.034
   56POPC   GL1 1096   9.425   8.701   7.636
   56POPC   GL2 1097   9.258   8.996   7.646
   56POPC   C1A 1098   9.516   8.723   7.179
   56POPC   D2A 1099   9.321   8.544   6.767
   56POPC   C3A 1100   9.490   8.667   6.399
   56POPC   C4A 1101   9.458   8.542   5.992
   56POPC   C1B 1102   9.141   9.104   7.250
   56POPC   C2B 1103   9.255   9.031   6.841
   56POPC   C3B 1104   9.077   8.951   6.454
   56POPC   C4B 1105   9.281   9.034   6.050
   57POPC   NC3 1106   1.075   7.841   8.127
   57POPC   PO4 1107   1.418   8.282   7.821
   57POPC   GL1 1108   1.248   7.949   7.636
   57POPC   GL2 1109   0.878   7.936   7.662
   57POPC   C1A 1110   1.409   7.982   7.230
   57POPC   D2A 1111   1.506   7.742   6.917
   57POPC   C3A 1112   1.349   7.890   6.557
   57POPC   C4A 1113   1.536   7.847   6.206
   57POPC   C1B 1114   0.835   7.761   7.275
   57POPC   C2B 1115   0.980   7.888   6.910
   57POPC   C3B 1116   0.811   7.896   6.516
   57POPC   C4B 1117   0.997   7.959   6.164
   58POPC   NC3 1118   2.081   7.314   8.019
   58POPC   PO4 1119   1.452   7.571   8.035
   58POPC   GL1 1120   1.602   7.297   7.685
   58POPC   GL2 1121   1.917   7.293   7.546
   58POPC   C1A 1122   1.557   7.089   7.275
   58POPC   D2A 1123   1.765   7.297   6.916
   58POPC   C3A 1124   1.631   7.221   6.474
   58POPC   C4A 1125   1.695   6.786   6.266
   58POPC   C1B 1126   2.325   7.318   7.370
   58POPC   C2B 1127   2.390   7.427   6.946
   58POPC   C3B 1128   2.129   7.468   6.597
   58POPC   C4B 1129   2.072   7.213   6.210
   59POPC   NC3 1130   6.933   9.464   8.185
   59POPC   PO4 1131   7.587   9.832   8.096
   59POPC   GL1 1132   7.268   9.612   7.816
   59POPC   GL2 1133   7.472   9.345   7.670
   59POPC   C1A 1134   7.139   9.556   7.352
   59POPC   D2A 1135   6.925   9.294   7.038
   59POPC   C3A 1136   7.015   9.359   6.607
   59POPC   C4A 1137   7.016   9.296   6.174
   59POPC   C1B 1138   7.630   9.324   7.291
   59POPC   C2B 1139   7.409   9.357   6.942
   59POPC   C3B 1140   7.567   9.331   6.575
   59POPC   C4B 1141   7.515   9.453   6.215
   60POPC   NC3 1142   0.524   7.559   7.863
   60POPC   PO4 1143   0.662   8.183   8.058
   60POPC   GL1 1144   0.439   8.241   7.683
   60POPC   GL2 1145   0.179   7.993   7.606
   60POPC   C1A 1146   0.523   8.179   7.278
   60POPC   D2A 1147   0.484   8.030   6.889
   60POPC   C3A 1148   0.382   8.178   6.508
   60POPC   C4A 1149   0.613   8.310   6.187
   60POPC   C1B 1150   0.297   7.711   7.258
   60POPC   C2B 1151   0.479   7.542   6.868
   60POPC   C3B 1152   0.286   7.691   6.475
   60POPC   C4B 1153   0.464   7.854   6.076
   61POPC   NC3 1154   2.668   1.981   8.184
   61POPC   PO4 1155   2.063   2.195   8.287
   61POPC   GL1 1156   2.319   2.198   7.800
   61POPC   GL2 1157   2.665   2.103   7.698
   61POPC   C1A 1158   2.399   2.056   7.286
   61POPC   D2A 1159   2.590   1.934   6.842
   61POPC   C3A 1160   2.465   2.165   6.423
   61POPC   C4A 1161   2.320   2.190   5.939
   61POPC   C1B 1162   2.975   1.978   7.392
   61POPC   C2B 1163   3.107   2.067   6.969
   61POPC   C3B 1164   3.001   2.063   6.545
   61POPC   C4B 1165   2.770   1.713   6.386
   62POPC   NC3 1166   4.175   2.596   8.097
   62POPC   PO4 1167   4.577   3.098   7.922
   62POPC   GL1 1168   4.347   2.793   7.596
   62POPC   GL2 1169   4.112   2.484   7.599
   62POPC   C1A 1170   4.193   2.747   7.138
   62POPC   D2A 1171   3.980   2.956   6.779
   62POPC   C3A 1172   4.163   2.991   6.361
   62POPC   C4A 1173   3.989   2.975   5.949
   62POPC   C1B 1174   3.789   2.460   7.261
   62POPC   C2B 1175   3.683   2.537   6.821
   62POPC   C3B 1176   3.892   2.564   6.407
   62POPC   C4B 1177   4.356   2.480   6.301
   63POPC   NC3 1178   2.802   8.601   8.017
   63POPC   PO4 1179   2.310   9.101   8.078
   63POPC   GL1 1180   2.565   8.969   7.735
   63POPC   GL2 1181   2.630   8.625   7.558
   63POPC   C1A 1182   2.641   9.052   7.322
   63POPC   D2A 1183   2.530   8.865   6.972
   63POPC   C3A 1184   2.749   8.860   6.600
   63POPC   C4A 1185   2.600   8.873   6.201
   63POPC   C1B 1186   2.488   8.377   7.205
   63POPC   C2B 1187   2.597   8.383   6.781
   63POPC   C3B 1188   2.670   8.406   6.366
   63POPC   C4B 1189   3.000   8.486   6.070
   64POPC   NC3 1190   5.788   0.516   7.961
   64POPC   PO4 1191   5.281  10.444   8.044
   64POPC   GL1 1192   5.525   0.138   7.732
   64POPC   GL2 1193   5.391   0.463   7.635
   64POPC   C1A 1194   5.674   0.155   7.291
   64POPC   D2A 1195   5.602   0.263   6.853
   64POPC   C3A 1196   5.804   0.135   6.472
   64POPC   C4A 1197   5.672   0.126   6.021
   64POPC   C1B 1198   5.633   0.661   7.264
   64POPC   C2B 1199   5.557   0.755   6.818
   64POPC   C3B 1200   5.442   0.527   6.440
   64POPC   C4B 1201   5.823   0.585   6.214
   65POPC   NC3 1202   8.943   4.357   7.876
   65POPC   PO4 1203   9.434   4.109   8.337
   65POPC   GL1 1204   9.390   3.984   7.826
   65POPC   GL2 1205   9.671   3.857   7.666
   65POPC   C1A 1206   9.442   4.192   7.331
   65POPC   D2A 1207   9.499   4.342   6.876
   65POPC   C3A 1208   9.115   4.273   6.614
   65POPC   C4A 1209   9.195   4.108   6.226
   65POPC   C1B 1210   9.742   3.799   7.211
   65POPC   C2B 1211   9.646   3.818   6.776
   65POPC   C3B 1212   9.636   3.916   6.353
   65POPC   C4B 1213   9.629   4.376   6.290
   66POPC   NC3 1214   1.450  10.183   8.233
   66POPC   PO4 1215   0.907   0.009   8.118
   66POPC   GL1 1216   1.194  10.374   7.768
   66POPC   GL2 1217   1.296  10.013   7.747
   66POPC   C1A 1218   1.350  10.480   7.355
   66POPC   D2A 1219   1.302  10.225   6.942
   66POPC   C3A 1220   1.429  10.408   6.610
   66POPC   C4A 1221   1.345  10.380   6.209
   66POPC   C1B 1222   1.071  10.033   7.360
   66POPC   C2B 1223   0.967   9.842   6.938
   66POPC   C3B 1224   1.074   9.950   6.489
   66POPC   C4B 1225   1.155   9.960   6.025
   67POPC   NC3 1226  10.269   1.220   8.039
   67POPC   PO4 1227   0.511   1.203   8.160
   67POPC   GL1 1228   0.278   1.200   7.788
   67POPC   GL2 1229   0.551   1.331   7.657
   67POPC   C1A 1230   0.234   1.055   7.347
   67POPC   D2A 1231   0.045   1.247   6.980
   67POPC   C3A 1232   0.207   1.106   6.607
   67POPC   C4A 1233   0.321   1.041   6.191
   67POPC   C1B 1234   0.834   1.418   7.332
   67POPC   C2B 1235   0.797   1.170   6.963
   67POPC   C3B 1236   0.719   1.047   6.542
   67POPC   C4B 1237   0.756   1.320   6.183
   68POPC   NC3 1238   8.785   6.538   7.908
   68POPC   PO4 1239   8.739   5.922   7.709
   68POPC   GL1 1240   8.871   6.204   7.449
   68POPC   GL2 1241   8.944   6.590   7.446
   68POPC   C1A 1242   8.807   6.067   7.039
   68POPC   D2A 1243   8.531   5.987   6.704
   68POPC   C3A 1244   8.772   6.010   6.347
   68POPC   C4A 1245   8.913   6.170   5.967
   68POPC   C1B 1246   8.602   6.526   7.176
   68POPC   C2B 1247   8.652   6.611   6.739
   68POPC   C3B 1248   8.579   6.522   6.317
   68POPC   C4B 1249   8.408   6.838   5.997
   69POPC   NC3 1250   7.748   9.404   8.065
   69POPC   PO4 1251   8.158   8.856   8.037
   69POPC   GL1 1252   7.954   9.051   7.673
   69POPC   GL2 1253   8.052   9.389   7.661
   69POPC   C1A 1254   8.062   9.060   7.220
   69POPC   D2A 1255   8.251   9.306   6.875
   69POPC   C3A 1256   8.082   9.282   6.434
   69POPC   C4A 1257   8.270   9.333   6.005
   69POPC   C1B 1258   8.058   9.629   7.301
   69POPC   C2B 1259   7.853   9.629   6.915
   69POPC   C3B 1260   7.801   9.829   6.538
   69POPC   C4B 1261   7.953   9.720   6.145
   70POPC   NC3 1262   1.278   4.946   8.075
   70POPC   PO4 1263   1.732   4.430   8.146
   70POPC   GL1 1264   1.437   4.599   7.718
   70POPC   GL2 1265   1.126   4.807   7.635
   70POPC   C1A 1266   1.422   4.847   7.264
   70POPC   D2A 1267   1.251   5.120   6.969
   70POPC   C3A 1268   1.192   5.013   6.569
   70POPC   C4A 1269   1.414   4.755   6.284
   70POPC   C1B 1270   0.886   4.833   7.297
   70POPC   C2B 1271   0.795   4.822   6.916
   70POPC   C3B 1272   0.692   4.913   6.530
   70POPC   C4B 1273   0.925   4.887   6.153
   71POPC   NC3 1274  10.377   2.070   7.914
   71POPC   PO4 1275   9.834   2.246   8.356
   71POPC   GL1 1276   9.860   2.184   7.851
   71POPC   GL2 1277   9.955   1.907   7.683
   71POPC   C1A 1278   9.989   2.280   7.356
   71POPC   D2A 1279  10.265   2.265   6.975
   71POPC   C3A 1280  10.249   2.033   6.602
   71POPC   C4A 1281  10.456   1.938   6.195
   71POPC   C1B 1282  10.218   1.824   7.306
   71POPC   C2B 1283   0.011   1.792   6.978
   71POPC   C3B 1284  10.482   1.582   6.590
   71POPC   C4B 1285  10.467   1.418   6.199
   72POPC   NC3 1286   7.389   1.348   8.564
   72POPC   PO4 1287   7.169   0.933   8.125
   72POPC   GL1 1288   7.191   0.960   7.678
   72POPC   GL2 1289   7.004   1.278   7.741
   72POPC   C1A 1290   6.955   0.998   7.288
   72POPC   D2A 1291   6.716   1.079   6.917
   72POPC   C3A 1292   6.960   1.073   6.555
   72POPC   C4A 1293   7.011   0.932   6.133
   72POPC   C1B 1294   7.200   1.458   7.399
   72POPC   C2B 1295   7.173   1.361   6.981
   72POPC   C3B 1296   7.221   1.494   6.575
   72POPC   C4B 1297   7.241   1.368   6.149
   73POPC   NC3 1298  10.483   3.894   7.931
   73POPC   PO4 1299   0.654   3.931   8.008
   73POPC   GL1 1300   0.541   4.033   7.622
   73POPC   GL2 1301   0.345   4.329   7.595
   73POPC   C1A 1302   0.368   3.934   7.231
   73POPC   D2A 1303   0.100   4.132   6.949
   73POPC   C3A 1304  10.488   4.008   6.538
   73POPC   C4A 1305   0.106   4.275   6.227
   73POPC   C1B 1306   0.667   4.363   7.256
   73POPC   C2B 1307   0.801   4.169   6.875
   73POPC   C3B 1308   0.595   4.155   6.484
   73POPC   C4B 1309   0.581   4.490   6.209
   74POPC   NC3 1310   1.636   6.436   8.200
   74POPC   PO4 1311   1.822   6.941   8.007
   74POPC   GL1 1312   1.628   6.725   7.660
   74POPC   GL2 1313   1.838   6.404   7.667
   74POPC   C1A 1314   1.636   6.589   7.197
   74POPC   D2A 1315   1.675   6.792   6.802
   74POPC   C3A 1316   2.059   6.912   6.628
   74POPC   C4A 1317   2.326   6.733   6.302
   74POPC   C1B 1318   1.982   6.212   7.251
   74POPC   C2B 1319   2.035   6.420   6.866
   74POPC   C3B 1320   1.955   6.352   6.459
   74POPC   C4B 1321   1.976   5.946   6.254
   75POPC   NC3 1322   9.975   0.270   7.866
   75POPC   PO4 1323  10.080   0.851   8.256
   75POPC   GL1 1324  10.154   0.741   7.768
   75POPC   GL2 1325  10.452   0.802   7.710
   75POPC   C1A 1326   9.977   0.593   7.306
   75POPC   D2A 1327   9.946   0.329   6.914
   75POPC   C3A 1328   9.819   0.556   6.524
   75POPC   C4A 1329   9.965   0.608   6.085
   75POPC   C1B 1330  10.496   0.591   7.312
   75POPC   C2B 1331   0.017   0.504   6.885
   75POPC   C3B 1332  10.345   0.609   6.489
   75POPC   C4B 1333  10.344   0.277   6.174
   76POPC   NC3 1334   6.483   7.967   8.221
   76POPC   PO4 1335   6.888   7.584   8.029
   76POPC   GL1 1336   6.552   7.819   7.740
   76POPC   GL2 1337   6.204   8.036   7.806
   76POPC   C1A 1338   6.485   8.139   7.417
   76POPC   D2A 1339   6.224   8.153   7.065
   76POPC   C3A 1340   6.412   8.063   6.688
   76POPC   C4A 1341   6.494   8.049   6.263
   76POPC   C1B 1342   6.160   7.752   7.405
   76POPC   C2B 1343   6.310   7.640   6.968
   76POPC   C3B 1344   6.256   7.627   6.493
   76POPC   C4B 1345   6.009   7.892   6.202
   77POPC   NC3 1346   1.873   8.968   7.998
   77POPC   PO4 1347   1.600   8.432   8.296
   77POPC   GL1 1348   1.861   8.494   7.823
   77POPC   GL2 1349   2.222   8.604   7.888
   77POPC   C1A 1350   1.686   8.577   7.319
   77POPC   D2A 1351   1.616   8.809   6.891
   77POPC   C3A 1352   1.718   8.663   6.451
   77POPC   C4A 1353   1.786   8.738   5.989
   77POPC   C1B 1354   2.161   8.717   7.431
   77POPC   C2B 1355   2.090   8.611   6.990
   77POPC   C3B 1356   2.231   8.689   6.586
   77POPC   C4B 1357   2.209   8.563   6.203
   78POPC   NC3 1358   2.101  10.105   8.366
   78POPC   PO4 1359   1.668   0.066   8.016
   78POPC   GL1 1360   1.777  10.221   7.681
   78POPC   GL2 1361   2.074  10.016   7.467
   78POPC   C1A 1362   1.644  10.078   7.263
   78POPC   D2A 1363   1.839  10.129   6.827
   78POPC   C3A 1364   1.598   9.970   6.457
   78POPC   C4A 1365   1.659   9.757   6.099
   78POPC   C1B 1366   2.089  10.387   7.240
   78POPC   C2B 1367   2.237   0.060   6.842
   78POPC   C3B 1368   2.165  10.377   6.432
   78POPC   C4B 1369   2.090   9.942   6.365
   79POPC   NC3 1370   0.481   7.151   8.359
   79POPC   PO4 1371   0.051   7.468   7.913
   79POPC   GL1 1372   0.274   7.133   7.700
   79POPC   GL2 1373   0.627   7.041   7.788
   79POPC   C1A 1374   0.361   7.208   7.272
   79POPC   D2A 1375   0.127   7.172   6.921
   79POPC   C3A 1376   0.343   7.186   6.525
   79POPC   C4A 1377   0.677   7.439   6.303
   79POPC   C1B 1378   0.626   6.785   7.371
   79POPC   C2B 1379   0.405   6.710   6.948
   79POPC   C3B 1380   0.272   6.672   6.497
   79POPC   C4B 1381   0.451   6.877   6.136
   80POPC   NC3 1382   1.855   0.836   8.080
   80POPC   PO4 1383   2.135   1.447   7.971
   80POPC   GL1 1384   2.055   1.096   7.673
   80POPC   GL2 1385   1.675   1.008   7.618
   80POPC   C1A 1386   2.153   1.256   7.274
   80POPC   D2A 1387   2.212   1.630   7.037
   80POPC   C3A 1388   2.342   1.511   6.651
   80POPC   C4A 1389   2.171   1.196   6.376
   80POPC   C1B 1390   1.773   0.938   7.181
   80POPC   C2B 1391   1.889   1.220   6.823
   80POPC   C3B 1392   1.673   1.113   6.426
   80POPC   C4B 1393   1.550   0.724   6.233
   81POPC   NC3 1394   2.899  10.116   7.905
   81POPC   PO4 1395   2.221  10.039   7.926
   81POPC   GL1 1396   2.503  10.265   7.608
   81POPC   GL2 1397   2.862  10.405   7.525
   81POPC   C1A 1398   2.557  10.240   7.151
   81POPC   D2A 1399   2.378  10.031   6.807
   81POPC   C3A 1400   2.610  10.041   6.435
   81POPC   C4A 1401   2.659  10.413   6.259
   81POPC   C1B 1402   3.056  10.186   7.159
   81POPC   C2B 1403   2.959  10.370   6.733
   81POPC   C3B 1404   3.115  10.198   6.364
   81POPC   C4B 1405   3.050   9.754   6.315
   82POPC   NC3 1406   7.913  10.131   8.257
   82POPC   PO4 1407   8.264   9.579   8.130
   82POPC   GL1 1408   8.117   9.899   7.795
   82POPC   GL2 1409   7.849  10.154   7.754
   82POPC   C1A 1410   8.187  10.138   7.374
   82POPC   D2A 1411   8.236   9.990   6.938
   82POPC   C3A 1412   8.193  10.273   6.588
   82POPC   C4A 1413   7.895  10.276   6.231
   82POPC   C1B 1414   7.678  10.273   7.335
   82POPC   C2B 1415   7.738  10.223   6.878
   82POPC   C3B 1416   7.483  10.354   6.506
   82POPC   C4B 1417   7.463  10.443   6.010
   83POPC   NC3 1418   1.374   7.071   8.066
   83POPC   PO4 1419   0.815   7.450   8.201
   83POPC   GL1 1420   1.041   7.429   7.765
   83POPC   GL2 1421   1.135   7.079   7.621
   83POPC   C1A 1422   1.278   7.515   7.362
   83POPC   D2A 1423   1.237   7.313   6.951
   83POPC   C3A 1424   1.091   7.449   6.594
   83POPC   C4A 1425   1.205   7.465   6.171
   83POPC   C1B 1426   0.866   7.232   7.308
   83POPC   C2B 1427   0.737   7.098   6.911
   83POPC   C3B 1428   0.748   6.846   6.559
   83POPC   C4B 1429   0.935   7.034   6.215
   84POPC   NC3 1430   6.933   9.980   8.131
   84POPC   PO4 1431   7.129   0.083   7.985
   84POPC   GL1 1432   7.214  10.416   7.604
   84POPC   GL2 1433   7.348  10.119   7.742
   84POPC   C1A 1434   7.192  10.273   7.184
   84POPC   D2A 1435   6.910  10.018   6.952
   84POPC   C3A 1436   6.802  10.250   6.620
   84POPC   C4A 1437   7.045  10.264   6.254
   84POPC   C1B 1438   7.559   9.813   7.437
   84POPC   C2B 1439   7.407   9.849   7.003
   84POPC   C3B 1440   7.272   9.817   6.567
   84POPC   C4B 1441   7.453   9.948   6.173
   85POPC   NC3 1442   4.375   0.586   8.251
   85POPC   PO4 1443   3.800   0.686   7.985
   85POPC   GL1 1444   4.004   0.362   7.722
   85POPC   GL2 1445   4.357   0.272   7.793
   85POPC   C1A 1446   3.864   0.245   7.304
   85POPC   D2A 1447   3.811   0.464   6.940
   85POPC   C3A 1448   3.924   0.283   6.565
   85POPC   C4A 1449   3.963   0.468   6.166
   85POPC   C1B 1450   4.451   0.194   7.367
   85POPC   C2B 1451   4.274   0.243   6.968
   85POPC   C3B 1452   4.452   0.234   6.569
   85POPC   C4B 1453   4.472   0.470   6.189
   86POPC   NC3 1454   1.627   2.357   8.411
   86POPC   PO4 1455   1.500   2.970   8.000
   86POPC   GL1 1456   1.643   2.816   7.598
   86POPC   GL2 1457   1.998   2.768   7.643
   86POPC   C1A 1458   1.629   2.544   7.228
   86POPC   D2A 1459   1.661   2.351   6.798
   86POPC   C3A 1460   1.505   2.516   6.467
   86POPC   C4A 1461   1.770   2.677   6.194
   86POPC   C1B 1462   2.143   2.498   7.357
   86POPC   C2B 1463   2.066   2.594   6.967
   86POPC   C3B 1464   2.112   2.566   6.560
   86POPC   C4B 1465   2.328   2.616   6.192
   87POPC   NC3 1466   8.411   5.099   8.052
   87POPC   PO4 1467   8.966   4.665   8.314
   87POPC   GL1 1468   9.033   4.843   7.846
   87POPC   GL2 1469   8.716   4.853   7.749
   87POPC   C1A 1470   9.072   4.974   7.394
   87POPC   D2A 1471   8.836   5.144   6.997
   87POPC   C3A 1472   8.860   5.005   6.595
   87POPC   C4A 1473   8.659   5.120   6.229
   87POPC   C1B 1474   8.576   4.884   7.342
   87POPC   C2B 1475   8.727   4.623   6.980
   87POPC   C3B 1476   8.640   4.511   6.545
   87POPC   C4B 1477   8.445   4.659   6.158
   88POPC   NC3 1478  10.174   9.856   8.213
   88POPC   PO4 1479   9.804  10.406   8.213
   88POPC   GL1 1480   9.965  10.266   7.767
   88POPC   GL2 1481  10.317  10.136   7.793
   88POPC   C1A 1482   9.822  10.417   7.319
   88POPC   D2A 1483   9.592  10.396   6.918
   88POPC   C3A 1484   9.847  10.371   6.561
   88POPC   C4A 1485  10.046  10.360   6.158
   88POPC   C1B 1486  10.321  10.353   7.385
   88POPC   C2B 1487  10.198  10.294   6.956
   88POPC   C3B 1488   0.018  10.196   6.646
   88POPC   C4B 1489  10.491  10.138   6.217
   89POPC   NC3 1490   0.733   1.910   8.379
   89POPC   PO4 1491   1.374   1.977   8.345
   89POPC   GL1 1492   1.371   2.061   7.910
   89POPC   GL2 1493   1.099   1.812   7.824
   89POPC   C1A 1494   1.468   1.944   7.487
   89POPC   D2A 1495   1.384   2.090   7.104
   89POPC   C3A 1496   1.314   1.956   6.665
   89POPC   C4A 1497   1.418   2.012   6.243
   89POPC   C1B 1498   0.977   1.968   7.409
   89POPC   C2B 1499   0.910   1.959   7.007
   89POPC   C3B 1500   0.786   1.967   6.629
   89POPC   C4B 1501   0.921   1.785   6.292
   90POPC   NC3 1502   8.628   5.058   8.516
   90POPC   PO4 1503   8.225   5.508   8.015
   90POPC   GL1 1504   8.120   5.230   7.612
   90POPC   GL2 1505   8.162   4.878   7.653
   90POPC   C1A 1506   8.237   5.198   7.142
   90POPC   D2A 1507   8.381   4.935   6.773
   90POPC   C3A 1508   8.166   5.046   6.372
   90POPC   C4A 1509   8.061   5.147   5.928
   90POPC   C1B 1510   8.115   4.710   7.193
   90POPC   C2B 1511   7.877   4.855   6.803
   90POPC   C3B 1512   7.666   4.885   6.375
   90POPC   C4B 1513   7.471   4.871   5.947
   91POPC   NC3 1514   5.560   2.162   7.895
   91POPC   PO4 1515   6.068   1.669   7.999
   91POPC   GL1 1516   5.785   1.784   7.648
   91POPC   GL2 1517   5.940   2.086   7.581
   91POPC   C1A 1518   5.592   2.021   7.238
   91POPC   D2A 1519   5.768   2.190   6.835
   91POPC   C3A 1520   5.523   2.193   6.427
   91POPC   C4A 1521   5.535   1.901   6.058
   91POPC   C1B 1522   6.085   1.853   7.233
   91POPC   C2B 1523   6.072   1.779   6.813
   91POPC   C3B 1524   5.918   1.889   6.433
   91POPC   C4B 1525   6.021   1.988   5.982
   92POPC   NC3 1526   1.693   8.019   8.079
   92POPC   PO4 1527   2.268   7.693   8.204
   92POPC   GL1 1528   2.122   7.743   7.716
   92POPC   GL2 1529   1.759   7.793   7.631
   92POPC   C1A 1530   2.063   7.725   7.210
   92POPC   D2A 1531   2.345   7.957   6.902
   92POPC   C3A 1532   2.328   7.999   6.418
   92POPC   C4A 1533   2.035   7.723   6.176
   92POPC   C1B 1534   1.973   8.165   7.433
   92POPC   C2B 1535   1.844   8.167   7.003
   92POPC   C3B 1536   1.863   7.964   6.614
   92POPC   C4B 1537   1.875   8.205   6.230
   93POPC   NC3 1538   9.577   3.650   8.187
   93POPC   PO4 1539   8.868   3.679   8.183
   93POPC   GL1 1540   9.077   3.569   7.795
   93POPC   GL2 1541   9.397   3.398   7.775
   93POPC   C1A 1542   9.232   3.720   7.387
   93POPC   D2A 1543   9.192   3.918   6.978
   93POPC   C3A 1544   9.151   3.712   6.584
   93POPC   C4A 1545   9.294   3.599   6.164
   93POPC   C1B 1546   9.233   3.208   7.374
   93POPC   C2B 1547   9.365   3.414   6.971
   93POPC   C3B 1548   9.563   3.368   6.557
   93POPC   C4B 1549   9.493   3.111   6.194
   94POPC   NC3 1550   0.534   4.402   8.068
   94POPC   PO4 1551   0.298   5.003   8.303
   94POPC   GL1 1552   0.291   4.822   7.804
   94POPC   GL2 1553   0.623   4.780   7.725
   94POPC   C1A 1554   0.339   4.744   7.298
   94POPC   D2A 1555   0.366   4.555   6.846
   94POPC   C3A 1556   0.225   4.758   6.445
   94POPC   C4A 1557   0.174   4.732   5.976
   94POPC   C1B 1558   0.501   5.185   7.479
   94POPC   C2B 1559   0.379   5.187   7.024
   94POPC   C3B 1560   0.322   5.272   6.579
   94POPC   C4B 1561   0.441   5.135   6.135
   95POPC   NC3 1562   1.228   8.624   8.079
   95POPC   PO4 1563   1.547   9.189   7.773
   95POPC   GL1 1564   1.323   8.812   7.615
   95POPC   GL2 1565   0.974   8.600   7.630
   95POPC   C1A 1566   1.202   8.788   7.204
   95POPC   D2A 1567   1.011   8.848   6.836
   95POPC   C3A 1568   1.272   9.006   6.537
   95POPC   C4A 1569   1.306   8.823   6.157
   95POPC   C1B 1570   1.021   8.317   7.240
   95POPC   C2B 1571   1.303   8.346   6.851
   95POPC   C3B 1572   1.267   8.362   6.375
   95POPC   C4B 1573   1.049   8.429   5.954
   96POPC   NC3 1574   6.788   0.762   7.937
   96POPC   PO4 1575   6.120   0.808   8.104
   96POPC   GL1 1576   6.335   0.970   7.760
   96POPC   GL2 1577   6.416   1.314   7.816
   96POPC   C1A 1578   6.427   0.924   7.325
   96POPC   D2A 1579   6.140   0.861   6.983
   96POPC   C3A 1580   6.332   0.922   6.600
   96POPC   C4A 1581   6.146   1.049   6.225
   96POPC   C1B 1582   6.168   1.364   7.415
   96POPC   C2B 1583   6.273   1.353   6.980
   96POPC   C3B 1584   6.329   1.435   6.534
   96POPC   C4B 1585   6.613   1.262   6.239
   97POPC   NC3 1586   3.287   1.758   8.207
   97POPC   PO4 1587   3.838   1.355   8.232
   97POPC   GL1 1588   3.823   1.606   7.802
   97POPC   GL2 1589   3.626   1.929   7.756
   97POPC   C1A 1590   3.699   1.591   7.347
   97POPC   D2A 1591   3.397   1.565   6.990
   97POPC   C3A 1592   3.482   1.667   6.533
   97POPC   C4A 1593   3.267   1.852   6.165
   97POPC   C1B 1594   3.487   2.048   7.328
   97POPC   C2B 1595   3.624   2.037   6.904
   97POPC   C3B 1596   3.523   2.176   6.492
   97POPC   C4B 1597   3.726   2.177   6.108
   98POPC   NC3 1598   6.333   0.498   8.382
   98POPC   PO4 1599   5.767   0.160   8.258
   98POPC   GL1 1600   6.047   0.069   7.843
   98POPC   GL2 1601   6.251   0.398   7.744
   98POPC   C1A 1602   6.170   0.035   7.369
   98POPC   D2A 1603   6.088   0.361   7.008
   98POPC   C3A 1604   6.254   0.406   6.555
   98POPC   C4A 1605   6.171   0.205   6.131
   98POPC   C1B 1606   6.520   0.403   7.354
   98POPC   C2B 1607   6.611   0.561   6.944
   98POPC   C3B 1608   6.762   0.608   6.534
   98POPC   C4B 1609   6.563   0.722   6.178
   99POPC   NC3 1610   1.283   2.581   7.907
   99POPC   PO4 1611   0.795   2.178   8.004
   99POPC   GL1 1612   0.770   2.419   7.610
   99POPC   GL2 1613   0.845   2.769   7.607
   99POPC   C1A 1614   0.786   2.453   7.149
   99POPC   D2A 1615   1.106   2.400   6.812
   99POPC   C3A 1616   1.024   2.334   6.368
   99POPC   C4A 1617   0.854   2.574   6.023
   99POPC   C1B 1618   1.180   2.795   7.304
   99POPC   C2B 1619   1.324   2.861   6.897
   99POPC   C3B 1620   1.089   2.832   6.517
   99POPC   C4B 1621   1.268   2.856   6.136
  100POPC   NC3 1622   1.943   4.008   8.139
  100POPC   PO4 1623   2.296   4.361   7.905
  100POPC   GL1 1624   1.908   4.399   7.670
  100POPC   GL2 1625   1.653   4.126   7.701
  100POPC   C1A 1626   1.687   4.419   7.265
  100POPC   D2A 1627   1.756   4.667   6.895
  100POPC   C3A 1628   1.763   4.426   6.515
  100POPC   C4A 1629   2.102   4.351   6.200
  100POPC   C1B 1630   1.917   3.981   7.366
  100POPC   C2B 1631   1.892   4.024   6.926
  100POPC   C3B 1632   2.040   3.949   6.518
  100POPC   C4B 1633   1.718   4.011   6.222
  101POPC   NC3 1634   7.974   2.811   8.122
  101POPC   PO4 1635   8.138   3.274   7.761
  101POPC   GL1 1636   7.910   2.900   7.617
  101POPC   GL2 1637   7.997   2.529   7.702
  101POPC   C1A 1638   7.802   2.995   7.207
  101POPC   D2A 1639   8.036   3.113   6.851
  101POPC   C3A 1640   7.866   3.044   6.434
  101POPC   C4A 1641   8.093   3.164   6.060
  101POPC   C1B 1642   7.950   2.520   7.266
  101POPC   C2B 1643   8.134   2.601   6.885
  101POPC   C3B 1644   8.003   2.568   6.501
  101POPC   C4B 1645   8.065   2.662   6.125
  102POPC   NC3 1646   1.231   0.326   8.000
  102POPC   PO4 1647   0.567   0.521   8.100
  102POPC   GL1 1648   0.765   0.271   7.714
  102POPC   GL2 1649   1.031   0.429   7.528
  102POPC   C1A 1650   0.835   0.011   7.322
  102POPC   D2A 1651   1.073   0.168   6.949
  102POPC   C3A 1652   0.923  10.471   6.559
  102POPC   C4A 1653   0.779   0.152   6.188
  102POPC   C1B 1654   1.403   0.571   7.303
  102POPC   C2B 1655   1.499   0.577   6.856
  102POPC   C3B 1656   1.299   0.373   6.484
  102POPC   C4B 1657   1.230   0.334   6.035
  103POPC   NC3 1658  10.403   4.873   8.117
  103POPC   PO4 1659   9.795   4.713   8.334
  103POPC   GL1 1660   9.940   4.728   7.884
  103POPC   GL2 1661  10.058   5.022   7.750
  103POPC   C1A 1662   9.947   4.664   7.417
  103POPC   D2A 1663   9.952   4.937   7.030
  103POPC   C3A 1664   9.843   4.732   6.628
  103POPC   C4A 1665   9.898   4.977   6.239
  103POPC   C1B 1666  10.381   4.951   7.422
  103POPC   C2B 1667  10.460   4.882   6.981
  103POPC   C3B 1668  10.290   4.977   6.595
  103POPC   C4B 1669  10.438   5.109   6.217
  104POPC   NC3 1670  10.177   7.150   7.963
  104POPC   PO4 1671   0.273   6.787   8.140
  104POPC   GL1 1672  10.494   6.695   7.750
  104POPC   GL2 1673  10.140   6.810   7.580
  104POPC   C1A 1674   0.077   6.802   7.329
  104POPC   D2A 1675  10.235   6.827   7.047
  104POPC   C3A 1676  10.329   6.884   6.644
  104POPC   C4A 1677  10.100   6.796   6.360
  104POPC   C1B 1678  10.258   7.241   7.335
  104POPC   C2B 1679  10.178   7.437   6.940
  104POPC   C3B 1680  10.346   7.421   6.538
  104POPC   C4B 1681  10.106   7.378   6.188
  105POPC   NC3 1682   8.433   5.921   8.049
  105POPC   PO4 1683   8.336   6.598   8.003
  105POPC   GL1 1684   8.393   6.296   7.645
  105POPC   GL2 1685   8.100   6.094   7.667
  105POPC   C1A 1686   8.327   6.095   7.208
  105POPC   D2A 1687   8.216   6.379   6.877
  105POPC   C3A 1688   8.119   6.380   6.469
  105POPC   C4A 1689   8.298   6.110   6.194
  105POPC   C1B 1690   7.956   6.428   7.333
  105POPC   C2B 1691   7.726   6.497   6.901
  105POPC   C3B 1692   7.625   6.258   6.516
  105POPC   C4B 1693   7.802   6.103   6.135
  106POPC   NC3 1694   1.786   1.831   8.146
  106POPC   PO4 1695   1.741   2.501   7.984
  106POPC   GL1 1696   1.832   2.232   7.645
  106POPC   GL2 1697   1.952   1.858   7.655
  106POPC   C1A 1698   1.891   2.086   7.189
  106POPC   D2A 1699   2.104   2.075   6.786
  106POPC   C3A 1700   1.901   2.139   6.380
  106POPC   C4A 1701   1.823   2.230   5.957
  106POPC   C1B 1702   1.769   1.589   7.301
  106POPC   C2B 1703   1.707   1.705   6.867
  106POPC   C3B 1704   1.871   1.626   6.467
  106POPC   C4B 1705   2.231   1.755   6.217
  107POPC   NC3 1706   9.465   6.524   8.281
  107POPC   PO4 1707   8.934   6.194   8.177
  107POPC   GL1 1708   9.247   6.285   7.812
  107POPC   GL2 1709   9.327   6.647   7.781
  107POPC   C1A 1710   9.341   6.309   7.345
  107POPC   D2A 1711   9.089   6.463   6.965
  107POPC   C3A 1712   9.087   6.430   6.493
  107POPC   C4A 1713   9.368   6.452   6.133
  107POPC   C1B 1714   9.584   6.737   7.399
  107POPC   C2B 1715   9.573   6.593   6.967
  107POPC   C3B 1716   9.488   6.764   6.567
  107POPC   C4B 1717   9.648   6.877   6.181
  108POPC   NC3 1718   2.199   2.614   8.103
  108POPC   PO4 1719   2.865   2.400   8.075
  108POPC   GL1 1720   2.875   2.569   7.648
  108POPC   GL2 1721   2.528   2.661   7.636
  108POPC   C1A 1722   2.790   2.430   7.238
  108POPC   D2A 1723   2.522   2.414   6.921
  108POPC   C3A 1724   2.603   2.690   6.649
  108POPC   C4A 1725   2.840   2.515   6.348
  108POPC   C1B 1726   2.464   2.845   7.191
  108POPC   C2B 1727   2.287   3.068   6.861
  108POPC   C3B 1728   2.290   3.055   6.415
  108POPC   C4B 1729   2.693   2.989   6.214
  109POPC   NC3 1730   6.603  10.396   7.975
  109POPC   PO4 1731   6.645   9.704   7.912
  109POPC   GL1 1732   6.607   9.974   7.603
  109POPC   GL2 1733   6.914  10.000   7.514
  109POPC   C1A 1734   6.304  10.023   7.257
  109POPC   D2A 1735   6.368  10.036   6.828
  109POPC   C3A 1736   6.243   9.805   6.439
  109POPC   C4A 1737   6.268   9.763   5.944
  109POPC   C1B 1738   6.693  10.375   7.298
  109POPC   C2B 1739   6.479   0.043   6.919
  109POPC   C3B 1740   6.306  10.399   6.512
  109POPC   C4B 1741   6.541  10.145   6.190
  110POPC   NC3 1742   2.058   5.561   7.963
  110POPC   PO4 1743   1.641   5.972   8.232
  110POPC   GL1 1744   1.586   5.776   7.791
  110POPC   GL2 1745   1.897   5.877   7.613
  110POPC   C1A 1746   1.571   5.643   7.327
  110POPC   D2A 1747   1.746   5.854   6.929
  110POPC   C3A 1748   1.584   5.707   6.525
  110POPC   C4A 1749   1.636   5.583   6.085
  110POPC   C1B 1750   2.066   5.608   7.264
  110POPC   C2B 1751   2.146   5.461   6.859
  110POPC   C3B 1752   1.995   5.442   6.452
  110POPC   C4B 1753   2.135   5.466   6.064
  111POPC   NC3 1754   0.794   3.450   7.979
  111POPC   PO4 1755   0.171   3.108   8.035
  111POPC   GL1 1756   0.446   3.171   7.708
  111POPC   GL2 1757   0.386   3.544   7.684
  111POPC   C1A 1758   0.711   3.286   7.355
  111POPC   D2A 1759   0.646   3.568   6.995
  111POPC   C3A 1760   0.717   3.350   6.622
  111POPC   C4A 1761   0.554   3.360   6.180
  111POPC   C1B 1762   0.217   3.439   7.286
  111POPC   C2B 1763   0.063   3.615   6.907
  111POPC   C3B 1764   0.269   3.592   6.528
  111POPC   C4B 1765   0.340   3.836   6.156
  112POPC   NC3 1766   6.269   2.866   7.928
  112POPC   PO4 1767   6.827   3.101   7.973
  112POPC   GL1 1768   6.663   2.941   7.596
  112POPC   GL2 1769   6.656   2.607   7.683
  112POPC   C1A 1770   6.367   3.061   7.256
  112POPC   D2A 1771   6.369   3.160   6.803
  112POPC   C3A 1772   6.713   3.042   6.506
  112POPC   C4A 1773   6.677   3.056   6.045
  112POPC   C1B 1774   6.486   2.563   7.266
  112POPC   C2B 1775   6.581   2.686   6.849
  112POPC   C3B 1776   6.290   2.720   6.510
  112POPC   C4B 1777   6.054   2.369   6.327
  113POPC   NC3 1778  10.091   8.971   8.068
  113POPC   PO4 1779  10.142   8.311   7.935
  113POPC   GL1 1780  10.011   8.488   7.560
  113POPC   GL2 1781   9.931   8.840   7.592
  113POPC   C1A 1782  10.113   8.337   7.152
  113POPC   D2A 1783   9.827   8.467   6.852
  113POPC   C3A 1784   9.901   8.391   6.477
  113POPC   C4A 1785   9.983   8.803   6.362
  113POPC   C1B 1786  10.177   8.845   7.203
  113POPC   C2B 1787  10.288   8.732   6.778
  113POPC   C3B 1788  10.472   8.973   6.428
  113POPC   C4B 1789   0.002   9.283   6.137
  114POPC   NC3 1790  10.181   3.042   8.043
  114POPC   PO4 1791  10.030   3.791   8.025
  114POPC   GL1 1792  10.003   3.470   7.747
  114POPC   GL2 1793  10.375   3.405   7.697
  114POPC   C1A 1794   9.728   3.328   7.385
  114POPC   D2A 1795   9.710   3.045   7.020
  114POPC   C3A 1796   9.925   3.003   6.605
  114POPC   C4A 1797   9.973   3.258   6.217
  114POPC   C1B 1798  10.202   3.460   7.267
  114POPC   C2B 1799   9.994   3.447   6.874
  114POPC   C3B 1800  10.062   3.673   6.488
  114POPC   C4B 1801  10.364   3.648   6.173
  115POPC   NC3 1802   7.306   0.485   8.151
  115POPC   PO4 1803   6.652   0.349   8.082
  115POPC   GL1 1804   6.935   0.388   7.655
  115POPC   GL2 1805   7.323   0.448   7.646
  115POPC   C1A 1806   7.028   0.271   7.252
  115POPC   D2A 1807   7.156   0.420   6.872
  115POPC   C3A 1808   7.054   0.189   6.534
  115POPC   C4A 1809   6.667   0.148   6.296
  115POPC   C1B 1810   7.373   0.687   7.274
  115POPC   C2B 1811   7.341   0.891   6.863
  115POPC   C3B 1812   7.298   0.689   6.459
  115POPC   C4B 1813   7.495   0.343   6.313
  116POPC   NC3 1814   9.243  10.223   8.234
  116POPC   PO4 1815   9.469   0.374   8.112
  116POPC   GL1 1816   9.494   0.001   7.798
  116POPC   GL2 1817   9.469  10.125   7.805
  116POPC   C1A 1818   9.315  10.381   7.391
  116POPC   D2A 1819   9.210  10.066   7.085
  116POPC   C3A 1820   9.170  10.233   6.653
  116POPC   C4A 1821   9.410  10.290   6.299
  116POPC   C1B 1822   9.661   9.953   7.449
  116POPC   C2B 1823   9.762   9.915   6.999
  116POPC   C3B 1824   9.581   9.892   6.573
  116POPC   C4B 1825   9.761   9.939   6.147
  117POPC   NC3 1826   7.526   1.209   7.964
  117POPC   PO4 1827   8.251   1.379   7.990
  117POPC   GL1 1828   8.116   1.271   7.571
  117POPC   GL2 1829   7.822   1.027   7.562
  117POPC   C1A 1830   8.303   0.978   7.274
  117POPC   D2A 1831   8.377   0.927   6.830
  117POPC   C3A 1832   8.069   1.138   6.590
  117POPC   C4A 1833   8.018   1.545   6.463
  117POPC   C1B 1834   7.571   1.158   7.253
  117POPC   C2B 1835   7.653   1.310   6.841
  117POPC   C3B 1836   7.571   1.137   6.455
  117POPC   C4B 1837   7.674   1.086   6.043
  118POPC   NC3 1838   9.404   9.232   8.076
  118POPC   PO4 1839   9.075   9.815   8.058
  118POPC   GL1 1840   9.329   9.618   7.707
  118POPC   GL2 1841   9.674   9.437   7.672
  118POPC   C1A 1842   9.385   9.573   7.260
  118POPC   D2A 1843   9.507   9.463   6.856
  118POPC   C3A 1844   9.155   9.463   6.549
  118POPC   C4A 1845   9.109   9.836   6.308
  118POPC   C1B 1846   9.737   9.186   7.274
  118POPC   C2B 1847   9.799   9.008   6.837
  118POPC   C3B 1848   9.597   9.154   6.454
  118POPC   C4B 1849   9.525   9.498   6.178
  119POPC   NC3 1850   0.416   5.449   8.138
  119POPC   PO4 1851   0.705   6.017   7.885
  119POPC   GL1 1852   0.609   5.677   7.674
  119POPC   GL2 1853   0.261   5.672   7.698
  119POPC   C1A 1854   0.614   5.698   7.250
  119POPC   D2A 1855   0.814   5.893   6.927
  119POPC   C3A 1856   0.599   5.772   6.557
  119POPC   C4A 1857   0.621   5.845   6.138
  119POPC   C1B 1858   0.133   5.540   7.301
  119POPC   C2B 1859   0.244   5.692   6.908
  119POPC   C3B 1860   0.048   5.739   6.549
  119POPC   C4B 1861   0.157   5.568   6.198
  120POPC   NC3 1862   4.256   1.542   8.331
  120POPC   PO4 1863   4.407   2.173   8.152
  120POPC   GL1 1864   4.277   1.927   7.764
  120POPC   GL2 1865   4.374   1.559   7.816
  120POPC   C1A 1866   4.012   2.024   7.374
  120POPC   D2A 1867   4.109   2.246   6.934
  120POPC   C3A 1868   4.077   2.089   6.501
  120POPC   C4A 1869   4.223   2.031   6.049
  120POPC   C1B 1870   4.209   1.554   7.386
  120POPC   C2B 1871   4.023   1.712   6.975
  120POPC   C3B 1872   4.012   1.598   6.558
  120POPC   C4B 1873   3.869   1.687   6.156
  121POPC   NC3 1874   2.169   9.586   8.099
  121POPC   PO4 1875   1.519   9.718   8.118
  121POPC   GL1 1876   1.718   9.693   7.680
  121POPC   GL2 1877   1.981   9.449   7.672
  121POPC   C1A 1878   1.887   9.620   7.211
  121POPC   D2A 1879   2.080   9.631   6.796
  121POPC   C3A 1880   1.909   9.464   6.434
  121POPC   C4A 1881   1.644   9.205   6.170
  121POPC   C1B 1882   2.178   9.228   7.380
  121POPC   C2B 1883   2.093   9.130   6.955
  121POPC   C3B 1884   2.328   9.182   6.578
  121POPC   C4B 1885   2.148   9.099   6.174
  122POPC   NC3 1886   8.726   1.397   8.120
  122POPC   PO4 1887   8.484   2.036   8.277
  122POPC   GL1 1888   8.593   1.879   7.841
  122POPC   GL2 1889   8.861   2.118   7.755
  122POPC   C1A 1890   8.385   1.735   7.425
  122POPC   D2A 1891   8.350   1.466   7.038
  122POPC   C3A 1892   8.405   1.764   6.706
  122POPC   C4A 1893   8.382   1.883   6.270
  122POPC   C1B 1894   8.705   2.152   7.356
  122POPC   C2B 1895   8.767   1.947   6.983
  122POPC   C3B 1896   8.803   2.084   6.526
  122POPC   C4B 1897   8.664   2.268   6.095
  123POPC   NC3 1898   8.631   9.858   7.975
  123POPC   PO4 1899   8.809  10.397   8.306
  123POPC   GL1 1900   8.959  10.380   7.824
  123POPC   GL2 1901   8.987  10.050   7.620
  123POPC   C1A 1902   8.807  10.473   7.376
  123POPC   D2A 1903   8.485   0.020   7.047
  123POPC   C3A 1904   8.653   0.056   6.637
  123POPC   C4A 1905   8.946   0.040   6.271
  123POPC   C1B 1906   8.688   9.983   7.277
  123POPC   C2B 1907   8.730  10.104   6.858
  123POPC   C3B 1908   8.671  10.109   6.404
  123POPC   C4B 1909   8.329  10.077   6.107
  124POPC   NC3 1910   1.892   3.187   7.922
  124POPC   PO4 1911   1.565   3.725   8.151
  124POPC   GL1 1912   1.794   3.626   7.720
  124POPC   GL2 1913   1.653   3.317   7.512
  124POPC   C1A 1914   2.068   3.505   7.329
  124POPC   D2A 1915   2.242   3.604   6.941
  124POPC   C3A 1916   2.026   3.434   6.610
  124POPC   C4A 1917   1.937   3.552   6.199
  124POPC   C1B 1918   1.862   3.042   7.183
  124POPC   C2B 1919   1.794   2.957   6.725
  124POPC   C3B 1920   1.658   3.148   6.346
  124POPC   C4B 1921   1.910   3.110   5.962
  125POPC   NC3 1922   4.847   2.041   8.010
  125POPC   PO4 1923   5.249   2.404   7.664
  125POPC   GL1 1924   5.154   1.995   7.578
  125POPC   GL2 1925   4.780   1.999   7.502
  125POPC   C1A 1926   5.209   1.690   7.310
  125POPC   D2A 1927   4.964   1.953   7.009
  125POPC   C3A 1928   5.095   1.946   6.598
  125POPC   C4A 1929   5.065   1.843   6.181
  125POPC   C1B 1930   4.472   1.954   7.163
  125POPC   C2B 1931   4.472   1.794   6.744
  125POPC   C3B 1932   4.601   1.965   6.368
  125POPC   C4B 1933   4.856   2.322   6.269
  126POPC   NC3 1934   2.797   9.323   8.137
  126POPC   PO4 1935   2.484   9.821   8.359
  126POPC   GL1 1936   2.600   9.711   7.854
  126POPC   GL2 1937   2.777   9.434   7.664
  126POPC   C1A 1938   2.472   9.710   7.384
  126POPC   D2A 1939   2.506   9.440   7.024
  126POPC   C3A 1940   2.664   9.572   6.640
  126POPC   C4A 1941   2.414   9.577   6.262
  126POPC   C1B 1942   2.985   9.419   7.295
  126POPC   C2B 1943   2.945   9.193   6.933
  126POPC   C3B 1944   3.075   9.254   6.541
  126POPC   C4B 1945   2.837   9.310   6.198
  127POPC   NC3 1946   7.389   2.099   8.174
  127POPC   PO4 1947   6.772   2.276   8.089
  127POPC   GL1 1948   7.105   2.211   7.752
  127POPC   GL2 1949   7.193   1.846   7.758
  127POPC   C1A 1950   7.433   2.123   7.387
  127POPC   D2A 1951   7.688   2.182   6.998
  127POPC   C3A 1952   7.549   2.281   6.573
  127POPC   C4A 1953   7.418   2.191   6.128
  127POPC   C1B 1954   6.978   1.901   7.338
  127POPC   C2B 1955   7.210   1.891   6.941
  127POPC   C3B 1956   7.121   1.975   6.495
  127POPC   C4B 1957   6.872   1.708   6.246
  128POPC   NC3 1958   3.536   0.265   7.908
  128POPC   PO4 1959   3.096   0.724   8.006
  128POPC   GL1 1960   3.094   0.350   7.641
  128POPC   GL2 1961   3.371   0.152   7.462
  128POPC   C1A 1962   3.001   0.188   7.154
  128POPC   D2A 1963   3.374   0.172   6.851
  128POPC   C3A 1964   3.240   0.292   6.427
  128POPC   C4A 1965   3.034   0.184   6.031
  128POPC   C1B 1966   3.390   0.537   7.232
  128POPC   C2B 1967   3.477   0.841   6.884
  128POPC   C3B 1968   3.628   0.708   6.513
  128POPC   C4B 1969   3.410   0.737   6.190
  129POPC   NC3 1970   8.086   0.935   7.978
  129POPC   PO4 1971   8.705   0.760   8.067
  129POPC   GL1 1972   8.617   1.059   7.726
  129POPC   GL2 1973   8.888   0.904   7.568
  129POPC   C1A 1974   8.731   1.375   7.382
  129POPC   D2A 1975   8.852   1.444   6.901
  129POPC   C3A 1976   8.550   1.330   6.544
  129POPC   C4A 1977   8.441   0.968   6.303
  129POPC   C1B 1978   8.818   0.957   7.114
  129POPC   C2B 1979   8.859   0.966   6.662
  129POPC   C3B 1980   8.948   1.148   6.249
  129POPC   C4B 1981   9.161   0.957   5.899
  130POPC   NC3 1982   8.294   7.952   8.142
  130POPC   PO4 1983   7.664   7.981   8.295
  130POPC   GL1 1984   7.697   8.055   7.827
  130POPC   GL2 1985   8.021   7.943   7.660
  130POPC   C1A 1986   7.540   8.259   7.399
  130POPC   D2A 1987   7.673   8.129   6.963
  130POPC   C3A 1988   7.453   8.126   6.548
  130POPC   C4A 1989   7.438   8.480   6.256
  130POPC   C1B 1990   8.090   7.900   7.196
  130POPC   C2B 1991   7.841   7.657   6.867
  130POPC   C3B 1992   7.858   7.636   6.428
  130POPC   C4B 1993   8.173   7.879   6.266
  131POPC   NC3 1994   7.301   7.773   8.114
  131POPC   PO4 1995   7.259   8.430   8.143
  131POPC   GL1 1996   7.205   8.167   7.793
  131POPC   GL2 1997   6.839   8.241   7.819
  131POPC   C1A 1998   7.394   7.792   7.454
  131POPC   D2A 1999   7.278   7.793   6.977
  131POPC   C3A 2000   7.350   7.622   6.536
  131POPC   C4A 2001   7.449   7.680   6.078
  131POPC   C1B 2002   6.944   7.985   7.416
  131POPC   C2B 2003   6.772   7.921   7.025
  131POPC   C3B 2004   6.920   7.966   6.609
  131POPC   C4B 2005   6.978   7.818   6.200
  132POPC   NC3 2006   0.228   0.831   8.132
  132POPC   PO4 2007  10.438   0.188   7.949
  132POPC   GL1 2008   0.273   0.368   7.673
  132POPC   GL2 2009   0.447   0.715   7.661
  132POPC   C1A 2010   0.492   0.416   7.249
  132POPC   D2A 2011   0.460   0.772   6.950
  132POPC   C3A 2012   0.365   0.639   6.536
  132POPC   C4A 2013   0.411   0.532   6.155
  132POPC   C1B 2014   0.746   0.867   7.390
  132POPC   C2B 2015   0.968   0.676   7.029
  132POPC   C3B 2016   0.837   0.506   6.638
  132POPC   C4B 2017   0.890   0.663   6.232
  133POPC   NC3 2018   4.192   8.047   8.115
  133POPC   PO4 2019   3.786   7.620   8.095
  133POPC   GL1 2020   3.888   7.866   7.707
  133POPC   GL2 2021   4.252   7.864   7.653
  133POPC   C1A 2022   3.932   7.917   7.227
  133POPC   D2A 2023   3.893   8.128   6.785
  133POPC   C3A 2024   3.980   7.899   6.364
  133POPC   C4A 2025   3.685   7.660   6.067
  133POPC   C1B 2026   4.419   8.105   7.314
  133POPC   C2B 2027   4.361   7.953   6.917
  133POPC   C3B 2028   4.521   7.960   6.529
  133POPC   C4B 2029   4.482   8.036   6.133
  134POPC   NC3 2030   8.554   8.592   7.937
  134POPC   PO4 2031   9.150   8.190   7.928
  134POPC   GL1 2032   9.000   8.351   7.598
  134POPC   GL2 2033   8.858   8.667   7.538
  134POPC   C1A 2034   9.130   8.411   7.214
  134POPC   D2A 2035   8.888   8.696   7.011
  134POPC   C3A 2036   8.760   8.575   6.633
  134POPC   C4A 2037   9.029   8.445   6.321
  134POPC   C1B 2038   8.458   8.650   7.292
  134POPC   C2B 2039   8.384   8.813   6.905
  134POPC   C3B 2040   8.266   8.726   6.514
  134POPC   C4B 2041   8.557   8.719   6.174
  135POPC   NC3 2042   0.420   0.002   8.052
  135POPC   PO4 2043   0.146   9.866   8.205
  135POPC   GL1 2044   0.333  10.054   7.766
  135POPC   GL2 2045   0.699  10.161   7.714
  135POPC   C1A 2046   0.336  10.407   7.420
  135POPC   D2A 2047   0.176   0.037   7.014
  135POPC   C3A 2048   0.400   0.117   6.602
  135POPC   C4A 2049   0.295   0.025   6.163
  135POPC   C1B 2050   0.574   9.994   7.268
  135POPC   C2B 2051   0.575  10.204   6.875
  135POPC   C3B 2052   0.497  10.100   6.444
  135POPC   C4B 2053   0.667  10.153   6.050
  136POPC   NC3 2054   9.694   1.157   8.201
  136POPC   PO4 2055   9.984   1.731   8.208
  136POPC   GL1 2056   9.863   1.450   7.825
  136POPC   GL2 2057  10.149   1.395   7.585
  136POPC   C1A 2058   9.734   1.559   7.369
  136POPC   D2A 2059  10.023   1.412   7.018
  136POPC   C3A 2060   9.895   1.551   6.616
  136POPC   C4A 2061   9.982   1.771   6.261
  136POPC   C1B 2062  10.218   1.045   7.340
  136POPC   C2B 2063  10.192   0.886   6.936
  136POPC   C3B 2064  10.211   1.125   6.588
  136POPC   C4B 2065  10.114   1.068   6.189
  137POPC   NC3 2066   0.610   6.426   8.043
  137POPC   PO4 2067   0.018   5.952   8.158
  137POPC   GL1 2068   0.120   6.158   7.722
  137POPC   GL2 2069   0.385   6.385   7.598
  137POPC   C1A 2070   0.219   6.048   7.274
  137POPC   D2A 2071   0.426   6.185   6.900
  137POPC   C3A 2072   0.291   6.169   6.519
  137POPC   C4A 2073   0.154   6.080   6.134
  137POPC   C1B 2074   0.729   6.287   7.285
  137POPC   C2B 2075   0.863   6.455   6.893
  137POPC   C3B 2076   0.798   6.272   6.509
  137POPC   C4B 2077   0.578   6.376   6.151
  138POPC   NC3 2078   9.235   0.757   7.968
  138POPC   PO4 2079   9.241   1.391   8.181
  138POPC   GL1 2080   9.118   1.330   7.740
  138POPC   GL2 2081   9.438   1.215   7.670
  138POPC   C1A 2082   9.214   1.288   7.249
  138POPC   D2A 2083   9.507   1.345   6.932
  138POPC   C3A 2084   9.283   1.328   6.584
  138POPC   C4A 2085   9.400   1.446   6.176
  138POPC   C1B 2086   9.709   1.061   7.299
  138POPC   C2B 2087   9.692   0.858   6.927
  138POPC   C3B 2088   9.721   1.066   6.540
  138POPC   C4B 2089   9.620   0.988   6.131
  139POPC   NC3 2090   2.165   0.005   7.948
  139POPC   PO4 2091   2.333   0.731   8.087
  139POPC   GL1 2092   2.129   0.549   7.737
  139POPC   GL2 2093   1.737   0.502   7.728
  139POPC   C1A 2094   2.210   0.691   7.335
  139POPC   D2A 2095   2.025   0.519   6.984
  139POPC   C3A 2096   1.965   0.749   6.644
  139POPC   C4A 2097   2.052   0.579   6.275
  139POPC   C1B 2098   1.812   0.275   7.386
  139POPC   C2B 2099   1.697   0.112   6.991
  139POPC   C3B 2100   1.812   0.241   6.580
  139POPC   C4B 2101   1.719   0.227   6.148
  140POPC   NC3 2102   5.309   9.556   8.193
  140POPC   PO4 2103   4.839   9.060   8.057
  140POPC   GL1 2104   4.814   9.251   7.697
  140POPC   GL2 2105   5.050   9.472   7.675
  140POPC   C1A 2106   4.909   9.095   7.300
  140POPC   D2A 2107   4.710   9.186   6.945
  140POPC   C3A 2108   4.872   9.212   6.558
  140POPC   C4A 2109   4.751   8.928   6.279
  140POPC   C1B 2110   4.831   9.599   7.274
  140POPC   C2B 2111   4.739   9.693   6.822
  140POPC   C3B 2112   4.777   9.685   6.409
  140POPC   C4B 2113   4.944   9.513   6.043
  141POPC   NC3 2114   9.558   1.896   8.235
  141POPC   PO4 2115   9.184   2.385   8.092
  141POPC   GL1 2116   9.374   2.094   7.780
  141POPC   GL2 2117   9.424   1.742   7.772
  141POPC   C1A 2118   9.543   2.048   7.343
  141POPC   D2A 2119   9.826   1.930   6.982
  141POPC   C3A 2120   9.728   2.109   6.573
  141POPC   C4A 2121   9.562   2.061   6.150
  141POPC   C1B 2122   9.116   1.778   7.413
  141POPC   C2B 2123   9.260   1.785   6.967
  141POPC   C3B 2124   9.266   1.843   6.513
  141POPC   C4B 2125   9.060   1.881   6.094
  142POPC   NC3 2126  10.245   2.062   8.403
  142POPC   PO4 2127  10.162   2.559   7.973
  142POPC   GL1 2128  10.104   2.704   7.588
  142POPC   GL2 2129  10.080   3.012   7.547
  142POPC   C1A 2130  10.092   2.728   7.129
  142POPC   D2A 2131   9.808   2.546   6.861
  142POPC   C3A 2132  10.094   2.516   6.530
  142POPC   C4A 2133  10.052   2.280   6.182
  142POPC   C1B 2134  10.455   3.008   7.345
  142POPC   C2B 2135  10.433   3.127   6.936
  142POPC   C3B 2136  10.365   3.267   6.545
  142POPC   C4B 2137  10.355   2.912   6.293
  143POPC   NC3 2138   4.510   9.484   8.080
  143POPC   PO4 2139   3.923   9.145   8.026
  143POPC   GL1 2140   4.258   9.173   7.741
  143POPC   GL2 2141   4.139   9.521   7.701
  143POPC   C1A 2142   4.426   9.293   7.355
  143POPC   D2A 2143   4.315   9.521   7.002
  143POPC   C3A 2144   4.385   9.340   6.588
  143POPC   C4A 2145   4.428   9.438   6.155
  143POPC   C1B 2146   3.912   9.392   7.299
  143POPC   C2B 2147   3.882   9.376   6.819
  143POPC   C3B 2148   3.921   9.383   6.401
  143POPC   C4B 2149   3.999   9.693   6.190
  144POPC   NC3 2150   4.921   8.573   8.098
  144POPC   PO4 2151   5.497   8.697   7.978
  144POPC   GL1 2152   5.130   8.745   7.649
  144POPC   GL2 2153   4.745   8.745   7.661
  144POPC   C1A 2154   5.235   8.726   7.220
  144POPC   D2A 2155   5.364   8.980   6.908
  144POPC   C3A 2156   5.194   8.825   6.557
  144POPC   C4A 2157   5.148   8.535   6.252
  144POPC   C1B 2158   4.786   8.502   7.287
  144POPC   C2B 2159   4.771   8.682   6.859
  144POPC   C3B 2160   4.684   8.461   6.471
  144POPC   C4B 2161   4.538   8.529   6.049
  145POPC   NC3 2162   8.707   4.103   8.230
  145POPC   PO4 2163   8.455   4.662   8.170
  145POPC   GL1 2164   8.401   4.444   7.728
  145POPC   GL2 2165   8.672   4.420   7.463
  145POPC   C1A 2166   8.234   4.225   7.318
  145POPC   D2A 2167   8.331   4.287   6.882
  145POPC   C3A 2168   8.245   4.022   6.497
  145POPC   C4A 2169   8.077   4.148   6.081
  145POPC   C1B 2170   8.753   4.114   7.145
  145POPC   C2B 2171   8.692   3.918   6.764
  145POPC   C3B 2172   8.729   3.912   6.341
  145POPC   C4B 2173   8.759   4.272   6.096
  146POPC   NC3 2174   6.984   2.689   8.063
  146POPC   PO4 2175   7.613   2.498   8.111
  146POPC   GL1 2176   7.478   2.563   7.661
  146POPC   GL2 2177   7.152   2.732   7.585
  146POPC   C1A 2178   7.442   2.600   7.191
  146POPC   D2A 2179   7.629   2.732   6.816
  146POPC   C3A 2180   7.370   2.909   6.508
  146POPC   C4A 2181   7.540   2.660   6.235
  146POPC   C1B 2182   6.967   2.413   7.306
  146POPC   C2B 2183   6.891   2.279   6.886
  146POPC   C3B 2184   7.080   2.476   6.556
  146POPC   C4B 2185   6.979   2.684   6.226
  147POPC   NC3 2186   4.846  10.398   7.894
  147POPC   PO4 2187   4.888   9.779   8.187
  147POPC   GL1 2188   5.162   9.933   7.849
  147POPC   GL2 2189   4.909   9.987   7.601
  147POPC   C1A 2190   5.310   9.808   7.386
  147POPC   D2A 2191   5.097   9.962   7.022
  147POPC   C3A 2192   5.220   9.858   6.578
  147POPC   C4A 2193   5.033  10.058   6.202
  147POPC   C1B 2194   4.719  10.239   7.289
  147POPC   C2B 2195   4.692  10.438   6.937
  147POPC   C3B 2196   4.690  10.216   6.570
  147POPC   C4B 2197   4.680  10.431   6.198
  148POPC   NC3 2198   8.634   0.323   8.233
  148POPC   PO4 2199   8.007   0.044   8.077
  148POPC   GL1 2200   8.353   0.323   7.794
  148POPC   GL2 2201   8.726   0.366   7.721
  148POPC   C1A 2202   8.365   0.452   7.329
  148POPC   D2A 2203   8.191   0.467   6.879
  148POPC   C3A 2204   8.398   0.478   6.478
  148POPC   C4A 2205   8.401   0.106   6.190
  148POPC   C1B 2206   8.868   0.471   7.292
  148POPC   C2B 2207   8.713   0.497   6.906
  148POPC   C3B 2208   8.916   0.471   6.542
  148POPC   C4B 2209   8.826   0.662   6.208
  149POPC   NC3 2210   4.226   8.776   8.075
  149POPC   PO4 2211   4.597   8.250   8.085
  149POPC   GL1 2212   4.323   8.451   7.682
  149POPC   GL2 2213   4.015   8.706   7.613
  149POPC   C1A 2214   4.384   8.786   7.299
  149POPC   D2A 2215   4.203   8.993   6.947
  149POPC   C3A 2216   4.286   8.847   6.513
  149POPC   C4A 2217   4.270   8.970   6.073
  149POPC   C1B 2218   4.026   8.429   7.238
  149POPC   C2B 2219   4.294   8.453   6.860
  149POPC   C3B 2220   4.188   8.361   6.414
  149POPC   C4B 2221   4.037   8.536   6.018
  150POPC   NC3 2222   9.780  10.328   4.040
  150POPC   PO4 2223   9.206  10.281   3.627
  150POPC   GL1 2224   9.213   9.964   4.133
  150POPC   GL2 2225   9.477  10.058   4.321
  150POPC   C1A 2226   9.088  10.109   4.647
  150POPC   D2A 2227   9.019  10.344   5.068
  150POPC   C3A 2228   9.240  10.247   5.468
  150POPC   C4A 2229   9.156  10.156   5.898
  150POPC   C1B 2230   9.626  10.172   4.713
  150POPC   C2B 2231   9.856  10.051   5.081
  150POPC   C3B 2232   9.826  10.286   5.462
  150POPC   C4B 2233   9.640  10.321   5.839
  151POPC   NC3 2234   6.384   9.871   3.773
  151POPC   PO4 2235   6.870  10.197   3.736
  151POPC   GL1 2236   6.624  10.150   4.125
  151POPC   GL2 2237   6.485  10.437   4.250
  151POPC   C1A 2238   6.407   9.949   4.481
  151POPC   D2A 2239   6.280  10.018   4.932
  151POPC   C3A 2240   6.568   9.943   5.268
  151POPC   C4A 2241   6.666   9.966   5.709
  151POPC   C1B 2242   6.234  10.429   4.609
  151POPC   C2B 2243   6.221   0.074   5.015
  151POPC   C3B 2244   6.335  10.387   5.371
  151POPC   C4B 2245   6.321  10.335   5.787
  152POPC   NC3 2246   0.810   9.604   4.128
  152POPC   PO4 2247   1.295   9.355   3.684
  152POPC   GL1 2248   1.248   9.321   4.149
  152POPC   GL2 2249   1.430   9.615   4.149
  152POPC   C1A 2250   1.046   9.202   4.598
  152POPC   D2A 2251   1.021   9.005   5.043
  152POPC   C3A 2252   0.796   9.148   5.427
  152POPC   C4A 2253   0.987   9.388   5.769
  152POPC   C1B 2254   1.419   9.689   4.590
  152POPC   C2B 2255   1.369   9.405   4.931
  152POPC   C3B 2256   1.271   9.365   5.342
  152POPC   C4B 2257   1.502   9.498   5.709
  153POPC   NC3 2258   1.251  10.344   3.902
  153POPC   PO4 2259   0.636  10.028   4.023
  153POPC   GL1 2260   0.918  10.255   4.280
  153POPC   GL2 2261   1.127   9.995   4.283
  153POPC   C1A 2262   1.192  10.322   4.655
  153POPC   D2A 2263   0.921  10.383   4.992
  153POPC   C3A 2264   0.869  10.251   5.414
  153POPC   C4A 2265   1.035  10.407   5.804
  153POPC   C1B 2266   0.921   9.890   4.698
  153POPC   C2B 2267   1.099   9.847   5.090
  153POPC   C3B 2268   1.148   9.835   5.523
  153POPC   C4B 2269   1.510  10.033   5.676
  154POPC   NC3 2270   1.185   1.462   4.083
  154POPC   PO4 2271   1.545   0.924   3.788
  154POPC   GL1 2272   1.484   1.065   4.247
  154POPC   GL2 2273   1.140   1.025   4.372
  154POPC   C1A 2274   1.443   1.309   4.699
  154POPC   D2A 2275   1.303   1.364   5.144
  154POPC   C3A 2276   1.568   1.487   5.517
  154POPC   C4A 2277   1.571   1.274   5.933
  154POPC   C1B 2278   0.922   1.285   4.686
  154POPC   C2B 2279   0.789   1.379   5.084
  154POPC   C3B 2280   0.850   1.228   5.438
  154POPC   C4B 2281   1.106   1.245   5.720
  155POPC   NC3 2282   8.805   7.839   3.888
  155POPC   PO4 2283   8.216   8.260   3.866
  155POPC   GL1 2284   8.280   8.138   4.285
  155POPC   GL2 2285   8.619   7.984   4.329
  155POPC   C1A 2286   8.307   8.052   4.724
  155POPC   D2A 2287   8.578   8.124   5.055
  155POPC   C3A 2288   8.519   7.985   5.472
  155POPC   C4A 2289   8.211   8.013   5.785
  155POPC   C1B 2290   8.836   7.849   4.682
  155POPC   C2B 2291   8.829   7.684   5.094
  155POPC   C3B 2292   9.023   7.838   5.482
  155POPC   C4B 2293   8.815   7.809   5.888
  156POPC   NC3 2294   2.676   1.162   3.819
  156POPC   PO4 2295   3.120   1.575   3.674
  156POPC   GL1 2296   3.043   1.269   4.146
  156POPC   GL2 2297   2.683   1.267   4.315
  156POPC   C1A 2298   3.053   1.321   4.654
  156POPC   D2A 2299   3.016   1.021   5.023
  156POPC   C3A 2300   3.064   1.189   5.449
  156POPC   C4A 2301   2.880   1.045   5.858
  156POPC   C1B 2302   2.522   1.252   4.716
  156POPC   C2B 2303   2.667   1.385   5.134
  156POPC   C3B 2304   2.574   1.298   5.544
  156POPC   C4B 2305   2.306   0.983   5.623
  157POPC   NC3 2306   0.634   3.270   3.972
  157POPC   PO4 2307  10.474   3.403   3.837
  157POPC   GL1 2308   0.189   3.436   4.250
  157POPC   GL2 2309   0.398   3.137   4.380
  157POPC   C1A 2310   0.090   3.523   4.688
  157POPC   D2A 2311   0.294   3.488   5.073
  157POPC   C3A 2312   0.150   3.461   5.464
  157POPC   C4A 2313   0.328   3.137   5.729
  157POPC   C1B 2314   0.631   3.390   4.656
  157POPC   C2B 2315   0.806   3.467   5.042
  157POPC   C3B 2316   0.739   3.344   5.455
  157POPC   C4B 2317   0.540   3.625   5.744
  158POPC   NC3 2318   8.794   5.398   3.844
  158POPC   PO4 2319   8.870   6.065   3.930
  158POPC   GL1 2320   8.854   5.783   4.323
  158POPC   GL2 2321   8.534   5.725   4.252
  158POPC   C1A 2322   8.964   5.552   4.750
  158POPC   D2A 2323   8.748   5.518   5.133
  158POPC   C3A 2324   8.838   5.530   5.544
  158POPC   C4A 2325   8.507   5.358   5.813
  158POPC   C1B 2326   8.480   5.692   4.697
  158POPC   C2B 2327   8.256   5.672   5.073
  158POPC   C3B 2328   8.426   5.854   5.411
  158POPC   C4B 2329   8.515   5.864   5.826
  159POPC   NC3 2330   7.905   4.942   3.805
  159POPC   PO4 2331   8.422   4.802   3.923
  159POPC   GL1 2332   8.234   4.812   4.322
  159POPC   GL2 2333   7.870   4.791   4.328
  159POPC   C1A 2334   8.235   4.878   4.792
  159POPC   D2A 2335   8.107   4.684   5.199
  159POPC   C3A 2336   7.827   4.800   5.572
  159POPC   C4A 2337   7.944   4.660   6.012
  159POPC   C1B 2338   7.761   5.039   4.742
  159POPC   C2B 2339   7.859   5.177   5.209
  159POPC   C3B 2340   7.634   5.265   5.636
  159POPC   C4B 2341   7.623   5.339   6.100
  160POPC   NC3 2342   1.986  10.288   3.861
  160POPC   PO4 2343   1.450   0.254   3.810
  160POPC   GL1 2344   1.712   0.083   4.188
  160POPC   GL2 2345   1.576  10.270   4.297
  160POPC   C1A 2346   2.050   0.070   4.598
  160POPC   D2A 2347   2.185  10.440   5.063
  160POPC   C3A 2348   1.999   0.099   5.483
  160POPC   C4A 2349   2.155   0.055   5.930
  160POPC   C1B 2350   1.697  10.186   4.742
  160POPC   C2B 2351   1.850  10.059   5.178
  160POPC   C3B 2352   2.006  10.104   5.625
  160POPC   C4B 2353   1.810  10.228   6.046
  161POPC   NC3 2354   1.889   4.494   4.044
  161POPC   PO4 2355   1.872   3.830   3.844
  161POPC   GL1 2356   2.046   4.025   4.228
  161POPC   GL2 2357   1.790   4.092   4.433
  161POPC   C1A 2358   2.194   3.997   4.703
  161POPC   D2A 2359   1.953   4.111   5.086
  161POPC   C3A 2360   2.178   3.995   5.487
  161POPC   C4A 2361   2.203   3.924   5.950
  161POPC   C1B 2362   1.781   4.470   4.696
  161POPC   C2B 2363   1.786   4.669   5.092
  161POPC   C3B 2364   1.760   4.437   5.444
  161POPC   C4B 2365   1.782   4.172   5.765
  162POPC   NC3 2366   7.144   0.609   4.061
  162POPC   PO4 2367   7.668   0.279   3.898
  162POPC   GL1 2368   7.618   0.518   4.252
  162POPC   GL2 2369   7.382   0.272   4.380
  162POPC   C1A 2370   7.613   0.596   4.689
  162POPC   D2A 2371   7.519   0.424   5.108
  162POPC   C3A 2372   7.442   0.703   5.465
  162POPC   C4A 2373   7.426   0.663   5.923
  162POPC   C1B 2374   7.126   0.393   4.755
  162POPC   C2B 2375   7.039   0.237   5.161
  162POPC   C3B 2376   7.115   0.305   5.620
  162POPC   C4B 2377   7.021   0.409   6.067
  163POPC   NC3 2378   8.023  10.493   3.927
  163POPC   PO4 2379   8.639   0.068   3.780
  163POPC   GL1 2380   8.359   0.225   4.197
  163POPC   GL2 2381   8.120   0.501   4.103
  163POPC   C1A 2382   7.947   0.192   4.517
  163POPC   D2A 2383   7.799  10.463   4.903
  163POPC   C3A 2384   7.909   0.107   5.318
  163POPC   C4A 2385   7.630   0.258   5.631
  163POPC   C1B 2386   8.091   0.680   4.523
  163POPC   C2B 2387   8.046   0.447   4.941
  163POPC   C3B 2388   7.929   0.633   5.325
  163POPC   C4B 2389   7.906   0.686   5.748
  164POPC   NC3 2390   8.774  10.223   4.082
  164POPC   PO4 2391   8.734   9.580   3.898
  164POPC   GL1 2392   8.847   9.705   4.349
  164POPC   GL2 2393   8.619   9.958   4.487
  164POPC   C1A 2394   8.862   9.664   4.826
  164POPC   D2A 2395   8.702   9.959   5.120
  164POPC   C3A 2396   8.861   9.921   5.536
  164POPC   C4A 2397   8.752   9.878   5.950
  164POPC   C1B 2398   8.613  10.318   4.732
  164POPC   C2B 2399   8.419  10.488   5.076
  164POPC   C3B 2400   8.570  10.354   5.450
  164POPC   C4B 2401   8.695  10.365   5.856
  165POPC   NC3 2402   2.187   2.672   3.894
  165POPC   PO4 2403   1.565   2.656   3.759
  165POPC   GL1 2404   1.635   2.751   4.214
  165POPC   GL2 2405   1.966   2.751   4.336
  165POPC   C1A 2406   1.550   2.791   4.684
  165POPC   D2A 2407   1.774   2.767   5.087
  165POPC   C3A 2408   1.513   2.847   5.352
  165POPC   C4A 2409   1.568   2.797   5.732
  165POPC   C1B 2410   2.077   2.627   4.726
  165POPC   C2B 2411   2.334   2.525   5.057
  165POPC   C3B 2412   2.171   2.393   5.453
  165POPC   C4B 2413   2.042   2.630   5.773
  166POPC   NC3 2414   6.794   8.327   3.978
  166POPC   PO4 2415   6.156   8.886   3.971
  166POPC   GL1 2416   6.190   8.709   4.398
  166POPC   GL2 2417   6.513   8.800   4.517
  166POPC   C1A 2418   6.291   8.446   4.793
  166POPC   D2A 2419   6.518   8.604   5.145
  166POPC   C3A 2420   6.329   8.547   5.556
  166POPC   C4A 2421   6.201   8.183   5.806
  166POPC   C1B 2422   6.222   8.949   4.854
  166POPC   C2B 2423   6.214   9.034   5.277
  166POPC   C3B 2424   6.566   9.002   5.522
  166POPC   C4B 2425   6.619   8.997   5.954
  167POPC   NC3 2426  10.215   7.252   3.971
  167POPC   PO4 2427   9.797   6.816   3.840
  167POPC   GL1 2428   9.814   7.070   4.265
  167POPC   GL2 2429  10.156   7.159   4.447
  167POPC   C1A 2430   9.783   7.023   4.735
  167POPC   D2A 2431   9.971   6.884   5.117
  167POPC   C3A 2432  10.017   7.094   5.497
  167POPC   C4A 2433  10.059   6.981   5.892
  167POPC   C1B 2434  10.214   7.372   4.852
  167POPC   C2B 2435  10.430   7.197   5.229
  167POPC   C3B 2436   0.025   6.957   5.665
  167POPC   C4B 2437  10.488   7.062   6.158
  168POPC   NC3 2438   8.115   1.635   4.122
  168POPC   PO4 2439   8.190   0.949   3.853
  168POPC   GL1 2440   8.176   1.119   4.238
  168POPC   GL2 2441   7.802   1.048   4.243
  168POPC   C1A 2442   8.381   1.146   4.662
  168POPC   D2A 2443   8.226   0.906   5.009
  168POPC   C3A 2444   8.289   0.977   5.462
  168POPC   C4A 2445   8.162   1.109   5.892
  168POPC   C1B 2446   7.881   1.163   4.686
  168POPC   C2B 2447   7.903   1.254   5.142
  168POPC   C3B 2448   7.779   1.124   5.532
  168POPC   C4B 2449   7.589   1.471   5.741
  169POPC   NC3 2450   4.923   8.397   4.071
  169POPC   PO4 2451   4.783   9.076   3.912
  169POPC   GL1 2452   4.898   8.928   4.289
  169POPC   GL2 2453   4.604   8.724   4.332
  169POPC   C1A 2454   4.798   9.028   4.713
  169POPC   D2A 2455   4.621   8.919   5.073
  169POPC   C3A 2456   4.788   8.854   5.447
  169POPC   C4A 2457   4.942   8.709   5.831
  169POPC   C1B 2458   4.796   8.500   4.696
  169POPC   C2B 2459   4.931   8.515   5.110
  169POPC   C3B 2460   4.801   8.339   5.520
  169POPC   C4B 2461   4.927   8.194   5.931
  170POPC   NC3 2462   7.796   6.509   3.907
  170POPC   PO4 2463   7.571   7.057   4.076
  170POPC   GL1 2464   7.821   6.731   4.387
  170POPC   GL2 2465   8.044   6.446   4.336
  170POPC   C1A 2466   7.948   6.533   4.829
  170POPC   D2A 2467   7.761   6.351   5.209
  170POPC   C3A 2468   7.798   6.560   5.614
  170POPC   C4A 2469   8.020   6.533   5.985
  170POPC   C1B 2470   8.212   6.135   4.604
  170POPC   C2B 2471   8.344   6.194   5.008
  170POPC   C3B 2472   8.245   6.368   5.381
  170POPC   C4B 2473   8.062   6.094   5.704
  171POPC   NC3 2474   5.588   2.178   3.986
  171POPC   PO4 2475   5.278   1.647   3.803
  171POPC   GL1 2476   5.502   1.674   4.213
  171POPC   GL2 2477   5.844   1.832   4.269
  171POPC   C1A 2478   5.637   1.608   4.667
  171POPC   D2A 2479   5.832   1.744   5.042
  171POPC   C3A 2480   5.611   1.804   5.416
  171POPC   C4A 2481   5.789   1.595   5.744
  171POPC   C1B 2482   5.668   2.108   4.642
  171POPC   C2B 2483   5.773   2.245   5.081
  171POPC   C3B 2484   5.876   2.226   5.539
  171POPC   C4B 2485   5.684   2.382   5.941
  172POPC   NC3 2486   1.490   3.768   4.109
  172POPC   PO4 2487   0.967   3.457   3.729
  172POPC   GL1 2488   1.017   3.546   4.192
  172POPC   GL2 2489   1.016   3.202   4.338
  172POPC   C1A 2490   1.054   3.721   4.641
  172POPC   D2A 2491   1.260   3.726   5.079
  172POPC   C3A 2492   0.973   3.788   5.450
  172POPC   C4A 2493   1.027   3.579   5.857
  172POPC   C1B 2494   1.282   3.252   4.702
  172POPC   C2B 2495   1.206   3.189   5.126
  172POPC   C3B 2496   1.348   3.386   5.480
  172POPC   C4B 2497   1.422   3.253   5.880
  173POPC   NC3 2498   0.694   2.199   3.897
  173POPC   PO4 2499   0.739   2.832   4.092
  173POPC   GL1 2500   0.666   2.478   4.336
  173POPC   GL2 2501   0.356   2.605   4.419
  173POPC   C1A 2502   0.694   2.359   4.768
  173POPC   D2A 2503   0.517   2.476   5.151
  173POPC   C3A 2504   0.654   2.660   5.559
  173POPC   C4A 2505   0.389   2.456   5.837
  173POPC   C1B 2506   0.501   2.860   4.786
  173POPC   C2B 2507   0.459   2.989   5.213
  173POPC   C3B 2508   0.175   2.723   5.455
  173POPC   C4B 2509  10.471   2.757   5.838
  174POPC   NC3 2510   1.855   7.201   3.989
  174POPC   PO4 2511   2.514   7.211   3.906
  174POPC   GL1 2512   2.242   7.095   4.301
  174POPC   GL2 2513   1.956   7.319   4.460
  174POPC   C1A 2514   2.170   6.980   4.757
  174POPC   D2A 2515   2.124   7.248   5.137
  174POPC   C3A 2516   2.142   6.943   5.469
  174POPC   C4A 2517   2.053   6.833   5.884
  174POPC   C1B 2518   1.692   7.157   4.785
  174POPC   C2B 2519   1.690   6.975   5.190
  174POPC   C3B 2520   1.698   7.147   5.601
  174POPC   C4B 2521   1.668   7.419   5.953
  175POPC   NC3 2522   7.240   7.374   4.051
  175POPC   PO4 2523   6.772   7.873   3.872
  175POPC   GL1 2524   7.039   7.967   4.273
  175POPC   GL2 2525   7.380   7.889   4.351
  175POPC   C1A 2526   7.027   7.801   4.735
  175POPC   D2A 2527   7.247   7.782   5.171
  175POPC   C3A 2528   7.104   7.724   5.629
  175POPC   C4A 2529   7.063   7.377   5.941
  175POPC   C1B 2530   7.339   8.198   4.712
  175POPC   C2B 2531   7.398   8.390   5.114
  175POPC   C3B 2532   7.242   8.206   5.487
  175POPC   C4B 2533   7.267   8.135   5.915
  176POPC   NC3 2534   1.593   2.190   3.718
  176POPC   PO4 2535   1.647   1.557   4.128
  176POPC   GL1 2536   1.427   1.866   4.347
  176POPC   GL2 2537   1.118   1.741   4.504
  176POPC   C1A 2538   1.518   1.874   4.782
  176POPC   D2A 2539   1.440   1.956   5.197
  176POPC   C3A 2540   1.115   1.737   5.461
  176POPC   C4A 2541   1.238   1.664   5.917
  176POPC   C1B 2542   1.043   1.801   4.938
  176POPC   C2B 2543   0.941   2.154   5.178
  176POPC   C3B 2544   0.747   2.173   5.563
  176POPC   C4B 2545   0.973   2.097   5.903
  177POPC   NC3 2546   4.947   0.524   3.839
  177POPC   PO4 2547   4.332   0.639   4.124
  177POPC   GL1 2548   4.592   0.583   4.462
  177POPC   GL2 2549   4.807   0.342   4.296
  177POPC   C1A 2550   4.611   0.574   4.922
  177POPC   D2A 2551   4.657   0.354   5.281
  177POPC   C3A 2552   4.735   0.593   5.610
  177POPC   C4A 2553   4.781   0.268   5.846
  177POPC   C1B 2554   4.982   0.308   4.692
  177POPC   C2B 2555   5.098   0.500   5.083
  177POPC   C3B 2556   5.145   0.325   5.452
  177POPC   C4B 2557   5.282   0.402   5.822
  178POPC   NC3 2558   3.411   1.825   3.959
  178POPC   PO4 2559   2.808   1.692   4.091
  178POPC   GL1 2560   3.143   1.745   4.385
  178POPC   GL2 2561   3.355   2.039   4.413
  178POPC   C1A 2562   3.123   1.846   4.825
  178POPC   D2A 2563   3.382   1.944   5.176
  178POPC   C3A 2564   3.212   1.675   5.456
  178POPC   C4A 2565   2.955   1.590   5.809
  178POPC   C1B 2566   3.338   2.319   4.778
  178POPC   C2B 2567   3.613   2.415   5.114
  178POPC   C3B 2568   3.752   2.285   5.511
  178POPC   C4B 2569   3.470   2.027   5.712
  179POPC   NC3 2570   6.494   2.244   3.941
  179POPC   PO4 2571   6.748   1.600   3.885
  179POPC   GL1 2572   6.733   1.867   4.266
  179POPC   GL2 2573   6.366   1.868   4.292
  179POPC   C1A 2574   6.641   1.939   4.732
  179POPC   D2A 2575   6.766   1.867   5.164
  179POPC   C3A 2576   6.608   2.137   5.502
  179POPC   C4A 2577   6.627   1.855   5.828
  179POPC   C1B 2578   6.145   1.947   4.697
  179POPC   C2B 2579   6.244   2.040   5.150
  179POPC   C3B 2580   6.201   1.814   5.540
  179POPC   C4B 2581   6.258   1.521   5.947
  180POPC   NC3 2582   8.944   0.393   3.714
  180POPC   PO4 2583   9.198  10.439   4.113
  180POPC   GL1 2584   8.861   0.112   4.386
  180POPC   GL2 2585   8.765   0.469   4.355
  180POPC   C1A 2586   8.864   0.257   4.805
  180POPC   D2A 2587   9.109   0.354   5.130
  180POPC   C3A 2588   8.944   0.206   5.468
  180POPC   C4A 2589   8.783   0.361   5.824
  180POPC   C1B 2590   8.561   0.646   4.720
  180POPC   C2B 2591   8.528   0.492   5.151
  180POPC   C3B 2592   8.333   0.381   5.548
  180POPC   C4B 2593   8.352   0.578   5.965
  181POPC   NC3 2594  10.307   0.609   4.001
  181POPC   PO4 2595   9.681   0.565   3.779
  181POPC   GL1 2596   9.908   0.575   4.290
  181POPC   GL2 2597  10.185   0.397   4.454
  181POPC   C1A 2598   9.744   0.389   4.699
  181POPC   D2A 2599   9.602   0.470   5.083
  181POPC   C3A 2600   9.898   0.478   5.426
  181POPC   C4A 2601   9.973   0.209   5.769
  181POPC   C1B 2602  10.172   0.583   4.834
  181POPC   C2B 2603  10.191   0.798   5.176
  181POPC   C3B 2604  10.339   0.697   5.573
  181POPC   C4B 2605  10.458   0.741   6.009
  182POPC   NC3 2606   8.538   2.459   3.940
  182POPC   PO4 2607   9.049   2.925   3.940
  182POPC   GL1 2608   8.927   2.767   4.298
  182POPC   GL2 2609   8.579   2.887   4.296
  182POPC   C1A 2610   9.124   2.693   4.706
  182POPC   D2A 2611   8.970   2.880   5.072
  182POPC   C3A 2612   9.020   2.604   5.430
  182POPC   C4A 2613   8.884   2.641   5.843
  182POPC   C1B 2614   8.573   2.558   4.614
  182POPC   C2B 2615   8.629   2.501   5.052
  182POPC   C3B 2616   8.529   2.779   5.372
  182POPC   C4B 2617   8.391   2.660   5.757
  183POPC   NC3 2618   4.715  10.164   3.755
  183POPC   PO4 2619   5.269   0.077   3.892
  183POPC   GL1 2620   5.185  10.431   4.266
  183POPC   GL2 2621   5.000  10.133   4.173
  183POPC   C1A 2622   5.312  10.422   4.683
  183POPC   D2A 2623   5.048  10.449   5.051
  183POPC   C3A 2624   5.234  10.334   5.421
  183POPC   C4A 2625   5.010  10.333   5.773
  183POPC   C1B 2626   4.789  10.253   4.566
  183POPC   C2B 2627   4.769  10.020   4.967
  183POPC   C3B 2628   4.960   9.891   5.357
  183POPC   C4B 2629   4.757   9.894   5.775
  184POPC   NC3 2630   9.502   0.784   4.132
  184POPC   PO4 2631  10.058   1.055   4.012
  184POPC   GL1 2632   9.789   1.108   4.387
  184POPC   GL2 2633   9.403   1.135   4.461
  184POPC   C1A 2634   9.759   0.904   4.798
  184POPC   D2A 2635   9.688   0.914   5.256
  184POPC   C3A 2636   9.913   1.024   5.581
  184POPC   C4A 2637   9.540   1.235   5.703
  184POPC   C1B 2638   9.504   1.373   4.798
  184POPC   C2B 2639   9.439   1.363   5.219
  184POPC   C3B 2640   9.093   1.223   5.464
  184POPC   C4B 2641   9.008   1.450   5.832
  185POPC   NC3 2642   2.434   8.764   3.908
  185POPC   PO4 2643   2.850   8.221   3.742
  185POPC   GL1 2644   2.688   8.498   4.228
  185POPC   GL2 2645   2.360   8.573   4.382
  185POPC   C1A 2646   2.774   8.678   4.665
  185POPC   D2A 2647   2.950   8.742   5.082
  185POPC   C3A 2648   2.755   9.067   5.359
  185POPC   C4A 2649   2.845   8.917   5.779
  185POPC   C1B 2650   2.209   8.398   4.752
  185POPC   C2B 2651   2.428   8.540   5.086
  185POPC   C3B 2652   2.638   8.578   5.468
  185POPC   C4B 2653   2.553   8.412   5.872
  186POPC   NC3 2654   7.316  10.228   3.846
  186POPC   PO4 2655   6.913   0.221   4.153
  186POPC   GL1 2656   7.073  10.335   4.315
  186POPC   GL2 2657   7.091   9.977   4.221
  186POPC   C1A 2658   6.834  10.162   4.648
  186POPC   D2A 2659   6.687  10.374   4.999
  186POPC   C3A 2660   6.871  10.336   5.415
  186POPC   C4A 2661   6.826  10.440   5.843
  186POPC   C1B 2662   7.236   9.856   4.635
  186POPC   C2B 2663   7.169  10.055   5.037
  186POPC   C3B 2664   7.071   9.855   5.418
  186POPC   C4B 2665   7.181  10.083   5.771
  187POPC   NC3 2666   7.096   9.256   3.763
  187POPC   PO4 2667   7.493   9.798   3.989
  187POPC   GL1 2668   7.339   9.443   4.276
  187POPC   GL2 2669   7.038   9.213   4.259
  187POPC   C1A 2670   7.187   9.349   4.723
  187POPC   D2A 2671   7.301   9.565   5.074
  187POPC   C3A 2672   7.359   9.367   5.440
  187POPC   C4A 2673   7.270   9.562   5.798
  187POPC   C1B 2674   6.832   9.609   4.445
  187POPC   C2B 2675   6.822   9.684   4.915
  187POPC   C3B 2676   6.874   9.353   5.279
  187POPC   C4B 2677   7.048   9.063   5.672
  188POPC   NC3 2678   9.211   8.964   3.884
  188POPC   PO4 2679   9.753   8.611   3.832
  188POPC   GL1 2680   9.717   8.717   4.231
  188POPC   GL2 2681   9.400   8.673   4.292
  188POPC   C1A 2682   9.734   8.810   4.667
  188POPC   D2A 2683   9.578   8.895   5.096
  188POPC   C3A 2684   9.829   8.841   5.460
  188POPC   C4A 2685   9.779   8.910   5.905
  188POPC   C1B 2686   9.222   8.807   4.698
  188POPC   C2B 2687   9.119   8.671   5.105
  188POPC   C3B 2688   9.263   8.714   5.534
  188POPC   C4B 2689   8.960   8.680   5.874
  189POPC   NC3 2690   3.639  10.107   3.765
  189POPC   PO4 2691   2.952   9.737   3.811
  189POPC   GL1 2692   3.122   9.731   4.225
  189POPC   GL2 2693   3.399   9.950   4.194
  189POPC   C1A 2694   2.974   9.859   4.650
  189POPC   D2A 2695   3.077  10.063   5.051
  189POPC   C3A 2696   3.033   9.869   5.457
  189POPC   C4A 2697   3.243   9.839   5.854
  189POPC   C1B 2698   3.425  10.094   4.627
  189POPC   C2B 2699   3.611  10.115   5.054
  189POPC   C3B 2700   3.537  10.187   5.487
  189POPC   C4B 2701   3.837   0.014   5.709
  190POPC   NC3 2702   8.297   9.354   3.901
  190POPC   PO4 2703   8.348  10.007   4.000
  190POPC   GL1 2704   8.368   9.556   4.331
  190POPC   GL2 2705   8.670   9.237   4.244
  190POPC   C1A 2706   8.512   9.298   4.694
  190POPC   D2A 2707   8.606   9.190   5.093
  190POPC   C3A 2708   8.730   9.483   5.306
  190POPC   C4A 2709   8.655   9.469   5.704
  190POPC   C1B 2710   9.001   9.236   4.577
  190POPC   C2B 2711   9.118   9.199   5.062
  190POPC   C3B 2712   9.069   9.194   5.551
  190POPC   C4B 2713   9.118   9.528   5.880
  191POPC   NC3 2714   2.580   0.462   3.864
  191POPC   PO4 2715   3.076   0.852   3.748
  191POPC   GL1 2716   2.752   0.791   4.174
  191POPC   GL2 2717   2.868   0.430   4.272
  191POPC   C1A 2718   2.712   0.776   4.665
  191POPC   D2A 2719   2.508   0.875   5.070
  191POPC   C3A 2720   2.730   0.809   5.407
  191POPC   C4A 2721   2.650   0.595   5.754
  191POPC   C1B 2722   2.553   0.293   4.571
  191POPC   C2B 2723   2.439   0.373   4.988
  191POPC   C3B 2724   2.460   0.285   5.403
  191POPC   C4B 2725   2.621   0.087   5.751
  192POPC   NC3 2726   8.795   6.537   3.871
  192POPC   PO4 2727   8.169   6.779   3.959
  192POPC   GL1 2728   8.497   6.650   4.274
  192POPC   GL2 2729   8.539   6.284   4.251
  192POPC   C1A 2730   8.465   6.615   4.729
  192POPC   D2A 2731   8.749   6.544   5.096
  192POPC   C3A 2732   8.738   6.731   5.539
  192POPC   C4A 2733   8.914   6.672   5.986
  192POPC   C1B 2734   8.740   6.157   4.650
  192POPC   C2B 2735   8.810   6.015   5.071
  192POPC   C3B 2736   8.769   6.208   5.483
  192POPC   C4B 2737   8.490   6.380   5.814
  193POPC   NC3 2738   9.723   8.115   3.854
  193POPC   PO4 2739   9.021   8.255   3.968
  193POPC   GL1 2740   9.213   8.208   4.345
  193POPC   GL2 2741   9.549   8.126   4.330
  193POPC   C1A 2742   9.450   8.367   4.755
  193POPC   D2A 2743   9.596   8.114   5.103
  193POPC   C3A 2744   9.435   8.207   5.537
  193POPC   C4A 2745   9.144   8.176   5.898
  193POPC   C1B 2746   9.349   7.877   4.690
  193POPC   C2B 2747   9.343   7.667   5.096
  193POPC   C3B 2748   9.542   7.675   5.510
  193POPC   C4B 2749   9.853   7.654   5.853
  194POPC   NC3 2750   1.216   2.904   3.947
  194POPC   PO4 2751   1.123   2.266   3.722
  194POPC   GL1 2752   1.178   2.308   4.190
  194POPC   GL2 2753   1.157   2.637   4.362
  194POPC   C1A 2754   1.180   2.242   4.671
  194POPC   D2A 2755   1.355   2.449   5.050
  194POPC   C3A 2756   1.187   2.447   5.523
  194POPC   C4A 2757   1.351   2.416   5.963
  194POPC   C1B 2758   1.016   2.799   4.742
  194POPC   C2B 2759   0.960   2.752   5.170
  194POPC   C3B 2760   1.076   2.948   5.579
  194POPC   C4B 2761   0.819   3.059   5.876
  195POPC   NC3 2762   6.706   1.161   3.665
  195POPC   PO4 2763   7.371   1.049   3.870
  195POPC   GL1 2764   7.072   1.096   4.185
  195POPC   GL2 2765   7.061   1.391   4.367
  195POPC   C1A 2766   6.943   0.852   4.605
  195POPC   D2A 2767   7.020   0.979   4.989
  195POPC   C3A 2768   6.958   0.713   5.310
  195POPC   C4A 2769   6.834   0.738   5.707
  195POPC   C1B 2770   7.392   1.082   4.576
  195POPC   C2B 2771   7.521   0.966   5.008
  195POPC   C3B 2772   7.340   1.202   5.319
  195POPC   C4B 2773   7.245   1.095   5.718
  196POPC   NC3 2774   1.892   1.219   3.914
  196POPC   PO4 2775   2.384   1.537   3.753
  196POPC   GL1 2776   2.208   1.481   4.224
  196POPC   GL2 2777   2.181   1.101   4.327
  196POPC   C1A 2778   2.021   1.433   4.670
  196POPC   D2A 2779   2.097   1.176   5.042
  196POPC   C3A 2780   2.092   1.404   5.425
  196POPC   C4A 2781   2.106   1.392   5.870
  196POPC   C1B 2782   1.814   0.974   4.623
  196POPC   C2B 2783   1.643   0.933   5.062
  196POPC   C3B 2784   1.771   0.998   5.516
  196POPC   C4B 2785   1.928   0.937   5.961
  197POPC   NC3 2786   3.383   9.185   4.028
  197POPC   PO4 2787   4.074   9.116   4.059
  197POPC   GL1 2788   3.747   9.140   4.376
  197POPC   GL2 2789   3.633   9.497   4.356
  197POPC   C1A 2790   3.712   9.205   4.830
  197POPC   D2A 2791   3.703   9.191   5.272
  197POPC   C3A 2792   3.888   9.575   5.409
  197POPC   C4A 2793   3.727   9.763   5.762
  197POPC   C1B 2794   3.361   9.548   4.688
  197POPC   C2B 2795   3.413   9.657   5.111
  197POPC   C3B 2796   3.374   9.504   5.497
  197POPC   C4B 2797   3.050   9.376   5.751
  198POPC   NC3 2798   8.575  10.212   3.469
  198POPC   PO4 2799   7.876  10.148   3.685
  198POPC   GL1 2800   7.864  10.119   4.188
  198POPC   GL2 2801   7.602  10.316   4.276
  198POPC   C1A 2802   8.142  10.227   4.564
  198POPC   D2A 2803   8.223   9.998   4.943
  198POPC   C3A 2804   8.099  10.125   5.366
  198POPC   C4A 2805   8.153  10.405   5.746
  198POPC   C1B 2806   7.695  10.029   4.638
  198POPC   C2B 2807   7.695   9.919   5.048
  198POPC   C3B 2808   7.565  10.096   5.418
  198POPC   C4B 2809   7.778  10.043   5.791
  199POPC   NC3 2810   4.873   1.897   3.729
  199POPC   PO4 2811   4.458   2.315   3.958
  199POPC   GL1 2812   4.718   1.964   4.215
  199POPC   GL2 2813   4.948   1.660   4.207
  199POPC   C1A 2814   4.648   1.727   4.624
  199POPC   D2A 2815   4.858   1.747   5.030
  199POPC   C3A 2816   4.661   1.660   5.437
  199POPC   C4A 2817   4.676   1.873   5.850
  199POPC   C1B 2818   5.172   1.815   4.590
  199POPC   C2B 2819   5.319   1.960   5.019
  199POPC   C3B 2820   5.070   2.011   5.433
  199POPC   C4B 2821   5.135   2.220   5.841
  200POPC   NC3 2822   2.434   1.939   4.138
  200POPC   PO4 2823   2.074   2.259   3.680
  200POPC   GL1 2824   1.866   2.292   4.115
  200POPC   GL2 2825   1.929   1.979   4.231
  200POPC   C1A 2826   1.685   2.321   4.556
  200POPC   D2A 2827   1.849   2.264   5.025
  200POPC   C3A 2828   1.676   2.345   5.447
  200POPC   C4A 2829   1.461   2.030   5.682
  200POPC   C1B 2830   2.004   1.940   4.666
  200POPC   C2B 2831   1.895   1.733   5.093
  200POPC   C3B 2832   1.948   1.880   5.554
  200POPC   C4B 2833   1.761   1.738   5.976
  201POPC   NC3 2834   3.014   3.520   4.019
  201POPC   PO4 2835   2.433   3.133   3.896
  201POPC   GL1 2836   2.354   3.256   4.299
  201POPC   GL2 2837   2.717   3.292   4.423
  201POPC   C1A 2838   2.310   3.457   4.704
  201POPC   D2A 2839   2.627   3.336   5.023
  201POPC   C3A 2840   2.551   3.322   5.442
  201POPC   C4A 2841   2.832   3.265   5.805
  201POPC   C1B 2842   2.741   3.717   4.713
  201POPC   C2B 2843   2.566   3.833   5.178
  201POPC   C3B 2844   2.627   3.774   5.684
  201POPC   C4B 2845   2.872   3.687   6.101
  202POPC   NC3 2846   5.194   9.292   3.858
  202POPC   PO4 2847   4.693   9.726   3.919
  202POPC   GL1 2848   4.838   9.658   4.342
  202POPC   GL2 2849   5.102   9.417   4.340
  202POPC   C1A 2850   4.901   9.549   4.792
  202POPC   D2A 2851   4.667   9.417   5.121
  202POPC   C3A 2852   4.796   9.423   5.530
  202POPC   C4A 2853   4.679   9.142   5.834
  202POPC   C1B 2854   5.276   9.196   4.694
  202POPC   C2B 2855   5.115   9.080   5.140
  202POPC   C3B 2856   5.192   9.094   5.627
  202POPC   C4B 2857   5.202   9.069   6.098
  203POPC   NC3 2858   9.359   2.569   4.084
  203POPC   PO4 2859   9.742   1.924   3.967
  203POPC   GL1 2860   9.715   2.255   4.310
  203POPC   GL2 2861   9.656   2.608   4.473
  203POPC   C1A 2862   9.411   2.213   4.669
  203POPC   D2A 2863   9.294   2.254   5.122
  203POPC   C3A 2864   9.676   2.336   5.373
  203POPC   C4A 2865   9.735   2.389   5.808
  203POPC   C1B 2866   9.665   2.574   4.893
  203POPC   C2B 2867   9.438   2.744   5.171
  203POPC   C3B 2868   9.544   2.783   5.564
  203POPC   C4B 2869   9.367   2.719   5.918
  204POPC   NC3 2870   2.230   5.124   4.078
  204POPC   PO4 2871   1.594   4.917   3.986
  204POPC   GL1 2872   1.727   5.163   4.319
  204POPC   GL2 2873   1.933   4.874   4.405
  204POPC   C1A 2874   1.697   5.437   4.733
  204POPC   D2A 2875   1.885   5.434   5.159
  204POPC   C3A 2876   1.643   5.428   5.554
  204POPC   C4A 2877   1.805   5.146   5.893
  204POPC   C1B 2878   2.057   5.059   4.793
  204POPC   C2B 2879   2.194   4.963   5.202
  204POPC   C3B 2880   2.058   4.840   5.554
  204POPC   C4B 2881   2.188   4.465   5.704
  205POPC   NC3 2882   2.216   5.754   3.647
  205POPC   PO4 2883   1.614   5.753   3.891
  205POPC   GL1 2884   1.964   5.580   4.126
  205POPC   GL2 2885   2.145   5.883   4.154
  205POPC   C1A 2886   2.165   5.544   4.565
  205POPC   D2A 2887   2.135   5.794   4.919
  205POPC   C3A 2888   2.276   5.761   5.372
  205POPC   C4A 2889   2.170   5.354   5.582
  205POPC   C1B 2890   1.803   5.907   4.498
  205POPC   C2B 2891   1.694   6.027   4.904
  205POPC   C3B 2892   1.788   5.933   5.334
  205POPC   C4B 2893   1.939   5.822   5.748
  206POPC   NC3 2894   5.682   0.606   3.930
  206POPC   PO4 2895   6.037   0.093   3.944
  206POPC   GL1 2896   5.867   0.161   4.337
  206POPC   GL2 2897   5.680   0.452   4.396
  206POPC   C1A 2898   5.775   0.117   4.772
  206POPC   D2A 2899   5.500   0.183   5.094
  206POPC   C3A 2900   5.653   0.159   5.477
  206POPC   C4A 2901   6.062   0.235   5.627
  206POPC   C1B 2902   5.464   0.557   4.724
  206POPC   C2B 2903   5.531   0.780   5.078
  206POPC   C3B 2904   5.392   0.790   5.486
  206POPC   C4B 2905   5.717   0.606   5.708
  207POPC   NC3 2906   6.363   1.334   4.015
  207POPC   PO4 2907   6.734   0.789   3.947
  207POPC   GL1 2908   6.595   1.056   4.334
  207POPC   GL2 2909   6.250   1.050   4.429
  207POPC   C1A 2910   6.593   1.202   4.769
  207POPC   D2A 2911   6.542   0.998   5.164
  207POPC   C3A 2912   6.821   1.203   5.434
  207POPC   C4A 2913   6.858   1.409   5.814
  207POPC   C1B 2914   6.117   1.406   4.690
  207POPC   C2B 2915   6.307   1.533   5.079
  207POPC   C3B 2916   6.291   1.320   5.472
  207POPC   C4B 2917   6.462   1.072   5.787
  208POPC   NC3 2918   7.060   2.993   3.596
  208POPC   PO4 2919   6.655   2.679   3.993
  208POPC   GL1 2920   6.999   2.672   4.290
  208POPC   GL2 2921   7.085   2.303   4.239
  208POPC   C1A 2922   7.224   2.930   4.640
  208POPC   D2A 2923   7.124   3.061   5.085
  208POPC   C3A 2924   7.299   3.008   5.513
  208POPC   C4A 2925   7.209   3.074   5.984
  208POPC   C1B 2926   7.351   2.436   4.578
  208POPC   C2B 2927   7.282   2.575   4.994
  208POPC   C3B 2928   7.436   2.529   5.407
  208POPC   C4B 2929   7.272   2.585   5.816
  209POPC   NC3 2930   9.864   3.739   3.610
  209POPC   PO4 2931  10.355   4.085   3.821
  209POPC   GL1 2932  10.201   4.173   4.234
  209POPC   GL2 2933  10.303   4.433   4.372
  209POPC   C1A 2934   9.935   4.188   4.607
  209POPC   D2A 2935   9.725   4.338   4.981
  209POPC   C3A 2936   9.937   4.088   5.261
  209POPC   C4A 2937  10.018   4.058   5.652
  209POPC   C1B 2938  10.441   4.087   4.683
  209POPC   C2B 2939  10.422   3.924   5.098
  209POPC   C3B 2940  10.422   4.248   5.400
  209POPC   C4B 2941  10.365   4.398   5.787
  210POPC   NC3 2942   7.940   3.259   3.990
  210POPC   PO4 2943   8.167   3.777   4.066
  210POPC   GL1 2944   8.110   3.495   4.424
  210POPC   GL2 2945   8.099   3.104   4.470
  210POPC   C1A 2946   8.183   3.475   4.864
  210POPC   D2A 2947   8.128   3.150   5.183
  210POPC   C3A 2948   8.058   3.343   5.592
  210POPC   C4A 2949   7.963   3.658   5.938
  210POPC   C1B 2950   7.741   3.258   4.781
  210POPC   C2B 2951   7.634   3.341   5.252
  210POPC   C3B 2952   7.555   3.417   5.712
  210POPC   C4B 2953   7.595   3.384   6.175
  211POPC   NC3 2954   0.306   8.912   4.012
  211POPC   PO4 2955   0.584   8.345   3.942
  211POPC   GL1 2956   0.514   8.509   4.322
  211POPC   GL2 2957   0.165   8.580   4.371
  211POPC   C1A 2958   0.434   8.357   4.726
  211POPC   D2A 2959   0.447   8.094   5.056
  211POPC   C3A 2960   0.434   8.324   5.421
  211POPC   C4A 2961   0.513   8.571   5.778
  211POPC   C1B 2962   0.405   8.898   4.652
  211POPC   C2B 2963   0.429   9.071   5.052
  211POPC   C3B 2964   0.343   8.869   5.404
  211POPC   C4B 2965   0.176   8.968   5.776
  212POPC   NC3 2966   2.332   6.779   3.877
  212POPC   PO4 2967   1.689   6.748   3.953
  212POPC   GL1 2968   1.778   6.822   4.370
  212POPC   GL2 2969   2.069   6.600   4.347
  212POPC   C1A 2970   1.770   6.639   4.793
  212POPC   D2A 2971   1.702   6.438   5.181
  212POPC   C3A 2972   1.741   6.610   5.565
  212POPC   C4A 2973   1.851   6.364   5.963
  212POPC   C1B 2974   2.129   6.266   4.673
  212POPC   C2B 2975   2.177   6.244   5.124
  212POPC   C3B 2976   2.124   6.263   5.550
  212POPC   C4B 2977   2.368   6.406   5.893
  213POPC   NC3 2978  10.107   4.481   3.840
  213POPC   PO4 2979   9.972   5.141   3.688
  213POPC   GL1 2980   9.979   4.897   4.123
  213POPC   GL2 2981  10.300   4.933   4.222
  213POPC   C1A 2982   9.976   4.709   4.605
  213POPC   D2A 2983  10.212   4.479   4.978
  213POPC   C3A 2984  10.015   4.567   5.408
  213POPC   C4A 2985   9.866   4.498   5.857
  213POPC   C1B 2986  10.277   5.118   4.641
  213POPC   C2B 2987  10.151   4.979   5.045
  213POPC   C3B 2988  10.064   5.068   5.473
  213POPC   C4B 2989  10.182   4.884   5.831
  214POPC   NC3 2990   3.345   2.618   3.706
  214POPC   PO4 2991   3.200   3.123   4.103
  214POPC   GL1 2992   3.521   2.793   4.217
  214POPC   GL2 2993   3.332   2.539   4.310
  214POPC   C1A 2994   3.733   2.692   4.643
  214POPC   D2A 2995   3.826   2.879   5.067
  214POPC   C3A 2996   3.699   2.796   5.512
  214POPC   C4A 2997   3.602   2.648   5.942
  214POPC   C1B 2998   3.257   2.822   4.680
  214POPC   C2B 2999   3.260   2.775   5.138
  214POPC   C3B 3000   3.219   2.598   5.568
  214POPC   C4B 3001   3.113   2.834   5.953
  215POPC   NC3 3002   1.446   8.893   3.827
  215POPC   PO4 3003   2.161   9.175   3.835
  215POPC   GL1 3004   2.038   8.958   4.202
  215POPC   GL2 3005   1.800   8.668   4.222
  215POPC   C1A 3006   2.015   8.853   4.641
  215POPC   D2A 3007   1.880   8.691   5.040
  215POPC   C3A 3008   2.093   8.743   5.414
  215POPC   C4A 3009   2.297   8.829   5.771
  215POPC   C1B 3010   1.687   8.436   4.624
  215POPC   C2B 3011   1.677   8.185   4.995
  215POPC   C3B 3012   1.885   8.229   5.373
  215POPC   C4B 3013   2.048   8.361   5.763
  216POPC   NC3 3014   0.454   9.527   3.689
  216POPC   PO4 3015  10.420   9.066   3.791
  216POPC   GL1 3016  10.473   9.170   4.278
  216POPC   GL2 3017   0.333   9.323   4.342
  216POPC   C1A 3018   0.008   9.235   4.741
  216POPC   D2A 3019   0.184   9.539   5.024
  216POPC   C3A 3020   0.275   9.392   5.447
  216POPC   C4A 3021   0.003   9.588   5.731
  216POPC   C1B 3022   0.602   9.416   4.736
  216POPC   C2B 3023   0.686   9.572   5.193
  216POPC   C3B 3024   0.651   9.755   5.665
  216POPC   C4B 3025   0.762   9.675   6.152
  217POPC   NC3 3026   4.203   7.878   3.916
  217POPC   PO4 3027   3.758   8.253   3.778
  217POPC   GL1 3028   3.838   8.058   4.248
  217POPC   GL2 3029   4.181   7.938   4.418
  217POPC   C1A 3030   3.773   7.824   4.680
  217POPC   D2A 3031   3.794   8.037   5.103
  217POPC   C3A 3032   3.885   7.812   5.506
  217POPC   C4A 3033   4.167   7.746   5.865
  217POPC   C1B 3034   4.325   8.093   4.846
  217POPC   C2B 3035   4.317   7.976   5.282
  217POPC   C3B 3036   4.633   7.856   5.612
  217POPC   C4B 3037   4.826   7.678   5.996
  218POPC   NC3 3038   0.613   7.083   4.034
  218POPC   PO4 3039   0.059   7.145   3.670
  218POPC   GL1 3040   0.148   7.156   4.208
  218POPC   GL2 3041   0.410   7.435   4.344
  218POPC   C1A 3042   0.161   7.169   4.696
  218POPC   D2A 3043   0.413   7.333   5.062
  218POPC   C3A 3044   0.318   7.358   5.512
  218POPC   C4A 3045   0.295   7.401   5.967
  218POPC   C1B 3046   0.688   7.159   4.660
  218POPC   C2B 3047   0.882   7.043   5.035
  218POPC   C3B 3048   0.819   7.278   5.389
  218POPC   C4B 3049   0.692   7.133   5.781
  219POPC   NC3 3050   0.841   0.650   4.147
  219POPC   PO4 3051   0.253   0.438   3.866
  219POPC   GL1 3052   0.390   0.378   4.254
  219POPC   GL2 3053   0.113   0.170   4.268
  219POPC   C1A 3054   0.458   0.491   4.676
  219POPC   D2A 3055   0.716   0.481   5.036
  219POPC   C3A 3056   0.764   0.713   5.397
  219POPC   C4A 3057   0.739   0.461   5.772
  219POPC   C1B 3058   0.052   0.144   4.694
  219POPC   C2B 3059   0.102   0.415   5.036
  219POPC   C3B 3060   0.342   0.414   5.392
  219POPC   C4B 3061   0.186   0.365   5.759
  220POPC   NC3 3062   6.295   2.847   4.216
  220POPC   PO4 3063   6.027   2.281   4.019
  220POPC   GL1 3064   6.246   2.360   4.401
  220POPC   GL2 3065   6.594   2.364   4.403
  220POPC   C1A 3066   6.365   2.423   4.839
  220POPC   D2A 3067   6.454   2.683   5.189
  220POPC   C3A 3068   6.281   2.548   5.574
  220POPC   C4A 3069   6.237   2.749   5.995
  220POPC   C1B 3070   6.872   2.386   4.707
  220POPC   C2B 3071   6.837   2.364   5.100
  220POPC   C3B 3072   6.931   2.639   5.402
  220POPC   C4B 3073   6.750   2.627   5.780
  221POPC   NC3 3074   1.743   8.196   3.999
  221POPC   PO4 3075   1.576   7.551   3.970
  221POPC   GL1 3076   1.992   7.751   4.193
  221POPC   GL2 3077   1.992   8.077   4.413
  221POPC   C1A 3078   2.246   7.704   4.634
  221POPC   D2A 3079   2.196   7.950   5.010
  221POPC   C3A 3080   2.137   7.713   5.390
  221POPC   C4A 3081   2.149   7.439   5.742
  221POPC   C1B 3082   1.747   7.788   4.665
  221POPC   C2B 3083   1.750   7.590   5.051
  221POPC   C3B 3084   1.632   7.647   5.462
  221POPC   C4B 3085   1.818   7.899   5.767
  222POPC   NC3 3086   1.076   7.825   3.928
  222POPC   PO4 3087   1.373   8.478   4.006
  222POPC   GL1 3088   1.307   8.239   4.345
  222POPC   GL2 3089   1.444   7.919   4.281
  222POPC   C1A 3090   1.174   8.270   4.779
  222POPC   D2A 3091   0.952   8.197   5.172
  222POPC   C3A 3092   1.271   8.262   5.493
  222POPC   C4A 3093   1.528   8.308   5.880
  222POPC   C1B 3094   1.233   7.792   4.610
  222POPC   C2B 3095   1.296   7.819   5.030
  222POPC   C3B 3096   1.120   7.776   5.405
  222POPC   C4B 3097   1.291   7.852   5.783
  223POPC   NC3 3098   0.205   7.929   3.878
  223POPC   PO4 3099   0.760   7.855   3.597
  223POPC   GL1 3100   0.636   7.875   4.151
  223POPC   GL2 3101   0.333   8.003   4.356
  223POPC   C1A 3102   0.745   7.936   4.631
  223POPC   D2A 3103   0.807   7.652   4.995
  223POPC   C3A 3104   0.617   7.773   5.402
  223POPC   C4A 3105   0.776   8.086   5.705
  223POPC   C1B 3106   0.234   7.740   4.741
  223POPC   C2B 3107   0.088   7.721   5.188
  223POPC   C3B 3108   0.162   7.825   5.632
  223POPC   C4B 3109   0.162   8.203   5.855
  224POPC   NC3 3110  10.191   3.714   4.036
  224POPC   PO4 3111   9.821   3.270   3.595
  224POPC   GL1 3112   9.873   3.205   4.117
  224POPC   GL2 3113  10.197   3.236   4.225
  224POPC   C1A 3114   9.921   3.380   4.618
  224POPC   D2A 3115  10.194   3.431   5.035
  224POPC   C3A 3116  10.106   3.582   5.482
  224POPC   C4A 3117   9.895   3.659   5.925
  224POPC   C1B 3118  10.446   3.043   4.524
  224POPC   C2B 3119   0.018   3.039   4.969
  224POPC   C3B 3120  10.344   3.080   5.402
  224POPC   C4B 3121  10.339   3.257   5.847
  225POPC   NC3 3122   1.770   0.556   3.952
  225POPC   PO4 3123   2.310   0.850   3.883
  225POPC   GL1 3124   2.217   0.581   4.249
  225POPC   GL2 3125   1.841   0.509   4.433
  225POPC   C1A 3126   2.224   0.698   4.669
  225POPC   D2A 3127   1.940   0.520   4.943
  225POPC   C3A 3128   2.096   0.632   5.329
  225POPC   C4A 3129   2.148   0.522   5.767
  225POPC   C1B 3130   1.567   0.204   4.665
  225POPC   C2B 3131   1.660   0.091   5.082
  225POPC   C3B 3132   1.626   0.452   5.353
  225POPC   C4B 3133   1.632   0.562   5.761
  226POPC   NC3 3134   7.210   1.508   3.852
  226POPC   PO4 3135   7.827   1.838   3.787
  226POPC   GL1 3136   7.603   1.612   4.171
  226POPC   GL2 3137   7.318   1.835   4.267
  226POPC   C1A 3138   7.550   1.577   4.651
  226POPC   D2A 3139   7.586   1.663   5.123
  226POPC   C3A 3140   7.220   1.681   5.441
  226POPC   C4A 3141   7.205   1.794   5.877
  226POPC   C1B 3142   7.156   1.951   4.692
  226POPC   C2B 3143   7.265   2.088   5.128
  226POPC   C3B 3144   7.104   2.176   5.566
  226POPC   C4B 3145   6.933   2.208   6.024
  227POPC   NC3 3146   7.867   7.951   3.995
  227POPC   PO4 3147   8.422   7.577   4.006
  227POPC   GL1 3148   8.188   7.656   4.370
  227POPC   GL2 3149   7.888   7.898   4.481
  227POPC   C1A 3150   8.084   7.559   4.778
  227POPC   D2A 3151   8.174   7.792   5.150
  227POPC   C3A 3152   8.124   7.572   5.540
  227POPC   C4A 3153   7.924   7.576   5.924
  227POPC   C1B 3154   7.645   7.818   4.818
  227POPC   C2B 3155   7.705   7.983   5.210
  227POPC   C3B 3156   7.660   7.919   5.647
  227POPC   C4B 3157   7.751   8.076   6.082
  228POPC   NC3 3158   4.313   2.743   3.887
  228POPC   PO4 3159   3.760   2.323   3.850
  228POPC   GL1 3160   3.814   2.307   4.282
  228POPC   GL2 3161   4.112   2.511   4.316
  228POPC   C1A 3162   3.928   2.241   4.722
  228POPC   D2A 3163   4.122   2.410   5.119
  228POPC   C3A 3164   4.180   2.606   5.508
  228POPC   C4A 3165   4.074   2.483   5.887
  228POPC   C1B 3166   4.250   2.693   4.726
  228POPC   C2B 3167   4.334   2.918   5.132
  228POPC   C3B 3168   4.302   3.093   5.567
  228POPC   C4B 3169   4.490   2.882   5.959
  229POPC   NC3 3170   9.676   5.376   3.958
  229POPC   PO4 3171   9.127   5.109   3.657
  229POPC   GL1 3172   9.247   4.946   4.188
  229POPC   GL2 3173   9.537   5.065   4.317
  229POPC   C1A 3174   9.180   5.082   4.666
  229POPC   D2A 3175   9.343   5.305   5.070
  229POPC   C3A 3176   9.213   5.143   5.509
  229POPC   C4A 3177   9.102   5.151   5.968
  229POPC   C1B 3178   9.700   5.123   4.730
  229POPC   C2B 3179   9.655   4.879   5.127
  229POPC   C3B 3180   9.545   4.749   5.552
  229POPC   C4B 3181   9.462   4.769   6.017
  230POPC   NC3 3182   7.951   7.188   3.867
  230POPC   PO4 3183   7.493   7.697   3.859
  230POPC   GL1 3184   7.694   7.487   4.286
  230POPC   GL2 3185   7.961   7.216   4.374
  230POPC   C1A 3186   7.626   7.314   4.746
  230POPC   D2A 3187   7.768   7.452   5.191
  230POPC   C3A 3188   7.548   7.401   5.619
  230POPC   C4A 3189   7.573   7.186   6.051
  230POPC   C1B 3190   8.086   7.019   4.777
  230POPC   C2B 3191   8.020   6.897   5.260
  230POPC   C3B 3192   7.973   7.058   5.734
  230POPC   C4B 3193   8.075   7.171   6.199
  231POPC   NC3 3194  10.457   6.339   3.944
  231POPC   PO4 3195   9.957   6.067   4.065
  231POPC   GL1 3196  10.166   6.305   4.363
  231POPC   GL2 3197  10.164   6.663   4.269
  231POPC   C1A 3198  10.318   6.280   4.780
  231POPC   D2A 3199  10.070   6.332   5.127
  231POPC   C3A 3200  10.246   6.088   5.444
  231POPC   C4A 3201  10.272   6.180   5.830
  231POPC   C1B 3202  10.325   6.776   4.714
  231POPC   C2B 3203  10.430   6.689   5.157
  231POPC   C3B 3204  10.148   6.599   5.562
  231POPC   C4B 3205   9.940   6.491   6.002
  232POPC   NC3 3206   5.657  10.333   3.975
  232POPC   PO4 3207   5.953   9.782   3.913
  232POPC   GL1 3208   5.838   9.963   4.295
  232POPC   GL2 3209   5.476  10.005   4.308
  232POPC   C1A 3210   5.792  10.097   4.717
  232POPC   D2A 3211   5.851  10.242   5.135
  232POPC   C3A 3212   6.053   9.978   5.454
  232POPC   C4A 3213   5.806  10.237   5.719
  232POPC   C1B 3214   5.180   9.943   4.624
  232POPC   C2B 3215   5.354  10.016   5.013
  232POPC   C3B 3216   5.534   9.935   5.395
  232POPC   C4B 3217   5.278   9.897   5.776
  233POPC   NC3 3218   0.562  10.491   3.934
  233POPC   PO4 3219   0.242   9.985   3.562
  233POPC   GL1 3220   0.227   9.810   4.166
  233POPC   GL2 3221   0.274  10.198   4.334
  233POPC   C1A 3222   0.398   9.866   4.659
  233POPC   D2A 3223   0.534  10.032   5.060
  233POPC   C3A 3224   0.250   9.903   5.381
  233POPC   C4A 3225   0.232  10.069   5.772
  233POPC   C1B 3226   0.542  10.452   4.604
  233POPC   C2B 3227   0.441   0.042   5.016
  233POPC   C3B 3228   0.286  10.414   5.387
  233POPC   C4B 3229   0.532   0.001   5.719
  234POPC   NC3 3230   0.006  10.162   3.923
  234POPC   PO4 3231  10.122   0.154   4.028
  234POPC   GL1 3232  10.219  10.363   4.346
  234POPC   GL2 3233  10.021  10.089   4.430
  234POPC   C1A 3234  10.112  10.403   4.787
  234POPC   D2A 3235  10.015   0.129   5.099
  234POPC   C3A 3236  10.336   0.193   5.409
  234POPC   C4A 3237  10.423  10.456   5.792
  234POPC   C1B 3238  10.391   9.959   4.620
  234POPC   C2B 3239   0.046  10.169   4.975
  234POPC   C3B 3240  10.316  10.186   5.359
  234POPC   C4B 3241  10.158  10.041   5.771
  235POPC   NC3 3242   3.407   0.572   3.966
  235POPC   PO4 3243   3.324  10.434   3.822
  235POPC   GL1 3244   3.518   0.018   4.259
  235POPC   GL2 3245   3.429   0.341   4.406
  235POPC   C1A 3246   3.634   0.049   4.749
  235POPC   D2A 3247   3.307   0.027   5.110
  235POPC   C3A 3248   3.402   0.182   5.540
  235POPC   C4A 3249   3.533   0.319   5.961
  235POPC   C1B 3250   3.094   0.269   4.703
  235POPC   C2B 3251   2.937   0.484   5.040
  235POPC   C3B 3252   2.963   0.369   5.438
  235POPC   C4B 3253   3.157   0.599   5.760
  236POPC   NC3 3254   9.694   6.368   3.834
  236POPC   PO4 3255   9.160   6.640   4.132
  236POPC   GL1 3256   9.626   6.550   4.297
  236POPC   GL2 3257   9.624   6.186   4.441
  236POPC   C1A 3258   9.861   6.541   4.686
  236POPC   D2A 3259   9.548   6.647   4.970
  236POPC   C3A 3260   9.655   6.528   5.350
  236POPC   C4A 3261   9.642   6.733   5.691
  236POPC   C1B 3262   9.623   6.157   4.931
  236POPC   C2B 3263   9.221   6.307   5.186
  236POPC   C3B 3264   9.217   6.419   5.619
  236POPC   C4B 3265   9.587   6.202   5.753
  237POPC   NC3 3266   1.195   4.585   3.963
  237POPC   PO4 3267   0.859   5.172   3.888
  237POPC   GL1 3268   1.153   4.972   4.299
  237POPC   GL2 3269   1.439   4.685   4.395
  237POPC   C1A 3270   1.079   4.793   4.758
  237POPC   D2A 3271   0.970   5.057   5.129
  237POPC   C3A 3272   1.053   4.958   5.579
  237POPC   C4A 3273   1.312   5.151   5.936
  237POPC   C1B 3274   1.545   4.955   4.734
  237POPC   C2B 3275   1.484   5.121   5.139
  237POPC   C3B 3276   1.550   4.901   5.523
  237POPC   C4B 3277   1.343   4.541   5.730
  238POPC   NC3 3278   8.605   8.413   4.047
  238POPC   PO4 3279   8.296   8.936   4.074
  238POPC   GL1 3280   8.533   8.768   4.400
  238POPC   GL2 3281   8.894   8.718   4.326
  238POPC   C1A 3282   8.698   8.818   4.782
  238POPC   D2A 3283   8.595   8.615   5.129
  238POPC   C3A 3284   8.741   8.832   5.431
  238POPC   C4A 3285   8.525   8.985   5.740
  238POPC   C1B 3286   8.905   8.370   4.691
  238POPC   C2B 3287   9.079   8.163   5.076
  238POPC   C3B 3288   8.894   8.336   5.474
  238POPC   C4B 3289   8.472   8.470   5.679
  239POPC   NC3 3290   7.210   8.044   3.760
  239POPC   PO4 3291   7.013   8.741   3.851
  239POPC   GL1 3292   6.983   8.700   4.295
  239POPC   GL2 3293   7.186   8.467   4.328
  239POPC   C1A 3294   6.982   8.893   4.700
  239POPC   D2A 3295   7.196   8.961   5.096
  239POPC   C3A 3296   6.993   8.652   5.349
  239POPC   C4A 3297   6.810   8.569   5.748
  239POPC   C1B 3298   7.459   8.690   4.650
  239POPC   C2B 3299   7.703   8.786   5.033
  239POPC   C3B 3300   7.560   8.873   5.471
  239POPC   C4B 3301   7.305   8.629   5.754
  240POPC   NC3 3302   4.210   1.001   3.860
  240POPC   PO4 3303   3.788   1.560   3.940
  240POPC   GL1 3304   3.949   1.222   4.230
  240POPC   GL2 3305   4.285   1.141   4.329
  240POPC   C1A 3306   3.932   1.227   4.690
  240POPC   D2A 3307   4.168   1.304   5.081
  240POPC   C3A 3308   4.070   1.112   5.471
  240POPC   C4A 3309   3.950   1.262   5.869
  240POPC   C1B 3310   4.350   0.955   4.716
  240POPC   C2B 3311   4.149   0.749   5.029
  240POPC   C3B 3312   4.259   0.633   5.400
  240POPC   C4B 3313   4.299   0.778   5.808
  241POPC   NC3 3314   9.920   9.353   3.869
  241POPC   PO4 3315  10.079   9.991   3.958
  241POPC   GL1 3316   9.809   9.695   4.210
  241POPC   GL2 3317  10.156   9.583   4.304
  241POPC   C1A 3318   9.807   9.696   4.659
  241POPC   D2A 3319  10.162   9.593   4.936
  241POPC   C3A 3320  10.155   9.695   5.374
  241POPC   C4A 3321   9.932   9.600   5.776
  241POPC   C1B 3322  10.002   9.233   4.547
  241POPC   C2B 3323  10.054   9.078   4.971
  241POPC   C3B 3324  10.324   9.195   5.289
  241POPC   C4B 3325  10.200   9.176   5.701
  242POPC   NC3 3326   6.329   7.747   3.926
  242POPC   PO4 3327   6.344   8.373   4.056
  242POPC   GL1 3328   6.566   8.304   4.405
  242POPC   GL2 3329   6.540   7.969   4.359
  242POPC   C1A 3330   6.837   8.400   4.718
  242POPC   D2A 3331   6.936   8.187   5.074
  242POPC   C3A 3332   6.691   8.198   5.422
  242POPC   C4A 3333   6.743   8.066   5.821
  242POPC   C1B 3334   6.532   7.989   4.819
  242POPC   C2B 3335   6.580   7.761   5.196
  242POPC   C3B 3336   6.414   7.745   5.615
  242POPC   C4B 3337   6.543   7.598   6.031
  243POPC   NC3 3338   8.593   0.808   4.028
  243POPC   PO4 3339   8.527   1.507   3.948
  243POPC   GL1 3340   8.700   1.251   4.270
  243POPC   GL2 3341   8.984   1.403   4.316
  243POPC   C1A 3342   8.900   1.034   4.661
  243POPC   D2A 3343   8.710   1.007   5.089
  243POPC   C3A 3344   8.789   0.788   5.473
  243POPC   C4A 3345   8.661   0.968   5.841
  243POPC   C1B 3346   8.735   1.542   4.716
  243POPC   C2B 3347   8.790   1.503   5.171
  243POPC   C3B 3348   8.589   1.388   5.560
  243POPC   C4B 3349   8.530   1.427   6.040
  244POPC   NC3 3350   2.581   9.446   3.781
  244POPC   PO4 3351   2.936   8.933   4.032
  244POPC   GL1 3352   2.546   9.156   4.224
  244POPC   GL2 3353   2.654   9.491   4.283
  244POPC   C1A 3354   2.298   9.287   4.609
  244POPC   D2A 3355   2.328   9.046   5.012
  244POPC   C3A 3356   2.277   9.227   5.412
  244POPC   C4A 3357   2.485   9.287   5.826
  244POPC   C1B 3358   2.822   9.365   4.681
  244POPC   C2B 3359   2.826   9.567   5.081
  244POPC   C3B 3360   2.590   9.627   5.461
  244POPC   C4B 3361   2.723   9.735   5.891
  245POPC   NC3 3362   5.830   8.587   4.041
  245POPC   PO4 3363   5.353   8.235   4.087
  245POPC   GL1 3364   5.329   8.641   4.310
  245POPC   GL2 3365   5.626   8.814   4.442
  245POPC   C1A 3366   5.263   8.702   4.759
  245POPC   D2A 3367   5.452   8.485   5.094
  245POPC   C3A 3368   5.302   8.632   5.454
  245POPC   C4A 3369   5.449   8.677   5.854
  245POPC   C1B 3370   5.816   8.638   4.753
  245POPC   C2B 3371   5.965   8.597   5.160
  245POPC   C3B 3372   5.822   8.478   5.531
  245POPC   C4B 3373   5.962   8.680   5.905
  246POPC   NC3 3374   9.477   3.060   3.819
  246POPC   PO4 3375   9.719   3.686   4.046
  246POPC   GL1 3376   9.458   3.429   4.330
  246POPC   GL2 3377   9.405   3.047   4.329
  246POPC   C1A 3378   9.419   3.588   4.734
  246POPC   D2A 3379   9.731   3.695   5.028
  246POPC   C3A 3380   9.595   3.724   5.462
  246POPC   C4A 3381   9.486   3.391   5.750
  246POPC   C1B 3382   9.541   3.076   4.783
  246POPC   C2B 3383   9.538   3.238   5.234
  246POPC   C3B 3384   9.171   3.091   5.493
  246POPC   C4B 3385   9.050   3.131   5.900
  247POPC   NC3 3386   0.319   1.481   3.954
  247POPC   PO4 3387   0.897   1.813   4.037
  247POPC   GL1 3388   0.677   1.563   4.315
  247POPC   GL2 3389   0.440   1.832   4.319
  247POPC   C1A 3390   0.605   1.706   4.742
  247POPC   D2A 3391   0.489   1.948   5.068
  247POPC   C3A 3392   0.590   1.732   5.407
  247POPC   C4A 3393   0.747   1.654   5.805
  247POPC   C1B 3394   0.248   2.136   4.603
  247POPC   C2B 3395   0.031   2.147   5.011
  247POPC   C3B 3396   0.196   2.203   5.426
  247POPC   C4B 3397   0.316   1.953   5.790
  248POPC   NC3 3398   9.438   0.164   3.786
  248POPC   PO4 3399   9.065   0.717   4.015
  248POPC   GL1 3400   9.261   0.412   4.327
  248POPC   GL2 3401   9.558   0.221   4.285
  248POPC   C1A 3402   9.263   0.616   4.721
  248POPC   D2A 3403   9.212   0.890   5.071
  248POPC   C3A 3404   9.284   0.692   5.471
  248POPC   C4A 3405   9.583   0.650   5.759
  248POPC   C1B 3406   9.341   0.090   4.714
  248POPC   C2B 3407   9.511  10.482   5.106
  248POPC   C3B 3408   9.484   0.194   5.505
  248POPC   C4B 3409   9.254   0.154   5.876
  249POPC   NC3 3410   8.646   3.186   3.865
  249POPC   PO4 3411   8.822   3.891   3.818
  249POPC   GL1 3412   8.687   3.614   4.182
  249POPC   GL2 3413   8.958   3.347   4.237
  249POPC   C1A 3414   8.573   3.343   4.561
  249POPC   D2A 3415   8.617   3.243   5.020
  249POPC   C3A 3416   8.435   3.555   5.298
  249POPC   C4A 3417   8.423   3.705   5.709
  249POPC   C1B 3418   9.053   3.218   4.667
  249POPC   C2B 3419   9.100   3.399   5.080
  249POPC   C3B 3420   8.905   3.506   5.482
  249POPC   C4B 3421   8.581   3.215   5.660
  250POPC   NC3 3422  10.224   5.726   3.838
  250POPC   PO4 3423   0.314   5.564   3.958
  250POPC   GL1 3424   0.122   5.586   4.361
  250POPC   GL2 3425  10.361   5.821   4.317
  250POPC   C1A 3426  10.496   5.547   4.797
  250POPC   D2A 3427  10.499   5.333   5.189
  250POPC   C3A 3428  10.247   5.546   5.463
  250POPC   C4A 3429  10.450   5.728   5.777
  250POPC   C1B 3430  10.103   5.841   4.638
  250POPC   C2B 3431  10.111   5.836   5.038
  250POPC   C3B 3432   9.783   5.892   5.345
  250POPC   C4B 3433   9.910   5.816   5.757
  251POPC   NC3 3434   9.047   9.845   3.676
  251POPC   PO4 3435   9.468   9.329   3.785
  251POPC   GL1 3436   9.294   9.447   4.157
  251POPC   GL2 3437   9.490   9.191   4.303
  251POPC   C1A 3438   9.305   9.658   4.555
  251POPC   D2A 3439   9.350   9.832   4.980
  251POPC   C3A 3440   9.280   9.633   5.365
  251POPC   C4A 3441   9.492   9.831   5.710
  251POPC   C1B 3442   9.507   9.246   4.725
  251POPC   C2B 3443   9.665   9.426   5.048
  251POPC   C3B 3444   9.803   9.329   5.376
  251POPC   C4B 3445   9.540   9.294   5.699
  252POPC   NC3 3446   3.090   5.506   4.064
  252POPC   PO4 3447   2.450   5.501   3.941
  252POPC   GL1 3448   2.616   5.590   4.303
  252POPC   GL2 3449   2.575   5.936   4.418
  252POPC   C1A 3450   2.653   5.504   4.733
  252POPC   D2A 3451   2.418   5.385   5.075
  252POPC   C3A 3452   2.656   5.306   5.476
  252POPC   C4A 3453   2.613   5.352   5.939
  252POPC   C1B 3454   2.590   5.994   4.880
  252POPC   C2B 3455   2.768   5.749   5.218
  252POPC   C3B 3456   2.799   5.769   5.663
  252POPC   C4B 3457   2.832   6.152   5.938
  253POPC   NC3 3458   2.065   3.417   3.820
  253POPC   PO4 3459   1.462   3.301   4.063
  253POPC   GL1 3460   1.827   3.235   4.239
  253POPC   GL2 3461   1.922   3.547   4.311
  253POPC   C1A 3462   1.912   3.143   4.660
  253POPC   D2A 3463   1.690   3.267   5.052
  253POPC   C3A 3464   1.858   3.217   5.462
  253POPC   C4A 3465   2.136   3.491   5.684
  253POPC   C1B 3466   1.827   3.651   4.733
  253POPC   C2B 3467   2.067   3.606   5.129
  253POPC   C3B 3468   1.750   3.723   5.395
  253POPC   C4B 3469   1.664   3.682   5.796
  254POPC   NC3 3470   0.287   4.195   3.815
  254POPC   PO4 3471   0.934   4.175   3.874
  254POPC   GL1 3472   0.581   4.303   4.206
  254POPC   GL2 3473   0.231   4.159   4.292
  254POPC   C1A 3474   0.490   4.390   4.650
  254POPC   D2A 3475   0.245   4.342   5.019
  254POPC   C3A 3476   0.394   4.446   5.417
  254POPC   C4A 3477   0.373   4.257   5.802
  254POPC   C1B 3478   0.466   3.881   4.558
  254POPC   C2B 3479   0.553   3.918   4.994
  254POPC   C3B 3480   0.348   3.937   5.395
  254POPC   C4B 3481   0.010   3.880   5.740
  255POPC   NC3 3482   4.962   1.276   3.851
  255POPC   PO4 3483   4.568   0.753   3.663
  255POPC   GL1 3484   4.710   0.943   4.097
  255POPC   GL2 3485   4.995   0.836   4.263
  255POPC   C1A 3486   4.754   1.222   4.490
  255POPC   D2A 3487   4.668   1.291   4.936
  255POPC   C3A 3488   4.564   1.015   5.281
  255POPC   C4A 3489   4.512   1.219   5.711
  255POPC   C1B 3490   5.006   0.826   4.702
  255POPC   C2B 3491   5.096   1.050   5.092
  255POPC   C3B 3492   4.972   1.243   5.473
  255POPC   C4B 3493   4.986   0.980   5.817
  256POPC   NC3 3494   7.937   8.723   3.862
  256POPC   PO4 3495   7.520   8.244   4.028
  256POPC   GL1 3496   7.796   8.386   4.336
  256POPC   GL2 3497   7.892   8.744   4.372
  256POPC   C1A 3498   7.844   8.311   4.785
  256POPC   D2A 3499   8.099   8.352   5.153
  256POPC   C3A 3500   7.800   8.403   5.479
  256POPC   C4A 3501   7.770   8.536   5.875
  256POPC   C1B 3502   8.167   8.707   4.752
  256POPC   C2B 3503   8.178   8.924   5.151
  256POPC   C3B 3504   8.067   8.848   5.584
  256POPC   C4B 3505   8.073   8.887   6.054
  257POPC   NC3 3506   2.805   4.427   3.649
  257POPC   PO4 3507   2.342   4.679   4.053
  257POPC   GL1 3508   2.246   4.457   4.433
  257POPC   GL2 3509   2.510   4.222   4.358
  257POPC   C1A 3510   2.243   4.508   4.894
  257POPC   D2A 3511   2.573   4.534   5.198
  257POPC   C3A 3512   2.634   4.276   5.550
  257POPC   C4A 3513   2.584   4.410   5.984
  257POPC   C1B 3514   2.650   4.216   4.790
  257POPC   C2B 3515   2.967   4.160   5.092
  257POPC   C3B 3516   3.149   4.236   5.496
  257POPC   C4B 3517   3.007   4.146   5.912
  258POPC   NC3 3518   5.670   1.300   3.823
  258POPC   PO4 3519   5.287   0.846   3.864
  258POPC   GL1 3520   5.494   1.001   4.248
  258POPC   GL2 3521   5.771   1.246   4.322
  258POPC   C1A 3522   5.370   1.179   4.663
  258POPC   D2A 3523   5.620   1.279   5.059
  258POPC   C3A 3524   5.465   1.297   5.498
  258POPC   C4A 3525   5.365   1.365   5.963
  258POPC   C1B 3526   5.819   0.939   4.652
  258POPC   C2B 3527   6.050   0.976   5.020
  258POPC   C3B 3528   5.883   1.008   5.426
  258POPC   C4B 3529   5.815   1.093   5.852
  259POPC   NC3 3530   9.265   5.889   4.074
  259POPC   PO4 3531   9.789   5.744   3.700
  259POPC   GL1 3532   9.703   5.708   4.308
  259POPC   GL2 3533   9.383   5.591   4.470
  259POPC   C1A 3534   9.681   5.654   4.832
  259POPC   D2A 3535   9.876   5.400   5.119
  259POPC   C3A 3536   9.685   5.405   5.476
  259POPC   C4A 3537   9.669   5.174   5.826
  259POPC   C1B 3538   9.233   5.952   4.720
  259POPC   C2B 3539   9.269   5.810   5.148
  259POPC   C3B 3540   9.197   5.902   5.568
  259POPC   C4B 3541   9.328   5.561   5.787
  260POPC   NC3 3542   6.115   9.350   3.932
  260POPC   PO4 3543   5.530   9.004   3.994
  260POPC   GL1 3544   5.717   9.279   4.278
  260POPC   GL2 3545   5.572   9.533   4.158
  260POPC   C1A 3546   5.795   9.193   4.743
  260POPC   D2A 3547   5.606   8.979   5.084
  260POPC   C3A 3548   5.732   8.983   5.505
  260POPC   C4A 3549   5.670   9.140   5.908
  260POPC   C1B 3550   5.552   9.621   4.641
  260POPC   C2B 3551   5.406   9.501   5.098
  260POPC   C3B 3552   5.478   9.481   5.572
  260POPC   C4B 3553   5.775   9.742   5.835
  261POPC   NC3 3554   9.367   7.006   3.923
  261POPC   PO4 3555   9.689   7.613   3.826
  261POPC   GL1 3556   9.560   7.606   4.256
  261POPC   GL2 3557   9.355   7.333   4.329
  261POPC   C1A 3558   9.654   7.486   4.691
  261POPC   D2A 3559   9.773   7.389   5.102
  261POPC   C3A 3560   9.544   7.162   5.378
  261POPC   C4A 3561   9.601   7.221   5.809
  261POPC   C1B 3562   9.131   7.402   4.704
  261POPC   C2B 3563   9.284   7.094   4.946
  261POPC   C3B 3564   9.183   6.812   5.277
  261POPC   C4B 3565   9.188   6.937   5.677
  262POPC   NC3 3566   2.707   1.849   3.666
  262POPC   PO4 3567   2.995   2.401   3.958
  262POPC   GL1 3568   2.825   2.144   4.393
  262POPC   GL2 3569   2.674   1.766   4.555
  262POPC   C1A 3570   2.720   2.168   4.855
  262POPC   D2A 3571   3.004   2.302   5.195
  262POPC   C3A 3572   2.984   2.129   5.622
  262POPC   C4A 3573   2.801   2.054   6.028
  262POPC   C1B 3574   2.402   1.725   4.864
  262POPC   C2B 3575   2.301   2.019   5.128
  262POPC   C3B 3576   2.516   2.031   5.475
  262POPC   C4B 3577   2.468   1.739   5.769
  263POPC   NC3 3578   4.095   1.992   3.920
  263POPC   PO4 3579   4.590   1.563   3.844
  263POPC   GL1 3580   4.293   1.655   4.263
  263POPC   GL2 3581   4.252   2.021   4.384
  263POPC   C1A 3582   4.115   1.714   4.750
  263POPC   D2A 3583   3.889   1.947   5.117
  263POPC   C3A 3584   3.879   1.775   5.519
  263POPC   C4A 3585   4.228   1.643   5.712
  263POPC   C1B 3586   4.442   2.186   4.744
  263POPC   C2B 3587   4.401   1.980   5.128
  263POPC   C3B 3588   4.319   2.118   5.539
  263POPC   C4B 3589   4.581   2.386   5.815
  264POPC   NC3 3590   2.976  10.171   3.932
  264POPC   PO4 3591   2.375   0.046   3.918
  264POPC   GL1 3592   2.640  10.382   4.258
  264POPC   GL2 3593   2.631  10.002   4.262
  264POPC   C1A 3594   2.790  10.334   4.697
  264POPC   D2A 3595   2.772  10.492   5.125
  264POPC   C3A 3596   3.009  10.363   5.495
  264POPC   C4A 3597   2.911  10.199   5.889
  264POPC   C1B 3598   2.475   9.830   4.663
  264POPC   C2B 3599   2.550  10.010   5.084
  264POPC   C3B 3600   2.529  10.138   5.524
  264POPC   C4B 3601   2.378  10.095   5.970
  265POPC   NC3 3602   4.278   0.375   3.753
  265POPC   PO4 3603   3.771   0.829   3.812
  265POPC   GL1 3604   3.834   0.686   4.250
  265POPC   GL2 3605   3.952   0.320   4.264
  265POPC   C1A 3606   3.753   0.651   4.702
  265POPC   D2A 3607   3.559   0.465   5.081
  265POPC   C3A 3608   3.799   0.481   5.475
  265POPC   C4A 3609   3.792   0.778   5.813
  265POPC   C1B 3610   4.173   0.351   4.676
  265POPC   C2B 3611   4.038   0.227   5.053
  265POPC   C3B 3612   4.219   0.093   5.387
  265POPC   C4B 3613   4.273   0.282   5.761
  266POPC   NC3 3614   1.307   6.997   3.875
  266POPC   PO4 3615   0.921   7.416   4.099
  266POPC   GL1 3616   1.086   7.073   4.320
  266POPC   GL2 3617   1.428   7.228   4.339
  266POPC   C1A 3618   1.312   6.844   4.636
  266POPC   D2A 3619   1.277   6.696   5.057
  266POPC   C3A 3620   1.254   6.888   5.491
  266POPC   C4A 3621   1.356   6.983   5.951
  266POPC   C1B 3622   1.209   7.323   4.764
  266POPC   C2B 3623   1.313   7.320   5.209
  266POPC   C3B 3624   1.222   7.367   5.665
  266POPC   C4B 3625   0.845   7.597   5.833
  267POPC   NC3 3626   7.840   2.296   3.833
  267POPC   PO4 3627   8.232   2.908   3.897
  267POPC   GL1 3628   8.105   2.594   4.219
  267POPC   GL2 3629   7.743   2.575   4.264
  267POPC   C1A 3630   8.082   2.407   4.630
  267POPC   D2A 3631   8.149   2.660   5.003
  267POPC   C3A 3632   8.073   2.476   5.407
  267POPC   C4A 3633   7.776   2.449   5.779
  267POPC   C1B 3634   7.729   2.762   4.676
  267POPC   C2B 3635   7.680   2.861   5.100
  267POPC   C3B 3636   7.811   2.898   5.498
  267POPC   C4B 3637   7.686   2.954   5.875
  268POPC   NC3 3638   1.724   9.323   3.837
  268POPC   PO4 3639   1.590   9.989   3.726
  268POPC   GL1 3640   1.873   9.853   4.143
  268POPC   GL2 3641   2.049   9.514   4.192
  268POPC   C1A 3642   1.956   9.742   4.636
  268POPC   D2A 3643   2.189   9.607   5.039
  268POPC   C3A 3644   1.945   9.611   5.438
  268POPC   C4A 3645   2.090   9.625   5.874
  268POPC   C1B 3646   1.755   9.288   4.492
  268POPC   C2B 3647   1.846   9.233   4.926
  268POPC   C3B 3648   1.737   9.129   5.323
  268POPC   C4B 3649   1.894   9.158   5.729
  269POPC   NC3 3650   9.082   1.633   3.868
  269POPC   PO4 3651   9.053   2.340   3.832
  269POPC   GL1 3652   8.872   2.231   4.269
  269POPC   GL2 3653   8.740   1.872   4.290
  269POPC   C1A 3654   8.921   2.202   4.744
  269POPC   D2A 3655   8.718   2.008   5.107
  269POPC   C3A 3656   8.685   2.218   5.523
  269POPC   C4A 3657   8.633   1.857   5.793
  269POPC   C1B 3658   8.467   2.021   4.648
  269POPC   C2B 3659   8.208   2.107   5.025
  269POPC   C3B 3660   8.230   1.992   5.451
  269POPC   C4B 3661   8.221   2.174   5.839
  270POPC   NC3 3662   2.851   2.837   3.996
  270POPC   PO4 3663   2.355   2.385   4.219
  270POPC   GL1 3664   2.495   2.754   4.354
  270POPC   GL2 3665   2.828   2.654   4.448
  270POPC   C1A 3666   2.447   2.965   4.725
  270POPC   D2A 3667   2.190   3.080   5.069
  270POPC   C3A 3668   2.265   2.899   5.420
  270POPC   C4A 3669   2.387   3.001   5.826
  270POPC   C1B 3670   2.824   2.656   4.855
  270POPC   C2B 3671   2.729   2.840   5.203
  270POPC   C3B 3672   2.654   2.551   5.491
  270POPC   C4B 3673   2.712   2.533   5.872
  271POPC   NC3 3674  10.143   8.715   3.620
  271POPC   PO4 3675  10.162   8.063   3.678
  271POPC   GL1 3676  10.133   8.367   4.085
  271POPC   GL2 3677  10.222   8.722   4.136
  271POPC   C1A 3678   9.948   8.377   4.533
  271POPC   D2A 3679  10.014   8.536   4.986
  271POPC   C3A 3680   9.944   8.352   5.373
  271POPC   C4A 3681   9.914   8.443   5.774
  271POPC   C1B 3682  10.271   8.786   4.600
  271POPC   C2B 3683  10.484   8.767   5.026
  271POPC   C3B 3684  10.335   8.703   5.483
  271POPC   C4B 3685  10.273   8.748   5.958
  272POPC   NC3 3686   8.884   4.770   3.913
  272POPC   PO4 3687   9.193   5.422   4.069
  272POPC   GL1 3688   8.831   5.275   4.338
  272POPC   GL2 3689   8.742   4.953   4.342
  272POPC   C1A 3690   8.646   5.174   4.767
  272POPC   D2A 3691   8.912   5.039   5.095
  272POPC   C3A 3692   8.701   5.039   5.453
  272POPC   C4A 3693   8.786   4.806   5.809
  272POPC   C1B 3694   8.828   4.698   4.698
  272POPC   C2B 3695   8.623   4.637   5.047
  272POPC   C3B 3696   8.562   4.549   5.414
  272POPC   C4B 3697   8.310   4.761   5.681
  273POPC   NC3 3698  10.191   3.049   3.736
  273POPC   PO4 3699   9.762   2.693   3.930
  273POPC   GL1 3700  10.086   2.743   4.278
  273POPC   GL2 3701  10.368   2.538   4.251
  273POPC   C1A 3702  10.036   2.889   4.752
  273POPC   D2A 3703   9.913   2.910   5.200
  273POPC   C3A 3704   9.902   3.116   5.629
  273POPC   C4A 3705   9.942   2.817   5.982
  273POPC   C1B 3706  10.438   2.558   4.709
  273POPC   C2B 3707  10.306   2.605   5.127
  273POPC   C3B 3708  10.141   2.543   5.523
  273POPC   C4B 3709  10.364   2.247   5.797
  274POPC   NC3 3710   0.221   0.865   3.678
  274POPC   PO4 3711   0.759   1.105   4.037
  274POPC   GL1 3712   0.590   0.971   4.430
  274POPC   GL2 3713   0.275   0.959   4.243
  274POPC   C1A 3714   0.543   0.965   4.907
  274POPC   D2A 3715   0.211   0.871   5.220
  274POPC   C3A 3716   0.326   0.857   5.666
  274POPC   C4A 3717   0.693   0.960   5.854
  274POPC   C1B 3718   0.293   1.319   4.595
  274POPC   C2B 3719   0.290   1.460   5.034
  274POPC   C3B 3720   0.355   1.301   5.421
  274POPC   C4B 3721   0.329   1.384   5.817
  275POPC   NC3 3722   4.252   9.623   3.796
  275POPC   PO4 3723   4.309  10.371   3.703
  275POPC   GL1 3724   4.238  10.211   4.136
  275POPC   GL2 3725   3.882  10.149   4.237
  275POPC   C1A 3726   4.275  10.350   4.586
  275POPC   D2A 3727   4.537   0.017   4.935
  275POPC   C3A 3728   4.650  10.322   5.367
  275POPC   C4A 3729   4.436  10.293   5.766
  275POPC   C1B 3730   3.932   9.983   4.670
  275POPC   C2B 3731   4.141  10.168   5.064
  275POPC   C3B 3732   4.039  10.097   5.502
  275POPC   C4B 3733   3.969  10.132   5.982
  276POPC   NC3 3734   6.580   8.782   4.002
  276POPC   PO4 3735   6.581   9.430   3.810
  276POPC   GL1 3736   6.526   9.236   4.247
  276POPC   GL2 3737   6.208   9.223   4.411
  276POPC   C1A 3738   6.605   9.260   4.730
  276POPC   D2A 3739   6.352   9.489   5.052
  276POPC   C3A 3740   6.441   9.517   5.495
  276POPC   C4A 3741   6.747   9.465   5.775
  276POPC   C1B 3742   6.063   9.610   4.627
  276POPC   C2B 3743   5.878   9.698   5.048
  276POPC   C3B 3744   5.950   9.456   5.434
  276POPC   C4B 3745   6.162   9.201   5.784
  277POPC   NC3 3746   1.355   5.333   3.934
  277POPC   PO4 3747   1.076   5.954   3.989
  277POPC   GL1 3748   1.062   5.575   4.268
  277POPC   GL2 3749   1.418   5.596   4.345
  277POPC   C1A 3750   1.108   5.327   4.675
  277POPC   D2A 3751   0.910   5.556   5.013
  277POPC   C3A 3752   1.048   5.455   5.437
  277POPC   C4A 3753   0.863   5.770   5.694
  277POPC   C1B 3754   1.286   5.804   4.692
  277POPC   C2B 3755   1.399   5.657   5.101
  277POPC   C3B 3756   1.300   5.876   5.453
  277POPC   C4B 3757   1.470   5.996   5.802
  278POPC   NC3 3758   1.177   3.849   3.666
  278POPC   PO4 3759   1.488   4.247   4.068
  278POPC   GL1 3760   1.258   4.151   4.382
  278POPC   GL2 3761   1.021   4.405   4.418
  278POPC   C1A 3762   1.429   4.111   4.786
  278POPC   D2A 3763   1.355   4.363   5.136
  278POPC   C3A 3764   1.375   4.084   5.478
  278POPC   C4A 3765   1.296   4.013   5.915
  278POPC   C1B 3766   0.936   4.212   4.808
  278POPC   C2B 3767   0.846   4.271   5.232
  278POPC   C3B 3768   0.886   4.282   5.660
  278POPC   C4B 3769   0.781   4.017   5.992
  279POPC   NC3 3770  10.077   1.581   3.948
  279POPC   PO4 3771   0.208   1.929   3.905
  279POPC   GL1 3772  10.438   1.829   4.223
  279POPC   GL2 3773  10.198   2.068   4.128
  279POPC   C1A 3774  10.485   1.713   4.658
  279POPC   D2A 3775  10.296   1.679   5.046
  279POPC   C3A 3776   0.044   1.725   5.393
  279POPC   C4A 3777  10.378   1.685   5.769
  279POPC   C1B 3778  10.162   2.127   4.576
  279POPC   C2B 3779  10.020   2.213   4.985
  279POPC   C3B 3780  10.117   2.037   5.386
  279POPC   C4B 3781   9.935   1.938   5.780
  280POPC   NC3 3782   9.237   4.013   4.006
  280POPC   PO4 3783   9.767   4.188   3.650
  280POPC   GL1 3784   9.692   4.212   4.143
  280POPC   GL2 3785   9.615   4.540   4.237
  280POPC   C1A 3786   9.443   4.118   4.604
  280POPC   D2A 3787   9.306   4.016   5.050
  280POPC   C3A 3788   9.459   4.235   5.433
  280POPC   C4A 3789   9.558   4.079   5.863
  280POPC   C1B 3790   9.466   4.651   4.648
  280POPC   C2B 3791   9.228   4.566   5.013
  280POPC   C3B 3792   9.065   4.635   5.405
  280POPC   C4B 3793   9.152   4.442   5.799
  281POPC   NC3 3794   2.619   7.821   3.790
  281POPC   PO4 3795   2.170   8.355   3.984
  281POPC   GL1 3796   2.473   8.036   4.242
  281POPC   GL2 3797   2.522   7.631   4.234
  281POPC   C1A 3798   2.637   8.127   4.677
  281POPC   D2A 3799   2.751   8.144   5.139
  281POPC   C3A 3800   2.397   8.148   5.446
  281POPC   C4A 3801   2.355   7.935   5.850
  281POPC   C1B 3802   2.767   7.637   4.630
  281POPC   C2B 3803   2.607   7.623   5.025
  281POPC   C3B 3804   2.647   7.719   5.428
  281POPC   C4B 3805   2.730   7.585   5.811
  282POPC   NC3 3806   0.697   6.211   3.945
  282POPC   PO4 3807   0.258   6.668   4.071
  282POPC   GL1 3808   0.478   6.474   4.365
  282POPC   GL2 3809   0.705   6.716   4.366
  282POPC   C1A 3810   0.371   6.509   4.795
  282POPC   D2A 3811   0.237   6.238   5.113
  282POPC   C3A 3812   0.129   6.405   5.511
  282POPC   C4A 3813   0.391   6.582   5.743
  282POPC   C1B 3814   0.883   6.599   4.729
  282POPC   C2B 3815   0.793   6.501   5.125
  282POPC   C3B 3816   0.766   6.749   5.453
  282POPC   C4B 3817   0.902   6.681   5.871
  283POPC   NC3 3818  10.081   7.619   3.584
  283POPC   PO4 3819  10.441   7.615   4.118
  283POPC   GL1 3820  10.073   7.646   4.365
  283POPC   GL2 3821   9.999   7.905   4.222
  283POPC   C1A 3822   9.911   7.904   4.726
  283POPC   D2A 3823  10.086   7.932   5.125
  283POPC   C3A 3824  10.127   7.592   5.398
  283POPC   C4A 3825  10.336   7.426   5.739
  283POPC   C1B 3826  10.355   8.092   4.521
  283POPC   C2B 3827  10.461   8.251   4.926
  283POPC   C3B 3828  10.441   8.211   5.371
  283POPC   C4B 3829  10.183   8.007   5.691
  284POPC   NC3 3830   8.425   7.134   4.142
  284POPC   PO4 3831   8.934   6.984   3.751
  284POPC   GL1 3832   8.922   7.101   4.202
  284POPC   GL2 3833   8.819   7.456   4.306
  284POPC   C1A 3834   8.846   6.973   4.653
  284POPC   D2A 3835   8.774   7.075   5.104
  284POPC   C3A 3836   9.063   7.315   5.354
  284POPC   C4A 3837   9.152   7.443   5.768
  284POPC   C1B 3838   8.569   7.411   4.728
  284POPC   C2B 3839   8.322   7.295   5.128
  284POPC   C3B 3840   8.424   7.144   5.511
  284POPC   C4B 3841   8.640   7.494   5.551
  285POPC   NC3 3842   6.511   0.347   3.950
  285POPC   PO4 3843   6.021   0.995   3.955
  285POPC   GL1 3844   6.145   0.603   4.222
  285POPC   GL2 3845   6.496   0.570   4.383
  285POPC   C1A 3846   6.104   0.503   4.701
  285POPC   D2A 3847   5.956   0.487   5.152
  285POPC   C3A 3848   6.259   0.674   5.453
  285POPC   C4A 3849   6.174   0.681   5.874
  285POPC   C1B 3850   6.592   0.305   4.706
  285POPC   C2B 3851   6.557   0.462   5.084
  285POPC   C3B 3852   6.620   0.297   5.457
  285POPC   C4B 3853   6.544   0.346   5.840
  286POPC   NC3 3854   4.473   9.313   4.156
  286POPC   PO4 3855   3.821   9.698   3.924
  286POPC   GL1 3856   4.150   9.713   4.274
  286POPC   GL2 3857   4.122   9.459   4.509
  286POPC   C1A 3858   4.427   9.841   4.621
  286POPC   D2A 3859   4.242   9.667   4.995
  286POPC   C3A 3860   4.437   9.811   5.366
  286POPC   C4A 3861   4.272   9.722   5.761
  286POPC   C1B 3862   4.236   9.125   4.772
  286POPC   C2B 3863   4.147   8.981   5.179
  286POPC   C3B 3864   4.266   9.234   5.534
  286POPC   C4B 3865   3.962   9.318   5.867
  287POPC   NC3 3866   8.451   4.119   3.981
  287POPC   PO4 3867   9.036   4.407   4.166
  287POPC   GL1 3868   8.642   4.458   4.282
  287POPC   GL2 3869   8.704   4.092   4.410
  287POPC   C1A 3870   8.376   4.421   4.622
  287POPC   D2A 3871   8.537   4.160   4.914
  287POPC   C3A 3872   8.381   4.074   5.317
  287POPC   C4A 3873   8.449   4.200   5.738
  287POPC   C1B 3874   8.897   3.758   4.661
  287POPC   C2B 3875   8.832   3.814   5.093
  287POPC   C3B 3876   8.898   4.126   5.403
  287POPC   C4B 3877   9.072   3.949   5.759
  288POPC   NC3 3878   8.192   1.573   3.631
  288POPC   PO4 3879   8.212   2.116   4.035
  288POPC   GL1 3880   7.826   2.064   4.295
  288POPC   GL2 3881   8.009   1.913   4.504
  288POPC   C1A 3882   7.645   2.082   4.749
  288POPC   D2A 3883   7.736   2.347   5.035
  288POPC   C3A 3884   7.726   2.098   5.379
  288POPC   C4A 3885   7.707   1.953   5.773
  288POPC   C1B 3886   8.052   1.645   4.817
  288POPC   C2B 3887   8.293   1.575   5.160
  288POPC   C3B 3888   8.098   1.514   5.560
  288POPC   C4B 3889   8.054   1.639   5.967
  289POPC   NC3 3890   9.463   2.159   3.710
  289POPC   PO4 3891   9.499   1.474   3.742
  289POPC   GL1 3892   9.467   1.592   4.213
  289POPC   GL2 3893   9.297   1.953   4.205
  289POPC   C1A 3894   9.690   1.797   4.586
  289POPC   D2A 3895   9.788   1.768   5.013
  289POPC   C3A 3896   9.567   1.852   5.371
  289POPC   C4A 3897   9.459   1.735   5.769
  289POPC   C1B 3898   9.170   1.776   4.588
  289POPC   C2B 3899   9.193   1.766   5.016
  289POPC   C3B 3900   9.065   1.859   5.462
  289POPC   C4B 3901   9.238   2.221   5.714
  290POPC   NC3 3902   3.322   8.367   3.677
  290POPC   PO4 3903   3.006   7.811   4.053
  290POPC   GL1 3904   3.367   7.875   4.305
  290POPC   GL2 3905   3.412   7.523   4.305
  290POPC   C1A 3906   3.422   8.184   4.703
  290POPC   D2A 3907   3.277   8.257   5.151
  290POPC   C3A 3908   3.506   8.143   5.546
  290POPC   C4A 3909   3.798   8.122   5.917
  290POPC   C1B 3910   3.276   7.677   4.751
  290POPC   C2B 3911   3.392   7.727   5.189
  290POPC   C3B 3912   3.160   7.780   5.572
  290POPC   C4B 3913   2.880   8.093   5.679
  291POPC   NC3 3914   0.378   5.113   3.921
  291POPC   PO4 3915   0.070   4.565   3.977
  291POPC   GL1 3916   0.257   4.710   4.303
  291POPC   GL2 3917   0.255   5.088   4.415
  291POPC   C1A 3918   0.076   4.697   4.690
  291POPC   D2A 3919   0.155   4.866   5.043
  291POPC   C3A 3920   0.010   4.801   5.439
  291POPC   C4A 3921   0.072   5.177   5.707
  291POPC   C1B 3922   0.606   4.898   4.612
  291POPC   C2B 3923   0.632   4.708   5.019
  291POPC   C3B 3924   0.538   4.925   5.404
  291POPC   C4B 3925   0.634   4.741   5.776
  292POPC   NC3 3926   0.962   8.576   3.782
  292POPC   PO4 3927   0.673   9.190   3.956
  292POPC   GL1 3928   0.883   8.870   4.226
  292POPC   GL2 3929   1.255   8.839   4.320
  292POPC   C1A 3930   0.885   8.680   4.658
  292POPC   D2A 3931   0.681   8.622   5.078
  292POPC   C3A 3932   0.927   8.648   5.463
  292POPC   C4A 3933   0.893   8.892   5.852
  292POPC   C1B 3934   1.441   8.875   4.737
  292POPC   C2B 3935   1.383   8.612   5.112
  292POPC   C3B 3936   1.583   8.668   5.505
  292POPC   C4B 3937   1.387   9.008   5.707
  293POPC   NC3 3938   7.942   9.744   3.885
  293POPC   PO4 3939   7.905   9.158   3.712
  293POPC   GL1 3940   7.874   9.257   4.191
  293POPC   GL2 3941   7.848   9.605   4.347
  293POPC   C1A 3942   8.023   9.191   4.653
  293POPC   D2A 3943   8.183   9.483   5.018
  293POPC   C3A 3944   8.232   9.352   5.454
  293POPC   C4A 3945   8.232   9.754   5.713
  293POPC   C1B 3946   7.656   9.521   4.711
  293POPC   C2B 3947   7.729   9.308   5.096
  293POPC   C3B 3948   7.797   9.601   5.450
  293POPC   C4B 3949   7.804   9.338   5.806
  294POPC   NC3 3950   3.440   1.191   3.837
  294POPC   PO4 3951   3.216   0.804   4.304
  294POPC   GL1 3952   3.495   1.060   4.420
  294POPC   GL2 3953   3.491   1.394   4.321
  294POPC   C1A 3954   3.483   1.098   4.844
  294POPC   D2A 3955   3.713   0.957   5.147
  294POPC   C3A 3956   3.444   0.848   5.438
  294POPC   C4A 3957   3.375   1.062   5.831
  294POPC   C1B 3958   3.561   1.605   4.695
  294POPC   C2B 3959   3.681   1.490   5.101
  294POPC   C3B 3960   3.606   1.340   5.482
  294POPC   C4B 3961   3.501   1.537   5.859
  295POPC   NC3 3962   3.088   8.255   4.134
  295POPC   PO4 3963   3.508   8.749   3.890
  295POPC   GL1 3964   3.582   8.547   4.261
  295POPC   GL2 3965   3.244   8.673   4.373
  295POPC   C1A 3966   3.645   8.726   4.667
  295POPC   D2A 3967   3.468   8.791   5.042
  295POPC   C3A 3968   3.535   8.625   5.421
  295POPC   C4A 3969   3.140   8.522   5.587
  295POPC   C1B 3970   3.223   9.034   4.655
  295POPC   C2B 3971   3.185   9.207   5.063
  295POPC   C3B 3972   3.239   9.018   5.449
  295POPC   C4B 3973   3.507   9.087   5.761
  296POPC   NC3 3974   2.942   7.353   4.063
  296POPC   PO4 3975   3.479   7.028   4.096
  296POPC   GL1 3976   3.137   7.050   4.420
  296POPC   GL2 3977   2.795   6.902   4.266
  296POPC   C1A 3978   3.077   7.219   4.855
  296POPC   D2A 3979   3.006   7.382   5.290
  296POPC   C3A 3980   3.015   7.174   5.736
  296POPC   C4A 3981   2.905   7.194   6.208
  296POPC   C1B 3982   2.628   7.153   4.616
  296POPC   C2B 3983   2.607   7.109   5.063
  296POPC   C3B 3984   2.554   7.227   5.488
  296POPC   C4B 3985   2.496   7.098   5.919
  297POPC   NC3 3986   1.484   6.238   3.969
  297POPC   PO4 3987   0.919   6.722   3.875
  297POPC   GL1 3988   1.157   6.527   4.237
  297POPC   GL2 3989   0.951   6.241   4.385
  297POPC   C1A 3990   1.363   6.338   4.646
  297POPC   D2A 3991   1.206   6.175   5.047
  297POPC   C3A 3992   1.276   6.380   5.455
  297POPC   C4A 3993   1.372   6.490   5.872
  297POPC   C1B 3994   0.758   6.088   4.778
  297POPC   C2B 3995   0.743   6.007   5.249
  297POPC   C3B 3996   0.821   6.259   5.618
  297POPC   C4B 3997   1.019   6.167   6.027
  298POPC   NC3 3998   0.748   5.636   3.839
  298POPC   PO4 3999   0.312   6.179   3.687
  298POPC   GL1 4000   0.294   6.036   4.166
  298POPC   GL2 4001   0.602   5.850   4.304
  298POPC   C1A 4002   0.244   6.020   4.624
  298POPC   D2A 4003   0.413   5.755   4.960
  298POPC   C3A 4004   0.206   5.800   5.350
  298POPC   C4A 4005   0.389   6.025   5.697
  298POPC   C1B 4006   0.607   5.456   4.565
  298POPC   C2B 4007   0.494   5.248   4.968
  298POPC   C3B 4008   0.546   5.427   5.376
  298POPC   C4B 4009   0.417   5.532   5.773
  299POPC   NC3 4010   1.261   0.607   3.571
  299POPC   PO4 4011   0.955   0.206   4.015
  299POPC   GL1 4012   1.212   0.220   4.297
  299POPC   GL2 4013   1.351   0.541   4.238
  299POPC   C1A 4014   1.030   0.300   4.686
  299POPC   D2A 4015   1.212   0.348   5.071
  299POPC   C3A 4016   1.166   0.307   5.511
  299POPC   C4A 4017   1.523   0.053   5.709
  299POPC   C1B 4018   1.381   0.685   4.662
  299POPC   C2B 4019   1.117   0.858   4.987
  299POPC   C3B 4020   1.264   0.865   5.404
  299POPC   C4B 4021   1.164   0.758   5.800
  300POPC   NC3 4022   3.973   8.672   3.927
  300POPC   PO4 4023   4.487   8.205   4.070
  300POPC   GL1 4024   4.175   8.429   4.320
  300POPC   GL2 4025   4.092   8.758   4.425
  300POPC   C1A 4026   3.918   8.322   4.675
  300POPC   D2A 4027   3.905   8.537   5.081
  300POPC   C3A 4028   3.974   8.353   5.479
  300POPC   C4A 4029   4.301   8.226   5.714
  300POPC   C1B 4030   4.320   8.617   4.789
  300POPC   C2B 4031   4.415   8.482   5.219
  300POPC   C3B 4032   4.334   8.716   5.600
  300POPC   C4B 4033   3.929   8.857   5.646
  301POPC   NC3 4034   9.760   1.103   3.666
  301POPC   PO4 4035  10.467   1.247   3.768
  301POPC   GL1 4036  10.386   1.301   4.285
  301POPC   GL2 4037  10.288   0.924   4.427
  301POPC   C1A 4038  10.067   1.428   4.644
  301POPC   D2A 4039   9.943   1.294   5.070
  301POPC   C3A 4040   9.957   1.532   5.457
  301POPC   C4A 4041   9.945   1.438   5.900
  301POPC   C1B 4042   0.081   0.852   4.706
  301POPC   C2B 4043  10.415   1.168   4.922
  301POPC   C3B 4044  10.363   1.248   5.349
  301POPC   C4B 4045  10.378   1.172   5.759
  302W        W 4046  10.389   3.582   8.996
  303W        W 4047   3.399   7.476   2.225
  304W        W 4048   8.003   2.752   1.857
  305W        W 4049   6.081   0.516   0.270
  306W        W 4050   9.140   2.111   8.584
  307W        W 4051   9.845   3.096   8.690
  308W        W 4052   8.202   5.501   9.733
  309W        W 4053   2.278   3.560   0.851
  310W        W 4054  10.002   3.181   0.995
  311W        W 4055   0.262   7.400  10.509
  312W        W 4056   5.262   1.925   2.178
  313W        W 4057   9.665   7.133   9.586
  314W        W 4058   9.901   7.948   8.992
  315W        W 4059   8.432   5.665   0.081
  316W        W 4060   8.987   0.918   3.226
  317W        W 4061   5.267   6.442   1.666
  318W        W 4062   8.014   6.175   1.456
  319W        W 4063   5.655  10.453  11.898
  320W        W 4064   6.513  10.330   1.434
  321W        W 4065   1.853   5.695  11.741
  322W        W 4066   3.510   6.669  11.477
  323W        W 4067   6.431   8.063   0.331
  324W        W 4068   8.969   7.659   9.864
  325W        W 4069   0.980   1.866   9.789
  326W        W 4070  10.305   1.802   9.091
  327W        W 4071   4.640   0.753  10.126
  328W        W 4072   9.997   8.581  10.926
  329W        W 4073   9.753   2.283   0.775
  330W        W 4074   1.944   6.937   2.809
  331W        W 4075   1.385   7.006   1.795
  332W        W 4076   9.552   2.105  11.769
  333W        W 4077   6.351   3.123  10.005
  334W        W 4078   2.179   2.839   2.529
  335W        W 4079   0.383   1.004   9.396
  336W        W 4080   8.724   2.252   2.174
  337W        W 4081   8.878   8.821  10.594
  338W        W 4082   4.990   0.443   1.502
  339W        W 4083   2.731   9.480  11.139
  340W        W 4084   3.523   7.383   2.962
  341W        W 4085   9.016   0.882   2.726
  342W        W 4086   1.353   2.562   0.091
  343W        W 4087   2.369   4.694   2.661
  344W        W 4088   6.688   0.138   3.497
  345W        W 4089  10.472   4.216   9.665
  346W        W 4090   7.001  10.282   1.700
  347W        W 4091   7.399   3.684   9.872
  348W        W 4092   1.641   6.780  10.321
  349W        W 4093  10.325   5.060   2.033
  350W        W 4094   8.442   5.604   0.613
  351W        W 4095   3.569   6.902  11.022
  352W        W 4096   6.977   4.079   1.881
  353W        W 4097   4.694   4.170  10.387
  354W        W 4098   8.511   7.623   9.102
  355W        W 4099   5.149  10.110  10.712
  356W        W 4100   8.545   7.712   9.607
  357W        W 4101   6.444   9.155   2.091
  358W        W 4102   2.254   1.291   1.684
  359W        W 4103   7.585   4.642   9.442
  360W        W 4104   0.883   0.829   0.309
  361W        W 4105   4.819   8.453   9.717
  362W        W 4106   5.296   4.779   0.338
  363W        W 4107   8.385   3.188   1.894
  364W        W 4108   0.434   0.790   1.381
  365W        W 4109   8.910   8.140   0.207
  366W        W 4110   5.182   3.041  11.385
  367W        W 4111   9.417   2.631   3.565
  368W        W 4112   2.155   1.740   3.193
  369W        W 4113   4.859   0.930   1.742
  370W        W 4114   8.437   0.211   1.769
  371W        W 4115   8.990   9.120  10.184
  372W        W 4116   9.269   1.401   1.079
  373W        W 4117   8.054   6.034   2.903
  374W        W 4118   6.158   3.721   0.687
  375W        W 4119   4.916   7.935   0.232
  376W        W 4120   8.739   9.756  10.949
  377W        W 4121   0.940   8.647   9.466
  378W        W 4122   5.688   9.426  10.211
  379W        W 4123   1.014   7.183   2.591
  380W        W 4124   1.884   0.967   1.751
  381W        W 4125   4.586   9.902   9.802
  382W        W 4126   6.707   9.699  11.720
  383W        W 4127   0.974   4.654   2.996
  384W        W 4128   7.131   3.555  10.469
  385W        W 4129   8.126   7.304   1.644
  386W        W 4130   4.770   2.184   2.862
  387W        W 4131   9.676   9.818   0.734
  388W        W 4132   8.495   9.548   3.115
  389W        W 4133   6.652   4.586   9.206
  390W        W 4134   7.017   9.456  10.228
  391W        W 4135   0.765   7.737   0.024
  392W        W 4136   5.435   7.591  10.491
  393W        W 4137   7.484   6.265  11.817
  394W        W 4138   1.631   0.527   1.714
  395W        W 4139   7.798   1.162   2.951
  396W        W 4140   0.929   3.753   8.795
  397W        W 4141   3.515   2.396  11.363
  398W        W 4142   4.068   9.632   9.786
  399W        W 4143   3.091   5.284   2.801
  400W        W 4144   7.191   4.341   3.329
  401W        W 4145   9.387   8.069   2.573
  402W        W 4146   7.702   1.433   9.507
  403W        W 4147   2.281   5.495   8.602
  404W        W 4148   8.176   3.755   2.893
  405W        W 4149   9.789   8.590   1.546
  406W        W 4150   7.584   4.582   3.128
  407W        W 4151   0.710  10.308   0.724
  408W        W 4152   2.601   2.737   2.239
  409W        W 4153   8.123   9.293   9.307
  410W        W 4154   1.732   4.497   8.690
  411W        W 4155   0.395   4.347   9.936
  412W        W 4156   7.903  10.272  10.562
  413W        W 4157   1.216   9.170  11.203
  414W        W 4158   7.049   8.191  11.955
  415W        W 4159   1.279   3.594   9.613
  416W        W 4160   6.357   9.769  11.324
  417W        W 4161   3.650   0.462   0.494
  418W        W 4162   9.234   7.163   2.942
  419W        W 4163   6.693   9.384  11.231
  420W        W 4164   8.072   1.247  10.128
  421W        W 4165   7.853   0.438   0.016
  422W        W 4166   7.751   2.692   8.831
  423W        W 4167  10.240   3.434   3.356
  424W        W 4168   0.979  10.484   1.744
  425W        W 4169   4.164   2.505  11.771
  426W        W 4170   4.746   4.121   2.203
  427W        W 4171   5.299   6.141   3.405
  428W        W 4172   7.423   8.530   3.632
  429W        W 4173   2.041   0.866   3.405
  430W        W 4174   4.278   0.837   1.828
  431W        W 4175  10.096   6.842  11.790
  432W        W 4176   1.988   9.130   1.251
  433W        W 4177   7.520   7.644   2.791
  434W        W 4178   1.764   2.100   0.363
  435W        W 4179   9.938   2.803  10.063
  436W        W 4180   0.241   4.654   9.557
  437W        W 4181   4.499   3.124   3.618
  438W        W 4182   6.529   5.013  11.576
  439W        W 4183   7.912   1.608   3.228
  440W        W 4184   1.846   0.657   8.851
  441W        W 4185   5.012   6.678   0.301
  442W        W 4186   3.725   3.744   1.960
  443W        W 4187   4.108   8.515  10.936
  444W        W 4188   1.251   0.435   2.777
  445W        W 4189   4.546   1.731   1.899
  446W        W 4190   8.186   5.650   9.222
  447W        W 4191   6.910   9.899   0.362
  448W        W 4192   3.443   0.766   0.870
  449W        W 4193   9.546   5.571   2.170
  450W        W 4194   6.619   9.953   2.911
  451W        W 4195   9.045   4.356   3.667
  452W        W 4196   5.096   5.245  11.408
  453W        W 4197   6.797   9.479   2.943
  454W        W 4198  10.337  10.349   2.492
  455W        W 4199   8.392   0.225  11.361
  456W        W 4200   2.833   1.317   8.798
  457W        W 4201   6.080   3.792  11.203
  458W        W 4202   0.762   8.614   1.752
  459W        W 4203   2.213   7.196   1.245
  460W        W 4204   9.489   9.615   2.419
  461W        W 4205   6.681   4.096  11.839
  462W        W 4206   6.946   4.152   9.275
  463W        W 4207   3.198   2.360   2.902
  464W        W 4208   8.174   3.747   0.320
  465W        W 4209   1.769   2.272  11.854
  466W        W 4210   8.044   1.141   3.402
  467W        W 4211   1.503  10.330  11.864
  468W        W 4212   5.491   6.641   9.419
  469W        W 4213   2.089   0.804   0.883
  470W        W 4214   5.953   8.171   0.506
  471W        W 4215  10.364   2.006   1.578
  472W        W 4216   6.625   4.109   9.674
  473W        W 4217   9.019   0.289   9.152
  474W        W 4218   8.018   4.676   2.899
  475W        W 4219   5.132   2.523   1.729
  476W        W 4220   3.103   8.219   2.625
  477W        W 4221   7.412   8.927  11.721
  478W        W 4222   2.883   0.347  11.817
  479W        W 4223  10.368   0.227   1.659
  480W        W 4224   1.943   0.877   0.393
  481W        W 4225   9.268   8.371   3.539
  482W        W 4226   9.850   6.418   9.055
  483W        W 4227   6.033   9.181  11.934
  484W        W 4228   9.406   6.619  10.852
  485W        W 4229   7.533   8.846   9.306
  486W        W 4230   2.386   4.239   9.879
  487W        W 4231   5.497   3.276   1.268
  488W        W 4232   4.496   9.958  11.323
  489W        W 4233   5.235   3.729   1.174
  490W        W 4234   5.037   0.735   9.784
  491W        W 4235   5.085   0.806   9.285
  492W        W 4236   1.305   4.986   3.544
  493W        W 4237   8.134   4.180  10.009
  494W        W 4238   2.880   2.359   3.351
  495W        W 4239   8.536   8.433  11.462
  496W        W 4240   9.763   2.367  10.298
  497W        W 4241   2.326   6.293   8.811
  498W        W 4242   5.965   6.297   9.481
  499W        W 4243   6.136   3.734   1.202
  500W        W 4244   2.796   7.419   1.003
  501W        W 4245   9.319   5.153  10.506
  502W        W 4246   6.828   2.146   1.684
  503W        W 4247   7.216   5.343   2.102
  504W        W 4248   6.116   6.025   2.515
  505W        W 4249   3.241   1.371   2.490
  506W        W 4250   0.084   3.891   0.790
  507W        W 4251   0.186   1.274   2.327
  508W        W 4252  10.140   3.955   8.702
  509W        W 4253   7.215   5.839   8.162
  510W        W 4254   2.769   5.875   9.473
  511W        W 4255  10.160   4.263  10.082
  512W        W 4256   2.152   5.196   2.927
  513W        W 4257   3.817   2.794  11.526
  514W        W 4258   8.316   6.492   0.039
  515W        W 4259   6.858   0.116  10.800
  516W        W 4260   6.653   4.550   1.905
  517W        W 4261   5.653   6.502   3.247
  518W        W 4262   6.200   3.727   2.785
  519W        W 4263   7.713   3.565   2.888
  520W        W 4264   6.570   5.946   1.823
  521W        W 4265   4.600   5.449   2.403
  522W        W 4266   2.920   3.174   0.394
  523W        W 4267   5.159   0.846   0.669
  524W        W 4268   1.427   7.574   1.155
  525W        W 4269   2.805   2.752  11.696
  526W        W 4270   6.424   1.424   2.842
  527W        W 4271   1.841   5.898   9.416
  528W        W 4272   3.570   2.354   2.201
  529W        W 4273  10.004   0.043  10.446
  530W        W 4274   6.516   1.672  10.069
  531W        W 4275   5.814   6.235   4.208
  532W        W 4276   6.706   7.032   0.101
  533W        W 4277   7.715   4.333  11.848
  534W        W 4278   9.315   8.590   9.519
  535W        W 4279   9.080  10.225  10.884
  536W        W 4280   9.123   4.665  10.578
  537W        W 4281   4.221   1.248  10.592
  538W        W 4282   9.904   4.744   1.228
  539W        W 4283   1.665   6.109   0.754
  540W        W 4284   9.655   4.185  10.048
  541W        W 4285   3.490   2.293   3.316
  542W        W 4286   0.442   5.243   9.783
  543W        W 4287   0.400   4.522   2.434
  544W        W 4288   2.398   6.037  10.317
  545W        W 4289   5.551  10.459  10.476
  546W        W 4290   1.925   0.702   2.181
  547W        W 4291   7.646   3.532   8.895
  548W        W 4292   7.975   1.865   9.333
  549W        W 4293   6.642   5.460   0.462
  550W        W 4294   9.799   7.167  10.523
  551W        W 4295  10.162   4.658  10.403
  552W        W 4296   3.760   6.630  10.639
  553W        W 4297   9.521   2.626   3.048
  554W        W 4298   7.562   1.141  11.474
  555W        W 4299   6.685   8.631   2.617
  556W        W 4300   4.514   1.790   3.322
  557W        W 4301   5.000   2.772   7.972
  558W        W 4302   4.209   0.585   9.903
  559W        W 4303   6.468   5.672   2.261
  560W        W 4304   8.930   5.069   9.547
  561W        W 4305   8.927   2.164   0.484
  562W        W 4306   8.468   2.770   2.192
  563W        W 4307   2.171   4.710   9.873
  564W        W 4308   1.386   0.714   0.341
  565W        W 4309   7.887   7.444   1.213
  566W        W 4310   6.908   3.139   1.227
  567W        W 4311  10.124   5.081  10.102
  568W        W 4312   0.790   2.780   9.719
  569W        W 4313   5.218   4.319   2.309
  570W        W 4314   1.197   4.774   9.619
  571W        W 4315   6.581   5.877   0.189
  572W        W 4316   2.017   8.011  11.921
  573W        W 4317   4.726   4.961  11.638
  574W        W 4318   0.642   1.692   1.748
  575W        W 4319   7.095   5.588  11.925
  576W        W 4320   3.332   1.871   2.164
  577W        W 4321   8.866   4.248   1.534
  578W        W 4322   0.340   9.887   1.793
  579W        W 4323   0.477   5.646   1.896
  580W        W 4324   8.511   8.907   8.762
  581W        W 4325   6.057   6.939   2.777
  582W        W 4326   6.244   6.536   9.860
  583W        W 4327   2.722   5.190   3.171
  584W        W 4328   7.130   6.529   9.385
  585W        W 4329   3.753   2.571   0.064
  586W        W 4330   3.264   8.221   0.563
  587W        W 4331   9.322   7.302   9.247
  588W        W 4332   6.676   9.240   0.672
  589W        W 4333   3.065   3.363   2.571
  590W        W 4334   9.406   7.544   2.473
  591W        W 4335   9.054   4.119   0.407
  592W        W 4336   4.499   4.110   0.671
  593W        W 4337   5.206   7.075   9.315
  594W        W 4338   5.119   9.936   9.044
  595W        W 4339   1.974   6.779   9.915
  596W        W 4340   3.771   6.052  10.468
  597W        W 4341   6.008   9.690   3.425
  598W        W 4342   9.441   3.788   0.428
  599W        W 4343   0.884   0.327  10.498
  600W        W 4344   2.284   4.558   1.002
  601W        W 4345   6.679   1.770   8.658
  602W        W 4346   2.735   3.556   3.366
  603W        W 4347   7.702   3.743   3.802
  604W        W 4348   6.047   3.229  10.801
  605W        W 4349   1.310   3.814   9.145
  606W        W 4350   9.520   4.747   1.943
  607W        W 4351   0.882   8.341  11.196
  608W        W 4352   3.565   1.620   3.459
  609W        W 4353   1.253   7.480   8.858
  610W        W 4354   4.812   1.023   1.220
  611W        W 4355   7.677   2.805   1.330
  612W        W 4356   1.326   2.396  11.047
  613W        W 4357   4.617   2.148  10.587
  614W        W 4358   3.272   9.755   9.160
  615W        W 4359   9.293   6.255   9.814
  616W        W 4360   4.099   8.384   9.054
  617W        W 4361   6.987   1.843  11.010
  618W        W 4362   4.116   6.000  11.782
  619W        W 4363   3.443   1.014   2.160
  620W        W 4364   9.021   1.681   0.649
  621W        W 4365   5.153   3.842   0.669
  622W        W 4366   3.360   5.015   9.830
  623W        W 4367   2.132   5.688  10.012
  624W        W 4368   4.551   2.802   8.809
  625W        W 4369   1.586   0.314   9.119
  626W        W 4370   6.961   7.041   3.500
  627W        W 4371   7.688   1.044   9.836
  628W        W 4372   2.401   7.358   0.237
  629W        W 4373   7.624   4.126   9.998
  630W        W 4374   6.120   8.344   1.865
  631W        W 4375   4.798   4.594   2.430
  632W        W 4376   7.270   3.627  11.973
  633W        W 4377   3.605   6.141   2.677
  634W        W 4378   4.742   7.348   0.955
  635W        W 4379   2.435   6.504  10.063
  636W        W 4380   7.498   0.840  11.872
  637W        W 4381   5.047   6.499  10.340
  638W        W 4382   3.211  10.298  11.405
  639W        W 4383   9.874   8.458   9.051
  640W        W 4384   9.210   5.743   0.704
  641W        W 4385   0.370   5.958   0.389
  642W        W 4386  10.079   2.784   1.773
  643W        W 4387   5.517   5.132  10.928
  644W        W 4388   2.142   2.063   9.943
  645W        W 4389   3.276   8.395  10.494
  646W        W 4390   4.764   0.023   1.987
  647W        W 4391  10.091   8.292   9.952
  648W        W 4392   5.673   4.144   9.532
  649W        W 4393   4.067   2.366   2.290
  650W        W 4394   4.490   4.229   1.179
  651W        W 4395   8.020  10.427   0.424
  652W        W 4396   9.447   6.728   9.907
  653W        W 4397   0.066   6.562  11.075
  654W        W 4398   1.777   6.955   3.289
  655W        W 4399   9.024   4.276   1.010
  656W        W 4400   1.939   8.791  10.503
  657W        W 4401   8.629   7.228   2.301
  658W        W 4402   9.824   1.390   0.239
  659W        W 4403   3.306   5.078   8.370
  660W        W 4404   2.314   2.100   0.983
  661W        W 4405   9.302   7.676   2.973
  662W        W 4406   6.722   6.001   8.718
  663W        W 4407   5.237   5.781   9.083
  664W        W 4408   7.613   5.689   2.125
  665W        W 4409   4.845   2.676  11.270
  666W        W 4410   9.080   2.305   1.369
  667W        W 4411   5.666   5.607   1.085
  668W        W 4412   5.911   8.628   1.500
  669W        W 4413   4.065   3.286   2.316
  670W        W 4414   6.108   0.339   2.502
  671W        W 4415   9.454   9.458   8.947
  672W        W 4416   3.820   0.028   1.731
  673W        W 4417   4.990   3.218   3.630
  674W        W 4418  10.064   3.619   1.716
  675W        W 4419   1.212   4.205   1.948
  676W        W 4420   0.430   3.437   3.518
  677W        W 4421   8.075   8.619  11.006
  678W        W 4422   6.509   3.599  11.725
  679W        W 4423   5.392  10.358   3.012
  680W        W 4424   5.056   6.060   1.409
  681W        W 4425   8.000   1.754   0.802
  682W        W 4426   0.813   0.936  11.813
  683W        W 4427   9.829   6.978   0.941
  684W        W 4428   1.960   3.686  11.922
  685W        W 4429   6.571   0.592   2.230
  686W        W 4430   0.296   2.085   1.852
  687W        W 4431   0.360   3.956  10.532
  688W        W 4432   6.233   4.692   0.518
  689W        W 4433   9.616   0.586   0.095
  690W        W 4434   0.525   4.741   1.964
  691W        W 4435   9.929   2.291   1.716
  692W        W 4436  10.228   7.786   9.808
  693W        W 4437   6.735   7.261   2.205
  694W        W 4438   0.858   8.609   2.235
  695W        W 4439   2.336   1.561   9.979
  696W        W 4440   8.638   6.529   1.901
  697W        W 4441   4.815   0.434   3.350
  698W        W 4442   1.874  10.456   3.395
  699W        W 4443   0.275   4.827  11.127
  700W        W 4444   7.222   1.847   8.590
  701W        W 4445   2.011   3.955   9.342
  702W        W 4446   3.781   7.636   2.605
  703W        W 4447   8.935   3.115   0.555
  704W        W 4448   7.811   3.117   3.116
  705W        W 4449   3.881   0.121   3.526
  706W        W 4450   8.037   8.369   3.124
  707W        W 4451   4.769   0.344   0.040
  708W        W 4452   5.206   6.026   1.937
  709W        W 4453   8.575   9.499   2.610
  710W        W 4454   1.205   5.778   8.612
  711W        W 4455   5.604   3.436   8.984
  712W        W 4456   7.871   5.187   9.019
  713W        W 4457   0.994   8.071   9.518
  714W        W 4458   2.306   7.005   8.909
  715W        W 4459   7.012  10.497   8.499
  716W        W 4460   7.145   7.400   1.893
  717W        W 4461   1.646  10.323   2.422
  718W        W 4462   3.209   0.335   0.797
  719W        W 4463   5.164   7.880  10.837
  720W        W 4464   7.101   4.228  10.927
  721W        W 4465   8.435   8.878   9.286
  722W        W 4466   5.687   8.924   2.202
  723W        W 4467   9.725   6.935   9.113
  724W        W 4468   5.113   7.155   0.481
  725W        W 4469   5.507   5.126   2.609
  726W        W 4470   6.458   7.442   0.333
  727W        W 4471   8.126   4.892   8.624
  728W        W 4472   6.421   7.496  11.255
  729W        W 4473   7.734   0.540   9.876
  730W        W 4474   1.418   1.411   1.737
  731W        W 4475   0.324   7.894   2.289
  732W        W 4476   1.582   8.408   1.631
  733W        W 4477   6.034   4.235  11.474
  734W        W 4478   0.091   4.702   0.422
  735W        W 4479   3.641   9.939   9.999
  736W        W 4480   9.530   5.275  10.982
  737W        W 4481   9.692   0.150   9.994
  738W        W 4482   3.784   1.909   0.421
  739W        W 4483   1.254   3.794   0.037
  740W        W 4484   0.418   5.732  11.038
  741W        W 4485   9.893   2.744   3.404
  742W        W 4486   1.132   7.812   3.259
  743W        W 4487   5.668   1.840   0.036
  744W        W 4488   2.113   9.304   8.707
  745W        W 4489   7.563   6.649   1.107
  746W        W 4490   5.665   9.578   8.861
  747W        W 4491   5.701   2.078   2.973
  748W        W 4492  10.066   3.520  10.722
  749W        W 4493   7.466   9.707   8.950
  750W        W 4494   1.744   7.588  11.827
  751W        W 4495   1.444   0.059  11.312
  752W        W 4496   4.341   6.658   1.608
  753W        W 4497   9.979   8.802  10.023
  754W        W 4498   0.571  10.494  10.795
  755W        W 4499   4.211  10.094   2.412
  756W        W 4500   5.331  10.070   9.533
  757W        W 4501   4.532   1.339   8.735
  758W        W 4502   0.451   0.836  10.991
  759W        W 4503   9.412   9.897   9.447
  760W        W 4504   2.068   3.181   0.028
  761W        W 4505   9.039   2.714  11.247
  762W        W 4506   7.266   7.886   9.142
  763W        W 4507   3.291   7.983   2.211
  764W        W 4508   1.355   1.992  10.725
  765W        W 4509   6.989   2.639   1.882
  766W        W 4510   8.972   3.119   0.054
  767W        W 4511   2.633  10.497   9.037
  768W        W 4512   2.169   8.932  11.816
  769W        W 4513   6.560   4.029   1.007
  770W        W 4514   9.914   9.994   9.291
  771W        W 4515   3.094   6.248   3.719
  772W        W 4516   1.693  10.409   1.269
  773W        W 4517   2.170   9.508   2.746
  774W        W 4518   9.614   8.458   0.303
  775W        W 4519   3.354   1.931  10.365
  776W        W 4520   1.287   0.669   1.176
  777W        W 4521   7.409   8.195  10.081
  778W        W 4522   2.739   6.424  10.961
  779W        W 4523   3.796   4.786   0.566
  780W        W 4524   7.706   5.769   1.322
  781W        W 4525   6.187   7.068  11.463
  782W        W 4526   0.361   2.298   1.395
  783W        W 4527   6.162   5.484   0.989
  784W        W 4528   5.542   6.029  10.236
  785W        W 4529   5.085   3.327   2.210
  786W        W 4530   0.848   6.200  11.492
  787W        W 4531   5.739   1.240  10.276
  788W        W 4532   6.327   9.441   3.139
  789W        W 4533   5.581   6.741   2.802
  790W        W 4534   0.156   2.157   8.656
  791W        W 4535   4.295   3.099   1.877
  792W        W 4536   6.639   0.331   1.354
  793W        W 4537   2.683   5.610   9.020
  794W        W 4538   0.165   9.400   3.291
  795W        W 4539   3.252   0.771   1.738
  796W        W 4540   0.290   6.560  10.597
  797W        W 4541   3.099   4.266   2.803
  798W        W 4542   4.274   9.351   8.880
  799W        W 4543   1.219   1.857   2.991
  800W        W 4544   3.001   4.303   8.569
  801W        W 4545   8.268   1.060  10.994
  802W        W 4546   7.254   2.828   0.018
  803W        W 4547   5.200   6.509   1.172
  804W        W 4548   7.259   4.244   8.558
  805W        W 4549  10.020   3.984  10.917
  806W        W 4550   4.784   0.354  11.530
  807W        W 4551   4.154   2.768   9.606
  808W        W 4552   8.914   0.266   8.658
  809W        W 4553   6.788   5.345   1.295
  810W        W 4554   9.338   4.083   1.370
  811W        W 4555   8.966   7.906   1.788
  812W        W 4556   6.981   7.543  10.369
  813W        W 4557   0.941   0.814  10.221
  814W        W 4558   3.727   3.996   3.744
  815W        W 4559   4.671   9.336  10.952
  816W        W 4560   7.508   7.267   3.605
  817W        W 4561  10.260   9.495  10.495
  818W        W 4562   6.944   3.690   9.533
  819W        W 4563  10.223   7.447  10.536
  820W        W 4564   5.629   2.245  11.182
  821W        W 4565   1.059   1.410   8.983
  822W        W 4566   0.126   5.562   9.539
  823W        W 4567   4.998   0.935   3.428
  824W        W 4568   3.595   4.245   1.819
  825W        W 4569   3.775   7.854   2.107
  826W        W 4570   7.113   1.195   0.792
  827W        W 4571   5.975   8.366  11.498
  828W        W 4572   2.473   6.900   2.911
  829W        W 4573   6.755   1.472   2.232
  830W        W 4574   8.059   2.895  11.225
  831W        W 4575   4.497   1.623   0.891
  832W        W 4576   8.540   9.496  10.560
  833W        W 4577   2.686   2.634   9.440
  834W        W 4578   7.939  10.163  10.074
  835W        W 4579   2.584   0.773   3.449
  836W        W 4580   7.405   5.604   8.592
  837W        W 4581   7.935   6.546  11.191
  838W        W 4582   6.041   3.286   0.930
  839W        W 4583   5.625   6.741   1.923
  840W        W 4584   9.264   1.129   2.012
  841W        W 4585   7.131   4.718   0.233
  842W        W 4586   4.840   6.180   0.361
  843W        W 4587   1.098   9.677  11.299
  844W        W 4588   0.748   9.806   2.515
  845W        W 4589   4.769   4.720   0.420
  846W        W 4590   4.746   3.708   9.504
  847W        W 4591   2.219   7.369  11.765
  848W        W 4592   6.199   4.245  11.959
  849W        W 4593   9.942  10.050   3.194
  850W        W 4594   6.572   8.360  10.360
  851W        W 4595   2.888   2.676  10.302
  852W        W 4596   7.945   4.665   8.192
  853W        W 4597   3.336   5.765   2.849
  854W        W 4598   1.911   1.854   2.325
  855W        W 4599   3.100   6.499   2.136
  856W        W 4600   4.060   8.616  11.434
  857W        W 4601   3.341   8.592   1.454
  858W        W 4602   2.079   2.371   2.356
  859W        W 4603   7.745   2.485   9.990
  860W        W 4604   2.355   3.866   3.162
  861W        W 4605   6.682   7.097  11.420
  862W        W 4606   0.464   8.488   3.295
  863W        W 4607   2.779   6.018   0.064
  864W        W 4608   6.672   4.789   2.405
  865W        W 4609   1.310   7.270  11.648
  866W        W 4610   8.915   7.478  10.876
  867W        W 4611   1.180   9.321   3.082
  868W        W 4612   3.664   2.756  10.031
  869W        W 4613   8.072   6.446  10.713
  870W        W 4614   6.455   3.237   0.556
  871W        W 4615   8.664   3.571   2.054
  872W        W 4616   9.528   6.637   1.185
  873W        W 4617   4.172   9.815  10.955
  874W        W 4618   1.439   0.548   2.281
  875W        W 4619   7.888   3.291  10.480
  876W        W 4620   0.306   3.222   9.127
  877W        W 4621   1.763   5.067   3.254
  878W        W 4622   4.129   0.381  10.749
  879W        W 4623   2.599   6.556   2.146
  880W        W 4624   0.517   0.898   9.922
  881W        W 4625   7.505   9.969   1.021
  882W        W 4626   2.059   1.011  11.806
  883W        W 4627   7.499   4.977   9.821
  884W        W 4628   8.452   4.658  10.794
  885W        W 4629  10.052   0.935  10.615
  886W        W 4630   9.646   6.636   2.209
  887W        W 4631   9.372   6.119  10.738
  888W        W 4632   4.983   2.617   8.998
  889W        W 4633   8.470   4.588   8.860
  890W        W 4634   4.688   2.197  11.450
  891W        W 4635  10.256   7.973   1.443
  892W        W 4636   9.100   2.847   0.965
  893W        W 4637   6.575   5.123   0.873
  894W        W 4638   8.174   3.643   8.907
  895W        W 4639  10.397   3.261   9.442
  896W        W 4640   0.710   9.760  10.447
  897W        W 4641   0.883   0.962   1.243
  898W        W 4642   8.106   4.785  11.218
  899W        W 4643   9.403   9.424  10.473
  900W        W 4644   0.499   7.566   0.825
  901W        W 4645   4.009   7.693   1.294
  902W        W 4646   3.586  10.032   0.480
  903W        W 4647   4.737   1.741   8.968
  904W        W 4648   5.606   9.390  11.751
  905W        W 4649   4.274   3.629   0.684
  906W        W 4650   7.479   7.673  10.306
  907W        W 4651   0.838   8.037   2.419
  908W        W 4652   2.565   1.166  11.459
  909W        W 4653   0.931   9.103   1.923
  910W        W 4654   0.708   3.078   2.334
  911W        W 4655   8.032   9.292   3.130
  912W        W 4656   7.557   0.958   3.363
  913W        W 4657   8.596   0.522   0.621
  914W        W 4658   8.409   1.978  11.961
  915W        W 4659   6.992   1.482   0.400
  916W        W 4660   6.339   2.720   3.233
  917W        W 4661   2.237   9.354  11.269
  918W        W 4662   8.104   1.384   9.169
  919W        W 4663   1.712   7.236   8.849
  920W        W 4664   2.157   4.103  10.737
  921W        W 4665   6.528   0.728   0.404
  922W        W 4666   9.887   2.740  11.120
  923W        W 4667   6.393   6.823  10.573
  924W        W 4668   0.929   8.754  10.348
  925W        W 4669   3.518   0.949   1.335
  926W        W 4670   3.328   6.802   0.214
  927W        W 4671  10.021   7.345  11.863
  928W        W 4672   8.868   4.204  10.492
  929W        W 4673   7.042   6.947   9.990
  930W        W 4674   1.519   8.159  11.913
  931W        W 4675   9.066   9.488  11.821
  932W        W 4676   0.569   9.137  11.147
  933W        W 4677   5.491   6.658   4.075
  934W        W 4678   8.406  10.043   8.387
  935W        W 4679   0.572   4.830   0.547
  936W        W 4680   9.289   6.130   8.840
  937W        W 4681   6.621   3.755   1.438
  938W        W 4682   9.454   6.392  10.295
  939W        W 4683   4.371  10.355   2.872
  940W        W 4684   3.866   7.315   2.212
  941W        W 4685   8.421   0.732  11.365
  942W        W 4686   4.557   5.773  11.905
  943W        W 4687   8.720   9.301   2.153
  944W        W 4688   3.646   6.060   1.294
  945W        W 4689   8.317   9.479   0.881
  946W        W 4690   5.188   5.243   9.558
  947W        W 4691   7.907   4.041   1.128
  948W        W 4692   1.817   1.612   0.535
  949W        W 4693   5.111   5.228   0.821
  950W        W 4694   1.703   4.116   3.187
  951W        W 4695   3.206   8.431   9.559
  952W        W 4696   9.926   3.156   9.207
  953W        W 4697   6.109   2.475  10.362
  954W        W 4698   1.895   9.404  10.821
  955W        W 4699   5.623   6.488   2.367
  956W        W 4700   2.608   9.963   9.120
  957W        W 4701   1.012   9.064   2.453
  958W        W 4702   3.819   9.386  11.770
  959W        W 4703   2.666   8.021   3.305
  960W        W 4704   4.574   4.053   8.913
  961W        W 4705   3.651   7.543   3.418
  962W        W 4706   2.391   0.287  11.812
  963W        W 4707   5.654   8.035  11.295
  964W        W 4708   1.423   5.631   2.474
  965W        W 4709   5.264   0.947  11.329
  966W        W 4710   7.507   6.974   8.665
  967W        W 4711   2.902   3.188   8.911
  968W        W 4712   2.638   8.974   9.984
  969W        W 4713   5.653   7.566   8.864
  970W        W 4714   4.056   2.232   8.883
  971W        W 4715   5.970   6.799   9.505
  972W        W 4716   9.845  10.278  11.464
  973W        W 4717   4.232   0.329   2.714
  974W        W 4718   7.277   1.005   2.922
  975W        W 4719   4.174   8.503   2.794
  976W        W 4720   1.859   5.078   9.992
  977W        W 4721   8.887   4.543   2.019
  978W        W 4722   3.218   6.088   9.653
  979W        W 4723   9.017   0.848  11.400
  980W        W 4724   5.560   1.685  10.528
  981W        W 4725   2.788   8.075   1.788
  982W        W 4726   6.639   8.144   2.745
  983W        W 4727   6.655  10.026   1.016
  984W        W 4728   6.697   4.443   0.647
  985W        W 4729   4.828   9.823   0.895
  986W        W 4730  10.419   1.420   0.818
  987W        W 4731  10.319   4.713  11.399
  988W        W 4732   3.552   5.270   9.414
  989W        W 4733   5.460   4.336   1.661
  990W        W 4734   0.158   0.207   2.078
  991W        W 4735   0.834   7.127   3.566
  992W        W 4736   4.560   2.674   2.762
  993W        W 4737   1.161   6.113  10.850
  994W        W 4738   9.050   9.719   2.178
  995W        W 4739   8.794   9.855  11.501
  996W        W 4740   6.869   8.282   2.288
  997W        W 4741   0.187   9.194   2.380
  998W        W 4742   8.939   0.054  10.488
  999W        W 4743  10.299   3.253  11.365
 1000W        W 4744   2.342   2.086   2.041
 1001W        W 4745   7.816   3.283   1.118
 1002W        W 4746   0.820   0.531  11.513
 1003W        W 4747   4.991   4.509   3.086
 1004W        W 4748   2.280   7.835   0.365
 1005W        W 4749   9.849   9.257   2.579
 1006W        W 4750   4.049   3.950   9.142
 1007W        W 4751   5.345   7.892   2.649
 1008W        W 4752   6.595   5.719  11.712
 1009W        W 4753   5.947   2.233  10.771
 1010W        W 4754   5.689   8.569   0.714
 1011W        W 4755  10.312  10.053  11.778
 1012W        W 4756   1.715   9.078   9.097
 1013W        W 4757   2.647   2.786   3.537
 1014W        W 4758   7.479   1.345   1.703
 1015W        W 4759   1.155   1.860   1.643
 1016W        W 4760   3.156   6.112  11.752
 1017W        W 4761   7.947   9.141   0.783
 1018W        W 4762   3.539   7.707   1.662
 1019W        W 4763   3.668   4.693   8.216
 1020W        W 4764   7.080   4.749  10.372
 1021W        W 4765   9.409   3.754  10.163
 1022W        W 4766   8.549   5.680   3.075
 1023W        W 4767   4.007   4.439   1.559
 1024W        W 4768   9.142   3.595  11.349
 1025W        W 4769   9.542   6.358   0.165
 1026W        W 4770   2.597   2.655   3.041
 1027W        W 4771   9.332   7.822  11.503
 1028W        W 4772   8.384  10.159   0.196
 1029W        W 4773   5.561   0.016   8.869
 1030W        W 4774   5.797   9.863   9.598
 1031W        W 4775   1.316   0.774   9.534
 1032W        W 4776   1.226   5.093   3.027
 1033W        W 4777   5.663  10.404   1.972
 1034W        W 4778   5.768   0.687   1.309
 1035W        W 4779   1.862   8.639   3.147
 1036W        W 4780   1.087   1.095   3.649
 1037W        W 4781  10.448   1.795  10.100
 1038W        W 4782   2.330   3.611  11.070
 1039W        W 4783   8.870   5.743   2.667
 1040W        W 4784   8.147   9.254   9.812
 1041W        W 4785   5.226   3.542   1.724
 1042W        W 4786   1.834   8.413  10.182
 1043W        W 4787   5.580   3.690  11.954
 1044W        W 4788   8.330   3.320  10.801
 1045W        W 4789   6.552   8.558   9.831
 1046W        W 4790   2.838   0.426   9.791
 1047W        W 4791   7.521   0.302   2.278
 1048W        W 4792  10.244   5.067   3.240
 1049W        W 4793   1.300   5.931   3.365
 1050W        W 4794   4.587   1.878  11.057
 1051W        W 4795   4.269   3.312  11.263
 1052W        W 4796   8.273  10.234   8.840
 1053W        W 4797   9.743   4.013   1.680
 1054W        W 4798  10.178   5.989   9.030
 1055W        W 4799   2.564   4.519   8.758
 1056W        W 4800   6.668   7.531   1.736
 1057W        W 4801   5.788   6.210  11.516
 1058W        W 4802   6.834   5.154   9.496
 1059W        W 4803   0.929   3.567  10.819
 1060W        W 4804   4.072   0.204  11.225
 1061W        W 4805   9.955   3.254   9.734
 1062W        W 4806   0.804   8.035   2.950
 1063W        W 4807   1.355   9.974  10.608
 1064W        W 4808   0.594   0.579   9.118
 1065W        W 4809   7.115   1.104   8.937
 1066W        W 4810   0.774   2.629   3.024
 1067W        W 4811   8.706   7.310  11.849
 1068W        W 4812   7.142   3.378   8.934
 1069W        W 4813   4.459   0.026   2.386
 1070W        W 4814   7.843   5.179  11.436
 1071W        W 4815   9.567   7.108  10.990
 1072W        W 4816   4.141  10.074  10.038
 1073W        W 4817   6.992   6.092   9.616
 1074W        W 4818   0.116   7.476   9.577
 1075W        W 4819   7.091   4.655   4.267
 1076W        W 4820   7.454   0.853  10.919
 1077W        W 4821   5.254   8.315   0.487
 1078W        W 4822   4.761   9.322   0.922
 1079W        W 4823   9.283   1.639   1.980
 1080W        W 4824   5.175   8.949   1.992
 1081W        W 4825   3.630   8.560   8.969
 1082W        W 4826   6.936   0.168  11.824
 1083W        W 4827   9.903   1.840   1.457
 1084W        W 4828   7.569   5.399  11.000
 1085W        W 4829   8.669   6.830   1.472
 1086W        W 4830   5.787   4.644   1.367
 1087W        W 4831   5.102  10.423   1.554
 1088W        W 4832   8.345   6.210   2.166
 1089W        W 4833   6.140   3.687   1.709
 1090W        W 4834  10.391   1.265   2.742
 1091W        W 4835   3.553   2.737   1.840
 1092W        W 4836   5.248   8.999  11.457
 1093W        W 4837   1.692   7.167   9.740
 1094W        W 4838   9.885   7.052   3.004
 1095W        W 4839   3.688   9.606   0.215
 1096W        W 4840   6.865   2.229  10.694
 1097W        W 4841   9.426   1.211   9.973
 1098W        W 4842   5.361   0.423  10.590
 1099W        W 4843   3.278  10.184  10.886
 1100W        W 4844   8.148   8.395   0.306
 1101W        W 4845   6.453   3.274   2.819
 1102W        W 4846   4.631   7.892   2.312
 1103W        W 4847   2.327   8.361   1.405
 1104W        W 4848   6.083   9.689  10.466
 1105W        W 4849   6.090   1.038   0.174
 1106W        W 4850   3.307   0.518   2.764
 1107W        W 4851   3.906   4.644   2.722
 1108W        W 4852   2.858   3.579  11.735
 1109W        W 4853   5.278   1.362  11.016
 1110W        W 4854   2.943   4.606   9.627
 1111W        W 4855   6.197   1.264  10.565
 1112W        W 4856   3.218   4.565  11.557
 1113W        W 4857   6.567  10.222   0.546
 1114W        W 4858   9.868   1.408  10.680
 1115W        W 4859   0.131   8.337   0.394
 1116W        W 4860   3.412   3.662  10.376
 1117W        W 4861   0.189   6.183   9.871
 1118W        W 4862   4.954   5.645  10.278
 1119W        W 4863   6.168   6.490   1.222
 1120W        W 4864   5.630   3.131  11.135
 1121W        W 4865   4.690   9.109   9.147
 1122W        W 4866   9.522   9.591   0.033
 1123W        W 4867   4.995   4.527   1.857
 1124W        W 4868   1.729   5.998   9.913
 1125W        W 4869   2.203   9.462   9.854
 1126W        W 4870   0.401   2.756   1.167
 1127W        W 4871   2.980   5.935   0.553
 1128W        W 4872   2.231   0.940  10.563
 1129W        W 4873   0.156   1.653  11.083
 1130W        W 4874   3.554   1.709  11.997
 1131W        W 4875   9.969   6.156   1.371
 1132W        W 4876   8.078   7.198   8.629
 1133W        W 4877   5.965   7.474   1.504
 1134W        W 4878   3.660   3.499   1.472
 1135W        W 4879   8.488   5.905   9.569
 1136W        W 4880   1.042   5.939   9.485
 1137W        W 4881   2.821   8.871   2.148
 1138W        W 4882   4.817   3.143   2.698
 1139W        W 4883   9.899   6.018   0.006
 1140W        W 4884   4.994   4.202   8.670
 1141W        W 4885  10.395   7.232   0.213
 1142W        W 4886   9.577   7.039  11.924
 1143W        W 4887   7.577   5.784  11.916
 1144W        W 4888   3.715   1.412   9.343
 1145W        W 4889   0.770   7.050  10.589
 1146W        W 4890   9.182   1.744  10.797
 1147W        W 4891   8.945   3.325   1.069
 1148W        W 4892  10.312   0.458   0.702
 1149W        W 4893   0.294   6.967  10.249
 1150W        W 4894   8.421   5.055   9.620
 1151W        W 4895   0.252   2.665   3.144
 1152W        W 4896   4.417   9.527  10.129
 1153W        W 4897   7.898  10.211   9.566
 1154W        W 4898   2.698   5.645   1.726
 1155W        W 4899   7.190   7.001   0.211
 1156W        W 4900   5.458   7.249   3.708
 1157W        W 4901   8.280   0.019  11.827
 1158W        W 4902   6.460   1.393   9.617
 1159W        W 4903   1.806   4.267   0.616
 1160W        W 4904   9.897   8.890  11.552
 1161W        W 4905   3.533   7.546   1.169
 1162W        W 4906   1.617   3.187   3.066
 1163W        W 4907   6.962   6.069   0.958
 1164W        W 4908   0.484   2.095   0.930
 1165W        W 4909   7.169   9.319   3.251
 1166W        W 4910   2.678   1.934   9.922
 1167W        W 4911   3.696   8.863   0.905
 1168W        W 4912   1.353   0.880  10.532
 1169W        W 4913   9.972   5.691  10.318
 1170W        W 4914   8.752  10.051  10.529
 1171W        W 4915   3.126   9.804  11.343
 1172W        W 4916   1.829   5.746  11.225
 1173W        W 4917   1.031   1.394   3.246
 1174W        W 4918   9.542   7.031   3.440
 1175W        W 4919  10.333   9.875   1.696
 1176W        W 4920   5.752   7.012   2.360
 1177W        W 4921   7.401   5.619   9.117
 1178W        W 4922   2.847   4.826   2.814
 1179W        W 4923   9.474   3.574   3.327
 1180W        W 4924   9.551   4.498   0.429
 1181W        W 4925   5.666   1.309   8.744
 1182W        W 4926   7.053   3.966   2.405
 1183W        W 4927   5.660   3.728   1.985
 1184W        W 4928   7.687   3.840  11.821
 1185W        W 4929   7.171   2.656  10.632
 1186W        W 4930  10.428   4.370   0.770
 1187W        W 4931   7.195   1.253  11.852
 1188W        W 4932   2.928   2.959   8.425
 1189W        W 4933   5.533   2.229   8.807
 1190W        W 4934   8.166   1.885   2.873
 1191W        W 4935   3.316   0.512   2.230
 1192W        W 4936   7.934   7.357   2.700
 1193W        W 4937   0.282   1.344   9.819
 1194W        W 4938   2.385   1.881   8.635
 1195W        W 4939   0.631   8.884   0.949
 1196W        W 4940   6.203   6.002   1.036
 1197W        W 4941   9.071   3.739  10.537
 1198W        W 4942   4.266   1.162   0.843
 1199W        W 4943   2.666   3.807   0.626
 1200W        W 4944   7.890   5.104   0.219
 1201W        W 4945   7.855   8.278  11.329
 1202W        W 4946   7.935   6.612  11.690
 1203W        W 4947   1.264   7.341   3.100
 1204W        W 4948   1.444   6.497  11.012
 1205W        W 4949   7.567   7.907  11.063
 1206W        W 4950   1.674   2.690   3.245
 1207W        W 4951   6.055   1.967   0.724
 1208W        W 4952   2.207   8.589   2.306
 1209W        W 4953   6.856   7.825   9.958
 1210W        W 4954   1.407   5.576   9.431
 1211W        W 4955   1.869   5.916  10.401
 1212W        W 4956   1.719   7.757   8.752
 1213W        W 4957   7.197   1.482  11.326
 1214W        W 4958   2.271   3.776   8.892
 1215W        W 4959  10.027   3.811  10.285
 1216W        W 4960   0.012   9.372   1.410
 1217W        W 4961   9.848   5.523   9.838
 1218W        W 4962   7.679   9.452   8.554
 1219W        W 4963   3.170   2.771   9.353
 1220W        W 4964   7.300   4.408   0.599
 1221W        W 4965   2.967   7.554   8.644
 1222W        W 4966   4.032   7.903   3.427
 1223W        W 4967   3.504   3.155   3.304
 1224W        W 4968   8.196   4.683   0.167
 1225W        W 4969   5.617   1.726   2.468
 1226W        W 4970   3.147   4.100  10.817
 1227W        W 4971   9.552   0.709  11.586
 1228W        W 4972   5.652   8.467   0.211
 1229W        W 4973   2.171   7.336  11.255
 1230W        W 4974   4.593   5.028  10.805
 1231W        W 4975   3.752   1.327  10.369
 1232W        W 4976   2.286   8.447   8.892
 1233W        W 4977   8.974   0.044   1.792
 1234W        W 4978   6.018   5.810   9.573
 1235W        W 4979   0.745  10.068   3.487
 1236W        W 4980   5.731   9.575   3.004
 1237W        W 4981   9.414   1.731   1.479
 1238W        W 4982   3.517   1.712   0.798
 1239W        W 4983   6.954   0.287   9.512
 1240W        W 4984   9.504   0.972   0.936
 1241W        W 4985   9.370   9.575   2.920
 1242W        W 4986   9.343   5.059   9.230
 1243W        W 4987   1.521   7.775   2.941
 1244W        W 4988   2.200   5.778   2.343
 1245W        W 4989   6.175   6.459   3.855
 1246W        W 4990   5.279   3.796   2.327
 1247W        W 4991   0.530   8.293   9.505
 1248W        W 4992   6.221   2.724  10.782
 1249W        W 4993   4.957   3.711   7.826
 1250W        W 4994   4.276   3.897  10.349
 1251W        W 4995   7.389   6.774   3.696
 1252W        W 4996   5.395   7.095  10.558
 1253W        W 4997   5.978   8.381   9.524
 1254W        W 4998   7.203   7.313   0.671
 1255W        W 4999   5.109   0.676   2.111
 1256W        W 5000   4.751   2.706  10.760
 1257W        W 5001   3.329   2.814   0.258
 1258W        W 5002   7.968   0.958   8.852
 1259W        W 5003   5.992   3.906  10.203
 1260W        W 5004   2.203   5.787   9.000
 1261W        W 5005   2.764   4.687   1.955
 1262W        W 5006   9.725   7.151   1.441
 1263W        W 5007   8.559   3.385   3.369
 1264W        W 5008   5.023   7.990   9.771
 1265W        W 5009   1.687   4.702   9.691
 1266W        W 5010   9.124   8.212   9.229
 1267W        W 5011   7.467   5.205   3.607
 1268W        W 5012   6.517   7.383   2.711
 1269W        W 5013   4.573   8.123  10.035
 1270W        W 5014   4.525   9.686   8.559
 1271W        W 5015   7.783  10.411  11.968
 1272W        W 5016   4.133   1.400   0.392
 1273W        W 5017   1.259   6.463   0.300
 1274W        W 5018   8.096   8.916   0.325
 1275W        W 5019   0.105   6.817   8.629
 1276W        W 5020   4.604   5.024   2.670
 1277W        W 5021   9.321   2.343   9.976
 1278W        W 5022  10.135   0.414   9.941
 1279W        W 5023   1.820   1.643  10.054
 1280W        W 5024   1.281   2.209   1.187
 1281W        W 5025   7.954   8.822   3.335
 1282W        W 5026  10.288   6.479   9.667
 1283W        W 5027   0.480   3.460  10.594
 1284W        W 5028   7.057   5.377   0.762
 1285W        W 5029   5.612   9.406   1.458
 1286W        W 5030   3.478   8.455   3.202
 1287W        W 5031   7.469   5.033   0.483
 1288W        W 5032   7.257   9.273   1.858
 1289W        W 5033   9.151   1.352   0.212
 1290W        W 5034   2.865   4.041   3.278
 1291W        W 5035   9.768   0.509   1.866
 1292W        W 5036   1.827   5.565   0.248
 1293W        W 5037   3.118   0.009   9.611
 1294W        W 5038   1.856  10.324  11.516
 1295W        W 5039  10.283   1.911   2.085
 1296W        W 5040   6.888   7.609   1.236
 1297W        W 5041   6.491   3.538  10.739
 1298W        W 5042   8.754  10.441   9.463
 1299W        W 5043   3.197   6.052   2.369
 1300W        W 5044   4.464   4.623   0.823
 1301W        W 5045  10.467   5.427   2.379
 1302W        W 5046   3.115   0.699   3.270
 1303W        W 5047   6.711   5.556  10.848
 1304W        W 5048   8.912   7.645   0.367
 1305W        W 5049   8.442   8.634   3.303
 1306W        W 5050   2.437   0.281   9.478
 1307W        W 5051   8.414   1.791   0.439
 1308W        W 5052   0.599   2.406   8.498
 1309W        W 5053   0.702   4.147   2.231
 1310W        W 5054   6.972   2.236   8.832
 1311W        W 5055   4.650   7.074   1.666
 1312W        W 5056   0.385   6.422  11.917
 1313W        W 5057   3.116   7.610   3.158
 1314W        W 5058   4.172   7.872   9.794
 1315W        W 5059   2.565   9.550   8.795
 1316W        W 5060   7.676   6.528   1.568
 1317W        W 5061   6.845   2.314  11.738
 1318W        W 5062   1.171   7.584  11.261
 1319W        W 5063   4.609   9.927   2.715
 1320W        W 5064   7.797   6.042   4.147
 1321W        W 5065   4.841   1.320  11.260
 1322W        W 5066   6.555   5.864   2.738
 1323W        W 5067   9.919   7.469   1.830
 1324W        W 5068   6.491   0.973   9.299
 1325W        W 5069   2.361   1.456   9.041
 1326W        W 5070   4.778   6.495   1.818
 1327W        W 5071   4.625   6.159  10.365
 1328W        W 5072   6.982   9.439   1.455
 1329W        W 5073   4.147   4.694   9.969
 1330W        W 5074   2.705   3.227  10.863
 1331W        W 5075   4.190   0.344   1.189
 1332W        W 5076   7.698   8.310   0.525
 1333W        W 5077   9.358   0.237   9.558
 1334W        W 5078   2.817   1.456   9.818
 1335W        W 5079   3.209   4.096  11.319
 1336W        W 5080   7.418   9.763   0.494
 1337W        W 5081   1.241   6.527   1.688
 1338W        W 5082  10.447   0.142   1.145
 1339W        W 5083   8.869   3.199   9.516
 1340W        W 5084   6.084   7.376   3.045
 1341W        W 5085   5.072   7.419  10.070
 1342W        W 5086   7.704   7.335   9.957
 1343W        W 5087   3.816   2.258   1.781
 1344W        W 5088   2.585   3.177  11.947
 1345W        W 5089   3.940   2.637   8.586
 1346W        W 5090   7.888   7.047   9.552
 1347W        W 5091   3.874   3.639  11.051
 1348W        W 5092   6.086   0.382   0.794
 1349W        W 5093   2.167   4.409   8.433
 1350W        W 5094   6.228   0.049  10.841
 1351W        W 5095   7.518   2.951   2.309
 1352W        W 5096   5.550   4.366  11.421
 1353W        W 5097   8.182   5.797   3.878
 1354W        W 5098   9.002   7.735   9.360
 1355W        W 5099   4.725   7.237   9.475
 1356W        W 5100   7.937   1.153   1.912
 1357W        W 5101   7.857   8.370   9.844
 1358W        W 5102   3.701   1.404   1.490
 1359W        W 5103   7.436   7.439  11.262
 1360W        W 5104   6.565   6.882   2.717
 1361W        W 5105   8.451   4.571   3.120
 1362W        W 5106   7.834   5.118   8.017
 1363W        W 5107   4.574  10.353  10.046
 1364W        W 5108   5.778   4.622   2.919
 1365W        W 5109   9.702  10.446   1.269
 1366W        W 5110  10.049   0.521  11.807
 1367W        W 5111   5.109   6.141  11.053
 1368W        W 5112   2.309   6.246   3.770
 1369W        W 5113   1.966   1.145   8.799
 1370W        W 5114   1.812   3.202  10.991
 1371W        W 5115   4.081   2.370   0.455
 1372W        W 5116   9.407   0.415   8.622
 1373W        W 5117   2.894   4.012   2.366
 1374W        W 5118   8.948   2.715  10.746
 1375W        W 5119   4.470   6.774  11.814
 1376W        W 5120   0.137   9.327  11.322
 1377W        W 5121  10.270   6.331   2.522
 1378W        W 5122   5.838   7.686   1.960
 1379W        W 5123   2.664   9.994   3.311
 1380W        W 5124   8.411   4.178   9.561
 1381W        W 5125   5.729   8.322   1.150
 1382W        W 5126   4.719   3.246   9.698
 1383W        W 5127   2.627   1.219  10.268
 1384W        W 5128   7.795  10.329   1.241
 1385W        W 5129   8.275   0.319   0.271
 1386W        W 5130   7.066   8.780   3.335
 1387W        W 5131   7.849   9.386   2.644
 1388W        W 5132   2.251   9.855   1.411
 1389W        W 5133   5.996   2.972  10.351
 1390W        W 5134   7.164   7.860   1.655
 1391W        W 5135   1.706   2.639   9.532
 1392W        W 5136   5.430   0.871  10.845
 1393W        W 5137  10.047   0.586   3.138
 1394W        W 5138   1.308   0.540  11.404
 1395W        W 5139   8.535   1.788   1.415
 1396W        W 5140   2.439   2.203   9.558
 1397W        W 5141   1.937   3.306   1.534
 1398W        W 5142   5.697   8.231   2.745
 1399W        W 5143   1.008   2.339   9.577
 1400W        W 5144   0.703   2.887  11.413
 1401W        W 5145   7.683   1.994  10.266
 1402W        W 5146   5.427   0.829   3.119
 1403W        W 5147   3.945   5.628  10.219
 1404W        W 5148   2.911   4.539  10.979
 1405W        W 5149   8.947   6.221   2.824
 1406W        W 5150   5.576   2.041   0.966
 1407W        W 5151   1.584   8.002  10.062
 1408W        W 5152   2.719   6.989   3.362
 1409W        W 5153   7.670   1.387   3.640
 1410W        W 5154   2.775   3.725   1.953
 1411W        W 5155  10.352   3.067   8.932
 1412W        W 5156   9.114   6.685   2.669
 1413W        W 5157   1.211   3.320   0.234
 1414W        W 5158   4.899   0.684   8.244
 1415W        W 5159   3.574   3.223  10.666
 1416W        W 5160   1.433   2.253   9.314
 1417W        W 5161   0.491   6.850  10.974
 1418W        W 5162   2.143   7.681   1.195
 1419W        W 5163   1.334   4.313   8.993
 1420W        W 5164   2.580   2.678   0.830
 1421W        W 5165   9.142   5.534   9.265
 1422W        W 5166   0.292   4.129  11.928
 1423W        W 5167   2.400   0.875   1.949
 1424W        W 5168   2.371   6.074   9.797
 1425W        W 5169   5.019   3.785   9.039
 1426W        W 5170   8.902   5.294   0.436
 1427W        W 5171   6.214   5.493   0.074
 1428W        W 5172   1.494   5.067   1.926
 1429W        W 5173   0.242   0.557   0.971
 1430W        W 5174   6.144   8.398  10.094
 1431W        W 5175   0.317   0.382  11.358
 1432W        W 5176   9.487   4.154   0.058
 1433W        W 5177   7.977   8.742   1.689
 1434W        W 5178  10.273   8.385   3.165
 1435W        W 5179   4.824   4.563   1.362
 1436W        W 5180   0.945   0.303   0.283
 1437W        W 5181   8.976   9.778   3.184
 1438W        W 5182   1.105  10.319   0.179
 1439W        W 5183   7.992   4.620   2.387
 1440W        W 5184  10.460  10.110   9.113
 1441W        W 5185   8.895   5.563   9.752
 1442W        W 5186   8.854   9.047  11.972
 1443W        W 5187   4.791   1.226   0.751
 1444W        W 5188   7.965   6.476   2.627
 1445W        W 5189   5.439   2.147  10.727
 1446W        W 5190   4.207   5.851  10.638
 1447W        W 5191   2.199   2.197  11.134
 1448W        W 5192   5.240   4.229   3.628
 1449W        W 5193   3.682   5.894   2.232
 1450W        W 5194   1.786   9.571   8.995
 1451W        W 5195   5.294   0.061  10.980
 1452W        W 5196   6.116   9.900   2.955
 1453W        W 5197   2.152   6.524   1.913
 1454W        W 5198   8.126   5.755   8.448
 1455W        W 5199   1.641   4.598   0.263
 1456W        W 5200   7.646   3.270  11.917
 1457W        W 5201   2.842   5.757  10.387
 1458W        W 5202   6.645   6.637   3.157
 1459W        W 5203   6.816   2.076  10.205
 1460W        W 5204   5.756   3.739   2.499
 1461W        W 5205   5.186   1.758   0.842
 1462W        W 5206   3.798   3.550   9.378
 1463W        W 5207  10.203   6.031   0.916
 1464W        W 5208   4.223   1.406   9.586
 1465W        W 5209   3.013   0.875   2.418
 1466W        W 5210   3.563   0.143  11.285
 1467W        W 5211   4.674   0.323   9.877
 1468W        W 5212   1.683   3.147   2.532
 1469W        W 5213   1.019   8.350   0.406
 1470W        W 5214   3.521   6.696   8.684
 1471W        W 5215   2.261   5.473  11.996
 1472W        W 5216   6.425   5.234   2.573
 1473W        W 5217   2.260   0.340   3.485
 1474W        W 5218   7.518   1.505   0.735
 1475W        W 5219   9.728  10.126  10.359
 1476W        W 5220   9.591   2.214   1.275
 1477W        W 5221   1.763   7.287  10.378
 1478W        W 5222   0.777   4.229   3.262
 1479W        W 5223   1.682   7.629  11.319
 1480W        W 5224   8.549   5.301   1.269
 1481W        W 5225   5.712   7.131   4.135
 1482W        W 5226   4.568   8.159   8.962
 1483W        W 5227   9.812   7.674   9.420
 1484W        W 5228   4.998   7.907   8.805
 1485W        W 5229   8.748   5.826   0.967
 1486W        W 5230   3.211   6.334   1.481
 1487W        W 5231   6.895   8.121   8.879
 1488W        W 5232   8.996   3.353   1.570
 1489W        W 5233   9.493   4.718  10.965
 1490W        W 5234   2.691   4.665   0.714
 1491W        W 5235   9.843   2.219   0.172
 1492W        W 5236  10.375   6.095   0.287
 1493W        W 5237   3.146   5.652   1.972
 1494W        W 5238   7.881   7.181  10.428
 1495W        W 5239   6.171   0.542  10.757
 1496W        W 5240   7.848   9.756  11.444
 1497W        W 5241   3.951   8.354   3.226
 1498W        W 5242   0.276   8.556   9.135
 1499W        W 5243   5.316   4.491   1.194
 1500W        W 5244   8.484   6.381   1.266
 1501W        W 5245   7.550   9.494   3.581
 1502W        W 5246   3.722  10.104   9.120
 1503W        W 5247   8.497   0.987   2.932
 1504W        W 5248   4.268   1.484  11.097
 1505W        W 5249   3.563   4.316   0.442
 1506W        W 5250   4.535   6.964   0.634
 1507W        W 5251   8.460   9.006   2.501
 1508W        W 5252   2.060   7.705   2.146
 1509W        W 5253   8.483   8.280  11.949
 1510W        W 5254   1.782   2.150   2.733
 1511W        W 5255   5.664   1.293   0.258
 1512W        W 5256   7.044   7.579   3.522
 1513W        W 5257   0.195   5.940  11.899
 1514W        W 5258   9.428   5.021   1.258
 1515W        W 5259   4.280   1.115  10.012
 1516W        W 5260   0.005   8.415  10.982
 1517W        W 5261   9.343   0.552  10.471
 1518W        W 5262   3.180   7.004   2.139
 1519W        W 5263   7.686   4.231   8.285
 1520W        W 5264   1.463   5.492  11.461
 1521W        W 5265   5.102   0.009   3.413
 1522W        W 5266   9.532   5.438   0.968
 1523W        W 5267   9.030   5.838   3.158
 1524W        W 5268   8.763   7.053   2.776
 1525W        W 5269   3.670   8.614   2.706
 1526W        W 5270   2.743  10.422  11.588
 1527W        W 5271   3.498   2.768  10.953
 1528W        W 5272   7.291   2.312   9.752
 1529W        W 5273   3.089   9.239   3.640
 1530W        W 5274  10.307   6.184   3.017
 1531W        W 5275   1.850   3.717  10.902
 1532W        W 5276   7.481   6.124   9.405
 1533W        W 5277   6.029   7.426   2.555
 1534W        W 5278   5.625   8.306   3.635
 1535W        W 5279   2.237   5.796   1.454
 1536W        W 5280   5.533   6.850   0.405
 1537W        W 5281   3.321   1.183   3.355
 1538W        W 5282  10.360   6.464   9.134
 1539W        W 5283   6.768   8.463   0.296
 1540W        W 5284   9.814   5.236  10.475
 1541W        W 5285   4.474   7.496   1.423
 1542W        W 5286   3.674   6.702   9.180
 1543W        W 5287   1.462   5.548   2.983
 1544W        W 5288   5.593   3.099   9.387
 1545W        W 5289   7.563   8.883   1.951
 1546W        W 5290  10.172   5.997   9.886
 1547W        W 5291   9.831   6.170   8.606
 1548W        W 5292   6.139   9.913   9.983
 1549W        W 5293   9.867   3.273  11.139
 1550W        W 5294   6.107   6.480  11.820
 1551W        W 5295   4.535   7.521   1.934
 1552W        W 5296   2.382   7.557  10.141
 1553W        W 5297   4.467   7.245  11.086
 1554W        W 5298   5.623   1.292   9.260
 1555W        W 5299   7.302   4.487   9.012
 1556W        W 5300   7.681   6.944   0.327
 1557W        W 5301  10.253   4.976   2.534
 1558W        W 5302   8.932   6.249   3.463
 1559W        W 5303   8.101   1.268  11.450
 1560W        W 5304   6.758   5.680   9.837
 1561W        W 5305   1.530   1.852   1.988
 1562W        W 5306   4.872   5.637   9.410
 1563W        W 5307   5.095   1.214   2.975
 1564W        W 5308   3.594   3.733   8.932
 1565W        W 5309   7.485   6.765  11.866
 1566W        W 5310   5.661   2.790   1.585
 1567W        W 5311   3.712   5.885   3.167
 1568W        W 5312   6.123   5.938  11.816
 1569W        W 5313   2.840   0.734  11.501
 1570W        W 5314   7.363   2.361  11.760
 1571W        W 5315   5.305   9.314   2.952
 1572W        W 5316   9.697   5.419   9.325
 1573W        W 5317   2.159   8.031  10.152
 1574W        W 5318   8.037   4.444   3.947
 1575W        W 5319   9.559   0.477   0.602
 1576W        W 5320   4.598   0.742   0.838
 1577W        W 5321   2.210   4.065   0.864
 1578W        W 5322   1.352   9.422  11.646
 1579W        W 5323   1.054   8.407  10.708
 1580W        W 5324   1.603   0.755   0.788
 1581W        W 5325   7.810   1.151   2.424
 1582W        W 5326   9.196   5.605   3.589
 1583W        W 5327   1.854   9.243   0.345
 1584W        W 5328   9.984   0.304   2.708
 1585W        W 5329   1.366   8.423   9.283
 1586W        W 5330   8.835   0.797   9.036
 1587W        W 5331   6.553   5.027  11.063
 1588W        W 5332   8.961   7.915   3.366
 1589W        W 5333   5.425   7.107   8.769
 1590W        W 5334   1.840   8.060   9.168
 1591W        W 5335   6.363   2.424  11.928
 1592W        W 5336   1.220   1.137   0.030
 1593W        W 5337   3.363   8.725   0.450
 1594W        W 5338   5.723   0.191  11.437
 1595W        W 5339   7.105   6.578   1.529
 1596W        W 5340   8.026   7.677  10.643
 1597W        W 5341   9.267   2.405  10.479
 1598W        W 5342   9.820   6.138   2.315
 1599W        W 5343   7.265   2.934   0.925
 1600W        W 5344   0.955   5.157   0.578
 1601W        W 5345  10.366   4.511   1.259
 1602W        W 5346   3.569   3.662   9.819
 1603W        W 5347   8.960   3.586   0.288
 1604W        W 5348   6.016   5.204  10.130
 1605W        W 5349   9.764   8.156  10.750
 1606W        W 5350   8.871   4.368   2.538
 1607W        W 5351   7.392   6.578   1.964
 1608W        W 5352   1.280   5.726   9.923
 1609W        W 5353   0.004   8.732   2.246
 1610W        W 5354   7.609   8.094   1.476
 1611W        W 5355   6.938   4.540  11.814
 1612W        W 5356   5.478   6.233   2.791
 1613W        W 5357   8.196   0.675   9.667
 1614W        W 5358   6.026   9.176   1.748
 1615W        W 5359   5.321   9.882   0.897
 1616W        W 5360   7.652   9.549  11.023
 1617W        W 5361   7.071   3.582   2.081
 1618W        W 5362   4.732   3.635   0.930
 1619W        W 5363   8.520   1.490   9.950
 1620W        W 5364   8.436   3.806   2.444
 1621W        W 5365   2.516   1.652   0.879
 1622W        W 5366   4.123   6.580   9.388
 1623W        W 5367   3.351   2.297   9.628
 1624W        W 5368   9.632   3.469  11.560
 1625W        W 5369   6.126   0.310   1.317
 1626W        W 5370   5.212   3.925   9.513
 1627W        W 5371   4.888   9.058   2.881
 1628W        W 5372   3.321   7.406   3.759
 1629W        W 5373   9.465   9.742   1.850
 1630W        W 5374   1.656  10.417   2.933
 1631W        W 5375   8.521   2.809   9.481
 1632W        W 5376   4.104   4.120   1.945
 1633W        W 5377   1.355   9.458   9.256
 1634W        W 5378   2.824   7.345   0.503
 1635W        W 5379   8.957   3.163  11.017
 1636W        W 5380   5.063  10.490   0.293
 1637W        W 5381   1.233   2.748   1.459
 1638W        W 5382   8.529   5.548  10.562
 1639W        W 5383   2.671   6.044   2.892
 1640W        W 5384   0.223   2.714   9.116
 1641W        W 5385   6.989   6.087   3.568
 1642W        W 5386   4.454   5.672  10.235
 1643W        W 5387   4.340   1.301   3.483
 1644W        W 5388   4.074   6.139   2.886
 1645W        W 5389   7.172   3.214  11.697
 1646W        W 5390   5.938   5.637  10.419
 1647W        W 5391   1.399   6.884   2.852
 1648W        W 5392   0.929   2.685  10.192
 1649W        W 5393   7.242   3.712   2.871
 1650W        W 5394   4.985   5.177   0.327
 1651W        W 5395   7.051   0.314   1.694
 1652W        W 5396   6.040   2.405   2.232
 1653W        W 5397   5.574   2.439   1.992
 1654W        W 5398   7.843   5.676   8.857
 1655W        W 5399   2.164   7.787  11.468
 1656W        W 5400   8.520   0.667   1.517
 1657W        W 5401   5.506  10.239  11.439
 1658W        W 5402   4.772   8.079  11.698
 1659W        W 5403   4.595   5.947   1.187
 1660W        W 5404  10.322   3.075   2.977
 1661W        W 5405   1.901   1.325   9.267
 1662W        W 5406   4.754   3.648  10.497
 1663W        W 5407   0.524   5.240   0.894
 1664W        W 5408   0.542   9.314   0.693
 1665W        W 5409   9.790   2.357   9.789
 1666W        W 5410   2.773   7.862   2.829
 1667W        W 5411   1.218   6.552   2.206
 1668W        W 5412   0.978   9.470   8.435
 1669W        W 5413   6.139   1.046  11.449
 1670W        W 5414   2.243   6.808   2.418
 1671W        W 5415   2.118   4.317   0.137
 1672W        W 5416   0.371   6.503   8.941
 1673W        W 5417   3.955   3.114   3.593
 1674W        W 5418   5.473   3.345   3.662
 1675W        W 5419   4.689   1.311   2.585
 1676W        W 5420   5.193   1.224   1.511
 1677W        W 5421   3.933   8.932   3.019
 1678W        W 5422   1.597   9.183  10.463
 1679W        W 5423   1.110   8.472   1.402
 1680W        W 5424   6.249   1.407   2.340
 1681W        W 5425   3.797   2.845   0.547
 1682W        W 5426   7.550   3.081   9.171
 1683W        W 5427   1.354   2.472  11.579
 1684W        W 5428   5.103   2.240   0.630
 1685W        W 5429   6.373   7.307  10.411
 1686W        W 5430   9.814   1.793  11.443
 1687W        W 5431   0.986   1.433   1.427
 1688W        W 5432   6.355   1.999   1.585
 1689W        W 5433   5.680   8.528   3.170
 1690W        W 5434   4.225   6.715   2.390
 1691W        W 5435   2.322   0.884   2.935
 1692W        W 5436   5.652   3.263   1.783
 1693W        W 5437   7.365   6.851   0.697
 1694W        W 5438   4.468   2.195   0.063
 1695W        W 5439   2.717   5.670  11.249
 1696W        W 5440   7.616   4.079   3.011
 1697W        W 5441  10.244   5.731  11.796
 1698W        W 5442   8.062   1.668  11.773
 1699W        W 5443   5.691   3.153   3.252
 1700W        W 5444   7.907   1.957  10.735
 1701W        W 5445   2.081   4.210   1.847
 1702W        W 5446   5.541  10.263   0.371
 1703W        W 5447   2.221  10.382   9.775
 1704W        W 5448   5.231   2.027   2.693
 1705W        W 5449   2.312   5.151   0.386
 1706W        W 5450   4.777   7.147   8.988
 1707W        W 5451   2.795   9.050   8.985
 1708W        W 5452  10.063   9.437   1.665
 1709W        W 5453   6.951   6.565   0.019
 1710W        W 5454   5.660   2.200   0.481
 1711W        W 5455   9.662   1.797  10.951
 1712W        W 5456   5.526   7.310   1.239
 1713W        W 5457   0.284   4.713   0.948
 1714W        W 5458   9.878   8.056  11.233
 1715W        W 5459   7.339   9.663  11.506
 1716W        W 5460   4.163   9.129   0.719
 1717W        W 5461   9.264   5.464   0.093
 1718W        W 5462   4.613   8.243   2.700
 1719W        W 5463   0.254   2.865  10.892
 1720W        W 5464   6.417   2.470   0.837
 1721W        W 5465   3.337   0.740  10.027
 1722W        W 5466   2.798   1.419  11.866
 1723W        W 5467   0.670   5.057   2.788
 1724W        W 5468  10.259   3.196   0.308
 1725W        W 5469   2.714   7.228   9.798
 1726W        W 5470   2.916   9.031  10.482
 1727W        W 5471   2.851   6.968   0.136
 1728W        W 5472   7.671   7.979   0.977
 1729W        W 5473   0.763  10.035   2.056
 1730W        W 5474   3.939   5.188  11.459
 1731W        W 5475   6.201   2.404   1.300
 1732W        W 5476  10.277   6.478  10.644
 1733W        W 5477   6.257   8.553   0.336
 1734W        W 5478   4.152   6.875   0.253
 1735W        W 5479   2.151   6.089  10.777
 1736W        W 5480   2.636   5.516   2.214
 1737W        W 5481   0.031   6.986  10.752
 1738W        W 5482   5.100   3.119  10.884
 1739W        W 5483   3.055   1.853   1.717
 1740W        W 5484   7.444   7.116   2.718
 1741W        W 5485   6.079   3.338   2.462
 1742W        W 5486   0.273   6.201  11.461
 1743W        W 5487   7.529   8.608   1.456
 1744W        W 5488   9.129   7.098   2.388
 1745W        W 5489   8.680   4.807   0.377
 1746W        W 5490   1.159   7.541   9.373
 1747W        W 5491   4.344   9.988   0.941
 1748W        W 5492   2.489   9.892  11.931
 1749W        W 5493   4.142   2.242   1.397
 1750W        W 5494   7.705   4.829  11.783
 1751W        W 5495   9.173   3.494   2.920
 1752W        W 5496   2.771   6.116   9.008
 1753W        W 5497   0.489   7.354   0.332
 1754W        W 5498   1.512   1.938   9.730
 1755W        W 5499   9.131   7.531   0.804
 1756W        W 5500  10.323   0.769   2.753
 1757W        W 5501   4.960   3.332   1.340
 1758W        W 5502   2.325   3.495  11.612
 1759W        W 5503   9.846   1.342   2.688
 1760W        W 5504   4.988   1.256   9.020
 1761W        W 5505   4.328   3.737   2.198
 1762W        W 5506   9.852   8.363  11.838
 1763W        W 5507   7.442   4.070   1.634
 1764W        W 5508   2.635   3.566   2.412
 1765W        W 5509   4.622   7.243   3.423
 1766W        W 5510   3.261   1.376   9.577
 1767W        W 5511   0.395   8.064   9.052
 1768W        W 5512   8.334   6.987   3.113
 1769W        W 5513   5.883   8.931   8.823
 1770W        W 5514   3.539   6.419  11.922
 1771W        W 5515   2.453   5.212  11.155
 1772W        W 5516   2.927   9.910   1.286
 1773W        W 5517   3.538   4.515   1.385
 1774W        W 5518   7.002  10.466  11.349
 1775W        W 5519   2.876   7.668  10.058
 1776W        W 5520   9.505   2.626   2.005
 1777W        W 5521   5.146   8.308  10.563
 1778W        W 5522   2.703   8.609   8.630
 1779W        W 5523   0.576   3.515   1.611
 1780W        W 5524   5.490   4.701  10.136
 1781W        W 5525   2.283   7.311   2.724
 1782W        W 5526   4.092   6.678   8.868
 1783W        W 5527   5.353   7.989   1.259
 1784W        W 5528   0.067   5.721  11.412
 1785W        W 5529   7.506   0.745   8.991
 1786W        W 5530   5.473   2.651   9.149
 1787W        W 5531   5.716   9.553   0.939
 1788W        W 5532   3.029   2.220   1.359
 1789W        W 5533   8.895   8.556  11.844
 1790W        W 5534   3.299   1.473  11.100
 1791W        W 5535   2.845   6.252  10.487
 1792W        W 5536   8.673   1.973   3.784
 1793W        W 5537   1.146   6.974   0.405
 1794W        W 5538   5.953   6.956   1.350
 1795W        W 5539   2.096   4.267   2.875
 1796W        W 5540   7.144   8.183   1.254
 1797W        W 5541   5.717   5.592  10.918
 1798W        W 5542   4.186   2.825   0.187
 1799W        W 5543   6.033   1.173   1.872
 1800W        W 5544   6.153   6.160   0.268
 1801W        W 5545   5.212   2.869   0.250
 1802W        W 5546  10.495   2.116  11.078
 1803W        W 5547   3.117   2.744  11.297
 1804W        W 5548   6.608   1.810   2.566
 1805W        W 5549   9.849   9.885   1.443
 1806W        W 5550   4.853   9.864  11.691
 1807W        W 5551   7.425   7.291  11.773
 1808W        W 5552   6.044   1.637   9.300
 1809W        W 5553   9.435   8.492   2.270
 1810W        W 5554   3.886   3.640  10.539
 1811W        W 5555   4.910   7.495  11.099
 1812W        W 5556   3.699   9.532   1.502
 1813W        W 5557   3.582   2.680   3.003
 1814W        W 5558   5.162   3.414   9.411
 1815W        W 5559   4.575   6.917   1.193
 1816W        W 5560   0.021   9.122  11.907
 1817W        W 5561   1.923   0.326   9.546
 1818W        W 5562   3.590   9.033   1.398
 1819W        W 5563   6.158   0.633   9.517
 1820W        W 5564   2.045   3.778   1.268
 1821W        W 5565   3.541   2.237   1.344
 1822W        W 5566   5.561   6.059   9.729
 1823W        W 5567   4.211   9.140   9.834
 1824W        W 5568   5.765  10.069   0.811
 1825W        W 5569   8.573   8.559   2.288
 1826W        W 5570   7.062   0.988  11.405
 1827W        W 5571   9.496   2.608   2.528
 1828W        W 5572   0.132   4.079   2.328
 1829W        W 5573   1.696   2.366   9.974
 1830W        W 5574   6.204   7.494   9.973
 1831W        W 5575   6.568   4.530   0.144
 1832W        W 5576   7.656   7.503   2.285
 1833W        W 5577  10.191   2.320   2.430
 1834W        W 5578   6.536   2.816   9.473
 1835W        W 5579   7.552   3.946   0.735
 1836W        W 5580   4.725   0.243   2.884
 1837W        W 5581   8.629   1.733   2.776
 1838W        W 5582   4.072   6.477  11.946
 1839W        W 5583   8.814   7.068   3.276
 1840W        W 5584   6.871   6.816   0.566
 1841W        W 5585   2.773   9.426   1.402
 1842W        W 5586   4.422   4.570   2.792
 1843W        W 5587   7.930   2.791   0.352
 1844W        W 5588   6.151   8.945   2.465
 1845W        W 5589   5.043  10.431  11.432
 1846W        W 5590   1.706   3.778   0.765
 1847W        W 5591   2.174   2.615   9.757
 1848W        W 5592   5.653   7.016   3.262
 1849W        W 5593   0.687   4.891   9.521
 1850W        W 5594   1.307   9.568   2.107
 1851W        W 5595   3.843   7.073   3.240
 1852W        W 5596   6.958   3.284   0.697
 1853W        W 5597   4.344   4.722   1.314
 1854W        W 5598  10.204   8.317  10.510
 1855W        W 5599   8.840   5.011   9.037
 1856W        W 5600   1.022   7.909   8.641
 1857W        W 5601   3.695   4.932   2.328
 1858W        W 5602   1.397   4.098  11.486
 1859W        W 5603   7.937   9.040  11.834
 1860W        W 5604   7.168   9.780   1.772
 1861W        W 5605  10.346   9.787   3.305
 1862W        W 5606   8.462   4.692   2.627
 1863W        W 5607   0.284   2.719   1.716
 1864W        W 5608  10.419   1.121   1.934
 1865W        W 5609   9.741   8.759   1.026
 1866W        W 5610   7.023   1.699   3.433
 1867W        W 5611   2.088   2.719  10.958
 1868W        W 5612   0.406   0.436   3.395
 1869W        W 5613   4.544   6.768  11.277
 1870W        W 5614   5.182   3.493   2.722
 1871W        W 5615   3.664   6.264   9.454
 1872W        W 5616   1.758   2.748   2.220
 1873W        W 5617   9.517   5.681   3.178
 1874W        W 5618   5.845   3.785   8.598
 1875W        W 5619   3.046   0.947   1.142
 1876W        W 5620   5.161   9.267  10.773
 1877W        W 5621   8.517   8.125   2.565
 1878W        W 5622   5.913   2.982   9.783
 1879W        W 5623   0.217   5.562   2.878
 1880W        W 5624   2.324   4.205   1.370
 1881W        W 5625   6.623   2.004   0.818
 1882W        W 5626   1.819   9.886  10.976
 1883W        W 5627   0.707   8.040   1.025
 1884W        W 5628  10.393   2.698   9.856
 1885W        W 5629   1.715   1.781  11.586
 1886W        W 5630   0.949   7.801   1.924
 1887W        W 5631   1.240   3.756   0.532
 1888W        W 5632   6.298   2.614   9.888
 1889W        W 5633   0.810   1.872  10.273
 1890W        W 5634   8.305   6.106   0.870
 1891W        W 5635   1.852   8.120   1.258
 1892W        W 5636   4.852   4.023   9.884
 1893W        W 5637   9.287   0.645   1.876
 1894W        W 5638  10.438   7.052   3.161
 1895W        W 5639   3.190   5.644   0.007
 1896W        W 5640   5.752   7.734   2.877
 1897W        W 5641   1.744   3.986   8.909
 1898W        W 5642   9.434   9.977   3.264
 1899W        W 5643   7.487   8.720   9.979
 1900W        W 5644   3.800   7.350   0.792
 1901W        W 5645   8.537   0.450   9.281
 1902W        W 5646   3.591   6.033   0.690
 1903W        W 5647   2.816   7.188   8.956
 1904W        W 5648   6.135   4.432   9.468
 1905W        W 5649   3.433   2.767   8.500
 1906W        W 5650   3.208   1.834  11.456
 1907W        W 5651   9.494   5.244   1.747
 1908W        W 5652  10.266   7.630   9.208
 1909W        W 5653   3.838   6.122   0.231
 1910W        W 5654   6.456   2.288   2.498
 1911W        W 5655   4.977   6.255   9.062
 1912W        W 5656   5.703   4.062   0.703
 1913W        W 5657   1.200   7.891   0.287
 1914W        W 5658   4.448   0.009   9.561
 1915W        W 5659   0.523   8.333  10.818
 1916W        W 5660   4.196   4.871   1.781
 1917W        W 5661   1.766   6.603   2.452
 1918W        W 5662  10.216   5.648   1.362
 1919W        W 5663   6.301   3.620   0.198
 1920W        W 5664   7.663   9.466   2.172
 1921W        W 5665   8.091   6.637   9.281
 1922W        W 5666   7.026   5.804   0.487
 1923W        W 5667   6.468   4.888   2.958
 1924W        W 5668   6.447   6.366  10.318
 1925W        W 5669  10.374   2.654   0.418
 1926W        W 5670   6.039   1.128   9.520
 1927W        W 5671   1.397   8.938   9.571
 1928W        W 5672  10.454   4.602   3.035
 1929W        W 5673   9.524   5.862   0.316
 1930W        W 5674   3.716   9.989  11.059
 1931W        W 5675   5.256   0.342   3.050
 1932W        W 5676   6.385   1.901   9.604
 1933W        W 5677   3.177   2.087   3.634
 1934W        W 5678   4.545   3.627   9.992
 1935W        W 5679   8.318   8.071  10.483
 1936W        W 5680   2.898   3.655  11.050
 1937W        W 5681   9.892   6.192   0.525
 1938W        W 5682   0.794   2.701   1.963
 1939W        W 5683   0.196   1.930   0.502
 1940W        W 5684   7.998   4.224   0.294
 1941W        W 5685   8.065   4.385   8.613
 1942W        W 5686   9.865   3.581   8.930
 1943W        W 5687   9.449   4.595   0.967
 1944W        W 5688   0.179   0.007   3.567
 1945W        W 5689   3.116   7.822   9.058
 1946W        W 5690   3.384   0.895   0.358
 1947W        W 5691  10.322   0.018   8.828
 1948W        W 5692  10.004   1.197   8.650
 1949W        W 5693   6.114   7.471   9.085
 1950W        W 5694   7.482   3.106   0.407
 1951W        W 5695   6.198   1.269   0.992
 1952W        W 5696   5.116   1.625   1.804
 1953W        W 5697  10.495   2.179   2.830
 1954W        W 5698   5.680   3.697   1.480
 1955W        W 5699   6.622   2.550  10.357
 1956W        W 5700   1.576   9.122   3.323
 1957W        W 5701   8.037   0.229   1.450
 1958W        W 5702   0.788   0.206   2.771
 1959W        W 5703   1.367   3.693  11.076
 1960W        W 5704   6.885   2.880   9.039
 1961W        W 5705   4.792   9.430  10.466
 1962W        W 5706   0.230   6.958   0.497
 1963W        W 5707   0.963   5.684   1.693
 1964W        W 5708   2.328   5.555   1.006
 1965W        W 5709   4.730   6.627   8.599
 1966W        W 5710   8.567   3.682   1.573
 1967W        W 5711   2.639   0.808  11.060
 1968W        W 5712   5.566   7.434   0.169
 1969W        W 5713   0.781   5.092   9.016
 1970W        W 5714   1.303   1.467   9.841
 1971W        W 5715   1.786  10.356   9.053
 1972W        W 5716   5.767   5.417   0.625
 1973W        W 5717   4.949   6.991  10.325
 1974W        W 5718   9.841   6.000   2.852
 1975W        W 5719   7.155   4.125   9.738
 1976W        W 5720  10.494   5.552   3.360
 1977W        W 5721   5.434   8.050   3.214
 1978W        W 5722   7.967   7.372   0.389
 1979W        W 5723   4.790   4.960   9.399
 1980W        W 5724   5.377   6.207   8.741
 1981W        W 5725   6.651   4.958   0.380
 1982W        W 5726  10.206   4.547   2.087
 1983W        W 5727   8.334   1.345   0.705
 1984W        W 5728   0.062   6.675  11.583
 1985W        W 5729   8.234   4.134   0.747
 1986W        W 5730   2.623   4.476   9.256
 1987W        W 5731   4.589   2.613   9.339
 1988W        W 5732   1.795   5.654   1.674
 1989W        W 5733   4.271   7.969   1.940
 1990W        W 5734  10.467   4.565  11.926
 1991W        W 5735   3.641   5.406  11.809
 1992W        W 5736   1.716   3.794   9.809
 1993W        W 5737   2.946   0.735   0.660
 1994W        W 5738   6.007   1.609   9.792
 1995W        W 5739   0.468   4.287   8.724
 1996W        W 5740  10.395   2.331   9.069
 1997W        W 5741   4.525   3.612   8.107
 1998W        W 5742   9.436  10.397   0.790
 1999W        W 5743   9.286   8.783   1.852
 2000W        W 5744   8.793   5.310   3.322
 2001W        W 5745   9.011  10.335   2.725
 2002W        W 5746  10.185   7.873  10.836
 2003W        W 5747   9.747   9.117   8.453
 2004W        W 5748   0.529   6.960   2.407
 2005W        W 5749   3.063   7.654   1.887
 2006W        W 5750  10.281   5.829   2.650
 2007W        W 5751   2.334   9.943   2.446
 2008W        W 5752   4.645   7.633   9.775
 2009W        W 5753   7.848   4.596   9.891
 2010W        W 5754   5.081   5.174   1.903
 2011W        W 5755   0.543   6.346  11.059
 2012W        W 5756   6.725   3.059   3.201
 2013W        W 5757   2.107   2.553  11.493
 2014W        W 5758   5.467   6.890   0.950
 2015W        W 5759   2.357  10.440   3.157
 2016W        W 5760   8.498   3.581   0.992
 2017W        W 5761   6.018   6.997   9.973
 2018W        W 5762   3.732   3.079  11.985
 2019W        W 5763   0.332  10.487   9.058
 2020W        W 5764   6.536  10.132   1.895
 2021W        W 5765   0.976   9.906   9.014
 2022W        W 5766   5.996   4.189   8.879
 2023W        W 5767   2.129   9.852  11.517
 2024W        W 5768   6.589   9.513   1.102
 2025W        W 5769   8.750   6.449   0.313
 2026W        W 5770   1.260   3.426  10.410
 2027W        W 5771   8.087   0.021  10.990
 2028W        W 5772   0.814   8.670   0.067
 2029W        W 5773   1.445   5.386   8.893
 2030W        W 5774   6.630   8.647   0.755
 2031W        W 5775   3.133   8.040   8.582
 2032W        W 5776   3.393   3.124   2.247
 2033W        W 5777   0.763   5.217   1.777
 2034W        W 5778   0.983   9.470   1.325
 2035W        W 5779   8.810   5.561  11.299
 2036W        W 5780   2.252   0.786   1.418
 2037W        W 5781   3.291   1.717   8.745
 2038W        W 5782   2.279   4.690   2.168
 2039W        W 5783   1.701   6.681   9.350
 2040W        W 5784  10.341  10.355  11.377
 2041W        W 5785   0.288   1.799   1.380
 2042W        W 5786   0.255   2.464   3.902
 2043W        W 5787   5.313   8.589   8.441
 2044W        W 5788   8.592   0.822   1.033
 2045W        W 5789   1.988   0.328   3.038
 2046W        W 5790   9.851   5.182  11.385
 2047W        W 5791   6.681   4.441   2.779
 2048W        W 5792   5.200   0.998   0.180
 2049W        W 5793   1.914   2.208   3.212
 2050W        W 5794   0.253   6.108   1.772
 2051W        W 5795   2.334   6.139   9.308
 2052W        W 5796   3.417   9.645   3.615
 2053W        W 5797   3.186   4.585  10.075
 2054W        W 5798   1.782   2.287  10.835
 2055W        W 5799   9.244   5.424  11.566
 2056W        W 5800  10.490   1.301   3.258
 2057W        W 5801   8.655   3.593   2.893
 2058W        W 5802   4.532   6.686  10.350
 2059W        W 5803   6.992   3.243   0.183
 2060W        W 5804   4.245  10.287   9.156
 2061W        W 5805   3.094   1.186  11.493
 2062W        W 5806   2.152   6.989   0.515
 2063W        W 5807   7.471   2.578  11.315
 2064W        W 5808   6.118   3.988   9.725
 2065W        W 5809   7.001   8.694  11.882
 2066W        W 5810   4.637   3.628   3.466
 2067W        W 5811   2.683   5.268  10.286
 2068W        W 5812   8.489   7.183  10.955
 2069W        W 5813   3.828   3.593   0.074
 2070W        W 5814   5.162   3.521   3.235
 2071W        W 5815   0.159  10.037   9.997
 2072W        W 5816   1.641   5.156   2.735
 2073W        W 5817   1.816   1.923   8.674
 2074W        W 5818   4.298   7.044   9.187
 2075W        W 5819   9.887  10.039   1.923
 2076W        W 5820   7.007   2.226   2.208
 2077W        W 5821   5.713   6.831  10.885
 2078W        W 5822   2.036   4.850   0.037
 2079W        W 5823   7.852   1.672   2.442
 2080W        W 5824   5.963   5.537   1.482
 2081W        W 5825   1.129   4.535  11.466
 2082W        W 5826   2.736   5.614  11.749
 2083W        W 5827   2.745   8.484  11.206
 2084W        W 5828   7.063   1.766   1.951
 2085W        W 5829   1.360   1.186   1.200
 2086W        W 5830   4.241   2.364   3.514
 2087W        W 5831   0.526   7.790   9.519
 2088W        W 5832   2.977   9.999  11.830
 2089W        W 5833   1.315   0.917  11.057
 2090W        W 5834   5.619   4.646   9.635
 2091W        W 5835   7.951   3.638   2.414
 2092W        W 5836   8.970   5.367   0.975
 2093W        W 5837   7.920   2.164  11.888
 2094W        W 5838   0.763   5.990   3.428
 2095W        W 5839   3.866   7.109   2.708
 2096W        W 5840   3.609   4.173   8.591
 2097W        W 5841   8.964   2.708   9.256
 2098W        W 5842   7.750   2.814   0.829
 2099W        W 5843   4.712   4.023  11.905
 2100W        W 5844   0.829  10.158   9.458
 2101W        W 5845   8.768   7.921  10.636
 2102W        W 5846   5.227   2.327   3.131
 2103W        W 5847   1.878   3.041   3.544
 2104W        W 5848   3.319   9.676  10.885
 2105W        W 5849   8.643   0.928  11.835
 2106W        W 5850  10.430   4.634  10.830
 2107W        W 5851   7.148   7.990   2.667
 2108W        W 5852   4.282   9.219   3.292
 2109W        W 5853   2.355   3.194   3.396
 2110W        W 5854   7.689   1.282  10.995
 2111W        W 5855   9.388   3.070   1.780
 2112W        W 5856   7.451   6.959   3.216
 2113W        W 5857   5.469   9.385   2.024
 2114W        W 5858   4.764   0.786   0.312
 2115W        W 5859   6.075   6.059   1.548
 2116W        W 5860   5.590   4.087   8.242
 2117W        W 5861   7.640   1.526  10.031
 2118W        W 5862   3.276   7.219   1.670
 2119W        W 5863   0.324   2.843   0.279
 2120W        W 5864   4.693   1.447  10.791
 2121W        W 5865   2.236   6.475   2.833
 2122W        W 5866   1.198   7.991  10.966
 2123W        W 5867   7.455  10.092  10.264
 2124W        W 5868   8.198   0.468   1.001
 2125W        W 5869   8.460   4.069   8.680
 2126W        W 5870   6.974   3.868   3.274
 2127W        W 5871   1.656   9.717   0.395
 2128W        W 5872   8.363   8.461   9.026
 2129W        W 5873   1.364   9.286   1.666
 2130W        W 5874   1.627   4.134   1.622
 2131W        W 5875   7.481   8.119  10.599
 2132W        W 5876   9.021   6.645   1.148
 2133W        W 5877   1.469   1.454   3.671
 2134W        W 5878   2.794   2.174   0.887
 2135W        W 5879   8.933   6.171   1.325
 2136W        W 5880   1.276   3.819  10.080
 2137W        W 5881   0.379   0.477   2.904
 2138W        W 5882   0.440   8.782   9.566
 2139W        W 5883   7.987   0.666   3.258
 2140W        W 5884   9.104   0.795   9.896
 2141W        W 5885   8.074   2.856  10.225
 2142W        W 5886   1.112   6.319   3.641
 2143W        W 5887   8.493   1.906   9.624
 2144W        W 5888   9.432  10.460   3.070
 2145W        W 5889   7.053   2.397   0.200
 2146W        W 5890   8.777   0.190   2.349
 2147W        W 5891   1.834   8.739   0.411
 2148W        W 5892  10.319   8.969   2.688
 2149W        W 5893   1.007   5.309  11.238
 2150W        W 5894   3.176   2.812   9.870
 2151W        W 5895   0.714   1.754   3.062
 2152W        W 5896   7.474   7.402   0.277
 2153W        W 5897   9.982   4.686   2.881
 2154W        W 5898   4.708   3.732   0.418
 2155W        W 5899   9.926   1.237   0.770
 2156W        W 5900   9.270   0.309  11.412
 2157W        W 5901   1.303   9.915   9.521
 2158W        W 5902   2.907   4.826   8.568
 2159W        W 5903   9.068   6.699   0.638
 2160W        W 5904   8.937   8.426   3.094
 2161W        W 5905   8.090   3.553  11.832
 2162W        W 5906   6.816   8.983   0.250
 2163W        W 5907   6.120   9.525   1.380
 2164W        W 5908   7.944   6.004   2.389
 2165W        W 5909   7.771   7.634  11.974
 2166W        W 5910   4.392   2.782   3.254
 2167W        W 5911   4.129   5.021   0.920
 2168W        W 5912   3.400   9.942   1.463
 2169W        W 5913   7.700   9.259   9.028
 2170W        W 5914  10.285   8.443   2.624
 2171W        W 5915   5.257   1.468   0.016
 2172W        W 5916   7.073   0.396  10.426
 2173W        W 5917   2.581   2.052   1.600
 2174W        W 5918   4.465   2.764   0.602
 2175W        W 5919   1.353   6.855  11.949
 2176W        W 5920   2.724   1.179   2.737
 2177W        W 5921   4.217   4.807   2.340
 2178W        W 5922   0.015   4.716   1.712
 2179W        W 5923   7.211  10.261   2.863
 2180W        W 5924   4.621   8.955  10.621
 2181W        W 5925   9.296   5.735   1.726
 2182W        W 5926   8.465   2.351   0.344
 2183W        W 5927   3.486   9.095   2.851
 2184W        W 5928   3.101   2.734   2.101
 2185W        W 5929  10.254   2.563   3.071
 2186W        W 5930   5.091   9.793   2.038
 2187W        W 5931  10.268   9.702  10.023
 2188W        W 5932   5.577   9.298   0.259
 2189W        W 5933   1.790   8.649   2.615
 2190W        W 5934   7.025   2.832   0.471
 2191W        W 5935   9.903   8.593   9.548
 2192W        W 5936   5.628  10.010   2.745
 2193W        W 5937   7.029   4.919   9.082
 2194W        W 5938   1.809   6.689  11.740
 2195W        W 5939   8.066   5.042  10.018
 2196W        W 5940   2.566   8.084   9.865
 2197W        W 5941   0.338   6.878   1.369
 2198W        W 5942   5.045   4.933  11.021
 2199W        W 5943   8.578   1.474  11.840
 2200W        W 5944   5.863   9.877  11.465
 2201W        W 5945   8.146   7.775   1.794
 2202W        W 5946   9.675   1.369   2.206
 2203W        W 5947   8.371   0.819   0.253
 2204W        W 5948   7.081  10.164   0.750
 2205W        W 5949   9.203   5.058   3.149
 2206W        W 5950   7.030   9.865  10.531
 2207W        W 5951   2.803   0.696   2.877
 2208W        W 5952   9.982   9.381  11.327
 2209W        W 5953   4.157   0.505   0.695
 2210W        W 5954   5.105   7.081  11.514
 2211W        W 5955   8.017   2.270   9.010
 2212W        W 5956   9.784   1.841   0.501
 2213W        W 5957   4.387   7.067   8.657
 2214W        W 5958   8.530   0.006   2.773
 2215W        W 5959   8.126   7.313   2.181
 2216W        W 5960   4.636   2.565  10.271
 2217W        W 5961   2.820   1.751   1.278
 2218W        W 5962   0.329   1.752  11.555
 2219W        W 5963   1.582   2.782  10.793
 2220W        W 5964   4.118   5.266   2.573
 2221W        W 5965   4.135   4.380  10.377
 2222W        W 5966   4.151   8.336   9.557
 2223W        W 5967   2.054   1.520   8.472
 2224W        W 5968   6.023   2.448  11.503
 2225W        W 5969   9.056   3.822   1.724
 2226W        W 5970  10.321  10.439   0.696
 2227W        W 5971   8.384   5.198   0.271
 2228W        W 5972   8.428   7.450   2.762
 2229W        W 5973   7.621   2.723   2.769
 2230W        W 5974   5.613   8.488   1.918
 2231W        W 5975   3.744   9.363   1.019
 2232W        W 5976   0.706   2.559  11.004
 2233W        W 5977   6.178   9.856   1.005
 2234W        W 5978   6.051  10.327   1.180
 2235W        W 5979   8.348   8.558  10.600
 2236W        W 5980   2.420   1.240  10.940
 2237W        W 5981   8.275  10.283   1.334
 2238W        W 5982  10.116   7.471   0.919
 2239W        W 5983   7.117   5.118   1.625
 2240W        W 5984   8.545   3.737  10.494
 2241W        W 5985   6.935   7.482  11.204
 2242W        W 5986   1.025   5.691  11.651
 2243W        W 5987   7.472   4.296   1.150
 2244W        W 5988   3.087   3.245  10.506
 2245W        W 5989   8.421   8.795  11.846
 2246W        W 5990   2.493   2.787  10.602
 2247W        W 5991   9.896   6.060  11.478
 2248W        W 5992   0.990   7.107   9.085
 2249W        W 5993   5.679   1.778  11.506
 2250W        W 5994   6.498   7.110   3.183
 2251W        W 5995   8.402   7.883   3.564
 2252W        W 5996   1.862   5.596   0.757
 2253W        W 5997   2.709   6.554   3.631
 2254W        W 5998   9.647   0.343   3.331
 2255W        W 5999   3.692   4.763   1.832
 2256W        W 6000   8.435   0.943   1.954
 2257W        W 6001   3.210   6.061   3.256
 2258W        W 6002   1.182   2.251  10.057
 2259W        W 6003   4.331   9.900   1.484
 2260W        W 6004   3.269   5.649   0.932
 2261W        W 6005   5.434   0.859  10.081
 2262W        W 6006   6.324   4.963   9.392
 2263W        W 6007   3.615   5.377  11.123
 2264W        W 6008   0.256   5.082   3.374
 2265W        W 6009   2.352   6.051   1.904
 2266W        W 6010   3.068   8.141   9.949
 2267W        W 6011   7.952   3.311   9.417
 2268W        W 6012   7.383   4.031  11.335
 2269W        W 6013   2.325   6.498   0.829
 2270W        W 6014   4.438   4.615   9.557
 2271W        W 6015   8.450   7.694  10.977
 2272W        W 6016   5.752   1.256   2.286
 2273W        W 6017   9.190   0.294  10.060
 2274W        W 6018   9.963   6.953   0.285
 2275W        W 6019   6.289   6.202  11.390
 2276W        W 6020   5.483   5.865  11.295
 2277W        W 6021   5.042   6.968   9.804
 2278W        W 6022   2.842   7.482  11.986
 2279W        W 6023   8.097   4.511   1.896
 2280W        W 6024   8.998   5.993   9.464
 2281W        W 6025   7.175   1.673   1.475
 2282W        W 6026  10.333   9.907   2.208
 2283W        W 6027   5.559   7.075   9.679
 2284W        W 6028   1.386   7.550   9.829
 2285W        W 6029   6.591   6.221  11.815
 2286W        W 6030   7.165   9.221  11.321
 2287W        W 6031   5.253   7.895  11.852
 2288W        W 6032   2.901   1.065   0.283
 2289W        W 6033   3.393   0.380  11.749
 2290W        W 6034   4.927   4.405   9.531
 2291W        W 6035  10.181   1.425   2.270
 2292W        W 6036   9.380   8.106  11.100
 2293W        W 6037   8.005   0.272   2.486
 2294W        W 6038   1.575   3.355  10.020
 2295W        W 6039   1.517   8.252   0.538
 2296W        W 6040   7.042   3.077   2.216
 2297W        W 6041   0.076   3.999  10.119
 2298W        W 6042   9.171   1.377   2.436
 2299W        W 6043   6.469   2.441   1.921
 2300W        W 6044   0.288   6.460   0.412
 2301W        W 6045   1.269   6.904   3.377
 2302W        W 6046   1.940  10.429   0.735
 2303W        W 6047   2.791   6.408   8.576
 2304W        W 6048   0.474   2.277   9.012
 2305W        W 6049   8.011   4.174   2.645
 2306W        W 6050   7.036   8.891   9.105
 2307W        W 6051   1.181   5.101   1.527
 2308W        W 6052   9.605  10.337  10.886
 2309W        W 6053   8.333  10.443   2.266
 2310W        W 6054   1.581   5.182   0.886
 2311W        W 6055   9.578   0.863   3.191
 2312W        W 6056   0.683   3.397   2.791
 2313W        W 6057   2.811   8.545   1.334
 2314W        W 6058   0.096   2.176   3.465
 2315W        W 6059   1.281   3.194  10.859
 2316W        W 6060   0.299   2.354  10.767
 2317W        W 6061   3.575   4.207   0.926
 2318W        W 6062   5.077   8.405  11.048
 2319W        W 6063   0.447   1.828   9.820
 2320W        W 6064   0.851   0.967  11.291
 2321W        W 6065   1.977   7.108   9.302
 2322W        W 6066   5.222   6.658  10.785
 2323W        W 6067   0.890   6.342   1.383
 2324W        W 6068   2.264  10.210  10.770
 2325W        W 6069   7.361   5.707   3.523
 2326W        W 6070   6.256   2.887  11.701
 2327W        W 6071   3.370   7.081   9.547
 2328W        W 6072   8.100   8.138   0.781
 2329W        W 6073   3.739   6.884  11.913
 2330W        W 6074   1.375   9.340   0.150
 2331W        W 6075   5.459   6.068   1.106
 2332W        W 6076   3.672   7.172  10.567
 2333W        W 6077  10.112   6.577  11.349
 2334W        W 6078   7.472   3.290  10.190
 2335W        W 6079   6.679   3.703   0.629
 2336W        W 6080   7.094   4.526   1.595
 2337W        W 6081   0.526   1.874  10.727
 2338W        W 6082   3.795   8.771   3.470
 2339W        W 6083   9.562   2.784   9.054
 2340W        W 6084   5.583   7.961   0.227
 2341W        W 6085   9.298   9.866   9.955
 2342W        W 6086   7.221   2.644   8.565
 2343W        W 6087   5.248   7.599   3.068
 2344W        W 6088   3.742   3.794  11.539
 2345W        W 6089   5.583   1.723   9.536
 2346W        W 6090   8.677   1.295   2.526
 2347W        W 6091   7.988   3.655   0.794
 2348W        W 6092   9.054   2.645   2.862
 2349W        W 6093  10.051   7.118   3.492
 2350W        W 6094   8.894   5.714  11.823
 2351W        W 6095   4.206   3.795   9.611
 2352W        W 6096   7.424   5.106   8.792
 2353W        W 6097   0.472   4.587   0.092
 2354W        W 6098   3.190   5.411  10.207
 2355W        W 6099   3.270   1.233   0.757
 2356W        W 6100   1.712   9.796   9.824
 2357W        W 6101   6.127   1.236   9.000
 2358W        W 6102   1.676   9.685  10.341
 2359W        W 6103   0.478   2.111  11.208
 2360W        W 6104   1.503  10.434   1.774
 2361W        W 6105   7.175   5.058   1.135
 2362W        W 6106   7.372   3.160   2.800
 2363W        W 6107   6.471   4.508  11.606
 2364W        W 6108   0.750   1.252  10.907
 2365W        W 6109   4.330   2.737   1.399
 2366W        W 6110   5.571   8.953   1.685
 2367W        W 6111   6.503   0.051   9.633
 2368W        W 6112   3.248   3.647   3.551
 2369W        W 6113   2.307   9.431  11.780
 2370W        W 6114  10.280   9.155   8.926
 2371W        W 6115   4.636   3.728   1.421
 2372W        W 6116   1.842   9.678   8.500
 2373W        W 6117   9.079   4.596   0.607
 2374W        W 6118   8.078   6.623   9.772
 2375W        W 6119   2.828   3.940   1.498
 2376W        W 6120  10.136   5.644   9.431
 2377W        W 6121   2.971   8.612  10.132
 2378W        W 6122   3.644   7.966  11.825
 2379W        W 6123   6.824   5.513   1.775
 2380W        W 6124   3.807   8.366   2.161
 2381W        W 6125   0.283   1.322  10.728
 2382W        W 6126   3.283   1.310  10.084
 2383W        W 6127   9.298   8.209   8.750
 2384W        W 6128   5.293   3.007   2.563
 2385W        W 6129  10.335   9.173  10.110
 2386W        W 6130   2.073   2.834   8.849
 2387W        W 6131   2.667   5.009   2.365
 2388W        W 6132   8.952   9.796   1.250
 2389W        W 6133   3.161   6.137   1.016
 2390W        W 6134   8.737   0.453   0.115
 2391W        W 6135   1.251   8.175   2.728
 2392W        W 6136   4.595   1.615   9.911
 2393W        W 6137   6.602   2.236   0.353
 2394W        W 6138   3.021   4.103   9.426
 2395W        W 6139   8.971   9.308  10.765
 2396W        W 6140   8.607   4.632   9.375
 2397W        W 6141   4.501  10.446   0.299
 2398W        W 6142   0.184   9.785  10.467
 2399W        W 6143   7.890   4.740  10.755
 2400W        W 6144   1.427   9.082   2.164
 2401W        W 6145   5.939   7.630  10.396
 2402W        W 6146   5.112   8.141   3.652
 2403W        W 6147   0.837   3.566   2.307
 2404W        W 6148   9.860   6.162  10.466
 2405W        W 6149   5.992   8.686  11.882
 2406W        W 6150   3.366   6.825  10.383
 2407W        W 6151   4.651   2.631  11.768
 2408W        W 6152   4.265   1.788   8.764
 2409W        W 6153   3.683   7.751   3.881
 2410W        W 6154   8.917   7.522   2.597
 2411W        W 6155   7.546   0.166   8.476
 2412W        W 6156  10.028   9.488   1.168
 2413W        W 6157   1.600   4.555   3.643
 2414W        W 6158   8.560   9.375  10.070
 2415W        W 6159   5.325   4.801   2.156
 2416W        W 6160   8.855  10.453  11.360
 2417W        W 6161   3.043   0.345   3.656
 2418W        W 6162   7.598   2.692   9.523
 2419W        W 6163   5.534   8.303  11.760
 2420W        W 6164  10.420   7.897   3.274
 2421W        W 6165   6.523   0.463  11.958
 2422W        W 6166   2.403   6.823   9.624
 2423W        W 6167   2.829   8.113   9.396
 2424W        W 6168   8.409   4.167   1.275
 2425W        W 6169   5.564   5.146  10.367
 2426W        W 6170   9.943   1.881   9.908
 2427W        W 6171   4.785   3.683   2.460
 2428W        W 6172  10.112   8.391   0.298
 2429W        W 6173   5.066   9.244   0.227
 2430W        W 6174   4.698   1.205  10.335
 2431W        W 6175   0.680   2.277   9.962
 2432W        W 6176   2.233   4.770   9.075
 2433W        W 6177   8.872   9.555   1.722
 2434W        W 6178   7.247   6.469   9.900
 2435W        W 6179   0.404   4.318   0.542
 2436W        W 6180   9.220   5.762   1.215
 2437W        W 6181   2.675   9.482   2.873
 2438W        W 6182   2.699   7.823   0.686
 2439W        W 6183   2.560   0.316  11.312
 2440W        W 6184   6.154   4.736  11.273
 2441W        W 6185   2.924   0.347   9.278
 2442W        W 6186   0.934   0.425   8.439
 2443W        W 6187   9.872   3.720   1.258
 2444W        W 6188   4.952   3.973   4.104
 2445W        W 6189   7.139   7.755  10.808
 2446W        W 6190   8.798   6.016   8.985
 2447W        W 6191   1.660   4.209  10.766
 2448W        W 6192   7.077   4.600   9.506
 2449W        W 6193   0.764   1.450   9.991
 2450W        W 6194   8.939   0.298   0.944
 2451W        W 6195  10.401   7.174   8.982
 2452W        W 6196   2.129   1.847  10.776
 2453W        W 6197   3.697   0.979   9.090
 2454W        W 6198   2.291   8.594   9.393
 2455W        W 6199   4.147   1.326   1.807
 2456W        W 6200   7.767   8.145   3.542
 2457W        W 6201   6.914   0.800   9.593
 2458W        W 6202   1.857   1.399   2.034
 2459W        W 6203   7.444   8.407  11.649
 2460W        W 6204   2.728   2.135   2.902
 2461W        W 6205  10.463  10.033  10.945
 2462W        W 6206   3.220   7.878   3.581
 2463W        W 6207   7.952   0.724   2.733
 2464W        W 6208   2.324   7.703   3.048
 2465W        W 6209   2.580   2.277   2.446
 2466W        W 6210  10.407   3.709   0.027
 2467W        W 6211   6.491   6.988   1.829
 2468W        W 6212   6.102  10.475   1.706
 2469W        W 6213   3.911   0.108   8.943
 2470W        W 6214   3.785   0.536   9.321
 2471W        W 6215   7.195   7.844   0.873
 2472W        W 6216   5.064   3.566   9.882
 2473W        W 6217   8.103   9.301  10.332
 2474W        W 6218   1.755   0.876   1.277
 2475W        W 6219   1.876   2.100  10.371
 2476W        W 6220   6.698   2.880   0.862
 2477W        W 6221   4.604   8.564  11.898
 2478W        W 6222  10.025   9.531   8.595
 2479W        W 6223   6.244   8.864  11.457
 2480W        W 6224   0.400   4.184   1.037
 2481W        W 6225   6.070   6.248   3.372
 2482W        W 6226   8.313   8.011   8.816
 2483W        W 6227   4.156   7.715   0.810
 2484W        W 6228   5.228  10.165  11.904
 2485W        W 6229  10.164   8.520   1.215
 2486W        W 6230   5.123   2.520  10.020
 2487W        W 6231   3.195  10.431   1.298
 2488W        W 6232   5.016   6.004  11.898
 2489W        W 6233   7.549   8.792   8.775
 2490W        W 6234   8.923   3.166   9.015
 2491W        W 6235   0.835   7.491  10.296
 2492W        W 6236   0.372   1.601  10.299
 2493W        W 6237   0.923   8.966   1.426
 2494W        W 6238  10.095   8.129   9.452
 2495W        W 6239   7.157   2.897  11.078
 2496W        W 6240   2.897   0.225   1.593
 2497W        W 6241   2.472   7.256   9.323
 2498W        W 6242   3.905   8.095   1.606
 2499W        W 6243   5.446   4.261   3.143
 2500W        W 6244   9.937   2.453  11.682
 2501W        W 6245   3.374   0.271   1.768
 2502W        W 6246   7.549   3.819  10.416
 2503W        W 6247   4.251   3.875  11.291
 2504W        W 6248   0.039   5.923   2.214
 2505W        W 6249   0.660   6.573  10.258
 2506W        W 6250   7.903   2.313   2.813
 2507W        W 6251   9.402   3.134   1.279
 2508W        W 6252   3.729   1.281   0.994
 2509W        W 6253   4.625   7.989   3.625
 2510W        W 6254   1.199   5.324  10.290
 2511W        W 6255   5.712   9.899   1.301
 2512W        W 6256   0.726   7.455   2.260
 2513W        W 6257   7.922  10.036  11.035
 2514W        W 6258   9.433   7.665  10.194
 2515W        W 6259   5.687   4.493   9.154
 2516W        W 6260   8.018   1.782   1.956
 2517W        W 6261   7.823   7.053   0.861
 2518W        W 6262   8.008   0.232   2.984
 2519W        W 6263   9.360   2.825   0.482
 2520W        W 6264   2.140   7.419   1.720
 2521W        W 6265   4.146   8.635   0.868
 2522W        W 6266   8.913   5.970  10.963
 2523W        W 6267   9.573   9.915   3.790
 2524W        W 6268   9.997   4.450   1.643
 2525W        W 6269   2.397   5.330   1.462
 2526W        W 6270  10.051   4.878  11.827
 2527W        W 6271   8.123   2.450   1.445
 2528W        W 6272   9.142   3.647   9.186
 2529W        W 6273   6.290   2.898   1.155
 2530W        W 6274  10.293   1.288   9.974
 2531W        W 6275  10.391   2.413   1.960
 2532W        W 6276   6.492   2.725   2.769
 2533W        W 6277   8.322   7.138   9.107
 2534W        W 6278   9.882  10.302   2.761
 2535W        W 6279   0.831   6.814   1.167
 2536W        W 6280   3.270   0.232  10.040
 2537W        W 6281   2.181   2.647   3.359
 2538W        W 6282   4.064   5.288   0.482
 2539W        W 6283   6.220   6.940   9.087
 2540W        W 6284   2.868   4.179   9.908
 2541W        W 6285   3.193   9.705   9.932
 2542W        W 6286   5.953   6.646  11.323
 2543W        W 6287   8.153   4.053  11.838
 2544W        W 6288   7.237   5.579   1.186
 2545W        W 6289   0.962   9.166   9.460
 2546W        W 6290   5.267   0.251   1.908
 2547W        W 6291   6.216   1.236  10.054
 2548W        W 6292   7.872   5.441   1.752
 2549W        W 6293   7.333   8.171   3.281
 2550W        W 6294   5.486   7.812   3.721
 2551W        W 6295   7.046   6.075   0.047
 2552W        W 6296   1.890   4.262   9.852
 2553W        W 6297   4.996   2.928   8.562
 2554W        W 6298   3.159   3.476   3.069
 2555W        W 6299   9.317   9.255   3.310
 2556W        W 6300   6.268   4.954   2.111
 2557W        W 6301   4.513   7.699  11.443
 2558W        W 6302   8.994   4.511  11.053
 2559W        W 6303   8.554   9.278  11.123
 2560W        W 6304   5.971   3.505   9.870
 2561W        W 6305  10.480   0.270   3.140
 2562W        W 6306   3.553   2.244   8.743
 2563W        W 6307   8.146   9.347  11.487
 2564W        W 6308   4.726   8.368   0.424
 2565W        W 6309   8.894   1.414   1.481
 2566W        W 6310   6.931   0.808  10.942
 2567W        W 6311   4.594   6.652   9.087
 2568W        W 6312   9.152   3.437   2.057
 2569W        W 6313   8.475   7.411   0.334
 2570W        W 6314   4.686   9.060  10.111
 2571W        W 6315   1.793   6.497   3.516
 2572W        W 6316   5.181   1.469   2.506
 2573W        W 6317   3.622   8.400  10.874
 2574W        W 6318   5.621   1.704   0.552
 2575W        W 6319   3.824   7.506   9.761
 2576W        W 6320   5.643   5.147   1.296
 2577W        W 6321   9.399   7.908   2.082
 2578W        W 6322   7.224   1.379   9.768
 2579W        W 6323   8.528   6.723  10.008
 2580W        W 6324   9.845   9.702   2.849
 2581W        W 6325   4.061   1.529  11.558
 2582W        W 6326   0.744   6.123   9.897
 2583W        W 6327   1.384   8.490  11.082
 2584W        W 6328   3.319   1.464  10.594
 2585W        W 6329  10.446   0.033   9.728
 2586W        W 6330   2.606   4.900   3.614
 2587W        W 6331   5.780   0.756  10.485
 2588W        W 6332   0.770   4.328   1.746
 2589W        W 6333   6.003   7.317   9.552
 2590W        W 6334   0.851   4.674   8.679
 2591W        W 6335   4.582   8.467  11.364
 2592W        W 6336   2.223   3.204  10.696
 2593W        W 6337   6.641   8.363   1.819
 2594W        W 6338   0.367   5.711   9.991
 2595W        W 6339   9.632   5.375   0.462
 2596W        W 6340   9.797   3.053   0.069
 2597W        W 6341   4.310   9.526  11.845
 2598W        W 6342   1.718   3.664  10.410
 2599W        W 6343   0.473   0.487   0.390
 2600W        W 6344   1.752   5.817   8.782
 2601W        W 6345  10.215   2.815  11.946
 2602W        W 6346   5.805   2.497   9.963
 2603W        W 6347   6.569   2.948   1.931
 2604W        W 6348   6.486   3.920  10.343
 2605W        W 6349   7.496   2.247   8.774
 2606W        W 6350   6.495  10.386  10.128
 2607W        W 6351   2.263   9.516   9.221
 2608W        W 6352   4.708   6.431   1.312
 2609W        W 6353   3.611  10.400  10.302
 2610W        W 6354   2.926   5.660   3.112
 2611W        W 6355   6.408  10.179   3.323
 2612W        W 6356   9.383   3.053   2.790
 2613W        W 6357   8.061   1.772   8.815
 2614W        W 6358   8.955   9.530   9.807
 2615W        W 6359   9.426   2.165   1.775
 2616W        W 6360   8.434   0.222   8.830
 2617W        W 6361   5.385   9.561   9.825
 2618W        W 6362   6.999   2.179   3.283
 2619W        W 6363   7.871   3.882  11.302
 2620W        W 6364   1.130   1.431  11.208
 2621W        W 6365   7.088   5.024  11.802
 2622W        W 6366   8.306   7.095   1.220
 2623W        W 6367   4.242   6.545   1.094
 2624W        W 6368   2.721   9.934   9.983
 2625W        W 6369   5.457   7.617   1.614
 2626W        W 6370   7.111   5.719  10.212
 2627W        W 6371   8.434   0.731   8.734
 2628W        W 6372   7.260   9.310   9.272
 2629W        W 6373   6.054   1.976  11.217
 2630W        W 6374   7.330   5.208  10.240
 2631W        W 6375   2.079   9.922   0.684
 2632W        W 6376   9.939   9.309  11.848
 2633W        W 6377   4.607   0.676  10.653
 2634W        W 6378   9.854   9.477  10.807
 2635W        W 6379   9.480   1.807   2.426
 2636W        W 6380   9.541   0.431   9.121
 2637W        W 6381   5.216   1.955  10.268
 2638W        W 6382   2.786   9.279   2.437
 2639W        W 6383   1.155   0.989   0.758
 2640W        W 6384   5.943   3.034   9.017
 2641W        W 6385   6.522  10.169  11.588
 2642W        W 6386   6.973   8.506  10.688
 2643W        W 6387   0.371   2.676  10.052
 2644W        W 6388   2.456   9.546   0.613
 2645W        W 6389   0.519   7.385  10.950
 2646W        W 6390   3.772   0.428   2.518
 2647W        W 6391   5.229   5.046  11.869
 2648W        W 6392   3.714   6.717   9.702
 2649W        W 6393   9.783   6.616   9.534
 2650W        W 6394   0.016   3.388   0.810
 2651W        W 6395   9.469   9.853  10.738
 2652W        W 6396   2.224  10.414  10.288
 2653W        W 6397   0.202   3.346  11.017
 2654W        W 6398   6.068   1.105   2.717
 2655W        W 6399   2.793   6.044   1.422
 2656W        W 6400   5.672   0.068   0.887
 2657W        W 6401   8.907   4.724   2.905
 2658W        W 6402   8.505   4.156   2.823
 2659W        W 6403   3.649   7.114  10.041
 2660W        W 6404   5.246   6.488   9.845
 2661W        W 6405   6.122   7.717   0.091
 2662W        W 6406   7.556   3.937   2.532
 2663W        W 6407   6.085   1.474   0.529
 2664W        W 6408   4.600   8.390   2.172
 2665W        W 6409   7.058   4.834   2.034
 2666W        W 6410   7.955   7.621   3.621
 2667W        W 6411   8.508   3.394   0.510
 2668W        W 6412   5.566   6.472  10.483
 2669W        W 6413   6.370   8.187   8.667
 2670W        W 6414   9.284   4.284   1.857
 2671W        W 6415   4.468   3.243   1.412
 2672W        W 6416   4.222   8.049  10.786
 2673W        W 6417   9.472   6.707   3.062
 2674W        W 6418   1.460   1.951   0.743
 2675W        W 6419   9.728   9.071   1.823
 2676W        W 6420   6.841   8.270   8.391
 2677W        W 6421  10.304   2.747  11.445
 2678W        W 6422   1.837   0.383   0.496
 2679W        W 6423   8.881   5.505   1.908
 2680W        W 6424   0.266   1.301  11.776
 2681W        W 6425   1.638   4.065   2.654
 2682W        W 6426   8.506   4.589   1.624
 2683W        W 6427   6.670   4.455  10.560
 2684W        W 6428   6.683   3.140  11.540
 2685W        W 6429   7.689   0.506   1.207
 2686W        W 6430   9.871   9.124  10.424
 2687W        W 6431  10.351   2.585  10.971
 2688W        W 6432   4.483   5.598   0.385
 2689W        W 6433   1.417   6.024   1.661
 2690W        W 6434   2.209   1.308   0.681
 2691W        W 6435   3.740   1.873   9.551
 2692W        W 6436   9.663   1.799   2.923
 2693W        W 6437   8.384   5.697  11.578
 2694W        W 6438   9.833   1.673   8.796
 2695W        W 6439   0.306   5.084   8.811
 2696W        W 6440   0.302   4.900  10.569
 2697W        W 6441   5.883   7.519   3.843
 2698W        W 6442   8.485   7.567   1.342
 2699W        W 6443   9.229   8.098   9.726
 2700W        W 6444   1.075   7.672   2.707
 2701W        W 6445   4.205   8.924   1.705
 2702W        W 6446   8.806   0.509   1.942
 2703W        W 6447   0.824   9.482   9.990
 2704W        W 6448   4.993   3.998   3.235
 2705W        W 6449   7.443   5.532  11.489
 2706W        W 6450   1.158   4.322  10.355
 2707W        W 6451   2.311   2.707  11.945
 2708W        W 6452   4.523   6.561   0.291
 2709W        W 6453   0.391   9.799   1.273
 2710W        W 6454   2.253   7.216   3.260
 2711W        W 6455   9.753   6.470  11.725
 2712W        W 6456   7.896   8.442   9.242
 2713W        W 6457   7.510   4.755   2.263
 2714W        W 6458   4.363   4.194   9.923
 2715W        W 6459   5.811   9.302   9.637
 2716W        W 6460   8.621   9.355  11.623
 2717W        W 6461   3.104   1.516   0.347
 2718W        W 6462   9.447   6.225  11.244
 2719W        W 6463   9.193   0.710   9.398
 2720W        W 6464   8.371   3.302  10.256
 2721W        W 6465   1.847   0.666  10.345
 2722W        W 6466   3.507   6.923   0.719
 2723W        W 6467   1.391   5.608  11.982
 2724W        W 6468   8.840   7.149   0.623
 2725W        W 6469   0.374   0.225  10.398
 2726W        W 6470   8.609   4.786  11.860
 2727W        W 6471   2.647   9.807   1.739
 2728W        W 6472   7.846   5.301   8.503
 2729W        W 6473  10.330   5.250  11.610
 2730W        W 6474   7.336   6.952   9.167
 2731W        W 6475   2.109  10.309   2.137
 2732W        W 6476   8.582   7.824  10.140
 2733W        W 6477   1.929   6.197   1.590
 2734W        W 6478   6.380   0.697   2.737
 2735W        W 6479   3.191   9.584   2.621
 2736W        W 6480   5.829   4.528   0.866
 2737W        W 6481   0.540  10.478   0.269
 2738W        W 6482   6.150   1.668   1.911
 2739W        W 6483   1.839   8.582   9.133
 2740W        W 6484   6.589  10.308  11.112
 2741W        W 6485   9.257   2.369   0.883
 2742W        W 6486   3.206   0.971  10.468
 2743W        W 6487   1.511   1.019   2.096
 2744W        W 6488   8.716   8.188   9.809
 2745W        W 6489   6.115   4.290  10.990
 2746W        W 6490   3.792   7.672  11.441
 2747W        W 6491   0.484   1.852   0.045
 2748W        W 6492   8.003   3.156   8.892
 2749W        W 6493   7.015   9.173   1.033
 2750W        W 6494   7.538   0.524   2.947
 2751W        W 6495  10.467   4.669   9.993
 2752W        W 6496   9.406   9.370   9.965
 2753W        W 6497   7.471   0.150  11.341
 2754W        W 6498   7.835   6.974   1.386
 2755W        W 6499  10.327   1.237  10.949
 2756W        W 6500   5.212   1.301  10.522
 2757W        W 6501   3.067  10.247   9.169
 2758W        W 6502   0.959   7.049   8.542
 2759W        W 6503   7.106   8.851   0.641
 2760W        W 6504   2.299   8.859   1.540
 2761W        W 6505  10.340   6.073   3.503
 2762W        W 6506   0.359   0.899   0.093
 2763W        W 6507  10.355   4.117  10.575
 2764W        W 6508   8.576   2.602   1.184
 2765W        W 6509   8.399   0.225   9.719
 2766W        W 6510   0.649   7.343   9.347
 2767W        W 6511   8.379   5.542   1.752
 2768W        W 6512   8.708   4.192   9.105
 2769W        W 6513   0.841   3.685   9.339
 2770W        W 6514   6.181   4.431   2.126
 2771W        W 6515   8.387   6.535  11.465
 2772W        W 6516   2.583   4.755  11.291
 2773W        W 6517   9.939   6.933   1.889
 2774W        W 6518   8.292   9.637   0.392
 2775W        W 6519   3.426   3.229  10.103
 2776W        W 6520   0.064   5.999   1.294
 2777W        W 6521   2.001   8.255   0.372
 2778W        W 6522  10.412   6.435   1.536
 2779W        W 6523   6.831   5.307  10.166
 2780W        W 6524   2.650   5.973   0.939
 2781W        W 6525   7.483   5.893  10.801
 2782W        W 6526   6.148   9.996   1.549
 2783W        W 6527   9.153   1.724   2.814
 2784W        W 6528   8.608   5.078   1.733
 2785W        W 6529   0.206   8.604   2.856
 2786W        W 6530   8.324   9.738  11.235
 2787W        W 6531   5.723   7.093   9.171
 2788W        W 6532   7.240   1.855  10.001
 2789W        W 6533   6.140   8.666  10.537
 2790W        W 6534   1.795   5.999   3.504
 2791W        W 6535   5.940   4.109   3.071
 2792W        W 6536   7.015   0.706   0.714
 2793W        W 6537   2.492   8.270   0.546
 2794W        W 6538   9.763   5.921   1.834
 2795W        W 6539   8.381   9.113   3.477
 2796W        W 6540   8.530   2.858  10.498
 2797W        W 6541   3.301   3.280   8.586
 2798W        W 6542   3.106   2.252  11.115
 2799W        W 6543   9.053   1.231   8.716
 2800W        W 6544   8.908   7.016   1.900
 2801W        W 6545   0.218   3.080  10.404
 2802W        W 6546  10.429   8.219   2.168
 2803W        W 6547   2.205   6.398  11.601
 2804W        W 6548  10.452   6.040   9.450
 2805W        W 6549   3.102   2.369   0.126
 2806W        W 6550   3.872   3.356   0.533
 2807W        W 6551   5.574   3.309  11.613
 2808W        W 6552   8.510   8.568   2.805
 2809W        W 6553   8.779  10.340   8.939
 2810W        W 6554   1.926   8.067   1.800
 2811W        W 6555   5.309   9.551   3.403
 2812W        W 6556   3.870   2.326   9.800
 2813W        W 6557   4.535   7.928   0.572
 2814W        W 6558   8.149   1.716  10.331
 2815W        W 6559   9.849   0.539  10.338
 2816W        W 6560   9.877   0.967  10.044
 2817W        W 6561   5.975   2.737   8.392
 2818W        W 6562   7.957   8.879   1.210
 2819W        W 6563   1.258   4.270   3.440
 2820W        W 6564   6.042   0.015   0.220
 2821W        W 6565   9.935   7.444  10.084
 2822W        W 6566   1.126   9.011   0.973
 2823W        W 6567   8.360  10.495   0.851
 2824W        W 6568   3.135   5.236   1.466
 2825W        W 6569   1.888   3.725   1.812
 2826W        W 6570   8.460   6.081   1.682
 2827W        W 6571   0.050   0.170   0.261
 2828W        W 6572   0.035   1.164   8.477
 2829W        W 6573   7.627   1.095  10.353
 2830W        W 6574   7.802   6.190   1.003
 2831W        W 6575   4.079   9.019   1.220
 2832W        W 6576  10.104   2.655   0.860
 2833W        W 6577   9.481   8.921   0.488
 2834W        W 6578   1.042   5.230   9.434
 2835W        W 6579   5.976   8.805   9.817
 2836W        W 6580   9.404   2.325   0.396
 2837W        W 6581   8.009   6.176   8.753
 2838W        W 6582   7.189   5.484  10.647
 2839W        W 6583   8.359   5.432   3.553
 2840W        W 6584   0.320   9.968  11.927
 2841W        W 6585   9.360   5.329   9.689
 2842W        W 6586   3.282   1.303   9.058
 2843W        W 6587   1.033   4.817   1.981
 2844W        W 6588   8.540   6.182   3.157
 2845W        W 6589   9.438   6.283   9.325
 2846W        W 6590   6.947  10.442   0.302
 2847W        W 6591   0.023   0.749   2.285
 2848W        W 6592   6.690   7.820  11.955
 2849W        W 6593   5.292   1.417  11.523
 2850W        W 6594   6.175   8.920   2.996
 2851W        W 6595   1.388   0.972  10.026
 2852W        W 6596   7.913   2.169   2.330
 2853W        W 6597   1.016   5.850   0.310
 2854W        W 6598   8.650   0.034   0.437
 2855W        W 6599   4.649   8.930   9.616
 2856W        W 6600   5.552   3.221   0.161
 2857W        W 6601   1.849   6.751  11.221
 2858W        W 6602   4.152   6.381   0.603
 2859W        W 6603   3.458  10.048   0.002
 2860W        W 6604   2.601   4.102  10.384
 2861W        W 6605   5.241   8.659   3.785
 2862W        W 6606   0.466   8.927   2.052
 2863W        W 6607   1.319   2.037  11.853
 2864W        W 6608   0.426   7.211   2.834
 2865W        W 6609   3.220   1.831   9.864
 2866W        W 6610   7.257   0.405   9.940
 2867W        W 6611   4.737   3.129  10.252
 2868W        W 6612   4.558   9.427   9.577
 2869W        W 6613   8.510   4.416   3.590
 2870W        W 6614   8.587   3.860   0.053
 2871W        W 6615   9.346   1.811   3.338
 2872W        W 6616   3.052   2.659   1.082
 2873W        W 6617   1.286  10.387   9.285
 2874W        W 6618   6.643   5.667   0.927
 2875W        W 6619   4.426   5.834  11.407
 2876W        W 6620   7.955   8.154  10.826
 2877W        W 6621   1.409   4.747  11.835
 2878W        W 6622   1.830   9.933   1.126
 2879W        W 6623   3.008   9.162  11.868
 2880W        W 6624   8.801   9.512   0.272
 2881W        W 6625   4.173   7.417  10.125
 2882W        W 6626   8.512   1.314  10.438
 2883W        W 6627   3.020   0.061   2.096
 2884W        W 6628   0.422   7.108   1.919
 2885W        W 6629   9.240   9.285   1.954
 2886W        W 6630   7.449   0.116   1.457
 2887W        W 6631   1.130   8.284   1.912
 2888W        W 6632   5.046   8.732   9.311
 2889W        W 6633   4.585   9.099  11.982
 2890W        W 6634   1.498   9.317   1.163
 2891W        W 6635   2.808   9.478   9.247
 2892W        W 6636   5.935   7.994   8.901
 2893W        W 6637   7.845   9.755  10.410
 2894W        W 6638   6.194   4.226   0.711
 2895W        W 6639   3.340   0.462  10.487
 2896W        W 6640   8.276   2.323   1.983
 2897W        W 6641   4.616   2.652   1.889
 2898W        W 6642  10.162   5.218   0.505
 2899W        W 6643   6.759   1.662  10.559
 2900W        W 6644   2.109   2.162   1.429
 2901W        W 6645   8.357   6.943  11.794
 2902W        W 6646   6.924   6.575  10.317
 2903W        W 6647   8.059   5.218  10.949
 2904W        W 6648   8.779   5.718   1.472
 2905W        W 6649   4.058   4.672  11.650
 2906W        W 6650   6.007   5.302   9.628
 2907W        W 6651   9.866   4.180  11.397
 2908W        W 6652   4.308   3.098   9.974
 2909W        W 6653   1.600   4.565  11.144
 2910W        W 6654   2.417   4.332   3.340
 2911W        W 6655   7.155   6.956  11.228
 2912W        W 6656   5.624   4.207   2.653
 2913W        W 6657   2.831   9.326   0.878
 2914W        W 6658   3.023   4.720   1.156
 2915W        W 6659  10.315   3.463   1.286
 2916W        W 6660   4.893   8.667   2.536
 2917W        W 6661   5.202   0.495   0.268
 2918W        W 6662   8.217   3.752   7.987
 2919W        W 6663   7.920   6.872   3.470
 2920W        W 6664   2.721   9.456   9.746
 2921W        W 6665  10.189   5.957  10.773
 2922W        W 6666   9.819   5.544   2.624
 2923W        W 6667   5.125   7.536   9.565
 2924W        W 6668   3.576   4.006   9.397
 2925W        W 6669   1.107   0.113  11.727
 2926W        W 6670   1.622  10.234   0.357
 2927W        W 6671  10.444   7.386  10.072
 2928W        W 6672   7.660   6.533   9.053
 2929W        W 6673   8.314   5.801   1.275
 2930W        W 6674   4.595   6.284  11.866
 2931W        W 6675   3.398   4.542  11.088
 2932W        W 6676  10.011   1.357   9.161
 2933W        W 6677   0.176   5.245  10.222
 2934W        W 6678   0.991   1.640  10.702
 2935W        W 6679   1.692   7.409   1.975
 2936W        W 6680   0.216   0.402  10.864
 2937W        W 6681   7.016   4.864   0.703
 2938W        W 6682   6.843   8.840   1.910
 2939W        W 6683   4.549   8.543   9.292
 2940W        W 6684   7.509   4.761   1.390
 2941W        W 6685   4.184   8.286   0.508
 2942W        W 6686   5.127   3.211  11.869
 2943W        W 6687   4.688   5.959   1.739
 2944W        W 6688   8.639   8.108   9.286
 2945W        W 6689   0.172   4.449  10.400
 2946W        W 6690   6.383   2.039  10.524
 2947W        W 6691   0.237   7.986   0.745
 2948W        W 6692   9.811   0.358  11.300
 2949W        W 6693   8.478   7.476  10.514
 2950W        W 6694   1.188   5.196  11.748
 2951W        W 6695   6.552   3.749   2.347
 2952W        W 6696   5.177   7.414   2.606
 2953W        W 6697   3.863   1.275  11.958
 2954W        W 6698   2.534   6.673   0.401
 2955W        W 6699   5.532   8.078   2.212
 2956W        W 6700   5.088   8.364   0.023
 2957W        W 6701   0.493   1.362   3.297
 2958W        W 6702   6.239   2.114  10.036
 2959W        W 6703   8.108   5.519   2.215
 2960W        W 6704   4.262   4.819   0.362
 2961W        W 6705   1.298   2.819   1.950
 2962W        W 6706   0.233   4.280   3.328
 2963W        W 6707   5.276   3.506  11.211
 2964W        W 6708   1.986   8.258  10.637
 2965W        W 6709   5.744   2.096  10.280
 2966W        W 6710   9.045   1.217   9.250
 2967W        W 6711   9.271   7.887  10.651
 2968W        W 6712   7.763   6.004   3.638
 2969W        W 6713   4.230   2.092  10.229
 2970W        W 6714   0.608   8.512   1.287
 2971W        W 6715   8.554   5.103   0.780
 2972W        W 6716   9.028   1.860   8.156
 2973W        W 6717   4.069   3.229  10.789
 2974W        W 6718   4.171   6.099  10.151
 2975W        W 6719   2.229   7.940   8.794
 2976W        W 6720   0.442   4.664   3.626
 2977W        W 6721   1.703   9.479   2.456
 2978W        W 6722   3.761   1.397   9.852
 2979W        W 6723   9.773   8.403   3.376
 2980W        W 6724   0.940   3.201   9.480
 2981W        W 6725   7.033   4.065   1.327
 2982W        W 6726   0.723   2.797   9.208
 2983W        W 6727   5.133   4.054   2.748
 2984W        W 6728   3.005   6.886   0.645
 2985W        W 6729   4.023   6.874   0.746
 2986W        W 6730   9.096   4.615   9.326
 2987W        W 6731   3.769   5.757   9.470
 2988W        W 6732   5.516   4.311   8.700
 2989W        W 6733   7.854   2.619   3.250
 2990W        W 6734   1.707   1.667  10.550
 2991W        W 6735   3.674   7.149  11.462
 2992W        W 6736   8.683   2.371   3.445
 2993W        W 6737   6.988   0.466  11.367
 2994W        W 6738   2.373   8.446  10.356
 2995W        W 6739   1.652   3.561   0.301
 2996W        W 6740   3.147   6.466   8.970
 2997W        W 6741  10.362   4.208  11.229
 2998W        W 6742   5.164   2.338   3.682
 2999W        W 6743   4.264   3.359   3.222
 3000W        W 6744   3.610   5.906  11.830
 3001W        W 6745   9.500   4.088   0.835
 3002W        W 6746   6.203   5.717   0.544
 3003W        W 6747   0.930   3.327  11.808
 3004W        W 6748   2.712   4.946   1.502
 3005W        W 6749   0.916   7.111  11.111
 3006W        W 6750   3.254   5.925  10.123
 3007W        W 6751   8.531   1.831   1.927
 3008W        W 6752   6.624   9.814   1.509
 3009W        W 6753   7.102  10.418   9.894
 3010W        W 6754   5.005   9.357  11.735
 3011W        W 6755   4.245   7.067   1.980
 3012W        W 6756   7.821   9.633   0.811
 3013W        W 6757   7.059   8.650   8.656
 3014W        W 6758  10.034   5.717   0.411
 3015W        W 6759  10.063   3.493   8.444
 3016W        W 6760   1.097   3.235   3.112
 3017W        W 6761   4.245   6.169   1.477
 3018W        W 6762   4.724   7.481   0.459
 3019W        W 6763   1.004   5.571   9.053
 3020W        W 6764   5.704   0.414  10.971
 3021W        W 6765   5.521   0.997  11.798
 3022W        W 6766   8.025   8.868   8.984
 3023W        W 6767   6.038  10.319   8.963
 3024W        W 6768   1.446   0.223   0.195
 3025W        W 6769   9.772   1.381   1.253
 3026W        W 6770   8.562   5.252   2.238
 3027W        W 6771   2.705   6.053   3.426
 3028W        W 6772   4.645   3.110   9.219
 3029W        W 6773   9.901   5.241   1.285
 3030W        W 6774   5.201   0.282   0.748
 3031W        W 6775   2.838   1.772   9.041
 3032W        W 6776   5.189   5.576  10.977
 3033W        W 6777   2.627   3.089   2.610
 3034W        W 6778   9.676   2.207   3.260
 3035W        W 6779   8.969   6.450   9.234
 3036W        W 6780   0.922   9.509   0.312
 3037W        W 6781   6.476   9.963   0.106
 3038W        W 6782   4.525   4.483  11.682
 3039W        W 6783   1.780   5.891   1.211
 3040W        W 6784   6.027   8.861   9.321
 3041W        W 6785   7.581   9.641   9.472
 3042W        W 6786   3.728   6.995   1.185
 3043W        W 6787   7.031   4.047   0.805
 3044W        W 6788   8.033   5.032   2.071
 3045W        W 6789   8.446   0.282  10.482
 3046W        W 6790   6.540   4.042  10.846
 3047W        W 6791   4.573   0.860   8.615
 3048W        W 6792   8.934   1.787  11.656
 3049W        W 6793  10.176   7.486   3.102
 3050W        W 6794   3.205   4.947   3.158
 3051W        W 6795   5.937   3.614   3.221
 3052W        W 6796   1.498   7.581  10.826
 3053W        W 6797   0.434   2.242  11.701
 3054W        W 6798   4.709   9.589   1.349
 3055W        W 6799   8.030   3.410  11.360
 3056W        W 6800   5.173   7.490   9.035
 3057W        W 6801   2.183  10.329   1.186
 3058W        W 6802   1.954   5.158   1.731
 3059W        W 6803   9.078   5.021  10.954
 3060W        W 6804   4.635   2.527   1.024
 3061W        W 6805   1.928   3.179  11.509
 3062W        W 6806   3.789   6.249  11.479
 3063W        W 6807  10.337   1.748   9.609
 3064W        W 6808   1.280   3.897  10.610
 3065W        W 6809   9.443   5.524  10.147
 3066W        W 6810  10.014   5.637   3.223
 3067W        W 6811   6.615   6.155   2.296
 3068W        W 6812   3.811   7.105   8.840
 3069W        W 6813   3.113   6.372  11.310
 3070W        W 6814   1.849   5.036   8.869
 3071W        W 6815   2.600   3.694  10.091
 3072W        W 6816   7.948   9.856   8.718
 3073W        W 6817   4.286   8.416  10.426
 3074W        W 6818   0.707   7.867  10.970
 3075W        W 6819  10.471   6.950   9.812
 3076W        W 6820   4.205   9.416   1.582
 3077W        W 6821   2.044   0.282  11.388
 3078W        W 6822   8.155   2.895   1.181
 3079W        W 6823   2.044   8.542   1.828
 3080W        W 6824   1.173   1.325  10.327
 3081W        W 6825   7.460   6.617   2.461
 3082W        W 6826   7.536   0.849   8.486
 3083W        W 6827   6.733   1.801   1.285
 3084W        W 6828   0.204   6.989   9.352
 3085W        W 6829   2.796   1.284   9.316
 3086W        W 6830   7.495   4.080   0.248
 3087W        W 6831   2.580   2.776   8.967
 3088W        W 6832   4.481   0.820   3.177
 3089W        W 6833   7.474   5.535   0.383
 3090W        W 6834   3.319   7.509   9.853
 3091W        W 6835   4.823   0.364   8.638
 3092W        W 6836   0.467   9.465   9.155
 3093W        W 6837   3.531   8.659  11.297
 3094W        W 6838   6.503   0.022   0.965
 3095W        W 6839  10.235   5.152   9.265
 3096W        W 6840   2.567   1.438   0.347
 3097W        W 6841   7.211   7.455   9.917
 3098W        W 6842   3.826   6.591   2.686
 3099W        W 6843   3.326   1.778   1.256
 3100W        W 6844   7.472   0.155   0.322
 3101W        W 6845   6.446   5.524   9.468
 3102W        W 6846   9.144   5.865   2.236
 3103W        W 6847   4.539   9.947   3.236
 3104W        W 6848   5.924   7.593  11.300
 3105W        W 6849   6.698   3.420  10.273
 3106W        W 6850   9.680   1.393   3.244
 3107W        W 6851   6.749   2.773  11.943
 3108W        W 6852   3.135   6.086  10.885
 3109W        W 6853   7.392   0.027   9.466
 3110W        W 6854   1.906   4.447   2.419
 3111W        W 6855   5.713   5.607   9.963
 3112W        W 6856   6.485   6.380   2.733
 3113W        W 6857   3.461   0.088   9.240
 3114W        W 6858   8.504   9.051   2.997
 3115W        W 6859   0.746   0.701   3.652
 3116W        W 6860   9.481   4.601   9.008
 3117W        W 6861   3.956   2.990   3.103
 3118W        W 6862   2.224   9.073   0.767
 3119W        W 6863   2.213   1.971   9.126
 3120W        W 6864   2.891   9.521  10.628
 3121W        W 6865   1.477   9.966   9.046
 3122W        W 6866   9.038   7.493   2.087
 3123W        W 6867   7.441   1.461   3.177
 3124W        W 6868   9.027   2.197   9.105
 3125W        W 6869   0.774   6.356   9.400
 3126W        W 6870   0.053  10.451  10.706
 3127W        W 6871   9.744   7.232   2.253
 3128W        W 6872   2.557   7.648   1.966
 3129W        W 6873   5.913   2.555   8.877
 3130W        W 6874   2.736   9.514   0.166
 3131W        W 6875   4.187   8.157   2.410
 3132W        W 6876   9.831   3.300   3.030
 3133W        W 6877   3.791   9.458  10.796
 3134W        W 6878   0.256   4.446  11.491
 3135W        W 6879   6.584   4.654   9.714
 3136W        W 6880   7.455  10.450   1.922
 3137W        W 6881   0.114   0.440  11.826
 3138W        W 6882   6.475   3.101  11.061
 3139W        W 6883   0.082   9.479   0.889
 3140W        W 6884   8.309   8.408   9.552
 3141W        W 6885   3.775   6.482  10.160
 3142W        W 6886   7.334   5.609   1.687
 3143W        W 6887   1.422   8.870   8.521
 3144W        W 6888   8.441   1.657  11.397
 3145W        W 6889   1.760   3.662  11.437
 3146W        W 6890   6.249   1.507   0.029
 3147W        W 6891   2.744   6.980   2.455
 3148W        W 6892   0.031   1.844  10.618
 3149W        W 6893   7.181   6.179   8.546
 3150W        W 6894   8.880   7.025  10.247
 3151W        W 6895   0.792   6.809   1.671
 3152W        W 6896   7.594  10.238   0.607
 3153W        W 6897   5.342   3.833   8.629
 3154W        W 6898   9.470   0.065  10.446
 3155W        W 6899   2.316   8.157   2.602
 3156W        W 6900   1.637   8.600   2.121
 3157W        W 6901   8.205   2.589  11.966
 3158W        W 6902   4.683   5.221  10.328
 3159W        W 6903   0.044   0.854  10.684
 3160W        W 6904   9.917   4.480   0.787
 3161W        W 6905   0.947   6.617   0.719
 3162W        W 6906   7.394   9.483  10.578
 3163W        W 6907   5.177  10.274   2.060
 3164W        W 6908  10.424   6.402   2.048
 3165W        W 6909   3.027   1.881  11.955
 3166W        W 6910   4.821   3.357   8.826
 3167W        W 6911   7.672   0.931   1.502
 3168W        W 6912   5.741   2.678  10.905
 3169W        W 6913   3.126   6.291   2.832
 3170W        W 6914   6.329   9.067   0.351
 3171W        W 6915   6.173   4.302  10.497
 3172W        W 6916   2.356   8.123   2.087
 3173W        W 6917   7.626   9.915  11.857
 3174W        W 6918   5.165   5.624   1.159
 3175W        W 6919   4.157   1.581  10.178
 3176W        W 6920   3.602   5.201   2.758
 3177W        W 6921   6.115   0.168   9.324
 3178W        W 6922   4.125   1.355   9.054
 3179W        W 6923   4.983   2.755   0.693
 3180W        W 6924   0.961   8.435   9.926
 3181W        W 6925  10.369   8.235   9.033
 3182W        W 6926   2.284   5.639   9.500
 3183W        W 6927   0.913   0.988   9.242
 3184W        W 6928   2.500   4.261   0.471
 3185W        W 6929   5.587   8.055  10.369
 3186W        W 6930   6.891   3.015   2.708
 3187W        W 6931   3.312   4.531  10.596
 3188W        W 6932   6.921   5.392  11.486
 3189W        W 6933   0.486   3.770  11.002
 3190W        W 6934   9.889   1.394   9.667
 3191W        W 6935   6.261   5.628   9.982
 3192W        W 6936   5.967   5.069   1.692
 3193W        W 6937   8.921   8.079  11.677
 3194W        W 6938   8.536   8.544   1.759
 3195W        W 6939   6.627   1.282   8.875
 3196W        W 6940   2.147   9.670   0.234
 3197W        W 6941   5.192   7.578   0.987
 3198W        W 6942   4.139   6.171   8.837
 3199W        W 6943   8.053   0.495   9.092
 3200W        W 6944   2.771   4.441   1.491
 3201W        W 6945   2.627   4.552   8.247
 3202W        W 6946   2.234   1.485  11.710
 3203W        W 6947   6.003   6.129  10.530
 3204W        W 6948   3.152   4.129  10.318
 3205W        W 6949   3.194   0.384   0.250
 3206W        W 6950   9.868  10.263   0.515
 3207W        W 6951   8.868   8.822   1.275
 3208W        W 6952   7.143   3.537   3.692
 3209W        W 6953   9.330   6.863  10.422
 3210W        W 6954   0.632   8.430  11.647
 3211W        W 6955   4.587   7.146   9.990
 3212W        W 6956   8.109   9.523  10.814
 3213W        W 6957   9.437   7.577   0.374
 3214W        W 6958   3.174   8.333   9.050
 3215W        W 6959   1.901   8.513  11.938
 3216W        W 6960   6.056   9.507   0.341
 3217W        W 6961   4.034   4.896  10.464
 3218W        W 6962   4.681   9.082   1.851
 3219W        W 6963   8.432   5.067   2.974
 3220W        W 6964   0.234   5.529   1.440
 3221W        W 6965   4.046   9.711  11.442
 3222W        W 6966   1.559   3.514   3.612
 3223W        W 6967   0.719   7.457   8.741
 3224W        W 6968   1.354   5.621  10.976
 3225W        W 6969   9.450   6.175   1.458
 3226W        W 6970   4.759  10.379  11.850
 3227W        W 6971   0.932   6.153   1.886
 3228W        W 6972   0.456   9.991  10.869
 3229W        W 6973   7.853   0.126   0.857
 3230W        W 6974   5.630   8.005   9.569
 3231W        W 6975   6.311   5.431   1.845
 3232W        W 6976   9.952   3.672   2.670
 3233W        W 6977   2.842   5.167  11.485
 3234W        W 6978   8.454   9.721   9.693
 3235W        W 6979   9.954   0.380   1.396
 3236W        W 6980   6.367   9.461  10.834
 3237W        W 6981   9.293   4.938   0.266
 3238W        W 6982   0.791   3.628   0.269
 3239W        W 6983   4.998   4.829  10.288
 3240W        W 6984  10.406   8.002  11.326
 3241W        W 6985   6.780   1.229  10.001
 3242W        W 6986   0.628   1.645   0.494
 3243W        W 6987   1.980   6.356   9.624
 3244W        W 6988   6.048   9.363  11.437
 3245W        W 6989  10.138   7.319   9.626
 3246W        W 6990   6.138   3.510   8.920
 3247W        W 6991   3.776   6.312   8.441
 3248W        W 6992   2.862   6.100   1.926
 3249W        W 6993   5.229   6.976   2.335
 3250W        W 6994   7.800   4.396   0.746
 3251W        W 6995   8.120   9.789   2.871
 3252W        W 6996   6.757   6.510   8.599
 3253W        W 6997  10.217   9.081   0.904
 3254W        W 6998   9.068   8.033  10.203
 3255W        W 6999   5.200   0.393   8.984
 3256W        W 7000   0.431   1.933   2.674
 3257W        W 7001   5.978   5.112   2.797
 3258W        W 7002   3.595   7.910   3.066
 3259W        W 7003   2.721   0.334   3.234
 3260W        W 7004   9.378   1.219   1.540
 3261W        W 7005   7.943   3.294   9.967
 3262W        W 7006   8.122   0.900   1.268
 3263W        W 7007   3.174   5.038   2.360
 3264W        W 7008   6.698   0.976   3.049
 3265W        W 7009   6.100   8.124  10.552
 3266W        W 7010   1.925   5.582   3.214
 3267W        W 7011   7.213   5.423   9.771
 3268W        W 7012   0.001   5.298   1.036
 3269W        W 7013   0.701   5.282  11.663
 3270W        W 7014   9.093  10.325   0.393
 3271W        W 7015   8.665   4.645  10.301
 3272W        W 7016  10.149   0.345   3.568
 3273W        W 7017   5.317   8.394   9.569
 3274W        W 7018   9.618   6.705  11.302
 3275W        W 7019   7.858   4.236  10.450
 3276W        W 7020   8.422   6.949   9.564
 3277W        W 7021   7.359   6.268   3.848
 3278W        W 7022   5.530   3.786   2.949
 3279W        W 7023   5.788   5.795   0.263
 3280W        W 7024   3.084   2.711   1.582
 3281W        W 7025   5.106   6.740   8.946
 3282W        W 7026   7.902   4.225   9.552
 3283W        W 7027   2.677   6.669   9.006
 3284W        W 7028   3.594   9.491  11.292
 3285W        W 7029   7.917   0.386  11.507
 3286W        W 7030   7.702   5.601   8.109
 3287W        W 7031   8.630   5.427   9.318
 3288W        W 7032   8.380   0.506   3.651
 3289W        W 7033   2.713   6.504   2.630
 3290W        W 7034   5.314   5.544   3.144
 3291W        W 7035   7.526   0.454   3.443
 3292W        W 7036   3.769   9.185   1.865
 3293W        W 7037   6.581   6.016   9.270
 3294W        W 7038   6.426   8.631   2.182
 3295W        W 7039   0.121   8.429  11.563
 3296W        W 7040   5.942   7.133   8.174
 3297W        W 7041   1.422   2.419  10.465
 3298W        W 7042   7.441   3.427   0.815
 3299W        W 7043   0.990   1.815   2.123
 3300W        W 7044   7.351  10.322  11.702
 3301W        W 7045   6.163   3.254   1.957
 3302W        W 7046   7.878   4.637   9.021
 3303W        W 7047   4.235   9.623   0.326
 3304W        W 7048  10.046   5.474  10.837
 3305W        W 7049   6.400   8.092   2.221
 3306W        W 7050   0.010   7.459  10.971
 3307W        W 7051   1.172   0.429   9.988
 3308W        W 7052   1.707   1.826   9.209
 3309W        W 7053   5.752   1.958   2.022
 3310W        W 7054   3.006   2.806  10.790
 3311W        W 7055   9.898   5.214   2.229
 3312W        W 7056   8.544   9.778   2.083
 3313W        W 7057  10.381   9.865   1.190
 3314W        W 7058   4.325   7.139   2.991
 3315W        W 7059   4.041   6.365   3.349
 3316W        W 7060   4.288   1.420   2.292
 3317W        W 7061   9.943   9.805   0.258
 3318W        W 7062   5.243   4.760   9.281
 3319W        W 7063   2.220  10.406   8.746
 3320W        W 7064   4.737   7.500   8.603
 3321W        W 7065   3.658   7.851   0.736
 3322W        W 7066   7.417   7.633   1.279
 3323W        W 7067   8.408   9.742   3.565
 3324W        W 7068   2.700   4.975   9.033
 3325W        W 7069   6.483   9.255  11.692
 3326W        W 7070   1.901   2.623  10.421
 3327W        W 7071   8.539   1.027   3.471
 3328W        W 7072   8.193   1.253   0.059
 3329W        W 7073   5.555   3.625   0.461
 3330W        W 7074   7.021   4.500   1.056
 3331W        W 7075   2.349   0.430  10.476
 3332W        W 7076   2.850   9.538   3.339
 3333W        W 7077   0.662   0.421  10.025
 3334W        W 7078   9.328   7.459   1.255
 3335W        W 7079  10.271   7.041   0.687
 3336W        W 7080   4.736   7.690   9.218
 3337W        W 7081   0.120   8.084   9.948
 3338W        W 7082   8.130   7.567  10.138
 3339W        W 7083   9.094   0.339   0.454
 3340W        W 7084   8.969   9.449   8.758
 3341W        W 7085   1.764   1.227   0.894
 3342W        W 7086   5.682   3.630   0.956
 3343W        W 7087   7.328   1.778   9.456
 3344W        W 7088   4.070  10.214   3.273
 3345W        W 7089   1.829   2.319   8.989
 3346W        W 7090   3.640   0.510  10.941
 3347W        W 7091   3.376   4.518   0.029
 3348W        W 7092   2.408   1.926  10.354
 3349W        W 7093   1.268   5.095   2.392
 3350W        W 7094   1.064   5.216   8.592
 3351W        W 7095   4.346   3.667  10.829
 3352W        W 7096   0.291   3.382   2.429
 3353W        W 7097   8.934   7.943   2.314
 3354W        W 7098   4.577   8.329   0.918
 3355W        W 7099   3.928   4.607   8.664
 3356W        W 7100   2.981  10.310   0.852
 3357W        W 7101   8.331   5.009   9.121
 3358W        W 7102   2.351   8.610   3.385
 3359W        W 7103   5.358   0.750   1.661
 3360W        W 7104   8.421   6.075   0.368
 3361W        W 7105   5.136   3.324   0.862
 3362W        W 7106   6.949  10.015   2.151
 3363W        W 7107   2.134   8.953  10.017
 3364W        W 7108   0.771   5.190   2.283
 3365W        W 7109   5.687   9.906  11.954
 3366W        W 7110   8.128   3.629   1.339
 3367W        W 7111   5.682   7.531   3.340
 3368W        W 7112   6.775   2.840   9.935
 3369W        W 7113   5.834   4.458   0.282
 3370W        W 7114   0.028   9.460   8.527
 3371W        W 7115   5.431   2.150   9.836
 3372W        W 7116   8.981   2.795   3.373
 3373W        W 7117   4.211   8.445   1.823
 3374W        W 7118  10.023   0.060   3.159
 3375W        W 7119   4.954   7.691   1.437
 3376W        W 7120   1.816   2.829   0.726
 3377W        W 7121   5.730   7.846  10.831
 3378W        W 7122   3.817   0.536  11.504
 3379W        W 7123   6.628   8.555   8.930
 3380W        W 7124   9.611   2.793   0.924
 3381W        W 7125   9.456   8.905  10.171
 3382W        W 7126   6.220   2.638   3.715
 3383W        W 7127   3.578   8.917  10.795
 3384W        W 7128   3.125   7.759   0.395
 3385W        W 7129   4.060   4.025   0.964
 3386W        W 7130   1.360   5.491   0.485
 3387W        W 7131   7.651   8.139   2.881
 3388W        W 7132   5.109   9.913   1.357
 3389W        W 7133   3.251   6.942   9.070
 3390W        W 7134   8.102   5.433   3.087
 3391W        W 7135   9.441   0.383   1.077
 3392W        W 7136   8.847   3.244  10.026
 3393W        W 7137   9.025   9.346  11.323
 3394W        W 7138   5.694   2.651   3.815
 3395W        W 7139   1.783   5.524  10.717
 3396W        W 7140   6.931   4.261  11.399
 3397W        W 7141   4.285   3.873   0.170
 3398W        W 7142   2.203   8.102  11.075
 3399W        W 7143   6.207   7.663   8.601
 3400W        W 7144   1.762   1.218   9.747
 3401W        W 7145   5.413   6.489   0.017
 3402W        W 7146   1.318   7.139  10.126
 3403W        W 7147   8.910   3.565  11.784
 3404W        W 7148   6.063   5.192  11.627
 3405W        W 7149   0.510   7.855  10.473
 3406W        W 7150   7.433   6.528  11.372
 3407W        W 7151   8.088   7.851   2.688
 3408W        W 7152   2.524   0.171   1.941
 3409W        W 7153  10.184   0.541  10.935
 3410W        W 7154   6.377  10.470   2.250
 3411W        W 7155   2.757   5.108   4.053
 3412W        W 7156   8.374  10.312  10.309
 3413W        W 7157   8.976   3.550   8.669
 3414W        W 7158   7.179   3.697   0.467
 3415W        W 7159   8.197   7.991   9.844
 3416W        W 7160   0.684   1.199  10.420
 3417W        W 7161   6.741   9.315   9.373
 3418W        W 7162   1.146   0.464   1.862
 3419W        W 7163   4.201   9.351  11.126
 3420W        W 7164   4.973   7.423  10.596
 3421W        W 7165   8.178   6.922   0.276
 3422W        W 7166   4.717   5.448   9.853
 3423W        W 7167   4.013   6.586  11.086
 3424W        W 7168   6.876   8.331   3.478
 3425W        W 7169   3.892   1.994   3.457
 3426W        W 7170   7.365   6.327   0.770
 3427W        W 7171   4.245   3.202   8.904
 3428W        W 7172   0.954   0.417   2.335
 3429W        W 7173   4.288   0.913   0.384
 3430W        W 7174   5.260   1.267   1.004
 3431W        W 7175   7.485   4.757   0.893
 3432W        W 7176   6.942   3.743  10.916
 3433W        W 7177   7.108   1.705   0.949
 3434W        W 7178   5.478   4.888   0.885
 3435W        W 7179   7.584   0.227   9.028
 3436W        W 7180   1.868   6.252   9.068
 3437W        W 7181   6.116   6.746   3.247
 3438W        W 7182   6.494   4.824  10.236
 3439W        W 7183   2.145   9.912   8.866
 3440W        W 7184   3.597   0.843  11.861
 3441W        W 7185   6.542   6.315   3.521
 3442W        W 7186   3.654   9.949  10.554
 3443W        W 7187   7.575   9.071   2.958
 3444W        W 7188   6.460   8.293   9.358
 3445W        W 7189   0.295   1.563   9.369
 3446W        W 7190   9.382   4.825   9.679
 3447W        W 7191   6.100   2.862   0.680
 3448W        W 7192   1.161   4.271   2.455
 3449W        W 7193   8.909   4.885   2.422
 3450W        W 7194   9.516   3.545   1.637
 3451W        W 7195   4.339   2.809   2.310
 3452W        W 7196   0.708   9.212  10.418
 3453W        W 7197   3.833   8.536   1.284
 3454W        W 7198   1.057   2.882   8.814
 3455W        W 7199   4.747   3.021   4.065
 3456W        W 7200   7.050   1.899   0.008
 3457W        W 7201   0.608   6.666   8.513
 3458W        W 7202   1.736   6.069   2.527
 3459W        W 7203   6.921   7.953   3.132
 3460W        W 7204   5.173   8.327   2.845
 3461W        W 7205   5.363   8.840   0.407
 3462W        W 7206   8.836   5.492   8.834
 3463W        W 7207   6.997   9.243  11.829
 3464W        W 7208  10.293  10.227   0.241
 3465W        W 7209   1.477   3.278   0.691
 3466W        W 7210   7.056   6.666   1.042
 3467W        W 7211  10.353   0.650   0.213
 3468W        W 7212   9.952   4.199   9.614
 3469W        W 7213   3.347   5.009  11.339
 3470W        W 7214   7.873   6.890   2.926
 3471W        W 7215   4.707   3.040   1.008
 3472W        W 7216   4.124   4.139  11.743
 3473W        W 7217   9.444   8.318   1.791
 3474W        W 7218   0.894   2.861   0.976
 3475W        W 7219   2.915   5.185   1.927
 3476W        W 7220   0.966   2.321   9.077
 3477W        W 7221   9.902   7.106  11.408
 3478W        W 7222   5.693   7.124  11.345
 3479W        W 7223  10.119   4.559   0.332
 3480W        W 7224   5.595   9.987   3.294
 3481W        W 7225   5.170   1.248   9.521
 3482W        W 7226   1.239   4.216   2.947
 3483W        W 7227   9.698   3.992   9.219
 3484W        W 7228   3.733   8.204  11.374
 3485W        W 7229   0.421   8.646  11.211
 3486W        W 7230  10.223   2.176   0.587
 3487W        W 7231   5.100   0.693  11.780
 3488W        W 7232   7.225   1.888  10.530
 3489W        W 7233   3.834   8.814   9.949
 3490W        W 7234   8.065   3.249   0.225
 3491W        W 7235   1.853   7.881   0.769
 3492W        W 7236   5.525   8.823   1.180
 3493W        W 7237   1.288   8.122  11.447
 3494W        W 7238   9.897   4.709   3.408
 3495W        W 7239   2.674   2.960   1.265
 3496W        W 7240   6.514   8.994   1.130
 3497W        W 7241   1.961   3.477   2.801
 3498W        W 7242   8.692   0.527  10.110
 3499W        W 7243   6.627   6.733   1.385
 3500W        W 7244   5.627   9.953  10.086
 3501W        W 7245   8.785   3.633  10.962
 3502W        W 7246  10.020   0.245   0.306
 3503W        W 7247   9.836   8.308   2.865
 3504W        W 7248   3.168   1.344   1.474
 3505W        W 7249   5.678   6.323   3.718
 3506W        W 7250   4.512   7.644   8.097
 3507W        W 7251   2.762   8.104  10.352
 3508W        W 7252   6.706   5.930  11.256
 3509W        W 7253   2.733  10.440   3.559
 3510W        W 7254   1.378  10.085  11.131
 3511W        W 7255   1.889   6.942   2.007
 3512W        W 7256   3.184   4.755   1.674
 3513W        W 7257   7.166   0.229   3.124
 3514W        W 7258   7.920   0.808  10.698
 3515W        W 7259   2.309   2.884   0.437
 3516W        W 7260   3.058   1.873  10.780
 3517W        W 7261   1.365   3.075   3.503
 3518W        W 7262   7.986   3.587   3.351
 3519W        W 7263  10.262   9.406   2.954
 3520W        W 7264   2.936   1.192  10.838
 3521W        W 7265   0.264   4.302   1.904
 3522W        W 7266   9.676  10.328   9.591
 3523W        W 7267   1.336   1.807  10.231
 3524W        W 7268   7.262   7.897   9.654
 3525W        W 7269   4.496   0.814   2.675
 3526W        W 7270   5.752   8.069   1.612
 3527W        W 7271   1.204   4.292  11.929
 3528W        W 7272   3.142   9.921  10.434
 3529W        W 7273   6.573   0.174   1.831
 3530W        W 7274   5.353   0.475   3.527
 3531W        W 7275   5.103   9.994   2.510
 3532W        W 7276   0.602   0.307  11.896
 3533W        W 7277   6.580   4.492  11.094
 3534W        W 7278   0.720   0.407  11.031
 3535W        W 7279   2.922   1.646  10.292
 3536W        W 7280   3.166   7.856   0.936
 3537W        W 7281   2.642   4.263  11.961
 3538W        W 7282   2.272   1.657  11.232
 3539W        W 7283   4.672   9.623   9.083
 3540W        W 7284   3.712   0.324   0.991
 3541W        W 7285   5.003   6.068   0.870
 3542W        W 7286   3.341   2.687  11.767
 3543W        W 7287   0.440   4.006   1.532
 3544W        W 7288   7.583   7.466  10.762
 3545W        W 7289   7.113   6.223  11.064
 3546W        W 7290   8.424   8.950   0.983
 3547W        W 7291   0.611   2.525   3.509
 3548W        W 7292   0.386   7.454  11.840
 3549W        W 7293   3.546   4.971  10.748
 3550W        W 7294   7.086   8.809   9.636
 3551W        W 7295   9.743   4.302   3.135
 3552W        W 7296   3.634   8.509  11.797
 3553W        W 7297   4.001   0.062   2.207
 3554W        W 7298   7.172   7.883   2.159
 3555W        W 7299   1.385   4.975  11.355
 3556W        W 7300   0.333   5.295  11.321
 3557W        W 7301   7.524   3.193   9.684
 3558W        W 7302  10.007   9.109   9.412
 3559W        W 7303   7.124   0.400   1.183
 3560W        W 7304   0.553   1.304   9.015
 3561W        W 7305   5.714   6.424   1.437
 3562W        W 7306   8.862   0.543  10.623
 3563W        W 7307   0.818   7.028  10.082
 3564W        W 7308   4.547   7.645  10.770
 3565W        W 7309   2.338   6.874   8.120
 3566W        W 7310   4.737   6.830   3.149
 3567W        W 7311   2.854   3.191  11.404
 3568W        W 7312  10.331   2.950   1.295
 3569W        W 7313   0.506   7.017   8.918
 3570W        W 7314   9.939   9.513   9.088
 3571W        W 7315   4.270   3.662   2.707
 3572W        W 7316   8.548   6.634   3.429
 3573W        W 7317   0.822   7.793   9.105
 3574W        W 7318   1.919   2.190   9.504
 3575W        W 7319   7.251   9.412   2.739
 3576W        W 7320   1.489   7.957   9.548
 3577W        W 7321   6.715   6.991  10.930
 3578W        W 7322   4.591   0.760  11.808
 3579W        W 7323   1.283   1.035  11.551
 3580W        W 7324   5.200   4.275   9.129
 3581W        W 7325   6.700   7.339   9.969
 3582W        W 7326   3.984   3.113   1.432
 3583W        W 7327   4.719   6.946   2.151
 3584W        W 7328   5.566   2.546  10.450
 3585W        W 7329   6.274   8.700   8.584
 3586W        W 7330   4.028   7.998   8.702
 3587W        W 7331   2.201   6.617   9.217
 3588W        W 7332  10.224   7.969   2.810
 3589W        W 7333   3.111   1.932   3.178
 3590W        W 7334  10.429   0.907  11.769
 3591W        W 7335   7.484  10.093   1.542
 3592W        W 7336   1.128   3.223   2.610
 3593W        W 7337   3.364   6.106   1.888
 3594W        W 7338   0.893   4.707   2.470
 3595W        W 7339   6.060   2.008  11.742
 3596W        W 7340   8.609   9.379   1.280
 3597W        W 7341   6.556   2.304   3.060
 3598W        W 7342   6.931   6.463  11.487
 3599W        W 7343   4.545   1.103   9.239
 3600W        W 7344   0.813   8.477   2.722
 3601W        W 7345  10.205   0.860   3.548
 3602W        W 7346   4.290   9.421  10.612
 3603W        W 7347   0.521   2.878   8.728
 3604W        W 7348   4.190   4.211   3.597
 3605W        W 7349   4.573   9.971   0.476
 3606W        W 7350   2.219   3.764   9.765
 3607W        W 7351   5.593   5.111   9.847
 3608W        W 7352   5.482   9.872  11.064
 3609W        W 7353   9.277   9.015   8.707
 3610W        W 7354   1.427   9.261   0.643
 3611W        W 7355   9.375   8.095  11.954
 3612W        W 7356   1.392   9.952   2.837
 3613W        W 7357   2.478   1.815   0.017
 3614W        W 7358   5.943   7.937   9.981
 3615W        W 7359   0.758  10.200   2.828
 3616W        W 7360   1.272   2.800   2.937
 3617W        W 7361   5.727   3.568   4.262
 3618W        W 7362   0.420   8.957  11.615
 3619W        W 7363   2.641   7.534  11.503
 3620W        W 7364   7.458  10.092  11.257
 3621W        W 7365   1.769   2.813   1.727
 3622W        W 7366   1.726   9.314   9.983
 3623W        W 7367  10.431   6.270   8.663
 3624W        W 7368   2.053   7.117   8.484
 3625W        W 7369  10.019   7.898  10.287
 3626W        W 7370   1.248   3.633  11.568
 3627W        W 7371   7.160   0.200   3.693
 3628W        W 7372   4.000   0.876  10.929
 3629W        W 7373   7.777   6.138  10.461
 3630W        W 7374   7.682   1.983   9.750
 3631W        W 7375   7.993   7.856   3.178
 3632W        W 7376   1.705   5.207  11.865
 3633W        W 7377   5.071   4.080   8.177
 3634W        W 7378   8.080   2.010  11.378
 3635W        W 7379   5.340   4.419   0.689
 3636W        W 7380   8.749   2.610   0.692
 3637W        W 7381   6.860   1.744   9.657
 3638W        W 7382   6.955   4.034  10.487
 3639W        W 7383   1.357   4.342   9.884
 3640W        W 7384   5.304   6.656   8.479
 3641W        W 7385  10.037   2.232  11.216
 3642W        W 7386   2.373   1.252   3.321
 3643W        W 7387   5.770   5.096   2.164
 3644W        W 7388   6.956   0.180   0.746
 3645W        W 7389  10.435   8.919   3.219
 3646W        W 7390   9.917   2.809   2.790
 3647W        W 7391   4.706   3.107  11.580
 3648W        W 7392   2.278   9.963   2.968
 3649W        W 7393  10.273   3.077  10.869
 3650W        W 7394   9.506   1.102  11.934
 3651W        W 7395   4.414   8.890  11.128
 3652W        W 7396   0.920   6.682   2.614
 3653W        W 7397   7.933   4.101   2.154
 3654W        W 7398   6.416   9.029   8.980
 3655W        W 7399   5.222   8.379   8.891
 3656W        W 7400   4.988  10.437   9.737
 3657W        W 7401   4.515   9.598   2.345
 3658W        W 7402   1.124   0.482   0.724
 3659W        W 7403   4.874   0.245  10.580
 3660W        W 7404   3.891   9.875   1.186
 3661W        W 7405   4.184   7.904  10.304
 3662W        W 7406   3.739   1.931  11.494
 3663W        W 7407  10.252   8.424   1.722
 3664W        W 7408   7.620   1.836   1.644
 3665W        W 7409   7.507   9.960  10.747
 3666W        W 7410   8.828   9.009   1.753
 3667W        W 7411   1.796   8.133  11.475
 3668W        W 7412   1.011   5.532   3.227
 3669W        W 7413   9.452   7.879   3.478
 3670W        W 7414   9.402   8.604  11.863
 3671W        W 7415   8.597   4.292  11.777
 3672W        W 7416   3.579  10.359   3.169
 3673W        W 7417   4.193   4.377  11.257
 3674W        W 7418   9.748   1.012   1.838
 3675W        W 7419   7.474   8.944   4.009
 3676W        W 7420   2.586   2.354   0.432
 3677W        W 7421   9.860   9.802  11.718
 3678W        W 7422   4.438   3.610   9.134
 3679W        W 7423   9.336   2.197   2.790
 3680W        W 7424   4.222   6.560   9.923
 3681W        W 7425   1.003   2.389   0.778
 3682W        W 7426   6.258   0.780   1.147
 3683W        W 7427   5.994   5.690  11.376
 3684W        W 7428   4.234   8.918  10.297
 3685W        W 7429   8.512   8.004   1.028
 3686W        W 7430   0.493   5.100   0.124
 3687W        W 7431   7.815   9.377   0.350
 3688W        W 7432   2.647   9.019   3.511
 3689W        W 7433   2.189   1.222   1.171
 3690W        W 7434   9.845   2.285   2.788
 3691W        W 7435   1.806   1.435   1.421
 3692W        W 7436   0.291   4.921  11.679
 3693W        W 7437   8.927   7.979   2.841
 3694W        W 7438   8.943   1.740   9.348
 3695W        W 7439   4.586   9.080   2.417
 3696W        W 7440   8.344   2.378   2.515
 3697W        W 7441   3.616   1.384   0.408
 3698W        W 7442   8.319   6.290   3.751
 3699W        W 7443   1.835   4.802  11.566
 3700W        W 7444   6.754   6.747   9.067
 3701W        W 7445   7.627   0.929   0.724
 3702W        W 7446   8.575   1.450  10.954
 3703W        W 7447   2.082   9.312  10.357
 3704W        W 7448   9.858   4.640   9.925
 3705W        W 7449   3.796   9.141  10.371
 3706W        W 7450   0.667   9.375   2.246
 3707W        W 7451   2.646   2.289  11.916
 3708W        W 7452   2.798   3.105   3.129
 3709W        W 7453   9.956   6.398   1.858
 3710W        W 7454   1.444   3.614   8.687
 3711W        W 7455   9.429   3.956  11.553
 3712W        W 7456   8.304   9.982  10.721
 3713W        W 7457   2.022   4.875   3.680
 3714W        W 7458   0.714   6.550   2.132
 3715W        W 7459   0.638   0.366   1.926
 3716W        W 7460   9.703   4.221   8.750
 3717W        W 7461   0.867   2.743  11.869
 3718W        W 7462   8.102   7.962  11.782
 3719W        W 7463   6.479   8.477  10.864
 3720W        W 7464   3.522   7.548   9.363
 3721W        W 7465   3.288   3.807   2.661
 3722W        W 7466   6.009   6.092  10.020
 3723W        W 7467  10.412   8.172  11.952
 3724W        W 7468   9.789   5.004   0.803
 3725W        W 7469   7.461   4.598  11.027
 3726W        W 7470   5.190   8.374  10.074
 3727W        W 7471  10.322   5.104  10.585
 3728W        W 7472  10.292   7.036   1.201
 3729W        W 7473   7.144   7.238  10.802
 3730W        W 7474   7.633   9.173   9.713
 3731W        W 7475   8.612   9.260   9.559
 3732W        W 7476   9.590   3.502   9.398
 3733W        W 7477   0.026   0.867   9.744
 3734W        W 7478   9.905   9.314   9.910
 3735W        W 7479   9.914   6.122   9.478
 3736W        W 7480   6.915  10.151  11.887
 3737W        W 7481   5.445   9.988   1.724
 3738W        W 7482   5.501   3.320   9.838
 3739W        W 7483   9.556   6.647   1.687
 3740W        W 7484   5.053   8.509  11.544
 3741W        W 7485   3.737  10.482  10.818
 3742W        W 7486   9.348   9.480   0.505
 3743W        W 7487   4.787   8.679   8.860
 3744W        W 7488   9.325  10.309  11.885
 3745W        W 7489   3.741   8.676   1.770
 3746W        W 7490  10.351   5.541   9.978
 3747W        W 7491   1.467   3.575   2.744
 3748W        W 7492   6.593   8.489   1.291
 3749W        W 7493   2.891   7.448   2.330
 3750W        W 7494   3.065   5.075  10.923
 3751W        W 7495   5.254   9.673   0.053
 3752W        W 7496   0.046   3.200   9.938
 3753W        W 7497   9.388   3.286   0.282
 3754W        W 7498   8.913   8.350   1.061
 3755W        W 7499   4.278   6.842   3.410
 3756W        W 7500   9.960   8.830   0.553
 3757W        W 7501   2.448   3.404   0.383
 3758W        W 7502   7.398   2.439   0.940
 3759W        W 7503   6.674   0.301   8.757
 3760W        W 7504   2.653   6.927   8.534
 3761W        W 7505   0.264   3.346   0.327
 3762W        W 7506   9.404   6.204   3.064
 3763W        W 7507   7.616   0.023   9.913
 3764W        W 7508   2.969   6.855   2.923
 3765W        W 7509   1.440   8.207   3.200
 3766W        W 7510   2.772   2.750   0.194
 3767W        W 7511   1.329   9.819   8.590
 3768W        W 7512   5.781   4.236   3.569
 3769W        W 7513   0.210   4.206   2.821
 3770W        W 7514   9.759   5.872  11.015
 3771W        W 7515   6.004  10.407   9.924
 3772W        W 7516   4.220   7.336   0.469
 3773W        W 7517   7.334   9.016   0.210
 3774W        W 7518  10.286   9.487   2.464
 3775W        W 7519   3.261   7.073  11.752
 3776W        W 7520   2.478   7.840  11.867
 3777W        W 7521   5.709   0.713  11.425
 3778W        W 7522   9.168   2.311   3.272
 3779W        W 7523   3.745   3.166  11.169
 3780W        W 7524   4.743   3.189   3.187
 3781W        W 7525   7.393   6.980   1.641
 3782W        W 7526   2.383   9.880   9.585
 3783W        W 7527   8.315   3.761  11.065
 3784W        W 7528   5.652   9.092   0.759
 3785W        W 7529   3.846   9.459   2.897
 3786W        W 7530   1.708   9.467  11.282
 3787W        W 7531   1.762   6.506   2.995
 3788W        W 7532   3.368   7.397   8.916
 3789W        W 7533   0.277   1.628   8.364
 3790W        W 7534   6.543   0.180  11.494
 3791W        W 7535   4.714   4.575  11.197
 3792W        W 7536   8.241   2.649   0.735
 3793W        W 7537   6.190   8.189   1.370
 3794W        W 7538   0.832   9.311  11.542
 3795W        W 7539   5.114   6.052   2.443
 3796W        W 7540   2.686   8.109  10.862
 3797W        W 7541   6.138   4.253   1.233
 3798W        W 7542   4.755   8.562  10.277
 3799W        W 7543   5.604   9.031  10.546
 3800W        W 7544   7.496   0.087  10.401
 3801W        W 7545   4.501   4.740  10.357
 3802W        W 7546   7.148   4.912   3.343
 3803W        W 7547   4.961   7.377   8.127
 3804W        W 7548   7.984   3.176   1.583
 3805W        W 7549   5.468  10.424   9.941
 3806W        W 7550   9.172   6.700   0.134
 3807W        W 7551   9.599   8.968   9.702
 3808W        W 7552   2.220   0.743   9.652
 3809W        W 7553   8.047   6.652  10.268
 3810W        W 7554   5.213   7.081   4.229
 3811W        W 7555   7.366   7.147  10.343
 3812W        W 7556   3.062   6.619  11.764
 3813W        W 7557   0.297   2.917   9.581
 3814W        W 7558   6.212   7.101   3.986
 3815W        W 7559   1.856   6.722   1.535
 3816W        W 7560   1.119   5.272   1.048
 3817W        W 7561   8.732   7.454   3.592
 3818W        W 7562   1.319   7.080  10.660
 3819W        W 7563   8.854  10.301   0.881
 3820W        W 7564   7.019   7.101   8.797
 3821W        W 7565   1.812   4.939   2.317
 3822W        W 7566   4.238   5.204  10.088
 3823W        W 7567   6.191   8.407   2.849
 3824W        W 7568   5.075   3.347   0.364
 3825W        W 7569   3.204   1.011   2.872
 3826W        W 7570  10.426   0.624   1.351
 3827W        W 7571   1.512   7.833   2.432
 3828W        W 7572   6.887   6.279   8.136
 3829W        W 7573   5.943   9.645  11.026
 3830W        W 7574   4.440   1.722   2.792
 3831W        W 7575   8.123   2.771   2.841
 3832W        W 7576   8.592   6.776   0.928
 3833W        W 7577   4.824   1.353   2.103
 3834W        W 7578   9.408  10.128   2.208
 3835W        W 7579   9.986  10.131   0.991
 3836W        W 7580   7.657   8.146   0.032
 3837W        W 7581   3.252   6.010   9.163
 3838W        W 7582   2.286   5.982  11.891
 3839W        W 7583   8.407   6.975  10.458
 3840W        W 7584   0.223   7.162   0.964
 3841W        W 7585   8.534   2.845   9.996
 3842W        W 7586   5.163   6.496   2.157
 3843W        W 7587   1.354   6.887   8.818
 3844W        W 7588   5.661   3.310   2.781
 3845W        W 7589   8.114   6.488   3.162
 3846W        W 7590   4.679   9.854  10.820
 3847W        W 7591   9.014   4.745   1.548
 3848W        W 7592   1.757   2.878   9.986
 3849W        W 7593   7.053   8.956   2.860
 3850W        W 7594   6.121   6.507  10.854
 3851W        W 7595   1.341   3.309   2.166
 3852W        W 7596   7.049   2.742  11.544
 3853W        W 7597   9.839  10.245  11.992
 3854W        W 7598   3.767   8.007   9.481
 3855W        W 7599   3.141   1.424   1.989
 3856W        W 7600   6.482   0.218   0.456
 3857W        W 7601   5.091   1.776  10.754
 3858W        W 7602   2.286   5.562  11.499
 3859W        W 7603   5.367   5.703   8.584
 3860W        W 7604   2.194   7.276   9.748
 3861W        W 7605   6.148   8.085  11.082
 3862W        W 7606   2.122   7.667   9.427
 3863W        W 7607   6.939   3.483   2.561
 3864W        W 7608   1.897   4.512   1.406
 3865W        W 7609   0.323   0.942   2.707
 3866W        W 7610   0.912   5.094   9.938
 3867W        W 7611   0.462   4.829  10.088
 3868W        W 7612   4.642   5.364  11.203
 3869W        W 7613   5.116   3.790   0.138
 3870W        W 7614   4.312   4.607  10.823
 3871W        W 7615   5.601   3.291   2.277
 3872W        W 7616   2.130   9.771  10.560
 3873W        W 7617   7.632   9.602   1.647
 3874W        W 7618   4.087   6.059   1.004
 3875W        W 7619  10.315   1.793  11.467
 3876W        W 7620   8.949   2.859   1.449
 3877W        W 7621   0.578   5.923   1.443
 3878W        W 7622   7.421   0.535   9.457
 3879W        W 7623   8.494   3.921   3.295
 3880W        W 7624   9.073   2.244  11.466
 3881W        W 7625   9.348   4.613  10.126
 3882W        W 7626   1.941   9.069   2.863
 3883W        W 7627   1.791   0.816   9.343
 3884W        W 7628   9.442   1.269  10.918
 3885W        W 7629   8.563   4.598  11.321
 3886W        W 7630   8.531   2.742   8.962
 3887W        W 7631   8.863   1.927   3.181
 3888W        W 7632   7.258   7.808   8.627
 3889W        W 7633   1.975   7.744   2.652
 3890W        W 7634   9.894   0.661   0.986
 3891W        W 7635   1.164   4.022   1.451
 3892W        W 7636   5.728   1.295  10.781
 3893W        W 7637   8.046   7.828  11.247
 3894W        W 7638   2.275   5.267   3.452
 3895W        W 7639   8.026   9.803   9.240
 3896W        W 7640   2.679   8.963  10.978
 3897W        W 7641  10.493   1.857  11.957
 3898W        W 7642   9.403   8.571   2.763
 3899W        W 7643   3.230   4.703   3.603
 3900W        W 7644   9.742   0.843  11.023
 3901W        W 7645   7.147   6.707  10.766
 3902W        W 7646   9.071   0.754   0.770
 3903W        W 7647   9.970   9.977  10.830
 3904W        W 7648   5.246   9.709  10.377
 3905W        W 7649   7.535   8.600   3.130
 3906W        W 7650   5.722   6.457   0.933
 3907W        W 7651   1.395   9.534  10.874
 3908W        W 7652   9.782   3.742   9.818
 3909W        W 7653   7.075   0.082   9.041
 3910W        W 7654   6.467   6.655  11.219
 3911W        W 7655   1.752   6.185  11.854
 3912W        W 7656   5.257   4.468  11.023
 3913W        W 7657   5.679   4.207   2.140
 3914W        W 7658   5.560   5.062   3.119
 3915W        W 7659   1.950   3.238   9.677
 3916W        W 7660   6.154   3.337  11.425
 3917W        W 7661   6.360   7.713   1.249
 3918W        W 7662   5.637   0.269   0.406
 3919W        W 7663   3.270   4.986   4.035
 3920W        W 7664   8.207   6.685   2.212
 3921W        W 7665   1.066   3.513   1.480
 3922W        W 7666   4.825   9.497   3.182
 3923W        W 7667  10.475  10.467  10.214
 3924W        W 7668   9.285   4.060   2.468
 3925W        W 7669   8.341   1.884   2.386
 3926W        W 7670   3.674   4.002   1.374
 3927W        W 7671   1.095   7.098   9.650
 3928W        W 7672   9.667   4.741  10.491
 3929W        W 7673   2.763   1.222   0.775
 3930W        W 7674   2.262   8.309  11.568
 3931W        W 7675   8.038   8.478  11.756
 3932W        W 7676   1.793  10.038   1.633
 3933W        W 7677   6.539   9.349  10.354
 3934W        W 7678   9.636   3.788  10.615
 3935W        W 7679  10.498   0.828  11.235
 3936W        W 7680   1.228   1.380   2.337
 3937W        W 7681   9.424   2.653   1.490
 3938W        W 7682   4.905  10.247   2.962
 3939W        W 7683   4.131   2.695   9.079
 3940W        W 7684   9.446  10.044   2.729
 3941W        W 7685   5.620   6.640   8.921
 3942W        W 7686   8.070   2.883  10.723
 3943W        W 7687   1.773   2.793  11.800
 3944W        W 7688   3.628   0.911   2.621
 3945W        W 7689   8.488   8.918  10.277
 3946W        W 7690   0.280   4.217   9.245
 3947W        W 7691   1.562   1.463   8.883
 3948W        W 7692   4.948   2.236  11.881
 3949W        W 7693   8.595  10.458  10.883
 3950W        W 7694   2.141   1.073  10.062
 3951W        W 7695   0.966   7.000   2.119
 3952W        W 7696   8.057   0.664   1.729
 3953W        W 7697   7.295   6.194  10.343
 3954W        W 7698   9.307   0.872   3.613
 3955W        W 7699  10.455   5.100   9.723
 3956W        W 7700   8.815   5.088  10.503
 3957W        W 7701   8.980   4.556   8.831
 3958W        W 7702   4.900   3.679   8.446
 3959W        W 7703   4.972   5.682   0.295
 3960W        W 7704   2.434   0.348   2.803
 3961W        W 7705   9.749   9.010   3.513
 3962W        W 7706  10.461   8.606  10.104
 3963W        W 7707   6.324  10.344   2.757
 3964W        W 7708   4.258   5.344  10.580
 3965W        W 7709   7.075   3.367  11.229
 3966W        W 7710   1.449   1.668   0.201
 3967W        W 7711   7.413   5.150   9.342
 3968W        W 7712   3.258   0.479   1.292
 3969W        W 7713   1.221   3.660   1.016
 3970W        W 7714   7.060   6.107   9.090
 3971W        W 7715   5.977   2.118   9.119
 3972W        W 7716   9.854   1.834   9.369
 3973W        W 7717   0.910   1.694   2.607
 3974W        W 7718   3.320   9.573  11.804
 3975W        W 7719   6.579   0.506   0.871
 3976W        W 7720   3.351   3.943   3.137
 3977W        W 7721   3.394   5.422   3.227
 3978W        W 7722   7.225   4.116  11.817
 3979W        W 7723   1.221   6.116  11.873
 3980W        W 7724   0.844   9.654   9.478
 3981W        W 7725   7.166   7.442   2.425
 3982W        W 7726   9.385   3.633   1.146
 3983W        W 7727   3.928   9.720   0.704
 3984W        W 7728   5.449   1.619   2.976
 3985W        W 7729   3.289   4.900   0.507
 3986W        W 7730   5.077   4.075  10.750
 3987W        W 7731   8.046   5.380   1.249
 3988W        W 7732   4.510   4.139   9.406
 3989W        W 7733   5.342   9.771  11.554
 3990W        W 7734   7.479   9.613  10.034
 3991W        W 7735   6.876   9.392  10.728
 3992W        W 7736   0.187   6.183   0.825
 3993W        W 7737   2.639   5.650   9.928
 3994W        W 7738   3.170   4.212   1.250
 3995W        W 7739  10.182   6.889   9.366
 3996W        W 7740   9.621   7.428   0.835
 3997W        W 7741   7.068   5.234   0.278
 3998W        W 7742   5.925   0.810   9.948
 3999W        W 7743   8.064   8.370   2.611
 4000W        W 7744   6.597   6.689   2.256
 4001W        W 7745   6.983   4.907   9.908
 4002W        W 7746   3.858   3.075   9.247
 4003W        W 7747   1.732   2.232  11.342
 4004W        W 7748   6.810  10.306   2.541
 4005W        W 7749   1.382  10.389  10.288
 4006W        W 7750   5.959   4.741  10.338
 4007W        W 7751   4.957   7.880   8.275
 4008W        W 7752   8.437   3.625   8.442
 4009W        W 7753  10.285   0.750   8.712
 4010W        W 7754   9.016   2.511   1.837
 4011W        W 7755   2.900   4.613   4.111
 4012W        W 7756   4.666   6.466   2.320
 4013W        W 7757   5.041   7.171   1.343
 4014W        W 7758   0.695   6.186   0.920
 4015W        W 7759   9.533   0.074   0.281
 4016W        W 7760   2.907   3.717  10.531
 4017W        W 7761   3.227   8.320  11.515
 4018W        W 7762   7.868   2.424  10.506
 4019W        W 7763   0.851   1.370   0.929
 4020W        W 7764   9.455   1.865   0.911
 4021W        W 7765   7.176   2.627   2.549
 4022W        W 7766   1.469   8.429   1.044
 4023W        W 7767   3.047   2.533   0.598
 4024W        W 7768   7.568   6.073   2.724
 4025W        W 7769   5.661   1.181   1.320
 4026W        W 7770   7.017   9.652   0.828
 4027W        W 7771   9.510   7.188  10.084
 4028W        W 7772   5.980   6.717   4.256
 4029W        W 7773   4.605   3.227  10.817
 4030W        W 7774  10.035   0.965   1.401
 4031W        W 7775   0.419   8.920   1.539
 4032W        W 7776   2.693   7.904   1.213
 4033W        W 7777  10.332   8.557   0.750
 4034W        W 7778   9.963   5.450   1.766
 4035W        W 7779   6.668   5.286  11.973
 4036W        W 7780   5.067   7.891  10.286
 4037W        W 7781   9.935   4.967  10.895
 4038W        W 7782   9.846   1.448  10.176
 4039W        W 7783   4.242   4.439   9.082
 4040W        W 7784   5.599   9.496  10.710
 4041W        W 7785   4.501   6.008   0.703
 4042W        W 7786   7.627   5.574   3.971
 4043W        W 7787   2.172   0.354   9.998
 4044W        W 7788   6.462   9.970   2.384
 4045W        W 7789   5.222   9.447   0.652
 4046W        W 7790   9.675   9.809  11.224
 4047W        W 7791   7.943   0.300  10.565
 4048W        W 7792   0.808   7.911  11.497
 4049W        W 7793  10.311  10.339   1.964
 4050W        W 7794   5.695   3.586  10.927
 4051W        W 7795   2.301   5.059  11.630
 4052W        W 7796  10.069   5.707   2.193
 4053W        W 7797   4.698   2.761   9.808
 4054W        W 7798   6.085   7.194   3.505
 4055W        W 7799   7.558   6.646  10.451
 4056W        W 7800   1.616   8.601  11.530
 4057W        W 7801   5.994   7.124   1.881
 4058W        W 7802   8.737   1.541   3.490
 4059W        W 7803   4.498   7.932   8.517
 4060W        W 7804   8.332   6.174   9.143
 4061W        W 7805   3.395   4.636   8.645
 4062W        W 7806   8.378   9.255   0.054
 4063W        W 7807   1.356   6.390   2.677
 4064W        W 7808  10.186   4.169   2.863
 4065W        W 7809   7.461   5.831   0.811
 4066W        W 7810  10.485   1.732   2.555
 4067W        W 7811   2.923   2.046   9.480
 4068W        W 7812   0.082   1.588   1.802
 4069W        W 7813   4.063   6.920  10.299
 4070W        W 7814   6.750   4.589   3.271
 4071W        W 7815   7.173   2.645   1.377
 4072W        W 7816   4.864   2.840   2.294
 4073W        W 7817   4.909   9.515   2.667
 4074W        W 7818   5.143   4.688  11.485
 4075W        W 7819   8.995   0.461   1.447
 4076W        W 7820   4.010   7.529   3.061
 4077W        W 7821   1.817   3.245   2.021
 4078W        W 7822   1.666   9.513   2.966
 4079W        W 7823   7.128   7.881  11.478
 4080W        W 7824   1.278   4.262   0.439
 4081W        W 7825   9.381   8.618   9.019
 4082W        W 7826   0.819   3.844  11.779
 4083W        W 7827   0.725   7.101   0.742
 4084W        W 7828   3.325   8.931   3.313
 4085W        W 7829   9.706  10.347   3.518
 4086W        W 7830   1.196   2.877   0.530
 4087W        W 7831   6.946   9.969  11.373
 4088W        W 7832   2.285   3.838   2.658
 4089W        W 7833   4.933   4.225   0.928
 4090W        W 7834   4.652   4.954   9.898
 4091W        W 7835   2.845   1.143   3.234
 4092W        W 7836   8.974   8.398   2.558
 4093W        W 7837   3.299   2.384  10.126
 4094W        W 7838   1.802   6.255  11.317
 4095W        W 7839   4.623   7.628  10.271
 4096W        W 7840   6.491   3.038  10.509
 4097W        W 7841   7.340   1.036   9.412
 4098W        W 7842   7.050   7.463   9.420
 4099W        W 7843   4.083  10.102   0.360
 4100W        W 7844   8.391   1.981  10.956
 4101W        W 7845   5.678   1.137   0.753
 4102W        W 7846   8.189   6.627   1.625
 4103W        W 7847   9.406   3.116  11.255
 4104W        W 7848   0.282   7.819   0.256
 4105W        W 7849   0.300   1.742   8.890
 4106W        W 7850   4.467   1.029  10.993
 4107W        W 7851   7.478   2.776   1.793
 4108W        W 7852   8.337   0.924   9.219
 4109W        W 7853   4.687   3.019   0.113
 4110W        W 7854   5.868   2.393   0.037
 4111W        W 7855   7.379   5.020  11.368
 4112W        W 7856   7.441   3.276   1.903
 4113W        W 7857   1.233   7.456   2.194
 4114W        W 7858   4.181   0.772  10.396
 4115W        W 7859   6.747   1.463  11.945
 4116W        W 7860   2.603   3.872  11.411
 4117W        W 7861   6.956   0.977   0.269
 4118W        W 7862   1.437   8.673  10.474
 4119W        W 7863   8.322   9.812  10.203
 4120W        W 7864   8.047   6.017   0.006
 4121W        W 7865   1.904   8.532  11.102
 4122W        W 7866   9.786   9.863   9.828
 4123W        W 7867   3.790   1.808   9.018
 4124W        W 7868   4.445   8.101   0.090
 4125W        W 7869   5.202   9.430   1.158
 4126W        W 7870   1.292  10.341   9.797
 4127W        W 7871   6.508   3.633   3.201
 4128W        W 7872   2.800   8.555  10.620
 4129W        W 7873   5.539   6.408  11.113
 4130W        W 7874   7.030   8.656   1.101
 4131W        W 7875   5.133   8.960   0.866
 4132W        W 7876  10.164  10.298   1.439
 4133W        W 7877   1.461   9.091   2.700
 4134W        W 7878   4.639   5.453   1.849
 4135W        W 7879   1.303   8.412   8.762
 4136W        W 7880   4.491  10.456  11.413
 4137W        W 7881  10.399   3.635   2.153
 4138W        W 7882   8.079   7.513   9.610
 4139W        W 7883   4.057   6.822  11.528
 4140W        W 7884   7.511   7.704   3.325
 4141W        W 7885  10.065   6.839   2.424
 4142W        W 7886   2.822   4.533  10.480
 4143W        W 7887   6.110   0.201  11.760
 4144W        W 7888   0.457   0.415   2.418
 4145W        W 7889   2.767   5.509   0.747
 4146W        W 7890   4.594  10.326  10.546
 4147W        W 7891   6.147   0.318   8.835
 4148W        W 7892   5.620  10.385   1.446
 4149W        W 7893   6.917   3.809  10.039
 4150W        W 7894   2.757   8.837   2.690
 4151W        W 7895   7.576   5.256   1.388
 4152W        W 7896   2.308   5.657   0.499
 4153W        W 7897   9.401   7.590  11.052
 4154W        W 7898   7.436   9.069   2.422
 4155W        W 7899   8.670   2.405  11.879
 4156W        W 7900   8.805   6.143   9.920
 4157W        W 7901   9.004  10.031   1.774
 4158W        W 7902   3.727   8.097  10.458
 4159W        W 7903   3.292   2.174   0.900
 4160W        W 7904   0.045   2.894   0.825
 4161W        W 7905   0.743   2.940   1.503
 4162W        W 7906   4.144   8.837   9.421
 4163W        W 7907   3.592   8.029   8.999
 4164W        W 7908   1.587   2.275   2.282
 4165W        W 7909   0.271   5.989   3.198
 4166W        W 7910   4.795  10.395  10.993
 4167W        W 7911   0.254   6.043   2.676
 4168W        W 7912   0.820   5.576   9.750
 4169W        W 7913   5.053   6.518   2.650
 4170W        W 7914   1.901   9.908   9.356
 4171W        W 7915   7.997   8.828   9.560
 4172W        W 7916   5.139   1.297  10.027
 4173W        W 7917   4.790   2.034   0.998
 4174W        W 7918   6.630   4.250   2.312
 4175W        W 7919   2.752   0.684   1.476
 4176W        W 7920   3.181   8.659   2.867
 4177W        W 7921   6.135   0.469  11.291
 4178W        W 7922   7.759   0.420  11.013
 4179W        W 7923   2.536   6.974   0.864
 4180W        W 7924  10.016   5.498   8.931
 4181W        W 7925   8.103   3.042  11.728
 4182W        W 7926   5.530   0.802   2.415
 4183W        W 7927   5.551   7.303   0.680
 4184W        W 7928   2.266   8.635   2.818
 4185W        W 7929   3.270   3.701   1.208
 4186W        W 7930   7.248   3.890   8.950
 4187W        W 7931   2.721   8.538   9.690
 4188W        W 7932   6.076   3.839  10.698
 4189W        W 7933   7.654   4.205   3.514
 4190W        W 7934   2.388   4.803   3.157
 4191W        W 7935   0.362   1.245  11.271
 4192W        W 7936   8.002   7.369  11.042
 4193W        W 7937   6.474   5.857  10.390
 4194W        W 7938   0.270   9.518  10.032
 4195W        W 7939   5.048   6.647  11.246
 4196W        W 7940   2.173   5.980   2.807
 4197W        W 7941   9.240   9.038   0.930
 4198W        W 7942   0.068   3.758   9.443
 4199W        W 7943   2.194   3.322   2.366
 4200W        W 7944   7.102   1.187   3.388
 4201W        W 7945   3.250   7.721   2.666
 4202W        W 7946   9.430   5.058   2.337
 4203W        W 7947   8.706   1.764  10.596
 4204W        W 7948   3.162   5.586  11.015
 4205W        W 7949   1.747   0.297   2.597
 4206W        W 7950   9.945   2.745   2.275
 4207W        W 7951   6.743   4.830   1.302
 4208W        W 7952   3.042   8.801  11.463
 4209W        W 7953   8.795   8.897  11.471
 4210W        W 7954   2.140   8.982  10.929
 4211W        W 7955   5.872   7.665   0.546
 4212W        W 7956   8.492   8.107   3.097
 4213W        W 7957   3.630   5.649   0.312
 4214W        W 7958   4.976   6.881   0.886
 4215W        W 7959   2.297   9.378   1.647
 4216W        W 7960   2.583   2.380  11.418
 4217W        W 7961   2.870   5.099   9.853
 4218W        W 7962   8.005   2.350   9.534
 4219W        W 7963   6.724   2.326   9.760
 4220W        W 7964   0.976   8.443   3.227
 4221W        W 7965   8.910   4.625   9.828
 4222W        W 7966   1.897   6.530   0.558
 4223W        W 7967   3.455   8.217   1.796
 4224W        W 7968   4.296  10.297   1.862
 4225W        W 7969   3.356   5.740  10.573
 4226W        W 7970   6.040   1.680  10.280
 4227W        W 7971   1.383   3.714   1.847
 4228W        W 7972   3.427   9.585   0.673
 4229W        W 7973   7.129   6.558   3.298
 4230W        W 7974   5.395   2.071   1.679
 4231W        W 7975   2.116   4.676   0.530
 4232W        W 7976   4.919   1.487   3.406
 4233W        W 7977   9.247   8.501  10.416
 4234W        W 7978   8.551   8.052   1.527
 4235W        W 7979   3.775   3.209   1.896
 4236W        W 7980   0.270   6.441   9.426
 4237W        W 7981   6.016   1.734  10.768
 4238W        W 7982   3.707   4.871   3.149
 4239W        W 7983   2.090   1.326   0.195
 4240W        W 7984   2.744   2.369  10.780
 4241W        W 7985   7.895   1.347   0.460
 4242W        W 7986   6.978   4.186   0.269
 4243W        W 7987   5.628   0.482  11.905
 4244W        W 7988   2.307   6.717   1.285
 4245W        W 7989   9.806   9.286   0.335
 4246W        W 7990   4.078   8.991  10.770
 4247W        W 7991   7.176   1.837   2.957
 4248W        W 7992   6.967   8.415   9.299
 4249W        W 7993   8.862   4.075  11.393
 4250W        W 7994   2.247   4.456  10.328
 4251W        W 7995  10.035   5.535   0.889
 4252W        W 7996   6.934   7.139   1.476
 4253W        W 7997   3.097   5.014   9.365
 4254W        W 7998   8.053   8.855   2.825
 4255W        W 7999   9.176   0.506   2.372
 4256W        W 8000   5.660   0.390   9.217
 4257W        W 8001   2.702   3.601   9.123
 4258W        W 8002   8.950   1.479  10.224
 4259W        W 8003   0.727   9.361   2.762
 4260W        W 8004   7.829   5.026   3.267
 4261W        W 8005   0.793   1.903   1.289
 4262W        W 8006   6.604   8.629   3.126
 4263W        W 8007   7.451   3.451   2.410
 4264W        W 8008  10.490   5.566   0.222
 4265W        W 8009   4.711   5.490   1.346
 4266W        W 8010   3.165   5.096   0.001
 4267W        W 8011   3.312   0.483   9.571
 4268W        W 8012   7.621   4.763  10.313
 4269W        W 8013   4.348   4.914  11.292
 4270W        W 8014   1.636   8.833  10.023
 4271W        W 8015   6.010   6.608  10.313
 4272W        W 8016   4.304   1.755  10.643
 4273W        W 8017   8.492   6.666  10.957
 4274W        W 8018   0.291   8.638   0.002
 4275W        W 8019   7.385  10.488   0.982
 4276W        W 8020   6.583   9.899   9.250
 4277W        W 8021   7.224   0.916   9.997
 4278W        W 8022   6.238   2.856   2.358
 4279W        W 8023   3.724   8.228   0.265
 4280W        W 8024   8.426   3.231   9.205
 4281W        W 8025  10.479   0.329   2.584
 4282W        W 8026   4.013   4.282   9.540
 4283W        W 8027   4.151   3.550   1.727
 4284W        W 8028   6.762   3.727   9.023
 4285W        W 8029   9.596   7.605  11.890
 4286W        W 8030   3.823   2.828   2.260
 4287W        W 8031   0.499   9.303   1.211
 4288W        W 8032   6.223   3.205   3.283
 4289W        W 8033   9.865   4.260  10.514
 4290W        W 8034   7.718   2.737  11.890
 4291W        W 8035   3.660   6.881   2.279
 4292W        W 8036   1.266   8.762   1.806
 4293W        W 8037   4.173   3.970   1.464
 4294W        W 8038   4.107   9.905   2.868
 4295W        W 8039   2.627   5.947  10.830
 4296W        W 8040   8.426   0.504   2.726
 4297W        W 8041   5.725   0.338   1.682
 4298W        W 8042   1.003   7.492  10.775
 4299W        W 8043   6.700   0.447   3.061
 4300W        W 8044   6.132   8.154   3.658
 4301W        W 8045   2.853   8.784   0.807
 4302W        W 8046   2.188   7.575   3.638
 4303W        W 8047   5.972   7.206   0.345
 4304W        W 8048   6.681   9.727   3.380
 4305W        W 8049   4.278   9.926  10.488
 4306W        W 8050   9.400   7.788   9.050
 4307W        W 8051   4.214   3.084  11.751
 4308W        W 8052   6.465   4.063   1.846
 4309W        W 8053   6.257   7.910  11.592
 4310W        W 8054   3.224   0.213   3.175
 4311W        W 8055   4.225   8.113  11.302
 4312W        W 8056   1.342   5.795  10.471
 4313W        W 8057   5.843   1.905   1.455
 4314W        W 8058   2.132   5.144  10.766
 4315W        W 8059   7.955   2.290   0.439
 4316W        W 8060   5.696   9.337   3.642
 4317W        W 8061   8.494   2.747   1.673
 4318W        W 8062   4.122  10.420  11.947
 4319W        W 8063   8.767   6.595  11.798
 4320W        W 8064   6.937   0.442   0.278
 4321W        W 8065   0.393   1.443   2.772
 4322W        W 8066   0.230   6.004   9.022
 4323W        W 8067   2.783   0.333   1.066
 4324W        W 8068   3.890   3.907   0.483
 4325W        W 8069   2.971   7.909  11.714
 4326W        W 8070   3.970   8.300  10.033
 4327W        W 8071   2.717   6.895  10.739
 4328W        W 8072   4.097   0.080   9.951
 4329W        W 8073   3.758   9.559   8.999
 4330W        W 8074   2.781   8.054   0.193
 4331W        W 8075   4.671   2.039   9.511
 4332W        W 8076   5.995   5.005   0.938
 4333W        W 8077   2.657   6.614  11.418
 4334W        W 8078   6.613   0.258   2.607
 4335W        W 8079   2.654   2.263   9.074
 4336W        W 8080   0.397   1.728   2.207
 4337W        W 8081   9.814   7.966   0.203
 4338W        W 8082   2.625   8.022  11.368
 4339W        W 8083   9.908   7.945   3.231
 4340W        W 8084   4.453   2.387  11.040
 4341W        W 8085  10.436   8.954   1.754
 4342W        W 8086   2.759   5.913   3.919
 4343W        W 8087   8.857   8.759   0.757
 4344W        W 8088   4.074   7.996   2.878
 4345W        W 8089   5.684   6.231   1.906
 4346W        W 8090  10.476   6.556  10.154
 4347W        W 8091   9.880   3.662   2.179
 4348W        W 8092   3.862   5.086   9.778
 4349W        W 8093   0.812   4.158   9.086
 4350W        W 8094   3.309   8.930   1.921
 4351W        W 8095   8.542   6.658   9.072
 4352W        W 8096   9.414   9.382  11.012
 4353W        W 8097   6.024  10.017   0.342
 4354W        W 8098   3.171  10.455  11.896
 4355W        W 8099   9.774   7.426   8.970
 4356W        W 8100   6.053   9.340   9.174
 4357W        W 8101   1.953   1.782   0.032
 4358W        W 8102   2.544   8.539   1.860
 4359W        W 8103   7.597   5.675  10.346
 4360W        W 8104   5.156   5.240  10.069
 4361W        W 8105  10.318   0.932   0.946
 4362W        W 8106   8.104   3.156   0.716
 4363W        W 8107   9.118   8.603   0.306
 4364W        W 8108   3.608   4.222   2.744
 4365W        W 8109   0.503   1.334   1.376
 4366W        W 8110   0.988   6.186  10.359
 4367W        W 8111   9.345   4.938  11.405
 4368W        W 8112   0.890   9.599   1.817
 4369W        W 8113   0.453   9.819   3.127
 4370W        W 8114   2.787   4.730  11.762
 4371W        W 8115   5.249   7.674   0.497
 4372W        W 8116   9.346   9.539   1.020
 4373W        W 8117   2.790   3.648   9.615
 4374W        W 8118   1.753   2.932   1.236
 4375W        W 8119   1.381   2.692   0.989
 4376W        W 8120   4.657   0.083   9.041
 4377W        W 8121   9.834   3.545   0.224
 4378W        W 8122   2.790   7.200   1.867
 4379W        W 8123   1.160   2.836  11.219
 4380W        W 8124   1.840   9.549   1.478
 4381W        W 8125   7.621   2.297   1.377
 4382W        W 8126   4.944   2.229  10.971
 4383W        W 8127  10.259   8.072   0.931
 4384W        W 8128   8.393   7.088   3.619
 4385W        W 8129   5.926   3.941   0.268
 4386W        W 8130   7.492   8.455   0.963
 4387W        W 8131   3.721   4.515   3.578
 4388W        W 8132   9.018   5.501  10.779
 4389W        W 8133   0.546   5.760  11.534
 4390W        W 8134   6.091   2.866   0.170
 4391W        W 8135   1.630   4.138  10.269
 4392W        W 8136   4.339   2.210   1.886
 4393W        W 8137   3.398  10.072   9.542
 4394W        W 8138   3.831   2.636   1.408
 4395W        W 8139   9.673   0.179  11.766
 4396W        W 8140   9.951   8.781   3.063
 4397W        W 8141   5.498   7.240   1.955
 4398W        W 8142   2.114   3.960  10.229
 4399W        W 8143   7.984   5.613   0.337
 4400W        W 8144   2.341   7.869  10.583
 4401W        W 8145   2.286   5.543  10.465
 4402W        W 8146   8.596   5.776   2.217
 4403W        W 8147   4.934   0.723   2.941
 4404W        W 8148   0.450   2.194   3.117
 4405W        W 8149   8.178   4.739   0.671
 4406W        W 8150   3.667   1.446   1.991
 4407W        W 8151   0.925   0.056   3.534
 4408W        W 8152   8.103   8.520   2.125
 4409W        W 8153   2.850   4.515   2.419
 4410W        W 8154   0.759   3.111   0.281
 4411W        W 8155   2.802   3.786   2.842
 4412W        W 8156   9.500   9.007   2.295
 4413W        W 8157   8.693   6.739   2.366
 4414W        W 8158   6.438   4.129   9.161
 4415W        W 8159   7.247   9.232   8.733
 4416W        W 8160   9.893   5.065   9.633
 4417W        W 8161   3.201  10.494   2.683
 4418W        W 8162   6.877   5.510   2.558
 4419W        W 8163   3.632   1.340   2.966
 4420W        W 8164   3.821   9.043   9.029
 4421W        W 8165   6.977   3.158   1.720
 4422W        W 8166   0.796   8.940   9.894
 4423W        W 8167   3.411   3.136  11.539
 4424W        W 8168   4.040   7.530   1.779
 4425W        W 8169   0.325   6.613   1.808
 4426W        W 8170   9.392   4.407  11.360
 4427W        W 8171   3.202   5.419   0.466
 4428W        W 8172   6.218   3.937   3.526
 4429W        W 8173   4.719   7.077   0.137
 4430W        W 8174   4.705   3.505  11.963
 4431W        W 8175   5.628   1.759   9.012
 4432W        W 8176   8.833   4.779   3.404
 4433W        W 8177   1.398   5.222   9.814
 4434W        W 8178   8.399   3.268   9.722
 4435W        W 8179   7.948   9.117  11.066
 4436W        W 8180   0.852   1.217   2.804
 4437W        W 8181   3.311   8.832   9.273
 4438W        W 8182   7.565   2.021   0.671
 4439W        W 8183   7.407   8.288   8.602
 4440W        W 8184   7.445   7.884   0.432
 4441W        W 8185   8.504   6.464  10.440
 4442W        W 8186   0.684   6.845   9.420
 4443W        W 8187   5.645   5.073   9.332
 4444W        W 8188   5.846   1.252   3.171
 4445W        W 8189   5.074   0.823   8.726
 4446W        W 8190   5.610   0.013   3.482
 4447W        W 8191   5.939   7.341   0.995
 4448W        W 8192   1.239  10.004   1.840
 4449W        W 8193   6.907   5.165   2.945
 4450W        W 8194   7.947   9.728   9.820
 4451W        W 8195   6.390   6.959   0.508
 4452W        W 8196   9.513   9.975   8.946
 4453W        W 8197   9.801   4.686  11.429
 4454W        W 8198   5.859   2.686   3.333
 4455W        W 8199   4.646  10.087   8.878
 4456W        W 8200   4.407   3.647   8.626
 4457W        W 8201   8.976   6.621   3.142
 4458W        W 8202   4.672   6.891   2.651
 4459W        W 8203   2.670   7.503   3.390
 4460W        W 8204   5.645   0.789   0.339
 4461W        W 8205   3.335   5.964   4.064
 4462W        W 8206   9.698   5.697   1.386
 4463W        W 8207   1.779   4.620  10.210
 4464W        W 8208   9.181   9.812  11.168
 4465W        W 8209   7.935   8.968   2.322
 4466W        W 8210   7.008   2.171   9.340
 4467W        W 8211   4.796   1.775   0.510
 4468W        W 8212   4.794   7.338   2.948
 4469W        W 8213   1.377   1.275   9.372
 4470W        W 8214   9.870   0.032   1.772
 4471W        W 8215  10.286   5.077   8.757
 4472W        W 8216   7.616   6.602   9.548
 4473W        W 8217   2.197   2.233   0.124
 4474W        W 8218   8.476   2.901   0.331
 4475W        W 8219   8.305   6.532   0.579
 4476W        W 8220   5.623   5.645   2.741
 4477W        W 8221   5.172   4.363  10.346
 4478W        W 8222   6.451   2.165   8.916
 4479W        W 8223   3.273   9.109   0.774
 4480W        W 8224   4.331   3.395  10.395
 4481W        W 8225   4.884   1.536   1.197
 4482W        W 8226   7.533   1.830  11.802
 4483W        W 8227   8.112   4.032   3.617
 4484W        W 8228   3.641   2.718   9.529
 4485W        W 8229   2.779   4.327  11.458
 4486W        W 8230   9.397   1.828   9.091
 4487W        W 8231   3.410   4.445   4.008
 4488W        W 8232   9.275   3.283  10.367
 4489W        W 8233   7.776   3.243  10.975
 4490W        W 8234   1.371   5.578   1.957
 4491W        W 8235   1.879   8.178   2.307
 4492W        W 8236   7.914   3.721  10.776
 4493W        W 8237   5.287   4.658   2.687
 4494W        W 8238   1.853   7.103   0.047
 4495W        W 8239   6.914   1.296   1.260
 4496W        W 8240   5.440   7.423  11.683
 4497W        W 8241   1.744   4.618   9.185
 4498W        W 8242   8.642   4.193  10.023
 4499W        W 8243   5.151   8.012  11.357
 4500W        W 8244  10.223   6.675   2.904
 4501W        W 8245   4.713  10.222   1.212
 4502W        W 8246  10.246   7.262   2.168
 4503W        W 8247   4.615   3.254   0.568
 4504W        W 8248   1.895   4.743   2.842
 4505W        W 8249   0.209   7.471   3.281
 4506W        W 8250   3.943   9.919  11.897
 4507W        W 8251   8.102   8.257   1.679
 4508W        W 8252   9.368   7.132   8.744
 4509W        W 8253   3.146   0.911   9.356
 4510W        W 8254   1.982   3.276   0.545
 4511W        W 8255   5.917   2.115   9.632
 4512W        W 8256   5.249   7.536   8.532
 4513W        W 8257   6.769   8.884  11.455
 4514W        W 8258   9.058   3.279   3.542
 4515W        W 8259  10.098   2.207   1.151
 4516W        W 8260   1.289   7.102   0.882
 4517W        W 8261   8.621   2.176   8.783
 4518W        W 8262   7.305   2.243   1.765
 4519W        W 8263   8.559   0.218   1.271
 4520W        W 8264  10.370   0.870   9.192
 4521W        W 8265   0.839   2.984   3.602
 4522W        W 8266   9.906   6.638   3.344
 4523W        W 8267   3.819   5.674   2.694
 4524W        W 8268   8.493  10.218   1.837
 4525W        W 8269   8.617   4.164  10.939
 4526W        W 8270   4.160   9.867   8.873
 4527W        W 8271   1.109   2.346   2.189
 4528W        W 8272   6.904   7.599   8.936
 4529W        W 8273   1.452   3.116   9.585
 4530W        W 8274   2.806  10.416  11.074
 4531W        W 8275   8.243   5.970  10.432
 4532W        W 8276   6.635   1.552   1.726
 4533W        W 8277   3.809   8.616  10.437
 4534W        W 8278   4.366   0.014   0.819
 4535W        W 8279   2.471   7.661  11.025
 4536W        W 8280   3.223   3.004   2.871
 4537W        W 8281   1.777   0.208   2.095
 4538W        W 8282   8.515   6.104   8.546
 4539W        W 8283   7.508   2.158   0.193
 4540W        W 8284   6.943   7.444  11.710
 4541W        W 8285   3.293   6.490   9.979
 4542W        W 8286   6.048   3.791  11.746
 4543W        W 8287   2.104   4.797  11.149
 4544W        W 8288   2.423   5.091   1.914
 4545W        W 8289   3.252   7.894  10.358
 4546W        W 8290   0.738   7.911   0.527
 4547W        W 8291  10.254   6.979  10.332
 4548W        W 8292   2.022   5.032   9.471
 4549W        W 8293   4.649   5.062   1.097
 4550W        W 8294   2.319   0.707  11.514
 4551W        W 8295   4.071   9.123   2.560
 4552W        W 8296   7.135   9.317   9.760
 4553W        W 8297   9.849   6.126   3.350
 4554W        W 8298   9.707  10.444   9.072
 4555W        W 8299   7.440   7.425   8.954
 4556W        W 8300   5.713   4.166  11.855
 4557W        W 8301   6.578   7.601   3.183
 4558W        W 8302  10.093   5.620  11.312
 4559W        W 8303   8.940   8.856   2.770
 4560W        W 8304   2.386   3.668  10.564
 4561W        W 8305   5.662   0.329   2.251
 4562W        W 8306   0.240  10.442  11.714
 4563W        W 8307  10.376   1.721   3.548
 4564W        W 8308   0.289   0.122   0.708
 4565W        W 8309   3.288   3.817   1.698
 4566W        W 8310   7.119   9.023  10.466
 4567W        W 8311   7.364   7.137   1.140
 4568W        W 8312   4.592   6.211   2.752
 4569W        W 8313   8.676   6.969  11.392
 4570W        W 8314   5.976   8.611  11.041
 4571W        W 8315   1.277   3.172   1.154
 4572W        W 8316   8.210   9.406   2.250
 4573W        W 8317   6.484   4.068   0.339
 4574W        W 8318   3.141   9.811   1.881
 4575W        W 8319   2.616   7.674   9.058
 4576W        W 8320   0.721   4.340  11.721
 4577W        W 8321   4.225   9.088  11.590
 4578W        W 8322   7.967   7.539   9.066
 4579W        W 8323   3.309   1.256  11.968
 4580W        W 8324   8.109   6.693   8.768
 4581W        W 8325   3.554   1.434  11.546
 4582W        W 8326   3.926   9.616  10.282
 4583W        W 8327   1.673   2.762  11.293
 4584W        W 8328   5.398   9.576   2.508
 4585W        W 8329   9.222  10.326   9.259
 4586W        W 8330   7.281   8.497   0.288
 4587W        W 8331   8.033  10.098   0.842
 4588W        W 8332   9.529   2.821  10.388
 4589W        W 8333   5.113   0.357  10.125
 4590W        W 8334   7.271   8.588   2.248
 4591W        W 8335   7.143   5.043   2.503
 4592W        W 8336   3.133  10.449  10.455
 4593W        W 8337   2.444   3.301   9.786
 4594W        W 8338   2.464   5.539   2.714
 4595W        W 8339   7.865   5.497   3.535
 4596W        W 8340  10.440   6.577   3.391
 4597W        W 8341   7.769   8.769  11.400
 4598W        W 8342   7.874   3.161   2.609
 4599W        W 8343   2.313   0.226   0.355
 4600W        W 8344   0.803   3.966   0.692
 4601W        W 8345   3.865   4.086  10.018
 4602W        W 8346   1.358   6.508  11.542
 4603W        W 8347   6.698   2.314   1.222
 4604W        W 8348   1.240   1.548  11.698
 4605W        W 8349   2.186  10.003   3.486
 4606W        W 8350   9.500   7.062   0.477
 4607W        W 8351   1.353   2.321   1.747
 4608W        W 8352  10.432   9.292   0.411
 4609W        W 8353   0.159   1.767   3.105
 4610W        W 8354   4.656   3.601  11.470
 4611W        W 8355   5.086   1.753   9.768
 4612W        W 8356   7.699   3.594   1.598
 4613W        W 8357   1.160   0.583  11.905
 4614W        W 8358   5.434   7.965   9.103
 4615W        W 8359   9.495   2.302   8.890
 4616W        W 8360   2.252   6.700   3.351
 4617W        W 8361   2.737   7.059  11.651
 4618W        W 8362   6.122   6.572   2.393
 4619W        W 8363   4.446   4.367   0.191
 4620W        W 8364   6.930   0.696   2.661
 4621W        W 8365   5.231   3.028   1.628
 4622W        W 8366   1.314   2.339   2.712
 4623W        W 8367   0.160   5.183   0.552
 4624W        W 8368   7.038   2.685   9.513
 4625W        W 8369   3.586   6.389   3.116
 4626W        W 8370   0.072   7.965   9.436
 4627W        W 8371   1.451   8.855   1.346
 4628W        W 8372   1.668   4.057   0.171
 4629W        W 8373   6.678   7.482  10.773
 4630W        W 8374  10.036   2.660   8.898
 4631W        W 8375  10.029  10.038   8.789
 4632W        W 8376   8.973   9.632  10.317
 4633W        W 8377   3.696   3.172   0.984
 4634W        W 8378   0.858   4.089   9.965
 4635W        W 8379   2.314   4.304  11.241
 4636W        W 8380   1.881   6.397   1.115
 4637W        W 8381   9.072   5.032   1.964
 4638W        W 8382   0.756   1.384  11.583
 4639W        W 8383   3.299   9.264   9.022
 4640W        W 8384   5.410   7.587  11.198
 4641W        W 8385   6.972   2.362  11.191
 4642W        W 8386   5.399   8.551   2.420
 4643W        W 8387   9.348  10.293  11.334
 4644W        W 8388   3.779   1.375   2.470
 4645W        W 8389   5.348   3.626   8.159
 4646W        W 8390   6.652   9.504   2.446
 4647W        W 8391   2.870   3.218   2.110
 4648W        W 8392   5.740   8.811   3.586
 4649W        W 8393   8.547   6.082  11.317
 4650W        W 8394   1.023   1.347   0.426
 4651W        W 8395  10.437   9.735   0.170
 4652W        W 8396   0.210   1.115  10.263
 4653W        W 8397   3.971   6.626   1.959
 4654W        W 8398   3.418   5.197   1.921
 4655W        W 8399   2.779   7.225  10.335
 4656W        W 8400   6.261   1.781   1.129
 4657W        W 8401   6.680   9.124   3.322
 4658W        W 8402   4.101   9.166   0.177
 4659W        W 8403   2.336   1.239   9.575
 4660W        W 8404   4.290   0.334  11.704
 4661W        W 8405   7.453   4.956   4.055
 4662W        W 8406   7.813  10.258   9.072
 4663W        W 8407   0.678   6.802   0.307
 4664W        W 8408   8.057   6.126  11.510
 4665W        W 8409   6.234   7.002  11.968
 4666W        W 8410   7.179   1.407  10.287
 4667W        W 8411   0.810   2.606   0.346
 4668W        W 8412   0.937   4.804  10.453
 4669W        W 8413   9.403   8.972  10.660
 4670W        W 8414   6.059   2.874  11.239
 4671W        W 8415   3.218   1.892   2.666
 4672W        W 8416   6.444   5.463  11.299
 4673W        W 8417   3.900   3.160  10.276
 4674W        W 8418   2.857   8.276   0.898
 4675W        W 8419   4.542   3.180   8.436
 4676W        W 8420   4.575   4.082   8.389
 4677W        W 8421   7.977   6.058  11.003
 4678W        W 8422   8.225   7.448  11.903
 4679W        W 8423   8.155   1.175   9.638
 4680W        W 8424   9.353   6.288   2.483
 4681W        W 8425   7.414   3.587   9.358
 4682W        W 8426   1.218   8.908   9.069
 4683W        W 8427   0.716   4.347  11.218
 4684W        W 8428   8.360   8.951   2.007
 4685W        W 8429   7.854   0.903   0.238
 4686W        W 8430  10.460   7.081   2.652
 4687W        W 8431   4.012   1.658   0.813
 4688W        W 8432   4.390   3.938   3.998
 4689W        W 8433   8.702   9.947   0.529
 4690W        W 8434   9.432   3.286   8.951
 4691W        W 8435   0.200   1.436   0.291
 4692W        W 8436   8.401   4.796   1.172
 4693W        W 8437   3.226   9.349   1.637
 4694W        W 8438   2.552   9.096   8.535
 4695W        W 8439   5.144   6.979   2.845
 4696W        W 8440   9.560   1.044   9.471
 4697W        W 8441   4.094   8.719  11.943
 4698W        W 8442   7.618   3.042  11.450
 4699W        W 8443   6.349   6.910   1.006
 4700W        W 8444   5.265   8.043   1.772
 4701W        W 8445   0.059   6.871   2.196
 4702W        W 8446   9.690   5.938   0.928
 4703W        W 8447   3.680   4.331  11.508
 4704W        W 8448   9.867   3.875  11.830
 4705W        W 8449   4.627   2.671   8.309
 4706W        W 8450   7.717   5.413   9.938
 4707W        W 8451   7.622   7.891  11.572
 4708W        W 8452   8.377  10.223  11.335
 4709W        W 8453   0.928   2.080  10.995
 4710W        W 8454   7.565   6.060   1.742
 4711W        W 8455   4.888   8.188   1.349
 4712W        W 8456   4.048   1.599   3.152
 4713W        W 8457   1.639   0.319  11.721
 4714W        W 8458   4.208   5.757   1.839
 4715W        W 8459   7.487   1.767  10.982
 4716W        W 8460   7.727   6.330   9.992
 4717W        W 8461   7.089   3.323   8.406
 4718W        W 8462   3.709   6.024   9.923
 4719W        W 8463   1.366   2.913  10.322
 4720W        W 8464   2.389   8.362   0.056
 4721W        W 8465   8.136   7.635   0.808
 4722W        W 8466   3.597   6.390   2.241
 4723W        W 8467   2.672   6.484   3.137
 4724W        W 8468   5.281   0.418  11.384
 4725W        W 8469   0.384   8.415   2.395
 4726W        W 8470   3.745   2.338  10.852
 4727W        W 8471   5.093   8.460   1.983
 4728W        W 8472   5.238   0.398   2.546
 4729W        W 8473   4.200   5.619   9.772
 4730W        W 8474   3.769   5.436  10.648
 4731W        W 8475   0.389   2.964   2.727
 4732W        W 8476   9.285   4.366   2.896
 4733W        W 8477   2.216   6.186   3.269
 4734W        W 8478   8.990   4.572  11.589
 4735W        W 8479   7.042   5.198  11.041
 4736W        W 8480   7.986   5.504  11.826
 4737W        W 8481   2.636   9.965  11.408
 4738W        W 8482  10.207  10.315   3.559
 4739W        W 8483   9.002   9.886   9.048
 4740W        W 8484   4.681  10.069   2.213
 4741W        W 8485   5.552   9.381  11.239
 4742W        W 8486   3.157   8.666  10.955
 4743W        W 8487   9.565   6.579   0.649
 4744W        W 8488   2.647  10.453  10.563
 4745W        W 8489   2.120   2.575   1.110
 4746W        W 8490   6.940   1.396   2.839
 4747W        W 8491   8.406   9.390   1.756
 4748W        W 8492   4.772   4.490  10.003
 4749W        W 8493   9.386   7.936   1.481
 4750W        W 8494   3.582   7.957   9.950
 4751W        W 8495   5.959   4.178   1.706
 4752W        W 8496   9.868   2.990  11.570
 4753W        W 8497   6.883   3.224  10.782
 4754W        W 8498   8.911   9.954   8.547
 4755W        W 8499  10.405   6.078  10.324
 4756W        W 8500   2.273   0.319   0.900
 4757W        W 8501   0.703   6.009  11.948
 4758W        W 8502   6.013   5.206  11.134
 4759W        W 8503  10.297   3.645   9.873
 4760W        W 8504   5.753   8.946  11.461
 4761W        W 8505   9.899   6.422  10.004
 4762W        W 8506   4.889   1.181  11.756
 4763W        W 8507   9.913   4.391  11.891
 4764W        W 8508   8.782   7.276   9.402
 4765W        W 8509   4.717   0.330   0.553
 4766W        W 8510   7.419   5.318   3.082
 4767W        W 8511   3.925  10.086   9.583
 4768W        W 8512   8.747   0.922  10.963
 4769W        W 8513   1.388   5.546   1.409
 4770W        W 8514   6.648   1.504   0.842
 4771W        W 8515   0.968   7.684   1.379
 4772W        W 8516  10.285   7.514  11.430
 4773W        W 8517   3.635   9.895   2.646
 4774W        W 8518   5.914   2.425   0.889
 4775W        W 8519   2.191   4.050  11.668
 4776W        W 8520   3.122   8.126   1.397
 4777W        W 8521   1.312   2.779   2.440
 4778W        W 8522   7.056   8.433   2.933
 4779W        W 8523   2.220   3.045   0.965
 4780W        W 8524   7.884   9.937   0.301
 4781W        W 8525   7.006   8.598  10.181
 4782W        W 8526   6.137   8.846   0.779
 4783W        W 8527   9.427   3.790   8.763
 4784W        W 8528   3.220   3.625   2.164
 4785W        W 8529   8.514   9.748  11.924
 4786W        W 8530   5.645   8.545  10.428
 4787W        W 8531   9.093   9.308   2.489
 4788W        W 8532   2.554   0.952  11.924
 4789W        W 8533   1.176  10.219   3.216
 4790W        W 8534   5.623   5.977   2.344
 4791W        W 8535   1.477   8.153  10.540
 4792W        W 8536   9.497   4.558   1.479
 4793W        W 8537   5.945   8.440   2.335
 4794W        W 8538   5.868   8.896   0.339
 4795W        W 8539   4.294   1.886   0.455
 4796W        W 8540   6.068   9.835   9.122
 4797W        W 8541   8.835   1.240   0.846
 4798W        W 8542   4.655   4.990   2.126
 4799W        W 8543   6.703   1.143  10.554
 4800W        W 8544   3.383   3.180   9.085
 4801W        W 8545   8.159   9.347   8.756
 4802W        W 8546   3.756   2.314  10.326
 4803W        W 8547   7.410   7.060   2.158
 4804W        W 8548   8.963   3.737   3.330
 4805W        W 8549   5.062   9.468  11.239
 4806W        W 8550   7.377  10.242   8.252
 4807W        W 8551   0.765   3.825   1.184
 4808W        W 8552   5.446   6.850  10.135
 4809W        W 8553   2.947   7.709  11.109
 4810W        W 8554   9.859   0.326   9.515
 4811W        W 8555   6.797   3.705   0.131
 4812W        W 8556   5.019   7.392   1.842
 4813W        W 8557   9.387   6.064   3.570
 4814W        W 8558   7.519   9.809   2.545
 4815W        W 8559  10.136   8.447  11.402
 4816W        W 8560   5.502   2.181   9.327
 4817W        W 8561   3.353   5.518   2.412
 4818W        W 8562   1.469   4.648   3.167
 4819W        W 8563   7.747   5.673   9.501
 4820W        W 8564   0.709   8.308  10.354
 4821W        W 8565  10.283   1.146   0.405
 4822W        W 8566   4.739   9.620   0.128
 4823W        W 8567   8.972   6.513  10.226
 4824W        W 8568   0.228  10.181   0.951
 4825W        W 8569   6.380   2.714   9.001
 4826W        W 8570   4.969   6.628  11.766
 4827W        W 8571   2.603   7.676   9.586
 4828W        W 8572   5.574   0.792   9.538
 4829W        W 8573  10.001   7.388  10.990
 4830W        W 8574   6.807   4.253   8.802
 4831W        W 8575  10.353   9.558  11.677
 4832W        W 8576   3.122   8.120   3.122
 4833W        W 8577   8.498   9.770   8.817
 4834W        W 8578   3.228   5.496  11.519
 4835W        W 8579   0.556   7.677   2.692
 4836W        W 8580   9.369   5.337   2.766
 4837W        W 8581   3.372   9.429  10.432
 4838W        W 8582   7.812   2.024   8.443
 4839W        W 8583   5.471   6.706  11.539
 4840W        W 8584   6.906   6.975   9.499
 4841W        W 8585   0.388   1.589   0.927
 4842W        W 8586  10.217   0.694   1.807
 4843W        W 8587   1.906   8.631   1.303
 4844W        W 8588   3.068   5.191   3.602
 4845W        W 8589   3.817   1.871  10.582
 4846W        W 8590   0.869   9.437  10.867
 4847W        W 8591   0.146   0.441   9.996
 4848W        W 8592   4.285   1.700  11.984
 4849W        W 8593   5.445   7.765   9.967
 4850W        W 8594   0.409   8.749  10.462
 4851W        W 8595   7.119   5.961  11.560
 4852W        W 8596   0.341   9.484  10.848
 4853W        W 8597   3.608   0.831   3.132
 4854W        W 8598   0.123   8.343   1.345
 4855W        W 8599   4.165   5.544  11.052
 4856W        W 8600   9.861   1.786   3.493
 4857W        W 8601   7.613   2.757  10.873
 4858W        W 8602   5.575   3.131   0.705
 4859W        W 8603   3.277   2.988   0.733
 4860W        W 8604   3.606   4.885  11.758
 4861W        W 8605   2.346   9.523   3.274
 4862W        W 8606   5.706   3.427  10.302
 4863W        W 8607   0.813   9.726  11.844
 4864W        W 8608   8.532   2.869  11.008
 4865W        W 8609   4.827   2.549   0.249
 4866W        W 8610   9.951   3.824   3.141
 4867W        W 8611   5.388   1.292   3.400
 4868W        W 8612   4.187   4.999   2.993
 4869W        W 8613   3.628   8.120   2.584
 4870W        W 8614   0.853  10.448   9.019
 4871W        W 8615   7.469   0.950   2.028
 4872W        W 8616   9.416   8.753   3.229
 4873W        W 8617  10.163   9.880  11.319
 4874W        W 8618   0.492   3.928   9.649
 4875W        W 8619   1.352   1.386   2.852
 4876W        W 8620   0.987   7.521   0.915
 4877W        W 8621   5.621   3.832  11.450
 4878W        W 8622   7.066   8.324   0.715
 4879W        W 8623   3.842   0.371   0.002
 4880W        W 8624   6.023   0.211  10.390
 4881W        W 8625   6.312   5.136   1.330
 4882W        W 8626   7.895   2.370  11.034
 4883W        W 8627   8.901   0.962  10.323
 4884W        W 8628   3.606   5.243   0.740
 4885W        W 8629   3.744   7.909  10.954
 4886W        W 8630   4.951   9.351   2.190
 4887W        W 8631   1.098   4.091   9.518
 4888W        W 8632   4.225   9.270   2.086
 4889W        W 8633   6.513   6.518   0.267
 4890W        W 8634   7.025   3.031  10.334
 4891W        W 8635   3.117  10.279   0.368
 4892W        W 8636   4.927   4.224   0.375
 4893W        W 8637   5.186  10.446   9.235
 4894W        W 8638   0.834   2.447   1.279
 4895W        W 8639   0.513   3.463  11.430
 4896W        W 8640   2.452   9.055   3.039
 4897W        W 8641   0.644   2.195   2.267
 4898W        W 8642   5.412   0.308   1.255
 4899W        W 8643   0.159   2.245   9.849
 4900W        W 8644   0.102   3.069   3.415
 4901W        W 8645   6.283   4.748  10.740
 4902W        W 8646   4.370   5.373  11.640
 4903W        W 8647   2.405   0.261   1.418
 4904W        W 8648   3.798   2.168   0.875
 4905W        W 8649   2.883   8.535   0.341
 4906W        W 8650   6.568   3.238   2.329
 4907W        W 8651   2.343   7.904   1.597
 4908W        W 8652   9.693   7.478   3.250
 4909W        W 8653   8.125   5.491  10.254
 4910W        W 8654   2.420   2.161   3.310
 4911W        W 8655   1.882   1.171   2.984
 4912W        W 8656   4.416   0.303  10.319
 4913W        W 8657   9.400   6.236   1.970
 4914W        W 8658   4.803   1.753  11.988
 4915W        W 8659   9.169   9.924   0.730
 4916W        W 8660   6.424   7.233   1.381
 4917W        W 8661   3.789   5.652   0.945
 4918W        W 8662   8.376   5.675  11.035
 4919W        W 8663   6.616   8.792   9.389
 4920W        W 8664   0.496   3.092  11.849
 4921W        W 8665   3.746   6.470   0.928
 4922W        W 8666   0.903   5.808  11.164
 4923W        W 8667   9.451   3.062   3.296
 4924W        W 8668   7.612   4.523   1.805
 4925W        W 8669   9.578   0.630   9.816
 4926W        W 8670   0.302   8.997  10.013
 4927W        W 8671   7.576   8.494  10.953
 4928W        W 8672   1.850   5.453   9.178
 4929W        W 8673   1.786   3.647   2.337
 4930W        W 8674   5.208   0.187  11.837
 4931W        W 8675   1.893   5.584   2.691
 4932W        W 8676   7.650   6.984  11.418
 4933W        W 8677   8.390   1.934   3.344
 4934W        W 8678  10.351   5.149  11.117
 4935W        W 8679   2.350   7.341  10.629
 4936W        W 8680   8.973   1.921   1.702
 4937W        W 8681   5.997   3.304  11.911
 4938W        W 8682   7.158   2.124   1.259
 4939W        W 8683   4.559   2.223   9.015
 4940W        W 8684   6.122  10.374  11.337
 4941W        W 8685   2.638  10.203   2.123
 4942W        W 8686   3.352   7.865  11.345
 4943W        W 8687   4.340   6.265   1.969
 4944W        W 8688   1.492   7.910   3.622
 4945W        W 8689   9.847   0.877   9.059
 4946W        W 8690   4.589   8.859   0.834
 4947W        W 8691   2.779   8.386  11.736
 4948W        W 8692   7.957   0.221   1.973
 4949W        W 8693   3.193   5.722   3.616
 4950W        W 8694   0.256   6.705   2.893
 4951W        W 8695   7.311   2.610   9.089
 4952W        W 8696   5.480   3.893   3.954
 4953W        W 8697   1.914   0.385   1.288
 4954W        W 8698   4.280   6.372  11.477
 4955W        W 8699   9.074   2.682  11.753
 4956W        W 8700   0.499   4.662   9.091
 4957W        W 8701   0.040   7.502   0.609
 4958W        W 8702   7.723   1.610  11.398
 4959W        W 8703   3.519   4.872   9.074
 4960W        W 8704   8.865   1.350   3.001
 4961W        W 8705   1.878   3.374   8.871
 4962W        W 8706   2.669   0.770   9.422
 4963W        W 8707   7.128   9.820   3.120
 4964W        W 8708   4.191  10.348   1.309
 4965W        W 8709   8.365   0.486   2.198
 4966W        W 8710   2.369   7.241   2.185
 4967W        W 8711   9.249   6.514  11.630
 4968W        W 8712  10.425   8.870  11.373
 4969W        W 8713   4.097   0.805  11.855
 4970W        W 8714   2.267   3.807   2.144
 4971W        W 8715   3.117   5.708   8.758
 4972W        W 8716   0.477   5.944   9.492
 4973W        W 8717   0.826   6.626   3.365
 4974W        W 8718   5.642   2.373   1.330
 4975W        W 8719   2.093   0.264   9.079
 4976W        W 8720   8.988   9.948   0.054
 4977W        W 8721   0.934   6.608   9.816
 4978W        W 8722  10.471   6.590   1.056
 4979W        W 8723   9.455   4.634  11.844
 4980W        W 8724   5.937   6.062  11.043
 4981W        W 8725   6.610   5.031   1.732
 4982W        W 8726   8.498   7.916  11.460
 4983W        W 8727   5.695   0.204   2.784
 4984W        W 8728   6.186   1.671   3.266
 4985W        W 8729   0.587   3.084   3.182
 4986W        W 8730   6.587  10.231  10.607
 4987W        W 8731   5.548   3.833   9.946
 4988W        W 8732   9.885   8.219   2.363
 4989W        W 8733   5.977   6.401   2.862
 4990W        W 8734   5.223  10.356   1.064
 4991W        W 8735   5.575   1.759  11.026
 4992W        W 8736   5.270   8.893   8.864
 4993W        W 8737   8.290   0.507  10.927
 4994W        W 8738   5.091   8.847   9.873
 4995W        W 8739   8.849   1.868  11.147
 4996W        W 8740   3.221  10.077   2.343
 4997W        W 8741   9.571   0.999  10.474
 4998W        W 8742   1.692   7.196   1.409
 4999W        W 8743   5.737   7.575   8.365
 5000W        W 8744   4.704   4.103  11.394
 5001W        W 8745   1.231  10.238   1.375
 5002W        W 8746   3.484  10.447   0.729
 5003W        W 8747   6.567   9.093   2.746
 5004W        W 8748   5.917  10.354   3.088
 5005W        W 8749   4.856   8.309   8.531
 5006W        W 8750   2.654   1.565   1.779
 5007W        W 8751   1.879   2.607   0.249
 5008W        W 8752   1.717   8.912   0.890
 5009W        W 8753   2.236   8.480   9.873
 5010W        W 8754   7.564   6.025  11.311
 5011W        W 8755   8.900   3.740  10.063
 5012W        W 8756   0.878   6.545  10.712
 5013W        W 8757   5.191   8.511   3.315
 5014W        W 8758   4.568   3.272   2.273
 5015W        W 8759   7.628   6.487   8.553
 5016W        W 8760   0.279   4.254  10.944
 5017W        W 8761   0.433   3.416   9.584
 5018W        W 8762   5.508   8.527  11.322
 5019W        W 8763   5.303   1.150   2.033
 5020W        W 8764   6.464   6.829   3.618
 5021W        W 8765   4.236   3.853   3.226
 5022W        W 8766   5.240   1.877  11.731
 5023W        W 8767   1.787   8.193   2.823
 5024W        W 8768   6.459   7.853   9.047
 5025W        W 8769   8.860   5.250   2.804
 5026W        W 8770  10.304   8.835  10.525
 5027W        W 8771   0.555   9.812   0.759
 5028W        W 8772   1.206  10.424   2.698
 5029W        W 8773   7.941   2.496  11.516
 5030W        W 8774   5.125   7.734   2.193
 5031W        W 8775   2.753   6.391   9.436
 5032W        W 8776   2.875   0.363   2.490
 5033W        W 8777   7.418   2.170   2.585
 5034W        W 8778   5.128   9.388   9.007
 5035W        W 8779   1.349   4.854   8.876
 5036W        W 8780   9.439   3.848   2.050
 5037W        W 8781   1.353   7.608  10.339
 5038W        W 8782   9.460   8.542  10.888
 5039W        W 8783   5.111   3.021   9.914
 5040W        W 8784   9.802   5.016   9.002
 5041W        W 8785   0.690   4.389   9.525
 5042W        W 8786   7.830   0.888   9.362
 5043W        W 8787   8.922   7.998   0.719
 5044W        W 8788   9.882   1.344  11.687
 5045W        W 8789   0.008   7.824  10.372
 5046W        W 8790   3.120   1.488   2.972
 5047W        W 8791   8.617   8.705  11.024
 5048W        W 8792  10.429   7.659  11.920
 5049W        W 8793   4.263   7.253  11.958
 5050W        W 8794   5.352   2.394   0.137
 5051W        W 8795   0.271   2.551  11.295
 5052W        W 8796   6.217   8.362   0.898
 5053W        W 8797   6.973   6.871   1.942
 5054W        W 8798   4.791   1.313   0.252
 5055W        W 8799   3.247   8.202   0.044
 5056W        W 8800   0.470   4.661   3.080
 5057W        W 8801   4.772   0.255   1.064
 5058W        W 8802   2.158   0.675  11.029
 5059W        W 8803   9.799   3.134   0.554
 5060W        W 8804   0.549   8.884   2.554
 5061W        W 8805   6.136   2.418   0.438
 5062W        W 8806   2.631   9.106  11.510
 5063W        W 8807   5.703   6.350   0.429
 5064W        W 8808   0.192   7.925  10.863
 5065W        W 8809   0.948   9.932  10.898
 5066W        W 8810   6.185   9.418   2.671
 5067W        W 8811   6.989   6.998   2.987
 5068W        W 8812  10.306   6.258  11.746
 5069W        W 8813   3.259   7.360  11.285
 5070W        W 8814   1.715   1.277   2.505
 5071W        W 8815   0.369   2.670   2.241
 5072W        W 8816   7.433   0.437   0.772
 5073W        W 8817  10.049   7.387   2.626
 5074W        W 8818   8.902   3.823   1.229
 5075W        W 8819   6.945   9.578   8.969
 5076W        W 8820   1.208   0.420  10.915
 5077W        W 8821   6.729   4.181   3.595
 5078W        W 8822   9.839   6.677  10.452
 5079W        W 8823   9.792   3.200   2.502
 5080W        W 8824   1.888   9.460   0.835
 5081W        W 8825   9.991   2.728  10.603
 5082W        W 8826   0.899  10.471  10.091
 5083W        W 8827   6.171   0.125   3.458
 5084W        W 8828   9.363   8.065   0.477
 5085W        W 8829   1.796  10.240  10.040
 5086W        W 8830   3.100   4.963  10.410
 5087W        W 8831   2.571   9.435  10.240
 5088W        W 8832   3.642   4.114  10.500
 5089W        W 8833   2.397   8.594   0.948
 5090W        W 8834   6.106   3.916   2.181
 5091W        W 8835   3.189   8.139  10.943
 5092W        W 8836  10.168   9.308   3.431
 5093W        W 8837   3.708   1.364   8.740
 5094W        W 8838   5.995   5.496   2.408
 5095W        W 8839   5.992   3.249   1.426
 5096W        W 8840   4.113   6.085  11.088
 5097W        W 8841   4.733   8.951  11.517
 5098W        W 8842   2.150   4.439   9.452
 5099W        W 8843   7.465   3.774   8.486
 5100W        W 8844   4.741   7.403   2.387
 5101W        W 8845   8.391   5.523   2.637
 5102W        W 8846   5.035   8.855  11.919
 5103W        W 8847   7.085   3.186   9.406
 5104W        W 8848   0.413   7.942   3.238
 5105W        W 8849   4.355   2.775  11.374
 5106W        W 8850   9.881   3.184   1.486
 5107W        W 8851   3.790   3.602   3.392
 5108W        W 8852   2.978   9.801   0.777
 5109W        W 8853   2.513   4.883   9.524
 5110W        W 8854   2.703   1.249   2.232
 5111W        W 8855   6.191   1.368  11.063
 5112W        W 8856   2.602   3.239  10.336
 5113W        W 8857   4.356   7.498   8.946
 5114W        W 8858   6.558   7.364   3.649
 5115W        W 8859   1.350   6.057   2.185
 5116W        W 8860   9.210   5.963  10.250
 5117W        W 8861   5.102   9.459   1.666
 5118W        W 8862   3.838   1.190   3.454
 5119W        W 8863   3.658   9.634   9.497
 5120W        W 8864   9.685   0.489   2.356
 5121W        W 8865   5.175   2.315  11.405
 5122W        W 8866   1.960   1.710   1.006
 5123W        W 8867   7.157   9.545   2.258
 5124W        W 8868   9.264  10.393   8.738
 5125W        W 8869   5.100   5.613   1.659
 5126W        W 8870   1.455   7.117   9.282
 5127W        W 8871   8.888   0.892   0.325
 5128W        W 8872   9.413   7.562   9.687
 5129W        W 8873   9.068   0.938   1.240
 5130W        W 8874   6.572   6.209   1.350
 5131W        W 8875   0.852   4.824  11.825
 5132W        W 8876   6.587   3.564  11.231
 5133W        W 8877   8.836   7.197   1.137
 5134W        W 8878   6.454   8.413  11.363
 5135W        W 8879   4.311   0.416   8.739
 5136W        W 8880   9.379   3.654  11.949
 5137W        W 8881   2.450   0.908   0.494
 5138W        W 8882   1.239   0.031   2.192
 5139W        W 8883   8.263  10.491   9.281
 5140W        W 8884   8.194   1.388   2.701
 5141W        W 8885   4.090   7.514   8.508
 5142W        W 8886   2.396   6.506  10.583
 5143W        W 8887   5.742   6.526   9.884
 5144W        W 8888   3.320   6.452   0.614
 5145W        W 8889   4.719   1.142   9.760
 5146W        W 8890   6.702   6.468  10.784
 5147W        W 8891   2.277   6.946  10.973
 5148W        W 8892   3.600   7.682   0.259
 5149W        W 8893   5.199   4.173  11.769
 5150W        W 8894   0.429   7.009   3.291
 5151W        W 8895   6.553   0.709  11.493
 5152W        W 8896   2.741   5.558   0.256
 5153W        W 8897   3.795   0.577   8.780
 5154W        W 8898   4.596   7.831   1.067
 5155W        W 8899   8.595   2.899  11.816
 5156W        W 8900   8.955   7.310   8.417
 5157W        W 8901   4.585   6.288   9.448
 5158W        W 8902  10.058  10.278   9.974
 5159W        W 8903   1.914   5.256  11.344
 5160W        W 8904  10.083   4.000   0.869
 5161W        W 8905   8.030   5.905   1.889
 5162W        W 8906   1.990   0.020   1.660
 5163W        W 8907   6.176   0.731   1.649
 5164W        W 8908   4.301   7.197   2.478
 5165W        W 8909   2.184   1.123   2.356
 5166W        W 8910   7.665   6.005   8.403
 5167W        W 8911   7.665   4.615   0.276
 5168W        W 8912   2.715   8.144   8.880
 5169W        W 8913   6.936   5.877   1.442
 5170W        W 8914   9.063   9.446   9.311
 5171W        W 8915   7.471   2.584   0.456
 5172W        W 8916   5.555   1.178   2.752
 5173W        W 8917   0.171   6.101  10.784
 5174W        W 8918   4.187   2.411  10.616
 5175W        W 8919   3.176  10.089   3.446
 5176W        W 8920   6.097   7.877   9.418
 5177W        W 8921   1.442   7.560   0.634
 5178W        W 8922   8.153   6.980  11.336
 5179W        W 8923   5.162   2.695  11.760
 5180W        W 8924   0.389   3.605  11.897
 5181W        W 8925   4.606   7.529   3.854
 5182W        W 8926   8.985   2.668   2.343
 5183W        W 8927   2.716   5.451  10.777
 5184W        W 8928   6.958   2.625   3.030
 5185W        W 8929   0.349   7.974  11.757
 5186W        W 8930  10.250   1.677   0.398
 5187W        W 8931   1.382   6.247   1.185
 5188W        W 8932   2.468   3.783   0.034
 5189W        W 8933   2.679   3.219   0.826
 5190W        W 8934   8.521   8.109   2.030
 5191W        W 8935   6.539   0.444   9.236
 5192W        W 8936   3.092   3.136  11.921
 5193W        W 8937   2.387   2.986  11.511
 5194W        W 8938   0.307   2.339   0.196
 5195W        W 8939   4.869   8.835   0.411
 5196W        W 8940   6.740   7.748   2.426
 5197W        W 8941   4.781   0.813  11.331
 5198W        W 8942   1.934   1.376  10.894
 5199W        W 8943   9.574   4.206  10.939
 5200W        W 8944   3.754   1.876  10.057
 5201W        W 8945   0.958  10.290  10.551
 5202W        W 8946   7.445   1.333   1.202
 5203W        W 8947   5.131   8.809  10.545
 5204W        W 8948   5.790   8.448   8.619
 5205W        W 8949   8.146   0.882   0.712
 5206W        W 8950   4.539   4.260   3.195
 5207W        W 8951   8.484  10.013   2.539
 5208W        W 8952  10.407   8.802   0.306
 5209W        W 8953   1.904   9.026   2.293
 5210W        W 8954   5.743   6.906  11.914
 5211W        W 8955   4.643   2.328   1.489
 5212W        W 8956   5.136   4.795   9.787
 5213W        W 8957   3.373   8.880  10.309
 5214W        W 8958   2.918   0.961   9.838
 5215W        W 8959   6.973   3.754  11.548
 5216W        W 8960   1.375   2.475   8.839
 5217W        W 8961   3.750   7.069   1.779
 5218W        W 8962  10.347   9.935   0.673
 5219W        W 8963   2.681  10.360   1.252
 5220W        W 8964   3.629   9.656   2.003
 5221W        W 8965   5.473   4.603  11.890
 5222W        W 8966   1.669   4.100   2.133
 5223W        W 8967  10.452   5.547   1.870
 5224W        W 8968   0.450   7.165   9.780
 5225W        W 8969   2.470   7.406   8.627
 5226W        W 8970   2.623   4.965  10.697
 5227W        W 8971   5.334   0.325   9.639
 5228W        W 8972   0.759   8.794  10.844
 5229W        W 8973   9.452   0.945   2.438
 5230W        W 8974   4.274   0.394   9.255
 5231W        W 8975   9.780   1.815   1.963
 5232W        W 8976   8.089   6.634   1.079
 5233W        W 8977   6.554   6.714  11.723
 5234W        W 8978   0.524   5.568   8.806
 5235W        W 8979   3.276   1.980   0.413
 5236W        W 8980   5.444   8.889  10.992
 5237W        W 8981   0.926   8.989   8.642
 5238W        W 8982   9.322   8.941  11.504
 5239W        W 8983   6.108   0.879   0.659
 5240W        W 8984   6.116   6.615   1.735
 5241W        W 8985   1.191   1.782   9.331
 5242W        W 8986   5.481   8.009   8.585
 5243W        W 8987   4.793   3.154   1.825
 5244W        W 8988   0.013   1.319   8.983
 5245W        W 8989   2.914   5.705   2.589
 5246W        W 8990   9.405   7.043   1.949
 5247W        W 8991   0.065   7.580   2.794
 5248W        W 8992   0.329  10.494   2.697
 5249W        W 8993   2.426   8.937  10.480
 5250W        W 8994   9.617   9.447   9.493
 5251W        W 8995   7.680   8.014   9.384
 5252W        W 8996   6.398   3.907   8.688
 5253W        W 8997   8.838   2.383  10.097
 5254W        W 8998   2.948   3.652   0.229
 5255W        W 8999   3.477   2.991   1.401
 5256W        W 9000   7.604  10.470   3.252
 5257W        W 9001   1.346   3.749   3.196
 5258W        W 9002   8.716   0.876   9.551
 5259W        W 9003   4.624   5.956   2.276
 5260W        W 9004   2.699   5.352   9.455
 5261W        W 9005   6.478   1.798  10.992
 5262W        W 9006   5.673   9.979  10.600
 5263W        W 9007   1.696   9.909   2.133
 5264W        W 9008   4.242   5.273   2.081
 5265W        W 9009   5.554   8.889  10.070
 5266W        W 9010   5.426   7.137   8.254
 5267W        W 9011   5.534   8.899  11.921
 5268W        W 9012   3.076   4.248   1.874
 5269W        W 9013   1.684   6.005   3.016
 5270W        W 9014   3.013   7.436   9.388
 5271W        W 9015   3.586   6.136   3.603
 5272W        W 9016   9.444   8.928   1.394
 5273W        W 9017   0.310  10.258   9.507
 5274W        W 9018   1.490   7.365   2.647
 5275W        W 9019   8.817   2.210   2.691
 5276W        W 9020   6.608   1.075   2.512
 5277W        W 9021   6.182  10.180   9.479
 5278W        W 9022   8.341   9.046  10.741
 5279W        W 9023   0.572   8.225   0.148
 5280W        W 9024   2.321   1.683   1.360
 5281W        W 9025  10.495   6.737   0.093
 5282W        W 9026   4.336   6.080   0.236
 5283W        W 9027   2.929   9.882   9.526
 5284W        W 9028   7.002   5.808   2.161
 5285W        W 9029   9.076   5.072  10.048
 5286W        W 9030  10.286   4.858   0.854
 5287W        W 9031   2.517   9.930   0.974
 5288W        W 9032   4.287   2.092   0.941
 5289W        W 9033   0.806   1.852   8.893
 5290W        W 9034   6.486   3.231   1.506
 5291W        W 9035   5.296   3.332   8.581
 5292W        W 9036   5.450   9.886   3.787
 5293W        W 9037   5.107   8.998   1.467
 5294W        W 9038   5.217   2.856   3.911
 5295W        W 9039   7.930   1.810   0.259
 5296W        W 9040   7.860   6.377   2.027
 5297W        W 9041   1.655   6.037  10.857
 5298W        W 9042   0.281   0.895   8.852
 5299W        W 9043   5.773   2.867   1.100
 5300W        W 9044   8.619   5.577   8.366
 5301W        W 9045   0.544   5.496   0.448
 5302W        W 9046   7.519   4.691   3.607
 5303W        W 9047   7.967   5.713   0.862
 5304W        W 9048   7.895   2.325   0.963
 5305W        W 9049   0.295  10.375  11.186
 5306W        W 9050   8.178   5.890   3.372
 5307W        W 9051   7.003   8.069  10.399
 5308W        W 9052   7.944  10.256   1.746
 5309W        W 9053   6.116  10.389   0.685
 5310W        W 9054   7.328   4.532   9.968
 5311W        W 9055   3.561   2.629   0.971
 5312W        W 9056   4.743   2.258   3.378
 5313W        W 9057   3.907   3.955   2.412
 5314W        W 9058   2.391   7.003  10.124
 5315W        W 9059   7.454  10.052   9.762
 5316W        W 9060   1.406   1.839   2.506
 5317W        W 9061   5.784   4.650   1.895
 5318W        W 9062   9.498   2.654  11.468
 5319W        W 9063   3.146   3.486   0.729
 5320W        W 9064   9.511   3.883   2.896
 5321W        W 9065   5.731   4.646   2.409
 5322W        W 9066   0.491   3.829   2.586
 5323W        W 9067   4.148   7.320  11.475
 5324W        W 9068   8.405   4.295   2.306
 5325W        W 9069   0.011   5.692   0.701
 5326W        W 9070   0.899   0.136   9.596
 5327W        W 9071   8.516   5.749  10.061
 5328W        W 9072  10.490   2.620  10.430
 5329W        W 9073   5.630   1.503   1.765
 5330W        W 9074   8.889   6.499   8.705
 5331W        W 9075   7.910   4.926   1.083
 5332W        W 9076   7.510   4.417   4.027
 5333W        W 9077   3.786   5.411   2.204
 5334W        W 9078  10.299   1.385  11.960
 5335W        W 9079   8.986   8.376   2.047
 5336W        W 9080   5.558   3.939   9.068
 5337W        W 9081   8.071   9.362   1.345
 5338W        W 9082   8.923   4.190   9.559
 5339W        W 9083   9.017   8.601   9.957
 5340W        W 9084   3.768   3.107   8.732
 5341W        W 9085   7.023   6.929   2.468
 5342W        W 9086   5.456  10.050   8.615
 5343W        W 9087   7.654   9.269  11.446
 5344W        W 9088   9.220   6.999   1.467
 5345W        W 9089   0.154   5.042   2.863
 5346W        W 9090   6.756   6.543   9.782
 5347W        W 9091   9.786   9.256   3.079
 5348W        W 9092   9.565   6.943   2.615
 5349W        W 9093   4.210   6.370  10.627
 5350W        W 9094   3.788   0.501   2.007
 5351W        W 9095   5.840   3.260   8.551
 5352W        W 9096   8.541   4.315   0.299
 5353W        W 9097   8.589   5.193  10.940
 5354W        W 9098   0.254   5.099   9.309
 5355W        W 9099   5.521   6.170   9.232
 5356W        W 9100   9.455   0.053   2.563
 5357W        W 9101   7.129   8.939   1.497
 5358W        W 9102   9.368   4.618   3.350
 5359W        W 9103   5.064   6.031  10.574
 5360W        W 9104   1.383   4.607   1.657
 5361W        W 9105   9.187  10.467   1.254
 5362W        W 9106   0.263   3.178   1.421
 5363W        W 9107   6.995   0.701  11.831
 5364W        W 9108   0.283   3.648   1.195
 5365W        W 9109   0.896   6.525  11.911
 5366W        W 9110   0.503   3.572   0.742
 5367W        W 9111   0.566   9.629  11.268
 5368W        W 9112   3.323   1.796   9.268
 5369W        W 9113   1.426  10.477  10.778
 5370W        W 9114   4.962   1.951   1.464
 5371W        W 9115   4.914   8.053   3.194
 5372W        W 9116   3.195   2.290   9.122
 5373W        W 9117   5.416   5.611  10.491
 5374W        W 9118  10.381   3.990   1.307
 5375W        W 9119   7.586   5.326   0.885
 5376W        W 9120   1.980   6.385  10.255
 5377W        W 9121   6.984   4.713  10.873
 5378W        W 9122   0.796  10.008   1.532
 5379W        W 9123   5.636   3.622   9.470
 5380W        W 9124  10.314   0.365  11.402
 5381W        W 9125   6.474   1.123   1.475
 5382W        W 9126   3.698   8.562   9.503
 5383W        W 9127   6.438   0.929  11.008
 5384W        W 9128   0.969   1.862   0.806
 5385W        W 9129   1.295   2.695   9.830
 5386W        W 9130   6.165   6.432   0.699
 5387W        W 9131   2.799   6.525   1.209
 5388W        W 9132   3.004   3.171   3.610
 5389W        W 9133  10.361   1.295  11.447
 5390W        W 9134   9.174   6.215   0.479
 5391W        W 9135  10.058   1.092   3.106
 5392W        W 9136   8.560   5.231  10.077
 5393W        W 9137   3.732   7.390  11.019
 5394W        W 9138   7.991   0.878  11.744
 5395W        W 9139   8.865   4.046   2.137
 5396W        W 9140   8.100  10.233   3.223
 5397W        W 9141   3.605  10.440   9.803
 5398W        W 9142   0.893   7.204  11.999
 5399W        W 9143   7.419   8.407   9.582
 5400W        W 9144   3.673   4.596   9.767
 5401W        W 9145   9.023   1.362  11.195
 5402W        W 9146   7.622   8.628   2.626
 5403W        W 9147   1.890   6.874   0.974
 5404W        W 9148   3.842   0.374  10.321
 5405W        W 9149   9.128   4.006  10.965
 5406W        W 9150   9.819   9.639  10.296
 5407W        W 9151   5.045   6.020   2.958
 5408W        W 9152   3.715   9.198   0.520
 5409W        W 9153   8.476   7.938   0.466
 5410W        W 9154   9.759   4.640   9.406
 5411W        W 9155   7.501   2.462   2.189
 5412W        W 9156   7.809   4.380  11.334
 5413W        W 9157   8.461   4.773   2.128
 5414W        W 9158   8.899   1.797   2.332
 5415W        W 9159   1.586   4.194   9.437
 5416W        W 9160   5.548   5.367   1.763
 5417W        W 9161   5.431   4.146   0.271
 5418W        W 9162   8.983   1.286  10.693
 5419W        W 9163   3.084   6.881  11.275
 5420W        W 9164   9.758   7.780   2.776
 5421W        W 9165   4.101   3.548   1.176
 5422W        W 9166   1.329   4.821  10.124
 5423W        W 9167   2.348   9.194   0.234
 5424W        W 9168   5.676   2.715   0.412
 5425W        W 9169   3.110   5.165   0.928
 5426W        W 9170   8.778   6.308   0.815
 5427W        W 9171   7.686  10.069   2.947
 5428W        W 9172   1.829   5.467   9.683
 5429W        W 9173   8.711   8.300   3.561
 5430W        W 9174   9.199   0.288  11.945
 5431W        W 9175   4.175   1.251   2.780
 5432W        W 9176   0.724   9.987   0.284
 5433W        W 9177   7.871   0.491   0.524
 5434W        W 9178   1.857  10.402  11.019
 5435W        W 9179   0.402   2.452   2.693
 5436W        W 9180   4.303   5.530   0.940
 5437W        W 9181   5.521   8.855   9.571
 5438W        W 9182   5.627   5.445   8.967
 5439W        W 9183   3.415   4.094   2.267
 5440W        W 9184   6.670   7.951  11.263
 5441W        W 9185   7.789   5.207  10.496
 5442W        W 9186   3.255   9.514   1.153
 5443W        W 9187   1.671   0.230  10.026
 5444W        W 9188   4.942   5.770  11.400
 5445W        W 9189   6.449   8.127   3.243
 5446W        W 9190   2.330   4.631   1.668
 5447W        W 9191   9.986   0.966   0.014
 5448W        W 9192   4.975   7.584  11.584
 5449W        W 9193   5.384   1.674   1.326
 5450W        W 9194   2.821   3.390   1.572
 5451W        W 9195   1.407   0.383  10.446
 5452W        W 9196   4.675   8.084  10.541
 5453W        W 9197   1.615   3.027   0.247
 5454W        W 9198   5.562   8.317  10.867
 5455W        W 9199   7.639   7.414   1.710
 5456W        W 9200   2.695   8.438   2.376
 5457W        W 9201   1.806   2.206   0.974
 5458W        W 9202   3.407   3.816   0.391
 5459W        W 9203   8.501   2.313   9.270
 5460W        W 9204   1.621   1.336  11.317
 5461W        W 9205   3.600   1.880   3.024
 5462W        W 9206   1.165   9.517  10.415
 5463W        W 9207   1.788   0.179   8.629
 5464W        W 9208   0.190   9.219  10.458
 5465W        W 9209   3.864  10.399   2.698
 5466W        W 9210   4.405   7.621   2.749
 5467W        W 9211   0.704   3.312   1.150
 5468W        W 9212   3.635   5.692   1.752
 5469W        W 9213   4.100   9.358   9.353
 5470W        W 9214   4.068   7.511  10.624
 5471W        W 9215   1.909   1.377   3.441
 5472W        W 9216   5.057   9.999   3.414
 5473W        W 9217   0.223   7.386   2.324
 5474W        W 9218   1.805   5.449   2.177
 5475W        W 9219   4.677   0.629   9.049
 5476W        W 9220   0.460   3.862   3.093
 5477W        W 9221   4.323   5.142   9.561
 5478W        W 9222   1.886   2.908   8.358
 5479W        W 9223   8.178   5.042  11.802
 5480W        W 9224   8.061   8.639   0.767
 5481W        W 9225   3.254   7.380  10.352
 5482W        W 9226   7.086   0.694   3.303
 5483W        W 9227   0.710   3.084  10.921
 5484W        W 9228  10.461   9.438   1.973
 5485W        W 9229   6.158   9.104   3.485
 5486W        W 9230   1.091   0.431   9.180
 5487W        W 9231   6.177   6.196   2.036
 5488W        W 9232   4.093   9.685   3.325
 5489W        W 9233   7.043   4.578   3.755
 5490W        W 9234   9.331   3.354   9.844
 5491W        W 9235   4.574   4.152  10.897
 5492W        W 9236   5.050   2.388   9.506
 5493W        W 9237   1.220   4.229  11.026
 5494W        W 9238   8.608   7.013   8.702
 5495W        W 9239   9.335   0.852   8.917
 5496W        W 9240   8.900   1.723   8.841
 5497W        W 9241   5.075   6.103   9.542
 5498W        W 9242   6.124   1.960   0.233
 5499W        W 9243   0.834   6.299   2.970
 5500W        W 9244   4.214   3.603  11.731
 5501W        W 9245   3.263   6.173   8.571
 5502W        W 9246   0.674   8.924   9.109
 5503W        W 9247   6.300   1.415   8.398
 5504W        W 9248   4.579   9.260   0.459
 5505W        W 9249   0.965   1.744   0.098
 5506W        W 9250  10.395   4.495   2.542
 5507W        W 9251   8.629   7.560   0.825
 5508W        W 9252   9.385   1.520   9.531
 5509W        W 9253   9.888   1.344  11.183
 5510W        W 9254   4.305   3.129   2.747
 5511W        W 9255   2.881   2.158  10.339
 5512W        W 9256   4.272   5.235   1.400
 5513W        W 9257   7.618   8.810   0.576
 5514W        W 9258   4.768   1.712  10.367
 5515W        W 9259   6.164   7.596   8.070
 5516W        W 9260   9.285   6.240   0.964
 5517W        W 9261   8.477   6.068   2.645
 5518W        W 9262   3.208   7.140   1.153
 5519W        W 9263   2.802   9.749   2.268
 5520W        W 9264   9.444   3.558   2.484
 5521W        W 9265   6.428   2.306  10.974
 5522W        W 9266   6.166   9.668  11.837
 5523W        W 9267   6.465   2.153  11.453
 5524W        W 9268   5.963   4.657  11.750
 5525W        W 9269   7.184   6.681   8.360
 5526W        W 9270   7.134   1.969  11.497
 5527W        W 9271   1.473   7.907   1.934
 5528W        W 9272   9.076   6.994  11.724
 5529W        W 9273   9.175   2.242  10.941
 5530W        W 9274   0.445   6.943  11.877
 5531W        W 9275   7.567   8.144   2.379
 5532W        W 9276   1.183   9.925   0.500
 5533W        W 9277   0.454   7.629   1.866
 5534W        W 9278   3.391   3.658  10.881
 5535W        W 9279   5.759  10.329  10.975
 5536W        W 9280   2.644   8.822  11.967
 5537W        W 9281   1.345   0.924   2.632
 5538W        W 9282   4.613  10.449   3.317
 5539W        W 9283   9.101   8.890  11.054
 5540W        W 9284   2.213   2.519   9.235
 5541W        W 9285   9.389   8.172   3.077
 5542W        W 9286   6.397   5.354  10.428
 5543W        W 9287   6.557   1.737   0.387
 5544W        W 9288   3.269   2.364  10.645
 5545W        W 9289   5.669   8.381   9.936
 5546W        W 9290   7.447   1.437   2.681
 5547W        W 9291   7.873   7.989  10.272
 5548W        W 9292  10.276   2.755   9.356
 5549W        W 9293   1.671   5.044  10.953
 5550W        W 9294   7.107   9.755   3.652
 5551W        W 9295   1.245   4.164   0.939
 5552W        W 9296   9.807   2.801   9.542
 5553W        W 9297   0.847   0.436   1.429
 5554W        W 9298   6.455   0.775   8.822
 5555W        W 9299   4.764  10.075   1.710
 5556W        W 9300   7.491   9.002   3.479
 5557W        W 9301   9.191   1.334   3.386
 5558W        W 9302   8.043   8.025   2.217
 5559W        W 9303   5.728   2.758   2.486
 5560W        W 9304   2.072   9.078   3.357
 5561W        W 9305   7.159   9.721  11.971
 5562W        W 9306   0.691   0.064  11.436
 5563W        W 9307   8.521   3.199   1.389
 5564W        W 9308   9.025   6.045  11.471
 5565W        W 9309   8.319   2.454  10.779
 5566W        W 9310   3.261   7.297   0.216
 5567W        W 9311   8.309   7.139   0.720
 5568W        W 9312   4.204   0.341   1.731
 5569W        W 9313   0.809   4.774   1.516
 5570W        W 9314   0.973  10.191   8.538
 5571W        W 9315   3.418  10.004   0.969
 5572W        W 9316   5.647   4.117   1.209
 5573W        W 9317   7.378   3.171  10.687
 5574W        W 9318   3.640   3.531   2.428
 5575W        W 9319   7.959   9.747   3.362
 5576W        W 9320   9.824   4.725   2.383
 5577W        W 9321   6.533   6.076   0.645
 5578W        W 9322   9.984   4.483  10.991
 5579W        W 9323  10.326   6.129  11.220
 5580W        W 9324   4.188   0.848   8.977
 5581W        W 9325   1.830   7.370   0.921
 5582W        W 9326   4.267   9.495   1.074
 5583W        W 9327   0.862   2.247  11.978
 5584W        W 9328   5.610   7.252   2.815
 5585W        W 9329   4.740   6.463  10.800
 5586W        W 9330   5.556   2.694  11.394
 5587W        W 9331   7.470   8.947   1.051
 5588W        W 9332   2.828   9.062   0.391
 5589W        W 9333   8.089   4.199   3.140
 5590W        W 9334   8.095   5.100   2.585
 5591W        W 9335   6.559   2.655  11.358
 5592W        W 9336   8.089   4.971   1.573
 5593W        W 9337   1.338   1.704   1.191
 5594W        W 9338   9.736   2.237   2.241
 5595W        W 9339   8.357   2.428  10.279
 5596W        W 9340   3.733   0.438   9.827
 5597W        W 9341   8.869   3.165   2.454
 5598W        W 9342   3.905   9.351   8.519
 5599W        W 9343   7.507   1.943   2.135
 5600W        W 9344   8.951   2.636   0.240
 5601W        W 9345   7.046   6.944  11.716
 5602W        W 9346   5.056   2.368  10.497
 5603W        W 9347   5.966   7.916   2.423
 5604W        W 9348   0.047   2.405   0.972
 5605W        W 9349   6.250   4.650   1.598
 5606W        W 9350   2.444   3.421   2.936
 5607W        W 9351   1.963   4.547   3.298
 5608W        W 9352   7.647   6.440   3.413
 5609W        W 9353   7.083  10.190  10.918
 5610W        W 9354   2.228  10.292   9.272
 5611W        W 9355   7.874   0.235   9.500
 5612W        W 9356   2.937   8.562   3.346
 5613W        W 9357   3.129   0.694  10.923
 5614W        W 9358   2.407  10.255   1.671
 5615W        W 9359   8.578   9.337   9.065
 5616W        W 9360   0.729  10.083  11.342
 5617W        W 9361   7.587   2.826  10.368
 5618W        W 9362   8.512   6.426   9.554
 5619W        W 9363   6.951  10.420   1.211
 5620W        W 9364   4.552   0.345  11.054
 5621W        W 9365   0.380   4.511   1.429
 5622W        W 9366   0.723  10.266  11.841
 5623W        W 9367   2.747   8.582   9.170
 5624W        W 9368   3.018   4.156   0.331
 5625W        W 9369   4.594   0.105   1.520
 5626W        W 9370   0.430   9.376   1.763
 5627W        W 9371   0.996   4.641   9.182
 5628W        W 9372  10.200   2.242  10.651
 5629W        W 9373   7.023   9.916  10.009
 5630W        W 9374   4.628   7.208  11.597
 5631W        W 9375   5.552   3.075  10.634
 5632W        W 9376  10.313   1.553   1.317
 5633W        W 9377   4.097   2.594   0.947
 5634W        W 9378   0.919   2.183   3.270
 5635W        W 9379   1.775   0.747  11.403
 5636W        W 9380   3.182   8.699  11.949
 5637W        W 9381   5.846   8.036   4.055
 5638W        W 9382   8.438   8.488   1.242
 5639W        W 9383   8.629   5.290  11.802
 5640W        W 9384   2.295   4.553  11.696
 5641W        W 9385   9.364   4.206  10.478
 5642W        W 9386   2.425   2.883   8.490
 5643W        W 9387   5.588   7.538   9.370
 5644W        W 9388   6.521   3.420   1.030
 5645W        W 9389   8.073   1.650   9.789
 5646W        W 9390   3.275   3.280   1.770
 5647W        W 9391   4.838  10.339   0.724
 5648W        W 9392   1.773   4.692   0.931
 5649W        W 9393   2.604   4.273   2.863
 5650W        W 9394   1.328   1.958   8.869
 5651W        W 9395   4.750   0.452   2.411
 5652W        W 9396   5.706   5.959   3.151
 5653W        W 9397   1.758   4.345  11.761
 5654W        W 9398   4.702   8.027  11.082
 5655W        W 9399   0.851   5.718  10.231
 5656W        W 9400   0.459  10.216  10.379
 5657W        W 9401   2.359   6.956   1.732
 5658W        W 9402   9.767   8.599  10.453
 5659W        W 9403   3.856  10.027   1.672
 5660W        W 9404   5.074   2.577   2.711
 5661W        W 9405   5.196   1.651   8.730
 5662W        W 9406   8.642   0.568   3.206
 5663W        W 9407   7.015   1.210   1.883
 5664W        W 9408   9.112   2.200  11.987
 5665W        W 9409   2.312   9.466   2.235
 5666W        W 9410   3.391   0.944   8.676
 5667W        W 9411   5.305   8.485   1.497
 5668W        W 9412   2.482   6.154   0.452
 5669W        W 9413   3.101   0.789  11.920
 5670W        W 9414   7.460   0.648  11.395
 5671W        W 9415   0.525   6.061   2.203
 5672W        W 9416   7.323   6.103   3.174
 5673W        W 9417   5.635   4.098  10.980
 5674W        W 9418   4.352   8.573   1.325
 5675W        W 9419  10.380   7.028  11.243
 5676W        W 9420   5.917   7.084  10.476
 5677W        W 9421   4.994   8.017   0.808
 5678W        W 9422   6.449   3.657   9.911
 5679W        W 9423   1.709   3.536   9.333
 5680W        W 9424   2.771   1.897   0.430
 5681W        W 9425   2.870   6.936   9.400
 5682W        W 9426   0.883   6.622   8.952
 5683W        W 9427   7.960   2.690   2.360
 5684W        W 9428   4.023   2.675   2.706
 5685W        W 9429   0.932   6.183   2.465
 5686W        W 9430  10.289   7.912   0.416
 5687W        W 9431   8.422   0.134   3.262
 5688W        W 9432   0.077   0.797   3.187
 5689W        W 9433   3.532   0.485   3.488
 5690W        W 9434   4.629   4.108   7.877
 5691W        W 9435   7.359   6.534   0.306
 5692W        W 9436   3.231  10.018   2.933
 5693W        W 9437   7.012   9.849   2.624
 5694W        W 9438   7.664   1.865   2.891
 5695W        W 9439  10.387   8.900   9.690
 5696W        W 9440   3.825   2.761  10.551
 5697W        W 9441   9.380   9.102   0.012
 5698W        W 9442   0.013   2.652   8.641
 5699W        W 9443   8.868   5.817   0.330
 5700W        W 9444   5.052   0.966   2.513
 5701W        W 9445   6.629   6.455   1.814
 5702W        W 9446   8.948   7.427   1.576
 5703W        W 9447   5.351   2.756   3.428
 5704W        W 9448  10.026   0.847   9.571
 5705W        W 9449   2.412   5.701   3.180
 5706W        W 9450   6.513   1.081   2.002
 5707W        W 9451   2.698   8.372   2.916
 5708W        W 9452   7.880   7.435  11.523
 5709W        W 9453   6.224   1.988   2.868
 5710W        W 9454   4.150   7.106   1.471
 5711W        W 9455   8.913   8.894   3.298
 5712W        W 9456   3.403   2.686   2.527
 5713W        W 9457   2.936   1.029   8.387
 5714W        W 9458   9.345   3.049   9.424
 5715W        W 9459   8.810   7.530   3.084
 5716W        W 9460   5.146   5.250   9.059
 5717W        W 9461   9.733   5.602  11.687
 5718W        W 9462  10.163   2.083   3.201
 5719W        W 9463  10.451   2.716   2.614
 5720W        W 9464   6.418   6.065  10.858
 5721W        W 9465   7.258   9.747   8.483
 5722W        W 9466   8.607   4.491   0.798
 5723W        W 9467   4.206   3.116   0.903
 5724W        W 9468   4.391   9.456   2.833
 5725W        W 9469   6.152   8.575   3.380
 5726W        W 9470   7.414  10.228   8.756
 5727W        W 9471   9.396   7.953   0.976
 5728W        W 9472   4.750   4.531   9.071
 5729W        W 9473   2.873   6.713  10.308
 5730W        W 9474   3.544   2.398   0.493
 5731W        W 9475   1.411   8.601   0.142
 5732W        W 9476  10.052   6.478   0.139
 5733W        W 9477   6.204  10.037  10.887
 5734W        W 9478   1.803   8.312   3.520
 5735W        W 9479   4.576   9.076   1.344
 5736W        W 9480   9.023   9.099   0.440
 5737W        W 9481   7.383   3.233   1.375
 5738W        W 9482   5.918   2.618   9.410
 5739W        W 9483   3.636   6.254   8.935
 5740W        W 9484   8.062   2.847   9.725
 5741W        W 9485   0.233   3.034  11.414
 5742W        W 9486   2.110   3.439  10.159
 5743W        W 9487   0.873   2.381  11.450
 5744W        W 9488   1.831   3.377   1.037
 5745W        W 9489   1.725   4.147   1.114
 5746W        W 9490   9.736   4.290   2.109
 5747W        W 9491   0.889   0.440   3.204
 5748W        W 9492   2.655   5.874   8.573
 5749W        W 9493   6.156   1.726   8.803
 5750W        W 9494   9.474   5.442   8.865
 5751W        W 9495   4.071   0.945   2.350
 5752W        W 9496   2.398   4.248   2.387
 5753W        W 9497   8.918   9.960   9.541
 5754W        W 9498   8.711   2.375  11.082
 5755W        W 9499   6.011   3.863   9.254
 5756W        W 9500   1.588   0.687   3.064
 5757W        W 9501   1.449   4.597   2.180
 5758W        W 9502   2.259   2.329  10.642
 5759W        W 9503   6.158   9.402  10.023
 5760W        W 9504   8.987   8.860   2.256
 5761W        W 9505   9.406   7.287  11.486
 5762W        W 9506   1.102   7.933  10.006
 5763W        W 9507   9.287   5.051   0.748
 5764W        W 9508   3.663   3.685   0.887
 5765W        W 9509   9.892   9.532   2.121
 5766W        W 9510   9.561   4.827   3.800
 5767W        W 9511   6.912   6.586   3.758
 5768W        W 9512   9.485   4.814   2.791
 5769W        W 9513   3.336   3.226   9.592
 5770W        W 9514   7.442   2.329   3.069
 5771W        W 9515   4.075   8.242  11.781
 5772W        W 9516   8.962   7.448   8.915
 5773W        W 9517   2.523   0.728  10.085
 5774W        W 9518   9.407   9.073   2.809
 5775W        W 9519   0.228   9.513   2.775
 5776W        W 9520   8.307   6.238  10.001
 5777W        W 9521  10.023   4.540   8.985
 5778W        W 9522   8.415   6.996   1.893
 5779W        W 9523  10.283   4.070   1.860
 5780W        W 9524   1.879   0.788   2.663
 5781W        W 9525   0.991   9.970   1.018
 5782W        W 9526   5.824   0.333   9.713
 5783W        W 9527   3.674   2.259   2.680
 5784W        W 9528   2.349   6.230   1.266
 5785W        W 9529   2.304   2.994   9.375
 5786W        W 9530   9.735   7.660  10.636
 5787W        W 9531   4.618   1.346   1.583
 5788W        W 9532   2.417   9.376  10.748
 5789W        W 9533   9.376   5.834   2.696
 5790W        W 9534   9.445   0.260   1.572
 5791W        W 9535   5.923   6.892   0.745
 5792W        W 9536   7.612   4.645   8.605
 5793W        W 9537   3.140   7.041   9.991
 5794W        W 9538   1.836   9.425   1.968
 5795W        W 9539   5.564   9.959   2.217
 5796W        W 9540   9.115   7.213   0.183
 5797W        W 9541   5.108   5.577   2.667
 5798W        W 9542   6.532   0.315  10.455
 5799W        W 9543   2.255   4.969  10.311
 5800W        W 9544   8.522   8.398   0.707
 5801W        W 9545   9.851   2.655   0.410
 5802W        W 9546   9.556   0.747   1.422
 5803W        W 9547   8.332   0.516  11.809
 5804W        W 9548   7.556   0.594  10.372
 5805W        W 9549   8.165   7.955   9.318
 5806W        W 9550   2.263   0.194  10.910
 5807W        W 9551   2.339   1.602   2.217
 5808W        W 9552   1.874   9.574   3.440
 5809W        W 9553   1.162   9.064  10.687
 5810W        W 9554   6.457   7.814  10.300
 5811W        W 9555   3.630   5.138   0.231
 5812W        W 9556   8.062   6.922  10.829
 5813W        W 9557   6.524   3.239   9.128
 5814W        W 9558   9.003   4.078   8.645
 5815W        W 9559   4.168   5.732   2.332
 5816W        W 9560   0.735   7.495   3.162
 5817W        W 9561   0.689   2.131   0.455
 5818W        W 9562   7.585   1.827   1.139
 5819W        W 9563   3.270   4.186   3.579
 5820W        W 9564   5.972   8.049   8.337
 5821W        W 9565   9.604   5.057  10.063
 5822W        W 9566   8.673   5.818   3.545
 5823W        W 9567   4.896   9.505   9.959
 5824W        W 9568   9.756   3.362  10.204
 5825W        W 9569   4.468   1.836   1.377
 5826W        W 9570   4.277   0.683  11.335
 5827W        W 9571   4.144   7.745  11.800
 5828W        W 9572   2.534   1.708   9.465
 5829W        W 9573   8.113   4.669   9.454
 5830W        W 9574   0.462   5.588   2.424
 5831W        W 9575   6.438   7.419  11.773
 5832W        W 9576   3.305   9.487   3.125
 5833W        W 9577   0.875   8.316   9.070
 5834W        W 9578   8.504   9.939   1.014
 5835W        W 9579   9.066   5.023  11.839
 5836W        W 9580   8.173   4.200   9.097
 5837W        W 9581   3.477   8.449  10.025
 5838W        W 9582   9.479   5.819   9.570
 5839W        W 9583   9.591   9.421   1.456
 5840W        W 9584   6.027   2.962   2.867
 5841W        W 9585   5.756   7.837  11.750
 5842W        W 9586   1.460   3.239  11.341
 5843W        W 9587   9.140   6.634   2.146
 5844W        W 9588   5.225   1.908   0.271
 5845W        W 9589   0.727   4.266   2.752
 5846W        W 9590  10.155   9.073  10.951
 5847W        W 9591   0.372   0.305   9.521
 5848W        W 9592   3.219   7.186   2.619
 5849W        W 9593   7.851   6.921   1.900
 5850W        W 9594   9.166   0.450   3.267
 5851W        W 9595   8.942   3.666   2.470
 5852W        W 9596   4.092   0.919   9.493
 5853W        W 9597   4.476   7.190  10.512
 5854W        W 9598   3.353   3.604  11.893
 5855W        W 9599   2.763   9.959   2.747
 5856W        W 9600   3.648   9.860   3.190
 5857W        W 9601   6.435   9.556   8.881
 5858W        W 9602   3.151   9.773   0.285
 5859W        W 9603   0.194   8.035   1.734
 5860W        W 9604   4.379   5.718   2.792
 5861W        W 9605   6.207   1.210   3.529
 5862W        W 9606   1.833   7.787  10.448
 5863W        W 9607   9.378   2.525   9.480
 5864W        W 9608   8.040   7.702   8.533
 5865W        W 9609   2.658   6.393   4.123
 5866W        W 9610   5.472   5.498   2.257
 5867W        W 9611   5.975  10.176   3.598
 5868W        W 9612   3.193   9.385   2.144
 5869W        W 9613   0.250   5.437  11.817
 5870W        W 9614  10.386   2.620   3.563
 5871W        W 9615   5.427  10.406   2.475
 5872W        W 9616   1.031   0.903   2.221
 5873W        W 9617   0.838   3.584   9.862
 5874W        W 9618   8.288   1.405   2.201
 5875W        W 9619   3.800   4.126   3.248
 5876W        W 9620   8.762  10.257   1.395
 5877W        W 9621   4.061   6.228   2.387
 5878W        W 9622   7.489   3.097   8.656
 5879W        W 9623   4.125   4.124   8.666
 5880W        W 9624   6.919   8.942  10.959
 5881W        W 9625   5.456   2.686   9.663
 5882W        W 9626   3.229   9.358   9.544
 5883W        W 9627   8.905   7.936  11.149
 5884W        W 9628   6.460   5.163   9.853
 5885W        W 9629   1.203  10.023   2.360
 5886W        W 9630   1.182   6.683   9.367
 5887W        W 9631   6.488   7.560   9.543
 5888W        W 9632   8.564   3.039   0.897
 5889W        W 9633   7.385   4.998  10.718
 5890W        W 9634  10.007   2.269   3.670
 5891W        W 9635   3.233   7.126   3.315
 5892W        W 9636   7.136   4.701   2.889
 5893W        W 9637  10.310   6.535   0.574
 5894W        W 9638   0.305   8.467   0.892
 5895W        W 9639   1.927   8.745   3.722
 5896W        W 9640   7.016   7.505   2.907
 5897W        W 9641   6.058  10.091   2.045
 5898W        W 9642   1.651   8.991  11.888
 5899W        W 9643   4.821   6.976  10.838
 5900W        W 9644   0.573   3.142  10.005
 5901W        W 9645   0.248   8.527   1.833
 5902W        W 9646   5.131   3.677  11.654
 5903W        W 9647   5.661   2.826  11.871
 5904W        W 9648   2.275   6.008  11.278
 5905W        W 9649   4.710   5.553  10.722
 5906W        W 9650   4.270   3.349   0.201
 5907W        W 9651   5.455   9.611   9.326
 5908W        W 9652   3.884   5.265   1.722
 5909W        W 9653   4.153   7.419   3.562
 5910W        W 9654   4.189   7.907   9.212
 5911W        W 9655   0.832   1.891  11.611
 5912W        W 9656   5.545   2.923  10.133
 5913W        W 9657   3.478   2.187  11.850
 5914W        W 9658   9.101   7.141   9.783
 5915W        W 9659   3.837   7.153   9.358
 5916W        W 9660   6.700   8.008   1.483
 5917W        W 9661   6.179   9.351   0.829
 5918W        W 9662   0.975   7.458   0.425
 5919W        W 9663   8.610   8.687   0.296
 5920W        W 9664   2.677  10.418   0.102
 5921W        W 9665   8.801   3.286  10.550
 5922W        W 9666   1.234   7.735  11.789
 5923W        W 9667   7.367   5.606   2.581
 5924W        W 9668   8.374  10.219   9.777
 5925W        W 9669   6.749  10.441   3.027
 5926W        W 9670   5.577   9.147   9.174
 5927W        W 9671   4.040   0.706   3.413
 5928W        W 9672   2.087   1.136  11.311
 5929W        W 9673   3.926  10.244   0.830
 5930W        W 9674   6.817   7.931   9.411
 5931W        W 9675   8.823   5.037  11.394
 5932W        W 9676   6.129   0.846   2.289
 5933W        W 9677  10.468   3.739   2.678
 5934W        W 9678  10.021   0.911   2.269
 5935W        W 9679   9.356   1.632   8.618
 5936W        W 9680   2.755   4.083   8.967
 5937W        W 9681   2.812   5.088   0.470
 5938W        W 9682   0.852   3.142  10.435
 5939W        W 9683   8.932   6.431  10.736
 5940W        W 9684   4.760   8.994   3.384
 5941W        W 9685   0.861   2.298  10.535
 5942W        W 9686   0.952   9.773   3.034
 5943W        W 9687   7.560  10.451  10.890
 5944W        W 9688   2.570   0.808   1.010
 5945W        W 9689   0.905   8.911   2.963
 5946W        W 9690   1.852   7.398   3.007
 5947W        W 9691  10.360   0.455   9.484
 5948W        W 9692   2.852   0.373  10.313
 5949W        W 9693   8.972   9.819   2.671
 5950W        W 9694   6.116   8.465   9.019
 5951W        W 9695   5.586   5.373  11.381
 5952W        W 9696   2.278   2.385   8.721
 5953W        W 9697   0.418  10.484   9.938
 5954W        W 9698   2.815   3.155   9.430
 5955W        W 9699   5.060   1.807  11.262
 5956W        W 9700   5.768   5.551  11.822
 5957W        W 9701   2.225   0.293   2.338
 5958W        W 9702   7.512   6.533   2.943
 5959W        W 9703   5.205   9.214  10.237
 5960W        W 9704   5.563   5.590   9.458
 5961W        W 9705   6.936   8.369  11.492
 5962W        W 9706   7.046   1.677   9.039
 5963W        W 9707   5.619   1.241   9.779
 5964W        W 9708   2.339   6.919  11.995
 5965W        W 9709   7.532   9.391  11.923
 5966W        W 9710   0.859   3.633   3.258
 5967W        W 9711   4.025   3.577  10.025
 5968W        W 9712   3.641   5.138  10.247
 5969W        W 9713   8.865   9.465   0.811
 5970W        W 9714   4.982   8.161   9.273
 5971W        W 9715   0.911   5.560  10.713
 5972W        W 9716   1.874   6.518  10.749
 5973W        W 9717   9.784   7.665   1.287
 5974W        W 9718   6.618   7.248   9.162
 5975W        W 9719   2.655   5.152  11.982
 5976W        W 9720   7.596   7.458   8.453
 5977W        W 9721   3.561   0.004   0.225
 5978W        W 9722  10.272   8.668  11.843
 5979W        W 9723   4.248   7.255   1.001
 5980W        W 9724   0.971   3.328  11.276
 5981W        W 9725   2.151   4.935   1.305
 5982W        W 9726   4.295   8.833   8.917
 5983W        W 9727   9.545   2.199  11.272
 5984W        W 9728   1.845   5.982   2.045
 5985W        W 9729   5.614  10.053   9.106
 5986W        W 9730   0.203   8.284  10.428
 5987W        W 9731   0.785   7.400  11.532
 5988W        W 9732   9.224   2.220   2.259
 5989W        W 9733   8.570   1.961  10.145
 5990W        W 9734   7.927   1.443   1.464
 5991W        W 9735   3.376   4.712   2.707
 5992W        W 9736   7.876   7.088  11.890
 5993W        W 9737   8.629   3.884   0.574
 5994W        W 9738   5.553   5.862   1.564
 5995W        W 9739   0.444   6.663   0.864
 5996W        W 9740   6.081   4.790   9.837
 5997W        W 9741   6.417   7.022   9.610
 5998W        W 9742   8.781   3.698   9.563
 5999W        W 9743   7.137   3.636   1.586
 6000W        W 9744   2.509   0.735   2.441
 6001W        W 9745   9.857   8.734   2.550
 6002W        W 9746   8.743   8.377  10.353
 6003W        W 9747   4.080   5.581   0.057
 6004W        W 9748   1.380   0.890   9.021
 6005W        W 9749   8.353   3.273   2.413
 6006W        W 9750   2.902   2.667   2.638
 6007W        W 9751   4.736   8.499   3.579
 6008W        W 9752   4.785   2.112  10.041
 6009W        W 9753   9.956   7.466   0.393
 6010W        W 9754   7.505   9.970   3.416
 6011W        W 9755   0.645  10.406   1.259
 6012W        W 9756   3.951   4.772   9.367
 6013W        W 9757   0.726   5.437   1.315
 6014W        W 9758   0.335   3.851   0.349
 6015W        W 9759   6.613   1.008   0.831
 6016W        W 9760   9.516   9.408  11.539
 6017W        W 9761   7.444   9.049  10.899
 6018W        W 9762   3.333   6.082   0.238
 6019W        W 9763   8.964   1.284   9.756
 6020W        W 9764   3.236   0.183  10.891
 6021W        W 9765   4.693   4.990   1.611
 6022W        W 9766   0.432   5.739   0.984
 6023W        W 9767   4.927   8.890  11.045
 6024W        W 9768   9.961   6.919   9.928
 6025W        W 9769   8.592   7.790  11.974
 6026W        W 9770   5.818   4.336  10.000
 6027W        W 9771   8.100   4.268  10.913
 6028W        W 9772   0.419   8.997   3.510
 6029W        W 9773  10.228   2.271  10.122
 6030W        W 9774   0.917   9.012   0.477
 6031W        W 9775   8.390   8.957   1.486
 6032W        W 9776   3.958   4.531   1.033
 6033W        W 9777   1.116   1.797   3.541
 6034W        W 9778  10.232   3.682   0.499
 6035W        W 9779   6.810   0.797   1.241
 6036W        W 9780   3.022   1.696   0.822
 6037W        W 9781   4.314   8.706   3.318
 6038W        W 9782   3.075   9.232  10.048
 6039W        W 9783   0.068   5.442   8.507
 6040W        W 9784   1.576   3.360  11.844
 6041W        W 9785   7.601   1.268   9.033
 6042W        W 9786   5.226   3.589  10.720
 6043W        W 9787   4.825   3.707  11.012
 6044W        W 9788   1.025   5.874   1.218
 6045W        W 9789   1.923   1.775   3.754
 6046W        W 9790   7.866   5.586   2.668
 6047W        W 9791   1.349   6.008  11.348
 6048W        W 9792   0.624   3.884   3.615
 6049W        W 9793   0.965   3.332   0.704
 6050W        W 9794   5.251   8.429   0.981
 6051W        W 9795   4.406   1.152  11.484
 6052W        W 9796   3.124   3.975   0.800
 6053W        W 9797   2.807   8.947   1.646
 6054W        W 9798   0.303   1.088   0.988
 6055W        W 9799   7.651   6.840  10.001
 6056W        W 9800   6.938   3.810   8.543
 6057W        W 9801   8.330   7.473   3.269
 6058W        W 9802   5.719   9.211   2.643
 6059W        W 9803   1.095   0.035   0.993
 6060W        W 9804   0.039   1.118   1.443
 6061W        W 9805   0.674   5.232  10.372
 6062W        W 9806   6.210   5.604  10.856
 6063W        W 9807   3.162   9.184  10.901
 6064W        W 9808   9.155   6.915  11.221
 6065W        W 9809   9.863  10.443   2.270
 6066W        W 9810   3.156   7.066   8.573
 6067W        W 9811   4.981   6.617   9.432
 6068W        W 9812  10.130   4.070   2.363
 6069W        W 9813   0.083   3.670   1.674
 6070W        W 9814   7.841   7.323   3.206
 6071W        W 9815   1.299   6.423   3.183
 6072W        W 9816   0.881   4.458   0.717
 6073W        W 9817   7.925   2.120   3.300
 6074W        W 9818   7.718   7.956   8.866
 6075W        W 9819   3.591   8.073   1.201
 6076W        W 9820   7.655   5.237   2.345
 6077W        W 9821   6.119   2.232   3.322
 6078W        W 9822   2.442   2.433  10.170
 6079W        W 9823   8.586   7.322   9.952
 6080W        W 9824   4.562   8.061   9.518
 6081W        W 9825   3.637   4.065  11.980
 6082W        W 9826   2.612   2.776  11.110
 6083W        W 9827   3.379   4.166   9.839
 6084W        W 9828   0.405   8.140  11.273
 6085W        W 9829   6.619   4.337   1.424
 6086W        W 9830   3.000   6.759   1.690
 6087W        W 9831   1.222   9.907  10.075
 6088W        W 9832   0.737   1.430   8.561
 6089W        W 9833   1.467  10.224   0.850
 6090W        W 9834   8.928   4.838   1.052
 6091W        W 9835   5.302   4.294   9.865
 6092W        W 9836   4.593   2.266   0.580
 6093W        W 9837   3.150   6.583   3.315
 6094W        W 9838   8.922   2.261   9.597
 6095W        W 9839  10.160   1.743  10.962
 6096W        W 9840   1.216   7.444   3.613
 6097W        W 9841   8.366   4.211  10.474
 6098W        W 9842   0.471   9.978   9.109
 6099W        W 9843   6.199   7.636  10.822
 6100W        W 9844   0.276   7.554   9.083
 6101W        W 9845   6.252   7.830   2.848
 6102W        W 9846   8.849   1.780   0.158
 6103W        W 9847   2.591   5.086   1.012
 6104W        W 9848   8.838   6.254   2.324
 6105W        W 9849   2.714   7.212  11.129
 6106W        W 9850   4.529   0.643   1.411
 6107W        W 9851   1.930   4.658  10.694
 6108W        W 9852   0.775   5.068   3.309
 6109W        W 9853   9.340   4.080   3.351
 6110W        W 9854   0.903   5.654   0.773
 6111W        W 9855   8.599   2.788   2.691
 6112W        W 9856   1.656   6.454   1.964
 6113W        W 9857   3.751   6.599   0.382
 6114W        W 9858   8.862   4.293   3.211
 6115W        W 9859   2.383   3.378   1.319
 6116W        W 9860   7.593   9.580   3.063
 6117W        W 9861   9.755   9.611   3.428
 6118W        W 9862   6.589  10.026   9.759
 6119W        W 9863   3.116   4.072  11.826
 6120W        W 9864   8.894   0.959   1.714
 6121W        W 9865   7.818  10.336   2.274
 6122W        W 9866   6.207   0.292   2.990
 6123W        W 9867   5.950   3.087   3.697
 6124W        W 9868   9.936   0.786   0.491
 6125W        W 9869   3.320   8.876   9.789
 6126W        W 9870   7.575   9.952   2.039
 6127W        W 9871   8.785   2.192   0.975
 6128W        W 9872   0.440   8.506   9.982
 6129W        W 9873   3.267   3.596  11.390
 6130W        W 9874   1.422   4.661  10.632
 6131W        W 9875   3.849   1.834   1.254
 6132W        W 9876   5.893   3.612   3.760
 6133W        W 9877   1.322   5.061   0.221
 6134W        W 9878   1.310   3.280   9.097
 6135W        W 9879   7.638   7.525   0.767
 6136W        W 9880   3.818   4.441   2.247
 6137W        W 9881   6.160   7.699   3.438
 6138W        W 9882   6.586   9.462   0.160
 6139W        W 9883   8.068   0.721  10.204
 6140W        W 9884   4.160   7.653  11.096
 6141W        W 9885   6.691   0.686   1.735
 6142W        W 9886   7.707   8.662   0.087
 6143W        W 9887   7.418   8.385   9.080
 6144W        W 9888   8.473   2.832   3.227
 6145W        W 9889   9.306   5.718  11.157
 6146W        W 9890   3.738   4.365   9.064
 6147W        W 9891   3.328   8.509   2.270
 6148W        W 9892   1.783   8.967   1.735
 6149W        W 9893   9.798   8.974   8.951
 6150W        W 9894   5.614   0.601   0.821
 6151W        W 9895   3.719   8.360   0.775
 6152W        W 9896   8.453   2.399   9.772
 6153W        W 9897   2.328   9.795  11.038
 6154W        W 9898   8.608   1.187  11.402
 6155W        W 9899   4.042   0.761   2.890
 6156W        W 9900   6.958   7.457   0.229
 6157W        W 9901   6.533   8.298  11.859
 6158W        W 9902   4.115   4.159   2.842
 6159W        W 9903   3.319   4.594   2.165
 6160W        W 9904   7.322  10.275   2.379
 6161W        W 9905   6.024   6.687   0.282
 6162W        W 9906   3.370   4.487   9.388
 6163W        W 9907   6.547   1.693   9.172
 6164W        W 9908   5.790   5.961   0.737
 6165W        W 9909   0.212   3.412   3.010
 6166W        W 9910   9.990   1.741   0.946
 6167W        W 9911   8.384   1.445   3.156
 6168W        W 9912   6.774   0.755  10.218
 6169W        W 9913   8.835   9.370   3.462
 6170W        W 9914   4.891   2.704   3.162
 6171W        W 9915   0.409   9.568   0.266
 6172W        W 9916   4.821   2.808   1.439
 6173W        W 9917   7.473   3.738   3.345
 6174W        W 9918   6.088   0.700  11.793
 6175W        W 9919   5.961   9.367   2.214
 6176W        W 9920   8.759   2.268  10.586
 6177W        W 9921   7.607   4.121  10.884
 6178W        W 9922   9.067   8.458  11.347
 6179W        W 9923   7.429   6.139   2.240
 6180W        W 9924   2.587   7.477   1.478
 6181W        W 9925   5.267   6.464   0.673
 6182W        W 9926   1.611   9.882  11.538
 6183W        W 9927   0.857   7.527   9.795
 6184W        W 9928  10.012   5.351   0.039
 6185W        W 9929  10.316   2.320   0.049
 6186W        W 9930   6.838   6.126  10.102
 6187W        W 9931   2.458  10.366   0.733
 6188W        W 9932   3.353   2.821  10.417
 6189W        W 9933   0.344   0.286   1.467
 6190W        W 9934   5.253   6.253  11.532
 6191W        W 9935   1.793   1.661   2.836
 6192W        W 9936   3.263   7.922   9.542
 6193W        W 9937   5.323   6.048   0.342
 6194W        W 9938   1.095   3.157   9.969
 6195W        W 9939   7.344  10.163   0.185
 6196W        W 9940   7.458   0.758   2.505
 6197W        W 9941   3.663  10.430  11.726
 6198W        W 9942   0.423   6.128  10.313
 6199W        W 9943   2.730   0.804  10.558
 6200W        W 9944   4.052   5.075  11.959
 6201W        W 9945   1.099   9.844   3.787
 6202W        W 9946  10.050   9.006   1.388
 6203W        W 9947   5.790   1.579   1.018
 6204W        W 9948   1.499   5.994   0.294
 6205W        W 9949   9.570   8.132  10.297
 6206W        W 9950   4.722   4.118   3.654
 6207W        W 9951   7.301   2.807   9.949
 6208W        W 9952   5.731   7.346  10.871
 6209W        W 9953   1.160   6.133   0.715
 6210W        W 9954   2.721   5.545   3.546
 6211W        W 9955  10.201   4.269   3.366
 6212W        W 9956   2.340   5.232   9.858
 6213W        W 9957   6.767   0.303   9.993
 6214W        W 9958   5.146   3.868  10.273
 6215W        W 9959   3.780   3.740   2.887
 6216W        W 9960   0.291   6.479   2.415
 6217W        W 9961   8.804   1.386   2.017
 6218W        W 9962  10.142   1.616   3.018
 6219W        W 9963   7.010   6.525   2.784
 6220W        W 9964   9.508   1.326   9.028
 6221W        W 9965   3.811   2.657   3.469
 6222W        W 9966   6.485   8.800  11.918
 6223W        W 9967   2.036   1.697   9.585
 6224W        W 9968   3.284   8.564   0.957
 6225W        W 9969  10.426   7.632   1.872
 6226W        W 9970   1.194   2.125   0.351
 6227W        W 9971   6.205   4.204   2.619
 6228W        W 9972   9.603   8.493  11.383
 6229W        W 9973   8.433   2.615  11.442
 6230W        W 9974   9.328   7.339  10.601
 6231W        W 9975   3.728   9.289   3.373
 6232W        W 9976   5.940   8.091   3.191
 6233W        W 9977   3.500   4.805   0.979
 6234W        W 9978   4.313   9.834   9.370
 6235W        W 9979   2.244   3.500   9.333
 6236W        W 9980   7.478   1.915   3.404
 6237W        W 9981   2.283   8.955   9.033
 6238W        W 9982   9.450   1.748  10.004
 6239W        W 9983   5.927   7.363  11.784
 6240W        W 9984   7.876  10.358  11.450
 6241W        W 9985   0.609   8.194   1.999
 6242W        W 9986  10.339   7.745   2.366
 6243W        W 9987   9.011   4.526   0.095
 6244W        W 9988   3.858   6.154   1.808
 6245W        W 9989   0.838   2.629   2.514
 6246W        W 9990  10.342   9.548  10.983
 6247W        W 9991   2.835   1.078   1.770
 6248W        W 9992   9.669   5.974  10.018
 6249W        W 9993   9.456   1.198  11.427
 6250W        W 9994   1.498   5.466   3.473
 6251W        W 9995   1.442   3.214   1.649
 6252W        W 9996   5.984   9.815   2.456
 6253W        W 9997   5.782   8.726   2.722
 6254W        W 9998   7.181   0.809   1.610
 6255W        W 9999   6.952   5.646   9.359
 6256W        W10000   7.620   1.564  10.541
 6257W        W10001   2.092   3.001   3.000
 6258W        W10002   8.860  10.198   2.237
 6259W        W10003   1.007   7.934  10.508
 6260W        W10004   0.408   6.663   9.842
 6261W        W10005   4.081   7.024  10.832
 6262W        W10006  10.021   0.892  11.449
 6263W        W10007   5.175   1.682   9.253
 6264W        W10008   5.057   6.083  10.062
 6265W        W10009   2.832   7.651  10.609
 6266W        W10010   3.549   7.713   8.561
 6267W        W10011   6.457   4.163   3.138
 6268W        W10012   5.918  10.348   2.458
 6269W        W10013  10.253   4.112   9.194
 6270W        W10014   9.797   5.171   3.003
 6271W        W10015   9.862   3.190   1.995
 6272W        W10016   1.820   9.404   9.490
 6273W        W10017   0.394   0.833  11.564
 6274W        W10018  10.293   3.253   2.490
 6275W        W10019   9.286   6.604   3.592
 6276W        W10020  10.493   4.713   9.089
 6277W        W10021   0.798   1.461   9.463
 6278W        W10022   8.085   7.903   1.291
 6279W        W10023   6.267   7.863   1.746
 6280W        W10024   9.240   0.755  10.941
 6281W        W10025   6.519   6.881  10.093
 6282W        W10026   7.132  10.290   3.347
 6283W        W10027   4.295   4.290   2.385
 6284W        W10028   0.901   0.800  10.745
 6285W        W10029   0.934   4.639   3.527
 6286W        W10030   8.446   7.698   2.319
 6287W        W10031   0.451   2.549   0.693
 6288W        W10032   8.559   7.499   1.869
 6289W        W10033   2.274   1.428   2.772
 6290W        W10034   9.551   1.951  10.480
 6291W        W10035   9.089   7.642  11.900
 6292W        W10036   9.384   8.428   1.267
 6293W        W10037   1.346   8.012   1.424
 6294W        W10038   4.417   8.933   2.876
 6295W        W10039   6.747   1.358  11.030
 6296W        W10040   0.412   3.739   2.058
 6297W        W10041   9.365   6.626   8.916
 6298W        W10042  10.438   2.269  11.565
 6299W        W10043   1.605   0.820  11.895
 6300W        W10044   5.212   3.333  10.299
 6301W        W10045   3.785   7.396  11.886
 6302W        W10046  10.489   3.586  10.436
 6303W        W10047   1.923   0.044   0.057
 6304W        W10048   7.442   1.667   0.268
 6305W        W10049   7.424   9.287   0.685
 6306W        W10050  10.465   9.608   9.071
 6307W        W10051   7.827   6.954   2.412
 6308W        W10052   2.664   1.660   3.168
 6309W        W10053   7.088   0.615   2.136
 6310W        W10054  10.234   4.663   9.535
 6311W        W10055   7.936   5.650  11.301
 6312W        W10056   5.750   0.764   1.964
 6313W        W10057  10.212   5.804   8.559
 6314W        W10058   1.730   1.193  10.359
 6315W        W10059   9.442   1.598  11.811
 6316W        W10060   8.159   4.551  11.676
 6317W        W10061   1.617   8.954  10.932
 6318W        W10062   7.362   4.334  10.467
 6319W        W10063  10.480   1.906   0.977
 6320W        W10064   2.380   9.101   9.530
 6321W        W10065   6.788   5.091  10.612
 6322W        W10066   7.435   3.635  10.942
 6323W        W10067   8.923   7.477  11.406
 6324W        W10068   7.902   5.131   9.528
 6325W        W10069   7.410   4.239   2.153
 6326W        W10070   1.928   8.433   0.831
 6327W        W10071   4.565   0.705   9.555
 6328W        W10072   9.970   1.791  11.938
 6329W        W10073   3.697   9.098   9.524
 6330W        W10074   2.204   9.928  10.080
 6331W        W10075   4.814   1.826   2.421
 6332W        W10076   9.071   3.723   0.764
 6333W        W10077   0.369   3.180   1.948
 6334W        W10078  10.463   5.068   0.081
 6335W        W10079   8.877   6.484  11.256
 6336W        W10080   8.862   8.498   8.893
 6337W        W10081   1.456   6.992   2.312
 6338W        W10082   2.625   7.320   8.156
 6339W        W10083   0.311   7.643  11.356
 6340W        W10084   2.224  10.209   0.292
 6341W        W10085   4.067   1.810   1.711
 6342W        W10086   5.627   2.246   2.474
 6343W        W10087   7.577   7.504   9.448
 6344W        W10088   5.077   2.123   9.038
 6345W        W10089   9.043   6.191  11.986
 6346W        W10090   5.330   6.751   3.587
 6347W        W10091   9.282   3.828   9.657
 6348W        W10092   5.355   4.758  10.629
 6349W        W10093   2.172   9.841   1.925
 6350W        W10094   3.481   6.633   1.808
 6351W        W10095   6.635   3.279   9.626
 6352W        W10096   5.997   0.750   9.066
 6353W        W10097   1.622   1.793   3.318
 6354W        W10098   4.327  10.418   8.651
 6355W        W10099   4.608   7.623  11.960
 6356W        W10100   2.256   6.471  11.100
 6357W        W10101   1.004  10.441  11.058
 6358W        W10102   2.192   2.040  11.629
 6359W        W10103   2.382   3.343   1.872
 6360W        W10104   6.556   1.979   3.513
 6361W        W10105   5.114   6.898   1.830
 6362W        W10106   5.440   2.550   0.836
 6363W        W10107   1.854   6.736   8.852
 6364W        W10108   5.584   9.758   0.453
 6365W        W10109   1.868   2.289   1.864
 6366W        W10110   6.486   4.039  11.369
 6367W        W10111   5.052  10.367  10.274
 6368W        W10112   8.008   4.574   3.452
 6369W        W10113   8.509   3.199   8.701
 6370W        W10114   1.337  10.461   8.782
 6371W        W10115  10.336  10.047   9.604
 6372W        W10116   0.802   0.724   2.702
 6373W        W10117   5.976   9.065   1.226
 6374W        W10118   4.309   0.438   0.208
 6375W        W10119   1.076   4.725  10.999
 6376W        W10120   7.566   6.389  10.885
 6377W        W10121   0.427   5.653  10.507
 6378W        W10122   7.697   5.760   3.133
 6379W        W10123   4.012   9.622   2.432
 6380W        W10124   1.787   5.083   0.426
 6381W        W10125   1.659   7.576   9.241
 6382W        W10126   6.177   2.802   1.642
 6383W        W10127   3.183  10.206  10.007
 6384W        W10128   6.634   8.867  10.531
 6385W        W10129   8.922  10.494   3.217
 6386W        W10130   6.272   7.064   2.314
 6387W        W10131   1.415   2.258   3.225
 6388W        W10132   8.781  10.003  10.024
 6389W        W10133   1.560   1.193   0.396
 6390W        W10134   3.636   8.964   0.072
 6391W        W10135   5.940   7.181   8.689
 6392W        W10136   8.307   4.168  11.367
 6393W        W10137   7.570   6.951  10.907
 6394W        W10138   0.027   8.436   9.594
 6395W        W10139   8.309   0.941   2.445
 6396W        W10140   9.784   7.596  11.402
 6397W        W10141  10.237   2.255   9.567
 6398W        W10142   4.012   0.928   8.463
 6399W        W10143   6.577   0.433  11.047
 6400W        W10144   7.570   1.782   8.990
 6401W        W10145   8.467   1.795   9.126
 6402W        W10146   2.689   6.113  11.547
 6403W        W10147   0.877   7.000   3.035
 6404W        W10148  10.247   5.371   2.848
 6405W        W10149   3.585   0.952   9.599
 6406W        W10150   9.930   4.945   1.719
 6407W        W10151   8.145   7.076   9.996
 6408W        W10152   7.252   8.715  11.276
 6409W        W10153   1.884  10.009  11.960
 6410W        W10154   7.910   7.600   8.042
 6411W        W10155   4.617   8.492  10.836
 6412W        W10156   3.039   8.508   1.846
 6413W        W10157   9.783   6.487   2.711
 6414W        W10158   0.827   3.764  10.355
 6415W        W10159   1.420   6.764   1.265
 6416W        W10160   5.226   1.378   0.515
 6417W        W10161  10.422   4.155   0.297
 6418W        W10162   0.676   1.662  11.170
 6419W        W10163   3.679   4.596  10.262
 6420W        W10164   4.408   2.361   9.823
 6421W        W10165   3.957   2.341   3.094
 6422W        W10166   1.153   6.676  10.286
 6423W        W10167   8.854   7.952   8.844
 6424W        W10168   0.626   8.034   9.945
 6425W        W10169   8.494  10.028   9.268
 6426W        W10170   1.333   8.726   0.618
 6427W        W10171   5.530   2.870   8.692
 6428W        W10172   4.401   8.068   1.467
 6429W        W10173   8.287   3.245   2.938
 6430W        W10174  10.360   5.163   1.514
 6431W        W10175   3.555   1.845   1.702
 6432W        W10176   0.964   6.912  11.589
 6433W        W10177   8.328   2.149   0.795
 6434W        W10178   4.612   5.992  10.948
 6435W        W10179   8.285   8.882  11.376
 6436W        W10180   1.866   9.926   2.656
 6437W        W10181   7.204   1.357  10.801
 6438W        W10182   4.629   9.598   1.851
 6439W        W10183   7.610   0.044   2.726
 6440W        W10184   6.941   6.315   0.490
 6441W        W10185   2.973   6.447   0.246
 6442W        W10186   5.141   7.158   3.310
 6443W        W10187   4.265  10.321  10.944
 6444W        W10188   0.711  10.467   2.313
 6445W        W10189   5.324   8.804   2.919
 6446W        W10190   6.080   4.208   8.375
 6447W        W10191   3.361   0.562   9.054
 6448W        W10192   0.842   4.351   1.222
 6449W        W10193   1.680   1.341  11.865
 6450W        W10194   0.554   6.641  11.472
 6451W        W10195   0.486   2.437   9.502
 6452W        W10196   8.125  10.042  11.766
 6453W        W10197   5.128   2.853  10.433
 6454W        W10198  10.479   3.786  10.952
 6455W        W10199   8.046   1.949   1.333
 6456W        W10200   6.727   2.710  10.859
 6457W        W10201   2.294   8.088   0.957
 6458W        W10202   3.175   6.633  10.821
 6459W        W10203   1.876   9.008  11.394
 6460W        W10204   6.692   9.839  10.930
 6461W        W10205   4.242   2.014  11.579
 6462W        W10206   1.641   7.026   0.523
 6463W        W10207   8.963   3.133  11.529
 6464W        W10208   1.326   0.237   1.415
 6465W        W10209   4.703   3.523   3.961
 6466W        W10210   2.322   8.752  11.341
 6467W        W10211   2.788   2.365   1.933
 6468W        W10212   1.398   5.709   0.929
 6469W        W10213   9.143   4.176  10.018
 6470W        W10214   9.831   2.359   9.275
 6471W        W10215   0.563   2.722  10.528
 6472W        W10216   0.850   2.179   2.763
 6473W        W10217   0.936   5.709   2.227
 6474W        W10218   4.859   8.662   1.202
 6475W        W10219   7.557   0.493   1.789
 6476W        W10220   2.150   6.015   0.849
 6477W        W10221   9.314   6.801   9.409
 6478W        W10222   7.023   9.755   9.500
 6479W        W10223   3.230   5.777   1.451
 6480W        W10224   8.440   4.106   1.832
 6481W        W10225   2.261   0.930   9.158
 6482W        W10226   2.416   4.534  10.809
 6483W        W10227   1.801   9.506  11.876
 6484W        W10228   4.338   8.427   8.533
 6485W        W10229   6.033   2.456   2.795
 6486W        W10230   7.260   0.386  10.923
 6487W        W10231   0.161  10.250   1.452
 6488W        W10232   0.263  10.213   2.213
 6489W        W10233   1.321   4.771   0.660
 6490W        W10234   8.065   9.763   1.865
 6491W        W10235   8.879   3.008   1.949
 6492W        W10236   7.425   9.484   1.171
 6493W        W10237   6.261   9.634   9.557
 6494W        W10238   3.593   9.364   9.950
 6495W        W10239   1.684   2.459   1.386
 6496W        W10240   7.385   7.069   9.642
 6497W        W10241   4.255   7.468   9.472
 6498W        W10242   1.909   7.259   2.404
 6499W        W10243   6.380   7.379   0.832
 6500W        W10244   1.396   9.332   8.747
 6501W        W10245   4.611   4.142   1.703
 6502W        W10246   6.657   9.519   9.861
 6503W        W10247   0.510   5.536   3.332
 6504W        W10248   2.278  10.304  11.775
 6505W        W10249   6.075   1.450   1.456
 6506W        W10250   6.210   5.202   0.508
 6507W        W10251   5.289   6.115   8.240
 6508W        W10252   0.913   3.871  11.263
 6509W        W10253   3.080   7.604   1.386
 6510W        W10254   7.511   5.275  11.931
 6511W        W10255   5.718   1.283  11.292
 6512W        W10256   7.810   2.267   1.836
 6513W        W10257   4.494   7.695   3.236
 6514W        W10258   3.808   4.527  10.764
 6515W        W10259   9.523   5.646  10.625
 6516W        W10260   5.982   2.323   1.736
 6517W        W10261   2.124   7.482   8.974
 6518W        W10262   0.186   7.336   1.517
 6519W        W10263   1.997   6.039   0.346
 6520W        W10264   5.662   4.364  10.514
 6521W        W10265   2.218   8.211   3.093
 6522W        W10266   7.440   1.446   2.183
 6523W        W10267   2.381   3.246   8.909
 6524W        W10268   6.437   5.695   1.400
 6525W        W10269   5.091   9.973   0.433
 6526W        W10270   4.626   2.357   2.350
 6527W        W10271  10.084   9.524   0.675
 6528W        W10272   4.199   7.654   2.305
 6529W        W10273   8.948   6.641   9.725
 6530W        W10274   7.891   8.458  10.396
 6531W        W10275   8.142   3.655   1.916
 6532W        W10276   8.346   5.243  11.371
 6533W        W10277   3.283   2.293   1.804
 6534W        W10278   0.370   9.481  11.749
 6535W        W10279   5.970   3.309   0.426
 6536W        W10280   3.847   6.542   1.444
 6537W        W10281   5.586   7.545   2.364
 6538W        W10282   7.469   6.049   0.335
 6539W        W10283   6.566   9.852  10.267
 6540W        W10284   7.394   0.661   0.324
 6541W        W10285   0.845   7.327   1.745
 6542W        W10286   5.083   3.730   3.682
 6543W        W10287   0.996   9.491   0.816
 6544W        W10288   5.041   5.144   2.409
 6545W        W10289   5.169   6.555   3.134
 6546W        W10290   4.754   6.255  11.388
 6547W        W10291   9.168   7.486   3.893
 6548W        W10292  10.313   4.118  11.724
 6549W        W10293   3.584   2.702   9.001
 6550W        W10294   2.094   5.116   0.840
 6551W        W10295   6.586   0.682   3.483
 6552W        W10296   1.781   9.992   3.173
 6553W        W10297   6.714   1.706  11.452
 6554W        W10298   1.208   5.150  10.767
 6555W        W10299   9.825   0.820   2.740
 6556W        W10300   0.699   9.375   3.269
 6557W        W10301   6.087   9.174  10.501
 6558W        W10302   7.415   1.171   0.332
 6559W        W10303   9.900   2.657   1.322
 6560W        W10304   9.729   4.281   2.626
 6561W        W10305   9.073   6.537   1.647
 6562W        W10306   8.844   3.120   2.996
 6563W        W10307   3.696   2.277   9.250
 6564W        W10308   1.274   6.245   9.956
 6565W        W10309   0.291  10.002   2.674
 6566W        W10310   8.977   0.753   8.516
 6567W        W10311   8.487   3.208  11.390
 6568W        W10312  10.375   0.396  10.475
 6569W        W10313   5.076   5.085   2.914
 6570W        W10314   6.464   0.864   9.826
 6571W        W10315   9.401   9.057   9.255
 6572W        W10316   8.947   5.528  10.267
 6573W        W10317  10.490   7.158  11.728
 6574W        W10318   3.841   1.903   2.169
 6575W        W10319   4.432   8.208   3.188
 6576W        W10320   7.937   8.381   1.206
 6577W        W10321   5.545   2.678   2.940
 6578W        W10322   5.185   4.017  11.255
 6579W        W10323   7.979   7.889   0.354
 6580W        W10324   7.168   9.676  11.023
 6581W        W10325   7.600   4.949   2.762
 6582W        W10326   5.690  10.417   9.454
 6583W        W10327   0.047   7.659   1.103
 6584W        W10328   6.219   1.581  11.517
 6585W        W10329   0.493   9.281   9.630
 6586W        W10330   0.489  10.396   1.797
 6587W        W10331   5.620   2.249   3.465
 6588W        W10332   8.339   4.948   3.450
 6589W        W10333   0.816   4.854   1.018
 6590W        W10334   4.599   1.304   3.067
 6591W        W10335   5.507   0.862   9.005
 6592W        W10336   5.139   7.558   4.008
 6593W        W10337   6.110   1.907   2.382
 6594W        W10338   2.199   2.430   2.854
 6595W        W10339   5.232   1.885   3.352
 6596W        W10340   8.682   6.931   0.193
 6597W        W10341   9.452   0.486   2.838
 6598W        W10342   9.395   3.083  11.779
 6599W        W10343   0.903   4.193   8.414
 6600W        W10344   4.790   5.605   0.802
 6601W        W10345   2.345   8.097   9.285
 6602W        W10346   5.000   5.623   2.161
 6603W        W10347  10.029   7.900  11.720
 6604W        W10348  10.202   8.685   8.713
 6605W        W10349   6.702   8.063   0.967
 6606W        W10350   1.289   9.463   9.762
 6607W        W10351   0.659   4.352  10.364
 6608W        W10352   5.631   3.093   4.098
 6609W        W10353   1.489   6.299  10.446
 6610W        W10354   8.209   4.218   8.158
 6611W        W10355   6.923   4.786  11.365
 6612W        W10356   0.055   8.850   1.206
 6613W        W10357   7.687   4.140   8.851
 6614W        W10358   9.041   5.273   1.479
 6615W        W10359   0.936   9.379   8.980
 6616W        W10360   6.921   9.068   2.362
 6617W        W10361   3.070   3.706   8.780
 6618W        W10362   4.134   2.634  10.140
 6619W        W10363   4.329   1.926   2.318
 6620W        W10364   0.380   9.061   2.991
 6621W        W10365   1.846   4.124  11.241
 6622W        W10366   9.296   7.041   0.948
 6623W        W10367   6.130   0.385   2.008
 6624W        W10368   7.464   3.771   1.199
 6625W        W10369   0.774   8.111   1.541
 6626W        W10370   5.588   3.873  10.510
 6627W        W10371  10.286   8.715   9.223
 6628W        W10372   8.078  10.289   2.708
 6629W        W10373   2.308   5.277   9.097
 6630W        W10374   8.558   6.110  11.830
 6631W        W10375   4.770   8.013   1.835
 6632W        W10376   2.367   4.976   8.616
 6633W        W10377   0.334   2.133  10.310
 6634W        W10378   6.424   6.524   9.384
 6635W        W10379   6.095  10.207  10.411
 6636W        W10380   8.884   0.391   9.656
 6637W        W10381   1.886   7.862   3.277
 6638W        W10382   2.628   6.061   2.374
 6639W        W10383   5.216   2.886   1.134
 6640W        W10384   2.806   1.517  11.202
 6641W        W10385   3.505   1.032  10.965
 6642W        W10386   5.523   3.821   3.446
 6643W        W10387  10.068   3.405  11.795
 6644W        W10388   3.095   9.005   1.235
 6645W        W10389   1.691   8.050  10.995
 6646W        W10390   8.757   6.011  10.448
 6647W        W10391   7.946   5.876   9.986
 6648W        W10392   3.519   1.923  11.022
 6649W        W10393   5.283   9.025   3.410
 6650W        W10394   9.344   9.877  11.643
 6651W        W10395   4.977   9.709   9.495
 6652W        W10396   3.397   5.940  11.334
 6653W        W10397   8.492   0.983  10.003
 6654W        W10398   5.249   2.629  10.931
 6655W        W10399   7.961   9.860   1.328
 6656W        W10400   4.870   7.806   2.754
 6657W        W10401   1.420   1.338  10.794
 6658W        W10402   4.202   8.701   2.293
 6659W        W10403   6.530   2.744   0.397
 6660W        W10404   2.242   5.617  10.961
 6661W        W10405   5.978   5.160  10.647
 6662W        W10406   1.444   9.723   0.878
 6663W        W10407   7.380   2.850   3.216
 6664W        W10408   1.904   5.394   1.249
 6665W        W10409   4.592   9.457  11.442
 6666W        W10410  10.093   0.010  10.963
 6667W        W10411   7.406   0.335  11.818
 6668W        W10412   3.698   5.852  10.938
 6669W        W10413   0.775   0.836   1.761
 6670W        W10414   3.956   1.811   2.668
 6671W        W10415  10.069   3.668   9.400
 6672W        W10416   9.453   6.022  11.750
 6673W        W10417   4.007   0.091   0.446
 6674W        W10418   7.949   9.223   1.846
 6675W        W10419   7.503   3.540  11.459
 6676W        W10420   6.201   4.710   2.569
 6677W        W10421  10.211   7.461   1.434
 6678W        W10422   8.040   1.300  10.621
 6679W        W10423   6.722   3.895   2.801
 6680W        W10424   2.600   9.935  10.471
 6681W        W10425   9.399   2.029   9.569
 6682W        W10426   0.231   0.677   1.826
 6683W        W10427   8.928   6.078   1.838
 6684W        W10428   4.609   5.961   9.844
 6685W        W10429   7.047   6.035   2.622
 6686W        W10430   1.468   6.249   9.488
 6687W        W10431   2.806   1.877   2.169
 6688W        W10432   7.308   2.341  10.267
 6689W        W10433   3.350   6.315  10.463
 6690W        W10434   0.808   4.090  10.770
 6691W        W10435   9.678   5.883   9.081
 6692W        W10436   8.538   6.577   2.834
 6693W        W10437   2.136   0.473   1.796
 6694W        W10438   9.455  10.244   1.678
 6695W        W10439   9.812   8.161   1.232
 6696W        W10440   6.340   9.131   9.639
 6697W        W10441   3.180   8.780   8.775
 6698W        W10442   1.738   2.665   2.734
 6699W        W10443   9.336   8.505   0.767
 6700W        W10444   4.287   0.314   3.218
 6701W        W10445   2.215   5.238   2.387
 6702W        W10446   1.755   0.698   9.844
 6703W        W10447   3.046   2.295  11.610
 6704W        W10448   2.531   4.050   8.504
 6705W        W10449   8.011   9.576  11.923
 6706W        W10450   5.058   0.800  10.417
 6707W        W10451   9.353   3.037   2.285
 6708W        W10452   1.460   8.419   9.784
 6709W        W10453   2.705   4.210   1.000
 6710W        W10454  10.389   1.272   9.481
 6711W        W10455   7.136   0.228   2.615
 6712W        W10456   1.388   6.972  11.231
 6713W        W10457   5.893   5.741   1.959
 6714W        W10458   2.732   7.017   1.344
 6715W        W10459   2.186   1.447  10.452
 6716W        W10460   4.949   4.585  11.964
 6717W        W10461   4.250   3.294   9.497
 6718W        W10462   8.068   0.182  10.091
 6719W        W10463   8.972   8.375   1.553
 6720W        W10464   6.670   2.742   1.479
 6721W        W10465   4.378   8.763   0.370
 6722W        W10466   2.339   9.055   2.533
 6723W        W10467   1.274   0.921   1.638
 6724W        W10468   7.138   5.700  11.114
 6725W        W10469   8.388   2.346   3.021
 6726W        W10470  10.156  10.461   9.323
 6727W        W10471   1.195   9.536   2.607
 6728W        W10472   2.634   2.849   9.895
 6729W        W10473   3.345   7.640  10.794
 6730W        W10474   0.975   1.073   9.751
 6731W        W10475   3.881   8.712   0.433
 6732W        W10476   6.087  10.186  11.829
 6733W        W10477   5.247   9.065   2.488
 6734W        W10478   5.145   2.411   2.250
 6735W        W10479   7.070   6.178   1.830
 6736W        W10480   1.365   0.207   3.251
 6737W        W10481   4.997   7.626   3.513
 6738W        W10482   5.212   5.678   9.820
 6739W        W10483   7.576   3.271   3.553
 6740W        W10484  10.164   0.340   2.173
 6741W        W10485   6.519   9.269   1.578
 6742W        W10486   5.101   9.977   9.953
 6743W        W10487   3.763   0.506   1.479
 6744W        W10488   5.728   5.057  11.986
 6745W        W10489   4.201   1.900   9.758
 6746W        W10490   8.061   5.239   0.694
 6747W        W10491   2.171   4.275   8.961
 6748W        W10492   7.050   3.309   9.906
 6749W        W10493   7.010   0.616   9.105
 6750W        W10494   5.647   7.326  10.107
 6751W        W10495   5.924   0.896  11.004
 6752W        W10496   4.983   7.063   8.531
 6753W        W10497   1.759   0.454   3.469
 6754W        W10498   5.533   6.001  11.883
 6755W        W10499   7.435   5.913   9.875
 6756W        W10500   9.227   4.159   9.108
 6757W        W10501   4.782   2.699   3.656
 6758W        W10502   5.134   5.110   3.425
 6759W        W10503   3.410   3.312   0.318
 6760W        W10504   0.889   4.586   9.968
 6761W        W10505   2.832   6.175   9.978
 6762W        W10506   8.298   5.076  10.511
 6763W        W10507   2.342   9.463   1.107
 6764W        W10508   6.171   0.813   3.194
 6765W        W10509   7.959   4.054   1.639
 6766W        W10510   1.713   7.419   3.497
 6767W        W10511   8.924   8.961   9.125
 6768W        W10512   5.147   4.016   1.899
 6769W        W10513  10.234   0.057  11.844
 6770W        W10514   7.935   6.101   0.515
 6771W        W10515   1.851   4.670   1.882
 6772W        W10516   9.886   8.625   2.044
 6773W        W10517   0.582   5.476   9.313
 6774W        W10518   4.038   2.763  10.995
 6775W        W10519   4.720   1.534   9.429
 6776W        W10520   8.749   0.016  10.015
 6777W        W10521   1.370   5.931   9.085
 6778W        W10522   0.431   3.975  11.460
 6779W        W10523   1.314   7.507   1.677
 6780W        W10524   8.067   2.774   9.227
 6781W        W10525   4.946   1.014  10.863
 6782W        W10526   4.099  10.416  10.448
 6783W        W10527   2.661   2.907   1.769
 6784W        W10528   3.212   3.635   9.289
 6785W        W10529   3.700   3.097   2.683
 6786W        W10530   6.614   7.996  10.755
 6787W        W10531   0.281   5.021   2.353
 6788W        W10532   7.023   6.438   2.275
 6789W        W10533   8.315   8.430  10.085
 6790W        W10534   0.422   3.744   9.059
 6791W        W10535   9.712   2.319  10.808
 6792W        W10536   2.222   2.939  10.183
 6793W        W10537   0.726   4.872  11.339
 6794W        W10538   2.267   1.940   2.697
 6795W        W10539   1.000   5.448   2.698
 6796W        W10540   3.591   5.367   1.303
 6797W        W10541   5.669   0.497   8.670
 6798W        W10542   5.616   0.385  10.154
 6799W        W10543   5.538   8.003   0.774
 6800W        W10544   5.263   0.786   1.167
 6801W        W10545   1.273   4.652   1.160
 6802W        W10546   1.451   6.596   0.784
 6803W        W10547   5.619   8.577   9.146
 6804W        W10548   4.281   2.221   2.732
 6805W        W10549   9.583   5.128  11.840
 6806W        W10550   0.685   0.317   0.953
 6807W        W10551   9.472   1.427   0.613
 6808W        W10552   6.444   3.688   9.410
 6809W        W10553   5.028   8.186   2.389
 6810W        W10554   9.365   1.235   2.885
 6811W        W10555   3.295   7.401   0.720
 6812W        W10556   7.989   3.878   8.496
 6813W        W10557   5.707   1.715   3.477
 6814W        W10558   8.435   0.822  10.541
 6815W        W10559   0.180   2.048   9.371
 6816W        W10560   3.855   7.588   8.985
 6817W        W10561   0.983   6.597  11.195
 6818W        W10562   6.370   8.785   1.673
 6819W        W10563   7.138   8.200  11.055
 6820W        W10564   0.311   9.759   9.568
 6821W        W10565   8.387   4.614   9.871
 6822W        W10566   2.112  10.399   2.681
 6823W        W10567   5.554   1.670  10.032
 6824W        W10568   0.533  10.485   3.185
 6825W        W10569   5.069   7.463   0.066
 6826W        W10570   2.667  10.316   9.526
 6827W        W10571   3.738   7.159   0.336
 6828W        W10572   4.025   5.691   1.382
 6829W        W10573   4.055   5.804   0.554
 6830W        W10574   1.366   0.485   8.693
 6831W        W10575   4.760   8.584   3.052
 6832W        W10576   9.055   5.385   2.357
 6833W        W10577   4.738   6.466   9.921
 6834W        W10578   8.471   9.829   1.515
 6835W        W10579   1.403   4.677   2.674
 6836W        W10580   1.671   5.512  10.179
 6837W        W10581   6.365   4.648   1.016
 6838W        W10582   3.002   7.686   8.157
 6839W        W10583   7.356   6.180   1.282
 6840W        W10584   6.894   1.301   9.364
 6841W        W10585   0.881   8.819  11.383
 6842W        W10586   3.069   0.301  11.345
 6843W        W10587   5.104   5.222  10.605
 6844W        W10588   3.505   0.043   2.275
 6845W        W10589   3.686  10.358   1.266
 6846W        W10590   8.975   2.751   9.753
 6847W        W10591   7.056   9.413   0.362
 6848W        W10592   7.654   8.381   1.921
 6849W        W10593   2.826   6.409   0.729
 6850W        W10594   5.739   0.894   3.517
 6851W        W10595   3.138   5.522   9.240
 6852W        W10596   6.198   3.463  10.345
 6853W        W10597   2.172   6.290   2.359
 6854W        W10598   6.481   9.719   0.603
 6855W        W10599   1.966   3.529   3.306
 6856W        W10600   2.671   9.990   0.417
 6857W        W10601   1.768   0.906  10.818
 6858W        W10602   4.176   1.423   1.281
 6859W        W10603   3.477   9.043  11.615
 6860W        W10604   1.070   2.744  10.705
 6861W        W10605   0.764   6.023   9.016
 6862W        W10606   0.573   8.615   0.502
 6863W        W10607   7.638   7.872   1.930
 6864W        W10608   8.934   9.322   2.964
 6865W        W10609   6.315   7.561   2.156
 6866W        W10610   0.388   6.384   1.308
 6867W        W10611   9.796   4.931   0.271
 6868W        W10612  10.252  10.051  10.413
 6869W        W10613   6.494   3.188   0.045
 6870W        W10614   0.695   1.329   2.333
 6871W        W10615   6.918   2.204   2.721
 6872W        W10616   6.727   5.227   2.171
 6873W        W10617   7.936   8.404   8.711
 6874W        W10618   3.163   4.469   0.734
 6875W        W10619   0.769   6.292   0.373
 6876W        W10620   1.502   2.455   0.579
 6877W        W10621   7.095   4.733   8.594
 6878W        W10622   6.836   7.065  10.442
 6879W        W10623   1.392   6.421   8.987
 6880W        W10624   2.337   9.001   2.016
 6881W        W10625   9.811   4.236   1.222
 6882W        W10626   9.576   8.467   9.931
 6883W        W10627   8.801   0.424  11.112
 6884W        W10628   2.088   6.909  10.507
 6885W        W10629   3.872   5.717  11.429
 6886W        W10630   1.993   7.646  10.901
 6887W        W10631   9.847   8.357   0.749
 6888W        W10632   4.493   4.530   1.989
 6889W        W10633   4.935  10.471   2.494
 6890W        W10634   9.725   7.946   9.844
 6891W        W10635   7.704   1.336  11.935
 6892W        W10636   7.586   9.149  10.240
 6893W        W10637  10.388   2.491   1.459
 6894W        W10638   0.482   0.713  10.452
 6895W        W10639   2.124   6.470   0.109
 6896W        W10640   4.177   9.793   1.982
 6897W        W10641   7.997   8.846  10.081
 6898W        W10642   2.249   6.903  11.499
 6899W        W10643   7.079   4.494   2.426
 6900W        W10644   4.625   4.096   2.720
 6901W        W10645   8.934   0.355   2.817
 6902W        W10646   9.012   1.816   1.189
 6903W        W10647   9.430   2.737  10.898
 6904W        W10648   0.372   7.125  11.389
 6905W        W10649   6.994   3.619   1.076
 6906W        W10650   3.087   0.178   8.828
 6907W        W10651   9.876   9.948   2.416
 6908W        W10652   9.600   8.166   9.380
 6909W        W10653   5.035   4.111   1.420
 6910W        W10654   9.709   9.231   0.844
 6911W        W10655   6.522   1.237   0.389
 6912W        W10656   1.408   7.369   0.155
 6913W        W10657  10.125   9.072   2.179
 6914W        W10658  10.417   6.938   1.701
 6915W        W10659   2.522   0.504   8.990
 6916W        W10660   0.430   1.212   1.864
 6917W        W10661   3.328   7.569  11.774
 6918W        W10662   8.863   0.911   2.245
 6919W        W10663   4.099   4.537   3.205
 6920W        W10664   8.911   1.158   3.800
 6921W        W10665   2.809   5.553   1.238
 6922W        W10666   8.464   6.159  10.841
 6923W        W10667   9.428   7.510   1.753
 6924W        W10668   1.662   5.078  10.454
 6925W        W10669   5.573   2.252  11.686
 6926W        W10670   2.713  10.461  10.027
 6927W        W10671   9.065   9.031   9.660
 6928W        W10672   7.227   4.049   3.748
 6929W        W10673   3.880   1.045  11.421
 6930W        W10674   2.618   1.633  10.713
 6931W        W10675   0.677   5.808   2.889
 6932W        W10676   7.609   9.121   1.497
 6933W        W10677   5.976   9.920   8.606
 6934W        W10678   6.814   6.156   3.086
 6935W        W10679   6.353   2.352   9.392
 6936W        W10680   6.330   4.348  10.028
 6937W        W10681   7.167   0.920  10.503
 6938W        W10682   7.902   0.841  11.237
 6939W        W10683   3.097   3.216   1.164
 6940W        W10684   8.384   1.383   1.702
 6941W        W10685   9.129   0.776  11.895
 6942W        W10686   7.912   1.273   0.984
 6943W        W10687   5.328   5.680   0.682
 6944W        W10688   4.559   5.154   0.620
 6945W        W10689   9.679   3.182  10.692
 6946W        W10690   3.857   4.917   1.355
 6947W        W10691   8.806   0.423  11.620
 6948W        W10692   2.583   2.460   1.296
 6949W        W10693   9.432  10.019   1.175
 6950W        W10694   5.256   7.004  11.992
 6951W        W10695   5.831   6.818   3.717
 6952W        W10696   9.448   2.854   9.897
 6953W        W10697   9.032   4.052  11.881
 6954W        W10698   6.925   2.420   0.751
 6955W        W10699   4.855   2.133   1.934
 6956W        W10700   2.458   8.303   8.255
 6957W        W10701  10.020   6.865  10.909
 6958W        W10702   1.756   7.690   1.525
 6959W        W10703   2.832   9.934  10.923
 6960W        W10704   1.130   7.178   1.353
 6961W        W10705   1.929   7.443   0.425
 6962W        W10706  10.204   3.146  10.351
 6963W        W10707   4.588   1.651  11.535
 6964W        W10708   3.559   6.350  11.025
 6965W        W10709   7.196   6.571   8.865
 6966W        W10710   2.371   8.731   0.417
 6967W        W10711   0.288   9.695   2.273
 6968W        W10712   2.330   7.456   0.760
 6969W        W10713   0.187   2.680  11.802
 6970W        W10714   6.036   8.199  11.991
 6971W        W10715   9.320   1.743  11.327
 6972W        W10716   5.028   0.530  10.969
 6973W        W10717   9.796   6.723   8.635
 6974W        W10718   1.697   7.848   0.274
 6975W        W10719   8.004   9.863   2.372
 6976W        W10720   4.781   1.640   8.364
 6977W        W10721  10.048   1.425   1.746
 6978W        W10722   6.421   8.038   9.807
 6979W        W10723  10.432   5.599  10.503
 6980W        W10724   7.075   9.918   1.280
 6981W        W10725   3.048   4.608   9.014
 6982W        W10726   5.344   2.876   2.085
 6983W        W10727   1.213   7.991   0.876
 6984W        W10728   8.989   3.966   2.867
 6985W        W10729   1.277   1.951  11.343
 6986W        W10730   7.111   1.125   2.408
 6987W        W10731   5.941   1.585   2.804
 6988W        W10732   5.723   9.077   3.152
 6989W        W10733   0.504   3.068   0.724
 6990W        W10734   8.608   2.261   1.590
 6991W        W10735   4.387   1.209  11.977
 6992W        W10736   8.977   6.944   9.049
 6993W        W10737   5.226   3.069   3.048
 6994W        W10738   5.823   1.391  11.788
 6995W        W10739   3.289   6.645   1.091
 6996W        W10740   0.389   7.605  10.031
 6997W        W10741   8.945   7.823   1.230
 6998W        W10742   0.596   0.877   3.168
 6999W        W10743   7.116   1.764   2.459
 7000W        W10744   0.175   9.919  11.422
 7001W        W10745   0.782   4.160   0.212
 7002W        W10746  10.434   2.902   2.135
 7003W        W10747   8.045   3.748  10.280
 7004W        W10748   7.026  10.364  10.387
 7005W        W10749   7.952   5.651  10.715
 7006W        W10750   7.676   3.595   0.337
 7007W        W10751   9.835   7.862   0.710
 7008W        W10752   3.278   9.277   0.275
 7009W        W10753   0.023   3.224  11.851
 7010W        W10754   9.471  10.016   0.299
 7011W        W10755   3.154   4.606   8.172
 7012W        W10756   3.407   4.460   3.166
 7013W        W10757   0.992   3.805   2.769
 7014W        W10758   9.177  10.332   9.799
 7015W        W10759   2.584   6.462   1.656
 7016W        W10760   1.390   9.766   1.402
 7017W        W10761   4.269   0.496   2.230
 7018W        W10762   9.991   6.697   1.423
 7019W        W10763   4.959   7.119   3.784
 7020W        W10764   3.838   9.040  11.234
 7021W        W10765   4.614   0.912   2.203
 7022W        W10766   0.679   9.992   9.934
 7023W        W10767   3.160   7.157  10.809
 7024W        W10768   5.786   4.684  10.905
 7025W        W10769   7.316   0.856   1.118
 7026W        W10770   4.682   6.478   0.788
 7027W        W10771   5.426   5.422   0.217
 7028W        W10772  10.323   0.811  10.205
 7029W        W10773   6.915  10.274   9.453
 7030W        W10774   3.795   1.457  10.892
 7031W        W10775   9.891   4.075   0.380
 7032W        W10776   2.847   6.678   9.822
 7033W        W10777   2.362   8.537  10.862
 7034W        W10778   9.773   3.605   0.763
 7035W        W10779   5.212   9.816   2.969
 7036W        W10780   9.203   7.411   3.400
 7037W        W10781   4.721   3.646   2.963
 7038W        W10782   9.860   6.369  10.946
 7039W        W10783   2.730   1.681   2.637
 7040W        W10784   0.379   3.603  10.090
 7041W        W10785   7.560   4.437   2.644
 7042W        W10786   2.188   2.905   2.019
 7043W        W10787   1.567   3.661   1.381
 7044W        W10788   8.969   8.357  10.838
 7045W        W10789   1.783   3.148  10.458
 7046W        W10790   7.159   3.343   3.218
 7047W        W10791   1.905   8.892   9.561
 7048W        W10792   7.356   4.531  11.527
 7049W        W10793   2.228   5.553   1.904
 7050W        W10794   8.085   1.587  11.040
 7051W        W10795   2.645   4.679  10.037
 7052W        W10796   2.923  10.233   1.694
 7053W        W10797   8.965   1.812   9.840
 7054W        W10798   6.082   3.324   9.413
 7055W        W10799  10.064   0.409   9.048
 7056W        W10800   6.127   0.580   3.677
 7057W        W10801  10.330   1.392  10.465
 7058W        W10802   3.581   9.944  11.535
 7059W        W10803   5.005   9.977  11.207
 7060W        W10804   7.566   5.041   1.851
 7061W        W10805   8.656   3.678   9.039
 7062W        W10806   6.279   0.798  10.330
 7063W        W10807   2.504   4.014   9.414
 7064W        W10808   8.514   3.352   0.006
 7065W        W10809   3.773   0.333   3.038
 7066W        W10810   9.720   0.355  10.796
 7067W        W10811   6.926   5.983  10.643
 7068W        W10812   0.882   3.827   1.858
 7069W        W10813   8.140   4.635  10.319
 7070W        W10814   1.284   3.804   2.330
 7071W        W10815   6.967   8.286   9.788
 7072W        W10816  10.042   1.831  10.429
 7073W        W10817  10.259   5.992   1.762
 7074W        W10818   5.837   0.681   2.812
 7075W        W10819   0.982   8.994   3.479
 7076W        W10820   4.078   4.092  10.803
 7077W        W10821   4.703   8.583   1.687
 7078W        W10822  10.465   3.861   3.189
 7079W        W10823   1.651   1.953   1.489
 7080W        W10824   6.640   6.236   4.021
 7081W        W10825   8.585   1.720   0.918
 7082W        W10826   0.155   0.844   0.566
 7083W        W10827   0.995   4.660   0.268
 7084W        W10828   0.153   2.184   2.332
 7085W        W10829   1.799   7.157  10.905
 7086W        W10830   8.950   7.530  10.347
 7087W        W10831   8.562   2.124  11.488
 7088W        W10832   6.545   0.977  11.941
 7089W        W10833   9.671   8.959  11.105
 7090W        W10834   2.788   9.563  11.660
 7091W        W10835   7.801   6.577   0.655
 7092W        W10836   8.487   3.720  11.549
 7093W        W10837   0.379   5.030   1.356
 7094W        W10838   3.634   4.094  11.037
 7095W        W10839   6.187   7.105  10.949
 7096W        W10840   0.796   2.212   1.753
 7097W        W10841   2.373   3.788   1.646
 7098W        W10842   0.538   1.858   3.525
 7099W        W10843   8.398   7.417  11.421
 7100W        W10844   7.562   3.768   2.041
 7101W        W10845   6.611   1.219  11.498
 7102W        W10846   2.773   7.342   2.869
 7103W        W10847   0.623   4.608  10.804
 7104W        W10848   0.807   0.920   8.731
 7105W        W10849   6.256   4.951   0.048
 7106W        W10850   3.956   2.093  11.993
 7107W        W10851   2.866  10.373   3.050
 7108W        W10852   5.791   0.440   3.262
 7109W        W10853   2.193   8.728   8.431
 7110W        W10854   1.491   1.122   3.304
 7111W        W10855   0.158   8.954  10.898
 7112W        W10856   1.107   0.881   3.101
 7113W        W10857   3.276   4.146   8.986
 7114W        W10858   8.651   1.334   0.325
 7115W        W10859   6.616   6.490   0.909
 7116W        W10860   7.401   2.263  10.871
 7117W        W10861   3.402  10.262   1.857
 7118W        W10862   9.348   1.831   0.262
 7119W        W10863   6.271   7.866   0.777
 7120W        W10864   2.695   0.564   0.220
 7121W        W10865   5.773   4.925   0.474
 7122W        W10866   6.402   8.975  10.983
 7123W        W10867   6.265   0.392   9.976
 7124W        W10868   3.124   9.300  11.386
 7125W        W10869   6.547  10.421   9.117
 7126W        W10870   6.847   4.371  10.081
 7127W        W10871   9.988   2.144   8.839
 7128W        W10872   7.562   2.213   9.296
 7129W        W10873   1.318   7.957   9.065
 7130W        W10874   8.591   1.283   8.945
 7131W        W10875   7.845   3.827   9.247
 7132W        W10876   4.282   1.799   9.262
 7133W        W10877  10.435   4.702   3.522
 7134W        W10878   9.984   1.842   2.516
 7135W        W10879   2.576   9.011   1.169
 7136W        W10880   3.707   7.598  10.274
 7137W        W10881   8.406   3.738   9.927
 7138W        W10882   2.867   2.394   9.855
 7139W        W10883  10.318   1.611   8.609
 7140W        W10884   6.559   1.947   2.079
 7141W        W10885   4.083   7.814   0.311
 7142W        W10886   0.792   3.290   8.994
 7143W        W10887   3.583   5.513   9.883
 7144W        W10888   1.739  10.355   9.551
 7145W        W10889   9.894   0.166   0.851
 7146W        W10890   6.001   0.928   8.585
 7147W        W10891   7.277   7.754  11.959
 7148W        W10892   6.729   2.677   2.324
 7149W        W10893   3.690   0.832  10.529
 7150W        W10894   2.249   8.088   3.577
 7151W        W10895   8.299   3.696   9.416
 7152W        W10896   7.911   3.218   2.101
 7153W        W10897   0.920   3.233   1.889
 7154W        W10898   7.430   8.632  10.485
 7155W        W10899   0.805   0.628   9.585
 7156W        W10900   9.079   1.966  10.309
 7157W        W10901   9.093   9.280   1.373
 7158W        W10902   4.334   2.899  10.519
 7159W        W10903   8.436   1.307   1.203
 7160W        W10904   6.721   2.540   3.508
 7161W        W10905   4.134   6.122   9.638
 7162W        W10906   2.316  10.331  11.268
 7163W        W10907   2.936   3.262   9.947
 7164W        W10908   9.035   1.269  11.716
 7165W        W10909   1.873   0.185  10.549
 7166W        W10910   1.141   2.643   3.398
 7167W        W10911   9.529   2.610  11.989
 7168W        W10912   7.138   4.200   2.850
 7169W        W10913   0.691   6.020  10.723
 7170W        W10914   6.540   1.931  11.910
 7171W        W10915   2.643   4.075  10.912
 7172W        W10916   8.288   6.981   2.608
 7173W        W10917   0.960   8.488   0.898
 7174W        W10918   1.415   0.283   9.582
 7175W        W10919   1.526   5.070   9.325
 7176W        W10920   4.080   4.368   0.565
 7177W        W10921   4.241   8.333   3.650
 7178W        W10922   6.450   6.084   9.758
 7179W        W10923   8.103   2.108   9.991
 7180W        W10924   3.214   8.973   2.448
 7181W        W10925   7.979   0.214   3.490
 7182W        W10926   3.103   3.736   9.995
 7183W        W10927   4.027  10.223  11.424
 7184W        W10928   1.183   5.937   2.845
 7185W        W10929   0.953   1.300   1.905
 7186W        W10930   8.809   8.568   9.451
 7187W        W10931   4.292   6.625   2.914
 7188W        W10932   7.526   6.070   8.894
 7189W        W10933   0.689   1.967   9.377
 7190W        W10934   3.777   0.962   1.775
 7191W        W10935   6.972   0.085   2.145
 7192W        W10936   5.859   2.865   2.029
 7193W        W10937   9.838   8.844   0.061
 7194W        W10938   1.810  10.177  10.540
 7195W        W10939   3.089   2.284   2.360
 7196W        W10940   0.664   1.336   0.080
 7197W        W10941   2.127   2.406   0.627
 7198W        W10942   7.458   4.137   9.342
 7199W        W10943   3.363   0.750  11.387
 7200W        W10944   2.622  10.421   2.586
 7201W        W10945   0.032   5.516   9.030
 7202W        W10946   4.929   1.696   2.937
 7203W        W10947   3.906   4.512   0.102
 7204W        W10948   9.320   4.551   2.367
 7205W        W10949   9.216  10.130  10.371
 7206W        W10950   9.415   0.944   0.416
 7207W        W10951   1.240   2.748   9.291
 7208W        W10952   2.576   4.201   1.909
 7209W        W10953   3.102   5.569   9.736
 7210W        W10954   2.880   8.991   9.508
 7211W        W10955   5.528   6.035  10.759
 7212W        W10956   7.716   7.819   9.842
 7213W        W10957   3.078   2.711   8.857
 7214W        W10958   5.052  10.394   8.727
 7215W        W10959   6.507  10.458   0.012
 7216W        W10960   3.824   3.171   9.760
 7217W        W10961   7.831   6.466   0.162
 7218W        W10962   6.060   2.180   8.544
 7219W        W10963   3.216   3.203  11.042
 7220W        W10964   4.759  10.153   9.369
 7221W        W10965   4.115   7.047   9.771
 7222W        W10966  10.297   9.913   2.774
 7223W        W10967   4.088   2.659   1.855
 7224W        W10968   0.525   0.865   2.224
 7225W        W10969   1.350   1.470   0.761
 7226W        W10970   2.041   1.783   1.777
 7227W        W10971   3.763  10.106   2.185
 7228W        W10972   5.643   4.869  11.390
 7229W        W10973   9.845   7.728   2.261
 7230ION    NA+10974   7.824   7.037   9.054
 7231ION    NA+10975   8.800  10.444  11.931
 7232ION    NA+10976   0.401   6.651   3.631
 7233ION    NA+10977   6.676   1.805   3.061
 7234ION    NA+10978   0.007   3.690  11.508
 7235ION    NA+10979   1.381   8.648   2.949
 7236ION    NA+10980   9.965   6.477   0.959
 7237ION    NA+10981   4.892   0.338   9.412
 7238ION    NA+10982   2.936   4.646   0.244
 7239ION    NA+10983   0.096   0.436   9.041
 7240ION    NA+10984   7.411   4.680   8.143
 7241ION    NA+10985   0.183   9.053   9.241
 7242ION    NA+10986   5.275   7.109  11.043
 7243ION    NA+10987   5.207   3.078   9.045
 7244ION    NA+10988   6.355   8.922  10.118
 7245ION    NA+10989   1.450   6.715   9.821
 7246ION    NA+10990   4.065   1.978  11.063
 7247ION    NA+10991   1.559   0.260   0.923
 7248ION    NA+10992   2.751   0.366  10.831
 7249ION    NA+10993   2.320   2.513   1.734
 7250ION    NA+10994   9.419   0.141   2.061
 7251ION    NA+10995   0.474   7.719   1.355
 7252ION    NA+10996   7.757   0.752   3.804
 7253ION    NA+10997   7.906   3.754   9.758
 7254ION    NA+10998   0.228   5.317  10.824
 7255ION    NA+10999   3.825   4.766  11.212
 7256ION    NA+11000   7.065   1.982   0.515
 7257ION    NA+11001   3.621   9.300   2.395
 7258ION    NA+11002   6.608   3.525   1.895
 7259ION    NA+11003   3.244   6.577   9.466
 7260ION    NA+11004   1.640   4.967   1.367
 7261ION    NA+11005   0.094  10.193   3.114
 7262ION    NA+11006   2.666   1.985  11.110
 7263ION    NA+11007   7.002  10.073   9.002
 7264ION    NA+11008   9.370   3.270   0.786
 7265ION    NA+11009   1.686   1.794  11.062
 7266ION    NA+11010   1.735   2.986   9.182
 7267ION    NA+11011   4.534   6.797   9.595
 7268ION    NA+11012   1.788   7.159  11.530
 7269ION    NA+11013   3.845   0.945   0.624
 7270ION    NA+11014   0.362   9.043   0.315
 7271ION    NA+11015   9.405   1.470  10.437
 7272ION    NA+11016   7.593   2.102  11.358
 7273ION    NA+11017   9.567   5.229   3.454
 7274ION    NA+11018   4.535   5.182   0.086
 7275ION    NA+11019   0.922   5.395   0.119
 7276ION    NA+11020  10.113   9.604   9.551
 7277ION    NA+11021   3.302   6.677   2.570
 7278ION    NA+11022   2.730   9.350   1.933
 7279ION    NA+11023   5.910   9.127  10.989
 7280ION    NA+11024   4.942   3.280   8.103
 7281ION    NA+11025   5.384   4.865   1.640
 7282ION    NA+11026   9.655   3.728  11.138
 7283ION    NA+11027   0.274   5.166   1.843
 7284ION    NA+11028   1.148  10.059  11.645
 7285ION    NA+11029   1.710   0.405  10.998
 7286ION    NA+11030   4.104   8.154   1.056
 7287ION    NA+11031   5.118   2.380   1.216
 7288ION    NA+11032   1.106   9.026  11.841
 7289ION    NA+11033   0.230   8.087   2.772
 7290ION    NA+11034   6.295   9.634   1.900
 7291ION    NA+11035   4.976   4.745   0.889
 7292ION    NA+11036   0.677   0.794   0.787
 7293ION    NA+11037   1.381   9.718   3.366
 7294ION    NA+11038   3.820   0.908  10.045
 7295ION    NA+11039   1.903   7.673   9.881
 7296ION    NA+11040   5.268   5.583  11.745
 7297ION    NA+11041   3.929   0.072   9.454
 7298ION    NA+11042   2.803   0.184   0.538
 7299ION    NA+11043   7.885   0.692   2.206
 7300ION    NA+11044   2.016   0.544   0.017
 7301ION    NA+11045   4.759   3.662   1.930
 7302ION    NA+11046   1.012   8.179  11.891
 7303ION    NA+11047   6.801   7.587   0.712
 7304ION    NA+11048   2.793   7.948   2.311
 7305ION    NA+11049   4.370   8.619   9.916
 7306ION    CL-11050   5.135   4.951   1.269
 7307ION    CL-11051   4.874   5.398  11.870
 7308ION    CL-11052   9.023   2.820  10.251
 7309ION    CL-11053   8.568   1.390   9.444
 7310ION    CL-11054  10.364   3.214   1.749
 7311ION    CL-11055   5.457   6.871   1.462
 7312ION    CL-11056   1.717  10.165   8.604
 7313ION    CL-11057   8.504   8.821   9.791
 7314ION    CL-11058   9.228   0.222  10.894
 7315ION    CL-11059   3.161   2.769   3.314
 7316ION    CL-11060   1.961   8.077   9.691
 7317ION    CL-11061   2.781   3.638   1.101
 7318ION    CL-11062   7.364  10.075   9.272
 7319ION    CL-11063   0.631   7.310   1.258
 7320ION    CL-11064   2.685   1.881  11.545
 7321ION    CL-11065   1.159   8.571  11.717
 7322ION    CL-11066   1.296   2.959  11.731
 7323ION    CL-11067   3.705   8.880   2.269
 7324ION    CL-11068   4.664   0.496   1.897
 7325ION    CL-11069   9.014   2.602   8.771
 7326ION    CL-11070   2.842   0.575   2.009
 7327ION    CL-11071   3.934   0.806   1.042
 7328ION    CL-11072   6.774   9.028  10.007
 7329ION    CL-11073   8.519   9.150   0.530
 7330ION    CL-11074   9.428   4.311   9.594
 7331ION    CL-11075   6.742   9.563   1.945
 7332ION    CL-11076   9.332   3.512  10.904
 7333ION    CL-11077   7.863   8.914  10.606
 7334ION    CL-11078   2.895   4.542   3.231
 7335ION    CL-11079   2.669   1.264   1.305
 7336ION    CL-11080   0.687   9.154   0.011
 7337ION    CL-11081   0.176   8.945   0.716
 7338ION    CL-11082   2.087   3.823   0.405
 7339ION    CL-11083   1.575   2.930   8.758
 7340ION    CL-11084   4.436  10.009  11.974
 7341ION    CL-11085   1.290   8.638   2.504
 7342ION    CL-11086   2.461   7.693   2.464
 7343ION    CL-11087   5.114   9.215   9.506
 7344ION    CL-11088   4.752   9.909  10.302
 7345ION    CL-11089   8.337   5.348   8.731
 7346ION    CL-11090   6.641   1.421   3.296
 7347ION    CL-11091  10.078   3.722  11.355
 7348ION    CL-11092   9.853   7.999   1.777
 7349ION    CL-11093   6.817   7.186   0.954
 7350ION    CL-11094   2.250   1.882   0.499
 7351ION    CL-11095   5.058   2.900   9.426
 7352ION    CL-11096  10.484   9.355   9.511
 7353ION    CL-11097   4.215   3.482   3.789
 7354ION    CL-11098   5.853   7.825   1.144
 7355ION    CL-11099   2.499   4.709   0.192
 7356ION    CL-11100   3.127   5.186   8.853
 7357ION    CL-11101   4.848   4.563  10.702
 7358ION    CL-11102   7.157   8.390   1.758
 7359ION    CL-11103   4.013   2.356  11.296
 7360ION    CL-11104   1.220   9.106  10.121
 7361ION    CL-11105   6.826  10.002   8.585
 7362ION    CL-11106   7.982   4.499   1.373
 7363ION    CL-11107   0.253  10.100   0.435
 7364ION    CL-11108   2.595   6.479  11.915
 7365ION    CL-11109   7.998   6.160   9.547
 7366ION    CL-11110   1.389   8.660   3.439
 7367ION    CL-11111   9.268   4.984   8.730
 7368ION    CL-11112   0.638   5.150  10.894
 7369ION    CL-11113   5.202   3.424   4.087
 7370ION    CL-11114   6.915   7.928   0.428
 7371ION    CL-11115   5.848   9.681   1.823
 7372ION    CL-11116   4.016   5.064  10.942
 7373ION    CL-11117   3.474   6.858   2.941
 7374ION    CL-11118   0.558   1.149   0.547
 7375ION    CL-11119   8.459   8.207  10.989
 7376ION    CL-11120   8.921   6.955  10.761
 7377ION    CL-11121   8.597  10.063   3.033
 7378ION    CL-11122   4.186   2.280   9.383
 7379ION    CL-11123   2.945   0.759   8.862
 7380ION    CL-11124   2.226   2.882   1.498
 7381ION    CL-11125   1.350   9.828  11.973
  10.50000  10.50000  12.00000
