Protein in INSANE! Membrane UpperLeaflet>POPC=1.0 LowerLeaflet>POPC=1.0
12914
    1AU     AUC    1   8.646   2.263   6.935 -0.0019  0.0021  0.0475
    1AU     AUC    2   8.533   2.262   7.239 -0.0516  0.0474 -0.0002
    1AU     AUC    3   8.839   2.433   7.127  0.0218  0.0260 -0.0052
    1AU     AUC    4   8.517   2.087   6.697  0.0711 -0.0513  0.0056
    1AU     AUC    5   8.834   2.201   6.643  0.1131 -0.0061 -0.0733
    1AU     AUC    6   8.771   1.956   6.854 -0.0077 -0.0545 -0.0350
    1AU     AUC    7   8.792   2.078   7.160  0.0070 -0.0636  0.0863
    1AU     AUC    8   8.530   2.403   6.675  0.0252 -0.0579 -0.0002
    1AU     AUC    9   8.540   2.553   6.993  0.0048  0.0127  0.0365
    1AU     AUC   10   8.829   2.516   6.809 -0.0242  0.0094  0.0029
    1AU     AUC   11   8.976   2.209   6.910 -0.1134 -0.0379  0.0906
    1AU     AUC   12   8.337   2.279   6.934 -0.0816 -0.0241  0.0879
    1AU     AUC   13   8.504   2.005   7.031  0.0090 -0.0096 -0.0181
    1AU     AUC   14   8.415   2.318   7.557  0.0127 -0.0056 -0.0618
    1AU     AUC   15   8.704   2.478   7.491  0.0964 -0.0441 -0.0435
    1AU     AUC   16   9.015   2.632   7.342  0.1068  0.0546  0.0103
    1AU     AUC   17   8.329   1.899   6.445 -0.0030 -0.0062 -0.0044
    1AU     AUC   18   8.681   1.994   6.350  0.0779  0.0046  0.0503
    1AU     AUC   19   9.003   2.126   6.324 -0.0579 -0.1221 -0.0257
    1AU     AUC   20   8.897   1.631   6.775 -0.0389  0.0041 -0.0654
    1AU     AUC   21   8.923   1.728   7.090  0.0452 -0.0530 -0.0708
    1AU     AUC   22   8.959   1.886   7.403 -0.1022  0.0317 -0.0361
    1AU     AUC   23   8.402   2.565   6.429 -0.0118  0.0940 -0.0525
    1AU     AUC   24   8.378   2.738   6.749  0.0362  0.0087  0.0440
    1AU     AUC   25   8.392   2.857   7.045  0.0241 -0.0441 -0.0211
    1AU     AUC   26   8.992   2.782   6.692 -0.0264 -0.0106 -0.0465
    1AU     AUC   27   9.185   2.498   6.785 -0.1030  0.0209 -0.0328
    1AU     AUC   28   9.315   2.182   6.910 -0.0327  0.0140  0.0727
    1AU     AUC   29   8.018   2.301   6.970  0.1092  0.0596  0.0471
    1AU     AUC   30   8.139   2.011   7.054 -0.1076  0.0361 -0.0596
    1AU     AUC   31   8.300   1.737   7.112 -0.0642 -0.0120 -0.0290
    1AU     AUC   32   9.011   2.748   7.005  0.0028 -0.0626  0.0045
    1AU     AUC   33   9.200   2.429   7.136  0.1300  0.0254  0.0104
    1AU     AUC   34   8.194   2.306   7.273 -0.0703 -0.1221  0.0294
    1AU     AUC   35   8.366   1.989   7.386  0.0273 -0.0148 -0.0648
    1AU     AUC   36   9.036   2.471   6.500  0.0984 -0.0529 -0.0314
    1AU     AUC   37   9.190   2.148   6.611 -0.0758 -0.0303 -0.0425
    1AU     AUC   38   8.158   2.107   6.682 -0.0215  0.1052  0.0007
    1AU     AUC   39   8.265   1.814   6.741 -0.0472 -0.0076 -0.0036
    1AU     AUC   40   8.680   2.135   7.516 -0.0263 -0.1005  0.0972
    1AU     AUC   41   9.003   2.267   7.393 -0.0215 -0.0407  0.0212
    1AU     AUC   42   8.630   1.741   6.553 -0.0117  0.0589 -0.0967
    1AU     AUC   43   8.968   1.862   6.519 -0.0163 -0.0167 -0.0974
    1AU     AUC   44   8.391   2.613   7.325 -0.0116  0.0773  0.0021
    1AU     AUC   45   8.686   2.786   7.207  0.1183 -0.0030  0.0211
    1AU     AUC   46   8.350   2.248   6.396 -0.0496  0.0320  0.0411
    1AU     AUC   47   8.724   2.365   6.372 -0.0463 -0.0028  0.0956
    1AU     AUC   48   9.127   1.868   6.859  0.0560 -0.0123  0.0019
    1AU     AUC   49   9.141   2.032   7.167  0.0339  0.0200  0.0107
    1AU     AUC   50   8.684   2.696   6.550  0.0524 -0.0848  0.0142
    1AU     AUC   51   8.683   2.849   6.837 -0.0493 -0.0319  0.0468
    1AU     AUC   52   8.597   1.687   6.924 -0.0441  0.0195  0.0897
    1AU     AUC   53   8.612   1.799   7.285 -0.0103  0.0387  0.0922
    1AU     AUC   54   8.180   2.453   6.677 -0.0514  0.0259  0.0434
    1AU     AUC   55   8.186   2.593   7.060  0.0321 -0.0195  0.0724
    1AU    AUSL   56   9.307   2.820   7.213  0.0657  0.0146 -0.0138
    1AU    AUSL   57   9.043   3.070   6.898 -0.0493 -0.0069  0.0186
    1AU     AUL   58   9.260   3.164   7.183  0.0021  0.0151  0.0306
    1AU       S   59   8.919   3.483   7.105 -0.2417 -0.1024  0.1956
    1AU     LIG   60   9.144   3.810   6.856  0.3882 -0.1061 -0.1687
    1AU     LIG   61   9.490   4.045   6.933  0.1884 -0.2729 -0.1091
    1AU     LIG   62   9.831   4.164   6.721  0.0914 -0.3265 -0.1775
    1AU     LIG   63  10.141   4.024   6.471 -0.1184  0.1677  0.0272
    1AU     LIG   64  10.320   3.582   6.684  0.3080  0.2201 -0.1133
    1AU       S   65   9.679   3.125   7.019  0.2975  0.4679  0.4407
    1AU     LIG   66  10.090   3.139   6.809 -0.3293  0.0885  0.1982
    1AU     LIG   67  10.530   3.082   6.949  0.0107 -0.0453 -0.1289
    1AU     LIG   68  10.743   2.729   7.143 -0.0787  0.3320 -0.2319
    1AU     LIG   69  11.011   2.862   7.431  0.4284  0.1352  0.1872
    1AU     LIG   70  11.103   3.301   7.735  0.2922 -0.2415  0.0799
    1AU    AUSL   71   9.373   2.827   6.789  0.0690 -0.0118  0.0459
    1AU    AUSL   72   9.566   2.436   6.637  0.0481 -0.0312  0.0295
    1AU     AUL   73   9.792   2.714   6.790  0.0133 -0.0148 -0.0257
    1AU       S   74   9.476   3.051   6.757  0.1978 -0.3667 -0.0773
    1AU     LIG   75   9.344   3.377   6.633  0.0019  0.0243 -0.1137
    1AU     LIG   76   9.366   3.903   6.431 -0.1746  0.2823  0.1648
    1AU     LIG   77   9.093   4.246   6.200  0.0006 -0.0876  0.2869
    1AU     LIG   78   9.044   4.630   5.938 -0.1717  0.4796 -0.0125
    1AU     LIG   79   8.812   4.706   5.551  0.1762  0.1418  0.0928
    1AU       S   80   9.620   2.619   6.392 -0.0949 -0.4670  0.2166
    1AU     LIG   81  10.029   2.864   6.309 -0.1243  0.2148 -0.2063
    1AU     LIG   82  10.476   2.590   6.215 -0.4771 -0.0080 -0.0862
    1AU     LIG   83  10.907   2.565   6.254  0.2586  0.1162 -0.1472
    1AU     LIG   84  11.105   2.097   6.255  0.1826 -0.1284  0.2948
    1AU     LIG   85  11.190   1.752   6.459  0.1195 -0.2753 -0.0047
    1AU    AUSL   86   9.338   2.437   6.992 -0.0078  0.0204  0.0594
    1AU    AUSL   87   9.376   2.495   7.472  0.0090 -0.0026 -0.0172
    1AU     AUL   88   9.583   2.704   7.242 -0.1065  0.1212 -0.0110
    1AU       S   89   9.908   2.281   6.932  0.0796 -0.2828  0.1660
    1AU     LIG   90  10.292   2.219   6.784 -0.1317  0.1566 -0.5361
    1AU     LIG   91  10.745   2.231   6.660 -0.0001 -0.1618  0.0448
    1AU     LIG   92  11.210   2.361   6.721  0.0928 -0.0669 -0.0745
    1AU     LIG   93  11.505   2.715   6.512  0.1864  0.0636 -0.0535
    1AU     LIG   94  11.340   2.844   6.128  0.0796  0.0299  0.0247
    1AU       S   95   9.717   2.400   7.628 -0.5662  0.2049 -0.4575
    1AU     LIG   96   9.926   2.716   7.697  0.0324  0.2298 -0.3957
    1AU     LIG   97  10.318   2.968   7.591  0.1457 -0.1692  0.0752
    1AU     LIG   98  10.630   3.211   7.507  0.2661  0.1112  0.3183
    1AU     LIG   99  10.961   3.258   7.164 -0.0942  0.1855 -0.0385
    1AU     LIG  100  10.856   3.477   6.680 -0.0582  0.6710  0.2234
    1AU    AUSL  101   8.187   2.109   7.558 -0.0161  0.0054  0.1297
    1AU    AUSL  102   8.376   1.679   7.575 -0.0384  0.0051  0.1227
    1AU     AUL  103   8.169   1.799   7.817  0.0843  0.0493 -0.0267
    1AU       S  104   7.786   1.694   7.582  0.3588 -0.0004  0.0392
    1AU     LIG  105   7.417   1.599   7.352  0.3390 -0.2942 -0.1980
    1AU     LIG  106   7.156   1.949   7.232 -0.2248  0.0022  0.1291
    1AU     LIG  107   6.917   2.350   7.288  0.1055 -0.2385  0.2974
    1AU     LIG  108   6.479   2.220   7.317  0.3356 -0.0735  0.3634
    1AU     LIG  109   6.167   1.841   7.290 -0.1021 -0.1053  0.1742
    1AU       S  110   8.577   1.592   7.909 -0.4256 -0.0007 -0.0817
    1AU     LIG  111   8.636   1.095   7.904 -0.2772 -0.2949 -0.1147
    1AU     LIG  112   8.497   0.811   7.659 -0.1318 -0.0346 -0.4482
    1AU     LIG  113   8.277   0.544   7.828 -0.0622 -0.2501 -0.1090
    1AU     LIG  114   8.226   0.307   8.129 -0.2082  0.0689  0.1373
    1AU     LIG  115   8.236  -0.143   8.218  0.2571  0.3008 -0.2482
    1AU    AUSL  116   7.802   2.131   7.385  0.0572 -0.0464 -0.0806
    1AU    AUSL  117   8.079   2.500   7.642 -0.0225 -0.0274 -0.0261
    1AU     AUL  118   7.915   2.255   7.735 -0.0167 -0.1205 -0.0168
    1AU       S  119   7.744   2.731   7.778 -0.5837 -0.2154 -0.0732
    1AU     LIG  120   7.379   2.799   7.923  0.1053 -0.0579  0.3849
    1AU     LIG  121   7.194   3.144   7.876  0.1847 -0.1363  0.1025
    1AU     LIG  122   7.175   3.459   7.515  0.4963 -0.0852  0.0633
    1AU     LIG  123   7.124   3.907   7.305  0.1529  0.1940 -0.1810
    1AU     LIG  124   6.765   4.257   7.413  0.3746 -0.0460  0.3043
    1AU       S  125   7.701   1.848   7.631 -0.3195  0.3124  0.5975
    1AU     LIG  126   7.326   1.702   7.824 -0.1154 -0.0435 -0.3869
    1AU     LIG  127   6.993   1.437   7.580 -0.2898 -0.0498 -0.0733
    1AU     LIG  128   7.190   1.075   7.406  0.1844  0.3365 -0.3209
    1AU     LIG  129   7.350   0.842   7.155 -0.0297 -0.0601  0.0495
    1AU     LIG  130   7.397   0.692   6.702  0.0040  0.3870  0.3236
    1AU    AUSL  131   8.116   1.814   7.245 -0.1058  0.0176 -0.0232
    1AU    AUSL  132   7.877   2.064   6.954  0.0098  0.0388 -0.0214
    1AU     AUL  133   7.670   1.973   7.168 -0.0615  0.0506 -0.0206
    1AU       S  134   7.440   1.771   6.747 -0.1002 -0.1750  0.0819
    1AU     LIG  135   7.121   1.756   6.665  0.2027  0.0359 -0.0191
    1AU     LIG  136   6.761   1.460   6.661  0.2914 -0.0133  0.0444
    1AU     LIG  137   6.490   1.290   7.036 -0.1373 -0.1462  0.0230
    1AU     LIG  138   6.673   1.068   7.472 -0.0159  0.0389 -0.1668
    1AU     LIG  139   6.842   0.752   7.714  0.2235 -0.3075 -0.0403
    1AU       S  140   7.884   1.636   7.425  0.0251 -0.0377  0.3115
    1AU     LIG  141   7.788   1.258   7.247  0.0286  0.0691  0.0008
    1AU     LIG  142   7.846   1.056   6.851  0.4988 -0.0835 -0.1121
    1AU     LIG  143   7.645   0.974   6.409 -0.2152  0.2054  0.2591
    1AU     LIG  144   7.678   0.529   6.272  0.3936  0.1903  0.2223
    1AU     LIG  145   7.733   0.133   6.412 -0.2281  0.2928  0.1881
    1AU    AUSL  146   9.335   2.262   6.294  0.0250  0.0900  0.0567
    1AU    AUSL  147   9.457   2.025   6.673 -0.0174 -0.0495 -0.0400
    1AU     AUL  148   9.721   2.153   6.470 -0.0201 -0.0439 -0.0312
    1AU       S  149   9.700   2.572   6.163 -0.1528  0.0384  0.1030
    1AU     LIG  150  10.026   2.315   6.147  0.1086  0.0716  0.0903
    1AU     LIG  151  10.404   2.065   6.221  0.3223 -0.1944 -0.3815
    1AU     LIG  152  10.618   1.780   6.540 -0.0256  0.2587  0.0950
    1AU     LIG  153  10.971   1.949   6.937 -0.1555 -0.0829 -0.2064
    1AU     LIG  154  11.127   1.907   7.412  0.1395  0.0828  0.4017
    1AU       S  155   9.672   1.706   6.427  0.1851 -0.0097 -0.0970
    1AU     LIG  156  10.027   1.737   6.631  0.1099  0.1164 -0.1180
    1AU     LIG  157  10.220   1.477   6.848  0.1826  0.0839  0.0648
    1AU     LIG  158  10.519   1.060   6.950  0.1696 -0.1490 -0.0753
    1AU     LIG  159  10.935   0.911   6.907  0.5936  0.0877  0.2778
    1AU     LIG  160  11.291   0.926   6.904 -0.1858  0.0051 -0.1581
    1AU    AUSL  161   9.155   2.578   6.529  0.0968  0.0318  0.0990
    1AU    AUSL  162   9.014   2.497   6.090  0.0744 -0.0305 -0.0173
    1AU     AUL  163   9.240   2.472   6.079  0.1432 -0.0946  0.0148
    1AU       S  164   9.085   2.815   5.793 -0.0379  0.2564 -0.0169
    1AU     LIG  165   9.496   2.769   5.644  0.0840  0.3453 -0.2464
    1AU     LIG  166   9.837   2.817   5.752 -0.0366 -0.4459 -0.2734
    1AU     LIG  167   9.971   3.336   5.830 -0.2399 -0.2506  0.0610
    1AU     LIG  168   9.660   3.621   6.023 -0.0315  0.0790 -0.1330
    1AU     LIG  169   9.281   3.774   5.950  0.0833 -0.1366 -0.0905
    1AU       S  170   9.494   2.766   6.323 -0.0686  0.2663  0.2608
    1AU     LIG  171   9.608   3.144   6.277  0.2196  0.3218  0.3885
    1AU     LIG  172   9.837   3.397   6.429 -0.0527 -0.1476  0.3098
    1AU     LIG  173   9.791   3.698   6.672 -0.6131 -0.0747 -0.0755
    1AU     LIG  174   9.671   3.633   7.117  0.0388 -0.0193  0.1792
    1AU     LIG  175   9.751   3.740   7.493 -0.2725 -0.1355 -0.2619
    1AU    AUSL  176   7.924   1.858   6.576  0.0678  0.0169  0.0213
    1AU    AUSL  177   7.909   2.307   6.611 -0.0353 -0.0228 -0.0819
    1AU     AUL  178   7.616   2.209   6.759 -0.0890 -0.1082  0.0280
    1AU       S  179   7.625   1.793   6.573 -0.2769 -0.2519  0.2377
    1AU     LIG  180   7.420   1.396   6.387 -0.1166  0.2681  0.0319
    1AU     LIG  181   6.915   1.170   6.300 -0.1068 -0.2752  0.0506
    1AU     LIG  182   6.516   1.058   6.460 -0.1017 -0.0092  0.3126
    1AU     LIG  183   6.218   1.373   6.622  0.0256 -0.4534 -0.0020
    1AU     LIG  184   5.802   1.275   6.876  0.0479 -0.0182 -0.2842
    1AU       S  185   7.698   2.204   6.300 -0.3826 -0.4422 -0.0732
    1AU     LIG  186   7.206   2.173   6.406  0.3125 -0.0532 -0.1969
    1AU     LIG  187   6.769   2.098   6.364  0.1728 -0.1223 -0.4418
    1AU     LIG  188   6.309   2.092   6.413 -0.0529  0.2802  0.3692
    1AU     LIG  189   5.788   2.039   6.462 -0.0289  0.4456  0.1150
    1AU     LIG  190   5.435   1.932   6.216 -0.6339 -0.0776 -0.5108
    1AU    AUSL  191   7.914   1.615   6.923  0.0744 -0.0253  0.1038
    1AU    AUSL  192   8.211   1.544   6.429 -0.0424 -0.0038  0.0386
    1AU     AUL  193   7.944   1.472   6.607  0.0381 -0.1133 -0.0005
    1AU       S  194   8.085   1.183   6.256 -0.2580 -0.2642 -0.0392
    1AU     LIG  195   8.327   0.929   6.111  0.1838 -0.0765 -0.0067
    1AU     LIG  196   8.485   0.540   6.380  0.1446 -0.5407 -0.0635
    1AU     LIG  197   8.817   0.246   6.349  0.1094 -0.2831  0.0296
    1AU     LIG  198   9.164   0.053   6.603  0.1520  0.0451 -0.2987
    1AU     LIG  199   9.356   0.109   6.981 -0.0990  0.2157 -0.3720
    1AU       S  200   7.612   1.628   6.866  0.2748 -0.0187  0.3145
    1AU     LIG  201   7.361   1.258   6.829 -0.2637 -0.2740 -0.3965
    1AU     LIG  202   6.948   0.965   6.865 -0.1596  0.3515  0.1122
    1AU     LIG  203   6.823   0.655   7.182 -0.3865 -0.1753 -0.1594
    1AU     LIG  204   6.705   0.293   7.529 -0.0957  0.0723  0.3794
    1AU     LIG  205   6.889   0.220   7.916 -0.0418  0.1883  0.2238
    1AU    AUSL  206   8.982   2.099   7.801 -0.0756  0.0528  0.0071
    1AU    AUSL  207   8.534   2.060   7.817 -0.0161  0.0677  0.0626
    1AU     AUL  208   8.785   2.080   8.150 -0.0246  0.0546 -0.0286
    1AU       S  209   8.639   1.677   7.974  0.3392  0.0501 -0.0541
    1AU     LIG  210   8.435   1.805   8.317  0.0987 -0.2074 -0.2989
    1AU     LIG  211   8.462   2.154   8.522 -0.0208 -0.1893 -0.4900
    1AU     LIG  212   8.797   2.548   8.536 -0.0617 -0.1037 -0.0358
    1AU     LIG  213   8.890   2.934   8.432  0.0252  0.1291  0.2985
    1AU     LIG  214   9.043   3.312   8.535 -0.2780  0.1544 -0.0746
    1AU       S  215   9.125   2.508   8.045  0.1821 -0.1970 -0.2255
    1AU     LIG  216   9.582   2.519   8.140  0.2794 -0.4153 -0.0893
    1AU     LIG  217   9.935   2.211   8.107  0.2558  0.0211 -0.2680
    1AU     LIG  218  10.252   2.122   7.763  0.3306  0.1832 -0.0279
    1AU     LIG  219  10.469   2.150   7.309  0.0321 -0.2565 -0.1678
    1AU     LIG  220  10.552   1.821   7.064 -0.1753  0.2083  0.2538
    1AU    AUSL  221   8.656   2.464   7.877  0.0357  0.0166 -0.0296
    1AU    AUSL  222   8.760   2.858   7.677 -0.0182 -0.0952 -0.0293
    1AU     AUL  223   8.614   2.806   8.020 -0.0672  0.0055 -0.0554
    1AU       S  224   8.991   2.536   8.076 -0.0013  0.1781  0.1105
    1AU     LIG  225   9.133   2.212   8.396  0.3022  0.1125  0.0331
    1AU     LIG  226   9.547   2.207   8.579 -0.0590  0.2279  0.0951
    1AU     LIG  227   9.956   2.229   8.683 -0.4607  0.1401 -0.4705
    1AU     LIG  228  10.346   2.051   8.902  0.3121  0.1640  0.1044
    1AU     LIG  229  10.665   1.890   9.177  0.0899  0.1823  0.1065
    1AU       S  230   8.563   3.244   7.846  0.6516  0.1243  0.1154
    1AU     LIG  231   9.015   3.216   8.001 -0.0037 -0.2737  0.1395
    1AU     LIG  232   9.351   3.001   8.161 -0.0346 -0.3564 -0.2827
    1AU     LIG  233   9.687   2.967   7.971  0.1202 -0.3635 -0.2156
    1AU     LIG  234   9.732   3.147   7.510  0.3536  0.0867  0.0352
    1AU     LIG  235  10.051   3.321   7.303  0.2107  0.0722 -0.1012
    1AU    AUSL  236   8.967   2.482   7.559  0.0313 -0.0016  0.0260
    1AU    AUSL  237   9.189   2.107   7.426  0.0014  0.0100  0.0155
    1AU     AUL  238   9.276   2.199   7.739  0.0343 -0.0874 -0.0348
    1AU       S  239   9.787   2.167   7.639  0.1148  0.0849 -0.0817
    1AU     LIG  240   9.562   1.873   7.907 -0.1022 -0.1685 -0.1382
    1AU     LIG  241   9.207   1.781   8.154 -0.0539 -0.0518 -0.2832
    1AU     LIG  242   8.862   1.532   8.363 -0.1218  0.1079 -0.0308
    1AU     LIG  243   8.528   1.218   8.377  0.1483  0.2626  0.3114
    1AU     LIG  244   8.217   0.946   8.100  0.0446 -0.0593  0.3285
    1AU       S  245   9.147   2.673   7.850  0.1396 -0.0417  0.1137
    1AU     LIG  246   9.327   2.938   7.666 -0.3547 -0.0522 -0.1921
    1AU     LIG  247   9.312   3.395   7.591 -0.1964 -0.2310 -0.4955
    1AU     LIG  248   9.251   3.791   7.376 -0.3726  0.0920  0.2668
    1AU     LIG  249   9.367   4.224   7.645  0.0645  0.4261 -0.1310
    1AU     LIG  250   9.738   4.528   7.603  0.4951  0.1794 -0.1026
    1AU    AUSL  251   8.921   1.530   6.420  0.0350 -0.0744 -0.0277
    1AU    AUSL  252   9.208   1.866   6.331 -0.0227  0.0569 -0.0185
    1AU     AUL  253   9.156   1.452   6.153  0.0173  0.0609 -0.0827
    1AU       S  254   9.477   1.803   6.266  0.0359 -0.1749  0.0467
    1AU     LIG  255   9.577   2.059   5.865 -0.2439 -0.1030 -0.1184
    1AU     LIG  256   9.815   2.317   5.670  0.1902  0.1968  0.2042
    1AU     LIG  257  10.245   2.507   5.775 -0.2157 -0.1154  0.3806
    1AU     LIG  258  10.375   2.940   5.839 -0.1363 -0.0953  0.2295
    1AU     LIG  259  10.684   3.277   5.650 -0.1732  0.1526 -0.0879
    1AU       S  260   9.015   1.165   6.492 -0.1606  0.0473  0.2157
    1AU     LIG  261   9.429   1.042   6.285  0.2743  0.1345 -0.3011
    1AU     LIG  262   9.782   0.757   6.368  0.2303  0.0750 -0.4653
    1AU     LIG  263  10.190   0.874   6.459  0.0634  0.1233 -0.3301
    1AU     LIG  264  10.636   0.684   6.547 -0.0732 -0.2493  0.0582
    1AU     LIG  265  10.949   0.359   6.753 -0.0309 -0.0545 -0.3065
    1AU    AUSL  266   8.558   1.780   6.362  0.1026  0.0602 -0.0402
    1AU    AUSL  267   8.569   1.351   6.614 -0.0515  0.0504 -0.1206
    1AU     AUL  268   8.542   1.394   6.255  0.0879  0.0576 -0.0124
    1AU       S  269   8.122   1.682   6.003  0.4122  0.3896  0.3591
    1AU     LIG  270   7.709   1.357   6.018  0.3644  0.0299  0.2524
    1AU     LIG  271   7.377   1.147   5.999  0.4652  0.3830  0.2414
    1AU     LIG  272   7.189   0.795   6.293  0.0635  0.1820  0.1472
    1AU     LIG  273   6.938   0.535   6.631  0.1180 -0.0567 -0.0938
    1AU     LIG  274   7.181   0.360   7.015 -0.2549 -0.0428  0.2724
    1AU       S  275   8.523   1.019   6.560 -0.0144  0.0589 -0.1147
    1AU     LIG  276   8.442   0.680   6.867  0.0050 -0.2027 -0.0035
    1AU     LIG  277   8.224   0.394   7.181 -0.3697 -0.0584 -0.4167
    1AU     LIG  278   8.035  -0.044   7.234  0.4568  0.0681  0.2126
    1AU     LIG  279   7.656  -0.382   6.990 -0.1176 -0.0895 -0.2010
    1AU     LIG  280   7.644  -0.686   6.909 -0.2383 -0.1494  0.2216
    1AU    AUSL  281   8.880   1.805   6.052  0.0231 -0.0313 -0.0127
    1AU    AUSL  282   8.444   1.994   6.009 -0.0311 -0.0323 -0.0165
    1AU     AUL  283   8.572   1.753   5.945 -0.0411 -0.0752  0.0844
    1AU       S  284   8.633   2.154   5.710 -0.0306  0.1591  0.0162
    1AU     LIG  285   8.738   1.789   5.497  0.0819  0.1249 -0.0071
    1AU     LIG  286   8.819   1.363   5.709  0.0679 -0.2256 -0.4500
    1AU     LIG  287   9.017   1.052   5.852 -0.5029  0.0430  0.3427
    1AU     LIG  288   8.883   0.761   6.141 -0.2045 -0.1540  0.1789
    1AU     LIG  289   8.897   0.701   6.597 -0.1352  0.2215  0.2341
    1AU       S  290   9.053   1.825   5.851  0.1136 -0.0009  0.3591
    1AU     LIG  291   9.425   1.660   5.674 -0.1361  0.2004  0.3065
    1AU     LIG  292   9.481   1.279   5.804  0.0488  0.4318 -0.3338
    1AU     LIG  293   9.647   0.872   5.844  0.1329 -0.2999  0.3146
    1AU     LIG  294   9.821   0.476   5.902 -0.1617  0.0993 -0.1973
    1AU     LIG  295  10.172   0.320   6.129  0.0563  0.3834  0.0576
    1AU    AUSL  296   8.451   2.989   7.376 -0.0635  0.0830  0.0135
    1AU    AUSL  297   8.891   2.881   7.264  0.0622 -0.0296  0.0306
    1AU     AUL  298   8.867   3.083   7.535 -0.0536 -0.0892  0.0458
    1AU       S  299   8.380   3.195   7.472  0.2809  0.1776  0.3421
    1AU     LIG  300   7.966   3.495   7.391 -0.3372 -0.0618  0.1416
    1AU     LIG  301   7.634   3.755   7.468 -0.1330  0.2429 -0.2667
    1AU     LIG  302   7.386   4.171   7.641 -0.0643  0.2678 -0.0809
    1AU     LIG  303   7.294   4.647   7.517 -0.0755 -0.0122  0.0505
    1AU     LIG  304   7.195   4.923   7.260  0.3572 -0.3841 -0.2025
    1AU       S  305   8.869   3.440   7.231 -0.4057 -0.1823  0.1333
    1AU     LIG  306   8.839   3.645   7.638  0.3506  0.0326 -0.1608
    1AU     LIG  307   8.860   4.081   7.688 -0.2095 -0.3800  0.1379
    1AU     LIG  308   8.685   4.484   7.393  0.2363  0.0321 -0.3580
    1AU     LIG  309   8.520   4.982   7.174 -0.3427  0.0643  0.0356
    1AU     LIG  310   8.217   5.307   7.088  0.2195  0.0856  0.3973
    1AU    AUSL  311   8.470   2.586   7.530 -0.0203 -0.0078 -0.0470
    1AU    AUSL  312   8.044   2.851   7.397 -0.0781  0.0011 -0.0962
    1AU     AUL  313   8.250   2.784   7.719  0.0094  0.0577  0.1153
    1AU       S  314   8.382   3.208   7.755  0.1009  0.1085 -0.0069
    1AU     LIG  315   8.003   3.284   7.998 -0.0630 -0.0500 -0.0943
    1AU     LIG  316   7.654   3.106   8.207  0.1659  0.0618  0.0160
    1AU     LIG  317   7.442   2.761   8.416 -0.2712 -0.1571  0.1813
    1AU     LIG  318   7.239   2.283   8.381 -0.1673 -0.4645 -0.3862
    1AU     LIG  319   7.206   1.951   8.269  0.1533  0.1051  0.1040
    1AU       S  320   7.835   2.899   7.541  0.0418  0.0123 -0.0360
    1AU     LIG  321   7.611   3.235   7.671 -0.1939  0.1725  0.4700
    1AU     LIG  322   7.519   3.556   8.002  0.0540  0.1029 -0.0119
    1AU     LIG  323   7.305   3.425   8.354  0.3345 -0.0859  0.0470
    1AU     LIG  324   7.452   3.193   8.718 -0.1344  0.0977  0.1378
    1AU     LIG  325   7.651   2.863   8.853 -0.4048 -0.1515  0.1777
    1AU    AUSL  326   8.421   2.417   6.095  0.0552  0.0215  0.0337
    1AU    AUSL  327   8.201   2.090   6.351  0.0155 -0.0266 -0.0427
    1AU     AUL  328   8.218   2.176   5.924 -0.0148 -0.0255  0.1082
    1AU       S  329   7.808   2.072   6.195  0.0798  0.1947  0.3433
    1AU     LIG  330   7.454   1.782   6.089  0.1198 -0.0078  0.3023
    1AU     LIG  331   7.060   1.632   6.169  0.2781 -0.0485  0.0224
    1AU     LIG  332   6.668   1.601   6.206 -0.0171 -0.1915  0.4348
    1AU     LIG  333   6.312   1.711   6.041  0.0717 -0.5631 -0.0135
    1AU     LIG  334   5.959   1.955   6.024  0.0158 -0.2336 -0.1256
    1AU       S  335   8.592   2.299   5.633  0.1667 -0.0919 -0.3413
    1AU     LIG  336   8.220   2.549   5.628 -0.1882  0.1060  0.2220
    1AU     LIG  337   7.873   2.743   5.667 -0.3426  0.2444  0.0160
    1AU     LIG  338   7.820   2.946   5.978  0.1751 -0.2193  0.2313
    1AU     LIG  339   7.602   3.102   6.304 -0.3001 -0.1019  0.0443
    1AU     LIG  340   7.211   3.167   6.500 -0.2047  0.1958  0.2070
    1AU    AUSL  341   8.761   2.191   6.225  0.0116  0.0584  0.0421
    1AU    AUSL  342   8.686   2.660   6.316 -0.0082 -0.0949  0.0511
    1AU     AUL  343   8.686   2.591   5.980 -0.0199  0.0194  0.0836
    1AU       S  344   8.956   2.915   5.830  0.1521 -0.1493 -0.5050
    1AU     LIG  345   8.592   2.888   5.542 -0.3243 -0.0382  0.1670
    1AU     LIG  346   8.168   3.146   5.682 -0.1686 -0.0426 -0.2299
    1AU     LIG  347   8.154   3.483   5.850  0.0558  0.1521  0.1248
    1AU     LIG  348   8.310   3.832   6.148 -0.2490 -0.1150  0.0466
    1AU     LIG  349   8.289   3.981   6.486 -0.1762 -0.0117  0.1367
    1AU       S  350   8.794   2.198   5.780 -0.0577  0.2013 -0.0295
    1AU     LIG  351   9.188   2.347   5.529 -0.0909 -0.0298 -0.2942
    1AU     LIG  352   9.551   2.615   5.214 -0.3427 -0.2908 -0.0280
    1AU     LIG  353   9.798   2.805   4.988 -0.0923  0.1595 -0.1009
    1AU     LIG  354  10.038   3.210   4.896 -0.0970 -0.1878 -0.0118
    1AU     LIG  355  10.326   3.370   5.121 -0.5768  0.1856 -0.2381
    1AU    AUSL  356   9.354   1.859   7.063 -0.0833 -0.0314  0.0148
    1AU    AUSL  357   9.224   1.650   6.707 -0.0466  0.0226  0.0103
    1AU     AUL  358   9.618   1.795   6.900 -0.0937 -0.0379  0.0039
    1AU       S  359   9.389   1.492   6.604  0.5678  0.1512 -0.1597
    1AU     LIG  360   9.750   1.213   6.638 -0.0376 -0.2867 -0.1527
    1AU     LIG  361   9.944   0.928   6.896  0.1251  0.2907  0.2908
    1AU     LIG  362  10.069   0.530   6.819  0.0563 -0.1364 -0.1423
    1AU     LIG  363  10.381   0.069   6.818 -0.0626  0.0129  0.1120
    1AU     LIG  364  10.711  -0.027   6.978 -0.0668 -0.2599  0.1806
    1AU       S  365   9.634   1.472   7.234  0.1239  0.0469  0.2536
    1AU     LIG  366   9.985   1.404   7.306 -0.1315  0.0288  0.2564
    1AU     LIG  367  10.411   1.582   7.466 -0.1226  0.0265  0.0232
    1AU     LIG  368  10.868   1.453   7.511  0.0980 -0.1178 -0.0166
    1AU     LIG  369  11.098   1.326   7.210 -0.0613 -0.3766 -0.0432
    1AU     LIG  370  11.258   1.602   6.965 -0.2938  0.2081 -0.1396
    1AU    AUSL  371   9.161   1.429   7.064 -0.0129 -0.0357 -0.0026
    1AU    AUSL  372   8.833   1.437   7.381  0.0062  0.0363 -0.0030
    1AU     AUL  373   9.051   1.169   7.393 -0.0365  0.0512  0.0566
    1AU       S  374   9.386   1.386   7.126  0.1939 -0.0365  0.1476
    1AU     LIG  375   9.537   1.017   7.227  0.5091 -0.0047  0.2884
    1AU     LIG  376   9.697   0.465   7.127  0.3284 -0.1746  0.0872
    1AU     LIG  377   9.857   0.064   7.261 -0.1981  0.0547  0.0605
    1AU     LIG  378  10.141  -0.235   7.127  0.3803  0.1651 -0.4404
    1AU     LIG  379  10.351  -0.427   6.838 -0.1012 -0.1395 -0.2002
    1AU       S  380   8.709   1.026   7.121 -0.0518 -0.3879  0.3910
    1AU     LIG  381   8.978   0.685   7.154  0.1385 -0.2814 -0.2197
    1AU     LIG  382   8.822   0.323   7.072 -0.0169 -0.0641 -0.2435
    1AU     LIG  383   8.628   0.006   6.787 -0.0695  0.2782  0.3510
    1AU     LIG  384   8.477  -0.180   6.430  0.1782 -0.1975  0.0025
    1AU     LIG  385   8.592  -0.137   5.940 -0.1105  0.2564 -0.0072
    1AU    AUSL  386   9.203   1.676   7.437  0.0324 -0.0125  0.0000
    1AU    AUSL  387   9.577   2.181   7.218  0.0129  0.0185 -0.0484
    1AU     AUL  388   9.522   1.907   7.377  0.0926  0.0695  0.0766
    1AU       S  389   9.794   2.293   7.410 -0.2682  0.0773 -0.0406
    1AU     LIG  390  10.123   2.685   7.205  0.1273  0.2596 -0.1965
    1AU     LIG  391  10.306   2.722   6.767  0.1202 -0.2141 -0.0106
    1AU     LIG  392  10.723   2.776   6.668  0.0916  0.0693  0.2764
    1AU     LIG  393  11.084   2.926   6.612 -0.1064 -0.1941  0.3312
    1AU     LIG  394  11.197   3.285   6.348  0.0294  0.5228 -0.4299
    1AU       S  395   9.421   1.485   7.502  0.0324  0.1549  0.1569
    1AU     LIG  396   9.391   1.048   7.722 -0.1112 -0.0699  0.0941
    1AU     LIG  397   9.415   0.627   7.522 -0.2627 -0.0593 -0.4054
    1AU     LIG  398   9.379   0.161   7.483 -0.2931 -0.2063 -0.2078
    1AU     LIG  399   9.017  -0.120   7.400 -0.6940  0.1742 -0.0303
    1AU     LIG  400   8.975  -0.365   7.046  0.4660 -0.1269 -0.1557
    1AU    AUSL  401   8.727   3.021   6.582  0.0146 -0.0445 -0.0676
    1AU    AUSL  402   8.618   3.092   6.988 -0.0573  0.0661 -0.0293
    1AU     AUL  403   8.867   3.286   6.690 -0.0394 -0.0591  0.0913
    1AU       S  404   8.506   3.453   6.410 -0.0095 -0.0737 -0.2583
    1AU     LIG  405   8.600   3.712   6.822 -0.2319  0.2216  0.0955
    1AU     LIG  406   8.754   3.974   7.136 -0.1173 -0.3790  0.1302
    1AU     LIG  407   9.085   4.234   7.164  0.1155 -0.0829  0.1193
    1AU     LIG  408   9.190   4.668   7.451  0.4172  0.0580  0.4536
    1AU     LIG  409   8.907   4.988   7.472 -0.1745 -0.3856 -0.1277
    1AU       S  410   8.653   3.326   7.124  0.1533 -0.2038  0.0781
    1AU     LIG  411   8.425   3.680   7.325  0.1587  0.1611 -0.2208
    1AU     LIG  412   8.371   4.038   7.447 -0.0641  0.1765 -0.0161
    1AU     LIG  413   8.433   4.205   7.933 -0.3501  0.5638  0.2029
    1AU     LIG  414   8.475   4.458   8.287  0.0209  0.1701 -0.1957
    1AU     LIG  415   8.760   4.605   8.439 -0.0882 -0.0305 -0.1613
    1AU    AUSL  416   8.356   2.916   6.303  0.0004 -0.0384 -0.0477
    1AU    AUSL  417   9.044   2.917   6.331  0.0198 -0.0482 -0.0512
    1AU     AUL  418   8.688   3.020   6.221 -0.0159 -0.0874  0.0519
    1AU       S  419   8.343   3.322   6.242 -0.3762  0.2785  0.0390
    1AU     LIG  420   7.988   3.569   6.328  0.1365 -0.1008 -0.1964
    1AU     LIG  421   7.773   3.984   6.543 -0.0338  0.3045  0.2001
    1AU     LIG  422   7.759   4.381   6.775 -0.1005  0.0357  0.0900
    1AU     LIG  423   7.539   4.773   6.956 -0.0757 -0.3876 -0.1622
    1AU     LIG  424   7.279   5.193   6.877  0.0564  0.1088  0.2863
    1AU       S  425   9.127   2.993   6.069 -0.3106  0.1946 -0.3109
    1AU     LIG  426   9.003   3.424   6.234  0.1542  0.1531  0.4039
    1AU     LIG  427   8.889   3.814   6.367 -0.3795  0.0628 -0.0188
    1AU     LIG  428   8.810   4.145   6.618 -0.0759 -0.4065 -0.3410
    1AU     LIG  429   8.426   4.247   6.868  0.0226  0.0295 -0.0547
    1AU     LIG  430   8.205   4.485   7.112  0.2202  0.1972  0.1881
    1AU    AUSL  431   8.305   3.088   6.693  0.1229 -0.0143  0.0046
    1AU    AUSL  432   8.165   2.681   6.600 -0.0079  0.0579  0.0817
    1AU     AUL  433   8.076   2.987   6.415 -0.1005  0.0446  0.0234
    1AU       S  434   7.852   3.139   6.817  0.3420  0.5462  0.2089
    1AU     LIG  435   7.623   3.530   6.676  0.0183 -0.0976 -0.0175
    1AU     LIG  436   7.397   3.859   6.874  0.0251 -0.2155 -0.3136
    1AU     LIG  437   6.884   3.801   6.842 -0.1642 -0.0896  0.1467
    1AU     LIG  438   6.405   3.684   6.742 -0.0477 -0.3893 -0.7099
    1AU     LIG  439   5.972   3.563   6.727  0.3896  0.0106  0.1119
    1AU       S  440   8.332   3.355   6.600  0.4935  0.2298  0.1138
    1AU     LIG  441   8.157   3.554   6.897 -0.0994  0.0071  0.0282
    1AU     LIG  442   7.976   3.909   7.093 -0.4243  0.2557 -0.0493
    1AU     LIG  443   7.613   4.223   7.213 -0.1299  0.0599 -0.0519
    1AU     LIG  444   7.229   4.308   7.010 -0.0305  0.0054 -0.4483
    1AU     LIG  445   6.761   4.288   6.917  0.0132 -0.1781  0.0938
    1AU    AUSL  446   8.417   1.417   7.217  0.0432 -0.0672  0.1118
    1AU    AUSL  447   8.784   1.827   7.536 -0.0274  0.1200  0.0893
    1AU     AUL  448   8.564   1.393   7.527  0.0416 -0.0583 -0.0167
    1AU       S  449   8.506   1.028   7.234  0.1470  0.4481 -0.0371
    1AU     LIG  450   8.129   0.893   7.289 -0.0164  0.0300 -0.0481
    1AU     LIG  451   7.805   0.614   7.104  0.0802 -0.2889  0.3725
    1AU     LIG  452   7.685   0.284   6.840  0.1658  0.2459 -0.3123
    1AU     LIG  453   7.409  -0.042   6.723  0.1197 -0.0036  0.0218
    1AU     LIG  454   7.377  -0.415   6.534 -0.0291 -0.2622 -0.1869
    1AU       S  455   8.869   1.631   7.814 -0.0321 -0.3761 -0.1822
    1AU     LIG  456   9.093   1.364   7.930  0.0208 -0.0788 -0.3435
    1AU     LIG  457   9.418   1.300   8.161 -0.0492 -0.2182  0.3474
    1AU     LIG  458   9.785   1.328   7.873  0.0151 -0.3237 -0.1011
    1AU     LIG  459   9.946   1.720   7.607 -0.0527 -0.3604 -0.3012
    1AU     LIG  460  10.075   1.899   7.160 -0.7090  0.0440  0.3492
    1AU    AUSL  461   8.767   1.519   6.952 -0.0510 -0.0748  0.0059
    1AU    AUSL  462   8.324   1.637   6.849  0.0615  0.0207  0.0790
    1AU     AUL  463   8.344   1.321   6.913 -0.0923  0.0045  0.0384
    1AU       S  464   8.794   1.153   6.966 -0.0061 -0.3270  0.1611
    1AU     LIG  465   9.293   0.912   6.819 -0.4153 -0.1744 -0.0196
    1AU     LIG  466   9.441   0.491   6.672  0.1008 -0.2963 -0.1281
    1AU     LIG  467   9.774   0.212   6.572 -0.1620  0.3122 -0.2099
    1AU     LIG  468  10.017  -0.118   6.511  0.1338 -0.2452 -0.0492
    1AU     LIG  469   9.938  -0.654   6.459  0.0754 -0.1493 -0.2131
    1AU       S  470   8.192   1.084   6.547 -0.0867  0.0523  0.1886
    1AU     LIG  471   8.053   0.722   6.527  0.0939 -0.0109 -0.1889
    1AU     LIG  472   8.174   0.271   6.673  0.0395  0.2636 -0.1101
    1AU     LIG  473   8.037  -0.161   6.723 -0.2445  0.1096 -0.1899
    1AU     LIG  474   7.847  -0.521   6.435 -0.0160  0.3379  0.1584
    1AU     LIG  475   7.695  -0.664   6.055 -0.0631 -0.1151  0.0237
    1AU    AUSL  476   7.810   2.644   6.859 -0.0026 -0.0120  0.0047
    1AU    AUSL  477   8.029   2.529   6.234 -0.0088 -0.0612 -0.0283
    1AU     AUL  478   7.775   2.635   6.522  0.0273  0.1117 -0.0174
    1AU       S  479   7.839   2.416   6.093 -0.3048  0.0135 -0.0387
    1AU     LIG  480   7.369   2.676   6.227  0.1582 -0.1241 -0.0877
    1AU     LIG  481   6.944   2.597   6.488  0.2910 -0.3511 -0.1694
    1AU     LIG  482   6.672   2.935   6.533 -0.2146 -0.0000  0.0782
    1AU     LIG  483   6.308   3.175   6.733  0.1555 -0.1679  0.0940
    1AU     LIG  484   5.839   3.111   6.968  0.1177  0.1091 -0.0521
    1AU       S  485   7.788   3.037   6.790  0.1308 -0.4288  0.0522
    1AU     LIG  486   7.376   2.860   6.836 -0.1064  0.0611  0.0375
    1AU     LIG  487   7.016   2.833   6.986 -0.2129  0.0462  0.0948
    1AU     LIG  488   6.673   2.632   6.966  0.1423 -0.1014  0.2160
    1AU     LIG  489   6.454   2.472   6.652  0.1540 -0.1382 -0.0485
    1AU     LIG  490   6.130   2.231   6.909 -0.2706  0.0581  0.1793
    1AU    AUSL  491   8.181   2.842   7.003 -0.0781  0.0430 -0.1499
    1AU    AUSL  492   7.993   2.456   7.200 -0.0946 -0.0493 -0.0233
    1AU     AUL  493   7.761   2.725   7.148 -0.0693  0.0492 -0.0211
    1AU       S  494   7.882   3.123   6.998  0.0459 -0.2044 -0.0797
    1AU     LIG  495   7.497   3.365   7.139 -0.4575  0.2733  0.3990
    1AU     LIG  496   7.093   3.358   6.977  0.0231  0.1568 -0.1979
    1AU     LIG  497   6.726   3.249   6.898 -0.1530 -0.1376 -0.2829
    1AU     LIG  498   6.441   3.025   7.209  0.1312 -0.0687  0.1385
    1AU     LIG  499   6.134   2.695   7.135 -0.0725 -0.2312 -0.0957
    1AU       S  500   7.619   2.612   7.584 -0.3380 -0.0043 -0.3783
    1AU     LIG  501   7.402   2.428   7.234  0.3545  0.0294 -0.4813
    1AU     LIG  502   7.120   2.355   6.868 -0.1033  0.4019 -0.0791
    1AU     LIG  503   6.722   2.110   6.900 -0.1257 -0.0311 -0.0587
    1AU     LIG  504   6.360   1.800   6.811  0.0205  0.2570  0.0781
    1AU     LIG  505   5.956   1.733   6.802  0.3232 -0.1068  0.0555
    2POPC   NC3  506   1.102   8.876   8.862  0.1301  0.0519  0.0796
    2POPC   PO4  507   1.199   8.349   8.966 -0.2992 -0.0733  0.0562
    2POPC   GL1  508   1.098   8.279   8.524  0.1882  0.0828  0.1273
    2POPC   GL2  509   0.922   8.059   8.352  0.3845  0.0120 -0.1402
    2POPC   C1A  510   0.998   8.574   8.141 -0.3509 -0.1490 -0.4333
    2POPC   D2A  511   0.736   8.609   7.739 -0.0095 -0.2706 -0.2436
    2POPC   C3A  512   0.273   8.694   7.616  0.0035 -0.1675  0.0580
    2POPC   C4A  513  -0.043   8.962   7.449  0.1363 -0.0048 -0.0275
    2POPC   C1B  514   0.992   8.090   7.878 -0.0630 -0.0156 -0.1242
    2POPC   C2B  515   1.028   8.293   7.504  0.3519  0.1705 -0.0441
    2POPC   C3B  516   1.291   8.598   7.160 -0.2619  0.0455  0.1851
    2POPC   C4B  517   1.244   8.750   6.798  0.0970  0.3223  0.0541
    3POPC   NC3  518   2.147   6.014   8.606  0.2525 -0.0555  0.1680
    3POPC   PO4  519   1.737   5.931   8.667  0.1341  0.0113  0.1657
    3POPC   GL1  520   1.797   5.834   8.245 -0.5258  0.0999  0.2463
    3POPC   GL2  521   2.049   5.763   8.139 -0.0959 -0.0569 -0.1315
    3POPC   C1A  522   1.594   5.640   7.931  0.0970  0.1603 -0.3234
    3POPC   D2A  523   1.495   5.740   7.533 -0.1193  0.0467  0.2375
    3POPC   C3A  524   1.336   5.617   7.225 -0.3073 -0.2401  0.1208
    3POPC   C4A  525   1.197   5.416   6.877  0.1364  0.1209 -0.2731
    3POPC   C1B  526   2.018   5.818   7.743  0.2705 -0.2573 -0.0415
    3POPC   C2B  527   2.335   6.012   7.401 -0.4184  0.5153 -0.1839
    3POPC   C3B  528   2.496   6.341   7.562  0.4025  0.0442 -0.2758
    3POPC   C4B  529   2.686   6.647   7.392 -0.0153  0.2395  0.0352
    4POPC   NC3  530   4.533   5.135   9.064 -0.0443 -0.3393  0.0260
    4POPC   PO4  531   4.394   5.419   8.707 -0.0712  0.2760 -0.5137
    4POPC   GL1  532   4.483   5.370   8.215  0.1807  0.1775  0.0854
    4POPC   GL2  533   4.253   5.273   8.108 -0.0282 -0.1730 -0.1824
    4POPC   C1A  534   4.585   5.318   7.726 -0.0345  0.3083 -0.0393
    4POPC   D2A  535   4.540   5.556   7.366 -0.3870 -0.0171 -0.2233
    4POPC   C3A  536   4.194   5.825   7.442  0.0339  0.0863  0.1201
    4POPC   C4A  537   3.801   5.822   7.404 -0.0961 -0.0376 -0.1067
    4POPC   C1B  538   3.779   5.286   8.016  0.0375  0.1929 -0.0491
    4POPC   C2B  539   3.537   5.493   7.736 -0.1246  0.1716  0.0817
    4POPC   C3B  540   3.275   5.713   7.343  0.0149  0.0972  0.8817
    4POPC   C4B  541   3.165   5.980   6.997 -0.3036 -0.2500  0.0428
    5POPC   NC3  542   4.374   0.337   9.130  0.1118  0.4220  0.0065
    5POPC   PO4  543   4.357  -0.122   9.047  0.0123 -0.3153  0.0500
    5POPC   GL1  544   4.436  -0.189   8.567 -0.1388  0.5512  0.2235
    5POPC   GL2  545   4.409  -0.480   8.457  0.0254 -0.2382  0.1806
    5POPC   C1A  546   4.379  -0.035   8.092  0.0213  0.2090 -0.1494
    5POPC   D2A  547   4.199  -0.084   7.766 -0.2898  0.0875  0.3470
    5POPC   C3A  548   3.808  -0.282   7.782 -0.0213  0.4011 -0.1086
    5POPC   C4A  549   3.613  -0.494   7.491  0.1603  0.0069 -0.1039
    5POPC   C1B  550   4.667  -0.409   8.052 -0.0265  0.0921 -0.1123
    5POPC   C2B  551   4.698  -0.318   7.619  0.2571  0.1880  0.0300
    5POPC   C3B  552   4.843  -0.356   7.163 -0.0560 -0.3373 -0.0882
    5POPC   C4B  553   5.180  -0.208   6.888  0.2578  0.0009  0.1778
    6POPC   NC3  554   3.324   8.379   8.969  0.1899 -0.2347 -0.1174
    6POPC   PO4  555   3.232   8.622   8.666  0.1554 -0.0855 -0.0778
    6POPC   GL1  556   3.064   8.798   8.352 -0.0055  0.3966  0.1445
    6POPC   GL2  557   3.133   9.056   8.360 -0.0486  0.0338 -0.0018
    6POPC   C1A  558   2.853   8.502   8.013 -0.3713  0.2355  0.4251
    6POPC   D2A  559   2.773   8.394   7.549  0.1876 -0.0585  0.0443
    6POPC   C3A  560   2.862   8.325   7.167  0.0296  0.0630 -0.1584
    6POPC   C4A  561   2.877   8.223   6.714 -0.1371  0.2043 -0.0434
    6POPC   C1B  562   3.078   9.178   8.004 -0.1343  0.2143  0.5024
    6POPC   C2B  563   2.918   9.192   7.456  0.2731  0.4414 -0.1165
    6POPC   C3B  564   2.817   9.251   6.958  0.0206 -0.1845  0.0682
    6POPC   C4B  565   2.947   9.093   6.498  0.1788 -0.2873  0.0504
    7POPC   NC3  566   8.322   6.774   8.816 -0.3871  0.0030 -0.1957
    7POPC   PO4  567   8.141   6.544   9.166 -0.3622  0.2440 -0.4708
    7POPC   GL1  568   7.943   6.434   8.758  0.0155 -0.0811 -0.1171
    7POPC   GL2  569   8.124   6.516   8.481  0.1627  0.0450  0.1640
    7POPC   C1A  570   7.933   6.054   8.617 -0.0666 -0.1623  0.5077
    7POPC   D2A  571   8.239   5.827   8.737 -0.2587 -0.0374  0.1809
    7POPC   C3A  572   8.221   5.380   8.585  0.2304 -0.1300 -0.0043
    7POPC   C4A  573   8.201   4.903   8.438  0.1741 -0.0012 -0.1927
    7POPC   C1B  574   8.152   6.197   8.165  0.0758 -0.0951 -0.0771
    7POPC   C2B  575   8.275   6.094   7.749  0.3057 -0.0638  0.0317
    7POPC   C3B  576   8.127   6.014   7.398  0.0214 -0.1330 -0.1691
    7POPC   C4B  577   8.090   5.812   6.964 -0.1311 -0.0651  0.0264
    8POPC   NC3  578   5.803   5.507   9.248 -0.1377 -0.0995 -0.0679
    8POPC   PO4  579   5.738   5.971   9.195 -0.0535 -0.0055  0.0548
    8POPC   GL1  580   5.889   5.792   8.768  0.0139  0.0105  0.1822
    8POPC   GL2  581   5.823   5.493   8.619  0.0718  0.0019  0.0309
    8POPC   C1A  582   5.843   5.938   8.334 -0.0549 -0.0280  0.0827
    8POPC   D2A  583   5.990   6.103   8.098  0.1293 -0.0257  0.0601
    8POPC   C3A  584   5.972   5.958   7.574  0.1318  0.1074 -0.1111
    8POPC   C4A  585   6.020   5.869   7.181  0.1307 -0.1961 -0.1749
    8POPC   C1B  586   5.744   5.525   8.139 -0.0524 -0.0266 -0.4101
    8POPC   C2B  587   5.752   5.589   7.783 -0.0890  0.0411  0.5275
    8POPC   C3B  588   6.126   5.415   7.491 -0.0341 -0.0920  0.1485
    8POPC   C4B  589   6.305   5.101   7.141 -0.2113 -0.0893  0.2074
    9POPC   NC3  590   9.020   6.382   8.821  0.2138  0.0297 -0.0789
    9POPC   PO4  591   9.374   6.056   8.721 -0.2729 -0.1378 -0.3154
    9POPC   GL1  592   9.176   6.109   8.397  0.0120 -0.1189 -0.0300
    9POPC   GL2  593   9.013   6.396   8.313 -0.1213  0.1822  0.1405
    9POPC   C1A  594   9.104   5.791   7.972  0.3062  0.0344  0.2545
    9POPC   D2A  595   8.934   5.788   7.508 -0.2349 -0.0029  0.2043
    9POPC   C3A  596   8.517   5.960   7.144  0.0844 -0.0994 -0.0913
    9POPC   C4A  597   8.594   6.061   6.816 -0.0403  0.4180  0.1746
    9POPC   C1B  598   9.206   6.276   7.834 -0.4848  0.0041 -0.1198
    9POPC   C2B  599   9.137   6.220   7.399 -0.0947  0.0764 -0.3419
    9POPC   C3B  600   8.958   6.342   7.048 -0.3093 -0.0090  0.1860
    9POPC   C4B  601   8.875   6.593   6.684 -0.2866  0.0416 -0.0838
   10POPC   NC3  602   9.976   4.596   9.300 -0.3048 -0.2026 -0.0559
   10POPC   PO4  603   9.967   5.057   9.130  0.1445 -0.1921 -0.0182
   10POPC   GL1  604   9.813   5.048   8.697 -0.1450  0.3700 -0.1401
   10POPC   GL2  605   9.844   5.230   8.495 -0.1258  0.3971 -0.0559
   10POPC   C1A  606   9.655   4.719   8.341  0.1161 -0.2922  0.4764
   10POPC   D2A  607   9.452   4.633   7.978  0.1543  0.2836 -0.0127
   10POPC   C3A  608   8.957   4.576   7.942 -0.0139  0.2110  0.0102
   10POPC   C4A  609   8.613   4.800   7.803  0.1465 -0.5738  0.0516
   10POPC   C1B  610   9.865   5.067   8.044  0.0074 -0.0791 -0.0084
   10POPC   C2B  611   9.617   5.004   7.665 -0.0251 -0.0657 -0.0952
   10POPC   C3B  612   9.468   5.028   7.215  0.2362 -0.2561  0.1486
   10POPC   C4B  613   9.594   4.950   6.850 -0.3816 -0.0237 -0.0955
   11POPC   NC3  614   6.292   1.514   9.306 -0.0283  0.2743  0.1215
   11POPC   PO4  615   6.697   1.396   9.234 -0.0259  0.2234  0.1138
   11POPC   GL1  616   6.750   1.514   8.832  0.1425  0.0779  0.1210
   11POPC   GL2  617   6.428   1.295   8.823 -0.1513 -0.0979  0.1658
   11POPC   C1A  618   6.847   1.492   8.296  0.0021 -0.1923  0.2676
   11POPC   D2A  619   6.819   1.635   8.021  0.1171 -0.1642 -0.3269
   11POPC   C3A  620   6.501   1.462   7.717 -0.0704 -0.3041  0.2904
   11POPC   C4A  621   6.096   1.403   7.857 -0.2178  0.0277  0.0793
   11POPC   C1B  622   6.773   1.091   8.550 -0.0984  0.1783  0.2545
   11POPC   C2B  623   7.043   0.827   8.296 -0.1674  0.2304 -0.2209
   11POPC   C3B  624   7.296   0.821   7.888 -0.0970  0.0062  0.0080
   11POPC   C4B  625   7.210   0.511   7.546  0.2087 -0.0870 -0.0932
   12POPC   NC3  626   8.682   4.200  10.029  0.1689 -0.0832  0.1574
   12POPC   PO4  627   8.738   4.492   9.711 -0.0794 -0.0775  0.1365
   12POPC   GL1  628   9.032   4.418   9.279 -0.3787 -0.1744  0.2047
   12POPC   GL2  629   8.883   4.689   8.971  0.0208  0.1852 -0.3178
   12POPC   C1A  630   9.421   4.238   8.951 -0.2039  0.3081  0.1650
   12POPC   D2A  631   9.352   3.868   8.641 -0.3373 -0.0907  0.1141
   12POPC   C3A  632   9.539   3.567   8.469 -0.0835  0.2287  0.0903
   12POPC   C4A  633   9.693   3.563   7.937  0.1658 -0.1702  0.1248
   12POPC   C1B  634   8.830   4.240   8.759  0.0886  0.3013 -0.1532
   12POPC   C2B  635   8.782   3.747   8.602  0.2849 -0.0016  0.0994
   12POPC   C3B  636   8.936   3.715   8.241 -0.0972  0.1276 -0.1719
   12POPC   C4B  637   9.261   3.790   7.925 -0.0774  0.0120 -0.1448
   13POPC   NC3  638   5.281  10.016   9.144 -0.0491  0.2816 -0.1726
   13POPC   PO4  639   5.216   9.706   8.781 -0.0347 -0.1692  0.1711
   13POPC   GL1  640   5.384   9.446   8.510 -0.0152  0.1691 -0.0430
   13POPC   GL2  641   5.244   9.289   8.276  0.0609 -0.0438  0.0295
   13POPC   C1A  642   5.703   9.615   8.128 -0.0819 -0.1720  0.0356
   13POPC   D2A  643   6.053   9.622   7.858  0.1648 -0.0749  0.1085
   13POPC   C3A  644   5.973   9.749   7.421 -0.0650  0.2341  0.1543
   13POPC   C4A  645   5.937   9.806   6.968 -0.1051 -0.2089  0.2000
   13POPC   C1B  646   5.181   9.366   7.864  0.3727  0.0042 -0.0177
   13POPC   C2B  647   5.206   9.736   7.514  0.2492  0.0711 -0.0864
   13POPC   C3B  648   5.157   9.813   7.071  0.1249  0.2299  0.1132
   13POPC   C4B  649   5.247   9.814   6.677  0.1037 -0.1098 -0.1935
   14POPC   NC3  650   3.202   9.021   8.964 -0.0744  0.0297 -0.1444
   14POPC   PO4  651   3.469   9.287   8.712  0.0470  0.0390 -0.2917
   14POPC   GL1  652   3.523   9.430   8.238  0.1302 -0.0159 -0.0231
   14POPC   GL2  653   3.630   9.744   7.971 -0.1306 -0.0851  0.0040
   14POPC   C1A  654   3.634   9.208   7.965  0.1702  0.1551 -0.0100
   14POPC   D2A  655   3.744   8.796   7.733 -0.0324  0.3196  0.2181
   14POPC   C3A  656   3.749   8.527   7.444  0.1525 -0.1413 -0.0542
   14POPC   C4A  657   3.886   8.314   7.055  0.1570  0.3975 -0.1137
   14POPC   C1B  658   3.654   9.507   7.543 -0.1495  0.3173 -0.0091
   14POPC   C2B  659   3.868   9.185   7.388 -0.2548  0.0287  0.2350
   14POPC   C3B  660   4.064   9.014   7.015 -0.1304  0.2408 -0.1533
   14POPC   C4B  661   4.293   8.867   6.608  0.0252 -0.1116 -0.1411
   15POPC   NC3  662   3.178   6.972   8.550  0.4139  0.0856  0.1127
   15POPC   PO4  663   2.989   7.306   8.222  0.1915  0.0719 -0.1904
   15POPC   GL1  664   3.398   7.134   8.001 -0.1127  0.1032  0.1007
   15POPC   GL2  665   3.588   7.465   8.052 -0.2269 -0.0022  0.1888
   15POPC   C1A  666   3.512   6.998   7.589 -0.0934 -0.1598 -0.0397
   15POPC   D2A  667   3.559   7.221   7.196  0.6665 -0.0981  0.2526
   15POPC   C3A  668   3.204   7.279   6.921  0.1984 -0.3031 -0.2864
   15POPC   C4A  669   2.718   7.101   7.046  0.2233 -0.0391 -0.0605
   15POPC   C1B  670   3.686   7.484   7.659  0.3420  0.0537 -0.0585
   15POPC   C2B  671   3.820   7.612   7.201  0.3151 -0.2634 -0.2943
   15POPC   C3B  672   4.069   7.398   6.968 -0.2236 -0.0185  0.2281
   15POPC   C4B  673   4.113   7.228   6.624 -0.2037 -0.5202  0.0385
   16POPC   NC3  674   2.947   1.257   8.396  0.0939 -0.2464  0.2236
   16POPC   PO4  675   3.380   1.365   8.585  0.1961  0.0093 -0.1525
   16POPC   GL1  676   3.385   1.340   8.087 -0.0029  0.0489 -0.2875
   16POPC   GL2  677   3.640   1.422   7.956 -0.0616 -0.0099 -0.1221
   16POPC   C1A  678   3.265   1.376   7.677 -0.2383 -0.0916 -0.2254
   16POPC   D2A  679   2.978   1.581   7.313 -0.0494 -0.2941  0.2327
   16POPC   C3A  680   3.058   1.951   7.054 -0.4027 -0.1051 -0.0916
   16POPC   C4A  681   3.257   2.087   6.603 -0.1147  0.0998 -0.1921
   16POPC   C1B  682   3.853   1.725   7.684  0.3394  0.2993  0.1815
   16POPC   C2B  683   3.932   1.581   7.213 -0.0385  0.1157  0.0816
   16POPC   C3B  684   4.084   1.708   6.798 -0.2499  0.0668  0.0102
   16POPC   C4B  685   4.306   1.832   6.421 -0.0184 -0.1107 -0.3490
   17POPC   NC3  686   0.977   2.514   9.379  0.0812  0.1268  0.0592
   17POPC   PO4  687   1.366   2.698   9.284 -0.3117  0.1280  0.2767
   17POPC   GL1  688   1.272   2.515   8.979  0.2132 -0.0570 -0.1735
   17POPC   GL2  689   1.018   2.254   8.878 -0.0602 -0.1454  0.0198
   17POPC   C1A  690   1.260   2.700   8.548  0.2595 -0.2281 -0.0662
   17POPC   D2A  691   1.012   2.657   8.138 -0.1986  0.3767 -0.0765
   17POPC   C3A  692   0.701   2.920   8.024 -0.1750  0.3669 -0.1622
   17POPC   C4A  693   0.248   2.979   7.986  0.1118  0.5115 -0.2316
   17POPC   C1B  694   0.910   2.166   8.529 -0.0014  0.5627 -0.1703
   17POPC   C2B  695   0.763   2.221   8.107  0.0237 -0.2723 -0.0523
   17POPC   C3B  696   0.564   2.487   7.771 -0.0706 -0.1615 -0.1673
   17POPC   C4B  697   0.098   2.550   7.648 -0.2256  0.0140 -0.2031
   18POPC   NC3  698   3.692   8.428   8.620  0.1225 -0.0289  0.3926
   18POPC   PO4  699   3.856   8.364   8.259 -0.2297 -0.4552  0.1991
   18POPC   GL1  700   3.963   8.297   7.927  0.1067 -0.1499 -0.0910
   18POPC   GL2  701   3.828   8.042   7.838  0.1164 -0.0171 -0.0356
   18POPC   C1A  702   4.234   8.436   7.611  0.1782 -0.0180  0.2050
   18POPC   D2A  703   4.227   8.583   7.217  0.1529  0.0537 -0.0283
   18POPC   C3A  704   4.334   8.397   6.797 -0.1070  0.0004  0.2836
   18POPC   C4A  705   4.420   8.096   6.345 -0.1460 -0.0843  0.2336
   18POPC   C1B  706   3.985   8.018   7.495  0.2334  0.3127 -0.0234
   18POPC   C2B  707   4.473   8.049   7.387 -0.0202  0.0409  0.1870
   18POPC   C3B  708   4.688   8.349   7.169 -0.3993  0.0864 -0.2615
   18POPC   C4B  709   5.053   8.416   7.093  0.0080  0.1603 -0.1065
   19POPC   NC3  710   7.207   4.980   8.980 -0.2188  0.4835 -0.1015
   19POPC   PO4  711   7.342   5.031   9.422  0.0588  0.0016 -0.0527
   19POPC   GL1  712   7.578   4.706   9.215  0.4381  0.1436 -0.0424
   19POPC   GL2  713   8.012   4.631   9.253  0.4429  0.0419 -0.2210
   19POPC   C1A  714   7.755   4.531   8.753 -0.0167 -0.1513 -0.2012
   19POPC   D2A  715   7.988   4.341   8.435 -0.0982  0.0443 -0.0908
   19POPC   C3A  716   8.018   4.456   8.021 -0.0690 -0.2937 -0.3114
   19POPC   C4A  717   7.923   4.574   7.603  0.0208  0.0333 -0.1993
   19POPC   C1B  718   8.129   4.900   8.946  0.1154  0.1923  0.0054
   19POPC   C2B  719   7.819   5.120   8.713  0.0699 -0.6397 -0.3628
   19POPC   C3B  720   7.533   5.152   8.385 -0.0203 -0.0585  0.1532
   19POPC   C4B  721   7.361   5.453   8.208  0.0727  0.0555  0.1528
   20POPC   NC3  722   9.350   3.670   9.783 -0.0848 -0.0124 -0.1005
   20POPC   PO4  723   9.112   3.283   9.835  0.2728 -0.2217 -0.0383
   20POPC   GL1  724   9.297   3.028   9.532  0.0983  0.2591 -0.0473
   20POPC   GL2  725   9.437   3.317   9.384 -0.1382  0.0170 -0.0348
   20POPC   C1A  726   9.423   2.861   9.085 -0.0320 -0.1622  0.0321
   20POPC   D2A  727   9.749   2.628   8.843  0.2203 -0.2071  0.0084
   20POPC   C3A  728   9.917   2.757   8.423  0.1417 -0.3007 -0.0987
   20POPC   C4A  729  10.252   2.796   8.038  0.1693 -0.0190 -0.2456
   20POPC   C1B  730   9.538   3.475   9.005 -0.1071 -0.0736 -0.3715
   20POPC   C2B  731   9.840   3.690   8.971 -0.2155 -0.1403 -0.0524
   20POPC   C3B  732  10.056   3.499   8.533 -0.1694  0.0618 -0.3972
   20POPC   C4B  733   9.932   3.251   8.260  0.1149 -0.0397  0.2467
   21POPC   NC3  734   9.070  10.479   9.213  0.2203 -0.2547  0.0006
   21POPC   PO4  735   9.473  10.289   9.315  0.2849  0.1347 -0.3159
   21POPC   GL1  736   9.510  10.356   8.834 -0.1694 -0.2384 -0.0336
   21POPC   GL2  737   9.603  10.072   8.836 -0.0938  0.1024  0.3359
   21POPC   C1A  738   9.510  10.331   8.371  0.0830  0.4451  0.0374
   21POPC   D2A  739   9.434  10.538   7.940 -0.0525 -0.0193 -0.1657
   21POPC   C3A  740   9.177  10.928   7.926 -0.1605 -0.2096  0.0095
   21POPC   C4A  741   8.980  11.270   7.736  0.1160  0.0559 -0.1583
   21POPC   C1B  742   9.693   9.881   8.367 -0.2021  0.0615  0.1927
   21POPC   C2B  743   9.629  10.036   7.946 -0.2021  0.1175  0.1162
   21POPC   C3B  744   9.498  10.230   7.554  0.1328 -0.0779  0.2493
   21POPC   C4B  745   9.468  10.162   7.205 -0.2894  0.0653  0.1350
   22POPC   NC3  746   4.857   4.139   8.724  0.1672  0.0737 -0.1846
   22POPC   PO4  747   5.278   3.885   8.839 -0.0867 -0.2439 -0.0044
   22POPC   GL1  748   5.057   3.669   8.510  0.1258  0.0851 -0.0209
   22POPC   GL2  749   4.914   3.488   8.403 -0.0471  0.1018 -0.0307
   22POPC   C1A  750   5.188   3.747   8.042 -0.1910 -0.0492 -0.3036
   22POPC   D2A  751   5.603   3.536   7.797 -0.3737  0.1833  0.0298
   22POPC   C3A  752   5.618   3.589   7.314  0.0144 -0.1478  0.1056
   22POPC   C4A  753   5.444   3.536   6.901  0.2263  0.0487  0.1589
   22POPC   C1B  754   4.981   3.306   8.052  0.0341 -0.1540 -0.2126
   22POPC   C2B  755   5.261   3.221   7.749 -0.1661  0.2230  0.2947
   22POPC   C3B  756   5.767   3.022   7.834  0.2825  0.1999  0.0241
   22POPC   C4B  757   6.017   3.109   7.452  0.1248 -0.2566  0.2349
   23POPC   NC3  758   3.581   0.472   8.409  0.1464  0.2726  0.0426
   23POPC   PO4  759   3.281   0.792   8.345 -0.0906 -0.2625 -0.1558
   23POPC   GL1  760   3.448   0.666   7.909 -0.0936  0.0198 -0.1253
   23POPC   GL2  761   3.718   0.810   8.032 -0.1414 -0.4272  0.2647
   23POPC   C1A  762   3.455   0.778   7.511  0.1536  0.1976  0.2236
   23POPC   D2A  763   3.597   0.482   7.284  0.1429 -0.3874 -0.1217
   23POPC   C3A  764   3.613   0.321   6.897 -0.0380 -0.0671 -0.1258
   23POPC   C4A  765   3.556  -0.044   6.638  0.3776  0.1666  0.1441
   23POPC   C1B  766   3.978   0.710   7.674  0.0548 -0.0643  0.0096
   23POPC   C2B  767   4.226   0.508   7.444 -0.0781  0.0019 -0.0467
   23POPC   C3B  768   4.193   0.388   7.150 -0.1291 -0.0479 -0.1425
   23POPC   C4B  769   4.204   0.460   6.768  0.1916  0.3849 -0.0085
   24POPC   NC3  770   6.256   6.008   9.080 -0.0805 -0.1463 -0.1973
   24POPC   PO4  771   6.653   6.122   8.991 -0.2129 -0.2054  0.0980
   24POPC   GL1  772   6.479   5.962   8.596  0.1749  0.2530  0.4152
   24POPC   GL2  773   6.132   6.254   8.611  0.4162  0.1535 -0.2054
   24POPC   C1A  774   6.574   5.934   8.183 -0.0427 -0.0080 -0.1537
   24POPC   D2A  775   6.721   6.214   7.858 -0.1716 -0.3445 -0.0168
   24POPC   C3A  776   6.917   6.047   7.480 -0.1742  0.0462 -0.0049
   24POPC   C4A  777   7.213   6.048   7.093  0.5114 -0.1099 -0.1608
   24POPC   C1B  778   6.392   6.416   8.210  0.0312 -0.2472 -0.4751
   24POPC   C2B  779   6.265   6.296   7.714 -0.2392  0.0118 -0.1537
   24POPC   C3B  780   6.416   6.248   7.420 -0.2673  0.2814 -0.2342
   24POPC   C4B  781   6.738   6.304   7.056  0.1488 -0.2231  0.0127
   25POPC   NC3  782   6.020   4.622   9.561  0.1547 -0.2407 -0.2337
   25POPC   PO4  783   6.268   4.751   9.251 -0.1084  0.0560 -0.2589
   25POPC   GL1  784   6.485   4.843   8.895  0.3636 -0.0879 -0.0100
   25POPC   GL2  785   6.779   4.823   8.738  0.1426  0.1281 -0.0560
   25POPC   C1A  786   6.359   4.729   8.547 -0.2438 -0.1874  0.1839
   25POPC   D2A  787   6.254   4.623   8.141  0.1216  0.1338 -0.1282
   25POPC   C3A  788   6.559   4.320   7.985 -0.2766  0.0503 -0.1636
   25POPC   C4A  789   6.568   3.908   7.681  0.2211 -0.0696 -0.0307
   25POPC   C1B  790   7.046   5.022   8.348  0.1309  0.2105 -0.0206
   25POPC   C2B  791   7.227   4.997   7.897  0.0610  0.2852 -0.1040
   25POPC   C3B  792   7.645   4.983   7.612  0.0092  0.0282 -0.0452
   25POPC   C4B  793   7.705   5.232   7.166 -0.2388 -0.3169 -0.0553
   26POPC   NC3  794   5.510   7.069   9.203 -0.0978 -0.0136 -0.0646
   26POPC   PO4  795   5.444   6.775   9.155  0.1603 -0.2488 -0.0882
   26POPC   GL1  796   5.517   6.345   8.897  0.1146 -0.0651  0.3259
   26POPC   GL2  797   5.287   6.069   8.674  0.1745  0.0861  0.0402
   26POPC   C1A  798   5.695   6.428   8.505 -0.2127 -0.2422  0.1460
   26POPC   D2A  799   5.889   6.629   8.118  0.0508 -0.0949  0.1961
   26POPC   C3A  800   5.769   6.399   7.750 -0.1375 -0.0353 -0.2390
   26POPC   C4A  801   5.291   6.427   7.582 -0.2615 -0.1792  0.2761
   26POPC   C1B  802   4.974   6.058   8.296 -0.0216 -0.1658 -0.0082
   26POPC   C2B  803   4.753   5.765   8.074  0.3545 -0.2689 -0.1674
   26POPC   C3B  804   4.359   5.718   7.938  0.4560  0.0271 -0.1334
   26POPC   C4B  805   4.124   5.377   7.627  0.1332 -0.0463  0.2998
   27POPC   NC3  806   2.848   4.477   8.701 -0.0404 -0.3329  0.2314
   27POPC   PO4  807   3.296   4.495   8.569  0.1937  0.1881  0.0452
   27POPC   GL1  808   3.112   4.633   8.256  0.4118 -0.2060 -0.1600
   27POPC   GL2  809   2.750   4.803   8.262  0.0912 -0.0237  0.3590
   27POPC   C1A  810   3.128   4.651   7.783  0.1536 -0.0904 -0.0622
   27POPC   D2A  811   3.037   4.364   7.509  0.2217  0.0463 -0.1718
   27POPC   C3A  812   2.775   4.021   7.398 -0.0834  0.0337  0.0873
   27POPC   C4A  813   2.838   3.679   7.263 -0.0673 -0.0681  0.1158
   27POPC   C1B  814   2.567   4.746   7.916  0.2219 -0.1970  0.0717
   27POPC   C2B  815   2.489   4.758   7.581 -0.3086  0.2124  0.1193
   27POPC   C3B  816   2.517   4.759   7.126  0.0586  0.0213  0.0022
   27POPC   C4B  817   2.851   5.014   6.720  0.0172  0.2456  0.0279
   28POPC   NC3  818   3.090   1.831   8.567 -0.0632  0.0562  0.0302
   28POPC   PO4  819   2.677   1.756   8.506 -0.0662 -0.0293 -0.0160
   28POPC   GL1  820   2.219   1.732   8.396  0.0100 -0.0038 -0.0056
   28POPC   GL2  821   2.124   1.428   8.156 -0.1001 -0.3011  0.0316
   28POPC   C1A  822   1.900   1.885   8.110  0.0455  0.0548  0.3122
   28POPC   D2A  823   1.859   2.130   7.812 -0.4552 -0.2815 -0.0993
   28POPC   C3A  824   2.017   1.829   7.484  0.6639  0.2175 -0.0574
   28POPC   C4A  825   2.159   1.736   6.966 -0.0875  0.0335 -0.0078
   28POPC   C1B  826   2.019   1.061   7.969  0.0729  0.2799  0.3588
   28POPC   C2B  827   2.080   0.719   7.746  0.0422  0.0826 -0.0461
   28POPC   C3B  828   2.192   0.754   7.345  0.2654 -0.2300 -0.0146
   28POPC   C4B  829   2.226   0.795   6.873  0.0054  0.1407 -0.0077
   29POPC   NC3  830   1.189   4.724   8.921 -0.1672  0.2809 -0.2129
   29POPC   PO4  831   0.733   4.624   9.053 -0.2483  0.0353 -0.1891
   29POPC   GL1  832   0.701   4.599   8.625  0.0961 -0.2955  0.0138
   29POPC   GL2  833   0.824   4.896   8.491 -0.1572 -0.0156 -0.2868
   29POPC   C1A  834   0.796   4.469   8.217 -0.0383  0.1488  0.0791
   29POPC   D2A  835   0.937   4.003   8.126 -0.0705 -0.2012 -0.2294
   29POPC   C3A  836   0.654   3.873   7.756  0.1789  0.2009 -0.2184
   29POPC   C4A  837   0.300   3.672   7.593 -0.1657  0.1294 -0.0162
   29POPC   C1B  838   0.796   4.968   8.075 -0.3030 -0.1222 -0.0501
   29POPC   C2B  839   0.798   4.716   7.695  0.2017 -0.0883  0.5678
   29POPC   C3B  840   0.606   4.696   7.229 -0.1743 -0.0413  0.2791
   29POPC   C4B  841   0.817   4.728   6.824  0.0870 -0.0752 -0.6353
   30POPC   NC3  842   9.008   8.219   8.680  0.1820 -0.0744 -0.0363
   30POPC   PO4  843   8.529   8.170   8.685 -0.0796 -0.1491  0.0142
   30POPC   GL1  844   8.632   8.329   8.308 -0.1616  0.1046 -0.0113
   30POPC   GL2  845   8.926   8.102   8.157 -0.0058  0.0456  0.2562
   30POPC   C1A  846   8.563   8.399   7.930  0.0567 -0.4088  0.0162
   30POPC   D2A  847   8.678   8.370   7.458 -0.0193  0.1471  0.0541
   30POPC   C3A  848   9.160   8.163   7.341  0.1875 -0.1566 -0.0316
   30POPC   C4A  849   9.597   7.944   7.264  0.1044  0.0237 -0.4642
   30POPC   C1B  850   9.045   8.357   7.817  0.0328  0.2982 -0.3450
   30POPC   C2B  851   8.904   8.769   7.709 -0.0261 -0.0259 -0.1369
   30POPC   C3B  852   8.575   8.863   7.493 -0.1667  0.3525 -0.2936
   30POPC   C4B  853   8.475   8.942   7.017  0.0611 -0.0245 -0.0768
   31POPC   NC3  854   2.212   4.714   9.329 -0.0409  0.1365  0.1203
   31POPC   PO4  855   2.570   4.616   9.081  0.2829 -0.0152 -0.3133
   31POPC   GL1  856   2.412   4.711   8.689  0.3979 -0.3539  0.0021
   31POPC   GL2  857   2.275   4.308   8.569 -0.1203 -0.0494 -0.3444
   31POPC   C1A  858   2.367   5.141   8.332  0.0507  0.1219  0.0283
   31POPC   D2A  859   2.240   5.309   7.943 -0.1236 -0.1105 -0.2470
   31POPC   C3A  860   2.341   5.232   7.413  0.0373  0.1353 -0.0936
   31POPC   C4A  861   2.389   5.180   6.940 -0.0522  0.1481  0.3668
   31POPC   C1B  862   2.154   4.565   8.196 -0.0315 -0.2857 -0.1511
   31POPC   C2B  863   2.014   4.817   7.887 -0.2803 -0.0401  0.3114
   31POPC   C3B  864   1.951   4.805   7.365 -0.2553  0.1465 -0.1630
   31POPC   C4B  865   1.701   4.746   6.934 -0.0308  0.0304 -0.2272
   32POPC   NC3  866   4.095   5.053   8.561 -0.2140 -0.2738  0.0572
   32POPC   PO4  867   4.104   4.663   8.603 -0.0195  0.2724  0.0098
   32POPC   GL1  868   4.203   4.651   8.206  0.0825  0.2010 -0.2767
   32POPC   GL2  869   4.517   4.419   8.092  0.2546 -0.1695  0.0589
   32POPC   C1A  870   4.145   4.851   7.829  0.0288  0.0778 -0.1909
   32POPC   D2A  871   4.373   4.924   7.425  0.0085  0.0752 -0.1098
   32POPC   C3A  872   4.216   5.295   7.103 -0.3251  0.3781  0.1359
   32POPC   C4A  873   3.913   5.284   6.798 -0.0118 -0.2518 -0.1245
   32POPC   C1B  874   4.486   4.511   7.641  0.2174 -0.1649 -0.2320
   32POPC   C2B  875   4.708   4.321   7.377  0.3776 -0.1419 -0.0380
   32POPC   C3B  876   4.801   3.986   7.257  0.0114 -0.2352  0.0659
   32POPC   C4B  877   5.272   3.914   7.152 -0.0288  0.0805 -0.1438
   33POPC   NC3  878   7.836   0.381   9.917 -0.0006  0.1670 -0.0317
   33POPC   PO4  879   8.118   0.135   9.651  0.3019 -0.1289 -0.0700
   33POPC   GL1  880   8.152   0.057   9.186 -0.2446 -0.1887  0.1946
   33POPC   GL2  881   7.942  -0.165   9.118  0.2107 -0.0856 -0.3072
   33POPC   C1A  882   8.536   0.159   8.921  0.0807 -0.1733 -0.0233
   33POPC   D2A  883   8.599   0.230   8.423 -0.4526  0.1427 -0.1564
   33POPC   C3A  884   8.653   0.090   8.012  0.0009  0.2113  0.1000
   33POPC   C4A  885   8.652   0.158   7.598  0.3457  0.2255  0.3118
   33POPC   C1B  886   8.123  -0.193   8.701 -0.1580 -0.0466  0.2851
   33POPC   C2B  887   8.572  -0.262   8.620  0.2858 -0.1181 -0.3048
   33POPC   C3B  888   8.755  -0.343   8.245  0.1906 -0.1819  0.1296
   33POPC   C4B  889   9.084  -0.335   7.921 -0.2997 -0.1813 -0.0076
   34POPC   NC3  890   2.725   5.116   8.801  0.0865 -0.1821 -0.0239
   34POPC   PO4  891   3.132   4.923   8.758  0.0905  0.2851  0.1611
   34POPC   GL1  892   3.120   5.128   8.365 -0.1981  0.0914  0.1829
   34POPC   GL2  893   3.390   5.428   8.358 -0.0052  0.1775 -0.0333
   34POPC   C1A  894   3.329   5.068   8.010 -0.1220 -0.1748 -0.3758
   34POPC   D2A  895   3.175   5.095   7.567 -0.4313  0.0202 -0.1367
   34POPC   C3A  896   2.977   4.930   7.335  0.0125  0.0031 -0.3489
   34POPC   C4A  897   3.033   4.617   6.946 -0.1700  0.2270 -0.3910
   34POPC   C1B  898   3.324   5.621   8.098 -0.0828 -0.0498  0.1971
   34POPC   C2B  899   2.985   5.719   7.772 -0.1086  0.0167  0.1642
   34POPC   C3B  900   2.851   5.960   7.324 -0.1171  0.0158  0.3108
   34POPC   C4B  901   2.635   6.119   6.909 -0.2671 -0.0543 -0.0346
   35POPC   NC3  902   4.201   5.852   8.937  0.0869  0.0599  0.0030
   35POPC   PO4  903   4.514   6.305   8.785  0.0238 -0.2576  0.0780
   35POPC   GL1  904   4.628   6.330   8.428 -0.1122  0.0314  0.0732
   35POPC   GL2  905   4.528   6.612   8.375 -0.2225  0.1796  0.2332
   35POPC   C1A  906   4.579   6.261   7.981  0.1629  0.1854 -0.2456
   35POPC   D2A  907   4.520   6.218   7.568  0.0120 -0.2974  0.0575
   35POPC   C3A  908   4.945   6.183   7.249  0.3907  0.4111  0.1082
   35POPC   C4A  909   5.231   6.153   7.025 -0.1269  0.0771 -0.0509
   35POPC   C1B  910   4.695   6.726   7.937  0.2801 -0.3171 -0.0440
   35POPC   C2B  911   4.777   6.684   7.542  0.1133  0.3691 -0.5027
   35POPC   C3B  912   4.548   6.512   7.103 -0.0478  0.2809  0.1711
   35POPC   C4B  913   4.779   6.845   6.867 -0.1075 -0.1266 -0.0171
   36POPC   NC3  914   8.422   1.611   9.653 -0.0905 -0.1095  0.1839
   36POPC   PO4  915   8.332   1.188   9.579  0.0837 -0.0422 -0.1039
   36POPC   GL1  916   8.048   1.350   9.177 -0.0802  0.0833 -0.0794
   36POPC   GL2  917   7.662   1.234   9.160  0.1694  0.0991  0.1452
   36POPC   C1A  918   8.342   1.229   8.819  0.2264 -0.1252  0.1615
   36POPC   D2A  919   8.736   1.022   8.814  0.0723 -0.1212 -0.0841
   36POPC   C3A  920   8.938   0.965   8.360  0.0164  0.3827 -0.3422
   36POPC   C4A  921   9.258   0.840   8.259  0.1701  0.1136  0.1672
   36POPC   C1B  922   7.581   1.079   8.657  0.1449 -0.1344  0.2460
   36POPC   C2B  923   7.736   1.106   8.280 -0.1946 -0.1085  0.0867
   36POPC   C3B  924   7.826   0.856   7.834 -0.0353 -0.2226 -0.0162
   36POPC   C4B  925   7.683   0.890   7.502  0.3775  0.2250  0.0097
   37POPC   NC3  926   6.076   8.824   9.298 -0.1833 -0.2466  0.2253
   37POPC   PO4  927   5.994   9.295   9.225  0.0983 -0.0549 -0.0101
   37POPC   GL1  928   6.028   9.393   8.782 -0.1032  0.0900 -0.1153
   37POPC   GL2  929   6.244   9.532   8.619  0.2165 -0.3825  0.1298
   37POPC   C1A  930   5.887   9.230   8.325 -0.1962  0.1679  0.0488
   37POPC   D2A  931   6.145   9.016   8.094 -0.1918 -0.1741  0.0289
   37POPC   C3A  932   6.089   8.785   7.682 -0.2837 -0.0709 -0.0592
   37POPC   C4A  933   5.954   8.543   7.317 -0.1690  0.2195  0.0243
   37POPC   C1B  934   6.409   9.503   8.279 -0.0849 -0.1559 -0.1566
   37POPC   C2B  935   6.497   9.270   7.934 -0.6003  0.1122 -0.2572
   37POPC   C3B  936   6.316   9.179   7.559  0.0437 -0.1318 -0.0477
   37POPC   C4B  937   6.115   9.023   7.153 -0.0422 -0.3655 -0.2879
   38POPC   NC3  938   3.610   9.894   8.524 -0.0545 -0.1904  0.1029
   38POPC   PO4  939   3.155  10.189   8.563 -0.3698  0.2067  0.0723
   38POPC   GL1  940   3.230   9.980   8.209 -0.0968 -0.2380  0.0558
   38POPC   GL2  941   3.099   9.615   8.203 -0.0332 -0.1938  0.2277
   38POPC   C1A  942   3.134   9.922   7.797  0.3186 -0.0149 -0.1540
   38POPC   D2A  943   3.150   9.736   7.348  0.3959  0.0229  0.2639
   38POPC   C3A  944   3.514   9.693   7.107 -0.0173  0.4166  0.1319
   38POPC   C4A  945   3.695   9.387   6.911 -0.1731  0.2734 -0.1512
   38POPC   C1B  946   2.771   9.543   7.890 -0.0540 -0.2599 -0.1510
   38POPC   C2B  947   2.597   9.604   7.407  0.1365 -0.2672  0.0158
   38POPC   C3B  948   2.390   9.233   7.197  0.1724 -0.1879 -0.0633
   38POPC   C4B  949   2.454   9.014   6.715  0.1103 -0.0445 -0.0862
   39POPC   NC3  950   4.372   1.808   8.666  0.0940  0.3159 -0.1370
   39POPC   PO4  951   4.786   1.629   8.608 -0.0851 -0.3272 -0.1977
   39POPC   GL1  952   5.123   1.714   8.269  0.2736 -0.1144  0.0940
   39POPC   GL2  953   5.486   1.697   8.253 -0.1499 -0.4184 -0.2850
   39POPC   C1A  954   5.156   1.633   7.833  0.1145 -0.0624  0.0338
   39POPC   D2A  955   5.164   1.544   7.461 -0.0765  0.0910 -0.0799
   39POPC   C3A  956   5.223   1.702   7.105 -0.1367  0.0915  0.2190
   39POPC   C4A  957   5.455   1.660   6.763  0.0422  0.0417  0.0202
   39POPC   C1B  958   5.790   1.731   7.971 -0.0347 -0.3340 -0.4795
   39POPC   C2B  959   5.903   2.016   7.762 -0.0913  0.1763  0.1625
   39POPC   C3B  960   6.012   2.320   7.421  0.1630  0.0103 -0.0807
   39POPC   C4B  961   6.121   2.726   7.693  0.0830  0.1205  0.1050
   40POPC   NC3  962   1.158   1.993   9.302  0.0441  0.0487 -0.3056
   40POPC   PO4  963   0.818   1.779   9.112 -0.0519 -0.0206 -0.2114
   40POPC   GL1  964   0.971   1.703   8.623  0.2510  0.1299  0.2106
   40POPC   GL2  965   0.724   1.449   8.487 -0.0967  0.0732 -0.4710
   40POPC   C1A  966   0.976   1.716   8.188 -0.0814  0.1213  0.2771
   40POPC   D2A  967   1.303   1.805   8.060 -0.3245 -0.2520  0.3919
   40POPC   C3A  968   1.446   1.956   7.543 -0.0312 -0.0605 -0.1994
   40POPC   C4A  969   1.794   2.243   7.358  0.1777  0.0860  0.0793
   40POPC   C1B  970   0.563   1.225   8.163 -0.1650  0.0286  0.1789
   40POPC   C2B  971   0.750   1.172   7.762  0.0148 -0.1567  0.1602
   40POPC   C3B  972   0.925   0.992   7.395  0.3783 -0.0935  0.2449
   40POPC   C4B  973   1.219   1.107   7.069  0.3503 -0.2378  0.0575
   41POPC   NC3  974   0.924   0.360   9.322 -0.0477 -0.2955  0.0766
   41POPC   PO4  975   0.868   0.442   8.915 -0.1815 -0.0696  0.0381
   41POPC   GL1  976   0.878   0.310   8.509 -0.2103  0.1042  0.2461
   41POPC   GL2  977   0.772   0.003   8.544 -0.0682 -0.0497  0.3589
   41POPC   C1A  978   0.718   0.457   8.170 -0.0922  0.1957 -0.0670
   41POPC   D2A  979   0.349   0.539   7.830 -0.0813 -0.0660 -0.2563
   41POPC   C3A  980  -0.001   0.678   7.637 -0.1765 -0.0547  0.2760
   41POPC   C4A  981  -0.339   0.732   7.302 -0.2145 -0.3894  0.3228
   41POPC   C1B  982   0.666  -0.007   8.121 -0.3404  0.0815  0.1724
   41POPC   C2B  983   0.582   0.094   7.753 -0.1726  0.0241 -0.1828
   41POPC   C3B  984   0.335   0.302   7.443 -0.0010 -0.0425 -0.1997
   41POPC   C4B  985   0.057   0.434   7.139 -0.1121 -0.2042  0.1305
   42POPC   NC3  986   6.761  10.344   9.342  0.1205 -0.1331  0.1474
   42POPC   PO4  987   6.614   9.955   9.315 -0.0128 -0.0690 -0.0065
   42POPC   GL1  988   6.512  10.047   8.913  0.0335  0.1301  0.1532
   42POPC   GL2  989   6.231  10.183   8.760  0.2179  0.2652 -0.0342
   42POPC   C1A  990   6.532   9.906   8.475 -0.0389 -0.2421  0.0651
   42POPC   D2A  991   6.768   9.715   8.058 -0.0282  0.1726  0.6152
   42POPC   C3A  992   7.086   9.665   7.736 -0.0150 -0.0092 -0.1818
   42POPC   C4A  993   7.381   9.739   7.423  0.0348 -0.0927 -0.3145
   42POPC   C1B  994   6.060   9.980   8.383 -0.1236  0.1843  0.0002
   42POPC   C2B  995   6.348  10.022   8.003 -0.2484 -0.3296 -0.0915
   42POPC   C3B  996   6.459   9.697   7.601  0.0246 -0.1503 -0.0177
   42POPC   C4B  997   6.360   9.684   7.148 -0.1843 -0.3311  0.1213
   43POPC   NC3  998   9.405   9.064   9.008 -0.2821  0.1370  0.0298
   43POPC   PO4  999   9.744   8.970   8.690  0.0928  0.1566 -0.0275
   43POPC   GL1 1000   9.849   8.899   8.325  0.0890 -0.2933 -0.1383
   43POPC   GL2 1001   9.690   8.706   8.129 -0.1179  0.0943  0.2776
   43POPC   C1A 1002   9.741   9.282   8.104  0.0480 -0.0513  0.1800
   43POPC   D2A 1003   9.588   9.392   7.629 -0.3253 -0.0519 -0.0633
   43POPC   C3A 1004   9.899   9.533   7.349 -0.0575  0.1751  0.1144
   43POPC   C4A 1005   9.956   9.798   7.003 -0.1572 -0.1455 -0.1547
   43POPC   C1B 1006   9.808   8.887   7.742  0.1685  0.1780  0.0558
   43POPC   C2B 1007   9.870   8.975   7.402  0.4414 -0.0415  0.0116
   43POPC   C3B 1008  10.071   9.054   6.997 -0.2291  0.1080 -0.0302
   43POPC   C4B 1009  10.181   9.066   6.517  0.1094 -0.0825  0.2432
   44POPC   NC3 1010  10.219   6.026   9.038  0.0380  0.0980 -0.1218
   44POPC   PO4 1011  10.330   5.955   8.640 -0.0853  0.0244 -0.0159
   44POPC   GL1 1012  10.377   5.938   8.205 -0.1436 -0.2192  0.1294
   44POPC   GL2 1013  10.158   6.138   8.029 -0.2017  0.1510  0.0922
   44POPC   C1A 1014  10.586   5.626   7.835  0.0344 -0.3431  0.2063
   44POPC   D2A 1015  10.945   5.745   7.672  0.0263  0.4172  0.0274
   44POPC   C3A 1016  10.944   5.869   7.287 -0.3896 -0.1372 -0.3102
   44POPC   C4A 1017  11.008   6.080   6.970 -0.1329 -0.3528 -0.1443
   44POPC   C1B 1018  10.026   5.865   7.719  0.3486  0.2682  0.0741
   44POPC   C2B 1019   9.924   6.000   7.299 -0.3254  0.0219  0.0772
   44POPC   C3B 1020  10.007   6.485   7.056 -0.0029  0.1904 -0.0401
   44POPC   C4B 1021  10.149   6.790   6.766  0.1071 -0.1492  0.0712
   45POPC   NC3 1022   5.773   1.900   8.600 -0.1313  0.2264 -0.1120
   45POPC   PO4 1023   6.132   2.243   8.776 -0.0927  0.0792 -0.1861
   45POPC   GL1 1024   6.104   2.495   8.433  0.1994 -0.1267 -0.0363
   45POPC   GL2 1025   6.212   2.230   8.259  0.0368  0.1704 -0.1652
   45POPC   C1A 1026   6.296   2.814   8.198  0.0754  0.1081  0.1283
   45POPC   D2A 1027   6.377   3.146   7.826  0.1094  0.1227  0.1680
   45POPC   C3A 1028   6.679   3.312   7.609  0.1208 -0.1799 -0.0048
   45POPC   C4A 1029   6.703   3.588   7.290  0.1118 -0.1212  0.1013
   45POPC   C1B 1030   6.460   2.399   7.886 -0.1107 -0.0632 -0.2206
   45POPC   C2B 1031   6.631   2.649   7.604  0.0777  0.0483 -0.1607
   45POPC   C3B 1032   6.966   2.906   7.504 -0.1103  0.1012 -0.5044
   45POPC   C4B 1033   7.318   2.956   7.388 -0.2243  0.3186 -0.0462
   46POPC   NC3 1034   6.858   0.845   9.383 -0.0113 -0.0082 -0.2481
   46POPC   PO4 1035   6.556   0.721   9.056 -0.1538 -0.2581  0.0910
   46POPC   GL1 1036   6.421   0.666   8.631  0.1138 -0.3063  0.1188
   46POPC   GL2 1037   6.070   0.552   8.421 -0.5439 -0.0501  0.0531
   46POPC   C1A 1038   6.530   0.769   8.207 -0.2657  0.0303  0.2694
   46POPC   D2A 1039   6.365   0.888   7.825  0.1454 -0.3723  0.1964
   46POPC   C3A 1040   6.370   0.653   7.423  0.0839 -0.2207  0.2681
   46POPC   C4A 1041   6.236   0.190   7.326 -0.1635 -0.3270  0.0532
   46POPC   C1B 1042   6.121   0.467   8.014  0.5450 -0.1577  0.2136
   46POPC   C2B 1043   5.850   0.414   7.690  0.1809  0.4620 -0.2355
   46POPC   C3B 1044   5.586   0.047   7.605  0.1635 -0.2552  0.0581
   46POPC   C4B 1045   5.191   0.008   7.382  0.2741  0.0638  0.3977
   47POPC   NC3 1046   7.445   4.358   9.551 -0.0301  0.1956 -0.1312
   47POPC   PO4 1047   7.081   4.393   9.471  0.0159 -0.1178 -0.0339
   47POPC   GL1 1048   7.261   4.356   9.103 -0.1557 -0.0951  0.2755
   47POPC   GL2 1049   7.175   4.404   8.843  0.1148 -0.1910 -0.0866
   47POPC   C1A 1050   7.589   4.099   8.894 -0.0095  0.0100  0.2022
   47POPC   D2A 1051   7.981   4.060   8.875 -0.0863  0.3189  0.1303
   47POPC   C3A 1052   8.093   3.660   8.856 -0.2902  0.0689  0.3401
   47POPC   C4A 1053   8.382   3.277   8.849 -0.0870 -0.0014  0.0466
   47POPC   C1B 1054   7.313   4.595   8.418 -0.2113  0.1632 -0.2328
   47POPC   C2B 1055   7.634   4.715   8.301 -0.4424  0.2257 -0.0716
   47POPC   C3B 1056   7.859   4.989   8.061 -0.0694  0.0674  0.2300
   47POPC   C4B 1057   7.773   5.392   7.924  0.1774  0.0242  0.0888
   48POPC   NC3 1058   0.168   4.565   8.744  0.1583 -0.4711  0.0811
   48POPC   PO4 1059  -0.258   4.506   8.816 -0.0412  0.1322  0.1291
   48POPC   GL1 1060  -0.235   4.533   8.356 -0.0515 -0.1578 -0.1069
   48POPC   GL2 1061  -0.287   4.849   8.297  0.2380 -0.4615  0.4838
   48POPC   C1A 1062  -0.513   4.445   8.056 -0.2458  0.1573  0.0597
   48POPC   D2A 1063  -0.892   4.132   8.087 -0.2084  0.2142 -0.0860
   48POPC   C3A 1064  -1.247   4.282   8.338  0.0476  0.4905  0.0813
   48POPC   C4A 1065  -1.630   4.173   8.269 -0.1564  0.0236  0.1580
   48POPC   C1B 1066  -0.112   4.764   7.950 -0.1544 -0.1114 -0.1369
   48POPC   C2B 1067   0.136   4.752   7.594 -0.0164  0.4383  0.7043
   48POPC   C3B 1068   0.115   4.611   7.195  0.0913 -0.0963 -0.2129
   48POPC   C4B 1069  -0.173   4.389   6.917  0.0513  0.1604  0.0153
   49POPC   NC3 1070   9.958   6.274   8.431 -0.0055  0.2324  0.2488
   49POPC   PO4 1071  10.003   6.683   8.193  0.0092 -0.0580  0.1106
   49POPC   GL1 1072   9.683   6.459   7.989  0.0719 -0.3632  0.0934
   49POPC   GL2 1073   9.609   6.038   8.051 -0.4134 -0.1498  0.1764
   49POPC   C1A 1074   9.647   6.390   7.595 -0.0721 -0.1166 -0.0582
   49POPC   D2A 1075   9.530   6.611   7.323  0.2431  0.0068 -0.0519
   49POPC   C3A 1076   9.772   6.990   7.228  0.1391 -0.0030  0.1404
   49POPC   C4A 1077   9.946   7.188   7.009 -0.0347  0.1084  0.0958
   49POPC   C1B 1078   9.520   5.903   7.641  0.0299 -0.2979 -0.0228
   49POPC   C2B 1079   9.469   5.834   7.253 -0.3185  0.2750 -0.2475
   49POPC   C3B 1080   9.136   5.833   6.940 -0.0181 -0.2991 -0.0042
   49POPC   C4B 1081   9.089   6.050   6.578 -0.0114 -0.1522 -0.0286
   50POPC   NC3 1082   1.200   6.572   8.443 -0.1296 -0.1159  0.2622
   50POPC   PO4 1083   1.591   6.745   8.529  0.1066 -0.0459 -0.0733
   50POPC   GL1 1084   1.456   6.797   8.078  0.1355 -0.2789  0.0566
   50POPC   GL2 1085   1.765   6.740   7.999  0.2896  0.1703 -0.0765
   50POPC   C1A 1086   1.366   6.613   7.610  0.0268  0.1505 -0.0950
   50POPC   D2A 1087   1.291   6.501   7.134  0.0694 -0.0088  0.1548
   50POPC   C3A 1088   1.124   6.158   6.898 -0.1286 -0.0192 -0.2707
   50POPC   C4A 1089   1.224   5.870   6.548  0.1576 -0.3151  0.0845
   50POPC   C1B 1090   1.791   6.882   7.525 -0.0345  0.4221 -0.0437
   50POPC   C2B 1091   1.738   6.837   7.163 -0.2328 -0.0036  0.0832
   50POPC   C3B 1092   1.746   6.452   6.908  0.0237  0.3382  0.1691
   50POPC   C4B 1093   1.648   6.064   6.637 -0.0956 -0.1045  0.1647
   51POPC   NC3 1094   8.113   7.867   8.525 -0.1449 -0.2343  0.0158
   51POPC   PO4 1095   7.709   7.881   8.313  0.0633 -0.2279 -0.1999
   51POPC   GL1 1096   7.828   7.913   7.875  0.4095  0.6283  0.1829
   51POPC   GL2 1097   8.121   7.981   7.786 -0.1430  0.1960 -0.1847
   51POPC   C1A 1098   7.529   7.855   7.526  0.1572 -0.0774 -0.2159
   51POPC   D2A 1099   7.398   7.485   7.424  0.3119 -0.0545  0.2269
   51POPC   C3A 1100   7.508   6.988   7.508  0.3677 -0.0407 -0.1649
   51POPC   C4A 1101   7.820   6.884   7.776 -0.2111  0.0245  0.4256
   51POPC   C1B 1102   8.437   7.908   7.967  0.2774  0.2057 -0.2737
   51POPC   C2B 1103   8.773   7.596   8.002 -0.0038  0.0642 -0.2077
   51POPC   C3B 1104   9.161   7.285   7.814  0.3004 -0.1472  0.2503
   51POPC   C4B 1105   9.377   7.120   7.542  0.0830  0.0553  0.0582
   52POPC   NC3 1106   3.896   7.621   8.705 -0.0933 -0.1542 -0.1064
   52POPC   PO4 1107   4.154   7.254   8.817 -0.1617 -0.0381  0.1645
   52POPC   GL1 1108   4.345   7.214   8.477 -0.2022  0.0519 -0.0953
   52POPC   GL2 1109   4.312   7.028   8.210  0.0406  0.2712 -0.0868
   52POPC   C1A 1110   4.677   7.323   8.091  0.2445 -0.1279  0.3786
   52POPC   D2A 1111   4.838   7.581   7.931 -0.0435 -0.3638  0.3876
   52POPC   C3A 1112   4.781   7.653   7.547  0.0566  0.2792 -0.0096
   52POPC   C4A 1113   4.918   7.785   7.130 -0.1845 -0.3116  0.0315
   52POPC   C1B 1114   4.458   7.084   7.699  0.4445  0.0511 -0.0154
   52POPC   C2B 1115   4.719   7.168   7.317  0.1102 -0.4872 -0.2205
   52POPC   C3B 1116   4.974   7.274   7.037 -0.2182  0.2681  0.1417
   52POPC   C4B 1117   5.077   7.207   6.579  0.0728 -0.0773 -0.2082
   53POPC   NC3 1118   4.993   0.793   8.265 -0.4030 -0.1762 -0.2489
   53POPC   PO4 1119   4.917   0.569   8.585 -0.1569 -0.1721  0.1106
   53POPC   GL1 1120   5.043   0.144   8.417  0.1194  0.1301  0.3758
   53POPC   GL2 1121   4.859  -0.037   8.321 -0.0116  0.0846  0.1417
   53POPC   C1A 1122   5.416   0.118   8.202 -0.3088  0.4323 -0.3201
   53POPC   D2A 1123   5.845   0.036   8.094  0.0542 -0.0014 -0.2538
   53POPC   C3A 1124   6.224  -0.067   7.782 -0.1020 -0.0371  0.3796
   53POPC   C4A 1125   6.423  -0.260   7.441 -0.3373  0.1018 -0.0895
   53POPC   C1B 1126   4.935   0.170   7.883 -0.3073 -0.2557 -0.0230
   53POPC   C2B 1127   4.767   0.159   7.481  0.0459 -0.1848  0.1312
   53POPC   C3B 1128   4.417  -0.053   7.284  0.0299  0.1471  0.1916
   53POPC   C4B 1129   4.181  -0.056   6.841 -0.2073  0.2362  0.1061
   54POPC   NC3 1130   1.739   5.531   9.023  0.0080  0.0177 -0.1337
   54POPC   PO4 1131   1.460   5.191   8.937 -0.1538  0.2957 -0.3640
   54POPC   GL1 1132   1.331   5.089   8.462  0.2269  0.1586 -0.0406
   54POPC   GL2 1133   1.318   4.771   8.423 -0.3033  0.1738  0.3515
   54POPC   C1A 1134   1.322   5.026   7.978  0.1085 -0.1453 -0.1475
   54POPC   D2A 1135   1.549   4.810   7.621  0.1771 -0.2804 -0.1189
   54POPC   C3A 1136   1.256   4.555   7.414 -0.0536 -0.2658  0.3516
   54POPC   C4A 1137   1.140   4.431   7.018 -0.0875  0.0885 -0.2638
   54POPC   C1B 1138   1.262   4.554   7.970  0.2909  0.1664 -0.3672
   54POPC   C2B 1139   0.996   4.274   7.713 -0.0547  0.0284 -0.0707
   54POPC   C3B 1140   0.833   4.204   7.333  0.1643  0.5984 -0.0680
   54POPC   C4B 1141   0.973   3.909   7.041 -0.0765 -0.1966  0.2924
   55POPC   NC3 1142   3.636   7.859   8.265  0.1212 -0.3810 -0.0354
   55POPC   PO4 1143   3.409   8.037   8.600 -0.1829 -0.0498  0.1468
   55POPC   GL1 1144   3.376   8.363   8.246  0.0097  0.0656  0.0937
   55POPC   GL2 1145   3.349   8.224   7.984  0.2989 -0.0654  0.0187
   55POPC   C1A 1146   3.350   8.715   7.959  0.2583 -0.1154  0.0057
   55POPC   D2A 1147   3.373   9.021   7.558 -0.3628 -0.1382  0.0596
   55POPC   C3A 1148   3.376   9.231   7.178 -0.1634  0.0185 -0.1275
   55POPC   C4A 1149   3.240   9.520   6.731  0.0737  0.1014  0.3394
   55POPC   C1B 1150   3.304   8.332   7.590  0.0428 -0.1109  0.1093
   55POPC   C2B 1151   3.297   8.610   7.266  0.0499  0.0650  0.1273
   55POPC   C3B 1152   3.648   8.750   7.029  0.0010 -0.2298 -0.1026
   55POPC   C4B 1153   3.459   8.955   6.698 -0.0663 -0.0840  0.0566
   56POPC   NC3 1154   2.444   8.362   8.593  0.2924  0.0250  0.3263
   56POPC   PO4 1155   1.984   8.684   8.572  0.0935 -0.0395 -0.0081
   56POPC   GL1 1156   1.875   8.827   8.231  0.3011 -0.0398  0.1348
   56POPC   GL2 1157   1.626   8.857   8.167 -0.0124  0.1225  0.1164
   56POPC   C1A 1158   2.010   8.704   7.818  0.0118  0.0931  0.1301
   56POPC   D2A 1159   1.746   8.693   7.387  0.1194 -0.3881  0.1990
   56POPC   C3A 1160   1.731   8.441   6.971  0.0376 -0.5840 -0.0565
   56POPC   C4A 1161   1.355   8.254   6.782 -0.2293 -0.2018 -0.3075
   56POPC   C1B 1162   1.473   9.086   7.873 -0.0740 -0.4688 -0.2084
   56POPC   C2B 1163   1.547   9.433   7.659  0.3517  0.1545 -0.2214
   56POPC   C3B 1164   1.461   9.793   7.458  0.1516  0.3656 -0.0060
   56POPC   C4B 1165   1.163  10.017   7.279  0.2804  0.1263  0.0178
   57POPC   NC3 1166   4.897   6.057   9.074  0.2267 -0.2505  0.1600
   57POPC   PO4 1167   4.819   5.617   8.926  0.0669  0.3241 -0.1133
   57POPC   GL1 1168   4.929   5.578   8.491  0.0642 -0.0070  0.0793
   57POPC   GL2 1169   4.963   5.327   8.381  0.0129  0.0469  0.0198
   57POPC   C1A 1170   5.322   5.727   8.256 -0.2082 -0.2228  0.1446
   57POPC   D2A 1171   5.478   6.094   7.987  0.1654 -0.0489  0.3163
   57POPC   C3A 1172   5.512   6.043   7.495 -0.0324  0.1503  0.3351
   57POPC   C4A 1173   5.706   6.350   7.169  0.0994  0.0478 -0.0911
   57POPC   C1B 1174   5.051   5.240   7.958  0.0992  0.0017 -0.0450
   57POPC   C2B 1175   5.059   5.192   7.502  0.1600  0.1087  0.0779
   57POPC   C3B 1176   4.944   5.239   7.084  0.0464  0.1227 -0.3043
   57POPC   C4B 1177   4.599   5.564   6.857  0.0536  0.1383  0.1987
   58POPC   NC3 1178   6.462   1.948   9.023  0.1153 -0.0582  0.2514
   58POPC   PO4 1179   6.081   1.667   8.885  0.1437  0.0068 -0.0795
   58POPC   GL1 1180   6.082   1.525   8.391 -0.0876  0.0189 -0.0968
   58POPC   GL2 1181   6.367   1.833   8.511  0.1998  0.0413 -0.1568
   58POPC   C1A 1182   6.378   1.315   8.237  0.1837  0.0136 -0.1264
   58POPC   D2A 1183   6.743   1.152   7.964 -0.0077 -0.2933 -0.3244
   58POPC   C3A 1184   7.229   1.233   8.053  0.1775 -0.3360 -0.3289
   58POPC   C4A 1185   7.610   1.296   7.821  0.1187  0.4141  0.0468
   58POPC   C1B 1186   6.372   1.813   8.058 -0.0514 -0.0187  0.0378
   58POPC   C2B 1187   6.389   1.955   7.696 -0.2875 -0.0410 -0.0370
   58POPC   C3B 1188   6.650   1.734   7.312  0.0696 -0.0941 -0.0835
   58POPC   C4B 1189   6.942   1.373   7.115  0.0668  0.1907 -0.0297
   59POPC   NC3 1190   6.745   9.578   8.995  0.1453 -0.0694 -0.2249
   59POPC   PO4 1191   6.467   9.227   9.010 -0.0384 -0.2329  0.0096
   59POPC   GL1 1192   6.372   9.056   8.596 -0.0024  0.1894  0.2739
   59POPC   GL2 1193   6.617   8.986   8.358 -0.1913  0.2020 -0.0747
   59POPC   C1A 1194   6.315   8.597   8.327 -0.1727 -0.2099  0.2620
   59POPC   D2A 1195   6.043   8.476   8.071  0.1043  0.2750 -0.1539
   59POPC   C3A 1196   5.605   8.503   7.912 -0.1427  0.3530  0.2039
   59POPC   C4A 1197   5.567   8.502   7.595  0.1462  0.3059  0.0101
   59POPC   C1B 1198   6.700   8.758   8.069 -0.1415 -0.3479  0.2102
   59POPC   C2B 1199   6.708   8.772   7.603  0.3222 -0.1364 -0.1328
   59POPC   C3B 1200   6.578   8.776   7.271  0.2254  0.0771  0.1265
   59POPC   C4B 1201   6.483   8.931   6.831 -0.1619  0.1077  0.0007
   60POPC   NC3 1202   2.251   2.263   8.942  0.1423 -0.0005 -0.0973
   60POPC   PO4 1203   2.582   2.458   8.896 -0.0884 -0.1940 -0.0474
   60POPC   GL1 1204   2.434   2.266   8.475 -0.0407  0.1738  0.0625
   60POPC   GL2 1205   2.683   2.150   8.222  0.0187 -0.0796 -0.1972
   60POPC   C1A 1206   2.166   2.479   8.172 -0.1705  0.2911  0.2481
   60POPC   D2A 1207   2.340   2.838   8.141  0.2065  0.0022  0.0535
   60POPC   C3A 1208   2.289   3.156   7.775  0.0716 -0.3309  0.0322
   60POPC   C4A 1209   2.237   3.357   7.427  0.0268 -0.1502 -0.0238
   60POPC   C1B 1210   2.499   2.006   7.833 -0.2283 -0.0537 -0.2369
   60POPC   C2B 1211   2.482   2.133   7.354 -0.1455  0.2914 -0.1627
   60POPC   C3B 1212   2.717   2.325   7.045 -0.1521 -0.2271  0.2465
   60POPC   C4B 1213   3.151   2.445   6.951  0.1422  0.2434 -0.2350
   61POPC   NC3 1214   1.833   7.637   8.926  0.1867 -0.1178 -0.0537
   61POPC   PO4 1215   2.075   7.509   8.700  0.0497  0.0432  0.0894
   61POPC   GL1 1216   2.216   7.616   8.250 -0.1741  0.0224  0.0476
   61POPC   GL2 1217   2.535   7.571   8.102  0.0079 -0.0633 -0.1564
   61POPC   C1A 1218   2.076   7.333   7.864 -0.0512  0.0872 -0.1353
   61POPC   D2A 1219   2.005   7.338   7.332  0.0640 -0.0349  0.0758
   61POPC   C3A 1220   2.235   7.271   6.935 -0.0295  0.1363 -0.2932
   61POPC   C4A 1221   2.547   7.173   6.613  0.0543  0.0986  0.1152
   61POPC   C1B 1222   2.173   7.754   7.758  0.0304  0.0147 -0.1667
   61POPC   C2B 1223   1.864   7.732   7.544 -0.0940 -0.0610  0.0184
   61POPC   C3B 1224   1.570   7.437   7.688  0.1343  0.1555 -0.1205
   61POPC   C4B 1225   1.337   7.798   7.551 -0.0030 -0.1624  0.1001
   62POPC   NC3 1226   2.427   0.780   8.820 -0.1760  0.1212  0.1094
   62POPC   PO4 1227   2.286   0.491   8.987  0.1686  0.1460  0.2084
   62POPC   GL1 1228   2.138   0.292   8.598 -0.1799 -0.1702 -0.0844
   62POPC   GL2 1229   2.187   0.577   8.455  0.1953  0.1644 -0.1971
   62POPC   C1A 1230   2.175   0.061   8.180  0.0460  0.1373  0.2854
   62POPC   D2A 1231   2.087   0.219   7.766 -0.0356  0.2415  0.0878
   62POPC   C3A 1232   2.222  -0.136   7.380 -0.3652 -0.2124 -0.0386
   62POPC   C4A 1233   2.324  -0.277   6.911  0.0517 -0.0967 -0.1908
   62POPC   C1B 1234   1.819   0.577   8.158 -0.2422  0.1408  0.0579
   62POPC   C2B 1235   1.591   0.515   7.773  0.0390 -0.0218  0.2556
   62POPC   C3B 1236   1.380   0.377   7.485 -0.0484 -0.1811 -0.1521
   62POPC   C4B 1237   1.212   0.645   7.087 -0.1012  0.2379 -0.1218
   63POPC   NC3 1238   8.713   9.705   9.226 -0.0407 -0.1425 -0.0982
   63POPC   PO4 1239   8.989   9.330   9.145 -0.1788 -0.0169 -0.1930
   63POPC   GL1 1240   8.755   9.406   8.756  0.0329  0.0184 -0.1486
   63POPC   GL2 1241   8.409   9.608   8.791  0.1450  0.0249  0.0914
   63POPC   C1A 1242   8.834   9.677   8.475  0.2325 -0.0913 -0.1699
   63POPC   D2A 1243   8.744   9.764   8.002  0.0025  0.1403 -0.1471
   63POPC   C3A 1244   8.784   9.764   7.606 -0.1103 -0.1420 -0.3979
   63POPC   C4A 1245   8.844   9.658   7.123  0.0494 -0.1317  0.1010
   63POPC   C1B 1246   8.319   9.846   8.388  0.1057  0.0034 -0.0474
   63POPC   C2B 1247   8.291   9.955   7.969 -0.1384 -0.0559  0.3730
   63POPC   C3B 1248   8.588  10.210   7.745  0.4785  0.1756  0.0809
   63POPC   C4B 1249   8.521  10.135   7.300 -0.1258  0.0147 -0.0883
   64POPC   NC3 1250   7.433   6.603   9.191  0.0410  0.1802 -0.2666
   64POPC   PO4 1251   7.261   6.586   8.737  0.1716 -0.0996  0.3700
   64POPC   GL1 1252   7.534   6.633   8.315  0.2702  0.0767  0.2135
   64POPC   GL2 1253   7.278   6.808   8.142 -0.2799  0.0603 -0.1146
   64POPC   C1A 1254   7.781   6.501   8.031 -0.1006 -0.0053  0.1348
   64POPC   D2A 1255   7.817   6.390   7.600  0.0789  0.2717  0.2198
   64POPC   C3A 1256   7.984   6.745   7.268 -0.1336  0.0195 -0.0413
   64POPC   C4A 1257   8.245   7.172   7.173  0.2241 -0.0249  0.0494
   64POPC   C1B 1258   7.179   6.438   7.907  0.1883  0.2348  0.1941
   64POPC   C2B 1259   7.418   6.191   7.624  0.2747 -0.0852 -0.0424
   64POPC   C3B 1260   7.663   6.237   7.162 -0.2588  0.0728 -0.1133
   64POPC   C4B 1261   8.048   6.374   6.877  0.0966 -0.1160 -0.4041
   65POPC   NC3 1262   5.242   1.377   8.888  0.0740  0.2093  0.0057
   65POPC   PO4 1263   5.255   1.216   8.419 -0.1721  0.1990  0.1310
   65POPC   GL1 1264   5.467   1.208   8.070  0.2377 -0.0196  0.1503
   65POPC   GL2 1265   5.190   1.128   7.850 -0.0940  0.1945  0.2496
   65POPC   C1A 1266   5.571   1.389   7.699  0.0213 -0.1763 -0.0726
   65POPC   D2A 1267   5.832   1.500   7.347 -0.1014 -0.1158 -0.0831
   65POPC   C3A 1268   6.137   1.137   7.343 -0.2446  0.0080  0.0409
   65POPC   C4A 1269   6.317   0.854   6.938  0.0289 -0.3485 -0.2159
   65POPC   C1B 1270   4.770   1.171   7.686  0.1788  0.1548  0.0132
   65POPC   C2B 1271   4.383   0.981   7.482  0.0464 -0.2722 -0.0815
   65POPC   C3B 1272   3.997   0.922   7.184  0.1592  0.0500  0.5788
   65POPC   C4B 1273   3.645   0.843   6.935 -0.4793 -0.1954 -0.0155
   66POPC   NC3 1274   1.401   3.426   9.420  0.2052  0.3070  0.1435
   66POPC   PO4 1275   1.370   3.810   9.091  0.2591 -0.0420 -0.0677
   66POPC   GL1 1276   1.327   3.906   8.652  0.1733 -0.2431 -0.0678
   66POPC   GL2 1277   1.230   3.632   8.494  0.1702 -0.2283  0.0264
   66POPC   C1A 1278   1.314   4.267   8.377 -0.1792  0.0214 -0.1852
   66POPC   D2A 1279   1.712   4.472   8.079 -0.1408  0.1652  0.0719
   66POPC   C3A 1280   1.693   4.297   7.630 -0.0288  0.0645  0.0522
   66POPC   C4A 1281   1.447   4.063   7.175 -0.0483 -0.3276 -0.1686
   66POPC   C1B 1282   1.344   3.549   8.116 -0.2730 -0.1185 -0.3711
   66POPC   C2B 1283   1.045   3.487   7.758  0.2781  0.2311 -0.0269
   66POPC   C3B 1284   0.772   3.632   7.370  0.0867 -0.3631  0.0464
   66POPC   C4B 1285   0.498   3.863   7.058  0.0948 -0.1108 -0.1789
   67POPC   NC3 1286   3.508   3.198   9.158  0.0349 -0.1574 -0.4054
   67POPC   PO4 1287   3.422   3.235   8.757  0.2165 -0.0652 -0.0261
   67POPC   GL1 1288   3.420   3.430   8.348  0.1467  0.0287 -0.0192
   67POPC   GL2 1289   3.642   3.566   8.217 -0.3713  0.0789  0.1695
   67POPC   C1A 1290   3.167   3.215   7.997 -0.2713  0.2205  0.0326
   67POPC   D2A 1291   3.129   2.943   7.706 -0.0674  0.3405  0.4632
   67POPC   C3A 1292   3.224   2.411   7.824  0.2159 -0.3578 -0.4643
   67POPC   C4A 1293   2.993   2.046   7.569 -0.0274 -0.0364 -0.0729
   67POPC   C1B 1294   3.802   3.610   7.902  0.3174 -0.0095 -0.1566
   67POPC   C2B 1295   3.740   3.915   7.491 -0.0452 -0.2614 -0.1740
   67POPC   C3B 1296   3.323   3.935   7.235 -0.1754 -0.1252  0.0316
   67POPC   C4B 1297   3.224   4.154   6.922  0.0876  0.0406 -0.1804
   68POPC   NC3 1298   0.135   7.838   8.743  0.0371 -0.1011  0.2986
   68POPC   PO4 1299  -0.230   7.713   8.773  0.0772 -0.2815  0.0080
   68POPC   GL1 1300  -0.237   7.873   8.361 -0.1027  0.1730 -0.0634
   68POPC   GL2 1301  -0.521   7.846   8.250 -0.0828 -0.0202 -0.0260
   68POPC   C1A 1302  -0.092   8.067   8.008 -0.0270 -0.1289  0.0574
   68POPC   D2A 1303   0.208   8.197   7.634 -0.0370 -0.1238  0.1416
   68POPC   C3A 1304   0.518   8.271   7.371 -0.1085  0.1279 -0.1737
   68POPC   C4A 1305   0.484   8.601   7.082 -0.2031  0.0127 -0.0324
   68POPC   C1B 1306  -0.379   7.552   7.998  0.0322 -0.4207  0.1797
   68POPC   C2B 1307  -0.279   7.200   7.842 -0.1285  0.2821  0.1895
   68POPC   C3B 1308   0.117   7.166   7.771 -0.1479 -0.0050  0.1307
   68POPC   C4B 1309   0.588   7.170   7.866  0.0792  0.1038 -0.1895
   69POPC   NC3 1310   4.342   9.488   8.617 -0.0173 -0.1050  0.1064
   69POPC   PO4 1311   4.000   9.636   8.653 -0.2889  0.0402 -0.0807
   69POPC   GL1 1312   4.067   9.674   8.229  0.1028  0.2602  0.1774
   69POPC   GL2 1313   4.101   9.411   8.103 -0.1921 -0.1119 -0.2396
   69POPC   C1A 1314   4.237   9.864   7.831 -0.0825 -0.0011 -0.2096
   69POPC   D2A 1315   4.154  10.030   7.371  0.0321  0.0654  0.2608
   69POPC   C3A 1316   3.878  10.382   7.325  0.1349  0.0975 -0.1382
   69POPC   C4A 1317   3.707  10.285   7.044  0.2646  0.0778  0.0398
   69POPC   C1B 1318   4.163   9.419   7.709 -0.1635  0.1949  0.0998
   69POPC   C2B 1319   4.083   9.589   7.197  0.0577 -0.2969 -0.1035
   69POPC   C3B 1320   3.999   9.980   6.844  0.5601  0.0094 -0.0552
   69POPC   C4B 1321   3.663   9.953   6.622  0.4481  0.1253 -0.0363
   70POPC   NC3 1322  10.127   0.897  10.094  0.2987  0.0237 -0.0100
   70POPC   PO4 1323  10.049   1.089   9.742 -0.6957 -0.2443  0.1992
   70POPC   GL1 1324  10.109   1.152   9.330 -0.2105  0.0972 -0.0983
   70POPC   GL2 1325  10.285   1.449   9.326  0.0202 -0.2216 -0.0421
   70POPC   C1A 1326  10.181   1.052   8.897 -0.1527  0.1377 -0.0191
   70POPC   D2A 1327  10.007   1.229   8.440  0.0797 -0.1483 -0.1228
   70POPC   C3A 1328  10.269   1.093   8.044 -0.0268  0.0247  0.1013
   70POPC   C4A 1329  10.379   1.137   7.500  0.0511 -0.1001 -0.1409
   70POPC   C1B 1330  10.412   1.461   8.950 -0.0072  0.0259  0.1166
   70POPC   C2B 1331  10.624   1.669   8.673 -0.2968 -0.4404 -0.0793
   70POPC   C3B 1332  10.912   1.730   8.245  0.1536 -0.2143  0.2560
   70POPC   C4B 1333  11.143   1.664   7.852  0.2582 -0.0748  0.1452
   71POPC   NC3 1334   1.303   5.580   8.695  0.2223  0.3571  0.3545
   71POPC   PO4 1335   0.898   5.755   8.528  0.1462 -0.2534 -0.0213
   71POPC   GL1 1336   1.174   5.643   8.172  0.2458  0.0177 -0.2024
   71POPC   GL2 1337   1.192   5.992   7.976  0.0402  0.0813 -0.0946
   71POPC   C1A 1338   1.126   5.418   7.728 -0.3187  0.1563 -0.2249
   71POPC   D2A 1339   1.096   5.181   7.390 -0.2433  0.1809 -0.1368
   71POPC   C3A 1340   1.238   4.903   7.008 -0.2227 -0.1631  0.0189
   71POPC   C4A 1341   1.372   4.965   6.577  0.0020 -0.1857  0.1768
   71POPC   C1B 1342   0.800   6.076   7.869 -0.0060 -0.2119 -0.3136
   71POPC   C2B 1343   0.441   6.256   7.633 -0.2113  0.2475 -0.0737
   71POPC   C3B 1344   0.231   6.581   7.257  0.2444  0.0143  0.2255
   71POPC   C4B 1345   0.184   6.498   6.765  0.1422  0.1689 -0.1499
   72POPC   NC3 1346   2.792   4.280   9.399  0.2190 -0.2803 -0.2953
   72POPC   PO4 1347   2.539   4.144   8.930  0.3797 -0.1132  0.0029
   72POPC   GL1 1348   2.691   4.055   8.482  0.0611  0.0936  0.0655
   72POPC   GL2 1349   2.995   4.105   8.450  0.1388  0.0262  0.0441
   72POPC   C1A 1350   2.561   3.810   8.130  0.1013  0.1184 -0.2736
   72POPC   D2A 1351   2.420   3.754   7.674  0.1405  0.1546  0.0842
   72POPC   C3A 1352   2.107   3.975   7.623  0.1733  0.3329  0.0979
   72POPC   C4A 1353   2.092   4.032   7.985  0.0265  0.2645 -0.1712
   72POPC   C1B 1354   2.779   4.313   8.070 -0.0334  0.0270 -0.0796
   72POPC   C2B 1355   2.494   4.288   7.711  0.0730 -0.3159 -0.2786
   72POPC   C3B 1356   2.215   4.422   7.394  0.0052 -0.1003  0.1195
   72POPC   C4B 1357   1.949   4.232   7.199  0.1823 -0.0105  0.0617
   73POPC   NC3 1358   0.063   8.176   9.406  0.0191  0.0174 -0.1175
   73POPC   PO4 1359  -0.022   8.230   9.008 -0.0787  0.0064 -0.1805
   73POPC   GL1 1360   0.047   8.302   8.561  0.1269 -0.1364  0.4883
   73POPC   GL2 1361   0.352   8.161   8.469 -0.2540  0.0708  0.0393
   73POPC   C1A 1362   0.052   8.538   8.103 -0.1616 -0.0260  0.0285
   73POPC   D2A 1363  -0.232   8.551   7.773  0.1696 -0.1434 -0.0872
   73POPC   C3A 1364  -0.465   8.551   7.451 -0.1362  0.0463 -0.0288
   73POPC   C4A 1365  -0.503   8.369   7.049 -0.0853 -0.3893 -0.0156
   73POPC   C1B 1366   0.489   8.169   8.027 -0.1110  0.0636 -0.3742
   73POPC   C2B 1367   0.613   7.886   7.702  0.1007 -0.1949  0.1615
   73POPC   C3B 1368   0.425   7.508   7.517 -0.1934  0.0907  0.4363
   73POPC   C4B 1369   0.361   7.466   7.056  0.1816 -0.3110  0.0762
   74POPC   NC3 1370   1.660   7.166   8.759 -0.4728 -0.0639  0.2424
   74POPC   PO4 1371   1.532   7.482   8.559  0.3984 -0.0931  0.3201
   74POPC   GL1 1372   1.457   7.863   8.280  0.1625 -0.1140  0.1738
   74POPC   GL2 1373   1.572   8.306   8.231  0.2273 -0.0197  0.0614
   74POPC   C1A 1374   1.827   7.907   8.025 -0.2069 -0.0276  0.0250
   74POPC   D2A 1375   1.925   8.229   7.649 -0.2617 -0.1386  0.3123
   74POPC   C3A 1376   1.622   8.181   7.384  0.0819 -0.0525  0.0070
   74POPC   C4A 1377   1.538   7.902   7.070  0.1332  0.0829 -0.0047
   74POPC   C1B 1378   1.534   8.518   7.779  0.2642 -0.0385 -0.3632
   74POPC   C2B 1379   1.196   8.789   7.606  0.1455  0.0256 -0.1993
   74POPC   C3B 1380   1.377   9.091   7.297 -0.0658  0.0079 -0.2191
   74POPC   C4B 1381   1.408   9.524   6.982  0.2806  0.0653  0.1236
   75POPC   NC3 1382   3.045   3.659   8.616 -0.3243 -0.0879 -0.1209
   75POPC   PO4 1383   3.460   3.886   8.600  0.3417  0.1508  0.2626
   75POPC   GL1 1384   3.458   4.009   8.177 -0.0207  0.1636 -0.0650
   75POPC   GL2 1385   3.553   4.440   8.109  0.0933 -0.2356 -0.0985
   75POPC   C1A 1386   3.415   4.130   7.803 -0.0261 -0.1354  0.0697
   75POPC   D2A 1387   3.524   4.439   7.555  0.1600 -0.0920  0.0283
   75POPC   C3A 1388   3.405   4.713   7.315 -0.0223 -0.0269 -0.1012
   75POPC   C4A 1389   3.550   4.834   6.949 -0.2947 -0.1049  0.0789
   75POPC   C1B 1390   3.694   4.805   7.943  0.2023  0.0468 -0.1550
   75POPC   C2B 1391   3.768   5.003   7.574 -0.2775 -0.0157  0.2001
   75POPC   C3B 1392   3.697   5.257   7.272 -0.0416 -0.1750  0.0663
   75POPC   C4B 1393   3.602   5.644   6.914  0.1624 -0.2377 -0.0217
   76POPC   NC3 1394   3.613   5.528   9.299 -0.2634 -0.1395 -0.3000
   76POPC   PO4 1395   3.759   5.707   8.827  0.1914  0.2227  0.0916
   76POPC   GL1 1396   3.720   5.777   8.364  0.0021  0.1728  0.0194
   76POPC   GL2 1397   4.002   5.599   8.420 -0.1238  0.2533 -0.4215
   76POPC   C1A 1398   3.903   5.804   7.924  0.1025 -0.0467  0.0973
   76POPC   D2A 1399   4.076   6.166   7.748 -0.1614  0.1157  0.1095
   76POPC   C3A 1400   4.040   6.259   7.234 -0.2618 -0.2390  0.5383
   76POPC   C4A 1401   4.121   6.402   6.901  0.1010  0.2418  0.1607
   76POPC   C1B 1402   4.074   6.050   8.272 -0.0672 -0.1102  0.1567
   76POPC   C2B 1403   4.098   6.398   8.244  0.3521  0.2836  0.0831
   76POPC   C3B 1404   4.240   6.636   7.841 -0.1848  0.0861  0.0024
   76POPC   C4B 1405   4.235   6.652   7.416  0.2788 -0.4938 -0.0472
   77POPC   NC3 1406   5.619   3.491   9.129  0.1795 -0.0234 -0.3081
   77POPC   PO4 1407   5.867   3.171   8.965  0.2977 -0.1035 -0.1274
   77POPC   GL1 1408   5.998   3.055   8.524  0.0955 -0.0926  0.1960
   77POPC   GL2 1409   5.729   2.802   8.345 -0.1179 -0.0524  0.1705
   77POPC   C1A 1410   6.008   3.338   8.247 -0.1056 -0.0378  0.2630
   77POPC   D2A 1411   6.154   3.698   7.934  0.0934 -0.2107 -0.1554
   77POPC   C3A 1412   6.101   3.560   7.539  0.1066 -0.0322 -0.3494
   77POPC   C4A 1413   6.210   3.536   7.194  0.3352  0.1512 -0.1426
   77POPC   C1B 1414   5.355   2.808   8.074  0.2110  0.1504  0.3563
   77POPC   C2B 1415   4.879   2.820   7.968 -0.1745 -0.0767 -0.1281
   77POPC   C3B 1416   4.689   3.143   7.553  0.1071 -0.1276 -0.0343
   77POPC   C4B 1417   4.632   3.566   7.401 -0.0213 -0.0791  0.0574
   78POPC   NC3 1418  10.181   8.978   8.961 -0.2020 -0.2097  0.0634
   78POPC   PO4 1419  10.255   8.602   8.737 -0.1513 -0.4073  0.0815
   78POPC   GL1 1420  10.486   8.884   8.433  0.0431  0.0436 -0.1745
   78POPC   GL2 1421  10.839   8.736   8.425  0.2102  0.0972 -0.1850
   78POPC   C1A 1422  10.720   9.251   8.329  0.0879 -0.1431 -0.1216
   78POPC   D2A 1423  10.993   9.474   8.138  0.3346 -0.2300  0.2271
   78POPC   C3A 1424  10.930   9.577   7.634  0.0347 -0.1468 -0.0003
   78POPC   C4A 1425  11.030   9.587   7.235  0.0760 -0.1296  0.2294
   78POPC   C1B 1426  10.877   8.885   8.086  0.2132  0.0779  0.0701
   78POPC   C2B 1427  10.662   9.119   7.824  0.0229  0.0559  0.0188
   78POPC   C3B 1428  10.118   9.304   7.713 -0.1836  0.2554 -0.0569
   78POPC   C4B 1429  10.017   9.680   8.024 -0.1621 -0.2535  0.2443
   79POPC   NC3 1430   4.865   7.912   8.813 -0.0671 -0.0097  0.2849
   79POPC   PO4 1431   4.461   7.688   8.688  0.2320  0.0550 -0.1192
   79POPC   GL1 1432   4.614   7.871   8.398 -0.1291 -0.2787 -0.2124
   79POPC   GL2 1433   4.879   8.219   8.443  0.1158  0.0004 -0.1385
   79POPC   C1A 1434   4.765   8.108   7.975  0.1557 -0.2860 -0.3273
   79POPC   D2A 1435   5.019   8.201   7.496  0.0440  0.1152 -0.4110
   79POPC   C3A 1436   5.453   8.028   7.316  0.0860 -0.0161 -0.0768
   79POPC   C4A 1437   5.843   8.029   6.980  0.0954  0.0117  0.1847
   79POPC   C1B 1438   5.115   8.425   8.046 -0.1273 -0.0590  0.2262
   79POPC   C2B 1439   5.159   8.868   7.826 -0.1753 -0.0690 -0.3203
   79POPC   C3B 1440   5.604   9.110   7.865  0.1694  0.0579 -0.0460
   79POPC   C4B 1441   5.580   9.391   7.518 -0.1883 -0.3825 -0.3881
   80POPC   NC3 1442   8.163  10.033   9.525 -0.0050  0.1963  0.2178
   80POPC   PO4 1443   8.002   9.801   9.154 -0.0684 -0.3567  0.2540
   80POPC   GL1 1444   7.903   9.691   8.623 -0.0169 -0.1600 -0.0186
   80POPC   GL2 1445   7.553   9.667   8.482  0.1573 -0.0791 -0.0412
   80POPC   C1A 1446   7.814   9.826   8.125 -0.4617  0.0430  0.1520
   80POPC   D2A 1447   7.855   9.724   7.771  0.2638  0.0290  0.1996
   80POPC   C3A 1448   8.039   9.962   7.474  0.1242 -0.3144 -0.1106
   80POPC   C4A 1449   8.126   9.986   7.037  0.0514 -0.1160  0.0403
   80POPC   C1B 1450   7.275   9.689   8.232 -0.2226  0.0556  0.2029
   80POPC   C2B 1451   7.358  10.026   8.006 -0.1413  0.1929 -0.2095
   80POPC   C3B 1452   7.366  10.360   7.666  0.2240 -0.3395 -0.1029
   80POPC   C4B 1453   7.490  10.553   7.323 -0.0128  0.3439  0.1729
   81POPC   NC3 1454  10.031   2.444  10.326 -0.2209 -0.0140 -0.1495
   81POPC   PO4 1455   9.683   2.658  10.177 -0.0791 -0.0133 -0.1000
   81POPC   GL1 1456   9.563   2.493   9.711 -0.0972 -0.1691 -0.1766
   81POPC   GL2 1457   9.529   2.583   9.470  0.0908 -0.0699 -0.1285
   81POPC   C1A 1458   9.200   2.140   9.475 -0.0614  0.2197 -0.2957
   81POPC   D2A 1459   8.866   1.987   9.426 -0.1245  0.1821  0.0933
   81POPC   C3A 1460   9.049   1.545   9.267  0.0451 -0.0848 -0.0365
   81POPC   C4A 1461   9.176   1.147   9.164 -0.3944 -0.1557  0.0588
   81POPC   C1B 1462   9.972   2.468   9.327  0.1545  0.0982  0.2085
   81POPC   C2B 1463  10.219   2.629   8.882 -0.1391 -0.0177 -0.2870
   81POPC   C3B 1464  10.329   2.492   8.484  0.0024  0.1619 -0.0369
   81POPC   C4B 1465  10.354   2.092   8.369  0.2805  0.0819  0.0469
   82POPC   NC3 1466   4.795  10.156   8.879  0.1876 -0.0221  0.1078
   82POPC   PO4 1467   4.737   9.741   8.710  0.0714  0.0967 -0.1560
   82POPC   GL1 1468   4.826   9.599   8.376 -0.0478 -0.0523  0.1876
   82POPC   GL2 1469   4.583   9.579   8.132  0.0397 -0.1256 -0.2120
   82POPC   C1A 1470   5.089   9.817   8.044  0.0969 -0.0092 -0.0051
   82POPC   D2A 1471   5.250  10.205   7.805 -0.1490 -0.1029  0.1013
   82POPC   C3A 1472   5.461  10.096   7.290 -0.3388  0.0457  0.1697
   82POPC   C4A 1473   5.639  10.174   6.834  0.1236 -0.3368  0.0786
   82POPC   C1B 1474   4.716   9.694   7.702 -0.0252 -0.2077  0.1191
   82POPC   C2B 1475   4.746   9.676   7.319  0.1101 -0.1456 -0.0364
   82POPC   C3B 1476   4.559   9.795   6.913 -0.2506  0.3133  0.3357
   82POPC   C4B 1477   4.594  10.178   6.730 -0.1328  0.2056 -0.1081
   83POPC   NC3 1478   5.937   2.671   8.857  0.2726 -0.2431 -0.4583
   83POPC   PO4 1479   5.577   2.287   8.916 -0.0076 -0.2003 -0.1162
   83POPC   GL1 1480   5.428   2.325   8.571 -0.0333  0.4945 -0.0394
   83POPC   GL2 1481   5.672   2.219   8.295  0.3891 -0.1612 -0.1654
   83POPC   C1A 1482   5.232   2.214   8.213  0.1793 -0.0217 -0.1185
   83POPC   D2A 1483   5.420   2.113   7.813 -0.0016 -0.0412  0.2017
   83POPC   C3A 1484   5.543   1.875   7.398  0.0196  0.0748 -0.2986
   83POPC   C4A 1485   5.638   2.023   7.071 -0.0876  0.2344 -0.1069
   83POPC   C1B 1486   5.756   2.456   7.934  0.2459 -0.0139 -0.0541
   83POPC   C2B 1487   5.621   2.577   7.519 -0.0626 -0.0265  0.0884
   83POPC   C3B 1488   5.689   2.520   7.042 -0.3258  0.0568 -0.1443
   83POPC   C4B 1489   5.955   2.650   6.691 -0.1064  0.3590  0.1012
   84POPC   NC3 1490   8.135   8.821   8.876  0.3223 -0.2962 -0.0755
   84POPC   PO4 1491   8.427   8.710   8.651 -0.1383 -0.0855 -0.4749
   84POPC   GL1 1492   8.594   9.135   8.409  0.1562 -0.1955  0.0864
   84POPC   GL2 1493   8.777   9.233   8.238  0.0128  0.1596 -0.1194
   84POPC   C1A 1494   8.317   9.414   8.131 -0.3906 -0.0119  0.3245
   84POPC   D2A 1495   8.302   9.553   7.701 -0.3168 -0.2200  0.0512
   84POPC   C3A 1496   8.376   9.468   7.258 -0.4794 -0.1396 -0.1715
   84POPC   C4A 1497   8.511   9.381   6.880 -0.0579  0.1578  0.1325
   84POPC   C1B 1498   8.932   9.333   7.795 -0.1033 -0.0414  0.1617
   84POPC   C2B 1499   8.866   9.216   7.384 -0.4229  0.2750  0.0517
   84POPC   C3B 1500   8.948   9.095   6.944 -0.0967  0.1163 -0.1733
   84POPC   C4B 1501   8.757   9.053   6.545  0.0974  0.1109  0.0832
   85POPC   NC3 1502   3.196   0.909   8.849 -0.0079 -0.2740 -0.3277
   85POPC   PO4 1503   2.835   0.825   8.580 -0.2170 -0.1536 -0.0731
   85POPC   GL1 1504   2.813   0.891   8.145 -0.2407 -0.0513  0.3123
   85POPC   GL2 1505   2.466   1.076   8.094 -0.1712 -0.1693  0.1508
   85POPC   C1A 1506   2.843   1.131   7.788 -0.0794  0.0840 -0.0199
   85POPC   D2A 1507   2.769   1.066   7.348  0.1954 -0.0227  0.2163
   85POPC   C3A 1508   2.671   0.659   7.126 -0.1839  0.0965 -0.2719
   85POPC   C4A 1509   2.292   0.371   7.080 -0.1598  0.2661 -0.1235
   85POPC   C1B 1510   2.371   1.194   7.663  0.1339  0.0984  0.1386
   85POPC   C2B 1511   2.075   1.344   7.276  0.0601 -0.3182 -0.0753
   85POPC   C3B 1512   1.848   1.133   6.851  0.1379  0.0224 -0.0554
   85POPC   C4B 1513   1.479   0.736   6.695 -0.0615  0.0931  0.0225
   86POPC   NC3 1514   5.537   8.507   8.706  0.3461 -0.0035 -0.1937
   86POPC   PO4 1515   5.534   8.230   9.082  0.0266  0.1039 -0.1958
   86POPC   GL1 1516   5.549   8.037   8.687 -0.1263 -0.0383  0.2164
   86POPC   GL2 1517   5.287   7.833   8.553 -0.0247 -0.0944  0.1631
   86POPC   C1A 1518   5.689   8.008   8.295 -0.1756  0.1640  0.0263
   86POPC   D2A 1519   5.682   8.073   7.788  0.0549  0.1662  0.1480
   86POPC   C3A 1520   5.810   7.727   7.403 -0.1207  0.0488 -0.2824
   86POPC   C4A 1521   6.003   7.499   7.039  0.1166 -0.3688  0.0599
   86POPC   C1B 1522   5.152   7.880   8.159 -0.4675 -0.0327 -0.1983
   86POPC   C2B 1523   5.271   7.795   7.728 -0.1287  0.1976  0.0297
   86POPC   C3B 1524   5.240   7.529   7.416  0.0332 -0.1733  0.1222
   86POPC   C4B 1525   5.467   7.422   7.080 -0.0995  0.1709 -0.0390
   87POPC   NC3 1526   2.671   0.069   8.656  0.1969 -0.3946 -0.0106
   87POPC   PO4 1527   2.640   0.402   8.385 -0.2507 -0.3132  0.3847
   87POPC   GL1 1528   2.540   0.403   7.930  0.2945 -0.1030 -0.0480
   87POPC   GL2 1529   2.598   0.713   7.733  0.1442  0.1396  0.1583
   87POPC   C1A 1530   2.588   0.259   7.491  0.1195  0.2141  0.2438
   87POPC   D2A 1531   2.780   0.021   7.191  0.0771 -0.1262 -0.1858
   87POPC   C3A 1532   3.105   0.245   6.858  0.2050  0.0063  0.0294
   87POPC   C4A 1533   3.215   0.648   6.749 -0.4130  0.2136 -0.1070
   87POPC   C1B 1534   2.896   0.632   7.635  0.3022  0.0955 -0.1352
   87POPC   C2B 1535   3.093   0.467   7.333 -0.1648 -0.0770  0.4166
   87POPC   C3B 1536   3.293   0.107   7.248 -0.2339  0.0156  0.0491
   87POPC   C4B 1537   3.107  -0.265   7.381  0.2239 -0.2814  0.0959
   88POPC   NC3 1538   1.470   8.728   8.570 -0.1452 -0.0798 -0.2654
   88POPC   PO4 1539   1.547   9.154   8.853 -0.0289  0.1223 -0.0427
   88POPC   GL1 1540   1.404   9.301   8.477 -0.1422 -0.3560  0.1515
   88POPC   GL2 1541   1.171   9.053   8.356  0.0476 -0.0672  0.0344
   88POPC   C1A 1542   1.462   9.509   8.212 -0.0513  0.0260  0.1855
   88POPC   D2A 1543   1.408   9.878   8.025 -0.0906  0.0645 -0.0162
   88POPC   C3A 1544   1.434  10.142   7.779  0.1488 -0.1362  0.4626
   88POPC   C4A 1545   1.557  10.479   7.785 -0.1018 -0.3722  0.3412
   88POPC   C1B 1546   0.864   9.061   8.013  0.1725 -0.0431  0.0870
   88POPC   C2B 1547   0.650   9.114   7.589 -0.5824 -0.0094  0.1709
   88POPC   C3B 1548   0.417   9.061   7.149 -0.1646 -0.2542  0.0966
   88POPC   C4B 1549   0.414   9.395   6.828 -0.0296 -0.1721  0.1352
   89POPC   NC3 1550   2.394   9.112   8.642  0.1320  0.2312 -0.3213
   89POPC   PO4 1551   2.384   9.545   8.703  0.2192 -0.1009 -0.3805
   89POPC   GL1 1552   2.362   9.399   8.206 -0.2139  0.0233 -0.2846
   89POPC   GL2 1553   2.644   9.171   8.203 -0.1242 -0.0259  0.1688
   89POPC   C1A 1554   2.230   9.130   7.928 -0.1898 -0.1895 -0.1544
   89POPC   D2A 1555   1.972   9.109   7.484 -0.0832  0.0578 -0.2412
   89POPC   C3A 1556   1.775   9.398   7.221 -0.2397 -0.1426 -0.3812
   89POPC   C4A 1557   2.048   9.252   6.802  0.3872 -0.2870 -0.2301
   89POPC   C1B 1558   2.681   8.919   7.833 -0.3511 -0.1404  0.1946
   89POPC   C2B 1559   2.426   8.833   7.557  0.0585  0.1372  0.2245
   89POPC   C3B 1560   2.651   8.780   7.195  0.0333 -0.1087 -0.0253
   89POPC   C4B 1561   2.910   8.740   6.821 -0.0495 -0.1745  0.1829
   90POPC   NC3 1562   6.872   8.870   8.844  0.0656  0.0600  0.1515
   90POPC   PO4 1563   7.245   8.674   8.725  0.2355  0.2247 -0.1421
   90POPC   GL1 1564   7.291   8.883   8.256  0.1476  0.0416  0.1739
   90POPC   GL2 1565   7.317   9.206   8.307  0.2516 -0.1974 -0.1919
   90POPC   C1A 1566   7.163   8.830   7.841  0.1003 -0.0045 -0.1824
   90POPC   D2A 1567   7.258   8.754   7.503 -0.2082  0.0565  0.2501
   90POPC   C3A 1568   6.998   8.487   7.243  0.0049 -0.0728 -0.2227
   90POPC   C4A 1569   6.650   8.238   7.292  0.1743  0.1332  0.2838
   90POPC   C1B 1570   6.969   9.236   8.036 -0.2988  0.0129 -0.1303
   90POPC   C2B 1571   6.860   9.251   7.584  0.1447 -0.1507 -0.1591
   90POPC   C3B 1572   6.755   9.427   7.240  0.2580  0.2978  0.1898
   90POPC   C4B 1573   6.881   9.768   7.018 -0.0459 -0.1720  0.0450
   91POPC   NC3 1574   0.917   7.969   8.893 -0.0151  0.2742  0.0705
   91POPC   PO4 1575   0.618   7.700   8.737 -0.0676 -0.0438 -0.0416
   91POPC   GL1 1576   0.523   7.497   8.302 -0.0275 -0.1149 -0.0657
   91POPC   GL2 1577   0.740   7.593   8.073 -0.0739 -0.1443  0.2377
   91POPC   C1A 1578   0.244   7.644   7.953  0.2971  0.0580 -0.3340
   91POPC   D2A 1579  -0.019   7.712   7.626 -0.0080  0.1132  0.2811
   91POPC   C3A 1580   0.191   7.902   7.250 -0.0646 -0.1577 -0.1808
   91POPC   C4A 1581   0.361   8.146   6.937 -0.2993 -0.2421  0.2258
   91POPC   C1B 1582   0.914   7.462   7.652  0.0753 -0.2126  0.2234
   91POPC   C2B 1583   0.745   7.787   7.248 -0.0291  0.1751  0.0948
   91POPC   C3B 1584   0.920   8.199   7.012  0.3199  0.1616 -0.1889
   91POPC   C4B 1585   0.769   8.434   6.735  0.1351  0.2649  0.4270
   92POPC   NC3 1586   7.650   5.710   9.999  0.0083 -0.2621 -0.0004
   92POPC   PO4 1587   7.705   5.975   9.547  0.0435 -0.2093  0.2957
   92POPC   GL1 1588   7.654   5.594   9.311  0.2043  0.1142  0.1982
   92POPC   GL2 1589   7.747   5.268   9.204  0.2058 -0.0533  0.3681
   92POPC   C1A 1590   7.780   5.601   8.755  0.1584 -0.1662 -0.5716
   92POPC   D2A 1591   7.803   5.595   8.360  0.1186 -0.3406 -0.1320
   92POPC   C3A 1592   8.159   5.681   8.183 -0.0114  0.2428  0.3933
   92POPC   C4A 1593   8.511   5.724   7.939 -0.4158 -0.2893 -0.0306
   92POPC   C1B 1594   8.155   5.390   9.134 -0.3148  0.0313 -0.2195
   92POPC   C2B 1595   8.530   5.433   8.923  0.0422  0.0857  0.0525
   92POPC   C3B 1596   8.661   5.609   8.478  0.0545  0.2668 -0.1891
   92POPC   C4B 1597   8.764   5.946   8.305  0.2061  0.0519 -0.2318
   93POPC   NC3 1598   2.180   3.889   9.056 -0.0170 -0.0467  0.0225
   93POPC   PO4 1599   2.536   3.519   8.912 -0.0536 -0.1682  0.0066
   93POPC   GL1 1600   2.567   3.400   8.420  0.1271 -0.0106 -0.0412
   93POPC   GL2 1601   2.323   3.298   8.378 -0.2380  0.3187 -0.1505
   93POPC   C1A 1602   2.659   3.382   8.014 -0.0409  0.2078  0.1144
   93POPC   D2A 1603   2.732   3.344   7.577 -0.0540 -0.1242  0.2108
   93POPC   C3A 1604   2.639   2.885   7.495  0.1415 -0.0003  0.0138
   93POPC   C4A 1605   2.825   2.524   7.503 -0.2026 -0.1403  0.1233
   93POPC   C1B 1606   2.098   3.562   8.093  0.0461  0.2108  0.1976
   93POPC   C2B 1607   1.791   3.670   7.771 -0.0688 -0.2687  0.0194
   93POPC   C3B 1608   1.750   3.689   7.375 -0.0764  0.1425 -0.0958
   93POPC   C4B 1609   1.753   3.790   6.950 -0.2171 -0.0248  0.0333
   94POPC   NC3 1610   0.490   0.508   9.203 -0.1157 -0.0563 -0.2488
   94POPC   PO4 1611   0.513   0.115   9.204 -0.0278  0.2559 -0.0107
   94POPC   GL1 1612   0.294   0.190   8.861 -0.2181  0.2160 -0.0430
   94POPC   GL2 1613   0.414   0.350   8.568 -0.0550  0.1875  0.0365
   94POPC   C1A 1614  -0.115   0.230   8.606  0.0192  0.2169  0.2189
   94POPC   D2A 1615  -0.481   0.182   8.564  0.1123 -0.0649 -0.4267
   94POPC   C3A 1616  -0.675   0.268   8.217 -0.1335  0.0841  0.3051
   94POPC   C4A 1617  -0.670   0.466   7.872 -0.3346  0.0522  0.1574
   94POPC   C1B 1618   0.245   0.197   8.212 -0.1203 -0.1651  0.0681
   94POPC   C2B 1619   0.060   0.052   7.796 -0.0768  0.0494 -0.5039
   94POPC   C3B 1620   0.003  -0.135   7.449 -0.1782  0.0799 -0.0869
   94POPC   C4B 1621   0.146  -0.492   7.284  0.0888 -0.0625 -0.0635
   95POPC   NC3 1622   5.021   2.960   9.103  0.1273  0.0186 -0.0524
   95POPC   PO4 1623   4.708   3.194   8.849  0.0911 -0.1784 -0.2296
   95POPC   GL1 1624   4.525   3.187   8.341  0.0160  0.0874 -0.2269
   95POPC   GL2 1625   4.350   3.431   8.222 -0.4183  0.2504  0.2609
   95POPC   C1A 1626   4.339   2.913   8.052  0.1831  0.1588 -0.0279
   95POPC   D2A 1627   4.243   2.862   7.507  0.1382  0.1620 -0.2570
   95POPC   C3A 1628   3.937   2.899   7.220  0.3099 -0.0149 -0.1913
   95POPC   C4A 1629   3.681   2.655   6.950 -0.0519  0.0094  0.0880
   95POPC   C1B 1630   4.306   3.374   7.775  0.2103 -0.1467  0.0685
   95POPC   C2B 1631   3.995   3.383   7.486 -0.3560 -0.2332 -0.0718
   95POPC   C3B 1632   3.608   3.423   7.278  0.0891  0.2573 -0.0477
   95POPC   C4B 1633   3.177   3.315   7.237 -0.1949  0.1853  0.0891
   96POPC   NC3 1634   8.193   8.242   9.034  0.1104 -0.4153  0.1322
   96POPC   PO4 1635   8.076   8.359   8.600 -0.3146  0.1284 -0.0496
   96POPC   GL1 1636   8.061   8.395   8.156  0.0054 -0.0965  0.0084
   96POPC   GL2 1637   7.741   8.377   8.014  0.1632  0.2394  0.1630
   96POPC   C1A 1638   8.205   8.568   7.695  0.1601 -0.0043  0.3860
   96POPC   D2A 1639   8.251   8.577   7.277 -0.0498 -0.2747 -0.1303
   96POPC   C3A 1640   8.317   8.171   6.992  0.2015 -0.0707 -0.2828
   96POPC   C4A 1641   8.203   7.756   6.928  0.1618  0.1707  0.1123
   96POPC   C1B 1642   7.784   8.325   7.555 -0.0537 -0.1227 -0.2486
   96POPC   C2B 1643   7.845   8.044   7.194  0.1708  0.1032  0.0252
   96POPC   C3B 1644   7.768   7.603   7.010 -0.0272  0.2420 -0.0719
   96POPC   C4B 1645   7.723   7.170   7.083  0.0011 -0.2743 -0.1274
   97POPC   NC3 1646   5.934   6.432   9.097 -0.1237  0.3345 -0.4601
   97POPC   PO4 1647   6.415   6.580   9.054  0.6419  0.2291 -0.2984
   97POPC   GL1 1648   6.686   6.603   8.679  0.1158  0.1171  0.0207
   97POPC   GL2 1649   6.786   6.328   8.507  0.1264 -0.1100  0.0346
   97POPC   C1A 1650   6.754   6.714   8.245  0.0090 -0.0977  0.0251
   97POPC   D2A 1651   6.773   6.707   7.717 -0.0797 -0.0662 -0.2254
   97POPC   C3A 1652   7.220   6.586   7.437  0.0989  0.0175  0.0235
   97POPC   C4A 1653   7.499   6.679   7.169 -0.1293 -0.1059  0.3109
   97POPC   C1B 1654   7.007   6.088   8.262 -0.3041 -0.1731 -0.1783
   97POPC   C2B 1655   7.185   5.932   7.994  0.1308 -0.1678  0.4619
   97POPC   C3B 1656   7.272   5.688   7.573  0.0311 -0.0198  0.0644
   97POPC   C4B 1657   7.346   5.373   7.466  0.2118 -0.0185 -0.1062
   98POPC   NC3 1658   0.590   2.997   9.423 -0.2090 -0.1242  0.1901
   98POPC   PO4 1659   0.992   3.111   9.382 -0.0449 -0.4005 -0.0266
   98POPC   GL1 1660   0.802   3.049   8.985  0.0053 -0.0548  0.0518
   98POPC   GL2 1661   0.749   2.693   8.999 -0.1964 -0.0956  0.1536
   98POPC   C1A 1662   0.832   3.137   8.550 -0.0065 -0.2637  0.0421
   98POPC   D2A 1663   0.822   3.423   8.238 -0.2950  0.0799  0.0024
   98POPC   C3A 1664   0.350   3.468   8.131  0.0487 -0.0651  0.0094
   98POPC   C4A 1665   0.174   3.807   8.071 -0.1108  0.1839 -0.1742
   98POPC   C1B 1666   0.615   2.676   8.538 -0.0161 -0.1771 -0.1842
   98POPC   C2B 1667   0.397   2.537   8.266  0.2341  0.0267  0.2465
   98POPC   C3B 1668   0.247   2.143   8.027  0.0517 -0.2916 -0.2452
   98POPC   C4B 1669   0.161   1.846   7.778  0.0628  0.0657  0.4800
   99POPC   NC3 1670   3.796   3.541   8.771  0.1834  0.1631 -0.2825
   99POPC   PO4 1671   4.031   3.785   8.807  0.0818 -0.0430  0.0783
   99POPC   GL1 1672   4.054   3.841   8.307  0.2041  0.1289  0.2315
   99POPC   GL2 1673   3.935   4.109   8.256  0.1638 -0.1722 -0.4019
   99POPC   C1A 1674   4.232   3.855   7.930 -0.0920  0.3647  0.1654
   99POPC   D2A 1675   4.330   4.003   7.634  0.1179 -0.1303  0.0270
   99POPC   C3A 1676   4.236   3.817   7.250  0.3465 -0.2322  0.2863
   99POPC   C4A 1677   3.819   3.793   6.998  0.0885 -0.0548  0.0042
   99POPC   C1B 1678   3.973   4.312   7.834 -0.0984 -0.1591 -0.2139
   99POPC   C2B 1679   4.017   4.354   7.479  0.3138 -0.2670  0.1645
   99POPC   C3B 1680   4.328   4.294   7.078 -0.1621  0.1299  0.0222
   99POPC   C4B 1681   4.647   4.390   6.766 -0.0929  0.1699 -0.3649
  100POPC   NC3 1682   8.949   8.974   8.783 -0.1814  0.0491 -0.3500
  100POPC   PO4 1683   9.306   8.627   8.815  0.2690  0.0874  0.0052
  100POPC   GL1 1684   9.230   8.887   8.412 -0.1994 -0.2982  0.2846
  100POPC   GL2 1685   9.171   8.551   8.269 -0.1125  0.0301  0.2936
  100POPC   C1A 1686   9.311   9.054   7.997 -0.0247 -0.1068  0.0768
  100POPC   D2A 1687   9.299   8.984   7.503  0.1394 -0.2122 -0.2436
  100POPC   C3A 1688   9.113   8.699   7.264  0.0229  0.2870 -0.0824
  100POPC   C4A 1689   8.791   8.557   6.902 -0.0845  0.1283 -0.0796
  100POPC   C1B 1690   8.813   8.746   8.206 -0.0108 -0.3156 -0.0803
  100POPC   C2B 1691   8.439   8.934   7.956 -0.3161  0.2291  0.4054
  100POPC   C3B 1692   8.138   9.090   7.651  0.3003  0.0871 -0.2490
  100POPC   C4B 1693   7.867   9.407   7.417 -0.0368  0.2979 -0.0843
  101POPC   NC3 1694   0.752   3.823   8.506 -0.3123  0.5255 -0.2778
  101POPC   PO4 1695   0.437   4.154   8.660 -0.2084 -0.2699 -0.0129
  101POPC   GL1 1696   0.105   4.161   8.419  0.1087  0.2367 -0.2168
  101POPC   GL2 1697  -0.120   4.065   8.551 -0.0084  0.3326  0.0141
  101POPC   C1A 1698  -0.039   4.270   7.956  0.1798  0.1370  0.1709
  101POPC   D2A 1699  -0.230   4.453   7.608  0.0049  0.2864  0.1506
  101POPC   C3A 1700  -0.543   4.159   7.281  0.2443 -0.2339  0.1168
  101POPC   C4A 1701  -0.386   3.921   7.043  0.1259  0.2286 -0.1971
  101POPC   C1B 1702  -0.424   3.934   8.231  0.0969 -0.0098  0.1788
  101POPC   C2B 1703  -0.466   4.010   7.791  0.1730  0.0779 -0.1777
  101POPC   C3B 1704  -0.206   3.718   7.459  0.0686 -0.0863 -0.0162
  101POPC   C4B 1705   0.004   3.618   7.166  0.4832  0.1609  0.0704
  102POPC   NC3 1706   6.225   7.925   8.722 -0.0097  0.2225 -0.1436
  102POPC   PO4 1707   6.185   7.526   8.980 -0.0479 -0.1347 -0.2440
  102POPC   GL1 1708   6.228   7.294   8.545 -0.0596 -0.1877  0.0516
  102POPC   GL2 1709   6.541   7.101   8.507 -0.3648 -0.0108  0.2982
  102POPC   C1A 1710   6.207   7.465   8.138 -0.1676  0.2164 -0.0118
  102POPC   D2A 1711   6.232   7.596   7.714  0.0594  0.2395 -0.2661
  102POPC   C3A 1712   6.221   8.052   7.569 -0.0838  0.2760 -0.2315
  102POPC   C4A 1713   6.457   8.388   7.741 -0.0647 -0.1708  0.0208
  102POPC   C1B 1714   6.343   6.963   8.145 -0.0497  0.0439 -0.0575
  102POPC   C2B 1715   6.333   6.749   7.731  0.2203 -0.1617  0.0709
  102POPC   C3B 1716   6.116   6.670   7.370  0.1253  0.0003  0.0384
  102POPC   C4B 1717   6.220   6.421   7.005 -0.1690  0.3397  0.2315
  103POPC   NC3 1718   7.005   2.865  10.491 -0.0775 -0.0374 -0.1571
  103POPC   PO4 1719   7.236   2.826  10.202 -0.0275 -0.2713  0.5321
  103POPC   GL1 1720   7.298   2.698   9.766 -0.0410 -0.0140  0.1098
  103POPC   GL2 1721   7.033   2.526   9.594  0.1028 -0.2209 -0.0875
  103POPC   C1A 1722   7.365   2.760   9.284 -0.0941 -0.1441 -0.0714
  103POPC   D2A 1723   7.174   2.709   8.874  0.0486  0.2053 -0.0666
  103POPC   C3A 1724   6.829   2.446   8.598 -0.0499 -0.2393  0.1345
  103POPC   C4A 1725   6.693   2.100   8.295  0.1171  0.0953  0.2341
  103POPC   C1B 1726   7.104   2.328   9.239  0.2993 -0.0307 -0.3039
  103POPC   C2B 1727   7.185   2.110   8.882  0.1789 -0.0888 -0.1526
  103POPC   C3B 1728   7.562   1.926   8.679 -0.2043  0.1450  0.0052
  103POPC   C4B 1729   7.990   2.016   8.669 -0.0039 -0.0258  0.0042
  104POPC   NC3 1730  10.352   6.952   8.517 -0.0155  0.2121  0.1011
  104POPC   PO4 1731  10.446   6.573   8.475  0.1596  0.2532  0.1151
  104POPC   GL1 1732  10.627   6.598   8.042 -0.1138  0.1545  0.1526
  104POPC   GL2 1733  10.417   6.636   7.952  0.1415 -0.0583  0.3007
  104POPC   C1A 1734  10.911   6.710   7.743  0.0825 -0.2125  0.0849
  104POPC   D2A 1735  10.927   6.997   7.397 -0.1775  0.2136 -0.5999
  104POPC   C3A 1736  11.288   7.134   7.272 -0.1575 -0.0667  0.0047
  104POPC   C4A 1737  11.535   7.460   7.108 -0.0774 -0.3603 -0.0080
  104POPC   C1B 1738  10.262   6.492   7.623  0.1030  0.1179  0.3006
  104POPC   C2B 1739  10.265   6.872   7.328 -0.1031  0.0621  0.0725
  104POPC   C3B 1740  10.435   7.262   7.244 -0.4864 -0.3021 -0.0390
  104POPC   C4B 1741  10.477   7.365   6.769  0.1367  0.1923 -0.0165
  105POPC   NC3 1742   7.833   1.334   9.644  0.0703  0.0725 -0.0578
  105POPC   PO4 1743   7.505   1.058   9.729 -0.0801 -0.1109  0.0511
  105POPC   GL1 1744   7.466   0.797   9.422  0.1917  0.1458 -0.1505
  105POPC   GL2 1745   7.276   0.556   9.127 -0.1004  0.2241 -0.2641
  105POPC   C1A 1746   7.698   0.740   9.004  0.0751  0.0478  0.1317
  105POPC   D2A 1747   8.059   0.924   8.603 -0.0022  0.2133  0.0595
  105POPC   C3A 1748   8.430   0.680   8.494 -0.0339  0.1034 -0.1250
  105POPC   C4A 1749   8.646   0.662   8.119  0.1934  0.0562 -0.1343
  105POPC   C1B 1750   7.363   0.623   8.613  0.1230  0.0407 -0.1068
  105POPC   C2B 1751   7.287   0.387   8.142 -0.1793  0.0164  0.0031
  105POPC   C3B 1752   7.594   0.240   7.858 -0.1059 -0.2161  0.0159
  105POPC   C4B 1753   7.824   0.412   7.569 -0.1335 -0.1199  0.1610
  106POPC   NC3 1754   7.158   8.121   8.575 -0.0328  0.1914 -0.2334
  106POPC   PO4 1755   7.251   7.671   8.588  0.2943  0.1105  0.1720
  106POPC   GL1 1756   7.078   7.721   8.223 -0.3337  0.4110  0.1493
  106POPC   GL2 1757   7.297   7.979   7.986  0.0239 -0.2894  0.0723
  106POPC   C1A 1758   6.703   7.510   8.096 -0.0629  0.0510  0.2362
  106POPC   D2A 1759   6.659   7.151   7.883 -0.3332 -0.1176  0.2352
  106POPC   C3A 1760   6.636   7.167   7.415  0.0578  0.0968  0.2091
  106POPC   C4A 1761   6.597   6.808   7.218 -0.2488 -0.1590  0.1890
  106POPC   C1B 1762   7.293   8.280   7.653  0.0305  0.0239 -0.0300
  106POPC   C2B 1763   7.448   8.395   7.202 -0.2228  0.2262  0.3100
  106POPC   C3B 1764   7.459   8.774   7.033  0.1728  0.1646 -0.2125
  106POPC   C4B 1765   7.555   9.116   6.782  0.1021  0.1808 -0.1845
  107POPC   NC3 1766   0.898   9.804   8.956 -0.3765 -0.2786 -0.0010
  107POPC   PO4 1767   1.018   9.391   8.807 -0.0220  0.2657 -0.1354
  107POPC   GL1 1768   0.719   9.627   8.524  0.2055 -0.3638 -0.3874
  107POPC   GL2 1769   0.956   9.571   8.252 -0.1693  0.0811  0.0690
  107POPC   C1A 1770   0.591   9.989   8.289  0.0859  0.1503  0.1196
  107POPC   D2A 1771   0.325  10.082   7.907  0.2679 -0.1101  0.0142
  107POPC   C3A 1772  -0.192  10.058   7.827 -0.1557  0.0851 -0.4177
  107POPC   C4A 1773  -0.497  10.069   7.541 -0.0032  0.1991 -0.3549
  107POPC   C1B 1774   1.012   9.535   7.760  0.1796  0.0401 -0.0597
  107POPC   C2B 1775   1.091   9.475   7.370 -0.0465  0.0852 -0.2219
  107POPC   C3B 1776   0.895   9.751   6.942 -0.1334  0.1409  0.0420
  107POPC   C4B 1777   1.073   9.974   6.606  0.2005  0.0668 -0.1390
  108POPC   NC3 1778   0.498   6.505   8.472  0.2362 -0.0220  0.0527
  108POPC   PO4 1779   0.799   6.649   8.699  0.1055  0.0775 -0.2671
  108POPC   GL1 1780   0.822   6.792   8.190 -0.3209 -0.0407 -0.3020
  108POPC   GL2 1781   1.068   7.049   8.267 -0.3823 -0.1777  0.1236
  108POPC   C1A 1782   0.913   6.561   7.832 -0.1858 -0.2665  0.0181
  108POPC   D2A 1783   0.861   6.553   7.368  0.1021  0.0712  0.2071
  108POPC   C3A 1784   0.651   6.695   6.954  0.0158  0.1657  0.1292
  108POPC   C4A 1785   0.292   6.955   6.945  0.0573 -0.1368 -0.3710
  108POPC   C1B 1786   1.115   7.023   7.772 -0.1544  0.0496 -0.1883
  108POPC   C2B 1787   1.334   7.069   7.372 -0.1372  0.0631 -0.3428
  108POPC   C3B 1788   1.552   7.319   7.128  0.0873 -0.0670 -0.0849
  108POPC   C4B 1789   1.760   7.160   6.754  0.1273  0.1749 -0.0508
  109POPC   NC3 1790   5.036   9.245   8.757  0.0906  0.0692 -0.0745
  109POPC   PO4 1791   4.963   8.816   8.585  0.0711  0.2847 -0.0463
  109POPC   GL1 1792   4.794   9.047   8.184 -0.4609 -0.2056 -0.1360
  109POPC   GL2 1793   4.473   9.090   8.030 -0.0307 -0.1662  0.2689
  109POPC   C1A 1794   4.741   9.186   7.656 -0.0347 -0.3025 -0.1264
  109POPC   D2A 1795   4.996   9.247   7.305  0.1069  0.1156  0.1231
  109POPC   C3A 1796   5.272   8.890   7.345  0.0200 -0.0751 -0.2110
  109POPC   C4A 1797   5.686   8.959   7.357  0.2027 -0.0752  0.1327
  109POPC   C1B 1798   4.337   8.919   7.619 -0.0318 -0.0801 -0.0687
  109POPC   C2B 1799   4.463   9.246   7.205  0.2300 -0.3283 -0.3213
  109POPC   C3B 1800   4.354   9.337   6.805  0.0344  0.0610  0.1359
  109POPC   C4B 1801   4.025   9.320   6.413 -0.3697  0.0897 -0.0006
  110POPC   NC3 1802   1.903   9.504   8.872  0.2683  0.0677 -0.2838
  110POPC   PO4 1803   1.999   9.921   8.794 -0.3306  0.2555 -0.0374
  110POPC   GL1 1804   2.029   9.774   8.389  0.3204 -0.0289 -0.2040
  110POPC   GL2 1805   2.314   9.986   8.253  0.1372  0.1072  0.3546
  110POPC   C1A 1806   1.862   9.631   8.016 -0.1138  0.0865 -0.3952
  110POPC   D2A 1807   2.118   9.541   7.705  0.2596  0.0416 -0.1332
  110POPC   C3A 1808   2.167   9.791   7.334 -0.2033  0.0814  0.2123
  110POPC   C4A 1809   2.295   9.707   6.953 -0.3824  0.0019 -0.0754
  110POPC   C1B 1810   2.415   9.896   7.873  0.1159  0.0132  0.0509
  110POPC   C2B 1811   2.637  10.083   7.532 -0.1280 -0.2110 -0.0747
  110POPC   C3B 1812   2.729   9.979   7.111 -0.0518  0.1147  0.4996
  110POPC   C4B 1813   2.816   9.796   6.729  0.1570 -0.0309 -0.0700
  111POPC   NC3 1814   8.193   7.289   9.096 -0.4781  0.0603  0.0387
  111POPC   PO4 1815   8.406   7.469   8.734 -0.2832  0.1167  0.0246
  111POPC   GL1 1816   8.340   7.492   8.347 -0.0516 -0.0240 -0.2437
  111POPC   GL2 1817   8.097   7.579   8.110 -0.3524  0.1001 -0.1100
  111POPC   C1A 1818   8.245   7.050   8.101 -0.0939 -0.0269 -0.0444
  111POPC   D2A 1819   8.272   6.606   7.861 -0.0616  0.0686 -0.0644
  111POPC   C3A 1820   8.606   6.498   7.779 -0.0156  0.0588 -0.0162
  111POPC   C4A 1821   8.758   6.141   7.863  0.2696  0.0645 -0.1042
  111POPC   C1B 1822   8.324   7.467   7.788  0.3780 -0.0930 -0.1974
  111POPC   C2B 1823   8.214   7.154   7.661 -0.1901  0.2716 -0.0676
  111POPC   C3B 1824   8.497   6.885   7.462  0.0744  0.0840  0.2435
  111POPC   C4B 1825   8.562   6.423   7.289 -0.0517 -0.0664 -0.0647
  112POPC   NC3 1826   2.487   5.846   9.302 -0.0187 -0.1455  0.0360
  112POPC   PO4 1827   2.277   5.597   8.900 -0.2149 -0.2323 -0.1896
  112POPC   GL1 1828   2.492   5.521   8.533 -0.0719 -0.1032  0.1165
  112POPC   GL2 1829   2.502   5.833   8.363  0.1089  0.0328  0.2109
  112POPC   C1A 1830   2.724   5.444   8.129  0.0934  0.0204  0.3078
  112POPC   D2A 1831   2.750   5.216   7.756  0.1896 -0.0803  0.1182
  112POPC   C3A 1832   2.843   5.382   7.354 -0.1603 -0.1101 -0.0751
  112POPC   C4A 1833   2.763   5.578   6.942  0.1071 -0.0782 -0.2445
  112POPC   C1B 1834   2.552   5.968   7.890  0.2739  0.2606 -0.0245
  112POPC   C2B 1835   2.983   6.210   7.713  0.1585  0.1548  0.1625
  112POPC   C3B 1836   3.155   6.608   7.498  0.0512 -0.0851  0.2590
  112POPC   C4B 1837   3.143   6.870   7.173  0.2946  0.2486 -0.3674
  113POPC   NC3 1838   9.439  10.282   9.829 -0.0523 -0.2599 -0.1905
  113POPC   PO4 1839   9.738  10.563   9.886 -0.1420  0.2268 -0.0984
  113POPC   GL1 1840   9.840  10.655   9.377  0.0379 -0.0362 -0.0039
  113POPC   GL2 1841  10.054  10.479   9.043 -0.5720  0.0996 -0.2189
  113POPC   C1A 1842   9.652  10.867   9.085  0.0183  0.0789 -0.1128
  113POPC   D2A 1843   9.547  11.000   8.747 -0.2239 -0.3472  0.0537
  113POPC   C3A 1844   9.342  10.775   8.439  0.0938  0.3057  0.1201
  113POPC   C4A 1845   9.037  10.547   8.240 -0.0618 -0.0910 -0.1947
  113POPC   C1B 1846  10.187  10.184   8.695  0.1463  0.1763  0.3058
  113POPC   C2B 1847  10.091   9.753   8.622 -0.0366  0.0800  0.4386
  113POPC   C3B 1848  10.192   9.307   8.370 -0.1443 -0.3332  0.0574
  113POPC   C4B 1849  10.228   8.982   8.082 -0.0426 -0.2275 -0.0749
  114POPC   NC3 1850   1.406   4.926   9.424  0.0689  0.0468  0.2345
  114POPC   PO4 1851   1.765   4.568   9.462  0.0116 -0.0224 -0.2463
  114POPC   GL1 1852   1.738   4.705   8.857  0.0447 -0.1547 -0.2443
  114POPC   GL2 1853   1.711   4.436   8.608 -0.0471 -0.0413  0.1567
  114POPC   C1A 1854   1.874   4.887   8.469  0.1816 -0.2905  0.3085
  114POPC   D2A 1855   1.757   5.211   8.148  0.0157  0.0157  0.1155
  114POPC   C3A 1856   1.816   5.249   7.642  0.0248  0.2497  0.1887
  114POPC   C4A 1857   1.571   5.162   7.229  0.1061 -0.2074 -0.2065
  114POPC   C1B 1858   1.808   4.109   8.461  0.1036 -0.3306  0.0831
  114POPC   C2B 1859   1.588   3.990   8.124  0.2808  0.3290  0.3162
  114POPC   C3B 1860   1.360   3.880   7.692 -0.1389 -0.0301 -0.0552
  114POPC   C4B 1861   1.253   3.635   7.350 -0.1139 -0.0691  0.0384
  115POPC   NC3 1862   5.718   4.313   9.367 -0.1263 -0.0463 -0.0326
  115POPC   PO4 1863   5.926   4.007   9.152 -0.0404 -0.2922  0.0055
  115POPC   GL1 1864   5.921   4.002   8.728 -0.0149  0.0752 -0.1003
  115POPC   GL2 1865   6.185   4.006   8.451  0.0116  0.0592 -0.1346
  115POPC   C1A 1866   5.747   4.303   8.460  0.5192  0.0032  0.1476
  115POPC   D2A 1867   5.683   4.691   8.120  0.0069  0.2084  0.0120
  115POPC   C3A 1868   5.682   4.547   7.777 -0.1727  0.2406  0.0293
  115POPC   C4A 1869   5.819   4.595   7.588 -0.0818  0.0205 -0.0551
  115POPC   C1B 1870   6.008   4.200   8.034  0.1512 -0.2624  0.0322
  115POPC   C2B 1871   5.786   4.083   7.653 -0.2280 -0.0403  0.1996
  115POPC   C3B 1872   5.955   3.975   7.203  0.1039 -0.0591 -0.2931
  115POPC   C4B 1873   6.379   4.005   7.185  0.3013 -0.1197 -0.0846
  116POPC   NC3 1874   0.608   1.296   9.060  0.0791  0.0146  0.0027
  116POPC   PO4 1875   0.732   0.912   9.206 -0.0776  0.2319 -0.1655
  116POPC   GL1 1876   0.492   0.880   8.801 -0.3515  0.1483  0.1083
  116POPC   GL2 1877   0.635   0.772   8.498 -0.0026  0.0388 -0.1290
  116POPC   C1A 1878   0.231   1.157   8.501  0.0694  0.0340  0.0422
  116POPC   D2A 1879  -0.019   1.557   8.209  0.0983 -0.0959  0.2805
  116POPC   C3A 1880  -0.406   1.709   8.089 -0.2339  0.0278 -0.2536
  116POPC   C4A 1881  -0.814   1.710   8.327 -0.2570  0.0200 -0.1706
  116POPC   C1B 1882   0.951   0.993   8.246 -0.0881  0.2503 -0.1508
  116POPC   C2B 1883   1.219   1.311   7.963 -0.1447  0.0828 -0.1426
  116POPC   C3B 1884   1.192   1.515   7.660  0.3219 -0.0684 -0.1784
  116POPC   C4B 1885   1.086   1.750   7.307 -0.0565 -0.3520  0.0434
  117POPC   NC3 1886   7.089   7.917   9.055 -0.2393  0.3809 -0.0617
  117POPC   PO4 1887   6.646   7.940   9.002  0.4260 -0.1548  0.1257
  117POPC   GL1 1888   6.675   8.063   8.546 -0.0585  0.2203  0.0806
  117POPC   GL2 1889   6.820   8.443   8.445  0.2526 -0.0575 -0.0100
  117POPC   C1A 1890   6.425   7.970   8.120  0.1137  0.1380 -0.1187
  117POPC   D2A 1891   6.073   7.944   7.997 -0.1758 -0.3087  0.1906
  117POPC   C3A 1892   5.785   7.575   7.937 -0.1661  0.0667 -0.2404
  117POPC   C4A 1893   5.601   7.357   7.677 -0.1385  0.2111  0.1135
  117POPC   C1B 1894   6.932   8.331   8.030  0.1733  0.0088 -0.2710
  117POPC   C2B 1895   6.816   7.993   7.749  0.1955 -0.0686 -0.2318
  117POPC   C3B 1896   7.105   7.968   7.277  0.0720 -0.1667 -0.0806
  117POPC   C4B 1897   7.401   7.933   6.991  0.1545 -0.0894 -0.3499
  118POPC   NC3 1898   0.475   5.007   8.908  0.2098  0.0463 -0.0396
  118POPC   PO4 1899   0.342   5.302   8.890  0.0172  0.0885 -0.0128
  118POPC   GL1 1900   0.313   4.925   8.464 -0.1431  0.1770 -0.2996
  118POPC   GL2 1901   0.143   5.060   8.385 -0.0354  0.3357 -0.0720
  118POPC   C1A 1902   0.341   4.699   8.104  0.0862  0.0369 -0.2564
  118POPC   D2A 1903   0.455   4.330   7.812  0.3447 -0.0800 -0.0312
  118POPC   C3A 1904   0.392   4.268   7.449  0.0378  0.2325 -0.3729
  118POPC   C4A 1905   0.052   4.162   7.357 -0.0001 -0.2319  0.3888
  118POPC   C1B 1906   0.190   5.175   7.990 -0.2305  0.1714  0.4222
  118POPC   C2B 1907   0.189   5.181   7.460 -0.0403 -0.2832 -0.1534
  118POPC   C3B 1908   0.066   5.199   7.062  0.0936  0.0128 -0.1314
  118POPC   C4B 1909  -0.019   4.906   6.669 -0.0972  0.0540  0.0964
  119POPC   NC3 1910  10.290   5.016   8.740  0.0518 -0.1185 -0.3019
  119POPC   PO4 1911  10.156   5.472   8.834  0.2310  0.1413 -0.1034
  119POPC   GL1 1912  10.467   5.520   8.467  0.0099 -0.1631 -0.1597
  119POPC   GL2 1913  10.273   5.368   8.235 -0.2536  0.3029 -0.0932
  119POPC   C1A 1914  10.801   5.564   8.296 -0.3962  0.1908  0.0509
  119POPC   D2A 1915  11.120   5.522   8.124  0.0369  0.0629  0.1194
  119POPC   C3A 1916  11.056   5.288   7.704  0.0287 -0.1114 -0.3981
  119POPC   C4A 1917  11.133   5.307   7.270  0.1655 -0.0438  0.1579
  119POPC   C1B 1918  10.209   5.310   7.815 -0.2029  0.0763  0.0887
  119POPC   C2B 1919  10.209   5.031   7.464  0.1843  0.1141 -0.1450
  119POPC   C3B 1920  10.065   4.704   7.192 -0.0620 -0.0788  0.0851
  119POPC   C4B 1921   9.698   4.533   7.081 -0.1935 -0.0919 -0.1755
  120POPC   NC3 1922   2.601   3.025   8.700  0.0105  0.2174 -0.0539
  120POPC   PO4 1923   2.990   2.799   8.874  0.1317 -0.0288  0.3301
  120POPC   GL1 1924   2.766   2.683   8.411  0.3990  0.0841  0.1383
  120POPC   GL2 1925   2.982   2.771   8.195 -0.3559  0.4522 -0.1322
  120POPC   C1A 1926   2.661   2.534   7.959  0.3145 -0.1355  0.0439
  120POPC   D2A 1927   2.258   2.425   7.703  0.0206 -0.0737  0.1358
  120POPC   C3A 1928   2.273   2.561   7.203  0.1909  0.4035  0.0735
  120POPC   C4A 1929   2.328   2.262   6.780 -0.1060 -0.0566  0.0227
  120POPC   C1B 1930   3.464   2.800   8.057  0.5057 -0.0624 -0.1478
  120POPC   C2B 1931   3.708   2.714   7.636  0.0247 -0.2475  0.0006
  120POPC   C3B 1932   3.402   2.850   7.364 -0.1937  0.1602  0.1378
  120POPC   C4B 1933   2.995   2.898   7.121 -0.0497 -0.1020 -0.4122
  121POPC   NC3 1934   3.298   6.041   8.721  0.1116 -0.2120  0.1525
  121POPC   PO4 1935   3.553   6.172   8.946 -0.1285 -0.0114  0.1889
  121POPC   GL1 1936   3.599   6.358   8.529 -0.1444 -0.3275  0.3089
  121POPC   GL2 1937   3.590   6.724   8.425  0.3117  0.1202  0.1025
  121POPC   C1A 1938   3.622   6.265   8.098 -0.0926  0.1704 -0.3237
  121POPC   D2A 1939   3.453   6.017   7.778  0.3957  0.0416 -0.0850
  121POPC   C3A 1940   3.446   6.196   7.318  0.1101  0.1145 -0.1430
  121POPC   C4A 1941   3.630   6.145   7.024 -0.2837 -0.4448  0.1407
  121POPC   C1B 1942   3.837   6.786   8.097 -0.2929 -0.0993 -0.1972
  121POPC   C2B 1943   3.947   7.042   7.796  0.1274 -0.2241 -0.0787
  121POPC   C3B 1944   3.972   7.126   7.427  0.0091 -0.0789  0.1233
  121POPC   C4B 1945   4.296   6.922   7.061 -0.2556  0.0580  0.2246
  122POPC   NC3 1946   7.687   9.327   8.853  0.0955 -0.1251  0.1029
  122POPC   PO4 1947   7.673   8.941   8.646  0.0431 -0.1521  0.0052
  122POPC   GL1 1948   7.829   8.793   8.351  0.0235 -0.0230  0.3872
  122POPC   GL2 1949   7.998   8.982   8.159  0.1852 -0.2856  0.0288
  122POPC   C1A 1950   7.728   8.822   7.802 -0.0948  0.1933  0.1264
  122POPC   D2A 1951   7.797   8.816   7.407  0.1870  0.0127  0.1713
  122POPC   C3A 1952   7.993   8.997   7.040 -0.4550 -0.1727  0.0239
  122POPC   C4A 1953   8.167   8.960   6.635 -0.2276  0.2879  0.0314
  122POPC   C1B 1954   7.743   9.275   8.003  0.1205 -0.0104 -0.1384
  122POPC   C2B 1955   7.420   9.262   7.663  0.0387 -0.2139  0.0057
  122POPC   C3B 1956   7.304   9.278   7.264  0.2040 -0.0515  0.1000
  122POPC   C4B 1957   7.266   9.500   6.874 -0.0935 -0.1131 -0.0991
  123POPC   NC3 1958   4.539   2.409   8.870 -0.1747  0.2078 -0.0009
  123POPC   PO4 1959   4.683   2.105   8.994 -0.1956 -0.1841 -0.0282
  123POPC   GL1 1960   4.681   2.135   8.519 -0.4294  0.0917  0.3085
  123POPC   GL2 1961   4.558   1.950   8.246 -0.0180 -0.0541 -0.0845
  123POPC   C1A 1962   4.829   2.333   8.016 -0.1410  0.0279  0.0299
  123POPC   D2A 1963   5.161   2.450   7.638  0.0085  0.2832 -0.4335
  123POPC   C3A 1964   5.137   2.793   7.459 -0.0529 -0.0572 -0.2599
  123POPC   C4A 1965   5.479   3.072   7.326  0.0902 -0.2155 -0.4301
  123POPC   C1B 1966   4.687   1.841   7.808 -0.0872 -0.1205 -0.1620
  123POPC   C2B 1967   4.865   1.951   7.522 -0.0496 -0.1185  0.1009
  123POPC   C3B 1968   5.035   2.169   7.210  0.0391  0.0381  0.0450
  123POPC   C4B 1969   5.171   2.509   7.101 -0.1920  0.3078 -0.1268
  124POPC   NC3 1970   7.485   7.172   8.576 -0.1376  0.2408 -0.0554
  124POPC   PO4 1971   7.893   6.932   8.587  0.1282  0.1391  0.1423
  124POPC   GL1 1972   7.676   7.166   8.164 -0.0961 -0.0479 -0.1810
  124POPC   GL2 1973   7.487   7.445   8.193 -0.0300 -0.0048  0.0476
  124POPC   C1A 1974   7.739   7.399   7.809 -0.0269  0.0867 -0.0873
  124POPC   D2A 1975   8.036   7.598   7.432 -0.1348 -0.2833 -0.5760
  124POPC   C3A 1976   8.347   7.923   7.398 -0.2213  0.2595 -0.1510
  124POPC   C4A 1977   8.771   7.944   7.637  0.3263  0.4183  0.2171
  124POPC   C1B 1978   7.221   7.341   7.840 -0.2450 -0.0924  0.1576
  124POPC   C2B 1979   6.933   7.472   7.618 -0.0296  0.1973  0.0828
  124POPC   C3B 1980   6.631   7.693   7.383 -0.2275  0.2286 -0.3053
  124POPC   C4B 1981   6.369   7.866   7.085  0.1499  0.4183 -0.3512
  125POPC   NC3 1982   0.270   9.623   9.791  0.1143  0.2908 -0.0247
  125POPC   PO4 1983   0.155   9.769   9.308  0.1031  0.3705  0.0561
  125POPC   GL1 1984   0.148   9.904   8.845  0.1497  0.1110 -0.1685
  125POPC   GL2 1985   0.034   9.584   8.649 -0.1935  0.1617 -0.0691
  125POPC   C1A 1986   0.167  10.326   8.546  0.0980 -0.0982  0.3333
  125POPC   D2A 1987  -0.022  10.294   8.242 -0.0246 -0.0543 -0.0013
  125POPC   C3A 1988  -0.498  10.241   8.230 -0.2373  0.0575 -0.0580
  125POPC   C4A 1989  -0.630  10.468   7.814 -0.0134  0.4226  0.2829
  125POPC   C1B 1990   0.007   9.788   8.313 -0.0158 -0.0352  0.4407
  125POPC   C2B 1991   0.045   9.575   7.929 -0.1698 -0.2380 -0.4690
  125POPC   C3B 1992  -0.087   9.643   7.552  0.3216  0.1663  0.0989
  125POPC   C4B 1993  -0.034   9.523   7.140  0.0520 -0.3322  0.0233
  126POPC   NC3 1994   8.805   2.613  10.166 -0.0844  0.0706  0.1503
  126POPC   PO4 1995   8.698   2.216   9.996  0.2137  0.0559  0.1446
  126POPC   GL1 1996   8.713   2.449   9.702 -0.1286 -0.2087  0.0120
  126POPC   GL2 1997   8.451   2.234   9.547 -0.0654 -0.1416 -0.0612
  126POPC   C1A 1998   9.001   2.638   9.422 -0.2153  0.1670 -0.1465
  126POPC   D2A 1999   9.205   2.425   9.010 -0.0309  0.1499  0.1165
  126POPC   C3A 2000   9.556   2.235   9.122  0.0016 -0.0554 -0.0509
  126POPC   C4A 2001   9.705   2.060   9.548  0.1305  0.0362 -0.0455
  126POPC   C1B 2002   8.562   2.477   9.197  0.0962 -0.2621  0.0053
  126POPC   C2B 2003   8.770   2.812   9.001 -0.1073 -0.0491 -0.0895
  126POPC   C3B 2004   8.976   3.206   9.021  0.0438 -0.3024 -0.3148
  126POPC   C4B 2005   9.080   3.673   9.027 -0.0191  0.0621 -0.1973
  127POPC   NC3 2006   4.633   4.355   9.390 -0.1162  0.1010  0.0993
  127POPC   PO4 2007   4.555   4.534   8.997  0.1988  0.2055 -0.0668
  127POPC   GL1 2008   4.643   4.668   8.557 -0.0282  0.3620  0.0487
  127POPC   GL2 2009   4.554   4.982   8.533 -0.2814 -0.0048  0.2364
  127POPC   C1A 2010   5.000   4.778   8.301  0.1110 -0.1607  0.0035
  127POPC   D2A 2011   5.194   4.593   8.015 -0.0106  0.1024  0.1573
  127POPC   C3A 2012   5.418   4.172   8.089  0.2027 -0.2735  0.0439
  127POPC   C4A 2013   5.727   3.804   8.198 -0.0798 -0.4481  0.0513
  127POPC   C1B 2014   4.594   4.924   8.099 -0.1337  0.2201  0.0956
  127POPC   C2B 2015   4.807   4.848   7.758  0.4481 -0.1059  0.1069
  127POPC   C3B 2016   4.797   4.779   7.244  0.1148  0.0142 -0.1855
  127POPC   C4B 2017   4.498   4.944   6.915 -0.1428 -0.0403 -0.0931
  128POPC   NC3 2018   7.156   5.991   9.072  0.3232 -0.1434  0.0526
  128POPC   PO4 2019   7.193   5.422   9.172 -0.2806 -0.1573 -0.0528
  128POPC   GL1 2020   7.214   5.535   8.781  0.0551  0.0982 -0.2263
  128POPC   GL2 2021   6.877   5.594   8.783  0.0135  0.2491 -0.1209
  128POPC   C1A 2022   7.373   5.860   8.456  0.1018 -0.0046 -0.1290
  128POPC   D2A 2023   7.632   6.058   8.155 -0.0674 -0.1158 -0.0997
  128POPC   C3A 2024   7.747   5.924   7.817 -0.3016  0.1509 -0.0916
  128POPC   C4A 2025   7.678   5.745   7.360 -0.0686  0.3426 -0.2725
  128POPC   C1B 2026   6.788   5.505   8.307  0.0760 -0.1055 -0.0545
  128POPC   C2B 2027   6.828   5.613   7.832  0.1896  0.4409  0.2647
  128POPC   C3B 2028   6.813   5.291   7.461  0.2304  0.4412  0.0797
  128POPC   C4B 2029   6.803   4.880   7.529  0.1923 -0.0212  0.0665
  129POPC   NC3 2030   5.036   0.547   9.077 -0.0700  0.2527  0.1675
  129POPC   PO4 2031   5.128   0.127   8.940  0.2234 -0.1933 -0.1056
  129POPC   GL1 2032   5.369  -0.135   8.694  0.2220 -0.1297 -0.2065
  129POPC   GL2 2033   5.224  -0.321   8.489  0.0808 -0.1449  0.0600
  129POPC   C1A 2034   5.796   0.009   8.564 -0.1306 -0.1361 -0.1306
  129POPC   D2A 2035   6.239  -0.043   8.284 -0.0830 -0.0454  0.0791
  129POPC   C3A 2036   6.547   0.233   8.274  0.0429 -0.2187 -0.0369
  129POPC   C4A 2037   6.890   0.389   8.550  0.0474 -0.0441  0.1765
  129POPC   C1B 2038   5.598  -0.401   8.202 -0.1702 -0.4267 -0.0852
  129POPC   C2B 2039   5.812  -0.388   7.785 -0.1929  0.2495 -0.1361
  129POPC   C3B 2040   5.930  -0.227   7.377 -0.2132  0.2908 -0.1404
  129POPC   C4B 2041   5.751   0.101   7.108 -0.1038 -0.0809 -0.3135
  130POPC   NC3 2042   7.284   1.533   9.824 -0.2045  0.1501 -0.0690
  130POPC   PO4 2043   7.647   1.803   9.770 -0.2447 -0.0035 -0.1496
  130POPC   GL1 2044   7.988   1.841   9.449 -0.1816 -0.0430  0.0992
  130POPC   GL2 2045   7.800   1.790   9.179 -0.1681 -0.0166 -0.0888
  130POPC   C1A 2046   8.285   1.773   9.057 -0.2620  0.1987 -0.0654
  130POPC   D2A 2047   8.682   1.736   8.817 -0.0104 -0.1155 -0.0745
  130POPC   C3A 2048   9.056   1.933   8.948  0.0904  0.2556 -0.0033
  130POPC   C4A 2049   9.465   1.786   8.917 -0.0657 -0.0449  0.0952
  130POPC   C1B 2050   7.846   1.515   8.768  0.0607  0.0797  0.1080
  130POPC   C2B 2051   8.054   1.438   8.477 -0.0234 -0.0917  0.2730
  130POPC   C3B 2052   8.088   1.397   8.012  0.1968 -0.1294 -0.0328
  130POPC   C4B 2053   8.090   1.220   7.663 -0.3558 -0.2258 -0.0248
  131POPC   NC3 2054   7.001   2.403  10.043 -0.0252  0.0537  0.1255
  131POPC   PO4 2055   7.048   2.011   9.828 -0.2001  0.2730  0.0294
  131POPC   GL1 2056   7.287   1.927   9.456 -0.2416 -0.0583 -0.1381
  131POPC   GL2 2057   7.536   2.131   9.408  0.0535  0.0537  0.2449
  131POPC   C1A 2058   7.329   1.699   9.110  0.1341 -0.0288  0.1582
  131POPC   D2A 2059   7.268   1.500   8.727  0.0284 -0.0637 -0.0391
  131POPC   C3A 2060   7.555   1.601   8.275 -0.2489  0.1972  0.0382
  131POPC   C4A 2061   7.812   1.993   8.197 -0.0857  0.1523 -0.1714
  131POPC   C1B 2062   7.636   2.304   8.981 -0.0283 -0.2928  0.1917
  131POPC   C2B 2063   7.760   2.421   8.568 -0.2396 -0.3321  0.0450
  131POPC   C3B 2064   7.641   2.448   8.113 -0.1249 -0.1916  0.1696
  131POPC   C4B 2065   7.426   2.228   7.824 -0.3830 -0.1724  0.1542
  132POPC   NC3 2066   1.644  10.287   8.897 -0.1216  0.2255  0.1850
  132POPC   PO4 2067   1.272  10.123   9.001  0.0654 -0.2172 -0.1977
  132POPC   GL1 2068   1.227  10.244   8.515  0.1321  0.1883  0.2226
  132POPC   GL2 2069   1.098   9.987   8.476 -0.1300 -0.0785  0.0041
  132POPC   C1A 2070   1.220  10.458   8.241  0.3101  0.0415 -0.4134
  132POPC   D2A 2071   1.055  10.662   7.876  0.5486  0.0077  0.1585
  132POPC   C3A 2072   0.993  10.533   7.397  0.0263 -0.1710 -0.0391
  132POPC   C4A 2073   0.870  10.588   7.025 -0.2597 -0.1146  0.0698
  132POPC   C1B 2074   0.946  10.056   7.939  0.0056  0.0574 -0.1437
  132POPC   C2B 2075   0.739  10.101   7.530  0.2963 -0.1250 -0.1490
  132POPC   C3B 2076   0.566  10.115   7.051 -0.1367  0.0377 -0.1071
  132POPC   C4B 2077   0.273   9.851   6.794 -0.3686  0.3658  0.1184
  133POPC   NC3 2078   9.742   7.775   8.665 -0.2899  0.1807  0.2344
  133POPC   PO4 2079   9.618   7.344   8.487  0.0457  0.2031 -0.0066
  133POPC   GL1 2080   9.639   7.419   8.045  0.0749  0.0499 -0.0258
  133POPC   GL2 2081   9.539   7.693   8.016 -0.0645 -0.1283  0.0833
  133POPC   C1A 2082   9.687   7.542   7.564  0.0416  0.2076  0.0246
  133POPC   D2A 2083  10.020   7.464   7.439  0.2087  0.1099  0.2857
  133POPC   C3A 2084  10.198   7.697   7.068 -0.3193  0.5529 -0.1191
  133POPC   C4A 2085  10.031   7.498   6.639  0.1178  0.1732  0.2845
  133POPC   C1B 2086   9.260   7.807   7.687  0.1833  0.1055  0.2137
  133POPC   C2B 2087   9.252   7.608   7.278 -0.0915 -0.0488 -0.1311
  133POPC   C3B 2088   9.594   7.615   6.879 -0.3736  0.2435 -0.0473
  133POPC   C4B 2089   9.527   7.599   6.504  0.0014  0.1526 -0.1577
  134POPC   NC3 2090   2.518   6.496   8.575 -0.1031  0.0663 -0.1526
  134POPC   PO4 2091   2.678   6.918   8.472 -0.0348 -0.0512  0.2073
  134POPC   GL1 2092   2.409   7.055   8.137 -0.3266  0.0845 -0.1943
  134POPC   GL2 2093   2.263   6.678   8.090 -0.3754 -0.0641  0.0527
  134POPC   C1A 2094   2.550   7.167   7.682  0.0667 -0.0145  0.0200
  134POPC   D2A 2095   2.489   7.566   7.407  0.1498 -0.1883  0.0266
  134POPC   C3A 2096   2.528   7.667   6.924  0.1239  0.2290  0.1282
  134POPC   C4A 2097   2.441   7.639   6.570  0.2094 -0.1697  0.0661
  134POPC   C1B 2098   2.256   6.755   7.652 -0.1118 -0.1272  0.1794
  134POPC   C2B 2099   2.258   6.793   7.207 -0.0003  0.1190 -0.3083
  134POPC   C3B 2100   2.106   6.809   6.734 -0.2284 -0.1334  0.0642
  134POPC   C4B 2101   1.800   6.585   6.433 -0.1470 -0.0119  0.2175
  135POPC   NC3 2102   9.934   5.726   8.349 -0.2745  0.0804 -0.2110
  135POPC   PO4 2103   9.833   5.836   8.706 -0.3898  0.2270  0.0242
  135POPC   GL1 2104   9.466   5.573   8.435  0.0106  0.3450 -0.0612
  135POPC   GL2 2105   9.172   5.580   8.590  0.0227 -0.0849 -0.0048
  135POPC   C1A 2106   9.511   5.437   7.993 -0.2105 -0.0218 -0.1283
  135POPC   D2A 2107   9.786   5.467   7.601  0.3274 -0.0785 -0.1242
  135POPC   C3A 2108   9.724   5.431   7.225 -0.2350 -0.3147  0.0594
  135POPC   C4A 2109   9.650   5.481   6.821  0.3094  0.1389  0.0851
  135POPC   C1B 2110   9.004   5.421   8.242 -0.1097  0.2111  0.0700
  135POPC   C2B 2111   8.766   5.341   7.872  0.0754  0.4485  0.0453
  135POPC   C3B 2112   8.539   5.439   7.505  0.0927 -0.1508 -0.0335
  135POPC   C4B 2113   8.137   5.594   7.642 -0.0671  0.2684  0.2294
  136POPC   NC3 2114   9.633   1.680  10.232 -0.0481  0.0079 -0.2331
  136POPC   PO4 2115   9.818   1.260  10.110  0.0508  0.1538  0.0606
  136POPC   GL1 2116   9.598   1.249   9.710 -0.3498 -0.0246  0.1520
  136POPC   GL2 2117   9.578   1.071   9.448 -0.2442 -0.2687 -0.0891
  136POPC   C1A 2118   9.669   1.560   9.400  0.1347 -0.3532 -0.2029
  136POPC   D2A 2119   9.847   1.415   9.002 -0.0356 -0.2929 -0.0882
  136POPC   C3A 2120   9.629   1.394   8.685  0.1341  0.0172  0.1979
  136POPC   C4A 2121   9.226   1.423   8.731 -0.3675  0.0539 -0.0620
  136POPC   C1B 2122   9.727   0.949   8.991 -0.0092 -0.1027  0.1820
  136POPC   C2B 2123   9.667   0.916   8.519  0.0520 -0.0528 -0.0256
  136POPC   C3B 2124   9.741   0.873   8.101 -0.0525 -0.0195  0.0798
  136POPC   C4B 2125   9.869   0.899   7.652 -0.1545  0.2272 -0.1541
  137POPC   NC3 2126   2.737   6.579   9.062  0.0731  0.1777 -0.2953
  137POPC   PO4 2127   3.015   6.477   8.728 -0.0932  0.3148 -0.3025
  137POPC   GL1 2128   3.135   6.493   8.352  0.1391  0.1823  0.0410
  137POPC   GL2 2129   2.792   6.318   8.163 -0.0698 -0.1033 -0.2644
  137POPC   C1A 2130   3.370   6.664   7.931 -0.0284 -0.1129 -0.2074
  137POPC   D2A 2131   3.727   6.481   7.672 -0.0039 -0.1172 -0.0348
  137POPC   C3A 2132   3.693   6.673   7.289 -0.0875  0.0557 -0.0104
  137POPC   C4A 2133   3.840   6.923   6.888  0.1426 -0.1779  0.0571
  137POPC   C1B 2134   2.704   6.748   7.853  0.2466 -0.0316  0.0551
  137POPC   C2B 2135   2.994   7.071   7.619 -0.3722 -0.2379  0.0279
  137POPC   C3B 2136   2.977   7.468   7.375  0.2421 -0.1350 -0.4604
  137POPC   C4B 2137   3.034   7.849   7.053  0.0454  0.2208  0.1314
  138POPC   NC3 2138   4.181   1.104   8.695 -0.1005 -0.1623 -0.0634
  138POPC   PO4 2139   4.368   1.345   8.435 -0.0612 -0.1869 -0.2116
  138POPC   GL1 2140   4.338   1.451   8.008  0.0566 -0.0448 -0.2413
  138POPC   GL2 2141   4.120   1.196   7.928  0.0981 -0.0335 -0.2753
  138POPC   C1A 2142   4.359   1.520   7.585  0.0667  0.0806 -0.2335
  138POPC   D2A 2143   4.701   1.510   7.330 -0.2531 -0.0554  0.0057
  138POPC   C3A 2144   4.887   1.332   7.014  0.0423  0.0786  0.1207
  138POPC   C4A 2145   5.006   1.560   6.583  0.1276 -0.1020  0.1745
  138POPC   C1B 2146   3.845   1.207   7.556  0.0425  0.1768 -0.1881
  138POPC   C2B 2147   3.527   1.218   7.211  0.2400 -0.0270  0.0556
  138POPC   C3B 2148   3.149   0.926   7.119 -0.0138  0.0881 -0.1492
  138POPC   C4B 2149   2.802   0.979   6.749 -0.1096  0.0618  0.0455
  139POPC   NC3 2150   1.706   3.438   8.940  0.1682  0.1583 -0.0242
  139POPC   PO4 2151   2.042   3.382   8.766 -0.0130  0.0505 -0.0347
  139POPC   GL1 2152   1.820   3.159   8.418 -0.0300  0.0075  0.0337
  139POPC   GL2 2153   1.447   3.158   8.484  0.0289  0.2768  0.3394
  139POPC   C1A 2154   1.798   3.172   7.934  0.1782  0.0182 -0.2410
  139POPC   D2A 2155   1.510   3.320   7.586 -0.2256  0.2159 -0.0138
  139POPC   C3A 2156   1.447   3.072   7.180 -0.0181  0.4069  0.2212
  139POPC   C4A 2157   1.042   3.106   6.832  0.0061 -0.2915 -0.0211
  139POPC   C1B 2158   1.334   3.047   8.043 -0.1358 -0.1394  0.1162
  139POPC   C2B 2159   1.074   3.024   7.658  0.1338  0.1321 -0.1360
  139POPC   C3B 2160   0.945   3.131   7.304 -0.0396  0.0752 -0.5415
  139POPC   C4B 2161   0.791   2.729   7.005  0.4328 -0.2614 -0.3664
  140POPC   NC3 2162   4.394   0.871   8.233 -0.1157  0.0029  0.1367
  140POPC   PO4 2163   4.039   0.705   8.425  0.1216 -0.2436 -0.0480
  140POPC   GL1 2164   4.122   0.466   8.116  0.1090  0.1443 -0.1313
  140POPC   GL2 2165   3.939   0.205   8.192  0.0332  0.2555  0.0693
  140POPC   C1A 2166   4.493   0.390   7.842  0.2433 -0.0890  0.0424
  140POPC   D2A 2167   4.795   0.671   7.825 -0.3026  0.1958 -0.0177
  140POPC   C3A 2168   5.051   0.894   7.390 -0.1707 -0.1249 -0.0131
  140POPC   C4A 2169   5.402   1.133   7.157 -0.1475  0.1961  0.1492
  140POPC   C1B 2170   3.777   0.245   7.738 -0.1366 -0.0086  0.1183
  140POPC   C2B 2171   3.368   0.203   7.775 -0.0117  0.0428  0.3751
  140POPC   C3B 2172   2.912   0.017   7.758 -0.2473  0.1365  0.0144
  140POPC   C4B 2173   2.587  -0.148   7.967  0.0451  0.1356  0.2212
  141POPC   NC3 2174   6.263   0.471   9.410 -0.1098 -0.0008 -0.1025
  141POPC   PO4 2175   6.676   0.382   9.431 -0.0729  0.1421  0.2162
  141POPC   GL1 2176   6.848   0.274   9.055  0.1483  0.0084  0.1167
  141POPC   GL2 2177   6.565   0.179   8.853 -0.2171  0.0314 -0.0607
  141POPC   C1A 2178   7.244   0.118   8.862  0.1705  0.0737 -0.1407
  141POPC   D2A 2179   7.661   0.246   8.876 -0.0203 -0.1824 -0.1021
  141POPC   C3A 2180   8.059   0.335   8.719  0.2648 -0.1910  0.0762
  141POPC   C4A 2181   8.328   0.665   9.016 -0.2685  0.1889  0.0502
  141POPC   C1B 2182   6.835  -0.082   8.641  0.1643 -0.0524 -0.0335
  141POPC   C2B 2183   6.851  -0.197   8.190  0.1211 -0.0799 -0.1257
  141POPC   C3B 2184   6.796  -0.220   7.738 -0.3018 -0.0416 -0.1249
  141POPC   C4B 2185   6.823  -0.527   7.449 -0.2109 -0.1275 -0.1408
  142POPC   NC3 2186   6.706   3.656   8.988 -0.2098  0.1054 -0.2291
  142POPC   PO4 2187   6.896   3.995   8.969  0.0072  0.2680  0.2777
  142POPC   GL1 2188   7.207   3.921   8.636  0.0203  0.0275  0.0375
  142POPC   GL2 2189   7.091   4.037   8.415 -0.2732 -0.3161  0.1520
  142POPC   C1A 2190   7.687   3.686   8.551 -0.1838 -0.1205 -0.3113
  142POPC   D2A 2191   8.070   3.600   8.328 -0.1500  0.0659 -0.1950
  142POPC   C3A 2192   8.387   4.026   8.463  0.0930 -0.0898  0.0373
  142POPC   C4A 2193   8.383   4.463   8.765 -0.0891  0.0002 -0.0104
  142POPC   C1B 2194   7.551   4.174   8.157  0.2229 -0.0564 -0.1601
  142POPC   C2B 2195   7.855   3.984   7.909  0.2046  0.0591  0.2740
  142POPC   C3B 2196   8.203   3.781   7.847  0.3315  0.2783  0.1407
  142POPC   C4B 2197   8.526   3.753   8.042  0.0926  0.1488  0.0895
  143POPC   NC3 2198   4.732   3.661   8.922  0.1993  0.2154  0.0377
  143POPC   PO4 2199   4.530   3.690   8.628 -0.0830 -0.0320  0.1760
  143POPC   GL1 2200   4.625   3.874   8.242 -0.2162  0.0546 -0.0391
  143POPC   GL2 2201   4.876   4.039   8.222  0.3528  0.3653 -0.4334
  143POPC   C1A 2202   4.714   3.709   7.859 -0.0788  0.2537  0.1375
  143POPC   D2A 2203   5.060   3.658   7.571  0.0522  0.2396 -0.0086
  143POPC   C3A 2204   5.116   3.411   7.253  0.0959  0.4108 -0.0090
  143POPC   C4A 2205   4.841   3.218   6.983  0.5117  0.2521  0.0507
  143POPC   C1B 2206   4.957   4.115   7.776  0.1131  0.1241  0.1129
  143POPC   C2B 2207   5.317   4.162   7.565  0.0174  0.2801  0.3231
  143POPC   C3B 2208   5.597   4.314   7.259  0.1604 -0.3110  0.0974
  143POPC   C4B 2209   6.058   4.511   7.172  0.1979 -0.0809  0.1151
  144POPC   NC3 2210   0.208   3.885   9.412 -0.0022 -0.0578  0.0656
  144POPC   PO4 2211  -0.063   4.096   9.025 -0.3040  0.2232 -0.1106
  144POPC   GL1 2212   0.054   3.597   8.911 -0.2863 -0.1632  0.0370
  144POPC   GL2 2213   0.241   3.672   8.598  0.1457  0.0387 -0.0038
  144POPC   C1A 2214  -0.143   3.200   8.860 -0.1700 -0.0370  0.1635
  144POPC   D2A 2215  -0.156   2.984   8.541  0.0202  0.2321 -0.2434
  144POPC   C3A 2216  -0.058   3.247   8.302  0.5361 -0.3158  0.1344
  144POPC   C4A 2217  -0.220   3.436   7.848 -0.1097  0.1560  0.2913
  144POPC   C1B 2218   0.349   3.271   8.688  0.3702 -0.0713  0.2351
  144POPC   C2B 2219   0.264   2.864   8.828  0.2239  0.2701 -0.0465
  144POPC   C3B 2220   0.233   2.409   8.735 -0.0787  0.0183 -0.0185
  144POPC   C4B 2221   0.434   2.108   8.562 -0.2827 -0.0872 -0.0635
  145POPC   NC3 2222   6.564   5.230   9.140 -0.0485 -0.1907 -0.0214
  145POPC   PO4 2223   6.262   5.525   9.005 -0.0740 -0.1457  0.0959
  145POPC   GL1 2224   6.407   5.292   8.652  0.0651 -0.1195  0.0319
  145POPC   GL2 2225   6.268   5.533   8.440 -0.0201 -0.3619  0.0469
  145POPC   C1A 2226   6.497   5.109   8.281  0.0691  0.0615  0.0283
  145POPC   D2A 2227   6.476   5.159   7.818 -0.2706 -0.0193  0.0337
  145POPC   C3A 2228   6.289   4.838   7.595 -0.0505 -0.1468 -0.1479
  145POPC   C4A 2229   6.232   4.285   7.571  0.2304 -0.0064 -0.3320
  145POPC   C1B 2230   6.231   5.651   8.045  0.0419 -0.2002  0.3320
  145POPC   C2B 2231   6.473   5.777   7.618  0.0920  0.3422  0.2670
  145POPC   C3B 2232   6.619   5.699   7.213  0.2882  0.0517  0.0175
  145POPC   C4B 2233   7.026   5.615   7.166  0.2868 -0.0371 -0.1385
  146POPC   NC3 2234   4.729   7.329   8.925 -0.1183  0.2694 -0.4235
  146POPC   PO4 2235   5.202   7.374   8.941 -0.0628  0.2488  0.1031
  146POPC   GL1 2236   5.122   7.021   8.751  0.1392  0.0375  0.0691
  146POPC   GL2 2237   4.844   6.994   8.507  0.4345  0.2846 -0.1013
  146POPC   C1A 2238   5.178   6.577   8.499 -0.3134  0.2651  0.2235
  146POPC   D2A 2239   5.068   6.484   8.071  0.2102  0.1535  0.1742
  146POPC   C3A 2240   5.051   6.115   7.788  0.1743 -0.1426  0.3170
  146POPC   C4A 2241   5.072   5.661   7.665 -0.0865 -0.3435  0.0889
  146POPC   C1B 2242   5.086   6.994   8.251 -0.1650  0.1217  0.5259
  146POPC   C2B 2243   5.384   6.860   7.931  0.2004  0.2660 -0.1138
  146POPC   C3B 2244   5.637   6.892   7.502 -0.3058  0.0926 -0.0119
  146POPC   C4B 2245   5.594   6.816   6.989 -0.0488  0.2911  0.0863
  147POPC   NC3 2246   1.750   2.366   8.962 -0.0575 -0.1128 -0.3649
  147POPC   PO4 2247   1.451   1.937   8.882  0.0423  0.1776 -0.0694
  147POPC   GL1 2248   1.520   2.208   8.473  0.0666  0.1569  0.3920
  147POPC   GL2 2249   1.804   2.415   8.479  0.0372  0.0147 -0.1185
  147POPC   C1A 2250   1.429   2.279   7.964  0.0890  0.0028 -0.3174
  147POPC   D2A 2251   1.068   2.308   7.716 -0.0754  0.0426  0.1165
  147POPC   C3A 2252   0.846   2.372   7.371  0.0703 -0.2753  0.0952
  147POPC   C4A 2253   0.454   2.318   7.256 -0.2501  0.1213  0.0556
  147POPC   C1B 2254   1.686   2.695   8.186 -0.0733  0.0314  0.1543
  147POPC   C2B 2255   1.712   2.642   7.762  0.1724  0.0891  0.1610
  147POPC   C3B 2256   1.400   2.625   7.427  0.3247 -0.1049  0.1006
  147POPC   C4B 2257   1.297   2.687   6.926 -0.0989 -0.1293 -0.2191
  148POPC   NC3 2258   4.197   3.296   8.687 -0.1660 -0.2810 -0.0255
  148POPC   PO4 2259   3.862   3.025   8.859 -0.1764 -0.2170 -0.1272
  148POPC   GL1 2260   3.760   3.064   8.411  0.0931 -0.0800  0.1963
  148POPC   GL2 2261   3.923   3.173   8.256 -0.0646  0.0618  0.1769
  148POPC   C1A 2262   3.930   2.644   8.153  0.4177 -0.1674  0.0294
  148POPC   D2A 2263   3.664   2.261   8.051  0.4912  0.2082  0.3631
  148POPC   C3A 2264   3.663   2.221   7.661 -0.4040  0.0522 -0.1971
  148POPC   C4A 2265   3.409   2.334   7.354 -0.3569 -0.3327 -0.1706
  148POPC   C1B 2266   3.882   3.105   7.873 -0.0785 -0.2777  0.0271
  148POPC   C2B 2267   3.573   3.232   7.685 -0.2116 -0.3149 -0.5774
  148POPC   C3B 2268   3.216   3.606   7.650 -0.0852  0.2701  0.0652
  148POPC   C4B 2269   2.986   3.926   7.848 -0.1160 -0.1835 -0.0862
  149POPC   NC3 2270   9.718   9.783   9.273 -0.0177 -0.0753 -0.2118
  149POPC   PO4 2271   9.403   9.585   9.188 -0.1270 -0.0130 -0.0822
  149POPC   GL1 2272   9.237   9.639   8.714  0.3010 -0.1126  0.2519
  149POPC   GL2 2273   9.344   9.344   8.576 -0.1321  0.0316  0.1485
  149POPC   C1A 2274   9.109  10.060   8.586 -0.0801  0.1958 -0.0255
  149POPC   D2A 2275   9.024  10.434   8.736  0.1912  0.0078 -0.0850
  149POPC   C3A 2276   8.979  10.945   8.793  0.1442 -0.1537  0.1178
  149POPC   C4A 2277   9.248  11.360   8.737 -0.1009 -0.2462  0.4240
  149POPC   C1B 2278   9.265   9.632   8.233 -0.2059 -0.0637  0.1225
  149POPC   C2B 2279   9.277   9.709   7.840 -0.1008 -0.1584 -0.2609
  149POPC   C3B 2280   9.237   9.792   7.392 -0.0120 -0.0451  0.0208
  149POPC   C4B 2281   9.346   9.813   6.910  0.1607 -0.3394  0.0952
  150POPC   NC3 2282   4.001   9.146   8.562 -0.3145 -0.1199  0.1560
  150POPC   PO4 2283   4.159   8.619   8.639  0.2353  0.0806 -0.3983
  150POPC   GL1 2284   4.346   8.341   8.276 -0.1446 -0.2803  0.0193
  150POPC   GL2 2285   4.529   8.594   8.153 -0.0419  0.1600  0.2414
  150POPC   C1A 2286   4.280   7.941   7.976 -0.0844  0.0863 -0.3583
  150POPC   D2A 2287   4.138   7.608   7.765 -0.0318  0.0482  0.0250
  150POPC   C3A 2288   4.309   7.564   7.349  0.0178 -0.1776 -0.0839
  150POPC   C4A 2289   4.253   7.859   7.007  0.4387 -0.2771 -0.1105
  150POPC   C1B 2290   4.733   8.672   7.819 -0.1274 -0.0366  0.3613
  150POPC   C2B 2291   4.766   8.814   7.398  0.0020 -0.1689  0.3733
  150POPC   C3B 2292   4.744   8.874   6.873 -0.0809 -0.0295  0.1003
  150POPC   C4B 2293   4.959   9.123   6.541  0.3428  0.1023  0.2212
  151POPC   NC3 2294   4.309   1.808   9.151 -0.1672 -0.1167 -0.5761
  151POPC   PO4 2295   4.026   2.133   8.830 -0.1081  0.2827  0.1314
  151POPC   GL1 2296   4.156   2.203   8.506  0.1111  0.3088 -0.1339
  151POPC   GL2 2297   4.001   1.898   8.280 -0.1329 -0.0841  0.0442
  151POPC   C1A 2298   4.274   2.387   8.260 -0.1600 -0.2185 -0.2352
  151POPC   D2A 2299   4.284   2.444   7.860 -0.2377 -0.1439  0.2003
  151POPC   C3A 2300   4.621   2.453   7.481  0.1777  0.0938 -0.1515
  151POPC   C4A 2301   4.679   2.715   7.141 -0.2839 -0.1438 -0.2072
  151POPC   C1B 2302   4.195   1.954   7.951  0.3224 -0.0433  0.1845
  151POPC   C2B 2303   4.194   2.068   7.541  0.1347 -0.2131 -0.3727
  151POPC   C3B 2304   4.435   1.966   7.237  0.0348 -0.0092  0.1522
  151POPC   C4B 2305   4.774   1.824   6.959  0.0148  0.1060 -0.1356
  152POPC   NC3 2306   5.359   5.551   8.869  0.2105 -0.2327  0.0857
  152POPC   PO4 2307   5.422   5.218   9.138  0.0855 -0.1283 -0.1054
  152POPC   GL1 2308   5.475   5.085   8.704  0.2629  0.1248 -0.0463
  152POPC   GL2 2309   5.697   4.771   8.650  0.0345  0.0263  0.2037
  152POPC   C1A 2310   5.409   5.119   8.262  0.1384  0.0836 -0.0837
  152POPC   D2A 2311   5.415   5.048   7.762  0.0466  0.0885  0.3338
  152POPC   C3A 2312   5.251   4.674   7.525  0.1053  0.0130 -0.1411
  152POPC   C4A 2313   5.166   4.481   7.148 -0.0069 -0.1769  0.0397
  152POPC   C1B 2314   5.948   5.043   8.347 -0.2070  0.0541  0.1251
  152POPC   C2B 2315   5.940   5.042   7.820  0.0057  0.0080 -0.0887
  152POPC   C3B 2316   5.756   5.018   7.376 -0.1415  0.1060 -0.0586
  152POPC   C4B 2317   5.372   5.004   7.120 -0.3227 -0.0921 -0.2849
  153POPC   NC3 2318   6.404   4.057   8.973  0.4288  0.0971 -0.0147
  153POPC   PO4 2319   6.670   3.806   8.532 -0.2276 -0.3586 -0.3315
  153POPC   GL1 2320   6.825   3.370   8.578  0.0041  0.0379  0.2990
  153POPC   GL2 2321   6.562   3.274   8.350  0.3948 -0.0316 -0.0702
  153POPC   C1A 2322   6.978   2.990   8.419  0.2201  0.1551 -0.2460
  153POPC   D2A 2323   6.825   2.865   7.968 -0.0308  0.0234  0.2744
  153POPC   C3A 2324   6.963   2.435   7.919  0.0391  0.2929 -0.1448
  153POPC   C4A 2325   6.915   2.016   7.688  0.0507 -0.2898  0.0895
  153POPC   C1B 2326   6.912   3.499   7.993  0.2137 -0.1746  0.1543
  153POPC   C2B 2327   6.998   3.881   7.900  0.2088  0.1191 -0.0190
  153POPC   C3B 2328   7.092   4.455   7.947 -0.2374 -0.0903 -0.1210
  153POPC   C4B 2329   6.799   4.790   8.034  0.1232  0.2505 -0.0363
  154POPC   NC3 2330   9.658   8.451   8.520  0.0249  0.0235 -0.0885
  154POPC   PO4 2331   9.436   8.065   8.362 -0.0424  0.2280 -0.4099
  154POPC   GL1 2332   9.493   8.183   7.979  0.2028 -0.1728  0.0822
  154POPC   GL2 2333   9.869   8.201   7.860 -0.0000  0.0854  0.2975
  154POPC   C1A 2334   9.452   8.544   7.657  0.1295  0.0438 -0.3291
  154POPC   D2A 2335   9.580   8.588   7.279 -0.1317 -0.2049  0.2339
  154POPC   C3A 2336   9.533   8.954   7.072  0.0965  0.2429  0.3673
  154POPC   C4A 2337   9.365   9.359   7.164  0.1530 -0.1657  0.1651
  154POPC   C1B 2338   9.975   7.916   7.708 -0.2426  0.2092 -0.2802
  154POPC   C2B 2339  10.159   8.043   7.404 -0.3534  0.0656 -0.2181
  154POPC   C3B 2340  10.451   8.358   7.245 -0.0530 -0.1074  0.1482
  154POPC   C4B 2341  10.431   8.643   7.045 -0.1973 -0.0309  0.0354
  155POPC   NC3 2342  10.241   3.233   9.888 -0.1521 -0.1726  0.0606
  155POPC   PO4 2343  10.599   3.043   9.670 -0.2422  0.1655  0.1588
  155POPC   GL1 2344  10.411   2.840   9.297 -0.0596  0.2443 -0.2352
  155POPC   GL2 2345  10.202   2.892   9.347  0.0360 -0.0161  0.0570
  155POPC   C1A 2346  10.432   2.400   9.307  0.1165  0.0263 -0.1068
  155POPC   D2A 2347  10.244   1.993   9.402 -0.3496 -0.2621 -0.0960
  155POPC   C3A 2348   9.956   1.890   9.095  0.0363 -0.0272  0.0763
  155POPC   C4A 2349  10.086   1.667   8.624  0.1445 -0.0802  0.0287
  155POPC   C1B 2350   9.874   3.121   9.219  0.0498  0.1153  0.0746
  155POPC   C2B 2351   9.852   3.121   8.784  0.0852  0.4930  0.0175
  155POPC   C3B 2352   9.480   3.100   8.612  0.1049  0.0890 -0.0774
  155POPC   C4B 2353   9.299   2.697   8.577  0.0030  0.1374  0.1809
  156POPC   NC3 2354   6.034   1.011   8.640 -0.0581  0.0365 -0.2530
  156POPC   PO4 2355   5.765   0.870   8.920  0.0203  0.0524  0.1108
  156POPC   GL1 2356   5.690   0.872   8.333 -0.0643  0.0673 -0.2023
  156POPC   GL2 2357   5.484   0.631   8.168  0.2737  0.2401  0.0757
  156POPC   C1A 2358   5.874   0.955   7.833 -0.0266 -0.2861  0.2981
  156POPC   D2A 2359   5.668   0.816   7.410 -0.2519  0.2027 -0.4010
  156POPC   C3A 2360   5.908   0.556   7.213  0.0878  0.2511  0.0941
  156POPC   C4A 2361   5.992   0.514   6.746  0.0491  0.3093  0.0978
  156POPC   C1B 2362   5.316   0.510   7.776 -0.3032  0.0945  0.0344
  156POPC   C2B 2363   5.358   0.451   7.335  0.1576 -0.1830 -0.2624
  156POPC   C3B 2364   5.217   0.366   6.877 -0.3054  0.1384 -0.0440
  156POPC   C4B 2365   5.583   0.136   6.636  0.1945  0.1072  0.1780
  157POPC   NC3 2366   9.002   5.504   9.441  0.3956  0.0173  0.0401
  157POPC   PO4 2367   9.165   5.185   9.212  0.2063 -0.0111  0.0773
  157POPC   GL1 2368   9.024   5.135   8.897 -0.0745  0.3286  0.2856
  157POPC   GL2 2369   9.287   5.035   8.678  0.0064  0.1310 -0.1458
  157POPC   C1A 2370   8.668   5.092   8.595  0.0758 -0.0017 -0.2831
  157POPC   D2A 2371   8.581   5.108   8.239 -0.0416  0.2981  0.0358
  157POPC   C3A 2372   8.304   5.223   7.981  0.0122 -0.0035  0.0659
  157POPC   C4A 2373   8.113   5.092   7.540  0.1443  0.1024  0.4861
  157POPC   C1B 2374   9.221   4.969   8.287 -0.1488  0.1796 -0.0008
  157POPC   C2B 2375   9.185   5.146   7.822  0.1301  0.2040  0.0862
  157POPC   C3B 2376   9.216   5.417   7.407 -0.0633  0.1636  0.1919
  157POPC   C4B 2377   8.856   5.466   7.113  0.2961 -0.0921 -0.0678
  158POPC   NC3 2378   7.308   9.037   9.672  0.0263  0.1679  0.2621
  158POPC   PO4 2379   7.355   9.364   9.323  0.2486  0.1386 -0.2076
  158POPC   GL1 2380   7.487   9.766   9.019  0.0120 -0.1114 -0.0464
  158POPC   GL2 2381   7.161   9.753   8.855  0.3285 -0.0359  0.1354
  158POPC   C1A 2382   7.560  10.150   8.780 -0.4525 -0.1248 -0.0401
  158POPC   D2A 2383   7.714  10.157   8.426 -0.1773 -0.0740 -0.0543
  158POPC   C3A 2384   7.787  10.315   7.947 -0.2779  0.1916 -0.1453
  158POPC   C4A 2385   8.137  10.468   7.752 -0.0670 -0.0032  0.3930
  158POPC   C1B 2386   7.174  10.048   8.514  0.0134 -0.1792  0.0311
  158POPC   C2B 2387   7.316  10.418   8.308  0.0514 -0.0436  0.1223
  158POPC   C3B 2388   7.697  10.655   8.376 -0.5423 -0.2933 -0.0903
  158POPC   C4B 2389   7.730  11.150   8.318 -0.1857  0.2911  0.1034
  159POPC   NC3 2390   7.968   2.289   9.742  0.0065  0.2894  0.0856
  159POPC   PO4 2391   8.281   2.694   9.864 -0.1356  0.0578 -0.2199
  159POPC   GL1 2392   8.031   2.694   9.486 -0.0407 -0.0622 -0.0150
  159POPC   GL2 2393   7.749   2.581   9.439  0.0108 -0.1451  0.0506
  159POPC   C1A 2394   8.107   2.941   9.177 -0.4587  0.0095 -0.0137
  159POPC   D2A 2395   7.861   3.225   9.060 -0.3000 -0.1482  0.1290
  159POPC   C3A 2396   7.986   3.054   8.554 -0.0346  0.1651 -0.3465
  159POPC   C4A 2397   8.089   2.786   8.175  0.4463 -0.1200 -0.1711
  159POPC   C1B 2398   8.088   2.435   9.075  0.2505 -0.0378 -0.4726
  159POPC   C2B 2399   8.247   2.613   8.684  0.2071 -0.3679  0.1112
  159POPC   C3B 2400   8.448   2.868   8.576  0.3202 -0.0965 -0.0191
  159POPC   C4B 2401   8.546   3.291   8.337  0.0915  0.1124  0.1213
  160POPC   NC3 2402   9.022   7.269   8.876 -0.1893  0.0665 -0.0300
  160POPC   PO4 2403   9.163   6.992   8.636  0.1285  0.3605  0.2224
  160POPC   GL1 2404   8.969   6.882   8.113  0.0525 -0.1187 -0.0225
  160POPC   GL2 2405   9.108   6.737   7.937 -0.2689  0.0557  0.0278
  160POPC   C1A 2406   8.695   7.126   7.911  0.1902  0.1901  0.3395
  160POPC   D2A 2407   8.735   7.369   7.539 -0.0135  0.0082  0.2418
  160POPC   C3A 2408   8.768   7.329   7.168 -0.2004 -0.1259  0.0550
  160POPC   C4A 2409   8.995   7.566   6.875 -0.0215  0.0588 -0.2238
  160POPC   C1B 2410   8.967   6.754   7.487  0.1592  0.2031 -0.1453
  160POPC   C2B 2411   8.875   6.852   7.110  0.0974 -0.2009 -0.1343
  160POPC   C3B 2412   8.877   7.087   6.752  0.1805  0.1898 -0.4357
  160POPC   C4B 2413   9.032   7.381   6.382 -0.2574 -0.0918 -0.2064
  161POPC   NC3 2414   2.535   7.351   8.645  0.0742 -0.0545 -0.0075
  161POPC   PO4 2415   2.573   7.885   8.589  0.1336  0.1464 -0.0449
  161POPC   GL1 2416   2.670   8.043   8.165  0.0108  0.2158 -0.0253
  161POPC   GL2 2417   2.855   8.042   7.872 -0.0444 -0.1908  0.0070
  161POPC   C1A 2418   2.391   8.150   7.881  0.0998 -0.0404  0.3519
  161POPC   D2A 2419   2.371   8.083   7.460 -0.1509  0.0213  0.1088
  161POPC   C3A 2420   2.160   8.386   7.255  0.0641 -0.3319 -0.2233
  161POPC   C4A 2421   2.137   8.810   7.073  0.0234  0.0779  0.0120
  161POPC   C1B 2422   3.029   7.915   7.606  0.0345 -0.1431 -0.2392
  161POPC   C2B 2423   3.395   7.823   7.420  0.1235 -0.0958 -0.0380
  161POPC   C3B 2424   3.414   8.152   7.146 -0.3176 -0.0114 -0.0097
  161POPC   C4B 2425   3.451   8.407   6.745  0.0603 -0.3349  0.1879
  162POPC   NC3 2426   2.366  10.104   9.028  0.0684 -0.0617  0.0887
  162POPC   PO4 2427   2.110  10.441   8.938  0.1204  0.1289 -0.0713
  162POPC   GL1 2428   1.836  10.355   8.474 -0.0861 -0.0907 -0.0682
  162POPC   GL2 2429   1.666  10.603   8.300 -0.1556  0.2303  0.1686
  162POPC   C1A 2430   1.820  10.148   8.102 -0.0746 -0.0574 -0.2543
  162POPC   D2A 2431   2.031  10.171   7.734 -0.1015 -0.1509  0.0286
  162POPC   C3A 2432   1.760  10.143   7.401 -0.0376  0.1523  0.0913
  162POPC   C4A 2433   1.488  10.369   7.252 -0.0026 -0.0656  0.4016
  162POPC   C1B 2434   1.297  10.939   8.225  0.3679 -0.0610  0.1971
  162POPC   C2B 2435   1.099  11.167   7.878  0.1379 -0.0090  0.0479
  162POPC   C3B 2436   0.791  11.021   7.594  0.1202 -0.3100 -0.1890
  162POPC   C4B 2437   0.679  11.061   7.229  0.2603 -0.1556 -0.0117
  163POPC   NC3 2438   1.773   6.309   8.981  0.3842  0.0733  0.0152
  163POPC   PO4 2439   2.013   6.446   8.634 -0.2767  0.0334 -0.2163
  163POPC   GL1 2440   1.967   6.327   8.249 -0.1518 -0.0094 -0.1157
  163POPC   GL2 2441   1.572   6.250   8.212 -0.1773 -0.0266 -0.4056
  163POPC   C1A 2442   2.094   6.253   7.869  0.0412 -0.1176  0.0813
  163POPC   D2A 2443   1.959   6.404   7.470 -0.0150  0.0241  0.1421
  163POPC   C3A 2444   1.879   6.066   7.249  0.2467 -0.0879  0.1003
  163POPC   C4A 2445   1.841   5.581   7.134  0.3622 -0.1654 -0.0059
  163POPC   C1B 2446   1.591   6.199   7.845  0.3379 -0.0469 -0.2634
  163POPC   C2B 2447   1.288   6.142   7.508  0.1089 -0.2229 -0.1091
  163POPC   C3B 2448   0.963   5.918   7.416  0.0271 -0.0816  0.1303
  163POPC   C4B 2449   0.841   5.736   6.993  0.1955  0.3179 -0.0818
  164POPC   NC3 2450   6.455   7.054   8.997 -0.0808  0.1036 -0.1648
  164POPC   PO4 2451   6.000   6.942   8.987  0.1700  0.1985 -0.0963
  164POPC   GL1 2452   5.718   7.128   8.728  0.0243  0.2086 -0.1167
  164POPC   GL2 2453   5.458   7.292   8.536 -0.0229  0.1187 -0.0180
  164POPC   C1A 2454   5.766   7.141   8.192 -0.0251 -0.0523 -0.2751
  164POPC   D2A 2455   5.993   7.106   7.821  0.1190  0.0487  0.1200
  164POPC   C3A 2456   6.101   7.178   7.477 -0.1006  0.0360  0.1385
  164POPC   C4A 2457   6.084   7.005   6.996  0.0469  0.0694  0.0018
  164POPC   C1B 2458   5.277   7.397   8.038 -0.1709  0.1346 -0.2618
  164POPC   C2B 2459   5.073   7.192   7.719  0.0936 -0.2525  0.1513
  164POPC   C3B 2460   5.165   6.962   7.372 -0.2363  0.0446  0.2580
  164POPC   C4B 2461   5.135   6.644   7.122  0.1022  0.0888  0.1045
  165POPC   NC3 2462   3.626   2.109   8.518  0.0617 -0.0153  0.0730
  165POPC   PO4 2463   3.490   1.815   8.264  0.0711 -0.1600  0.0857
  165POPC   GL1 2464   3.358   1.847   7.876  0.2327 -0.2255 -0.1163
  165POPC   GL2 2465   3.019   1.816   8.103 -0.2411  0.0049  0.1753
  165POPC   C1A 2466   3.490   1.729   7.379 -0.0622  0.0341 -0.0880
  165POPC   D2A 2467   3.570   1.887   7.042 -0.2406 -0.0422  0.0968
  165POPC   C3A 2468   3.833   2.116   7.018 -0.0504  0.3170 -0.1119
  165POPC   C4A 2469   4.254   2.152   6.829  0.2173 -0.1365  0.0655
  165POPC   C1B 2470   2.746   1.611   7.822 -0.0574 -0.1245  0.1468
  165POPC   C2B 2471   2.508   1.645   7.453 -0.0830 -0.0361 -0.0807
  165POPC   C3B 2472   2.571   1.404   7.014  0.0248  0.0484 -0.2387
  165POPC   C4B 2473   2.395   1.257   6.594 -0.1442 -0.0292  0.2519
  166POPC   NC3 2474   1.961   1.375   9.378  0.1785 -0.1774  0.1635
  166POPC   PO4 2475   1.752   1.496   8.913  0.1713  0.0218 -0.1267
  166POPC   GL1 2476   1.859   1.376   8.555 -0.0244 -0.2424 -0.5841
  166POPC   GL2 2477   1.981   1.045   8.508  0.1194 -0.0758  0.0307
  166POPC   C1A 2478   1.655   1.476   8.132  0.1091 -0.0503 -0.0341
  166POPC   D2A 2479   1.763   1.450   7.663 -0.0434  0.0423  0.4888
  166POPC   C3A 2480   1.526   1.522   7.304  0.2505  0.0104 -0.1067
  166POPC   C4A 2481   1.461   1.657   6.881 -0.1407 -0.3934 -0.1288
  166POPC   C1B 2482   1.581   1.015   8.217  0.0837 -0.1269 -0.1784
  166POPC   C2B 2483   1.557   1.039   7.771 -0.2373 -0.0361 -0.0247
  166POPC   C3B 2484   1.501   0.920   7.426 -0.1648  0.2367  0.0779
  166POPC   C4B 2485   1.727   0.599   7.238 -0.1877  0.2240 -0.0928
  167POPC   NC3 2486  10.260   0.111   9.565  0.0401 -0.1013 -0.0187
  167POPC   PO4 2487  10.560   0.310   9.452  0.0678 -0.0948 -0.2610
  167POPC   GL1 2488  10.444   0.472   9.160 -0.2083 -0.1980 -0.0580
  167POPC   GL2 2489  10.147   0.609   9.177 -0.0078  0.1575 -0.3718
  167POPC   C1A 2490  10.546   0.681   8.721  0.1749 -0.1838  0.3007
  167POPC   D2A 2491  10.678   0.708   8.268  0.1048 -0.1011  0.0806
  167POPC   C3A 2492  10.715   1.022   7.871  0.0746  0.2860  0.1408
  167POPC   C4A 2493  10.824   0.917   7.419  0.0872  0.1923  0.2016
  167POPC   C1B 2494  10.061   0.581   8.842 -0.0567 -0.2141 -0.0851
  167POPC   C2B 2495  10.144   0.689   8.470  0.1268  0.0867 -0.0038
  167POPC   C3B 2496  10.311   0.419   8.023 -0.2061  0.2148  0.1253
  167POPC   C4B 2497  10.195   0.296   7.541  0.3063  0.2025 -0.2823
  168POPC   NC3 2498   2.497   4.130   4.939  0.0119  0.0862 -0.1512
  168POPC   PO4 2499   2.040   4.239   5.085  0.3113 -0.2768  0.1148
  168POPC   GL1 2500   1.755   4.247   5.437  0.2900  0.1193 -0.2705
  168POPC   GL2 2501   1.420   4.290   5.403  0.0122 -0.0324 -0.1964
  168POPC   C1A 2502   1.649   4.484   5.796 -0.0170 -0.4377  0.0237
  168POPC   D2A 2503   1.497   4.605   6.273 -0.2855  0.0959  0.3264
  168POPC   C3A 2504   1.632   4.348   6.566 -0.0012 -0.2193 -0.2910
  168POPC   C4A 2505   1.729   3.951   6.398 -0.1548 -0.1079 -0.2053
  168POPC   C1B 2506   1.207   4.285   5.822 -0.2116 -0.2145  0.2380
  168POPC   C2B 2507   1.243   4.152   6.253 -0.1158 -0.0474  0.0384
  168POPC   C3B 2508   1.294   3.972   6.647  0.0608  0.1610 -0.2104
  168POPC   C4B 2509   1.326   3.509   6.903 -0.2500 -0.1075 -0.2542
  169POPC   NC3 2510   1.401   5.382   4.969  0.0517  0.0891 -0.0588
  169POPC   PO4 2511   1.111   5.772   5.149 -0.0406 -0.0660 -0.0157
  169POPC   GL1 2512   1.072   5.702   5.560  0.4088  0.2553  0.5176
  169POPC   GL2 2513   1.242   5.378   5.462  0.5282  0.0483  0.2894
  169POPC   C1A 2514   1.165   5.564   5.961  0.2887  0.0593 -0.0043
  169POPC   D2A 2515   1.216   5.413   6.374  0.1330 -0.1521 -0.2296
  169POPC   C3A 2516   0.792   5.186   6.554  0.2442  0.0872 -0.1808
  169POPC   C4A 2517   0.490   5.113   6.852 -0.0788  0.1302 -0.2576
  169POPC   C1B 2518   1.576   5.306   5.717 -0.1789 -0.0772  0.3539
  169POPC   C2B 2519   1.583   5.148   6.167  0.1692 -0.2206  0.1613
  169POPC   C3B 2520   1.905   4.850   6.333  0.2448 -0.1565 -0.1511
  169POPC   C4B 2521   2.282   4.733   6.594 -0.0321  0.1030  0.1912
  170POPC   NC3 2522   6.684   3.457   3.648 -0.2260  0.1304 -0.1259
  170POPC   PO4 2523   6.796   3.446   4.200  0.0364 -0.2012 -0.1669
  170POPC   GL1 2524   7.076   3.453   4.525 -0.0202 -0.0428  0.0077
  170POPC   GL2 2525   6.969   3.499   4.824  0.2133  0.3576  0.1404
  170POPC   C1A 2526   7.393   3.251   4.718  0.1655 -0.2644  0.1030
  170POPC   D2A 2527   7.705   2.964   4.951  0.0095  0.1341  0.2062
  170POPC   C3A 2528   7.773   3.213   5.221  0.2046 -0.1524 -0.2780
  170POPC   C4A 2529   7.846   3.625   5.381 -0.2188  0.0898 -0.2452
  170POPC   C1B 2530   6.674   3.429   5.140  0.1102 -0.2332  0.4569
  170POPC   C2B 2531   6.695   3.210   5.560 -0.0311 -0.3502  0.2548
  170POPC   C3B 2532   6.693   2.767   5.772  0.0809 -0.1186 -0.0994
  170POPC   C4B 2533   6.957   2.515   6.001  0.1025 -0.0805  0.2880
  171POPC   NC3 2534   2.801   9.403   4.581  0.3390 -0.0095  0.1961
  171POPC   PO4 2535   2.424   9.637   4.696  0.1417 -0.1711  0.0122
  171POPC   GL1 2536   2.470   9.499   5.114  0.0919 -0.1551  0.0516
  171POPC   GL2 2537   2.361   9.226   5.136 -0.1624  0.0838  0.2415
  171POPC   C1A 2538   2.486   9.602   5.544 -0.1245  0.0625 -0.2547
  171POPC   D2A 2539   2.364   9.547   5.977 -0.0262 -0.0276 -0.0957
  171POPC   C3A 2540   2.431   9.805   6.147  0.1001 -0.0950  0.0400
  171POPC   C4A 2541   2.336  10.013   6.458  0.1387 -0.1264  0.1106
  171POPC   C1B 2542   2.083   9.285   5.544  0.0432 -0.2154  0.0838
  171POPC   C2B 2543   1.941   9.230   5.936  0.0469 -0.1495 -0.0567
  171POPC   C3B 2544   2.090   9.045   6.264 -0.2294 -0.2343 -0.0912
  171POPC   C4B 2545   2.010   8.697   6.623 -0.0696  0.2040 -0.2665
  172POPC   NC3 2546   3.666   3.704   5.321 -0.0239  0.0721  0.1059
  172POPC   PO4 2547   4.078   3.470   5.494  0.0361  0.1648  0.0546
  172POPC   GL1 2548   4.225   3.417   5.886  0.1367  0.2234 -0.2275
  172POPC   GL2 2549   4.577   3.529   5.857 -0.0775  0.0805  0.0504
  172POPC   C1A 2550   4.256   3.149   6.377  0.1368 -0.2716 -0.4058
  172POPC   D2A 2551   4.568   2.960   6.620  0.4800  0.1580 -0.3490
  172POPC   C3A 2552   4.231   2.659   6.886  0.0720  0.1928 -0.0004
  172POPC   C4A 2553   4.184   2.424   7.211 -0.2227 -0.0183 -0.1633
  172POPC   C1B 2554   4.741   4.026   6.040  0.1967 -0.0538  0.1251
  172POPC   C2B 2555   5.103   3.989   6.119 -0.0541 -0.0659 -0.0728
  172POPC   C3B 2556   5.462   3.952   6.351  0.1841 -0.0498 -0.0238
  172POPC   C4B 2557   5.886   3.908   6.374 -0.0079  0.0515  0.2346
  173POPC   NC3 2558   7.790   2.587   3.995 -0.3012 -0.0455  0.1402
  173POPC   PO4 2559   7.420   2.802   3.863  0.0425  0.1181  0.1591
  173POPC   GL1 2560   7.337   2.576   4.244  0.0467 -0.1961 -0.1014
  173POPC   GL2 2561   7.353   2.746   4.505 -0.1140  0.0264 -0.0711
  173POPC   C1A 2562   6.963   2.413   4.566 -0.1068 -0.2901 -0.2945
  173POPC   D2A 2563   6.963   2.049   4.805 -0.3590  0.2353 -0.3034
  173POPC   C3A 2564   6.804   2.054   5.086  0.0492 -0.1178  0.1463
  173POPC   C4A 2565   6.359   2.084   5.041  0.0482  0.0136 -0.1467
  173POPC   C1B 2566   7.306   2.674   4.855 -0.0114 -0.0830 -0.1309
  173POPC   C2B 2567   7.343   2.701   5.303  0.1767 -0.3269 -0.1767
  173POPC   C3B 2568   7.320   2.841   5.700 -0.3839  0.0964  0.0635
  173POPC   C4B 2569   7.026   3.148   5.950  0.1083 -0.0992 -0.0573
  174POPC   NC3 2570   4.787   9.633   5.096 -0.3601  0.0203  0.1652
  174POPC   PO4 2571   4.565   9.292   4.708 -0.1565  0.4731 -0.0948
  174POPC   GL1 2572   4.380   9.281   5.152 -0.0310 -0.1057  0.1784
  174POPC   GL2 2573   4.672   9.087   5.229 -0.0266  0.0219  0.2644
  174POPC   C1A 2574   4.013   9.564   5.431 -0.1297 -0.1549 -0.1450
  174POPC   D2A 2575   3.753   9.704   5.644 -0.1541  0.0614  0.1257
  174POPC   C3A 2576   3.769   9.355   5.997  0.0866 -0.2123  0.2611
  174POPC   C4A 2577   3.473   9.179   6.227  0.0308  0.0103 -0.2216
  174POPC   C1B 2578   4.832   9.146   5.619 -0.1307 -0.1895 -0.0742
  174POPC   C2B 2579   4.935   9.313   5.999  0.0172 -0.0126 -0.0565
  174POPC   C3B 2580   4.919   9.568   6.330  0.0117 -0.2355  0.1291
  174POPC   C4B 2581   4.913   9.441   6.860 -0.0040  0.1518 -0.4820
  175POPC   NC3 2582   0.251  10.291   4.486 -0.0551  0.2998 -0.3157
  175POPC   PO4 2583   0.666  10.467   4.621  0.0454  0.0496 -0.0022
  175POPC   GL1 2584   0.599  10.572   5.050  0.0567 -0.3702 -0.0137
  175POPC   GL2 2585   0.870  10.565   5.263  0.0043  0.1816  0.2373
  175POPC   C1A 2586   0.404  10.878   5.330  0.2983  0.2105  0.0404
  175POPC   D2A 2587   0.288  11.322   5.335  0.0494  0.0941 -0.1370
  175POPC   C3A 2588  -0.084  11.434   5.487 -0.1166 -0.3796 -0.2234
  175POPC   C4A 2589  -0.392  11.251   5.676 -0.2419 -0.2269 -0.0295
  175POPC   C1B 2590   0.771  10.594   5.611  0.2199 -0.0777 -0.0708
  175POPC   C2B 2591   0.489  10.785   5.863  0.0112 -0.0712  0.0123
  175POPC   C3B 2592   0.595  11.022   6.290 -0.1183  0.2982  0.3738
  175POPC   C4B 2593   0.769  11.335   6.437  0.2113  0.0494  0.0081
  176POPC   NC3 2594   5.009   9.183   4.479  0.4120  0.0287  0.2765
  176POPC   PO4 2595   4.884   8.833   4.765  0.0759  0.0143  0.1019
  176POPC   GL1 2596   4.919   8.555   5.155  0.0792 -0.0109  0.1290
  176POPC   GL2 2597   4.943   8.680   5.439  0.0925 -0.0871  0.1409
  176POPC   C1A 2598   4.754   8.249   5.572 -0.0447 -0.0717  0.0023
  176POPC   D2A 2599   4.662   8.371   6.008  0.0086 -0.0976 -0.2696
  176POPC   C3A 2600   4.671   8.866   6.009  0.1462 -0.2492  0.2739
  176POPC   C4A 2601   4.534   9.164   6.359 -0.0393 -0.1102  0.1347
  176POPC   C1B 2602   4.470   8.680   5.432 -0.0478 -0.0196 -0.1127
  176POPC   C2B 2603   4.234   8.532   5.797  0.1610  0.0476 -0.2598
  176POPC   C3B 2604   4.227   8.502   6.216 -0.0280  0.2020  0.1279
  176POPC   C4B 2605   4.627   8.575   6.441 -0.0173 -0.1384  0.2090
  177POPC   NC3 2606   5.241   7.504   5.056 -0.0866 -0.4062  0.2099
  177POPC   PO4 2607   5.135   7.852   4.755  0.1441 -0.0017 -0.1510
  177POPC   GL1 2608   5.225   7.977   5.224 -0.0086  0.0332  0.0156
  177POPC   GL2 2609   5.274   8.280   5.288  0.3047  0.3593  0.2564
  177POPC   C1A 2610   5.126   7.951   5.798  0.2721  0.0843  0.2867
  177POPC   D2A 2611   5.228   7.716   6.170 -0.1625 -0.3013 -0.1603
  177POPC   C3A 2612   4.929   7.698   6.541  0.1202 -0.1242  0.0913
  177POPC   C4A 2613   4.649   8.044   6.773  0.0667 -0.1960 -0.3319
  177POPC   C1B 2614   5.270   8.381   5.780 -0.2992 -0.0801  0.3242
  177POPC   C2B 2615   5.462   8.183   6.162 -0.1712 -0.0255 -0.0278
  177POPC   C3B 2616   5.626   8.003   6.529  0.3849  0.5222 -0.1003
  177POPC   C4B 2617   5.372   7.875   6.886  0.4235  0.0155 -0.1034
  178POPC   NC3 2618  10.204   6.069   5.243  0.3265 -0.0069 -0.1464
  178POPC   PO4 2619   9.858   6.307   5.406  0.3884 -0.2057  0.2693
  178POPC   GL1 2620  10.048   6.184   5.761 -0.3128  0.3463  0.0507
  178POPC   GL2 2621  10.185   5.827   5.673 -0.1463 -0.0336 -0.2147
  178POPC   C1A 2622  10.200   6.349   6.290 -0.0096 -0.0190 -0.1596
  178POPC   D2A 2623  10.099   6.163   6.676  0.0441 -0.0030  0.0675
  178POPC   C3A 2624  10.454   6.105   7.077 -0.0832 -0.1188  0.0025
  178POPC   C4A 2625  10.432   6.006   7.539  0.0985  0.4619 -0.0873
  178POPC   C1B 2626  10.031   5.726   6.025  0.1235 -0.2687  0.2761
  178POPC   C2B 2627   9.981   5.709   6.462 -0.0050 -0.1349 -0.1055
  178POPC   C3B 2628  10.201   5.728   6.912 -0.1888  0.2520  0.2785
  178POPC   C4B 2629  10.315   5.537   7.297 -0.0484 -0.1095  0.0987
  179POPC   NC3 2630   1.659   8.149   4.855 -0.0032  0.0113  0.0628
  179POPC   PO4 2631   1.507   7.782   4.709 -0.3864 -0.1874  0.1903
  179POPC   GL1 2632   1.701   7.656   5.072 -0.1731  0.0833 -0.0042
  179POPC   GL2 2633   1.439   7.545   5.275  0.1166 -0.0487  0.0221
  179POPC   C1A 2634   1.874   7.455   5.503 -0.1618  0.0216 -0.0714
  179POPC   D2A 2635   1.829   7.671   5.973  0.1318 -0.2727 -0.1818
  179POPC   C3A 2636   1.541   7.371   6.241 -0.0840 -0.2976 -0.4402
  179POPC   C4A 2637   1.423   6.901   6.210  0.3672 -0.0585 -0.1130
  179POPC   C1B 2638   1.421   7.452   5.769  0.0587 -0.0204  0.1768
  179POPC   C2B 2639   1.282   7.727   6.041 -0.0634 -0.2515 -0.0835
  179POPC   C3B 2640   0.953   7.779   6.090  0.0471  0.1350  0.1994
  179POPC   C4B 2641   0.539   7.916   6.271  0.2325 -0.2426  0.0147
  180POPC   NC3 2642   3.154   3.868   5.468 -0.0908  0.3000  0.0227
  180POPC   PO4 2643   3.444   4.189   5.468  0.0447 -0.0581 -0.1713
  180POPC   GL1 2644   3.482   3.971   5.819 -0.3431  0.1175 -0.0405
  180POPC   GL2 2645   3.596   3.637   5.860 -0.2190 -0.0101  0.2917
  180POPC   C1A 2646   3.348   4.226   6.188 -0.1183  0.1238 -0.0980
  180POPC   D2A 2647   3.077   4.184   6.415  0.2579 -0.0006 -0.1535
  180POPC   C3A 2648   2.546   4.009   6.231 -0.2487  0.3483 -0.5953
  180POPC   C4A 2649   2.137   3.807   6.291 -0.4015  0.0739  0.2567
  180POPC   C1B 2650   3.697   3.834   6.245 -0.0751 -0.1354 -0.1836
  180POPC   C2B 2651   3.547   3.974   6.610  0.1559  0.3188  0.2479
  180POPC   C3B 2652   3.511   4.472   6.580  0.1123 -0.0019 -0.1284
  180POPC   C4B 2653   3.189   4.697   6.469  0.5718 -0.0107  0.1993
  181POPC   NC3 2654   8.363   5.266   4.771 -0.1278 -0.2254  0.3289
  181POPC   PO4 2655   8.365   5.714   4.796  0.1269 -0.0948 -0.4578
  181POPC   GL1 2656   8.440   5.676   5.231  0.0643 -0.0246  0.3894
  181POPC   GL2 2657   8.725   5.857   5.320  0.0757 -0.2406 -0.1592
  181POPC   C1A 2658   8.438   5.491   5.624 -0.0614  0.0485  0.0179
  181POPC   D2A 2659   8.222   5.277   5.960 -0.2309  0.0982 -0.1710
  181POPC   C3A 2660   8.302   5.499   6.324 -0.1589  0.0778  0.3915
  181POPC   C4A 2661   8.017   5.481   6.644 -0.2021  0.0438  0.1007
  181POPC   C1B 2662   8.767   5.929   5.761 -0.0547 -0.0839  0.2004
  181POPC   C2B 2663   9.014   6.246   5.929  0.1969  0.0083  0.3003
  181POPC   C3B 2664   9.293   6.464   6.188 -0.0846 -0.0804  0.0689
  181POPC   C4B 2665   9.612   6.574   6.463 -0.2135 -0.2217 -0.0223
  182POPC   NC3 2666   6.458   7.502   4.696  0.2252  0.0956 -0.4305
  182POPC   PO4 2667   6.646   7.532   5.086  0.3086 -0.0621 -0.2084
  182POPC   GL1 2668   6.587   7.881   5.339  0.1289 -0.0443  0.2484
  182POPC   GL2 2669   6.784   8.201   5.338 -0.2390 -0.0904 -0.1487
  182POPC   C1A 2670   6.609   7.803   5.797  0.0811 -0.0843  0.1484
  182POPC   D2A 2671   6.680   7.984   6.261  0.2582 -0.1770 -0.2023
  182POPC   C3A 2672   6.649   7.822   6.651 -0.1891 -0.1324 -0.1218
  182POPC   C4A 2673   6.876   7.607   6.979 -0.0505 -0.0807 -0.1453
  182POPC   C1B 2674   6.958   8.277   5.726 -0.1124 -0.4143  0.0275
  182POPC   C2B 2675   7.390   8.366   5.792  0.0907 -0.2287  0.1880
  182POPC   C3B 2676   7.560   8.417   6.127 -0.0670  0.1518 -0.3831
  182POPC   C4B 2677   7.558   8.631   6.539  0.4688  0.0579  0.0733
  183POPC   NC3 2678   7.721   8.893   4.909 -0.0516 -0.3895 -0.0236
  183POPC   PO4 2679   7.610   8.511   5.089 -0.1329  0.0402  0.4255
  183POPC   GL1 2680   7.758   8.714   5.437  0.3333  0.2529  0.0035
  183POPC   GL2 2681   8.124   8.649   5.427 -0.0075 -0.2398  0.4497
  183POPC   C1A 2682   7.797   8.979   5.759 -0.1231 -0.2050  0.1485
  183POPC   D2A 2683   7.811   8.987   6.148 -0.1099 -0.0848  0.1953
  183POPC   C3A 2684   7.516   9.267   6.288  0.1374 -0.2183  0.2754
  183POPC   C4A 2685   7.464   9.609   6.470 -0.1783 -0.3244 -0.0021
  183POPC   C1B 2686   8.253   8.896   5.806  0.1203 -0.0087  0.2318
  183POPC   C2B 2687   8.373   9.044   6.205  0.0399 -0.1837 -0.0253
  183POPC   C3B 2688   8.423   9.357   6.344  0.1675 -0.1500 -0.0841
  183POPC   C4B 2689   8.371   9.830   6.605  0.1244 -0.0377 -0.0175
  184POPC   NC3 2690   9.546   9.305   4.462  0.1758 -0.1821 -0.3586
  184POPC   PO4 2691   9.277   9.300   4.721  0.0308  0.0234  0.2573
  184POPC   GL1 2692   9.054   9.411   5.144  0.3057 -0.1735  0.2093
  184POPC   GL2 2693   8.773   9.623   4.983 -0.0251 -0.0761  0.1475
  184POPC   C1A 2694   9.008   9.524   5.552 -0.1423 -0.2446 -0.0835
  184POPC   D2A 2695   9.237   9.791   5.905  0.0652 -0.0453  0.1403
  184POPC   C3A 2696   9.341   9.731   6.437 -0.1570  0.1151  0.3585
  184POPC   C4A 2697   9.280   9.206   6.536 -0.0867  0.2615 -0.3007
  184POPC   C1B 2698   8.550   9.629   5.385  0.2270  0.1924 -0.2588
  184POPC   C2B 2699   8.723   9.875   5.731 -0.2741  0.0751 -0.2301
  184POPC   C3B 2700   8.809   9.900   6.158  0.3078 -0.1117 -0.1316
  184POPC   C4B 2701   8.937  10.087   6.518 -0.1342 -0.1633  0.0938
  185POPC   NC3 2702   2.171   4.999   4.949 -0.0659 -0.1495 -0.1085
  185POPC   PO4 2703   2.194   5.415   5.076 -0.1976  0.3553  0.4550
  185POPC   GL1 2704   2.095   5.604   5.415  0.0332 -0.5144 -0.1461
  185POPC   GL2 2705   2.245   5.500   5.704  0.0920  0.2290 -0.0612
  185POPC   C1A 2706   1.966   5.869   5.823 -0.0257  0.3536  0.0924
  185POPC   D2A 2707   1.867   6.198   6.192  0.1707  0.0070  0.1350
  185POPC   C3A 2708   2.112   6.248   6.640  0.3139  0.0549 -0.1356
  185POPC   C4A 2709   2.192   6.327   7.017  0.2642 -0.1592  0.1011
  185POPC   C1B 2710   2.404   5.704   6.125  0.1137  0.1699 -0.2199
  185POPC   C2B 2711   2.483   6.018   6.430 -0.2365  0.0367 -0.2976
  185POPC   C3B 2712   2.942   5.929   6.497  0.2208 -0.0842 -0.3886
  185POPC   C4B 2713   3.404   5.986   6.515  0.2617  0.0042  0.3164
  186POPC   NC3 2714   0.945   9.499   4.850  0.2357  0.0781  0.2090
  186POPC   PO4 2715   0.806   9.104   5.014  0.1572  0.2256 -0.1883
  186POPC   GL1 2716   0.870   9.275   5.401 -0.1574  0.0944 -0.1210
  186POPC   GL2 2717   1.096   9.450   5.309 -0.0836 -0.2861 -0.3017
  186POPC   C1A 2718   0.988   9.166   5.856  0.1710  0.2466 -0.1650
  186POPC   D2A 2719   1.136   8.973   6.271  0.0082  0.2266  0.2177
  186POPC   C3A 2720   0.757   9.061   6.630 -0.2131 -0.1758 -0.0643
  186POPC   C4A 2721   0.906   9.184   7.025 -0.1874  0.0700  0.1266
  186POPC   C1B 2722   1.370   9.453   5.662  0.0868  0.0682  0.3766
  186POPC   C2B 2723   1.473   9.410   6.078 -0.4072 -0.0616  0.0622
  186POPC   C3B 2724   1.693   9.342   6.456  0.1571  0.4610  0.2495
  186POPC   C4B 2725   1.633   9.050   6.858 -0.1002  0.2991  0.0030
  187POPC   NC3 2726   6.951   8.889   4.566  0.2030  0.1232 -0.0860
  187POPC   PO4 2727   6.985   9.438   4.677  0.0365 -0.1253 -0.0659
  187POPC   GL1 2728   7.157   9.557   5.107 -0.1202 -0.0767  0.2168
  187POPC   GL2 2729   7.008   9.378   5.321 -0.2066  0.0396  0.5082
  187POPC   C1A 2730   7.278   9.871   5.441  0.0193 -0.1940 -0.0200
  187POPC   D2A 2731   7.548  10.093   5.683  0.0245 -0.0581 -0.2002
  187POPC   C3A 2732   7.517  10.333   6.125  0.0145 -0.0505  0.2023
  187POPC   C4A 2733   7.269  10.668   6.294  0.2184  0.1395 -0.1011
  187POPC   C1B 2734   6.863   9.739   5.631 -0.1464  0.0523 -0.2271
  187POPC   C2B 2735   6.478   9.644   5.971  0.0344 -0.1970  0.1138
  187POPC   C3B 2736   6.085   9.492   6.266  0.0189  0.3215  0.3230
  187POPC   C4B 2737   5.725   9.491   6.541 -0.1643  0.3451 -0.0270
  188POPC   NC3 2738   3.475   0.735   4.672 -0.1626  0.0341  0.1021
  188POPC   PO4 2739   3.103   0.808   4.900 -0.0233 -0.1703 -0.1010
  188POPC   GL1 2740   3.271   0.953   5.275 -0.1526 -0.1064  0.1133
  188POPC   GL2 2741   3.505   0.644   5.202  0.0590 -0.1876 -0.1774
  188POPC   C1A 2742   3.455   1.091   5.647 -0.1131  0.0870  0.1481
  188POPC   D2A 2743   3.761   1.075   5.934 -0.0924  0.1539 -0.0039
  188POPC   C3A 2744   3.516   1.039   6.349  0.1267  0.1535 -0.1144
  188POPC   C4A 2745   3.318   1.135   6.688 -0.0264 -0.1447 -0.2007
  188POPC   C1B 2746   3.493   0.616   5.727 -0.1412 -0.1500 -0.0136
  188POPC   C2B 2747   3.533   0.563   6.194  0.1571  0.2871  0.1372
  188POPC   C3B 2748   3.861   0.700   6.444 -0.0075 -0.2578 -0.1107
  188POPC   C4B 2749   4.226   0.923   6.642 -0.1807 -0.2156 -0.1105
  189POPC   NC3 2750   6.998   7.233   4.885 -0.2049  0.0797 -0.0409
  189POPC   PO4 2751   6.592   7.021   5.009 -0.0253  0.0489  0.0163
  189POPC   GL1 2752   6.826   7.088   5.417 -0.0318 -0.0400  0.0158
  189POPC   GL2 2753   7.036   7.408   5.581 -0.1506  0.1179  0.1345
  189POPC   C1A 2754   6.878   7.131   5.918  0.0549 -0.0703 -0.1384
  189POPC   D2A 2755   7.053   7.014   6.274 -0.1152 -0.0857  0.0100
  189POPC   C3A 2756   6.882   7.134   6.771 -0.1297  0.1838  0.3808
  189POPC   C4A 2757   6.468   7.345   6.917  0.2524  0.0783 -0.2520
  189POPC   C1B 2758   7.019   7.563   6.105  0.2943  0.1781  0.0148
  189POPC   C2B 2759   7.142   7.583   6.498 -0.0052  0.3491  0.1372
  189POPC   C3B 2760   7.311   7.362   6.856  0.2567  0.1882 -0.1586
  189POPC   C4B 2761   7.086   7.097   7.301 -0.0753  0.4279  0.1776
  190POPC   NC3 2762   3.326   2.258   4.856  0.1673 -0.1721  0.0928
  190POPC   PO4 2763   3.036   2.601   5.010  0.1343  0.2334  0.2362
  190POPC   GL1 2764   2.863   2.352   5.338 -0.4130 -0.0083 -0.1488
  190POPC   GL2 2765   2.551   2.459   5.308 -0.3720 -0.1154 -0.0373
  190POPC   C1A 2766   2.681   2.035   5.739 -0.1325 -0.1063  0.1488
  190POPC   D2A 2767   2.388   1.748   5.970  0.2935  0.1384  0.1696
  190POPC   C3A 2768   2.516   1.689   6.377  0.0679 -0.2652 -0.1469
  190POPC   C4A 2769   2.871   1.598   6.599 -0.0203 -0.1717 -0.0194
  190POPC   C1B 2770   2.337   2.480   5.711 -0.2765 -0.1491  0.0978
  190POPC   C2B 2771   2.141   2.694   6.033  0.1834 -0.1706 -0.0385
  190POPC   C3B 2772   1.822   2.965   6.282  0.1863  0.0639  0.0050
  190POPC   C4B 2773   1.490   3.071   6.580  0.0349 -0.1657  0.1339
  191POPC   NC3 2774   2.641   6.514   4.940  0.3917  0.0039  0.0700
  191POPC   PO4 2775   2.234   6.329   5.043 -0.1225  0.2153  0.2692
  191POPC   GL1 2776   2.262   6.102   5.471  0.1417  0.1324  0.1583
  191POPC   GL2 2777   1.985   6.292   5.455 -0.2128  0.2732  0.2287
  191POPC   C1A 2778   2.509   6.146   5.884  0.2478  0.1823  0.0024
  191POPC   D2A 2779   2.822   6.405   6.085  0.0405 -0.0927 -0.0402
  191POPC   C3A 2780   3.081   6.426   6.470 -0.0605 -0.3936  0.1046
  191POPC   C4A 2781   3.208   6.446   6.930  0.0219  0.2223 -0.0099
  191POPC   C1B 2782   2.057   6.466   5.829  0.1803  0.2116 -0.0211
  191POPC   C2B 2783   2.318   6.469   6.171 -0.2047  0.1225 -0.2181
  191POPC   C3B 2784   2.530   6.505   6.563  0.0326  0.3903 -0.1246
  191POPC   C4B 2785   2.768   6.628   6.842 -0.5268  0.1702  0.1257
  192POPC   NC3 2786   4.489   0.446   4.743  0.1467 -0.1625  0.1656
  192POPC   PO4 2787   4.873   0.528   4.811  0.0401 -0.0731 -0.2058
  192POPC   GL1 2788   4.987   0.542   5.178 -0.1362  0.0258  0.2300
  192POPC   GL2 2789   5.074   0.227   5.266  0.2358  0.0484  0.0950
  192POPC   C1A 2790   4.909   0.677   5.606  0.0474  0.3034 -0.0630
  192POPC   D2A 2791   4.843   0.728   6.084 -0.1352  0.0300 -0.0536
  192POPC   C3A 2792   4.988   1.042   6.446  0.0528 -0.1092 -0.1287
  192POPC   C4A 2793   5.184   1.029   6.718  0.0026  0.0705  0.0827
  192POPC   C1B 2794   5.494   0.138   5.568 -0.1309 -0.0225 -0.0637
  192POPC   C2B 2795   5.684  -0.143   5.908  0.1232  0.3557 -0.0603
  192POPC   C3B 2796   5.881  -0.144   6.177 -0.2415  0.2114 -0.2052
  192POPC   C4B 2797   5.941  -0.454   6.503 -0.1622  0.4456  0.3291
  193POPC   NC3 2798   0.059   1.537   4.174  0.0438  0.2217 -0.2535
  193POPC   PO4 2799  -0.021   1.931   4.037 -0.0124  0.0075 -0.4610
  193POPC   GL1 2800  -0.156   2.290   4.438  0.0185 -0.0708  0.1030
  193POPC   GL2 2801  -0.122   2.605   4.348  0.2615 -0.1311 -0.3015
  193POPC   C1A 2802  -0.061   2.109   4.891  0.1522  0.2178  0.1222
  193POPC   D2A 2803  -0.074   2.175   5.358  0.0227  0.2681  0.1294
  193POPC   C3A 2804  -0.240   1.923   5.708 -0.1863  0.1397 -0.0504
  193POPC   C4A 2805  -0.493   1.739   5.992 -0.2282 -0.0088 -0.0344
  193POPC   C1B 2806  -0.224   2.613   4.841  0.2266 -0.2851  0.0959
  193POPC   C2B 2807  -0.559   2.293   5.214  0.0924 -0.4107  0.1466
  193POPC   C3B 2808  -0.636   1.907   5.452 -0.1790  0.1881 -0.0890
  193POPC   C4B 2809  -0.885   1.582   5.204 -0.2240 -0.2374  0.1585
  194POPC   NC3 2810   9.059   1.673   3.187  0.1597  0.0503  0.0720
  194POPC   PO4 2811   9.207   1.649   3.566  0.0696  0.1134  0.0142
  194POPC   GL1 2812   9.431   1.680   4.007 -0.2777 -0.2325  0.1014
  194POPC   GL2 2813   9.427   1.437   4.195  0.0422 -0.0413  0.1730
  194POPC   C1A 2814   9.187   1.959   4.396  0.2363 -0.2095  0.2355
  194POPC   D2A 2815   8.969   2.160   4.672 -0.1932 -0.2443 -0.1000
  194POPC   C3A 2816   9.064   2.446   4.889 -0.0533  0.3626 -0.0637
  194POPC   C4A 2817   8.975   2.695   5.259 -0.1112 -0.2208 -0.0943
  194POPC   C1B 2818   9.679   1.655   4.442  0.0272  0.0837 -0.1460
  194POPC   C2B 2819   9.958   1.742   4.826  0.0488 -0.0181 -0.1842
  194POPC   C3B 2820  10.226   1.715   5.139  0.1548 -0.1863  0.2108
  194POPC   C4B 2821  10.457   1.467   5.335  0.2761 -0.4477 -0.1953
  195POPC   NC3 2822   5.659   1.515   3.990  0.0148  0.0031 -0.2245
  195POPC   PO4 2823   5.430   1.338   4.439 -0.1338 -0.1918 -0.2889
  195POPC   GL1 2824   5.403   1.209   4.830 -0.1770  0.0386 -0.1054
  195POPC   GL2 2825   5.174   1.156   5.058  0.0065 -0.0878  0.0927
  195POPC   C1A 2826   5.489   1.465   5.179  0.3526 -0.0855 -0.1910
  195POPC   D2A 2827   5.290   1.545   5.578  0.2812  0.3950 -0.1776
  195POPC   C3A 2828   5.145   1.853   5.760 -0.1376  0.1909 -0.2818
  195POPC   C4A 2829   5.115   2.187   5.896 -0.1382  0.0473 -0.5787
  195POPC   C1B 2830   5.113   1.064   5.507  0.1524  0.0522  0.4522
  195POPC   C2B 2831   5.318   1.038   5.883  0.1894 -0.4630  0.0179
  195POPC   C3B 2832   5.516   1.011   6.338  0.1504 -0.0580  0.1461
  195POPC   C4B 2833   5.580   0.776   6.751  0.1133 -0.0053  0.0053
  196POPC   NC3 2834   0.806   0.875   4.474 -0.0175 -0.1483 -0.1091
  196POPC   PO4 2835   0.670   0.557   4.722  0.2776  0.0273 -0.0510
  196POPC   GL1 2836   0.799   0.589   5.178 -0.0517 -0.3705 -0.1109
  196POPC   GL2 2837   1.158   0.653   5.297 -0.0157  0.2282 -0.1372
  196POPC   C1A 2838   0.746   0.622   5.574 -0.0955  0.0269 -0.1210
  196POPC   D2A 2839   1.021   0.376   5.880  0.0085  0.2273  0.1868
  196POPC   C3A 2840   0.893   0.144   6.167  0.5082  0.2073 -0.0655
  196POPC   C4A 2841   0.757  -0.115   6.446 -0.0402  0.1070 -0.0736
  196POPC   C1B 2842   1.197   0.820   5.625  0.0004 -0.0533 -0.1892
  196POPC   C2B 2843   0.922   0.919   5.929 -0.0786 -0.0623 -0.0293
  196POPC   C3B 2844   0.469   0.821   5.904  0.3192 -0.0227 -0.1071
  196POPC   C4B 2845   0.053   0.748   6.032  0.3616 -0.2285 -0.2304
  197POPC   NC3 2846   6.159   2.607   4.251 -0.1438 -0.0906 -0.2780
  197POPC   PO4 2847   5.814   2.294   4.345 -0.0117  0.1107 -0.2656
  197POPC   GL1 2848   5.764   2.361   4.772  0.0347 -0.2311 -0.1522
  197POPC   GL2 2849   6.146   2.467   4.756 -0.0734  0.0022 -0.1049
  197POPC   C1A 2850   5.679   2.590   5.185  0.1580  0.0708  0.0601
  197POPC   D2A 2851   5.787   2.984   5.403  0.3964 -0.2176  0.3237
  197POPC   C3A 2852   5.868   3.039   5.935  0.0523 -0.0061 -0.2346
  197POPC   C4A 2853   6.087   2.979   6.302 -0.0611 -0.1834 -0.1412
  197POPC   C1B 2854   6.557   2.510   4.809  0.4676  0.0110 -0.2370
  197POPC   C2B 2855   6.844   2.561   5.197 -0.1379 -0.1372  0.0533
  197POPC   C3B 2856   6.994   2.332   5.486 -0.0712  0.1769 -0.4073
  197POPC   C4B 2857   6.967   1.971   5.853 -0.1760 -0.0421 -0.1556
  198POPC   NC3 2858   1.471   0.362   4.509  0.3019  0.2113 -0.0282
  198POPC   PO4 2859   1.250   0.725   4.682 -0.1797 -0.0167 -0.0840
  198POPC   GL1 2860   1.578   0.806   4.977  0.2799 -0.3791  0.0387
  198POPC   GL2 2861   1.419   1.121   5.178 -0.0214  0.2233 -0.0590
  198POPC   C1A 2862   1.814   0.815   5.422  0.0992  0.0095  0.2163
  198POPC   D2A 2863   1.613   1.013   5.612 -0.1381 -0.0005 -0.2182
  198POPC   C3A 2864   1.707   0.995   6.070 -0.2418  0.0390  0.1891
  198POPC   C4A 2865   1.957   0.904   6.459  0.0028 -0.1777 -0.0718
  198POPC   C1B 2866   1.277   1.390   5.485  0.1381 -0.4091  0.2299
  198POPC   C2B 2867   1.248   1.306   5.885  0.0382 -0.1001 -0.2110
  198POPC   C3B 2868   1.204   1.101   6.274 -0.1859 -0.2345  0.0481
  198POPC   C4B 2869   0.999   1.325   6.636 -0.0802 -0.0741 -0.2663
  199POPC   NC3 2870   0.254   9.694   4.359 -0.1682  0.3576  0.1668
  199POPC   PO4 2871   0.102   9.827   4.803 -0.1204  0.3021  0.4226
  199POPC   GL1 2872   0.098   9.653   5.119  0.0321 -0.2134  0.1993
  199POPC   GL2 2873  -0.135   9.891   5.236 -0.1684  0.4834 -0.0134
  199POPC   C1A 2874   0.293   9.797   5.522  0.3881  0.0300  0.0326
  199POPC   D2A 2875   0.151   9.935   5.862  0.0383 -0.4045 -0.1770
  199POPC   C3A 2876  -0.402  10.098   6.005 -0.1029  0.1258 -0.2719
  199POPC   C4A 2877  -0.576  10.439   5.977 -0.2016 -0.0548  0.1688
  199POPC   C1B 2878  -0.411   9.849   5.567 -0.1357  0.2769 -0.1388
  199POPC   C2B 2879  -0.691   9.599   5.816  0.1491 -0.0348 -0.2552
  199POPC   C3B 2880  -0.822   9.477   6.149  0.0343  0.0762 -0.1091
  199POPC   C4B 2881  -0.784   9.422   6.650 -0.3800 -0.0485 -0.0702
  200POPC   NC3 2882   9.402   8.211   3.989 -0.0482  0.2251  0.2567
  200POPC   PO4 2883   9.676   8.416   4.405 -0.1861  0.1639  0.2468
  200POPC   GL1 2884   9.714   8.428   4.891  0.0408  0.1622  0.0163
  200POPC   GL2 2885   9.717   8.715   5.019  0.0582 -0.3237  0.4268
  200POPC   C1A 2886  10.148   8.525   5.060 -0.2555  0.0334 -0.0474
  200POPC   D2A 2887  10.445   8.599   5.357 -0.0970 -0.2634 -0.1327
  200POPC   C3A 2888  10.533   8.984   5.606  0.2152 -0.1820 -0.2514
  200POPC   C4A 2889  10.451   9.064   6.069 -0.1105  0.3691 -0.0880
  200POPC   C1B 2890   9.407   8.845   5.255  0.3413  0.0133  0.3309
  200POPC   C2B 2891   9.095   8.991   5.446 -0.4234  0.2221  0.3001
  200POPC   C3B 2892   8.925   8.804   5.702 -0.1499 -0.0432  0.3687
  200POPC   C4B 2893   8.745   8.737   6.022  0.1664 -0.4843  0.2134
  201POPC   NC3 2894   0.350   6.609   4.633 -0.1903  0.2670  0.0433
  201POPC   PO4 2895   0.473   6.337   4.870 -0.2489 -0.0207  0.1672
  201POPC   GL1 2896   0.392   6.220   5.214 -0.2348 -0.2362 -0.0169
  201POPC   GL2 2897   0.668   6.205   5.379  0.0038 -0.0091  0.1107
  201POPC   C1A 2898   0.247   5.984   5.495 -0.0532  0.0344  0.1738
  201POPC   D2A 2899   0.185   5.530   5.516  0.0670  0.0117 -0.2722
  201POPC   C3A 2900   0.321   5.354   5.842 -0.1754  0.1711 -0.1306
  201POPC   C4A 2901   0.394   5.180   6.239 -0.1659  0.2005  0.1955
  201POPC   C1B 2902   0.424   6.566   5.604  0.2077 -0.2860  0.1021
  201POPC   C2B 2903   0.202   6.791   5.821  0.0900 -0.2688 -0.0350
  201POPC   C3B 2904   0.303   7.012   6.096 -0.0665  0.0588  0.3731
  201POPC   C4B 2905   0.058   6.977   6.479  0.1269 -0.1297 -0.1580
  202POPC   NC3 2906   8.904   7.969   4.835  0.0219 -0.3615  0.1402
  202POPC   PO4 2907   9.231   7.865   5.065  0.1952 -0.0217  0.1341
  202POPC   GL1 2908   9.497   7.799   5.452  0.0947 -0.1898  0.2025
  202POPC   GL2 2909   9.352   7.907   5.586  0.3118  0.3671 -0.0517
  202POPC   C1A 2910   9.600   7.652   5.873 -0.0436 -0.3250  0.2638
  202POPC   D2A 2911   9.795   7.342   6.167  0.0210  0.0028 -0.0213
  202POPC   C3A 2912  10.255   7.300   6.261  0.0238  0.4753 -0.2531
  202POPC   C4A 2913  10.602   7.550   6.246 -0.2171  0.1315 -0.2239
  202POPC   C1B 2914   9.278   7.923   6.114  0.2023  0.0575  0.0838
  202POPC   C2B 2915   9.156   8.068   6.471  0.1019  0.1970  0.0661
  202POPC   C3B 2916   9.057   8.091   6.858 -0.2475  0.0454  0.1200
  202POPC   C4B 2917   8.746   7.935   7.107  0.0622  0.2180 -0.4766
  203POPC   NC3 2918   2.711   0.587   4.746  0.2722  0.0676 -0.2667
  203POPC   PO4 2919   2.581   0.150   4.958  0.0276  0.2448 -0.0279
  203POPC   GL1 2920   2.855   0.057   5.256  0.0404  0.4434 -0.2129
  203POPC   GL2 2921   2.880  -0.292   5.300 -0.1580  0.1161 -0.1393
  203POPC   C1A 2922   2.906   0.040   5.683  0.2509 -0.1678  0.1693
  203POPC   D2A 2923   2.788   0.195   6.028 -0.0292  0.1696  0.2320
  203POPC   C3A 2924   2.403   0.383   6.129 -0.1301  0.5301  0.0210
  203POPC   C4A 2925   1.941   0.538   6.118  0.1918 -0.2409 -0.0599
  203POPC   C1B 2926   2.610  -0.405   5.637 -0.0477 -0.1320 -0.3674
  203POPC   C2B 2927   2.410  -0.192   5.972 -0.0588 -0.0761 -0.2431
  203POPC   C3B 2928   2.371   0.013   6.431 -0.0714 -0.0031  0.0597
  203POPC   C4B 2929   2.080   0.304   6.583  0.0518  0.0375 -0.2889
  204POPC   NC3 2930   7.103   7.349   4.408  0.0251 -0.1702  0.4413
  204POPC   PO4 2931   7.395   7.519   4.761  0.0527 -0.2999 -0.1249
  204POPC   GL1 2932   7.459   7.448   5.184  0.1282 -0.2378 -0.2803
  204POPC   GL2 2933   7.530   7.668   5.417  0.1075 -0.0581 -0.0001
  204POPC   C1A 2934   7.495   7.270   5.655  0.0144 -0.0865 -0.0944
  204POPC   D2A 2935   7.430   7.304   6.123  0.3254  0.1750 -0.1851
  204POPC   C3A 2936   7.633   7.192   6.541  0.3658  0.0948 -0.0905
  204POPC   C4A 2937   7.859   6.844   6.772  0.0998  0.1578 -0.0866
  204POPC   C1B 2938   7.393   7.800   5.714  0.1211 -0.0586 -0.2810
  204POPC   C2B 2939   7.222   8.017   6.078  0.1685  0.1409 -0.0620
  204POPC   C3B 2940   7.077   8.341   6.257  0.1550 -0.0760  0.0534
  204POPC   C4B 2941   7.330   8.821   6.125 -0.0618 -0.2400  0.1837
  205POPC   NC3 2942   8.801   8.546   4.706 -0.1650 -0.1205 -0.4311
  205POPC   PO4 2943   8.464   8.293   4.754  0.2177  0.0401  0.2182
  205POPC   GL1 2944   8.561   8.268   5.193  0.0103  0.4029 -0.2769
  205POPC   GL2 2945   8.611   8.647   5.232 -0.0113  0.0653  0.3841
  205POPC   C1A 2946   8.434   8.391   5.648 -0.1390 -0.0362  0.1468
  205POPC   D2A 2947   8.437   8.368   6.064 -0.0015  0.0723 -0.0776
  205POPC   C3A 2948   8.771   8.463   6.410  0.1514  0.0248 -0.1236
  205POPC   C4A 2949   9.169   8.552   6.598  0.1773 -0.1837  0.1491
  205POPC   C1B 2950   8.993   8.471   5.357 -0.2432 -0.3085  0.1599
  205POPC   C2B 2951   9.413   8.402   5.365 -0.0993 -0.1927 -0.0667
  205POPC   C3B 2952   9.894   8.366   5.422 -0.2517  0.2441  0.1497
  205POPC   C4B 2953  10.248   8.233   5.669 -0.0684 -0.0285  0.1210
  206POPC   NC3 2954   4.627   1.691   4.411 -0.0258 -0.0673 -0.4644
  206POPC   PO4 2955   4.605   1.458   4.837  0.1097 -0.0896 -0.0394
  206POPC   GL1 2956   4.658   1.640   5.243 -0.2208 -0.0427  0.0658
  206POPC   GL2 2957   4.855   1.531   5.355  0.0999 -0.0116 -0.2943
  206POPC   C1A 2958   4.636   1.982   5.687  0.0616  0.2360 -0.1209
  206POPC   D2A 2959   4.751   1.825   6.146  0.1149  0.2895  0.0962
  206POPC   C3A 2960   4.889   2.001   6.440  0.1512  0.0543  0.1120
  206POPC   C4A 2961   5.118   2.165   6.712 -0.1537  0.1928  0.0517
  206POPC   C1B 2962   4.790   1.386   5.693 -0.2228 -0.1477 -0.1557
  206POPC   C2B 2963   4.950   1.375   6.000 -0.3426 -0.2633 -0.1166
  206POPC   C3B 2964   5.300   1.436   6.214  0.2104  0.1103  0.0158
  206POPC   C4B 2965   5.796   1.552   6.351  0.0268  0.0221 -0.3029
  207POPC   NC3 2966   6.907   9.883   4.424  0.1125  0.4275  0.2090
  207POPC   PO4 2967   6.633  10.249   4.567 -0.0110  0.0386 -0.4016
  207POPC   GL1 2968   6.841  10.326   5.007 -0.3378  0.1286 -0.0426
  207POPC   GL2 2969   6.880  10.078   5.243 -0.0295  0.3556 -0.2224
  207POPC   C1A 2970   7.277  10.351   5.270 -0.1675  0.2321  0.3647
  207POPC   D2A 2971   7.653  10.420   5.318  0.1892  0.2603 -0.1401
  207POPC   C3A 2972   7.767  10.054   5.265 -0.3968  0.0286 -0.2829
  207POPC   C4A 2973   7.761   9.669   5.471  0.0109  0.2125  0.0833
  207POPC   C1B 2974   7.013  10.213   5.675 -0.0112 -0.0270 -0.2583
  207POPC   C2B 2975   7.279  10.549   5.719 -0.2088  0.1179  0.2540
  207POPC   C3B 2976   7.691  10.671   5.820 -0.1739  0.3872 -0.2453
  207POPC   C4B 2977   8.103  10.852   6.107 -0.1255 -0.0414 -0.0392
  208POPC   NC3 2978   9.259   7.602   4.657  0.2370 -0.1789 -0.0838
  208POPC   PO4 2979   8.861   7.473   4.980  0.4731 -0.4731 -0.0146
  208POPC   GL1 2980   8.714   7.758   5.253  0.1624 -0.2326  0.0808
  208POPC   GL2 2981   8.495   7.611   5.521  0.0389  0.1522 -0.2030
  208POPC   C1A 2982   8.825   8.009   5.603  0.1147  0.0504 -0.0512
  208POPC   D2A 2983   8.953   8.258   5.959 -0.0878 -0.0078 -0.0314
  208POPC   C3A 2984   9.292   8.431   5.893 -0.3166  0.0137 -0.0819
  208POPC   C4A 2985   9.647   8.606   5.745  0.1818 -0.0551  0.1135
  208POPC   C1B 2986   8.226   7.415   5.800  0.0317  0.0021  0.0360
  208POPC   C2B 2987   7.861   7.639   5.962  0.0296 -0.2863 -0.0216
  208POPC   C3B 2988   7.635   7.744   6.145  0.1107 -0.0125  0.1230
  208POPC   C4B 2989   7.478   7.966   6.513 -0.0245 -0.1255  0.1142
  209POPC   NC3 2990   5.361   3.411   3.790 -0.0811 -0.1608  0.0438
  209POPC   PO4 2991   5.510   3.331   4.258 -0.0439  0.0285 -0.1632
  209POPC   GL1 2992   5.626   3.186   4.784 -0.0022 -0.2160  0.4304
  209POPC   GL2 2993   5.499   2.839   4.821  0.1652  0.0652  0.3565
  209POPC   C1A 2994   5.871   3.423   5.080 -0.0754  0.3159 -0.0816
  209POPC   D2A 2995   6.164   3.646   5.140 -0.0331  0.0746  0.2947
  209POPC   C3A 2996   6.141   3.827   5.528  0.0360  0.2637  0.0606
  209POPC   C4A 2997   6.054   3.769   5.944 -0.0834  0.0831 -0.1792
  209POPC   C1B 2998   5.970   2.923   4.950 -0.1697  0.3970  0.1276
  209POPC   C2B 2999   6.220   2.598   5.209  0.2071  0.2511 -0.0143
  209POPC   C3B 3000   6.508   2.390   5.478 -0.0238 -0.0825  0.1244
  209POPC   C4B 3001   6.429   2.202   5.925  0.2203  0.0669 -0.0295
  210POPC   NC3 3002   1.231   8.027   5.150 -0.2122  0.2053 -0.1171
  210POPC   PO4 3003   1.034   8.395   5.058  0.1290 -0.0303  0.0281
  210POPC   GL1 3004   0.977   8.384   5.451 -0.0512  0.0953  0.3760
  210POPC   GL2 3005   1.165   8.115   5.616  0.0549 -0.2117 -0.2447
  210POPC   C1A 3006   0.850   8.661   5.762 -0.1208 -0.0237 -0.0909
  210POPC   D2A 3007   0.558   8.981   5.985  0.1611 -0.1285  0.0160
  210POPC   C3A 3008   0.309   8.941   6.405  0.0223  0.4209  0.3569
  210POPC   C4A 3009   0.088   8.999   6.744  0.0442 -0.1425 -0.1464
  210POPC   C1B 3010   0.811   8.178   5.848  0.0679 -0.0930 -0.0933
  210POPC   C2B 3011   0.585   8.495   6.232 -0.3544 -0.3247  0.1477
  210POPC   C3B 3012   0.249   8.449   6.557  0.0073  0.2099  0.0151
  210POPC   C4B 3013  -0.097   8.216   6.787  0.0002 -0.1788 -0.3729
  211POPC   NC3 3014   1.149   8.825   5.204  0.1250  0.2833 -0.1730
  211POPC   PO4 3015   1.512   8.611   5.045  0.0179 -0.2965  0.3146
  211POPC   GL1 3016   1.448   8.499   5.498 -0.1243 -0.0229 -0.0897
  211POPC   GL2 3017   1.628   8.228   5.455 -0.2017 -0.0719 -0.1582
  211POPC   C1A 3018   1.331   8.448   6.014 -0.1557 -0.0275 -0.1847
  211POPC   D2A 3019   1.048   8.220   6.287 -0.1998 -0.1243 -0.4335
  211POPC   C3A 3020   1.059   7.860   6.549  0.1995  0.2747 -0.1757
  211POPC   C4A 3021   0.626   7.738   6.784 -0.0119  0.0441  0.0470
  211POPC   C1B 3022   1.725   8.162   5.922  0.0200 -0.0304 -0.0717
  211POPC   C2B 3023   2.024   7.951   6.265 -0.1124  0.1074 -0.0513
  211POPC   C3B 3024   2.049   8.095   6.708  0.0265  0.2291  0.0402
  211POPC   C4B 3025   2.135   7.918   7.068  0.4146 -0.1573  0.4996
  212POPC   NC3 3026   3.108   5.259   4.498 -0.0343 -0.0399 -0.0265
  212POPC   PO4 3027   3.179   5.361   4.964 -0.0304  0.1324 -0.1925
  212POPC   GL1 3028   3.261   5.409   5.393 -0.0842  0.1350  0.0973
  212POPC   GL2 3029   3.172   5.130   5.558  0.3691  0.2267  0.0094
  212POPC   C1A 3030   3.295   5.521   5.837 -0.0723  0.1239 -0.0172
  212POPC   D2A 3031   3.148   5.524   6.282  0.0803  0.3769 -0.2177
  212POPC   C3A 3032   3.196   5.568   6.637 -0.0665  0.0551 -0.0438
  212POPC   C4A 3033   3.188   5.255   7.053 -0.0834 -0.2325 -0.0915
  212POPC   C1B 3034   2.805   5.312   5.761 -0.1318  0.0452 -0.0602
  212POPC   C2B 3035   2.776   5.752   5.788  0.2512  0.1201  0.0372
  212POPC   C3B 3036   3.157   5.976   5.929  0.2897  0.2281  0.4711
  212POPC   C4B 3037   3.169   6.379   5.680  0.0094 -0.3213 -0.1327
  213POPC   NC3 3038   0.958   6.181   4.841 -0.1905 -0.0175 -0.0964
  213POPC   PO4 3039   1.400   6.282   5.024  0.4323 -0.1828  0.1309
  213POPC   GL1 3040   1.474   6.049   5.341  0.1337 -0.1017  0.1031
  213POPC   GL2 3041   1.612   5.740   5.377 -0.1409 -0.0580  0.0042
  213POPC   C1A 3042   1.110   6.180   5.718  0.3804  0.2168 -0.0331
  213POPC   D2A 3043   0.921   6.007   6.016  0.0385 -0.0058 -0.0891
  213POPC   C3A 3044   0.473   6.086   6.060 -0.0257 -0.0165  0.0558
  213POPC   C4A 3045   0.135   5.786   6.005  0.2401 -0.4468  0.0385
  213POPC   C1B 3046   1.489   5.871   5.789 -0.1242 -0.0116 -0.2640
  213POPC   C2B 3047   1.604   5.726   6.235  0.0950 -0.1877  0.0472
  213POPC   C3B 3048   1.713   5.363   6.544  0.1119  0.0896 -0.2245
  213POPC   C4B 3049   1.935   5.165   6.735  0.2052  0.1404  0.0879
  214POPC   NC3 3050   6.586   1.625   3.656 -0.1023  0.4489 -0.0626
  214POPC   PO4 3051   6.337   1.467   4.026 -0.0536 -0.0505  0.0563
  214POPC   GL1 3052   6.463   1.591   4.568 -0.0283 -0.0748  0.0860
  214POPC   GL2 3053   6.505   1.325   4.738  0.0404  0.0392  0.2550
  214POPC   C1A 3054   6.965   1.567   4.682  0.0888  0.2457 -0.0033
  214POPC   D2A 3055   7.211   1.287   4.755  0.0686  0.0036 -0.0543
  214POPC   C3A 3056   7.287   1.302   5.225  0.1917 -0.0848 -0.1848
  214POPC   C4A 3057   7.431   1.431   5.584  0.2653 -0.0037 -0.1370
  214POPC   C1B 3058   6.399   1.104   5.245 -0.3250 -0.0588  0.1683
  214POPC   C2B 3059   6.162   0.933   5.613 -0.0161 -0.0023 -0.1244
  214POPC   C3B 3060   5.884   0.842   6.011  0.1449 -0.0056  0.0100
  214POPC   C4B 3061   6.011   0.958   6.494  0.0787 -0.1127 -0.1035
  215POPC   NC3 3062   4.105  10.058   4.634 -0.1092  0.0404 -0.0162
  215POPC   PO4 3063   4.451  10.336   4.646  0.2912 -0.2533  0.0151
  215POPC   GL1 3064   4.502  10.166   5.051  0.0896  0.0038 -0.2844
  215POPC   GL2 3065   4.213  10.242   5.206  0.2202  0.3413 -0.2942
  215POPC   C1A 3066   4.454   9.910   5.476  0.2381  0.1141 -0.0320
  215POPC   D2A 3067   4.488   9.494   5.573 -0.1199 -0.0676  0.1783
  215POPC   C3A 3068   4.387   9.447   5.958  0.0523  0.0317  0.0604
  215POPC   C4A 3069   4.383   9.681   6.372 -0.0574  0.1189  0.0835
  215POPC   C1B 3070   3.867  10.354   5.425  0.3453 -0.0071 -0.1766
  215POPC   C2B 3071   3.654  10.428   5.694  0.3291 -0.0685  0.0475
  215POPC   C3B 3072   3.354  10.638   5.946 -0.0572 -0.3516 -0.1270
  215POPC   C4B 3073   3.155  10.592   6.409 -0.1489  0.1501 -0.1467
  216POPC   NC3 3074   2.773   6.860   4.624 -0.2299 -0.1700  0.2272
  216POPC   PO4 3075   2.757   7.183   4.944 -0.2597  0.0447  0.0868
  216POPC   GL1 3076   2.669   7.207   5.354 -0.2003  0.0355  0.4818
  216POPC   GL2 3077   2.455   7.463   5.350 -0.1755  0.1283  0.0153
  216POPC   C1A 3078   2.760   7.223   5.794 -0.1074 -0.1760  0.2458
  216POPC   D2A 3079   2.982   7.308   6.136  0.0785  0.0686 -0.3809
  216POPC   C3A 3080   3.382   7.434   6.376 -0.3198 -0.1726 -0.0484
  216POPC   C4A 3081   3.472   7.756   6.655  0.2727 -0.2675  0.2037
  216POPC   C1B 3082   2.320   7.627   5.649 -0.1943 -0.0503 -0.1608
  216POPC   C2B 3083   2.499   7.873   6.038 -0.1353 -0.1398  0.1591
  216POPC   C3B 3084   2.496   8.115   6.468  0.1291 -0.1563  0.0275
  216POPC   C4B 3085   2.428   8.442   6.801  0.5666  0.1110  0.0330
  217POPC   NC3 3086   4.488   4.775   4.876 -0.2190  0.3824  0.3901
  217POPC   PO4 3087   4.414   4.452   5.097 -0.3015  0.1498 -0.1948
  217POPC   GL1 3088   4.440   4.607   5.418  0.2307  0.0418  0.2379
  217POPC   GL2 3089   4.152   4.454   5.542  0.0712  0.1084 -0.2915
  217POPC   C1A 3090   4.646   4.902   5.693  0.0267 -0.1317  0.1450
  217POPC   D2A 3091   4.468   5.204   6.003 -0.0700  0.3443  0.0504
  217POPC   C3A 3092   4.063   5.285   6.057 -0.1862  0.1691  0.1212
  217POPC   C4A 3093   3.711   5.113   5.980 -0.2043  0.0282 -0.0685
  217POPC   C1B 3094   4.162   4.813   5.823  0.1090  0.1375  0.0641
  217POPC   C2B 3095   3.888   4.845   6.366  0.0685  0.2545 -0.0823
  217POPC   C3B 3096   4.083   4.675   6.786 -0.0340 -0.0145 -0.1783
  217POPC   C4B 3097   3.989   4.803   7.167 -0.2219  0.2289 -0.1581
  218POPC   NC3 3098   6.596   5.590   4.662  0.0172 -0.2098  0.2534
  218POPC   PO4 3099   6.318   5.576   5.022 -0.4829 -0.0032  0.0427
  218POPC   GL1 3100   6.546   5.560   5.334  0.0987 -0.0152  0.0689
  218POPC   GL2 3101   6.430   5.713   5.553 -0.1374  0.1854 -0.2079
  218POPC   C1A 3102   6.986   5.717   5.603  0.1951 -0.0033  0.2217
  218POPC   D2A 3103   7.182   6.130   5.638 -0.2365  0.0915  0.2437
  218POPC   C3A 3104   7.224   6.248   6.089  0.1563 -0.2058  0.3712
  218POPC   C4A 3105   6.920   6.482   6.525 -0.0615  0.2366  0.1580
  218POPC   C1B 3106   6.558   5.537   5.932 -0.2328 -0.0077  0.0678
  218POPC   C2B 3107   6.815   5.601   6.262 -0.1076  0.2256 -0.0884
  218POPC   C3B 3108   6.895   5.462   6.668  0.0290  0.1199  0.2380
  218POPC   C4B 3109   6.765   5.149   6.987  0.3793 -0.2679 -0.2918
  219POPC   NC3 3110   7.062   6.234   4.397  0.0655 -0.1313 -0.0834
  219POPC   PO4 3111   7.099   5.739   4.601 -0.0465  0.0916  0.0288
  219POPC   GL1 3112   7.114   5.434   4.866  0.0904  0.1618  0.1285
  219POPC   GL2 3113   7.162   5.040   4.908  0.0142 -0.2071  0.0059
  219POPC   C1A 3114   6.916   5.242   5.337  0.1516  0.1079  0.2597
  219POPC   D2A 3115   6.927   5.178   5.794  0.0666 -0.1039  0.3447
  219POPC   C3A 3116   6.711   5.076   6.085 -0.0075 -0.0900  0.0192
  219POPC   C4A 3117   6.683   5.018   6.516  0.2409  0.0994  0.0189
  219POPC   C1B 3118   7.468   5.275   5.212 -0.0143  0.0379  0.1671
  219POPC   C2B 3119   7.395   5.426   5.660  0.3193  0.5388 -0.1975
  219POPC   C3B 3120   7.330   5.572   6.014 -0.2214  0.1294  0.0866
  219POPC   C4B 3121   7.210   5.855   6.456 -0.2093 -0.0529  0.0986
  220POPC   NC3 3122   4.052   2.603   5.283 -0.0060 -0.1744 -0.0017
  220POPC   PO4 3123   4.550   2.599   5.315 -0.1129  0.0458  0.3294
  220POPC   GL1 3124   4.454   2.499   5.664  0.1362  0.0521  0.0918
  220POPC   GL2 3125   4.207   2.651   5.786  0.1640  0.0128  0.3388
  220POPC   C1A 3126   4.749   2.513   6.029 -0.0796 -0.5208  0.0920
  220POPC   D2A 3127   4.980   2.502   6.341 -0.2219  0.2071  0.0944
  220POPC   C3A 3128   5.004   2.720   6.653 -0.1434 -0.1963 -0.0159
  220POPC   C4A 3129   5.339   2.969   6.789 -0.0163  0.0444 -0.2292
  220POPC   C1B 3130   3.988   2.960   6.002  0.0081  0.0872 -0.1047
  220POPC   C2B 3131   3.789   3.346   6.228  0.0665 -0.0215 -0.1125
  220POPC   C3B 3132   3.591   3.465   6.577  0.0393  0.3651 -0.2516
  220POPC   C4B 3133   3.282   3.665   6.855 -0.2009 -0.0396 -0.0218
  221POPC   NC3 3134   4.724   0.984   4.924 -0.0531 -0.1445  0.1909
  221POPC   PO4 3135   4.358   0.952   4.778  0.0937 -0.2019 -0.0523
  221POPC   GL1 3136   4.330   1.192   5.221  0.0554 -0.0154 -0.0340
  221POPC   GL2 3137   4.618   1.067   5.366 -0.0983 -0.0127  0.1376
  221POPC   C1A 3138   4.001   1.278   5.500  0.3740  0.4866 -0.2550
  221POPC   D2A 3139   3.763   1.565   5.784  0.0398  0.1070 -0.3740
  221POPC   C3A 3140   3.845   1.749   6.147  0.0634 -0.0125 -0.3485
  221POPC   C4A 3141   3.796   2.044   6.534 -0.1863  0.1043  0.0410
  221POPC   C1B 3142   4.507   1.023   5.790  0.1133 -0.1698 -0.0960
  221POPC   C2B 3143   4.559   1.154   6.231  0.0489  0.4443  0.5641
  221POPC   C3B 3144   4.533   1.321   6.692 -0.1500  0.0519 -0.0185
  221POPC   C4B 3145   4.317   1.270   7.049 -0.1520 -0.1252  0.1592
  222POPC   NC3 3146   7.659   1.175   3.864 -0.2577  0.2625 -0.1396
  222POPC   PO4 3147   7.794   0.850   4.072 -0.0080  0.0658 -0.0772
  222POPC   GL1 3148   8.078   0.937   4.358 -0.0190  0.1378 -0.2356
  222POPC   GL2 3149   8.318   1.032   4.284 -0.1936  0.1542  0.0336
  222POPC   C1A 3150   8.210   0.983   4.770  0.2375 -0.1572 -0.0631
  222POPC   D2A 3151   8.182   1.009   5.215  0.0106 -0.3153 -0.1287
  222POPC   C3A 3152   8.066   0.738   5.420 -0.0046 -0.1897 -0.0392
  222POPC   C4A 3153   8.000   0.329   5.474  0.0433  0.1135 -0.2326
  222POPC   C1B 3154   8.600   1.261   4.671  0.1082  0.0744  0.0190
  222POPC   C2B 3155   8.816   1.410   5.044  0.1198  0.0817 -0.0720
  222POPC   C3B 3156   9.104   1.523   5.185  0.1498 -0.3574  0.0406
  222POPC   C4B 3157   9.189   1.916   5.279  0.2211  0.0507 -0.0118
  223POPC   NC3 3158   1.623   1.308   4.090  0.1058 -0.2023 -0.2691
  223POPC   PO4 3159   1.270   0.927   4.240  0.2023  0.0439 -0.0079
  223POPC   GL1 3160   1.154   1.246   4.706 -0.1933  0.1532  0.1240
  223POPC   GL2 3161   0.969   1.032   5.001  0.0140  0.1899  0.0888
  223POPC   C1A 3162   0.986   1.509   5.119 -0.1481  0.1010  0.0519
  223POPC   D2A 3163   0.714   1.705   5.440 -0.0418 -0.1492  0.2453
  223POPC   C3A 3164   0.823   1.759   5.933  0.0516  0.0051  0.0113
  223POPC   C4A 3165   1.187   1.715   6.207 -0.2249 -0.0842  0.2501
  223POPC   C1B 3166   0.790   1.136   5.457  0.0718  0.0473  0.3558
  223POPC   C2B 3167   0.674   1.314   5.858  0.0490  0.0306  0.1139
  223POPC   C3B 3168   0.638   1.303   6.253  0.0963 -0.3789  0.0304
  223POPC   C4B 3169   0.428   1.414   6.630  0.0178  0.0264  0.0137
  224POPC   NC3 3170   0.510   5.553   4.541  0.0925 -0.1984 -0.0924
  224POPC   PO4 3171   0.608   5.818   4.910 -0.0538 -0.1075 -0.0006
  224POPC   GL1 3172   0.648   5.712   5.274 -0.0509  0.2300 -0.0556
  224POPC   GL2 3173   0.630   5.328   5.429  0.0405  0.2334 -0.0433
  224POPC   C1A 3174   0.608   5.743   5.706  0.1636  0.3330 -0.2327
  224POPC   D2A 3175   0.723   5.574   6.148  0.0069 -0.1588 -0.3916
  224POPC   C3A 3176   0.432   5.732   6.457 -0.2804 -0.1129 -0.0421
  224POPC   C4A 3177   0.075   6.070   6.594  0.2137  0.0808  0.0649
  224POPC   C1B 3178   0.761   4.998   5.791 -0.2142  0.0852  0.2126
  224POPC   C2B 3179   0.577   4.743   6.105  0.2441  0.4921  0.0086
  224POPC   C3B 3180   0.439   4.698   6.548  0.2724 -0.2716  0.3020
  224POPC   C4B 3181   0.395   4.363   6.892 -0.1657  0.1688  0.0191
  225POPC   NC3 3182   1.595   4.424   4.921  0.0623  0.2098  0.0851
  225POPC   PO4 3183   1.429   4.838   4.925 -0.1295 -0.0735 -0.0622
  225POPC   GL1 3184   1.357   4.827   5.308 -0.0650 -0.1900  0.0072
  225POPC   GL2 3185   1.051   4.931   5.308  0.1516 -0.1374  0.2693
  225POPC   C1A 3186   1.364   4.889   5.800  0.1671 -0.1021 -0.0261
  225POPC   D2A 3187   1.137   4.902   6.128  0.1113 -0.3113 -0.2705
  225POPC   C3A 3188   0.964   4.520   6.395  0.0014 -0.1464  0.0971
  225POPC   C4A 3189   0.851   4.194   6.666 -0.0674  0.1976 -0.1946
  225POPC   C1B 3190   0.766   4.502   5.610 -0.0386 -0.0687 -0.3077
  225POPC   C2B 3191   0.737   4.269   6.049 -0.1732 -0.2568 -0.2597
  225POPC   C3B 3192   0.446   4.255   6.326  0.0324 -0.1284  0.3354
  225POPC   C4B 3193   0.159   3.995   6.535 -0.0327  0.1481 -0.0042
  226POPC   NC3 3194   8.984   6.150   4.961 -0.0183  0.0669  0.1416
  226POPC   PO4 3195   9.074   6.486   5.064  0.2160 -0.2280 -0.4918
  226POPC   GL1 3196   8.883   6.427   5.419  0.0754 -0.2366  0.0690
  226POPC   GL2 3197   8.887   6.756   5.608 -0.0956  0.1631 -0.0088
  226POPC   C1A 3198   8.468   6.445   5.675 -0.0721 -0.0687 -0.1678
  226POPC   D2A 3199   8.208   6.589   6.005 -0.0355  0.2370 -0.0492
  226POPC   C3A 3200   7.964   6.475   6.391 -0.1522 -0.0229 -0.1013
  226POPC   C4A 3201   7.580   6.378   6.666  0.1576  0.2065  0.0705
  226POPC   C1B 3202   8.781   6.719   6.126  0.0262  0.0555  0.0751
  226POPC   C2B 3203   8.588   6.377   6.272  0.1043 -0.2851 -0.2117
  226POPC   C3B 3204   8.686   5.933   6.258 -0.2186  0.1879  0.0392
  226POPC   C4B 3205   8.788   5.510   6.146 -0.2675  0.2186 -0.0422
  227POPC   NC3 3206   7.164   8.263   4.989  0.1462 -0.0749 -0.1054
  227POPC   PO4 3207   6.810   8.563   4.984 -0.0237 -0.1382 -0.3088
  227POPC   GL1 3208   6.984   8.644   5.430  0.0140  0.1088 -0.0646
  227POPC   GL2 3209   7.239   8.711   5.376 -0.3133  0.3177  0.2470
  227POPC   C1A 3210   6.905   8.758   5.869 -0.1475 -0.0692 -0.1407
  227POPC   D2A 3211   6.820   8.864   6.203  0.2612  0.1444 -0.3228
  227POPC   C3A 3212   6.979   8.749   6.563 -0.0699 -0.1129 -0.1933
  227POPC   C4A 3213   7.134   8.381   6.756 -0.0562  0.0200  0.1575
  227POPC   C1B 3214   7.274   9.099   5.674  0.1244 -0.0496 -0.0945
  227POPC   C2B 3215   7.310   9.459   5.818  0.1040 -0.1277  0.1528
  227POPC   C3B 3216   7.137   9.812   6.027 -0.1731 -0.1380  0.0325
  227POPC   C4B 3217   7.044  10.217   6.162 -0.4661 -0.1857 -0.0753
  228POPC   NC3 3218   9.196   5.908   4.458  0.3385  0.1540 -0.0262
  228POPC   PO4 3219   9.285   5.758   4.854 -0.0049  0.0348 -0.2052
  228POPC   GL1 3220   9.295   5.521   5.257  0.0296  0.0094 -0.0626
  228POPC   GL2 3221   9.192   5.213   5.202  0.0403 -0.1744  0.5199
  228POPC   C1A 3222   9.174   5.517   5.726  0.0691  0.2566 -0.2392
  228POPC   D2A 3223   9.134   5.789   6.136 -0.2400  0.1048  0.0408
  228POPC   C3A 3224   9.107   5.546   6.532  0.0243  0.1338 -0.2249
  228POPC   C4A 3225   8.686   5.543   6.632  0.1657 -0.2513  0.1861
  228POPC   C1B 3226   9.290   4.946   5.603 -0.0937 -0.0027 -0.1514
  228POPC   C2B 3227   9.193   5.142   6.029  0.0960 -0.0591 -0.0171
  228POPC   C3B 3228   9.104   5.034   6.491 -0.1207 -0.3024 -0.0060
  228POPC   C4B 3229   9.043   5.041   6.978 -0.3741  0.0143 -0.2834
  229POPC   NC3 3230  10.484   9.353   4.705 -0.0224 -0.0457 -0.1423
  229POPC   PO4 3231  10.347   8.925   4.476 -0.2854  0.0589  0.2592
  229POPC   GL1 3232  10.240   8.995   5.037  0.2802  0.0020  0.4598
  229POPC   GL2 3233  10.387   9.251   5.258  0.1675  0.0051 -0.2684
  229POPC   C1A 3234  10.007   8.848   5.435  0.1496  0.3690  0.1720
  229POPC   D2A 3235  10.101   8.740   5.846  0.0884  0.3618  0.2556
  229POPC   C3A 3236   9.982   8.388   6.036  0.0104 -0.0318  0.3043
  229POPC   C4A 3237   9.762   8.092   5.804  0.0940  0.0540  0.0916
  229POPC   C1B 3238  10.369   9.479   5.725 -0.0487  0.0628 -0.2143
  229POPC   C2B 3239  10.317   9.613   6.072 -0.0070  0.0960 -0.0713
  229POPC   C3B 3240  10.426  10.006   6.313 -0.4275  0.1732 -0.2450
  229POPC   C4B 3241  10.702  10.264   6.544  0.0588 -0.0701  0.0620
  230POPC   NC3 3242   7.370   2.168   3.455  0.1189  0.2164  0.0796
  230POPC   PO4 3243   7.448   2.277   3.844 -0.0389 -0.1434 -0.1211
  230POPC   GL1 3244   7.619   2.161   4.209  0.1110 -0.1574 -0.0227
  230POPC   GL2 3245   7.688   2.367   4.492  0.1087 -0.0400 -0.0997
  230POPC   C1A 3246   7.360   1.885   4.537  0.3232 -0.0874 -0.0308
  230POPC   D2A 3247   7.450   1.695   4.924 -0.0273  0.3574 -0.2344
  230POPC   C3A 3248   7.704   1.819   5.282 -0.0082 -0.0044 -0.0013
  230POPC   C4A 3249   7.817   1.952   5.671  0.2166  0.0933 -0.1883
  230POPC   C1B 3250   7.515   2.257   4.823  0.0967 -0.2891  0.1801
  230POPC   C2B 3251   7.294   2.133   5.141 -0.1857  0.2936  0.0552
  230POPC   C3B 3252   7.179   1.816   5.386  0.0350  0.2490 -0.1486
  230POPC   C4B 3253   6.917   1.484   5.705  0.2279  0.2288  0.1328
  231POPC   NC3 3254   7.373   9.613   4.370 -0.1269 -0.4191 -0.1192
  231POPC   PO4 3255   7.448  10.043   4.415  0.1924 -0.2383  0.0119
  231POPC   GL1 3256   7.695  10.419   4.617  0.2099  0.0995 -0.0491
  231POPC   GL2 3257   7.572  10.657   4.833 -0.2561 -0.0393  0.2253
  231POPC   C1A 3258   8.040  10.569   4.973 -0.0892 -0.4509 -0.0170
  231POPC   D2A 3259   8.230  10.376   5.234  0.0479  0.0473  0.1306
  231POPC   C3A 3260   8.042  10.312   5.649  0.0755 -0.0438  0.2250
  231POPC   C4A 3261   8.058  10.378   6.093 -0.0287  0.0012  0.2122
  231POPC   C1B 3262   7.672  10.888   5.113 -0.0491  0.0116  0.1645
  231POPC   C2B 3263   7.468  11.028   5.476  0.0738 -0.0695 -0.1033
  231POPC   C3B 3264   7.133  11.313   5.494 -0.0675  0.2594  0.1177
  231POPC   C4B 3265   6.717  11.268   5.477 -0.1098 -0.0380  0.0674
  232POPC   NC3 3266   9.555   4.668   4.138  0.0451  0.0808  0.0782
  232POPC   PO4 3267   9.248   4.757   4.417  0.0290  0.2869  0.2590
  232POPC   GL1 3268   9.228   4.540   4.780 -0.1063  0.3317  0.0905
  232POPC   GL2 3269   9.027   4.666   4.962 -0.0365  0.0752 -0.1578
  232POPC   C1A 3270   9.389   4.287   4.906 -0.0146  0.0061 -0.2212
  232POPC   D2A 3271   9.410   4.017   5.327  0.1595  0.0839  0.0680
  232POPC   C3A 3272   9.511   3.591   5.547 -0.0707  0.0508  0.1398
  232POPC   C4A 3273   9.477   3.259   5.779 -0.0725  0.2375 -0.2377
  232POPC   C1B 3274   9.256   4.518   5.363 -0.0464 -0.1480  0.3881
  232POPC   C2B 3275   9.075   4.199   5.641 -0.1645  0.1797  0.3348
  232POPC   C3B 3276   8.781   3.850   5.862  0.1148 -0.3452  0.1203
  232POPC   C4B 3277   8.701   3.389   5.860  0.0551 -0.1248  0.0368
  233POPC   NC3 3278   5.356  10.215   4.823 -0.1970  0.2067  0.2486
  233POPC   PO4 3279   4.972  10.121   5.020 -0.0654  0.1254  0.0201
  233POPC   GL1 3280   4.992  10.194   5.453  0.0734  0.4042 -0.0289
  233POPC   GL2 3281   4.816  10.377   5.574  0.4301 -0.1003 -0.0000
  233POPC   C1A 3282   5.153  10.198   5.899 -0.1739 -0.1070 -0.2329
  233POPC   D2A 3283   5.262   9.870   6.148  0.0433 -0.0938  0.2963
  233POPC   C3A 3284   5.647   9.815   6.117  0.1163 -0.0375 -0.0477
  233POPC   C4A 3285   6.046   9.892   5.976  0.1989 -0.0794 -0.1458
  233POPC   C1B 3286   4.992  10.647   5.754  0.1177  0.1348  0.2215
  233POPC   C2B 3287   4.811  10.602   6.190  0.1556 -0.2308  0.0092
  233POPC   C3B 3288   4.918  10.590   6.560  0.2028  0.0855  0.2524
  233POPC   C4B 3289   4.762  10.619   6.987  0.1376  0.5686 -0.2293
  234POPC   NC3 3290   1.080   3.795   4.424 -0.1302 -0.1790 -0.0772
  234POPC   PO4 3291   1.175   3.350   4.298  0.0783 -0.1509 -0.0519
  234POPC   GL1 3292   0.839   3.417   4.705  0.0444  0.1053  0.0099
  234POPC   GL2 3293   0.789   3.644   4.828  0.2916  0.0060  0.0441
  234POPC   C1A 3294   0.716   3.029   4.881  0.3173 -0.0590  0.2929
  234POPC   D2A 3295   0.820   2.625   4.762  0.0061  0.0242 -0.0065
  234POPC   C3A 3296   0.756   2.332   4.974 -0.2970  0.0523  0.0516
  234POPC   C4A 3297   0.739   2.217   5.401 -0.4226 -0.3564  0.1898
  234POPC   C1B 3298   0.420   3.763   5.039 -0.4660 -0.2627 -0.2140
  234POPC   C2B 3299   0.143   3.731   5.318  0.0951  0.2821 -0.1559
  234POPC   C3B 3300  -0.035   3.788   5.757 -0.2430 -0.0571  0.1349
  234POPC   C4B 3301  -0.079   4.119   6.043 -0.3949  0.1658  0.4615
  235POPC   NC3 3302   7.507   5.276   4.582  0.2821 -0.2364 -0.1160
  235POPC   PO4 3303   7.875   4.879   4.448  0.2233 -0.1662  0.1649
  235POPC   GL1 3304   8.088   4.747   4.758  0.1627  0.2204 -0.0230
  235POPC   GL2 3305   7.965   4.967   5.067 -0.0315  0.1413 -0.0152
  235POPC   C1A 3306   8.055   4.509   5.206  0.0602 -0.2891 -0.2323
  235POPC   D2A 3307   8.201   4.376   5.648 -0.1437 -0.0386 -0.0263
  235POPC   C3A 3308   8.111   4.279   6.083 -0.0689  0.2427  0.0349
  235POPC   C4A 3309   8.157   4.465   6.469 -0.0222  0.2162  0.0776
  235POPC   C1B 3310   7.625   4.769   5.257 -0.1719  0.0315  0.3458
  235POPC   C2B 3311   7.762   4.574   5.655 -0.1120  0.0006  0.1073
  235POPC   C3B 3312   7.675   4.545   6.142 -0.0765  0.0057 -0.1530
  235POPC   C4B 3313   7.439   4.669   6.508  0.0753  0.2733  0.0663
  236POPC   NC3 3314  10.183   0.498   4.215 -0.1035  0.0409 -0.0760
  236POPC   PO4 3315  10.101   1.007   4.083 -0.2161  0.1137  0.2183
  236POPC   GL1 3316  10.040   0.843   4.598 -0.3361  0.0199  0.0117
  236POPC   GL2 3317  10.065   0.450   4.649 -0.2427  0.1697  0.0561
  236POPC   C1A 3318  10.080   0.821   5.137  0.0137  0.1144  0.0872
  236POPC   D2A 3319   9.965   1.237   5.432  0.1081  0.1023 -0.0226
  236POPC   C3A 3320  10.144   1.241   5.875  0.0175 -0.0170 -0.3102
  236POPC   C4A 3321  10.342   1.484   6.256 -0.2203  0.0579  0.1686
  236POPC   C1B 3322   9.994   0.355   5.088  0.0693 -0.1107  0.0752
  236POPC   C2B 3323   9.633   0.630   5.419  0.1268 -0.3105  0.0645
  236POPC   C3B 3324   9.276   0.538   5.819  0.1827 -0.2350 -0.0530
  236POPC   C4B 3325   8.935   0.291   5.905 -0.1845  0.4439 -0.0925
  237POPC   NC3 3326   2.024   4.061   4.627 -0.0114 -0.1169 -0.0170
  237POPC   PO4 3327   1.892   3.621   4.767 -0.0421 -0.1289  0.1090
  237POPC   GL1 3328   1.663   3.322   5.087  0.1484  0.2910 -0.1390
  237POPC   GL2 3329   1.940   3.508   5.330 -0.1712 -0.1654 -0.1293
  237POPC   C1A 3330   1.563   3.295   5.610 -0.0257 -0.2596 -0.0126
  237POPC   D2A 3331   1.378   3.691   5.949  0.1337 -0.0331 -0.0993
  237POPC   C3A 3332   1.238   3.582   6.321 -0.1720  0.1205  0.0931
  237POPC   C4A 3333   0.833   3.742   6.561  0.1546 -0.1348 -0.0923
  237POPC   C1B 3334   1.792   3.777   5.628  0.0411 -0.0337  0.0062
  237POPC   C2B 3335   1.939   4.081   5.838  0.2233  0.1562  0.2905
  237POPC   C3B 3336   2.098   4.315   6.251  0.2134  0.2917  0.1550
  237POPC   C4B 3337   2.119   4.089   6.695 -0.2503 -0.1345  0.0380
  238POPC   NC3 3338   0.992   1.943   4.205  0.0895  0.0226 -0.1452
  238POPC   PO4 3339   0.604   1.701   4.180 -0.1331  0.2173 -0.1653
  238POPC   GL1 3340   0.680   1.692   4.525 -0.1496 -0.2543 -0.2039
  238POPC   GL2 3341   0.636   1.457   4.664 -0.0542  0.0311 -0.0856
  238POPC   C1A 3342   0.661   1.877   4.929 -0.3435 -0.0432  0.0557
  238POPC   D2A 3343   0.312   1.922   5.246  0.1579  0.0168  0.1594
  238POPC   C3A 3344   0.306   1.794   5.670 -0.1628  0.3349  0.1961
  238POPC   C4A 3345   0.336   1.675   6.109 -0.0204 -0.0470 -0.0736
  238POPC   C1B 3346   0.442   1.471   5.124 -0.0420  0.1848  0.0833
  238POPC   C2B 3347   0.348   1.296   5.496 -0.1213 -0.0413  0.0414
  238POPC   C3B 3348   0.110   1.234   5.811  0.1112  0.0281 -0.3160
  238POPC   C4B 3349   0.152   1.115   6.324 -0.1403  0.0732  0.0745
  239POPC   NC3 3350   5.953   7.622   4.575 -0.1018 -0.1491 -0.0823
  239POPC   PO4 3351   6.092   7.722   5.030 -0.2685  0.3044 -0.1661
  239POPC   GL1 3352   6.089   7.979   5.336  0.2552 -0.3348  0.0892
  239POPC   GL2 3353   6.168   8.275   5.361  0.2061  0.1476 -0.4408
  239POPC   C1A 3354   6.107   7.862   5.723  0.1046  0.3080 -0.2623
  239POPC   D2A 3355   6.251   7.574   6.117 -0.0568 -0.0867  0.1973
  239POPC   C3A 3356   6.339   7.218   5.865  0.1513 -0.3869  0.1110
  239POPC   C4A 3357   6.348   6.824   5.730 -0.1331  0.0189 -0.2725
  239POPC   C1B 3358   6.471   8.262   5.685  0.2101  0.0289  0.2267
  239POPC   C2B 3359   6.568   8.420   6.035 -0.0066  0.0565  0.0305
  239POPC   C3B 3360   6.524   8.535   6.478  0.1202  0.0967 -0.0052
  239POPC   C4B 3361   6.657   8.445   6.854  0.0703 -0.0891 -0.0467
  240POPC   NC3 3362   4.245   0.651   4.252 -0.0407  0.1484 -0.2658
  240POPC   PO4 3363   4.001   0.619   4.575  0.2515 -0.0652  0.0673
  240POPC   GL1 3364   3.934   0.788   5.011  0.2858  0.1362 -0.2674
  240POPC   GL2 3365   4.220   0.629   5.189 -0.0101 -0.1741  0.1124
  240POPC   C1A 3366   3.926   0.827   5.549 -0.0730  0.0511  0.3027
  240POPC   D2A 3367   4.149   0.816   6.008  0.1268  0.0430  0.0929
  240POPC   C3A 3368   4.330   0.651   6.234  0.1007  0.1430 -0.0953
  240POPC   C4A 3369   4.649   0.532   6.530 -0.2628  0.1927 -0.4091
  240POPC   C1B 3370   4.430   0.557   5.505 -0.4548  0.0172 -0.1205
  240POPC   C2B 3371   4.534   0.350   5.893  0.1508  0.0300 -0.0302
  240POPC   C3B 3372   4.301   0.132   6.333  0.1200  0.0489 -0.3693
  240POPC   C4B 3373   4.155  -0.325   6.428 -0.0985  0.1906 -0.1044
  241POPC   NC3 3374   9.870   8.839   4.546  0.1574 -0.0624  0.3386
  241POPC   PO4 3375   9.991   9.259   4.636 -0.0228 -0.1232 -0.0570
  241POPC   GL1 3376   9.749   9.275   5.123 -0.0273 -0.0109  0.1384
  241POPC   GL2 3377   9.960   9.384   5.417  0.0287 -0.1516  0.0322
  241POPC   C1A 3378   9.482   9.342   5.445  0.0036  0.0915  0.2998
  241POPC   D2A 3379   9.257   9.224   5.874  0.2175 -0.1096  0.4585
  241POPC   C3A 3380   9.251   8.807   6.156 -0.0166 -0.4776  0.1464
  241POPC   C4A 3381   9.574   8.487   6.306 -0.1488  0.1850 -0.0171
  241POPC   C1B 3382   9.832   9.129   5.784 -0.2622 -0.2324 -0.0934
  241POPC   C2B 3383   9.787   8.959   6.200 -0.0638  0.0289 -0.1582
  241POPC   C3B 3384   9.684   8.859   6.594  0.1567 -0.2509  0.4278
  241POPC   C4B 3385   9.605   8.380   6.783 -0.0138  0.0237 -0.5130
  242POPC   NC3 3386   0.380   5.369   4.981 -0.0415 -0.0470 -0.2241
  242POPC   PO4 3387   0.208   5.037   4.593 -0.1951 -0.3507  0.0489
  242POPC   GL1 3388   0.025   4.831   5.091  0.3570 -0.1536  0.3947
  242POPC   GL2 3389   0.123   5.071   5.323  0.0180 -0.1352 -0.0395
  242POPC   C1A 3390  -0.138   4.694   5.415 -0.1040 -0.0461  0.1020
  242POPC   D2A 3391  -0.419   4.886   5.733  0.0109  0.1362  0.0798
  242POPC   C3A 3392  -0.394   4.877   6.178 -0.1386 -0.3080 -0.0793
  242POPC   C4A 3393  -0.524   4.612   6.615  0.0096  0.1925  0.1081
  242POPC   C1B 3394   0.324   4.859   5.596 -0.1263  0.0571  0.1172
  242POPC   C2B 3395   0.066   4.889   5.957 -0.0299  0.0976 -0.1858
  242POPC   C3B 3396   0.038   4.630   6.212 -0.1778  0.0956 -0.1276
  242POPC   C4B 3397  -0.029   4.439   6.450 -0.0657 -0.3293  0.0501
  243POPC   NC3 3398   5.029   5.496   5.211 -0.0801 -0.2298 -0.3923
  243POPC   PO4 3399   5.237   5.185   5.086  0.3008  0.0038  0.2102
  243POPC   GL1 3400   5.155   5.180   5.652  0.2075  0.1638 -0.3403
  243POPC   GL2 3401   5.509   5.291   5.786 -0.1096 -0.0559  0.2046
  243POPC   C1A 3402   4.920   4.967   6.114 -0.3949 -0.1323 -0.0956
  243POPC   D2A 3403   4.621   4.868   6.374  0.1436 -0.0976  0.1812
  243POPC   C3A 3404   4.242   5.167   6.503  0.4130  0.1452 -0.1273
  243POPC   C4A 3405   4.128   5.584   6.411 -0.0139  0.0997  0.0226
  243POPC   C1B 3406   5.360   5.124   6.150  0.1892  0.1880 -0.0690
  243POPC   C2B 3407   5.454   5.054   6.598  0.0586  0.0593  0.0093
  243POPC   C3B 3408   5.407   5.425   6.866 -0.2824 -0.0634  0.1589
  243POPC   C4B 3409   5.528   5.501   7.331  0.0426 -0.1765 -0.0511
  244POPC   NC3 3410   6.006   6.747   5.131 -0.0649  0.1272  0.1739
  244POPC   PO4 3411   5.657   6.464   5.362  0.0155 -0.2296  0.3851
  244POPC   GL1 3412   5.620   6.139   5.695 -0.0074  0.2943 -0.3627
  244POPC   GL2 3413   5.800   6.345   5.898  0.2863 -0.2684 -0.0608
  244POPC   C1A 3414   5.255   6.239   5.958  0.1504  0.1407 -0.1119
  244POPC   D2A 3415   4.952   6.549   5.997 -0.2804  0.1893 -0.0410
  244POPC   C3A 3416   5.004   7.022   6.009  0.0136 -0.3157  0.0689
  244POPC   C4A 3417   4.732   7.379   6.100  0.1377  0.0441 -0.0493
  244POPC   C1B 3418   6.046   6.659   6.059 -0.1892 -0.1556 -0.1742
  244POPC   C2B 3419   5.953   6.774   6.538 -0.0399  0.0605 -0.1059
  244POPC   C3B 3420   5.714   7.140   6.719 -0.0870 -0.2647  0.1238
  244POPC   C4B 3421   5.471   7.529   6.583  0.1451  0.0037  0.0014
  245POPC   NC3 3422   6.421   0.992   4.256  0.2723 -0.0096  0.2595
  245POPC   PO4 3423   6.567   0.576   4.432  0.0584 -0.1884  0.1325
  245POPC   GL1 3424   6.925   0.729   4.613  0.0552  0.2018  0.2836
  245POPC   GL2 3425   6.835   0.981   4.584 -0.0441  0.0130  0.0651
  245POPC   C1A 3426   7.081   0.697   5.038 -0.1984  0.4862  0.1261
  245POPC   D2A 3427   6.945   0.341   5.382 -0.3247 -0.2897 -0.1227
  245POPC   C3A 3428   7.058   0.483   5.817  0.0157 -0.0198  0.0549
  245POPC   C4A 3429   6.827   0.744   5.970 -0.3003  0.3248  0.0719
  245POPC   C1B 3430   6.814   1.108   4.991  0.2760  0.0041 -0.0497
  245POPC   C2B 3431   6.759   1.528   5.188  0.1341  0.3201 -0.2146
  245POPC   C3B 3432   6.549   1.828   5.466 -0.2722 -0.2375 -0.0562
  245POPC   C4B 3433   6.160   2.018   5.539 -0.1918 -0.1424 -0.1903
  246POPC   NC3 3434   3.661   1.219   4.941  0.0268  0.0943  0.2042
  246POPC   PO4 3435   3.542   1.793   4.874  0.3068  0.3037 -0.0076
  246POPC   GL1 3436   3.566   1.846   5.361  0.2187 -0.1024  0.0691
  246POPC   GL2 3437   3.491   1.511   5.423  0.0304  0.0855  0.1723
  246POPC   C1A 3438   3.648   2.069   5.748  0.0836 -0.0695  0.0990
  246POPC   D2A 3439   3.482   2.074   6.172  0.3780 -0.1169  0.1285
  246POPC   C3A 3440   3.611   2.492   6.440  0.0175  0.2454  0.0379
  246POPC   C4A 3441   3.522   2.870   6.442 -0.0462 -0.1997 -0.0061
  246POPC   C1B 3442   3.265   1.615   5.806 -0.1172 -0.0724 -0.0720
  246POPC   C2B 3443   3.403   1.530   6.175  0.1085  0.0898  0.2396
  246POPC   C3B 3444   3.443   1.596   6.564 -0.0719 -0.1490  0.0818
  246POPC   C4B 3445   3.253   1.553   6.894 -0.2001 -0.1438 -0.0832
  247POPC   NC3 3446   4.172   3.080   5.208  0.0135  0.1050 -0.0964
  247POPC   PO4 3447   4.581   3.193   5.062  0.2322 -0.2413  0.0020
  247POPC   GL1 3448   4.664   3.150   5.430 -0.1478  0.0596  0.0723
  247POPC   GL2 3449   4.468   3.015   5.700 -0.0960 -0.0649  0.2847
  247POPC   C1A 3450   4.946   3.192   5.830  0.0470  0.0523  0.2250
  247POPC   D2A 3451   5.039   3.525   6.097  0.1900 -0.0297 -0.2355
  247POPC   C3A 3452   4.666   3.600   6.466  0.1376  0.2151  0.1473
  247POPC   C4A 3453   4.620   3.668   6.897 -0.2256 -0.1239 -0.1520
  247POPC   C1B 3454   4.577   2.962   6.065  0.0669 -0.1087  0.1521
  247POPC   C2B 3455   4.943   2.972   6.220  0.1685 -0.0589 -0.0313
  247POPC   C3B 3456   5.036   3.256   6.515  0.0400  0.1660  0.3336
  247POPC   C4B 3457   5.093   3.786   6.614 -0.1271  0.3002 -0.4310
  248POPC   NC3 3458   2.417   3.357   5.259  0.0864 -0.1874 -0.2530
  248POPC   PO4 3459   2.714   3.630   5.368 -0.2394 -0.0275  0.1372
  248POPC   GL1 3460   2.630   3.624   5.745 -0.0052 -0.2746  0.1917
  248POPC   GL2 3461   2.296   3.661   5.825 -0.2188  0.0408 -0.0719
  248POPC   C1A 3462   2.639   3.521   6.120 -0.2498  0.1950 -0.0574
  248POPC   D2A 3463   2.828   3.592   6.590 -0.1137  0.0439  0.0077
  248POPC   C3A 3464   2.671   3.276   6.900 -0.0257 -0.1631 -0.1423
  248POPC   C4A 3465   2.380   3.015   7.091 -0.3252 -0.3693 -0.2044
  248POPC   C1B 3466   1.903   3.420   6.075 -0.1645 -0.2215  0.2056
  248POPC   C2B 3467   1.802   3.454   6.555 -0.0325 -0.0252 -0.0816
  248POPC   C3B 3468   1.914   3.311   7.080  0.3462  0.1123  0.0605
  248POPC   C4B 3469   1.868   2.983   7.458  0.0461 -0.2193  0.0413
  249POPC   NC3 3470   3.249   9.157   4.235 -0.0119  0.1578  0.2902
  249POPC   PO4 3471   3.515   9.021   4.537 -0.0371  0.3530  0.0801
  249POPC   GL1 3472   3.572   8.904   4.913  0.1906 -0.1437 -0.1945
  249POPC   GL2 3473   3.908   9.114   5.119  0.0395  0.0436 -0.2303
  249POPC   C1A 3474   3.329   8.761   5.184 -0.0438  0.0549 -0.1053
  249POPC   D2A 3475   3.055   8.623   5.524 -0.0039 -0.3299 -0.2783
  249POPC   C3A 3476   3.406   8.463   5.776 -0.0992 -0.2013  0.1164
  249POPC   C4A 3477   3.785   8.412   5.890  0.1561 -0.0270  0.1574
  249POPC   C1B 3478   4.079   9.129   5.606 -0.1896  0.2123  0.1405
  249POPC   C2B 3479   4.144   8.993   6.035 -0.1575 -0.4649 -0.0775
  249POPC   C3B 3480   3.830   8.845   6.361  0.0352  0.0672 -0.0923
  249POPC   C4B 3481   3.903   8.567   6.661 -0.3226  0.0973  0.0395
  250POPC   NC3 3482  10.085   6.652   5.023  0.0628 -0.1035  0.0353
  250POPC   PO4 3483  10.444   6.392   4.920 -0.0601  0.0055 -0.0300
  250POPC   GL1 3484  10.432   6.445   5.500  0.1208  0.0168  0.0187
  250POPC   GL2 3485  10.145   6.710   5.599 -0.2454  0.1691 -0.1244
  250POPC   C1A 3486  10.522   6.278   5.884 -0.1222 -0.0549  0.0047
  250POPC   D2A 3487  10.739   6.429   6.314  0.0385  0.0805  0.1393
  250POPC   C3A 3488  11.060   6.762   6.502  0.2230  0.2078  0.3013
  250POPC   C4A 3489  11.446   6.814   6.409  0.0927  0.2137  0.3376
  250POPC   C1B 3490  10.216   6.844   5.948 -0.0661 -0.1340 -0.1329
  250POPC   C2B 3491  10.002   6.914   6.343  0.0317  0.2597  0.3736
  250POPC   C3B 3492   9.613   7.079   6.567  0.0007 -0.2391 -0.0081
  250POPC   C4B 3493   9.391   7.188   7.018  0.4820 -0.0855 -0.1260
  251POPC   NC3 3494   2.054   2.781   4.456  0.1821  0.1158 -0.1154
  251POPC   PO4 3495   2.169   2.474   4.827 -0.0248  0.1588  0.0099
  251POPC   GL1 3496   2.109   2.213   5.263  0.4077 -0.0371  0.0198
  251POPC   GL2 3497   1.948   1.967   5.185 -0.2150 -0.1691  0.2458
  251POPC   C1A 3498   2.098   2.077   5.722  0.0265  0.4438 -0.0959
  251POPC   D2A 3499   2.171   2.122   6.206 -0.2461  0.1295 -0.0964
  251POPC   C3A 3500   1.999   1.926   6.530 -0.4500  0.0185 -0.3262
  251POPC   C4A 3501   1.843   2.110   6.876 -0.1420  0.0049  0.0375
  251POPC   C1B 3502   1.645   2.305   5.489 -0.0813  0.1987 -0.0733
  251POPC   C2B 3503   1.769   2.382   5.914  0.2040 -0.3216  0.1412
  251POPC   C3B 3504   1.939   2.470   6.443  0.1722  0.3447 -0.3349
  251POPC   C4B 3505   1.869   2.608   6.805 -0.1746  0.1337 -0.1787
  252POPC   NC3 3506   8.394   6.118   4.542  0.1566 -0.0100 -0.0223
  252POPC   PO4 3507   7.977   6.057   4.892  0.0530 -0.2318 -0.1035
  252POPC   GL1 3508   7.954   5.789   5.231  0.0008  0.3242 -0.2875
  252POPC   GL2 3509   7.666   5.819   5.437 -0.1706  0.2676  0.2864
  252POPC   C1A 3510   8.041   5.325   5.394  0.2467 -0.1481  0.0650
  252POPC   D2A 3511   7.738   5.093   5.738  0.0939  0.1285  0.3005
  252POPC   C3A 3512   7.688   5.016   6.144  0.2221 -0.0614 -0.0115
  252POPC   C4A 3513   7.728   5.053   6.626  0.2139 -0.0759  0.0840
  252POPC   C1B 3514   8.020   5.671   5.800 -0.2742 -0.1910 -0.0819
  252POPC   C2B 3515   7.850   5.586   6.201 -0.1187  0.0961  0.1475
  252POPC   C3B 3516   7.526   5.425   6.403  0.2788 -0.2025  0.4275
  252POPC   C4B 3517   7.165   5.114   6.360 -0.0125  0.0838 -0.1062
  253POPC   NC3 3518   4.040   7.801   4.268 -0.1426  0.0525 -0.0435
  253POPC   PO4 3519   4.128   7.443   4.591 -0.0915  0.1706 -0.2884
  253POPC   GL1 3520   4.090   7.424   5.058 -0.0068  0.0196  0.0732
  253POPC   GL2 3521   4.313   7.496   5.280 -0.1768 -0.1632  0.1512
  253POPC   C1A 3522   3.895   7.149   5.296 -0.1892 -0.4218 -0.1594
  253POPC   D2A 3523   3.559   6.827   5.479 -0.0119 -0.1772  0.3071
  253POPC   C3A 3524   3.765   6.549   5.707  0.2347  0.0693 -0.2951
  253POPC   C4A 3525   3.586   6.171   5.841  0.2052  0.1111  0.1274
  253POPC   C1B 3526   4.359   7.399   5.662  0.1762  0.1525 -0.0712
  253POPC   C2B 3527   4.262   7.624   6.010  0.0618 -0.1480  0.3497
  253POPC   C3B 3528   4.426   7.625   6.501  0.3053 -0.1230  0.0100
  253POPC   C4B 3529   4.579   7.515   6.856 -0.0141 -0.0356 -0.1336
  254POPC   NC3 3530   3.468   4.401   4.797  0.2639  0.0192 -0.0190
  254POPC   PO4 3531   3.454   4.800   5.228  0.0693  0.0918 -0.0210
  254POPC   GL1 3532   3.203   4.579   5.652 -0.1705  0.0649  0.0260
  254POPC   GL2 3533   2.865   4.661   5.462  0.1154  0.0031  0.0810
  254POPC   C1A 3534   3.094   4.583   5.987  0.0525  0.1602 -0.3085
  254POPC   D2A 3535   2.726   4.527   6.142  0.2219 -0.1490  0.0470
  254POPC   C3A 3536   2.701   4.449   6.568 -0.2238  0.3016 -0.1685
  254POPC   C4A 3537   2.603   4.024   6.796 -0.0792  0.1177  0.1624
  254POPC   C1B 3538   2.665   4.822   5.737  0.1058  0.1677  0.2927
  254POPC   C2B 3539   2.365   4.954   6.037 -0.0244 -0.0562  0.3293
  254POPC   C3B 3540   2.294   5.157   6.381 -0.1825 -0.0903 -0.1575
  254POPC   C4B 3541   2.609   5.392   6.454 -0.1830 -0.0654  0.1660
  255POPC   NC3 3542   3.326   6.422   4.223  0.1653  0.2334 -0.0579
  255POPC   PO4 3543   3.177   6.592   4.663 -0.0473 -0.2253  0.2645
  255POPC   GL1 3544   3.075   6.848   5.058  0.0918  0.1698 -0.0660
  255POPC   GL2 3545   3.262   7.108   5.180 -0.1972  0.0696 -0.2062
  255POPC   C1A 3546   2.979   6.813   5.501  0.1879  0.1836  0.1259
  255POPC   D2A 3547   3.081   6.799   5.992 -0.0766  0.1581 -0.1015
  255POPC   C3A 3548   3.441   6.597   6.163  0.0932  0.0318  0.2559
  255POPC   C4A 3549   3.604   6.503   6.609  0.0737  0.1766  0.3778
  255POPC   C1B 3550   3.319   7.269   5.596 -0.0789 -0.0460 -0.0723
  255POPC   C2B 3551   3.453   7.083   6.039  0.2643 -0.0459  0.0179
  255POPC   C3B 3552   3.723   6.965   6.378  0.0993  0.0173  0.0525
  255POPC   C4B 3553   4.055   6.745   6.317  0.2409  0.0215  0.0947
  256POPC   NC3 3554   6.212  10.033   4.640  0.5412  0.0246 -0.0765
  256POPC   PO4 3555   6.075  10.009   4.993 -0.0564 -0.1229  0.3396
  256POPC   GL1 3556   6.190  10.183   5.391  0.0620 -0.1679  0.1357
  256POPC   GL2 3557   6.475  10.155   5.480  0.2119 -0.1661 -0.3296
  256POPC   C1A 3558   6.139  10.517   5.792  0.0372 -0.1901 -0.1153
  256POPC   D2A 3559   6.271  10.597   6.284  0.0899 -0.1954  0.0382
  256POPC   C3A 3560   6.102  10.497   6.655 -0.1034 -0.2156 -0.1834
  256POPC   C4A 3561   6.191  10.274   6.914 -0.2225 -0.0196  0.1219
  256POPC   C1B 3562   6.596  10.135   5.884 -0.0116 -0.1801  0.1200
  256POPC   C2B 3563   6.386  10.142   6.270 -0.2737 -0.2739 -0.1790
  256POPC   C3B 3564   6.416   9.716   6.546  0.2086 -0.0192  0.0391
  256POPC   C4B 3565   6.227   9.412   6.786 -0.1808  0.0488  0.5101
  257POPC   NC3 3566   6.369   3.499   4.500  0.0692 -0.0600  0.0227
  257POPC   PO4 3567   6.350   4.013   4.773 -0.0446  0.1516  0.0717
  257POPC   GL1 3568   6.346   4.103   5.186  0.1809  0.3122 -0.1383
  257POPC   GL2 3569   6.527   4.370   5.179 -0.1491 -0.1909  0.2100
  257POPC   C1A 3570   6.325   4.296   5.630 -0.4301  0.0961  0.1094
  257POPC   D2A 3571   6.267   4.345   6.059  0.1422 -0.2255 -0.1369
  257POPC   C3A 3572   6.550   4.364   6.428 -0.1793  0.1250 -0.2619
  257POPC   C4A 3573   6.852   4.162   6.456  0.1987 -0.2616  0.0134
  257POPC   C1B 3574   6.813   4.255   5.511  0.3416 -0.1470 -0.0035
  257POPC   C2B 3575   6.699   4.077   5.934  0.1159  0.0935 -0.0934
  257POPC   C3B 3576   6.417   3.888   6.272 -0.0578  0.0476  0.1705
  257POPC   C4B 3577   6.228   3.522   6.319  0.0832 -0.1714  0.0192
  258POPC   NC3 3578   7.975   7.825   4.911  0.0409  0.2291  0.0869
  258POPC   PO4 3579   8.073   7.606   5.215 -0.0474  0.3435  0.1147
  258POPC   GL1 3580   7.995   7.811   5.509 -0.0879  0.1547  0.0549
  258POPC   GL2 3581   7.854   8.123   5.612  0.0450 -0.1182 -0.2032
  258POPC   C1A 3582   8.243   7.966   5.864 -0.2141 -0.0899  0.0223
  258POPC   D2A 3583   7.974   8.105   6.244  0.1501 -0.2119 -0.1075
  258POPC   C3A 3584   7.986   8.132   6.626  0.3768  0.0194 -0.0710
  258POPC   C4A 3585   7.874   8.483   6.922  0.2028  0.2535  0.1262
  258POPC   C1B 3586   7.966   8.461   5.866 -0.2088 -0.1841 -0.1434
  258POPC   C2B 3587   8.041   8.569   6.307  0.0864  0.2135 -0.0616
  258POPC   C3B 3588   8.350   8.503   6.648  0.2012  0.0524  0.3161
  258POPC   C4B 3589   8.526   8.061   6.548 -0.0158  0.2111 -0.0588
  259POPC   NC3 3590   8.570   4.421   3.954  0.2937 -0.0685 -0.0060
  259POPC   PO4 3591   9.074   4.362   4.152  0.0325 -0.2002  0.0744
  259POPC   GL1 3592   8.949   4.192   4.560 -0.2808 -0.1328  0.0649
  259POPC   GL2 3593   8.680   4.055   4.600  0.0083 -0.0242 -0.3557
  259POPC   C1A 3594   8.967   4.144   5.035 -0.2166 -0.1782  0.0664
  259POPC   D2A 3595   8.944   3.832   5.360  0.2060 -0.1619  0.1218
  259POPC   C3A 3596   8.574   3.603   5.343  0.3634  0.1390  0.0225
  259POPC   C4A 3597   8.295   3.887   5.572 -0.0915 -0.0884 -0.1977
  259POPC   C1B 3598   8.847   3.726   4.817 -0.0921  0.0850  0.2997
  259POPC   C2B 3599   9.120   3.402   4.999 -0.2604  0.0567  0.0264
  259POPC   C3B 3600   9.415   3.115   5.289  0.0779 -0.1584 -0.0341
  259POPC   C4B 3601   9.873   3.204   5.369 -0.1452  0.0313 -0.2359
  260POPC   NC3 3602   0.033   7.423   4.436 -0.1954 -0.1844  0.3257
  260POPC   PO4 3603   0.067   7.750   4.704  0.0040 -0.2137  0.2113
  260POPC   GL1 3604   0.242   7.858   5.173 -0.0496  0.0050 -0.2238
  260POPC   GL2 3605   0.129   7.608   5.350 -0.1767 -0.1024 -0.0031
  260POPC   C1A 3606   0.207   8.210   5.478  0.0320  0.1730  0.2086
  260POPC   D2A 3607   0.161   8.000   5.899 -0.0596  0.1375  0.0639
  260POPC   C3A 3608  -0.077   8.124   6.269 -0.3581 -0.0439  0.0554
  260POPC   C4A 3609  -0.085   7.836   6.570  0.0077  0.4004 -0.1750
  260POPC   C1B 3610  -0.153   7.719   5.585 -0.2235 -0.2807 -0.1762
  260POPC   C2B 3611  -0.317   7.828   5.998  0.0606  0.0911  0.1406
  260POPC   C3B 3612  -0.580   7.973   6.368 -0.1365 -0.1236 -0.2709
  260POPC   C4B 3613  -0.591   7.971   6.736 -0.3355  0.3100 -0.0542
  261POPC   NC3 3614   6.468   6.106   5.078 -0.0688 -0.0580  0.0933
  261POPC   PO4 3615   5.940   5.886   4.955  0.1822  0.0967 -0.2149
  261POPC   GL1 3616   6.007   5.974   5.389  0.0406 -0.0977  0.0124
  261POPC   GL2 3617   6.111   6.244   5.345 -0.3014 -0.3217  0.2917
  261POPC   C1A 3618   5.948   5.812   5.805 -0.0938  0.2563 -0.2170
  261POPC   D2A 3619   5.910   5.454   6.129  0.1591 -0.1111 -0.1746
  261POPC   C3A 3620   5.875   5.624   6.560 -0.1398 -0.1314  0.3504
  261POPC   C4A 3621   5.646   5.927   6.819 -0.0195 -0.0218  0.1985
  261POPC   C1B 3622   6.258   6.304   5.725 -0.0627  0.3920 -0.1274
  261POPC   C2B 3623   6.204   6.091   6.128 -0.1341  0.2372 -0.2049
  261POPC   C3B 3624   6.293   5.713   6.302  0.3282 -0.3522  0.0795
  261POPC   C4B 3625   6.342   5.364   6.522 -0.1631  0.0614  0.0642
  262POPC   NC3 3626   3.217   9.857   4.887 -0.1102 -0.2214  0.2922
  262POPC   PO4 3627   2.900   9.709   5.040  0.1749  0.0905 -0.0275
  262POPC   GL1 3628   3.021   9.620   5.400 -0.0713 -0.1093  0.2866
  262POPC   GL2 3629   3.270   9.470   5.278  0.1685  0.0749  0.3685
  262POPC   C1A 3630   2.891   9.758   5.737 -0.1474  0.0931 -0.1454
  262POPC   D2A 3631   2.931   9.710   6.230  0.2119  0.1880 -0.0543
  262POPC   C3A 3632   3.236  10.075   6.498  0.0515  0.0811 -0.2830
  262POPC   C4A 3633   3.213  10.257   6.919  0.1528  0.2869 -0.1745
  262POPC   C1B 3634   3.304   9.467   5.778  0.0557  0.0477  0.1439
  262POPC   C2B 3635   3.434   9.679   6.125 -0.1747  0.3521  0.1739
  262POPC   C3B 3636   3.879   9.751   6.251 -0.1973 -0.0059  0.4372
  262POPC   C4B 3637   4.164   9.938   5.932  0.1520  0.0214 -0.0600
  263POPC   NC3 3638   0.424   2.183   3.996  0.0696  0.0363 -0.4366
  263POPC   PO4 3639   0.874   2.393   3.992  0.2377  0.2376  0.2309
  263POPC   GL1 3640   0.651   2.561   4.311 -0.1317  0.1514  0.2825
  263POPC   GL2 3641   0.722   2.191   4.498  0.1021 -0.0682  0.1016
  263POPC   C1A 3642   0.307   2.860   4.414  0.0412  0.3092  0.1864
  263POPC   D2A 3643   0.075   3.035   4.838 -0.2712  0.3436  0.2868
  263POPC   C3A 3644   0.297   3.069   5.171  0.0322 -0.1509 -0.1854
  263POPC   C4A 3645   0.579   3.403   5.331 -0.0781  0.0961 -0.3202
  263POPC   C1B 3646   0.344   2.421   4.684  0.3904  0.3404  0.0014
  263POPC   C2B 3647   0.257   2.501   5.113 -0.3573  0.0695 -0.2199
  263POPC   C3B 3648  -0.044   2.716   5.310  0.1888 -0.2384  0.2054
  263POPC   C4B 3649  -0.380   2.736   5.342  0.1499  0.0009 -0.1202
  264POPC   NC3 3650   5.274   0.760   4.606 -0.0414 -0.1395  0.0105
  264POPC   PO4 3651   5.707   0.836   4.691 -0.1275  0.1045  0.1779
  264POPC   GL1 3652   5.549   0.858   5.130 -0.0344  0.1034 -0.3425
  264POPC   GL2 3653   5.592   0.471   5.155  0.0120  0.2425 -0.0181
  264POPC   C1A 3654   5.668   1.119   5.466  0.0210  0.1293 -0.2282
  264POPC   D2A 3655   5.971   1.527   5.459  0.2368  0.0580  0.1019
  264POPC   C3A 3656   6.395   1.399   5.619  0.1570  0.0587 -0.0839
  264POPC   C4A 3657   6.538   1.134   5.924  0.1008 -0.2912 -0.1295
  264POPC   C1B 3658   5.408   0.632   5.539 -0.1523 -0.1938  0.1867
  264POPC   C2B 3659   5.389   0.602   5.884  0.0609  0.1469 -0.0699
  264POPC   C3B 3660   5.321   0.163   6.163  0.0445 -0.0055  0.2516
  264POPC   C4B 3661   5.468  -0.238   6.341  0.3679  0.1918 -0.0389
  265POPC   NC3 3662  10.281   5.204   4.156  0.3840 -0.2778  0.0263
  265POPC   PO4 3663  10.527   5.521   4.525  0.3422  0.2486 -0.2435
  265POPC   GL1 3664  10.386   5.285   4.911 -0.4098  0.2478 -0.0551
  265POPC   GL2 3665  10.238   5.508   5.199  0.0551  0.1231  0.0887
  265POPC   C1A 3666  10.026   5.077   5.191 -0.1958 -0.2213 -0.0751
  265POPC   D2A 3667   9.652   4.785   5.273 -0.0948 -0.3650 -0.2915
  265POPC   C3A 3668   9.662   4.573   5.623 -0.2266 -0.0774  0.1702
  265POPC   C4A 3669   9.546   4.276   5.942 -0.2263 -0.0646 -0.4682
  265POPC   C1B 3670  10.262   5.331   5.673  0.1470  0.1504  0.2171
  265POPC   C2B 3671  10.304   5.338   6.167 -0.1541  0.0883 -0.0427
  265POPC   C3B 3672  10.464   5.548   6.497  0.0470  0.0472 -0.3128
  265POPC   C4B 3673  10.796   5.612   6.923 -0.0690  0.2213 -0.1549
  266POPC   NC3 3674   6.229   8.418   4.927  0.0110 -0.0946  0.1883
  266POPC   PO4 3675   6.299   8.829   4.763  0.2853  0.1905 -0.1297
  266POPC   GL1 3676   6.449   8.695   5.320  0.3118  0.0234 -0.0577
  266POPC   GL2 3677   6.505   9.037   5.523  0.3409 -0.1532 -0.0244
  266POPC   C1A 3678   6.186   8.764   5.725  0.1111  0.0410  0.1394
  266POPC   D2A 3679   6.128   8.657   6.175  0.0783 -0.3769 -0.0510
  266POPC   C3A 3680   6.116   8.948   6.439  0.1421 -0.1158  0.2692
  266POPC   C4A 3681   5.809   8.994   6.664  0.1446  0.2596 -0.0462
  266POPC   C1B 3682   6.765   9.214   5.786  0.0433 -0.0174  0.1169
  266POPC   C2B 3683   6.986   9.315   6.204  0.2544 -0.3385  0.0166
  266POPC   C3B 3684   6.958   9.636   6.475 -0.0104 -0.1736  0.1841
  266POPC   C4B 3685   6.760  10.002   6.620 -0.3448  0.0653 -0.0647
  267POPC   NC3 3686   1.994   1.117   4.870  0.3983  0.2807 -0.1204
  267POPC   PO4 3687   2.229   1.306   4.632 -0.1104  0.0210  0.0876
  267POPC   GL1 3688   2.323   1.383   5.119  0.2326 -0.1063 -0.1101
  267POPC   GL2 3689   2.298   1.090   5.336 -0.1525  0.0713  0.0615
  267POPC   C1A 3690   2.154   1.640   5.515  0.1763  0.0328 -0.2699
  267POPC   D2A 3691   1.904   1.354   5.826 -0.3934 -0.1909  0.0243
  267POPC   C3A 3692   2.129   0.884   5.813  0.3192 -0.1848 -0.0633
  267POPC   C4A 3693   2.118   0.471   5.668  0.0715 -0.2245  0.0869
  267POPC   C1B 3694   2.462   1.293   5.668 -0.2390  0.1148 -0.0888
  267POPC   C2B 3695   2.353   1.226   6.081 -0.2841  0.0915  0.0299
  267POPC   C3B 3696   2.087   1.472   6.310  0.0580  0.0892 -0.0192
  267POPC   C4B 3697   1.558   1.460   6.448 -0.0358  0.4059  0.0122
  268POPC   NC3 3698   7.294   0.149   4.085  0.2564  0.4149  0.0347
  268POPC   PO4 3699   7.041   0.410   4.269  0.0473  0.0864  0.0692
  268POPC   GL1 3700   7.396   0.450   4.476  0.1057 -0.0862  0.1529
  268POPC   GL2 3701   7.719   0.330   4.349 -0.2272 -0.2294  0.2710
  268POPC   C1A 3702   7.561   0.777   4.729  0.1159  0.0867 -0.0723
  268POPC   D2A 3703   7.587   0.959   5.189  0.1385  0.0204  0.1862
  268POPC   C3A 3704   7.724   1.004   5.653  0.1155 -0.1194  0.1702
  268POPC   C4A 3705   7.925   0.775   5.916 -0.0699  0.1006 -0.0545
  268POPC   C1B 3706   7.954   0.464   4.645  0.1040  0.0133 -0.2200
  268POPC   C2B 3707   8.376   0.569   4.502  0.1433 -0.3382 -0.2491
  268POPC   C3B 3708   8.787   0.647   4.560  0.3148  0.2057 -0.0713
  268POPC   C4B 3709   9.210   0.535   4.468 -0.0004  0.0105  0.0151
  269POPC   NC3 3710   0.587   4.783   4.310  0.2347 -0.1916 -0.0982
  269POPC   PO4 3711   0.814   4.402   4.478 -0.1109  0.0680 -0.0376
  269POPC   GL1 3712   0.701   4.149   4.867  0.0859  0.0691 -0.3595
  269POPC   GL2 3713   0.620   4.364   5.113  0.0480 -0.0222 -0.1450
  269POPC   C1A 3714   0.893   3.953   5.195  0.0092 -0.2321 -0.0086
  269POPC   D2A 3715   0.572   3.821   5.597  0.3490 -0.1290 -0.1529
  269POPC   C3A 3716   0.390   4.067   5.763  0.0320  0.3112  0.2852
  269POPC   C4A 3717   0.229   4.418   5.806  0.1380  0.0584 -0.0430
  269POPC   C1B 3718   0.246   4.344   5.298 -0.1002  0.3287 -0.3234
  269POPC   C2B 3719  -0.145   4.190   5.489 -0.0388  0.0981  0.0110
  269POPC   C3B 3720  -0.309   4.429   5.823 -0.1482  0.1677 -0.2277
  269POPC   C4B 3721  -0.536   4.414   6.177  0.0851 -0.0032  0.1060
  270POPC   NC3 3722   5.182   4.719   4.887  0.3953  0.0807  0.0834
  270POPC   PO4 3723   4.911   4.377   4.914 -0.0067 -0.1289  0.3292
  270POPC   GL1 3724   4.948   4.395   5.316 -0.0904  0.1898  0.1540
  270POPC   GL2 3725   4.679   4.180   5.557  0.2537  0.3931  0.0861
  270POPC   C1A 3726   4.929   4.504   5.807 -0.1669 -0.0468 -0.1347
  270POPC   D2A 3727   4.886   4.478   6.335  0.1931  0.2297 -0.2939
  270POPC   C3A 3728   5.125   4.398   6.671 -0.2856  0.2343 -0.1867
  270POPC   C4A 3729   5.565   4.182   6.781  0.0645 -0.2829  0.1367
  270POPC   C1B 3730   4.448   4.400   5.919 -0.1567  0.1271  0.3141
  270POPC   C2B 3731   4.272   4.420   6.364  0.0674 -0.0697  0.2693
  270POPC   C3B 3732   4.009   4.154   6.665  0.0920  0.0299 -0.2664
  270POPC   C4B 3733   3.776   4.338   7.000 -0.2671 -0.2573 -0.2350
  271POPC   NC3 3734  10.106   9.596   4.978  0.0266  0.2325  0.1447
  271POPC   PO4 3735   9.857   9.702   4.468 -0.0212 -0.2803 -0.1189
  271POPC   GL1 3736   9.601   9.704   4.857  0.0276  0.1877  0.1334
  271POPC   GL2 3737   9.797   9.957   5.164 -0.3430 -0.2772 -0.1849
  271POPC   C1A 3738   9.352   9.810   5.146  0.0489 -0.1576  0.1099
  271POPC   D2A 3739   8.978   9.911   5.306 -0.0306 -0.1875 -0.1355
  271POPC   C3A 3740   9.042  10.252   5.672 -0.1539 -0.1432 -0.0231
  271POPC   C4A 3741   9.095  10.327   6.091 -0.2947  0.2964  0.0506
  271POPC   C1B 3742   9.605  10.075   5.565 -0.2296  0.0673  0.0314
  271POPC   C2B 3743   9.601  10.059   6.055 -0.1693 -0.2843  0.1301
  271POPC   C3B 3744   9.578  10.221   6.380  0.0009  0.1470 -0.0792
  271POPC   C4B 3745   9.607  10.215   6.744  0.2850 -0.1474  0.0787
  272POPC   NC3 3746   5.475   8.165   4.518  0.0027  0.2169  0.1216
  272POPC   PO4 3747   5.917   8.147   4.655 -0.1805 -0.0304  0.2536
  272POPC   GL1 3748   5.743   8.283   5.093  0.0018  0.2022 -0.2930
  272POPC   GL2 3749   5.840   8.691   5.224  0.3047 -0.2148  0.2715
  272POPC   C1A 3750   5.671   8.153   5.508  0.2396  0.0883 -0.1893
  272POPC   D2A 3751   5.622   7.897   5.772 -0.0527 -0.1097 -0.0743
  272POPC   C3A 3752   5.779   7.718   6.150  0.4783 -0.0422  0.2595
  272POPC   C4A 3753   6.013   7.671   6.555  0.0225  0.0731  0.0760
  272POPC   C1B 3754   5.727   8.678   5.559 -0.0125 -0.0209  0.2751
  272POPC   C2B 3755   5.915   8.369   5.887  0.3689 -0.1626  0.0020
  272POPC   C3B 3756   6.137   8.131   6.176 -0.3544  0.3248 -0.1924
  272POPC   C4B 3757   6.277   8.123   6.716  0.1603  0.1438 -0.1556
  273POPC   NC3 3758   3.798   2.189   4.992 -0.2667  0.1560 -0.0165
  273POPC   PO4 3759   3.562   2.702   5.072  0.0253 -0.1298 -0.0270
  273POPC   GL1 3760   3.582   2.467   5.486  0.1930  0.0813  0.3720
  273POPC   GL2 3761   3.337   2.314   5.427 -0.0446 -0.0367 -0.0993
  273POPC   C1A 3762   3.737   2.559   5.839 -0.1389  0.1181  0.2169
  273POPC   D2A 3763   3.935   2.316   6.134  0.0643  0.0086 -0.2387
  273POPC   C3A 3764   4.075   2.622   6.408  0.0043 -0.1237  0.2965
  273POPC   C4A 3765   3.973   2.999   6.713  0.3129 -0.0303 -0.1174
  273POPC   C1B 3766   3.162   2.199   5.725  0.0633 -0.1161  0.0203
  273POPC   C2B 3767   2.970   1.984   6.152  0.0354 -0.0862 -0.0636
  273POPC   C3B 3768   2.767   2.091   6.595 -0.1107  0.1176 -0.1982
  273POPC   C4B 3769   2.607   1.848   6.941 -0.1942  0.1851 -0.2869
  274POPC   NC3 3770   2.522   2.751   4.719 -0.1884  0.0575  0.0480
  274POPC   PO4 3771   2.374   2.861   5.154 -0.1039  0.1851  0.0808
  274POPC   GL1 3772   2.449   2.918   5.570  0.0727  0.1221 -0.2621
  274POPC   GL2 3773   2.236   3.121   5.747  0.0089  0.0305  0.2651
  274POPC   C1A 3774   2.832   3.098   5.803  0.2087  0.1384  0.0692
  274POPC   D2A 3775   3.005   2.958   6.179  0.1030  0.0793 -0.2017
  274POPC   C3A 3776   3.052   3.145   6.618  0.0563  0.0654  0.2612
  274POPC   C4A 3777   3.411   3.069   6.881  0.2237 -0.0394  0.3459
  274POPC   C1B 3778   2.371   3.139   6.187 -0.1463 -0.1518 -0.0429
  274POPC   C2B 3779   2.311   3.396   6.524  0.1461  0.0244 -0.0852
  274POPC   C3B 3780   2.204   3.628   6.839 -0.1706 -0.1480  0.3069
  274POPC   C4B 3781   2.339   3.826   7.193 -0.1401 -0.0360  0.0397
  275POPC   NC3 3782   1.148   7.281   4.052  0.1548  0.0024  0.0126
  275POPC   PO4 3783   1.049   7.487   4.497 -0.1922  0.3991 -0.1005
  275POPC   GL1 3784   1.006   7.573   4.948 -0.0576  0.0915  0.2304
  275POPC   GL2 3785   1.012   7.253   5.048  0.0488  0.0001 -0.0853
  275POPC   C1A 3786   0.606   7.437   5.307  0.2203  0.3135  0.0177
  275POPC   D2A 3787   0.416   7.264   5.686  0.3885  0.1157 -0.1937
  275POPC   C3A 3788  -0.027   7.248   5.805  0.3153 -0.0650  0.2145
  275POPC   C4A 3789  -0.483   7.310   5.757  0.1463 -0.0697  0.0976
  275POPC   C1B 3790   1.268   7.144   5.448  0.1568  0.0223  0.2206
  275POPC   C2B 3791   1.559   7.001   5.651  0.1697 -0.0055  0.0167
  275POPC   C3B 3792   1.855   6.964   6.042 -0.2156 -0.2927 -0.0311
  275POPC   C4B 3793   2.172   6.906   6.217 -0.1036 -0.0366 -0.1794
  276POPC   NC3 3794   7.052   2.996   4.177 -0.1398  0.0849 -0.0761
  276POPC   PO4 3795   6.624   2.825   4.203  0.2898 -0.1227 -0.1524
  276POPC   GL1 3796   6.618   3.063   4.445 -0.1807 -0.0542  0.1421
  276POPC   GL2 3797   6.912   3.007   4.687 -0.3079  0.2405 -0.4408
  276POPC   C1A 3798   6.446   2.998   4.911  0.0046 -0.0625  0.0391
  276POPC   D2A 3799   6.274   3.159   5.307  0.1211  0.2067  0.1269
  276POPC   C3A 3800   6.224   2.831   5.656 -0.0777 -0.2609 -0.1755
  276POPC   C4A 3801   5.928   2.538   5.629 -0.1109  0.5328  0.2141
  276POPC   C1B 3802   6.992   3.032   5.110 -0.1397  0.1113  0.0201
  276POPC   C2B 3803   7.118   3.432   5.321  0.3235  0.1207 -0.1141
  276POPC   C3B 3804   7.402   3.331   5.683  0.0115  0.0881  0.2602
  276POPC   C4B 3805   7.666   3.585   5.951  0.3264  0.0088 -0.1182
  277POPC   NC3 3806   5.248   6.865   4.633 -0.0127  0.2245  0.0777
  277POPC   PO4 3807   4.862   6.766   4.669 -0.2432  0.2734 -0.0588
  277POPC   GL1 3808   4.666   6.633   5.146 -0.2378  0.1554 -0.0844
  277POPC   GL2 3809   4.519   6.347   5.203 -0.2222  0.1149 -0.0416
  277POPC   C1A 3810   4.797   6.767   5.547 -0.1032 -0.0254  0.0195
  277POPC   D2A 3811   4.574   6.971   5.775  0.0634 -0.0954  0.0138
  277POPC   C3A 3812   4.432   6.708   6.055  0.0430 -0.2847  0.2073
  277POPC   C4A 3813   4.517   6.614   6.482 -0.0131  0.1738  0.4238
  277POPC   C1B 3814   4.456   6.394   5.701  0.1016 -0.0316 -0.3453
  277POPC   C2B 3815   4.498   6.166   6.204  0.1381  0.1354 -0.2010
  277POPC   C3B 3816   4.405   5.948   6.573  0.0216  0.3057  0.1537
  277POPC   C4B 3817   4.455   6.036   7.011 -0.2299  0.1237  0.0651
  278POPC   NC3 3818   1.829   2.029   4.691  0.1037 -0.0525 -0.0260
  278POPC   PO4 3819   1.392   2.245   4.751 -0.0711 -0.0441 -0.0045
  278POPC   GL1 3820   1.236   2.526   5.054  0.0735  0.3595  0.2564
  278POPC   GL2 3821   1.334   2.897   5.012  0.0183  0.1469 -0.0321
  278POPC   C1A 3822   1.197   2.485   5.442  0.3229 -0.2366 -0.1254
  278POPC   D2A 3823   0.859   2.381   5.918 -0.0311 -0.0174  0.2081
  278POPC   C3A 3824   1.065   2.230   6.373  0.0314 -0.0919 -0.3324
  278POPC   C4A 3825   1.078   2.017   6.735 -0.0381 -0.0306 -0.1248
  278POPC   C1B 3826   1.209   3.068   5.336 -0.0262  0.0881 -0.0308
  278POPC   C2B 3827   0.868   2.904   5.568  0.3920  0.0945 -0.2730
  278POPC   C3B 3828   0.487   2.780   5.743  0.2704  0.1861  0.1508
  278POPC   C4B 3829   0.270   2.360   5.730  0.2181  0.0439  0.3440
  279POPC   NC3 3830   6.134   4.949   4.913  0.1474 -0.0970 -0.1872
  279POPC   PO4 3831   6.533   5.077   4.716 -0.1145  0.1114  0.0672
  279POPC   GL1 3832   6.586   4.941   5.087  0.0993 -0.1237 -0.1762
  279POPC   GL2 3833   6.349   5.112   5.355 -0.0631 -0.0138  0.0144
  279POPC   C1A 3834   6.714   4.785   5.544 -0.0289  0.2291 -0.1706
  279POPC   D2A 3835   6.704   4.601   5.916  0.0735 -0.0335 -0.1032
  279POPC   C3A 3836   6.945   4.664   6.336 -0.1704  0.1869  0.1534
  279POPC   C4A 3837   6.986   4.756   6.774 -0.3333  0.2750 -0.1530
  279POPC   C1B 3838   6.311   5.104   5.841 -0.0863 -0.0063  0.1051
  279POPC   C2B 3839   6.309   4.823   6.267  0.0470  0.2351  0.6334
  279POPC   C3B 3840   6.325   4.713   6.776  0.2145 -0.0722 -0.0935
  279POPC   C4B 3841   6.567   4.668   7.138 -0.1939  0.3738  0.3023
  280POPC   NC3 3842  10.240   5.866   4.735 -0.2300  0.1718 -0.2842
  280POPC   PO4 3843   9.819   5.763   4.940  0.2228 -0.2409  0.1025
  280POPC   GL1 3844   9.772   5.761   5.326 -0.1049  0.0803  0.0025
  280POPC   GL2 3845   9.779   5.497   5.466  0.1804  0.3050 -0.2108
  280POPC   C1A 3846   9.602   5.797   5.783 -0.0175 -0.0581  0.0643
  280POPC   D2A 3847   9.536   5.505   6.172 -0.1267 -0.0639 -0.0689
  280POPC   C3A 3848   9.801   5.232   6.436 -0.3438 -0.0942  0.1273
  280POPC   C4A 3849  10.079   5.127   6.828 -0.0271  0.0014 -0.1502
  280POPC   C1B 3850   9.817   5.256   5.817  0.0849  0.3383 -0.0065
  280POPC   C2B 3851   9.581   4.854   6.019 -0.2192 -0.1445 -0.0296
  280POPC   C3B 3852   9.472   4.573   6.379 -0.0236 -0.2373  0.0537
  280POPC   C4B 3853   9.269   4.536   6.768  0.3364  0.0968  0.0891
  281POPC   NC3 3854   9.154   0.085   3.957  0.1825  0.3135  0.0177
  281POPC   PO4 3855   8.919  -0.285   4.136  0.0041  0.0342 -0.1456
  281POPC   GL1 3856   8.753  -0.465   4.533  0.4153 -0.0842 -0.2022
  281POPC   GL2 3857   9.036  -0.476   4.777 -0.1752 -0.0471  0.1981
  281POPC   C1A 3858   8.592  -0.402   4.975  0.1685 -0.1354  0.1176
  281POPC   D2A 3859   8.663  -0.149   5.302 -0.1824 -0.1409 -0.3379
  281POPC   C3A 3860   8.498   0.243   5.460  0.0487  0.0873 -0.2498
  281POPC   C4A 3861   8.475   0.478   5.788 -0.0481 -0.0926 -0.0309
  281POPC   C1B 3862   9.061  -0.048   4.964 -0.2365  0.1148 -0.0672
  281POPC   C2B 3863   8.864   0.379   5.115  0.0842 -0.0130  0.3995
  281POPC   C3B 3864   8.894   0.653   5.501 -0.0251 -0.0115 -0.0710
  281POPC   C4B 3865   8.567   0.957   5.537  0.1166  0.1247 -0.2673
  282POPC   NC3 3866   1.628   9.861   4.734 -0.3501 -0.0420  0.1399
  282POPC   PO4 3867   1.445   9.689   5.012 -0.1438  0.1745 -0.1408
  282POPC   GL1 3868   1.425   9.934   5.329  0.2421  0.1188  0.2097
  282POPC   GL2 3869   1.201  10.135   5.316  0.0688 -0.1654 -0.1621
  282POPC   C1A 3870   1.296   9.916   5.799  0.2122 -0.0583 -0.2064
  282POPC   D2A 3871   1.025  10.153   6.089 -0.0724  0.0106 -0.1676
  282POPC   C3A 3872   1.235  10.417   6.428 -0.0756  0.1301 -0.0569
  282POPC   C4A 3873   1.450  10.188   6.814  0.1067 -0.1409  0.0622
  282POPC   C1B 3874   1.251  10.488   5.608  0.1340  0.1299 -0.0445
  282POPC   C2B 3875   1.535  10.613   6.050  0.3760 -0.0896  0.1825
  282POPC   C3B 3876   1.569  10.751   6.483  0.3492 -0.0092 -0.1193
  282POPC   C4B 3877   1.319  10.682   6.863  0.0477  0.0006  0.2824
  283POPC   NC3 3878   2.140  10.481   4.978 -0.0795  0.1305 -0.2578
  283POPC   PO4 3879   1.835  10.746   4.863  0.0189  0.1794  0.1813
  283POPC   GL1 3880   1.854  10.837   5.277  0.1798  0.0528 -0.0926
  283POPC   GL2 3881   1.761  10.572   5.474  0.0032 -0.1645  0.2149
  283POPC   C1A 3882   1.549  10.941   5.672 -0.2459 -0.1173 -0.2551
  283POPC   D2A 3883   1.378  11.172   6.063 -0.1418  0.0978 -0.1934
  283POPC   C3A 3884   1.147  10.979   6.387 -0.1991  0.1533  0.2003
  283POPC   C4A 3885   0.911  10.936   6.685 -0.2581 -0.1809 -0.0606
  283POPC   C1B 3886   1.968  10.601   5.901  0.0035  0.4165  0.2028
  283POPC   C2B 3887   1.997  10.299   6.174  0.2173 -0.1025 -0.1755
  283POPC   C3B 3888   1.841  10.301   6.585  0.0876 -0.2302  0.0980
  283POPC   C4B 3889   1.918  10.507   6.980 -0.1122 -0.0835 -0.0114
  284POPC   NC3 3890   9.403   2.884   3.782 -0.0337  0.1348 -0.2968
  284POPC   PO4 3891   9.306   3.380   3.803 -0.3078 -0.0836 -0.0260
  284POPC   GL1 3892   9.360   3.386   4.311 -0.4302  0.0780  0.1366
  284POPC   GL2 3893   9.178   3.763   4.355 -0.1819 -0.1080 -0.1256
  284POPC   C1A 3894   9.004   3.327   4.480 -0.3157 -0.1352  0.0851
  284POPC   D2A 3895   8.801   3.029   4.618  0.2430 -0.0381  0.0202
  284POPC   C3A 3896   8.695   3.108   5.082  0.1163 -0.0180  0.0895
  284POPC   C4A 3897   8.973   3.210   5.449 -0.0993 -0.1361 -0.0697
  284POPC   C1B 3898   9.548   3.762   4.672  0.1857  0.1410  0.1258
  284POPC   C2B 3899   9.903   3.546   4.542  0.1685 -0.0325 -0.1685
  284POPC   C3B 3900  10.313   3.612   4.690  0.0424 -0.0683  0.2071
  284POPC   C4B 3901  10.744   3.465   4.538  0.2008 -0.2457  0.2121
  285POPC   NC3 3902   8.344   3.150   4.031 -0.2332  0.1071 -0.4551
  285POPC   PO4 3903   8.246   2.734   3.851 -0.1010 -0.3483  0.0191
  285POPC   GL1 3904   8.556   2.653   4.162 -0.1218 -0.2218  0.1971
  285POPC   GL2 3905   8.602   2.231   4.158  0.1338  0.2227  0.1931
  285POPC   C1A 3906   9.076   2.577   4.351  0.0828  0.0595  0.3642
  285POPC   D2A 3907   9.370   2.834   4.296 -0.0640  0.2357  0.0605
  285POPC   C3A 3908   9.929   2.917   4.495  0.1192  0.1562  0.2773
  285POPC   C4A 3909  10.263   3.170   4.403 -0.0864 -0.1095 -0.2070
  285POPC   C1B 3910   8.375   1.887   4.328 -0.4077 -0.0670  0.2119
  285POPC   C2B 3911   8.258   1.567   4.525  0.4443 -0.2513  0.1278
  285POPC   C3B 3912   8.333   1.573   5.006 -0.3281  0.0048 -0.0348
  285POPC   C4B 3913   8.401   1.391   5.321  0.0620 -0.0635 -0.2967
  286POPC   NC3 3914   5.440   6.041   5.164  0.0300  0.2094  0.3722
  286POPC   PO4 3915   4.928   6.025   5.130  0.1570  0.1142  0.2391
  286POPC   GL1 3916   4.885   5.896   5.492 -0.2445  0.0516 -0.1287
  286POPC   GL2 3917   5.153   5.784   5.616 -0.0795  0.2438  0.3478
  286POPC   C1A 3918   4.824   6.040   5.807 -0.0973 -0.0518 -0.3499
  286POPC   D2A 3919   4.941   5.955   6.239 -0.0143  0.0574  0.2368
  286POPC   C3A 3920   5.275   6.087   6.427 -0.2641  0.1676 -0.0794
  286POPC   C4A 3921   5.513   6.359   6.646  0.0238  0.0740  0.0268
  286POPC   C1B 3922   5.428   5.752   5.986  0.0082  0.2523 -0.1634
  286POPC   C2B 3923   5.685   5.952   6.207  0.1144 -0.1570  0.0091
  286POPC   C3B 3924   5.969   6.247   6.522 -0.0397 -0.1414  0.1021
  286POPC   C4B 3925   6.391   6.376   6.473 -0.2874 -0.0631  0.0715
  287POPC   NC3 3926   7.438   6.168   5.157  0.0234  0.0773 -0.1896
  287POPC   PO4 3927   7.100   6.217   4.869 -0.0093 -0.2883 -0.1109
  287POPC   GL1 3928   6.910   6.279   5.269 -0.0279  0.1637  0.2004
  287POPC   GL2 3929   6.662   6.157   5.535 -0.1250 -0.0805  0.2338
  287POPC   C1A 3930   6.885   6.619   5.607  0.2080  0.0314 -0.1629
  287POPC   D2A 3931   6.674   6.555   6.003  0.0603  0.0069 -0.0796
  287POPC   C3A 3932   6.566   6.903   6.229 -0.1515  0.2592 -0.3269
  287POPC   C4A 3933   6.612   7.360   6.380 -0.0119  0.2189  0.1269
  287POPC   C1B 3934   6.697   6.035   5.859 -0.0566 -0.0782  0.1593
  287POPC   C2B 3935   6.774   6.095   6.231  0.3704  0.1270 -0.0096
  287POPC   C3B 3936   6.738   5.947   6.618  0.0480 -0.0478  0.1173
  287POPC   C4B 3937   6.374   5.997   6.782 -0.1537 -0.1783  0.2571
  288POPC   NC3 3938   6.645   9.104   5.039 -0.1684 -0.1747 -0.2872
  288POPC   PO4 3939   6.179   9.127   5.152 -0.1669 -0.0736  0.3834
  288POPC   GL1 3940   5.937   9.223   5.539  0.4078  0.1011  0.1301
  288POPC   GL2 3941   6.018   9.457   5.758 -0.0743 -0.0192 -0.2990
  288POPC   C1A 3942   5.741   8.990   5.913  0.1054  0.1255  0.0215
  288POPC   D2A 3943   5.634   8.647   6.206 -0.0238  0.1008 -0.1343
  288POPC   C3A 3944   5.840   8.459   6.577  0.2800 -0.3947  0.0224
  288POPC   C4A 3945   6.160   8.595   6.890  0.0179  0.1098 -0.0549
  288POPC   C1B 3946   6.285   9.177   5.972 -0.1676 -0.0350 -0.1484
  288POPC   C2B 3947   6.502   9.245   6.343 -0.4388 -0.2360  0.1681
  288POPC   C3B 3948   6.834   9.235   6.659 -0.0259 -0.0425 -0.1495
  288POPC   C4B 3949   7.008   9.023   6.970 -0.1064  0.1587 -0.1826
  289POPC   NC3 3950   3.241   3.049   4.896 -0.0395 -0.2142 -0.2386
  289POPC   PO4 3951   3.188   3.456   5.182  0.1681 -0.2672 -0.0446
  289POPC   GL1 3952   3.367   3.257   5.589  0.4930 -0.1017 -0.0425
  289POPC   GL2 3953   3.316   2.953   5.449  0.0359  0.0101 -0.2295
  289POPC   C1A 3954   3.456   3.008   5.945  0.0421 -0.0513  0.1632
  289POPC   D2A 3955   3.315   2.549   6.066  0.3418  0.1607 -0.1961
  289POPC   C3A 3956   2.958   2.542   6.450  0.2678 -0.1415 -0.0923
  289POPC   C4A 3957   2.680   2.750   6.775 -0.0746 -0.7841  0.3308
  289POPC   C1B 3958   2.982   2.724   5.642  0.2061 -0.1479 -0.1965
  289POPC   C2B 3959   2.779   2.491   5.946 -0.1269  0.0859  0.0699
  289POPC   C3B 3960   2.512   2.727   6.317  0.1928  0.4174 -0.1981
  289POPC   C4B 3961   2.198   2.879   6.600 -0.2770  0.1046 -0.0172
  290POPC   NC3 3962   4.248   6.075   4.930 -0.0049 -0.0554  0.4765
  290POPC   PO4 3963   3.968   6.332   4.722 -0.1577  0.0527  0.1626
  290POPC   GL1 3964   4.137   6.628   5.102 -0.1481 -0.0165  0.0601
  290POPC   GL2 3965   4.228   6.955   4.981  0.0067  0.3296 -0.3196
  290POPC   C1A 3966   4.133   6.759   5.503  0.1789  0.1303 -0.1658
  290POPC   D2A 3967   3.933   6.998   5.874 -0.0593  0.2654 -0.0097
  290POPC   C3A 3968   4.213   7.129   6.162  0.0313  0.0480  0.1549
  290POPC   C4A 3969   4.602   7.108   6.448  0.2018 -0.2779  0.0016
  290POPC   C1B 3970   4.544   7.082   5.307 -0.0698  0.2456  0.2515
  290POPC   C2B 3971   4.845   7.278   5.482 -0.3287 -0.0418 -0.2485
  290POPC   C3B 3972   5.190   7.468   5.746  0.1647 -0.1060  0.2566
  290POPC   C4B 3973   5.435   7.277   6.104 -0.1398  0.3221  0.3096
  291POPC   NC3 3974   1.616   1.136   4.568 -0.1045 -0.0401 -0.0658
  291POPC   PO4 3975   1.683   1.565   4.780 -0.0043  0.0304  0.0964
  291POPC   GL1 3976   1.475   1.875   5.090  0.2715  0.0034  0.1569
  291POPC   GL2 3977   1.146   1.988   5.072  0.1320 -0.0653 -0.2083
  291POPC   C1A 3978   1.592   1.780   5.642 -0.1241 -0.0577 -0.0009
  291POPC   D2A 3979   1.686   1.821   6.070  0.0673  0.4001 -0.1362
  291POPC   C3A 3980   1.605   2.120   6.317 -0.3817 -0.1689 -0.0954
  291POPC   C4A 3981   1.447   2.598   6.371 -0.2858 -0.2433 -0.3803
  291POPC   C1B 3982   1.150   1.878   5.526  0.1437 -0.1045  0.0574
  291POPC   C2B 3983   1.298   2.189   5.896  0.0920  0.1481  0.0975
  291POPC   C3B 3984   1.258   2.705   5.927  0.1136  0.2392  0.1813
  291POPC   C4B 3985   1.311   3.121   6.130 -0.1394  0.2215 -0.1916
  292POPC   NC3 3986   2.990   4.866   5.009 -0.2796  0.2916  0.1127
  292POPC   PO4 3987   2.545   4.679   5.104  0.0313  0.0649  0.1019
  292POPC   GL1 3988   2.279   4.477   5.473  0.0152  0.1614 -0.3709
  292POPC   GL2 3989   2.145   4.617   5.726 -0.0178  0.0087 -0.2368
  292POPC   C1A 3990   2.497   4.289   5.767 -0.1785 -0.1051 -0.0154
  292POPC   D2A 3991   2.899   4.099   5.839 -0.1403  0.0107 -0.2297
  292POPC   C3A 3992   3.092   3.774   6.090  0.0004  0.2014 -0.0768
  292POPC   C4A 3993   3.245   3.378   6.219 -0.1051 -0.0968 -0.0459
  292POPC   C1B 3994   1.920   4.988   5.870  0.0208 -0.0372  0.0917
  292POPC   C2B 3995   1.987   5.429   6.088  0.0394 -0.0130 -0.0998
  292POPC   C3B 3996   2.078   5.662   6.493 -0.2963 -0.4140 -0.0059
  292POPC   C4B 3997   2.282   5.755   6.904 -0.1122 -0.0913  0.2450
  293POPC   NC3 3998   8.103  10.276   3.626  0.0451  0.0996  0.2796
  293POPC   PO4 3999   8.269  10.510   3.890 -0.2428 -0.0059  0.1395
  293POPC   GL1 4000   8.400  10.550   4.294 -0.2718 -0.1959  0.0202
  293POPC   GL2 4001   8.155  10.552   4.484  0.0735  0.0929 -0.0434
  293POPC   C1A 4002   8.507  10.662   4.798 -0.1463 -0.0918 -0.0105
  293POPC   D2A 4003   8.356  11.004   5.083 -0.1011  0.1418  0.1778
  293POPC   C3A 4004   8.672  11.357   4.988 -0.0343 -0.1648  0.2068
  293POPC   C4A 4005   9.086  11.361   4.969 -0.0535  0.1527  0.0717
  293POPC   C1B 4006   8.226  10.152   4.661  0.0560  0.2332 -0.1613
  293POPC   C2B 4007   8.096   9.757   4.990 -0.0944 -0.1059  0.1419
  293POPC   C3B 4008   8.175   9.851   5.493 -0.0284  0.2493 -0.2987
  293POPC   C4B 4009   8.225   9.830   6.030  0.1268 -0.0234  0.1022
  294POPC   NC3 4010   9.683   2.561   3.456  0.1104  0.0954 -0.0504
  294POPC   PO4 4011   9.910   2.634   3.812 -0.0524  0.0196  0.0913
  294POPC   GL1 4012   9.829   2.434   4.269 -0.3179 -0.1318 -0.3282
  294POPC   GL2 4013   9.528   2.303   4.317  0.1956 -0.1544 -0.0813
  294POPC   C1A 4014   9.826   2.208   4.677 -0.2310  0.1270  0.0490
  294POPC   D2A 4015   9.462   2.040   4.830 -0.0846 -0.0026  0.2549
  294POPC   C3A 4016   9.341   1.612   4.785  0.0335 -0.0621 -0.3929
  294POPC   C4A 4017   9.263   1.277   4.809 -0.1244  0.4030 -0.1670
  294POPC   C1B 4018   9.535   2.564   4.691  0.1965  0.1188 -0.3713
  294POPC   C2B 4019   9.339   2.894   4.802 -0.0451  0.0847  0.2924
  294POPC   C3B 4020   9.590   3.229   4.766 -0.2945 -0.0184  0.2978
  294POPC   C4B 4021   9.690   3.631   5.106 -0.1454 -0.2043  0.1461
  295POPC   NC3 4022   2.153   7.337   4.975 -0.1903 -0.1078  0.0444
  295POPC   PO4 4023   2.319   6.895   4.986  0.0767  0.0786 -0.0118
  295POPC   GL1 4024   2.149   6.909   5.343  0.0614  0.0957  0.0314
  295POPC   GL2 4025   2.330   6.690   5.457  0.3708  0.2337  0.0800
  295POPC   C1A 4026   2.225   7.134   5.723  0.1508 -0.1450 -0.0733
  295POPC   D2A 4027   2.430   7.357   6.141 -0.1003  0.1100 -0.2449
  295POPC   C3A 4028   2.032   7.372   6.337  0.0154  0.2973 -0.1158
  295POPC   C4A 4029   1.934   7.614   6.712  0.0391 -0.1482  0.3053
  295POPC   C1B 4030   2.566   6.720   5.770  0.1435  0.2058  0.1250
  295POPC   C2B 4031   2.628   6.829   6.211  0.0717 -0.3810  0.2982
  295POPC   C3B 4032   2.957   6.936   6.502  0.0371  0.2981 -0.0501
  295POPC   C4B 4033   3.300   6.895   6.675  0.0331  0.0329 -0.1440
  296POPC   NC3 4034   2.324  10.145   4.468 -0.3400 -0.0765  0.1539
  296POPC   PO4 4035   2.110   9.947   4.857 -0.1232 -0.2230  0.2240
  296POPC   GL1 4036   2.125   9.893   5.210 -0.1417  0.1415  0.2519
  296POPC   GL2 4037   1.911   9.689   5.366  0.1543 -0.3609  0.1321
  296POPC   C1A 4038   2.061  10.070   5.631 -0.2329  0.1803 -0.0381
  296POPC   D2A 4039   1.661  10.170   5.786 -0.0521 -0.7099  0.2075
  296POPC   C3A 4040   1.519  10.092   6.251 -0.2306  0.1694 -0.0925
  296POPC   C4A 4041   1.481   9.750   6.554 -0.0366 -0.2333 -0.0679
  296POPC   C1B 4042   1.766   9.647   5.753 -0.1943 -0.2031  0.1956
  296POPC   C2B 4043   1.883   9.763   6.061  0.2322 -0.1039  0.0294
  296POPC   C3B 4044   2.001   9.686   6.446 -0.1726 -0.0404  0.0446
  296POPC   C4B 4045   1.785   9.861   6.950 -0.0474 -0.1422  0.0155
  297POPC   NC3 4046   3.448   5.866   5.060  0.1584 -0.1006  0.3477
  297POPC   PO4 4047   3.818   6.179   5.165  0.1785 -0.1621  0.0923
  297POPC   GL1 4048   4.045   6.141   5.478  0.0633 -0.1204 -0.2494
  297POPC   GL2 4049   4.381   5.898   5.585  0.2899 -0.0936 -0.0613
  297POPC   C1A 4050   4.110   6.122   5.931  0.0841 -0.2901  0.1481
  297POPC   D2A 4051   4.014   6.263   6.294  0.2500 -0.0127  0.2675
  297POPC   C3A 4052   3.913   6.019   6.609 -0.0734 -0.0709 -0.0023
  297POPC   C4A 4053   4.074   5.755   6.888 -0.2712 -0.2159 -0.3169
  297POPC   C1B 4054   4.436   5.729   6.004  0.0233  0.1871  0.0007
  297POPC   C2B 4055   4.649   5.555   6.368  0.0638 -0.0582  0.0786
  297POPC   C3B 4056   4.859   5.207   6.590  0.0359 -0.0216 -0.0002
  297POPC   C4B 4057   4.961   4.882   6.743  0.0495  0.1540  0.3304
  298POPC   NC3 4058   4.490   7.920   4.495 -0.2012 -0.0295 -0.0545
  298POPC   PO4 4059   4.601   7.542   4.842 -0.1337 -0.0437  0.0403
  298POPC   GL1 4060   4.801   7.713   5.187 -0.1585 -0.1241  0.1019
  298POPC   GL2 4061   4.731   8.086   5.092 -0.0974 -0.0533  0.0568
  298POPC   C1A 4062   4.759   7.779   5.523 -0.0467 -0.1638  0.1004
  298POPC   D2A 4063   4.678   7.870   5.992 -0.1671  0.1084  0.2233
  298POPC   C3A 4064   4.963   8.113   6.296 -0.1152  0.1587  0.2186
  298POPC   C4A 4065   5.126   8.231   6.615 -0.1278  0.0801 -0.0440
  298POPC   C1B 4066   4.323   8.113   5.378 -0.4480 -0.1630  0.0801
  298POPC   C2B 4067   4.123   8.044   5.743  0.0039 -0.0933  0.1260
  298POPC   C3B 4068   3.962   8.057   6.175 -0.1511 -0.1719  0.2685
  298POPC   C4B 4069   3.908   8.048   6.663  0.0749 -0.3957 -0.1538
  299POPC   NC3 4070   4.024   4.806   5.125 -0.0322  0.0102  0.1145
  299POPC   PO4 4071   4.269   5.199   5.208 -0.2417  0.0661  0.3545
  299POPC   GL1 4072   4.249   5.379   5.538  0.0252  0.1329 -0.1115
  299POPC   GL2 4073   4.628   5.448   5.647  0.3095  0.1482  0.1497
  299POPC   C1A 4074   3.973   5.621   5.691 -0.2624 -0.1745 -0.0863
  299POPC   D2A 4075   3.743   5.689   6.060 -0.0123 -0.3537  0.2218
  299POPC   C3A 4076   3.668   5.440   6.387  0.1679 -0.0497  0.1748
  299POPC   C4A 4077   3.478   5.151   6.577 -0.1217 -0.0585 -0.1481
  299POPC   C1B 4078   4.942   5.489   5.991 -0.1210 -0.0126 -0.0316
  299POPC   C2B 4079   5.164   5.559   6.388  0.2643 -0.0338  0.1451
  299POPC   C3B 4080   5.050   5.730   6.735  0.0665  0.3410 -0.5256
  299POPC   C4B 4081   5.013   5.682   7.223 -0.0116  0.1798  0.0723
  300POPC   NC3 4082   1.575   3.218   4.618  0.2421 -0.0686 -0.0284
  300POPC   PO4 4083   1.298   3.515   4.800 -0.0099  0.1003  0.2797
  300POPC   GL1 4084   1.144   3.595   5.242 -0.0381  0.1322  0.0012
  300POPC   GL2 4085   1.270   3.816   5.479  0.0301  0.0759  0.2663
  300POPC   C1A 4086   0.957   3.390   5.623  0.0300  0.0791 -0.0732
  300POPC   D2A 4087   0.669   3.231   5.819 -0.2374 -0.4138 -0.6943
  300POPC   C3A 4088   0.326   3.015   6.135  0.0095  0.0938  0.0663
  300POPC   C4A 4089  -0.040   3.120   6.418  0.3509 -0.1610 -0.0629
  300POPC   C1B 4090   0.925   3.786   5.909 -0.0933  0.0717  0.4621
  300POPC   C2B 4091   0.531   3.693   6.175 -0.0022  0.0983  0.2210
  300POPC   C3B 4092   0.146   3.570   6.237  0.1716 -0.0954  0.0389
  300POPC   C4B 4093  -0.250   3.577   6.170  0.1239  0.1298  0.0053
  301POPC   NC3 4094   7.809   3.817   3.896  0.0487  0.3687 -0.0657
  301POPC   PO4 4095   7.967   3.445   4.209  0.1261  0.2017 -0.0034
  301POPC   GL1 4096   8.126   3.059   4.561 -0.0689  0.1330 -0.0141
  301POPC   GL2 4097   8.046   2.717   4.380 -0.2072 -0.3651  0.0045
  301POPC   C1A 4098   8.191   3.007   4.993  0.1480 -0.0939 -0.0473
  301POPC   D2A 4099   8.408   2.618   5.133 -0.1557  0.0389 -0.2985
  301POPC   C3A 4100   8.123   2.161   5.231  0.0807 -0.2406 -0.0992
  301POPC   C4A 4101   8.216   1.872   5.448 -0.1556  0.0029  0.0288
  301POPC   C1B 4102   8.044   2.512   4.838  0.1757  0.1170  0.0423
  301POPC   C2B 4103   7.859   2.558   5.171 -0.2105 -0.1617 -0.1582
  301POPC   C3B 4104   7.595   2.366   5.515 -0.0512 -0.0296  0.0298
  301POPC   C4B 4105   7.381   2.279   5.920 -0.2718 -0.1911  0.1231
  302POPC   NC3 4106   2.012   8.690   4.520  0.2759 -0.3828  0.0172
  302POPC   PO4 4107   1.883   8.942   4.867  0.2440  0.1370  0.1046
  302POPC   GL1 4108   1.818   8.993   5.261 -0.0812 -0.0248 -0.1755
  302POPC   GL2 4109   1.548   9.082   5.428 -0.0997  0.0088  0.0310
  302POPC   C1A 4110   1.867   8.687   5.622  0.0147  0.0337  0.2041
  302POPC   D2A 4111   1.911   8.648   5.973 -0.0262  0.2394  0.1674
  302POPC   C3A 4112   2.255   8.538   6.182 -0.1606 -0.0110 -0.1741
  302POPC   C4A 4113   2.563   8.650   6.396  0.0625 -0.1413 -0.2002
  302POPC   C1B 4114   1.520   9.002   5.805 -0.0943  0.0532 -0.2657
  302POPC   C2B 4115   1.615   8.911   6.262  0.1668  0.2860  0.0239
  302POPC   C3B 4116   1.657   8.446   6.399  0.1268  0.1392 -0.3019
  302POPC   C4B 4117   1.523   7.978   6.373  0.0156 -0.3044 -0.2263
  303POPC   NC3 4118   7.785   4.349   4.399 -0.3816 -0.0507 -0.5162
  303POPC   PO4 4119   8.148   4.020   4.202  0.2394  0.1568  0.2239
  303POPC   GL1 4120   8.130   4.022   4.746  0.0760 -0.3050  0.1285
  303POPC   GL2 4121   7.867   4.203   4.884  0.1112 -0.0264 -0.1758
  303POPC   C1A 4122   8.385   3.961   5.044 -0.1233 -0.0105 -0.1452
  303POPC   D2A 4123   8.633   4.268   5.433  0.1166  0.0972 -0.2673
  303POPC   C3A 4124   8.646   4.367   5.884  0.0793 -0.1420 -0.0817
  303POPC   C4A 4125   8.643   4.464   6.300 -0.1346  0.1703  0.1139
  303POPC   C1B 4126   7.890   4.035   5.223  0.0500 -0.0624  0.0567
  303POPC   C2B 4127   7.769   4.057   5.652  0.1269 -0.0236  0.2303
  303POPC   C3B 4128   7.644   4.073   6.043  0.3129 -0.1837  0.0117
  303POPC   C4B 4129   7.337   4.195   6.459 -0.2326  0.0180  0.1345
  304POPC   NC3 4130   2.848   7.865   4.462  0.0073  0.2418  0.1087
  304POPC   PO4 4131   2.522   8.191   4.724 -0.2598  0.0157 -0.1689
  304POPC   GL1 4132   2.989   8.124   4.917  0.0760 -0.0023  0.1770
  304POPC   GL2 4133   3.045   7.830   5.086  0.0787  0.3257  0.3597
  304POPC   C1A 4134   3.298   8.231   5.253 -0.0967 -0.1149 -0.1937
  304POPC   D2A 4135   3.730   8.275   5.425  0.0657 -0.0277  0.0666
  304POPC   C3A 4136   3.867   8.702   5.448 -0.3866 -0.2692 -0.2072
  304POPC   C4A 4137   3.631   8.943   5.753 -0.0953 -0.1832 -0.1528
  304POPC   C1B 4138   2.989   7.586   5.440 -0.3349  0.0999  0.1355
  304POPC   C2B 4139   3.017   7.672   5.807  0.1805 -0.2051 -0.0252
  304POPC   C3B 4140   3.013   7.776   6.260 -0.2912  0.1523  0.3208
  304POPC   C4B 4141   2.927   7.551   6.633  0.0261 -0.1211 -0.5578
  305POPC   NC3 4142   6.108   9.552   4.944 -0.0165  0.1927  0.1529
  305POPC   PO4 4143   5.662   9.315   5.076 -0.0154 -0.3464 -0.3418
  305POPC   GL1 4144   5.443   9.269   5.464  0.3704 -0.1317 -0.1378
  305POPC   GL2 4145   5.375   8.981   5.510  0.1123 -0.0215  0.0595
  305POPC   C1A 4146   5.422   9.390   5.930  0.0909  0.1795  0.1877
  305POPC   D2A 4147   5.439   9.116   6.345  0.0789 -0.2624  0.4577
  305POPC   C3A 4148   5.356   9.235   6.810  0.2099 -0.2924  0.1200
  305POPC   C4A 4149   5.614   9.427   7.027  0.0551  0.0922  0.2911
  305POPC   C1B 4150   5.209   8.915   5.921 -0.3480  0.1035  0.1580
  305POPC   C2B 4151   5.101   8.650   6.253  0.0539  0.0321  0.1092
  305POPC   C3B 4152   5.296   8.748   6.691  0.1559  0.1298  0.3230
  305POPC   C4B 4153   5.573   8.577   7.007 -0.1605  0.2581  0.2104
  306POPC   NC3 4154   2.343   7.723   4.406  0.2199  0.0911  0.0805
  306POPC   PO4 4155   2.114   7.847   4.827 -0.2011  0.1971 -0.1425
  306POPC   GL1 4156   2.288   7.904   5.168 -0.4726  0.1054  0.0075
  306POPC   GL2 4157   2.058   7.918   5.337 -0.1356  0.1743  0.1462
  306POPC   C1A 4158   2.668   7.962   5.443  0.0246  0.1245 -0.0297
  306POPC   D2A 4159   2.982   8.139   5.706 -0.2543  0.1494  0.0402
  306POPC   C3A 4160   2.975   8.264   6.189 -0.1822 -0.3683 -0.0332
  306POPC   C4A 4161   3.360   8.637   6.280 -0.3899 -0.3034 -0.3123
  306POPC   C1B 4162   2.194   8.205   5.609 -0.1179  0.0313 -0.1879
  306POPC   C2B 4163   2.560   8.417   5.769 -0.0648  0.4248  0.1741
  306POPC   C3B 4164   2.785   8.765   5.890  0.0476  0.0889  0.3554
  306POPC   C4B 4165   3.069   8.915   6.031  0.0080  0.0441 -0.1703
  307POPC   NC3 4166   5.927   0.398   4.783 -0.2088  0.0132  0.1373
  307POPC   PO4 4167   5.818   0.028   4.675  0.2325  0.0562 -0.0161
  307POPC   GL1 4168   5.700   0.007   5.104  0.2034 -0.0387  0.0434
  307POPC   GL2 4169   5.933   0.120   5.322  0.3518  0.2405 -0.2450
  307POPC   C1A 4170   5.626  -0.350   5.425 -0.1859 -0.0224  0.2036
  307POPC   D2A 4171   5.489  -0.727   5.634  0.0307  0.1572  0.1472
  307POPC   C3A 4172   5.067  -0.811   5.640  0.2489 -0.0099 -0.0166
  307POPC   C4A 4173   4.787  -0.603   5.862 -0.1665  0.1309 -0.0648
  307POPC   C1B 4174   5.873   0.449   5.620 -0.0915 -0.3573  0.1089
  307POPC   C2B 4175   5.870   0.366   6.073 -0.1438  0.1405  0.0457
  307POPC   C3B 4176   5.634   0.521   6.315 -0.1179  0.2612 -0.2607
  307POPC   C4B 4177   5.185   0.534   6.440  0.1390  0.1757 -0.0888
  308POPC   NC3 4178   6.913   4.162   4.150 -0.2844 -0.0734 -0.3928
  308POPC   PO4 4179   7.222   4.347   4.452 -0.1750  0.0917  0.1413
  308POPC   GL1 4180   7.362   4.212   4.866  0.1260  0.0657 -0.3218
  308POPC   GL2 4181   7.232   3.883   4.745  0.0221 -0.2182 -0.2410
  308POPC   C1A 4182   7.345   4.222   5.344 -0.5670 -0.0064 -0.0773
  308POPC   D2A 4183   7.296   3.861   5.594 -0.2148 -0.1005  0.2600
  308POPC   C3A 4184   7.145   3.719   5.973 -0.2968 -0.1779 -0.0441
  308POPC   C4A 4185   7.213   3.708   6.408  0.0199  0.0824  0.1243
  308POPC   C1B 4186   7.508   3.644   4.989 -0.1719 -0.1970 -0.1344
  308POPC   C2B 4187   7.912   3.482   4.838 -0.1623 -0.1851  0.0018
  308POPC   C3B 4188   8.326   3.466   4.793 -0.2095  0.1470  0.5759
  308POPC   C4B 4189   8.507   3.605   4.401 -0.1926 -0.0404  0.3129
  309POPC   NC3 4190   1.101   6.963   4.610  0.2075  0.3137 -0.0510
  309POPC   PO4 4191   1.398   6.805   4.909 -0.2566 -0.1031 -0.1760
  309POPC   GL1 4192   1.347   6.660   5.295 -0.0425 -0.1052 -0.2176
  309POPC   GL2 4193   1.569   6.535   5.425  0.0036  0.0569  0.3075
  309POPC   C1A 4194   1.023   6.666   5.594  0.0394  0.0242  0.0309
  309POPC   D2A 4195   0.792   6.784   5.917  0.3921 -0.0988  0.1163
  309POPC   C3A 4196   0.768   6.452   6.140 -0.1437  0.0795  0.1078
  309POPC   C4A 4197   0.711   6.200   6.499  0.2631 -0.2098  0.1004
  309POPC   C1B 4198   1.508   6.448   5.854 -0.0421  0.0817 -0.0128
  309POPC   C2B 4199   1.355   6.303   6.199  0.1249  0.2062  0.0529
  309POPC   C3B 4200   1.299   6.568   6.661 -0.1715 -0.3382  0.3645
  309POPC   C4B 4201   1.255   6.943   6.838  0.2162 -0.1785 -0.0269
  310POPC   NC3 4202   0.895   7.933   4.645 -0.1001  0.1081  0.0554
  310POPC   PO4 4203   0.643   8.025   5.027  0.1141 -0.1720 -0.3285
  310POPC   GL1 4204   0.735   7.907   5.435 -0.1295  0.2294  0.0267
  310POPC   GL2 4205   1.044   7.695   5.497  0.2399 -0.2672 -0.1843
  310POPC   C1A 4206   0.534   7.794   5.738  0.4137 -0.1325  0.2189
  310POPC   D2A 4207   0.590   7.478   6.063  0.3649  0.0465  0.0423
  310POPC   C3A 4208   0.475   7.264   6.473 -0.2218 -0.4675 -0.0977
  310POPC   C4A 4209   0.711   7.212   6.806 -0.1040  0.0673 -0.0498
  310POPC   C1B 4210   0.934   7.387   5.690 -0.0941 -0.1043  0.2771
  310POPC   C2B 4211   1.067   7.220   6.013 -0.2531  0.1273  0.1002
  310POPC   C3B 4212   1.034   7.288   6.378  0.1113  0.2505  0.1925
  310POPC   C4B 4213   1.320   7.420   6.681 -0.1552  0.0718 -0.2141
  311POPC   NC3 4214   5.420   4.265   4.776 -0.1823  0.1028  0.2004
  311POPC   PO4 4215   5.736   4.611   4.902  0.1386 -0.0467 -0.1482
  311POPC   GL1 4216   5.908   4.533   5.265 -0.0665 -0.1361 -0.3265
  311POPC   GL2 4217   6.216   4.659   5.393  0.0852  0.1367  0.0525
  311POPC   C1A 4218   5.826   4.277   5.605 -0.1830 -0.2701 -0.1478
  311POPC   D2A 4219   5.738   4.257   6.054 -0.3201  0.0869  0.0918
  311POPC   C3A 4220   5.915   4.443   6.465 -0.0237  0.0908 -0.0139
  311POPC   C4A 4221   6.066   4.190   6.793  0.1066  0.1886  0.2444
  311POPC   C1B 4222   6.025   4.673   5.798 -0.2361 -0.0462  0.0645
  311POPC   C2B 4223   5.883   4.937   6.059 -0.1751  0.1061  0.0362
  311POPC   C3B 4224   5.913   5.007   6.457 -0.2677 -0.1045 -0.3018
  311POPC   C4B 4225   5.933   5.082   6.845 -0.0004  0.0349 -0.2698
  312POPC   NC3 4226   4.431   1.905   4.899  0.0836 -0.0849  0.2502
  312POPC   PO4 4227   4.295   2.287   4.979  0.0288  0.0474  0.4842
  312POPC   GL1 4228   4.318   2.114   5.378 -0.0178  0.0120  0.0091
  312POPC   GL2 4229   4.027   2.069   5.416 -0.4022  0.1464 -0.2411
  312POPC   C1A 4230   4.285   1.652   5.572 -0.1963 -0.1584  0.1123
  312POPC   D2A 4231   4.212   1.394   5.939 -0.0303 -0.0322  0.0259
  312POPC   C3A 4232   4.002   1.270   6.307 -0.1710 -0.0384 -0.0080
  312POPC   C4A 4233   3.848   1.272   6.718  0.2135  0.2788 -0.1752
  312POPC   C1B 4234   4.170   2.018   5.879  0.3935  0.2203  0.0841
  312POPC   C2B 4235   4.415   2.169   6.135  0.0130 -0.2866 -0.2432
  312POPC   C3B 4236   4.502   2.423   6.452 -0.0456  0.2054 -0.2470
  312POPC   C4B 4237   4.706   2.338   6.863  0.0839  0.1270 -0.1410
  313POPC   NC3 4238   0.925  10.028   4.913  0.1289 -0.2528  0.3041
  313POPC   PO4 4239   0.552   9.925   4.736  0.0993 -0.0782 -0.0430
  313POPC   GL1 4240   0.438  10.078   5.126  0.0115  0.0873  0.0285
  313POPC   GL2 4241   0.203  10.261   5.129  0.1136 -0.1774  0.1264
  313POPC   C1A 4242   0.696  10.102   5.484  0.3797 -0.3842  0.0210
  313POPC   D2A 4243   0.811   9.728   5.745 -0.1393  0.0443  0.1305
  313POPC   C3A 4244   1.050   9.698   6.215  0.3120 -0.0896  0.1920
  313POPC   C4A 4245   1.074   9.447   6.593  0.1188  0.1657  0.1497
  313POPC   C1B 4246   0.257  10.439   5.546 -0.3806  0.0506 -0.0869
  313POPC   C2B 4247   0.553  10.294   5.946  0.0762 -0.0664 -0.0858
  313POPC   C3B 4248   0.505  10.006   6.187  0.0685 -0.1951  0.2192
  313POPC   C4B 4249   0.675   9.751   6.504 -0.0470 -0.1068  0.0016
  314POPC   NC3 4250   2.703   1.442   4.765  0.1934  0.0329  0.0956
  314POPC   PO4 4251   2.586   1.015   4.926 -0.2735  0.1682  0.1545
  314POPC   GL1 4252   2.778   1.104   5.244 -0.1673  0.1770  0.0841
  314POPC   GL2 4253   2.895   1.438   5.263 -0.0283  0.0207 -0.2977
  314POPC   C1A 4254   2.920   1.098   5.695 -0.2019 -0.1421 -0.2031
  314POPC   D2A 4255   3.113   0.766   6.018  0.1188 -0.2750 -0.3502
  314POPC   C3A 4256   2.898   0.562   6.379  0.1363 -0.2311  0.0118
  314POPC   C4A 4257   2.642   0.433   6.620 -0.0216 -0.0359 -0.4344
  314POPC   C1B 4258   2.774   1.613   5.523  0.1774 -0.0955 -0.1343
  314POPC   C2B 4259   2.864   1.483   6.022 -0.5257  0.0339 -0.0186
  314POPC   C3B 4260   2.823   1.096   6.249  0.2384  0.1962  0.0782
  314POPC   C4B 4261   2.489   0.817   6.281 -0.0059  0.3189 -0.0696
  315POPC   NC3 4262   0.396   8.590   4.978  0.2728 -0.2074  0.0473
  315POPC   PO4 4263   0.217   8.888   4.804  0.2159  0.0480  0.0197
  315POPC   GL1 4264   0.368   9.125   5.203  0.1553  0.5823  0.0222
  315POPC   GL2 4265   0.504   8.864   5.412 -0.1683  0.1212  0.1901
  315POPC   C1A 4266   0.397   9.358   5.644  0.3716  0.2296  0.2701
  315POPC   D2A 4267   0.562   9.451   6.088  0.2516  0.1262 -0.0121
  315POPC   C3A 4268   0.209   9.421   6.349 -0.1847  0.2485 -0.3513
  315POPC   C4A 4269  -0.087   9.506   6.631  0.1014  0.0600 -0.0660
  315POPC   C1B 4270   0.382   8.583   5.764 -0.0147  0.1229  0.0816
  315POPC   C2B 4271   0.040   8.492   5.984  0.0019  0.0260 -0.0194
  315POPC   C3B 4272  -0.156   8.629   6.302 -0.2399  0.0790  0.1216
  315POPC   C4B 4273  -0.438   8.516   6.501 -0.1502  0.1117  0.1563
  316POPC   NC3 4274   6.879   4.963   4.070  0.2412  0.3326 -0.2267
  316POPC   PO4 4275   6.840   4.632   4.338  0.2589  0.0373  0.1623
  316POPC   GL1 4276   6.935   4.630   4.769 -0.0858 -0.2600 -0.3010
  316POPC   GL2 4277   6.879   4.261   4.836  0.0850  0.1918  0.4017
  316POPC   C1A 4278   7.056   4.622   5.163 -0.0999  0.0212  0.4041
  316POPC   D2A 4279   7.244   4.860   5.541  0.5176  0.1096  0.1043
  316POPC   C3A 4280   7.287   4.729   5.948  0.1134  0.4724  0.1967
  316POPC   C4A 4281   7.194   4.266   5.990  0.1944  0.0308 -0.3831
  316POPC   C1B 4282   6.869   3.970   5.127 -0.0608  0.2957  0.1752
  316POPC   C2B 4283   6.642   3.738   5.533 -0.1349  0.2230 -0.0208
  316POPC   C3B 4284   6.649   3.585   5.926  0.1574 -0.0293 -0.4392
  316POPC   C4B 4285   6.745   3.504   6.393  0.0404 -0.2343 -0.4339
  317POPC   NC3 4286   5.093   1.680   4.709 -0.2355  0.0825  0.0157
  317POPC   PO4 4287   4.987   2.055   4.552  0.1206  0.2911 -0.0278
  317POPC   GL1 4288   5.385   2.035   4.845  0.1184 -0.1353  0.2055
  317POPC   GL2 4289   5.197   1.910   5.116  0.1763  0.2866 -0.1804
  317POPC   C1A 4290   5.717   2.078   5.246  0.0704 -0.2012 -0.1055
  317POPC   D2A 4291   5.624   1.885   5.732 -0.2081 -0.0617  0.1068
  317POPC   C3A 4292   5.675   1.414   5.902  0.4469 -0.0189 -0.1517
  317POPC   C4A 4293   6.104   1.256   6.077  0.5240  0.1805 -0.1732
  317POPC   C1B 4294   5.146   2.182   5.361 -0.0350 -0.1550  0.0682
  317POPC   C2B 4295   5.466   2.433   5.662 -0.0532  0.1160  0.0672
  317POPC   C3B 4296   5.601   2.341   5.996 -0.1422  0.0119  0.2148
  317POPC   C4B 4297   5.989   2.475   6.156 -0.0920  0.1749  0.2534
  318POPC   NC3 4298   9.868  10.224   4.123 -0.1600  0.2313  0.2535
  318POPC   PO4 4299   9.640  10.575   4.223  0.1654 -0.0194  0.3165
  318POPC   GL1 4300   9.622  10.687   4.613  0.2905 -0.2215 -0.0279
  318POPC   GL2 4301   9.849  10.436   4.780  0.1664 -0.2577 -0.0459
  318POPC   C1A 4302   9.369  10.851   5.054  0.3143  0.0777 -0.0706
  318POPC   D2A 4303   9.194  10.709   5.425  0.0334  0.0960 -0.0995
  318POPC   C3A 4304   9.445  10.553   5.820 -0.2529 -0.1675 -0.0130
  318POPC   C4A 4305   9.397  10.792   6.225  0.0613  0.0800 -0.2236
  318POPC   C1B 4306   9.556  10.378   5.072 -0.0050  0.1768  0.0273
  318POPC   C2B 4307   9.757  10.582   5.443  0.3509  0.1382  0.2067
  318POPC   C3B 4308  10.121  10.752   5.643 -0.0631 -0.0459 -0.1814
  318POPC   C4B 4309  10.492  10.869   5.737 -0.1292  0.2782 -0.2177
  319POPC   NC3 4310  10.393   3.402   3.649  0.1507  0.0783  0.1513
  319POPC   PO4 4311  10.319   3.886   3.627  0.2094  0.3933 -0.0186
  319POPC   GL1 4312  10.220   3.932   3.963 -0.0284  0.2186  0.0310
  319POPC   GL2 4313   9.862   3.874   4.196  0.2520  0.1487 -0.2282
  319POPC   C1A 4314  10.495   3.917   4.371  0.1218 -0.0795  0.3198
  319POPC   D2A 4315  10.584   4.079   4.809  0.3053  0.0282  0.1700
  319POPC   C3A 4316  10.182   4.374   4.961 -0.0243  0.3861  0.0655
  319POPC   C4A 4317   9.854   4.354   5.179 -0.2475 -0.0830  0.0404
  319POPC   C1B 4318   9.969   4.051   4.675  0.0178  0.1150  0.0288
  319POPC   C2B 4319  10.122   3.890   5.108 -0.0496 -0.0456  0.1553
  319POPC   C3B 4320  10.077   3.785   5.479  0.3508 -0.1385  0.1544
  319POPC   C4B 4321   9.966   3.964   5.851 -0.2262 -0.0242  0.1225
  320POPC   NC3 4322   0.623   0.050   4.140  0.0282 -0.0399  0.0120
  320POPC   PO4 4323   0.162   0.161   4.137  0.2807 -0.0459  0.1610
  320POPC   GL1 4324   0.174   0.260   4.636 -0.2816 -0.2911 -0.1287
  320POPC   GL2 4325  -0.043   0.112   4.912 -0.3240  0.0732  0.1955
  320POPC   C1A 4326   0.077   0.596   4.985  0.1725 -0.0784 -0.1449
  320POPC   D2A 4327   0.026   1.108   4.932 -0.0246 -0.1254 -0.1415
  320POPC   C3A 4328  -0.302   1.279   4.918  0.0247 -0.1213  0.3264
  320POPC   C4A 4329  -0.723   1.261   4.696  0.0882 -0.5658  0.1303
  320POPC   C1B 4330  -0.257  -0.112   5.230  0.1299  0.2567  0.1975
  320POPC   C2B 4331  -0.186  -0.202   5.634 -0.2521  0.2143 -0.3641
  320POPC   C3B 4332  -0.013  -0.083   6.071 -0.0029  0.0348  0.1016
  320POPC   C4B 4333   0.257   0.218   6.291  0.1193  0.2175 -0.0229
  321POPC   NC3 4334   3.292   0.001   4.264 -0.0909 -0.5621  0.0878
  321POPC   PO4 4335   3.610   0.347   4.434 -0.1641 -0.2403 -0.1043
  321POPC   GL1 4336   3.769   0.271   4.930  0.1685  0.2827 -0.1042
  321POPC   GL2 4337   4.110   0.206   5.002  0.0874  0.2048  0.3559
  321POPC   C1A 4338   3.796   0.332   5.406  0.3826 -0.0807  0.2338
  321POPC   D2A 4339   3.981   0.311   5.940 -0.1195 -0.0774  0.0244
  321POPC   C3A 4340   3.832   0.006   6.160 -0.0950 -0.1129 -0.0180
  321POPC   C4A 4341   3.623  -0.387   6.065  0.1966 -0.0852  0.2683
  321POPC   C1B 4342   4.286   0.136   5.458 -0.3074  0.2607  0.1224
  321POPC   C2B 4343   4.412  -0.176   5.831 -0.0033  0.0685  0.1289
  321POPC   C3B 4344   4.546  -0.354   6.180 -0.0025 -0.1355 -0.2907
  321POPC   C4B 4345   4.890  -0.435   6.366  0.0510 -0.2437  0.1984
  322POPC   NC3 4346   5.865   5.356   5.011 -0.2071 -0.0541  0.1503
  322POPC   PO4 4347   5.730   5.050   5.245  0.0535 -0.2178 -0.1199
  322POPC   GL1 4348   5.459   4.750   5.416 -0.0569  0.0691  0.1816
  322POPC   GL2 4349   5.437   4.447   5.339 -0.0302 -0.0662 -0.3217
  322POPC   C1A 4350   5.391   4.675   5.792  0.1303  0.1067  0.1814
  322POPC   D2A 4351   5.312   4.452   6.100  0.0380  0.0771  0.1261
  322POPC   C3A 4352   5.461   4.638   6.392 -0.2555 -0.0205 -0.0035
  322POPC   C4A 4353   5.679   4.680   6.830  0.1057  0.1817 -0.5392
  322POPC   C1B 4354   5.233   4.150   5.640  0.1359 -0.0286 -0.3033
  322POPC   C2B 4355   5.543   3.874   5.841  0.2958  0.1424  0.1268
  322POPC   C3B 4356   5.570   3.522   6.162  0.1870  0.0299 -0.2062
  322POPC   C4B 4357   5.684   3.189   6.477  0.2579  0.1446 -0.1651
  323POPC   NC3 4358   8.012   6.515   4.535 -0.2133 -0.1661  0.2936
  323POPC   PO4 4359   8.140   6.953   4.772  0.0860  0.1298 -0.1174
  323POPC   GL1 4360   8.000   7.016   5.215 -0.0244 -0.1447 -0.2242
  323POPC   GL2 4361   7.885   7.139   5.425  0.0785  0.0924  0.3913
  323POPC   C1A 4362   7.993   6.644   5.537  0.3405  0.1857  0.3823
  323POPC   D2A 4363   8.062   6.161   5.548  0.0711 -0.0060 -0.2081
  323POPC   C3A 4364   8.241   6.086   6.019 -0.2651  0.0292  0.1577
  323POPC   C4A 4365   8.200   6.009   6.461 -0.3268 -0.0546 -0.0542
  323POPC   C1B 4366   7.897   6.971   5.881 -0.1729  0.0454  0.1237
  323POPC   C2B 4367   7.997   7.007   6.306  0.1564 -0.0507 -0.0796
  323POPC   C3B 4368   8.147   7.245   6.691  0.2014 -0.0757 -0.0825
  323POPC   C4B 4369   8.552   7.439   6.682  0.1349 -0.2876  0.0664
  324POPC   NC3 4370   8.605   0.848   3.848 -0.1840 -0.1056  0.1291
  324POPC   PO4 4371   8.940   0.635   3.718 -0.1820 -0.2867  0.0599
  324POPC   GL1 4372   9.134   0.828   4.048 -0.1182  0.2326  0.0130
  324POPC   GL2 4373   8.849   1.025   4.229 -0.1534  0.1183  0.2490
  324POPC   C1A 4374   9.423   0.984   4.455  0.0089  0.1161 -0.0180
  324POPC   D2A 4375   9.550   0.748   4.751  0.2337 -0.0476  0.0939
  324POPC   C3A 4376   9.631   0.978   5.084 -0.1244 -0.0520 -0.2579
  324POPC   C4A 4377   9.239   1.105   5.370  0.2861  0.1003 -0.1112
  324POPC   C1B 4378   8.972   1.409   4.347 -0.2425 -0.0905 -0.3290
  324POPC   C2B 4379   8.800   1.735   4.567 -0.2998 -0.0730  0.3408
  324POPC   C3B 4380   8.745   1.876   4.964  0.4203 -0.3687 -0.0472
  324POPC   C4B 4381   8.681   2.182   5.184  0.0310 -0.0857  0.1689
  325POPC   NC3 4382   5.208   6.538   5.048 -0.1079 -0.1957  0.1848
  325POPC   PO4 4383   5.525   6.891   5.066  0.1226  0.0388  0.0562
  325POPC   GL1 4384   5.291   6.799   5.478 -0.0940 -0.0480  0.3440
  325POPC   GL2 4385   5.390   7.143   5.476  0.3315 -0.0063 -0.0795
  325POPC   C1A 4386   5.494   6.746   5.881  0.2263 -0.3828 -0.2523
  325POPC   D2A 4387   5.486   6.769   6.337 -0.0978 -0.1038 -0.1922
  325POPC   C3A 4388   5.028   6.519   6.503 -0.1296 -0.1122  0.2533
  325POPC   C4A 4389   4.830   6.199   6.711 -0.0616  0.1296  0.0631
  325POPC   C1B 4390   5.760   7.390   5.764  0.2361  0.2090 -0.1153
  325POPC   C2B 4391   5.888   7.162   6.197  0.0812 -0.0359  0.0476
  325POPC   C3B 4392   6.146   7.196   6.475  0.1459 -0.0982 -0.2794
  325POPC   C4B 4393   6.474   6.829   6.700  0.0354 -0.3709  0.2218
  326POPC   NC3 4394  10.287   7.437   5.005 -0.0993  0.5455  0.1522
  326POPC   PO4 4395   9.912   7.133   5.038 -0.2483 -0.0720 -0.2314
  326POPC   GL1 4396   9.738   7.073   5.461 -0.1181 -0.3102 -0.2354
  326POPC   GL2 4397   9.455   7.269   5.638 -0.1853 -0.2206  0.0278
  326POPC   C1A 4398   9.709   6.797   5.847  0.0477 -0.2070  0.2583
  326POPC   D2A 4399   9.759   6.468   5.993 -0.0558  0.4630 -0.0652
  326POPC   C3A 4400   9.631   6.046   6.265 -0.3237 -0.0450 -0.0824
  326POPC   C4A 4401   9.639   5.947   6.721  0.1191  0.0001  0.4375
  326POPC   C1B 4402   9.311   7.104   6.031 -0.3017  0.0442  0.0014
  326POPC   C2B 4403   9.193   6.869   6.430 -0.2193 -0.1835  0.1378
  326POPC   C3B 4404   9.334   6.770   6.866  0.0024  0.3773 -0.0359
  326POPC   C4B 4405   9.530   6.366   6.928 -0.0613  0.1227 -0.2568
  327POPC   NC3 4406   8.666   7.103   4.594  0.1457 -0.1556  0.0973
  327POPC   PO4 4407   8.880   6.922   4.974  0.0052  0.0738  0.2417
  327POPC   GL1 4408   8.905   7.208   5.397 -0.1414  0.0852 -0.0907
  327POPC   GL2 4409   9.000   7.476   5.488 -0.1904  0.0047 -0.0957
  327POPC   C1A 4410   8.802   7.187   5.866 -0.0975  0.1323 -0.1609
  327POPC   D2A 4411   8.509   7.175   6.212 -0.0366 -0.0946  0.0678
  327POPC   C3A 4412   8.457   6.909   6.468 -0.0433  0.3585  0.1951
  327POPC   C4A 4413   8.384   6.740   6.911 -0.1562 -0.1259 -0.1517
  327POPC   C1B 4414   9.040   7.632   5.849  0.0688  0.1455 -0.0908
  327POPC   C2B 4415   8.650   7.647   6.149 -0.2435  0.3624 -0.0057
  327POPC   C3B 4416   8.239   7.662   6.277  0.0476 -0.3273  0.0228
  327POPC   C4B 4417   7.857   7.633   6.543  0.3190  0.0831 -0.1768
  328POPC   NC3 4418   7.523   6.954   5.035 -0.1971  0.1380 -0.2516
  328POPC   PO4 4419   7.068   6.706   5.040  0.0914 -0.2481  0.1776
  328POPC   GL1 4420   7.302   6.728   5.437 -0.0183 -0.1604 -0.2498
  328POPC   GL2 4421   7.492   6.528   5.497 -0.1039 -0.1868 -0.0629
  328POPC   C1A 4422   7.308   6.740   5.896  0.0509  0.1682 -0.3986
  328POPC   D2A 4423   7.421   6.659   6.268 -0.0679 -0.0339  0.2775
  328POPC   C3A 4424   7.312   6.838   6.702 -0.2137 -0.3001  0.0858
  328POPC   C4A 4425   6.969   6.708   6.944 -0.1236  0.1885  0.0061
  328POPC   C1B 4426   7.650   6.207   5.814  0.0198  0.0467 -0.0060
  328POPC   C2B 4427   7.672   6.075   6.232 -0.0922 -0.0391  0.1188
  328POPC   C3B 4428   7.705   5.897   6.684  0.1787 -0.0755  0.1657
  328POPC   C4B 4429   7.519   5.655   6.918 -0.1088 -0.1354  0.0123
  329POPC   NC3 4430   3.971   8.608   4.618 -0.2129  0.0203 -0.0094
  329POPC   PO4 4431   3.889   8.204   4.506 -0.1248  0.2746 -0.1212
  329POPC   GL1 4432   3.755   8.032   4.855 -0.1682 -0.1299  0.1077
  329POPC   GL2 4433   3.751   7.743   4.771 -0.1948 -0.0140  0.1318
  329POPC   C1A 4434   3.912   7.826   5.349 -0.0942  0.0560  0.0116
  329POPC   D2A 4435   3.839   7.517   5.727 -0.2421 -0.2632 -0.1475
  329POPC   C3A 4436   3.757   7.533   6.083  0.0940 -0.2492  0.1728
  329POPC   C4A 4437   3.896   7.608   6.401  0.1833  0.1097  0.0660
  329POPC   C1B 4438   3.457   7.619   5.193  0.4335 -0.0714 -0.1850
  329POPC   C2B 4439   3.461   7.843   5.576  0.1414 -0.4418  0.0370
  329POPC   C3B 4440   3.519   7.935   5.942  0.3183 -0.0045 -0.1289
  329POPC   C4B 4441   3.485   8.163   6.332  0.0398 -0.2047 -0.1888
  330POPC   NC3 4442   8.791   4.693   4.383  0.2076 -0.1409 -0.1417
  330POPC   PO4 4443   8.644   4.844   4.745 -0.0731 -0.0437  0.0306
  330POPC   GL1 4444   8.473   4.945   5.180 -0.1996 -0.0664  0.0751
  330POPC   GL2 4445   8.691   5.166   5.289  0.3438  0.1203  0.2252
  330POPC   C1A 4446   8.270   4.959   5.553 -0.2920 -0.0613 -0.2110
  330POPC   D2A 4447   8.249   4.772   6.006  0.0705  0.2119  0.3502
  330POPC   C3A 4448   8.151   4.997   6.393 -0.0307  0.2475  0.1415
  330POPC   C4A 4449   8.123   4.869   6.802 -0.1080  0.3462 -0.1059
  330POPC   C1B 4450   8.819   5.209   5.660 -0.1954  0.0501  0.0564
  330POPC   C2B 4451   8.681   5.018   6.035 -0.1606 -0.1276  0.0408
  330POPC   C3B 4452   8.610   4.893   6.490  0.2872  0.0351 -0.3799
  330POPC   C4B 4453   8.762   4.611   6.872  0.1384 -0.1056 -0.2024
  331POPC   NC3 4454   6.656   0.198   4.760  0.0291 -0.3230  0.1785
  331POPC   PO4 4455   6.249   0.016   4.909 -0.0765 -0.1510  0.1959
  331POPC   GL1 4456   6.551   0.104   5.273 -0.0053  0.0521  0.0764
  331POPC   GL2 4457   6.374   0.390   5.453  0.3689 -0.0217 -0.0672
  331POPC   C1A 4458   6.673   0.082   5.764  0.0644 -0.4119 -0.1916
  331POPC   D2A 4459   6.788   0.209   6.240 -0.0510 -0.1570 -0.0340
  331POPC   C3A 4460   6.841   0.018   6.568  0.0143 -0.1101 -0.2293
  331POPC   C4A 4461   6.941  -0.119   7.103 -0.0042 -0.0506  0.2227
  331POPC   C1B 4462   6.356   0.514   5.867  0.0569  0.1166 -0.1561
  331POPC   C2B 4463   6.356   0.613   6.279 -0.2792  0.1007 -0.3069
  331POPC   C3B 4464   6.448   0.408   6.672 -0.0202  0.2267 -0.1480
  331POPC   C4B 4465   6.661   0.240   7.026  0.4270  0.0247 -0.1934
  332POPC   NC3 4466   4.548   3.584   4.759 -0.0912  0.0111 -0.0860
  332POPC   PO4 4467   4.946   3.574   5.031 -0.0135 -0.1915 -0.1673
  332POPC   GL1 4468   5.198   3.434   5.353  0.2502 -0.1130  0.0277
  332POPC   GL2 4469   5.562   3.649   5.365 -0.0452  0.1009  0.0323
  332POPC   C1A 4470   5.437   3.231   5.695 -0.1175 -0.0339  0.0148
  332POPC   D2A 4471   5.352   2.909   5.968 -0.2467 -0.1238  0.0735
  332POPC   C3A 4472   5.543   2.760   6.310 -0.3060 -0.3007 -0.0600
  332POPC   C4A 4473   5.530   2.394   6.572 -0.0207 -0.0364 -0.2653
  332POPC   C1B 4474   5.869   3.433   5.616 -0.2101 -0.0414  0.1530
  332POPC   C2B 4475   6.237   3.363   5.756  0.1626  0.0966 -0.2070
  332POPC   C3B 4476   6.471   3.119   6.076  0.0244 -0.0105  0.0891
  332POPC   C4B 4477   6.488   2.649   6.204 -0.0102 -0.0185 -0.0794
  333POPC   NC3 4478   8.837   9.473   4.526  0.1927 -0.2249  0.0180
  333POPC   PO4 4479   8.517   9.105   4.586 -0.1222  0.1516 -0.2657
  333POPC   GL1 4480   8.374   9.037   4.984 -0.0032 -0.2828 -0.1696
  333POPC   GL2 4481   8.358   9.344   5.070  0.2030  0.0557  0.0799
  333POPC   C1A 4482   8.623   9.091   5.424 -0.1633  0.0331  0.1795
  333POPC   D2A 4483   8.592   9.378   5.820  0.2563 -0.0357 -0.1089
  333POPC   C3A 4484   8.845   9.397   6.158 -0.6386  0.1676 -0.0622
  333POPC   C4A 4485   8.827   9.596   6.560  0.2196  0.2539  0.4103
  333POPC   C1B 4486   8.139   9.298   5.476  0.1367 -0.0096 -0.0062
  333POPC   C2B 4487   8.033   9.388   5.836  0.2046 -0.3514 -0.0788
  333POPC   C3B 4488   7.955   9.434   6.393 -0.1207  0.3922 -0.0798
  333POPC   C4B 4489   8.050   9.495   6.814  0.1764  0.0066  0.3304
  334POPC   NC3 4490   4.668   3.978   5.114 -0.0254 -0.0504 -0.3740
  334POPC   PO4 4491   4.265   3.959   5.101 -0.1814  0.1469  0.1031
  334POPC   GL1 4492   3.950   4.025   5.588 -0.0694  0.1737 -0.3116
  334POPC   GL2 4493   4.261   3.975   5.789  0.1283  0.0344 -0.1676
  334POPC   C1A 4494   3.864   4.285   5.993  0.0743  0.0590  0.1019
  334POPC   D2A 4495   3.595   4.654   6.030 -0.2804 -0.0139  0.1043
  334POPC   C3A 4496   3.269   5.013   6.093  0.1146 -0.1856  0.0690
  334POPC   C4A 4497   2.888   5.057   6.209 -0.2388 -0.1672 -0.1440
  334POPC   C1B 4498   4.188   3.901   6.224  0.2115  0.1279 -0.2523
  334POPC   C2B 4499   4.170   3.666   6.648 -0.2144 -0.2201  0.1359
  334POPC   C3B 4500   4.175   3.404   6.952 -0.1033  0.5090  0.2315
  334POPC   C4B 4501   4.363   3.077   7.099  0.2309  0.0246 -0.0733
  335POPC   NC3 4502   2.830   8.648   4.048 -0.4180 -0.2125  0.0688
  335POPC   PO4 4503   2.731   8.994   4.230 -0.0872 -0.0899  0.2388
  335POPC   GL1 4504   2.937   8.897   4.641  0.0347  0.1603  0.0468
  335POPC   GL2 4505   2.771   8.991   4.881 -0.1351 -0.0682  0.0612
  335POPC   C1A 4506   2.833   8.580   5.079 -0.0270 -0.3855 -0.1069
  335POPC   D2A 4507   2.510   8.432   5.270 -0.1465 -0.2920 -0.0518
  335POPC   C3A 4508   2.380   8.818   5.447 -0.0592 -0.1884 -0.0937
  335POPC   C4A 4509   2.388   9.000   5.811  0.0349 -0.0566 -0.0539
  335POPC   C1B 4510   2.962   9.096   5.284 -0.0762  0.2121 -0.0083
  335POPC   C2B 4511   2.833   9.188   5.650  0.1841 -0.2953 -0.0989
  335POPC   C3B 4512   2.700   9.242   6.111 -0.1494  0.0243  0.2000
  335POPC   C4B 4513   2.421   9.428   6.495 -0.0432 -0.4147 -0.0708
  336POPC   NC3 4514   7.892   2.063   3.722 -0.0182  0.0407 -0.2129
  336POPC   PO4 4515   7.594   1.662   3.623  0.1171  0.1342  0.0257
  336POPC   GL1 4516   7.754   1.675   4.081 -0.0085  0.2738  0.2457
  336POPC   GL2 4517   7.901   1.402   4.229 -0.2791  0.0793 -0.5770
  336POPC   C1A 4518   7.833   1.850   4.471 -0.0408 -0.2793 -0.0241
  336POPC   D2A 4519   7.927   1.880   4.803 -0.1305  0.2224  0.1390
  336POPC   C3A 4520   8.387   2.099   4.807 -0.0173 -0.1278 -0.0271
  336POPC   C4A 4521   8.581   2.465   4.571  0.1310  0.2916 -0.1907
  336POPC   C1B 4522   7.773   1.304   4.686 -0.0879  0.0980 -0.0825
  336POPC   C2B 4523   7.823   1.381   5.061  0.0272  0.0816 -0.0916
  336POPC   C3B 4524   7.900   1.409   5.490  0.2051  0.0049 -0.1110
  336POPC   C4B 4525   8.206   1.223   5.733 -0.3382 -0.0007  0.1632
  337POPC   NC3 4526   3.758  10.356   4.521  0.1175 -0.1774 -0.0240
  337POPC   PO4 4527   3.613  10.009   4.590 -0.2052  0.2497 -0.1289
  337POPC   GL1 4528   3.657  10.197   5.009 -0.2439 -0.4392  0.3755
  337POPC   GL2 4529   3.493   9.912   5.265 -0.0573  0.0061 -0.0993
  337POPC   C1A 4530   3.426  10.466   5.200  0.0537  0.3616 -0.4614
  337POPC   D2A 4531   3.307  10.732   5.407 -0.0658  0.0214 -0.4251
  337POPC   C3A 4532   3.018  11.071   5.498  0.2221 -0.0809 -0.0517
  337POPC   C4A 4533   2.651  11.174   5.816  0.2946  0.3327  0.0616
  337POPC   C1B 4534   3.330   9.987   5.683 -0.2172 -0.1993  0.0572
  337POPC   C2B 4535   3.112  10.163   5.966 -0.1046 -0.0678  0.1385
  337POPC   C3B 4536   2.799  10.172   6.256  0.0089 -0.0479 -0.0874
  337POPC   C4B 4537   2.760  10.386   6.690 -0.0617  0.0554  0.3643
  338W        W 4538   1.606   2.395   3.228  0.1598  0.1774 -0.0507
  339W        W 4539   7.809   8.317  12.075  0.1455  0.0251  0.1441
  340W        W 4540   9.947  10.282   2.177  0.1550  0.2617  0.1951
  341W        W 4541  10.286   8.863  11.562 -0.1860  0.1549  0.2553
  342W        W 4542   6.618   2.323  10.508 -0.0704 -0.1139  0.0446
  343W        W 4543   5.420   1.520   9.441  0.0743 -0.2359 -0.2589
  344W        W 4544   4.545   3.332   3.288  0.1032 -0.2147 -0.1995
  345W        W 4545   4.842   9.937  11.421  0.0639  0.1222 -0.1504
  346W        W 4546   7.456   5.969   0.281  0.1576 -0.0518  0.0396
  347W        W 4547   0.001   4.327   9.479  0.0250 -0.1022  0.2709
  348W        W 4548   7.119   6.939  10.034 -0.1582 -0.0768  0.0837
  349W        W 4549   3.891   3.558  12.356 -0.3609 -0.0604  0.0837
  350W        W 4550   1.332   2.730   2.059  0.5584 -0.0130 -0.0643
  351W        W 4551   1.714   1.490   1.399 -0.0837  0.0541 -0.0064
  352W        W 4552   9.917   9.818  11.436  0.2799 -0.2608 -0.3594
  353W        W 4553   2.602   5.474  12.518 -0.1341  0.0040  0.0862
  354W        W 4554   7.795   0.945  12.787 -0.2599  0.1093  0.0500
  355W        W 4555   6.017   5.523   2.846  0.0215 -0.0621  0.0470
  356W        W 4556   9.795   9.247   9.807 -0.1008 -0.2772  0.0990
  357W        W 4557   8.742   0.862  10.786  0.0736  0.2853 -0.0034
  358W        W 4558   3.122   0.708  10.565 -0.2696 -0.0543 -0.1161
  359W        W 4559   8.166   5.177   3.388 -0.1745  0.2437 -0.1514
  360W        W 4560   0.133   1.031   0.686  0.0251 -0.1602  0.1896
  361W        W 4561   9.342   6.498   5.628 -0.0266  0.0491 -0.1104
  362W        W 4562   9.446   6.422   1.855  0.0387 -0.0078  0.0856
  363W        W 4563   9.447   4.596  12.865  0.1158 -0.0300  0.0305
  364W        W 4564   3.033   4.867   2.848  0.0292  0.0872  0.0755
  365W        W 4565   0.322   8.946   3.270 -0.2039  0.1515 -0.0522
  366W        W 4566   5.086   2.124   1.023 -0.2051 -0.0963  0.0303
  367W        W 4567   2.810   1.637   9.853  0.0776  0.0386 -0.1530
  368W        W 4568   5.674   9.878   9.877  0.0587 -0.2424  0.0406
  369W        W 4569   0.172   6.096   4.592 -0.2504 -0.1442 -0.1029
  370W        W 4570   0.666   3.171   4.287 -0.2263 -0.1789 -0.1643
  371W        W 4571   7.380   8.621   4.657 -0.0785  0.1729 -0.3566
  372W        W 4572   6.879   4.738  10.993  0.1318 -0.0130 -0.2378
  373W        W 4573   9.313   3.592  12.438 -0.2210 -0.0907 -0.2427
  374W        W 4574   1.791   9.329   9.428  0.3738 -0.1312 -0.1416
  375W        W 4575   8.198   7.732   2.120 -0.2188 -0.1278 -0.1742
  376W        W 4576   8.413   5.757   1.445  0.1067 -0.2852 -0.0823
  377W        W 4577   4.920   2.032  10.214 -0.0187  0.2721  0.0084
  378W        W 4578   6.973   3.613   1.057 -0.3240 -0.0743 -0.1355
  379W        W 4579   7.377  10.167  10.193 -0.0373 -0.1814 -0.1312
  380W        W 4580   1.197   2.731  10.778  0.1318 -0.3036  0.0958
  381W        W 4581   0.604   1.204  12.591  0.0336  0.4103  0.3914
  382W        W 4582   4.305   9.276   2.133  0.0766  0.1472 -0.0237
  383W        W 4583   5.723   1.652   4.793 -0.0955  0.1936 -0.0877
  384W        W 4584   9.750  10.360  10.984  0.0611 -0.1295 -0.0111
  385W        W 4585   0.051   2.265   0.552  0.3506  0.1260  0.0572
  386W        W 4586   6.294   1.152  10.196 -0.0815 -0.4273 -0.0442
  387W        W 4587   7.449   5.987  10.476 -0.3578 -0.3197  0.2644
  388W        W 4588   4.971   8.903   0.335 -0.1795 -0.2279 -0.0043
  389W        W 4589   7.157   0.000   0.193  0.0498 -0.2753 -0.1411
  390W        W 4590  10.336  10.303   0.850  0.0812  0.0150  0.1075
  391W        W 4591   8.055   6.357   2.088 -0.1079 -0.4338  0.1998
  392W        W 4592  10.457   5.388   9.708 -0.0282 -0.2769 -0.0573
  393W        W 4593   4.437   8.369  10.213 -0.2661  0.2043  0.0343
  394W        W 4594   1.487   8.439   3.466  0.0145 -0.0021  0.2858
  395W        W 4595   0.424   2.942   1.337  0.1452  0.0050 -0.1324
  396W        W 4596   6.195   6.366  11.394  0.4047  0.3403 -0.1643
  397W        W 4597   7.342   6.211   3.496  0.2614  0.1872  0.0139
  398W        W 4598   2.195   4.220   9.536  0.4469  0.2277  0.1310
  399W        W 4599   3.538   8.484  12.705  0.0904 -0.1909  0.2379
  400W        W 4600   2.086   8.245   2.912 -0.2878  0.0436  0.1128
  401W        W 4601   4.659   6.057   0.360 -0.0141 -0.0572 -0.2783
  402W        W 4602   3.001   4.019   8.945  0.0034 -0.1313 -0.2093
  403W        W 4603   1.972   0.445   1.396  0.0145  0.0041  0.0615
  404W        W 4604   3.043   3.387   9.991  0.4389  0.0461  0.0903
  405W        W 4605   5.105   8.641   0.690 -0.1374 -0.3977 -0.0137
  406W        W 4606   5.347   2.671  10.741 -0.1715 -0.1452 -0.0130
  407W        W 4607   5.550   2.298   1.335 -0.0430  0.0632 -0.0310
  408W        W 4608   3.491   8.464  12.128 -0.0299 -0.1070  0.1038
  409W        W 4609   9.175   6.791  11.533  0.0750 -0.0217 -0.0546
  410W        W 4610   0.164   1.338  11.616 -0.1894  0.0881 -0.2322
  411W        W 4611   6.112   6.616   1.953 -0.0894 -0.1458 -0.1901
  412W        W 4612   5.468   7.802   2.216  0.3534 -0.1656  0.2532
  413W        W 4613   1.405  10.149   9.496  0.2474 -0.0164  0.0647
  414W        W 4614   4.297   8.338  10.792 -0.0644  0.0080 -0.1939
  415W        W 4615   1.791   0.681  11.936 -0.1949  0.3509 -0.3392
  416W        W 4616   5.951   4.549  10.984  0.0387  0.0257 -0.0220
  417W        W 4617   9.227   9.376  12.352  0.1725  0.2314 -0.2513
  418W        W 4618   7.712   2.005  12.399 -0.0391 -0.3658 -0.1453
  419W        W 4619   5.457   9.498   0.422 -0.1117 -0.1816  0.1246
  420W        W 4620   3.317   1.890   2.324 -0.1214 -0.0690 -0.0180
  421W        W 4621   3.566   4.736  10.570  0.1699  0.0112  0.2080
  422W        W 4622   4.698   1.891  11.916  0.0403  0.1775 -0.1094
  423W        W 4623   8.072   6.459  13.182  0.0497  0.2472 -0.0120
  424W        W 4624   6.758   3.031  10.911  0.1183  0.0250  0.0666
  425W        W 4625   8.709   7.135   8.485  0.1100  0.0420 -0.1611
  426W        W 4626   2.024   2.600   3.046 -0.0233  0.1275 -0.1214
  427W        W 4627   2.218   5.106   4.418 -0.1239 -0.1224  0.1424
  428W        W 4628   1.803   9.862   9.271 -0.1598 -0.2560 -0.1708
  429W        W 4629   0.465   9.394   3.364  0.1198  0.3337  0.0240
  430W        W 4630   5.777   2.175  12.182 -0.3020 -0.2411  0.0316
  431W        W 4631   9.036   8.995   3.683  0.4012 -0.1609 -0.0363
  432W        W 4632   5.161   3.738   1.828 -0.2138  0.1420 -0.3298
  433W        W 4633   4.400   4.812  13.124  0.0903 -0.0327  0.0612
  434W        W 4634   1.628   8.348  11.778  0.1972 -0.0719 -0.0372
  435W        W 4635   4.000   5.552   9.637  0.0652 -0.0169  0.0715
  436W        W 4636   6.286   4.016   2.448  0.0958  0.0177 -0.0616
  437W        W 4637   8.420   0.799   9.996 -0.3039 -0.1675 -0.0919
  438W        W 4638   5.097   9.699  11.100 -0.4095  0.0501  0.1596
  439W        W 4639   9.324   9.269   1.118 -0.2886 -0.1449 -0.0413
  440W        W 4640   3.316   6.991   0.480  0.4115 -0.0692 -0.2141
  441W        W 4641   4.937   6.315   3.043  0.3834  0.1732  0.1469
  442W        W 4642   3.644   2.752   2.230 -0.1067 -0.2294  0.1762
  443W        W 4643   3.371   0.485   3.026 -0.1080  0.0394  0.3244
  444W        W 4644   6.162   4.683  10.530  0.1373 -0.1295 -0.0037
  445W        W 4645   2.204   6.504   2.452  0.1582  0.1660 -0.0114
  446W        W 4646   2.316   4.811   3.771 -0.1003  0.0966 -0.0174
  447W        W 4647   5.113   6.345  13.119  0.1776  0.0847 -0.3529
  448W        W 4648   2.358   8.208  13.003 -0.1518 -0.1590 -0.0709
  449W        W 4649   6.518   5.207  12.671  0.1195 -0.1900  0.1072
  450W        W 4650   1.362   9.658  12.168  0.0832  0.1399 -0.2375
  451W        W 4651   4.419   9.693   9.929  0.4084 -0.1231 -0.0090
  452W        W 4652  10.071   8.053   4.628  0.2827  0.1481  0.2020
  453W        W 4653   4.083   7.610  10.735  0.0512  0.0976 -0.0932
  454W        W 4654   8.317   9.826   0.403  0.1002  0.1418 -0.1945
  455W        W 4655   2.789   7.219  10.825  0.1676  0.0713 -0.5014
  456W        W 4656   3.655   3.595  11.246 -0.1164  0.0439  0.2278
  457W        W 4657   9.433   6.987   0.693 -0.1413  0.1117  0.3660
  458W        W 4658   5.154   7.399  11.080  0.0379 -0.2205  0.1375
  459W        W 4659   4.581   9.230   4.163  0.2920 -0.0184  0.0611
  460W        W 4660   3.483   8.048  12.421 -0.5357  0.0200 -0.0083
  461W        W 4661   6.770  10.204   0.537 -0.1237 -0.3492  0.0649
  462W        W 4662   1.583   7.594   0.988 -0.1540 -0.1833  0.2145
  463W        W 4663   6.462   9.497   9.480  0.2182 -0.2459 -0.1375
  464W        W 4664   0.688   8.474  13.035 -0.0605  0.3871  0.2874
  465W        W 4665   8.577   9.930  12.999 -0.3720  0.2099 -0.1201
  466W        W 4666   4.891   3.929   0.931 -0.2898 -0.1702 -0.1829
  467W        W 4667   3.084   0.180  12.822  0.1685  0.1175  0.4417
  468W        W 4668   9.006   7.251   0.469 -0.4696  0.1041  0.2559
  469W        W 4669   5.776   7.484   0.559 -0.2854 -0.1701 -0.2586
  470W        W 4670   5.164   6.314   5.502  0.3342 -0.3978  0.1892
  471W        W 4671   1.669   8.575   9.954 -0.1320 -0.2071 -0.0081
  472W        W 4672   7.609   5.322  11.686 -0.0553 -0.1517  0.1052
  473W        W 4673   9.981   4.503   2.230 -0.2656 -0.1640 -0.2240
  474W        W 4674   0.436   5.840   4.083 -0.1753  0.3120 -0.2340
  475W        W 4675   9.101   6.682   2.715  0.0502 -0.2052  0.1472
  476W        W 4676   2.768  10.270   3.056 -0.2327 -0.0904 -0.0594
  477W        W 4677   7.976   2.777  11.939 -0.0216  0.1860  0.0376
  478W        W 4678   5.789   5.263   2.493  0.0992 -0.4679 -0.0207
  479W        W 4679   1.939   5.870   4.980 -0.2809  0.3378 -0.0629
  480W        W 4680   8.801   0.248   2.835  0.0902 -0.1622  0.0171
  481W        W 4681   2.240   0.106   1.125 -0.1820 -0.1700 -0.1473
  482W        W 4682   6.224   3.604   3.665 -0.0825 -0.1862  0.1301
  483W        W 4683   6.861   8.888   2.271  0.0227  0.1740 -0.1817
  484W        W 4684   5.843   4.873   2.813 -0.2353  0.0932 -0.2294
  485W        W 4685   6.904   7.762   9.580  0.0592 -0.1838 -0.0757
  486W        W 4686   9.877   8.005  10.123 -0.3481  0.2252  0.1176
  487W        W 4687   6.555   0.022   1.717  0.0610 -0.1680  0.0528
  488W        W 4688   1.831   3.745  12.992  0.0239  0.1569  0.0131
  489W        W 4689   7.416   0.989   1.842 -0.0686  0.2366  0.0131
  490W        W 4690   8.308   2.163   2.890 -0.0409 -0.0582  0.0443
  491W        W 4691   5.706   8.065  11.764  0.0723 -0.0829 -0.1627
  492W        W 4692   1.928   8.955  10.909 -0.4240 -0.0822  0.2247
  493W        W 4693   4.550  10.229   9.942 -0.1249 -0.2972  0.2698
  494W        W 4694   2.040   7.637   3.966  0.1224 -0.2427  0.1350
  495W        W 4695   2.390   9.006  13.321 -0.1294 -0.0530 -0.3504
  496W        W 4696   0.537   1.973  12.078  0.1676 -0.1339 -0.0909
  497W        W 4697   4.137   6.360  12.122 -0.1342  0.2469 -0.3630
  498W        W 4698   2.377   1.638  13.009  0.1743  0.1820  0.2845
  499W        W 4699   6.850   4.876   9.345 -0.2393  0.2229 -0.1521
  500W        W 4700   2.501   3.499  11.027 -0.1602 -0.1117 -0.2521
  501W        W 4701   1.765   1.289   0.493 -0.2074  0.0063  0.0620
  502W        W 4702   9.001   1.625  13.222 -0.0009 -0.0387 -0.0912
  503W        W 4703  10.198   5.570   2.378 -0.0954 -0.2082  0.3708
  504W        W 4704   3.757   1.444   9.481  0.0651 -0.2575 -0.1450
  505W        W 4705   5.237   7.820   9.172  0.0616  0.0166  0.3210
  506W        W 4706   3.978  10.182   8.263 -0.0018  0.0923  0.2417
  507W        W 4707   4.426   4.829   3.447  0.0021 -0.1709 -0.1091
  508W        W 4708   4.952  10.165   9.606 -0.0711  0.1476 -0.1120
  509W        W 4709   3.668   3.213   5.171  0.0333  0.1838 -0.1309
  510W        W 4710   8.647   2.001   3.232 -0.2147  0.1907  0.0184
  511W        W 4711   0.440   6.843  10.989 -0.0226 -0.0469 -0.2320
  512W        W 4712   6.358   1.713  11.444  0.0701  0.0665 -0.1472
  513W        W 4713   1.420   5.399   1.971 -0.1989 -0.2630 -0.1085
  514W        W 4714   1.479   1.919  12.650  0.0333  0.1402 -0.3848
  515W        W 4715  10.248   9.415  12.456 -0.0609  0.2981 -0.4095
  516W        W 4716   6.942   0.145  10.879 -0.2620 -0.0349 -0.1520
  517W        W 4717   2.182   5.815   0.361 -0.5176  0.3132 -0.1691
  518W        W 4718   8.668   3.198   1.728  0.2728 -0.0418 -0.0815
  519W        W 4719   2.398   4.920  12.387  0.1339 -0.1805 -0.2296
  520W        W 4720   2.056   4.723   1.165  0.0940 -0.1437  0.1082
  521W        W 4721   7.060   3.325  10.183 -0.1543  0.2596 -0.0838
  522W        W 4722   4.092   9.405   1.490 -0.1661 -0.2751  0.0188
  523W        W 4723   5.587  10.157   1.679 -0.0816  0.0521  0.3016
  524W        W 4724  10.426   7.409   3.631  0.3709 -0.0075 -0.1117
  525W        W 4725   9.033   2.958  11.191  0.0938 -0.0887 -0.1086
  526W        W 4726   8.083   6.691  10.065 -0.0530 -0.0576 -0.2623
  527W        W 4727   9.069   7.327   3.819  0.0027  0.0981 -0.2235
  528W        W 4728   3.948   4.151   3.749 -0.4003 -0.0884 -0.1361
  529W        W 4729   6.444   2.435  13.386  0.3068  0.0823 -0.1171
  530W        W 4730   2.141   7.204   3.579 -0.0939 -0.1889 -0.2735
  531W        W 4731   4.832   8.753   2.761  0.0016 -0.0890 -0.1754
  532W        W 4732   9.771   0.456   1.812 -0.3745 -0.3861  0.3181
  533W        W 4733   1.531   4.847  12.119  0.1419  0.0604 -0.3269
  534W        W 4734   6.190   5.908   3.177  0.0957 -0.1045 -0.2539
  535W        W 4735   7.877   6.742   4.068 -0.0984 -0.0611 -0.0064
  536W        W 4736   9.753   7.823   9.182 -0.0494  0.4193 -0.0219
  537W        W 4737   1.702   5.019   9.818  0.1438 -0.2558  0.1519
  538W        W 4738   3.129   2.418   0.595  0.3428  0.2020 -0.1481
  539W        W 4739   3.120   0.240   2.644  0.1326  0.0764 -0.2816
  540W        W 4740   6.992   9.708   0.175 -0.0762  0.2682  0.3534
  541W        W 4741   5.772   8.886  12.890 -0.0555  0.0996  0.3903
  542W        W 4742  10.036   9.501   2.784  0.0519 -0.3814 -0.2778
  543W        W 4743   9.647   7.794  12.830 -0.1209  0.0264  0.1335
  544W        W 4744   7.497   4.174  10.978 -0.0357  0.0096 -0.1183
  545W        W 4745   7.833   5.987   2.433 -0.1064 -0.2389 -0.1637
  546W        W 4746   1.096  10.423   4.307 -0.0545  0.3106  0.0869
  547W        W 4747   1.618   0.849   1.353  0.1127 -0.0286 -0.0569
  548W        W 4748   3.484  10.441   0.906 -0.2564  0.1546 -0.1558
  549W        W 4749   3.095   0.629  11.706 -0.1203 -0.1768 -0.2714
  550W        W 4750   2.959   3.373  10.506 -0.0147  0.0045  0.1157
  551W        W 4751   4.813   4.920   5.242 -0.2963  0.2917  0.1926
  552W        W 4752   5.593   6.177  12.987  0.1588 -0.0509 -0.1264
  553W        W 4753   3.984   5.343   1.094 -0.1131  0.0453 -0.2100
  554W        W 4754   1.932   9.026   9.891 -0.1096  0.0164  0.0871
  555W        W 4755   6.779   9.015   1.786 -0.1413 -0.3859 -0.0829
  556W        W 4756   3.335   4.503  11.010  0.1380  0.4536  0.0327
  557W        W 4757   4.519   0.960  10.292 -0.0832 -0.0492 -0.0222
  558W        W 4758   2.761   4.543  12.404 -0.0818  0.2237  0.3104
  559W        W 4759   1.731   8.778   0.838  0.1048 -0.3980 -0.2345
  560W        W 4760   5.139   0.422   1.402 -0.1792  0.1423  0.0886
  561W        W 4761   1.067   9.188   1.698  0.2730  0.2995 -0.0362
  562W        W 4762   1.094   9.792   9.471  0.1072  0.2130  0.1147
  563W        W 4763   3.511   9.246   9.795 -0.0780 -0.0645 -0.1318
  564W        W 4764   2.570  10.406  11.624 -0.0740  0.0975 -0.1292
  565W        W 4765   6.722   4.378   8.526 -0.2893  0.1111 -0.1487
  566W        W 4766   7.193   8.924  12.149 -0.0081 -0.0948 -0.3636
  567W        W 4767   2.521   5.976   1.381  0.2660 -0.1001  0.1323
  568W        W 4768   4.754   5.403   2.496 -0.1576 -0.1292  0.0570
  569W        W 4769   6.009   6.086   3.847 -0.2113 -0.0770  0.1710
  570W        W 4770   9.404   1.692   2.107 -0.2038 -0.0260 -0.0676
  571W        W 4771   0.625   5.499  12.058  0.2290  0.1182  0.0271
  572W        W 4772   6.564   6.157   2.909 -0.0956  0.1065 -0.3888
  573W        W 4773   9.743   1.718  11.067 -0.1309 -0.0800 -0.0774
  574W        W 4774   2.402   6.574   0.581  0.1246 -0.3404 -0.2271
  575W        W 4775   7.418   9.669  11.832 -0.2036  0.0662 -0.2518
  576W        W 4776   6.002   7.459  13.051 -0.1035  0.1686  0.1441
  577W        W 4777   3.115   9.107   9.469  0.1908  0.1920  0.2095
  578W        W 4778   5.204   6.000   1.799 -0.1634 -0.3426 -0.4170
  579W        W 4779   6.778   1.298  10.328 -0.0296 -0.0968  0.1635
  580W        W 4780   5.766   8.652  13.357 -0.0686  0.0555 -0.1914
  581W        W 4781   7.538   5.782  12.007  0.2569 -0.0341 -0.3370
  582W        W 4782   0.137   9.251   2.019  0.0390  0.2699 -0.0842
  583W        W 4783  10.362   3.602  11.184 -0.2399  0.1210 -0.3688
  584W        W 4784   9.940   5.469   2.839  0.0008  0.0079  0.2707
  585W        W 4785   8.694   5.535   3.868  0.1706 -0.1016  0.0329
  586W        W 4786   3.036   3.155   1.251  0.0979 -0.4387  0.0934
  587W        W 4787   7.660   2.501  13.244  0.0364 -0.1243  0.1552
  588W        W 4788   3.893   5.460  11.831  0.0679  0.1346 -0.1440
  589W        W 4789  10.169   8.331  10.341  0.0567  0.2751 -0.2482
  590W        W 4790   9.741  10.041  11.926  0.1510  0.2429 -0.4408
  591W        W 4791   0.782   1.789   1.137 -0.0980 -0.0890 -0.0521
  592W        W 4792   1.612   7.794  10.407 -0.0917 -0.3864 -0.1921
  593W        W 4793   4.758   1.079  10.718  0.1336  0.2226  0.0209
  594W        W 4794   4.910   7.612  12.508 -0.0156  0.0338 -0.2991
  595W        W 4795   7.488   0.120  10.996  0.2281  0.0593 -0.0333
  596W        W 4796   9.913   8.408   9.827 -0.2872 -0.0437  0.3059
  597W        W 4797   1.676  10.252  10.210  0.0937 -0.0194 -0.1457
  598W        W 4798   0.210   3.557   2.641  0.2510  0.3614 -0.2533
  599W        W 4799   2.392   3.658   4.852  0.1967  0.1317  0.2040
  600W        W 4800   1.247   6.441   1.204 -0.0075  0.0579  0.0680
  601W        W 4801   1.785   2.076   3.885 -0.0618 -0.0439 -0.2994
  602W        W 4802   4.387   9.401   2.648  0.0002 -0.0843  0.0306
  603W        W 4803   4.646   4.045   9.802 -0.1731  0.2117  0.2462
  604W        W 4804   3.667   9.835  10.875  0.2827 -0.1451 -0.2572
  605W        W 4805   7.165   9.637   2.623 -0.0867  0.1140  0.0113
  606W        W 4806   0.240   1.059   2.756  0.0212 -0.1895 -0.2340
  607W        W 4807   1.639   3.251   0.531 -0.0105  0.3317  0.1435
  608W        W 4808   6.360   9.269  11.057 -0.2991  0.1264  0.0378
  609W        W 4809   7.504   6.030   4.536 -0.4830 -0.3868  0.0989
  610W        W 4810   2.593   4.723   2.679  0.0793 -0.1085 -0.4851
  611W        W 4811   7.678   0.938  10.738 -0.0501 -0.0687 -0.3415
  612W        W 4812   1.100   1.720   1.550 -0.1714  0.0488  0.2295
  613W        W 4813   5.088   6.960  12.004 -0.1292 -0.1683 -0.2008
  614W        W 4814   8.514   6.595   0.893  0.1195 -0.2912 -0.2458
  615W        W 4815   3.643   8.809   8.904 -0.2337 -0.2071  0.0797
  616W        W 4816   3.443   1.314   0.351  0.0849  0.3326 -0.1220
  617W        W 4817   9.530   4.855   0.254  0.1447 -0.3609  0.1096
  618W        W 4818   6.506   6.164   9.509 -0.1820  0.2638 -0.0085
  619W        W 4819   6.692  10.240   3.045  0.0689 -0.1635  0.3272
  620W        W 4820   8.332   7.082  10.847  0.1257 -0.1381  0.1395
  621W        W 4821   7.900   8.141   0.692  0.0928  0.1502 -0.0795
  622W        W 4822   9.444   8.537   1.745 -0.1645 -0.0423  0.0871
  623W        W 4823   0.185  10.470   0.368  0.1785 -0.0914  0.2006
  624W        W 4824   5.186   6.372   3.497  0.1864  0.2075 -0.1931
  625W        W 4825   1.815   1.888  10.493  0.1174 -0.1045 -0.0454
  626W        W 4826   4.628   0.887   2.188 -0.0286  0.0972 -0.0247
  627W        W 4827   2.765   0.289  13.412  0.3770  0.1397  0.0266
  628W        W 4828   5.106   9.775   2.239  0.2170 -0.1135  0.0840
  629W        W 4829   4.275   6.270   2.874  0.1175  0.2080 -0.0278
  630W        W 4830   2.632   7.360   2.129  0.1284 -0.0841 -0.0394
  631W        W 4831   9.219   0.770   9.728 -0.0984 -0.1789 -0.1314
  632W        W 4832   7.758   5.884   3.393  0.2037 -0.4522 -0.1216
  633W        W 4833   6.700   1.391   0.844 -0.1671 -0.1533  0.1722
  634W        W 4834   4.461   0.501  11.772  0.2008  0.0075 -0.0048
  635W        W 4835   3.317   8.534  11.621 -0.0906  0.1475 -0.0961
  636W        W 4836   0.426   7.937   3.079 -0.1255  0.0125 -0.2773
  637W        W 4837   6.629   8.066   4.845 -0.3466  0.0206 -0.1374
  638W        W 4838   5.990   4.178  10.581  0.2362  0.2152 -0.1353
  639W        W 4839   9.313   6.826  10.363  0.4804  0.0274  0.2792
  640W        W 4840   3.502   1.233   1.448 -0.3121  0.0720 -0.1667
  641W        W 4841   4.102   6.787   8.583 -0.0259  0.1034  0.1555
  642W        W 4842   9.785   8.703  12.209  0.0581 -0.2081  0.2762
  643W        W 4843   7.417   8.396   1.353 -0.3679 -0.2414  0.0524
  644W        W 4844   4.144   1.322  10.029 -0.0072  0.0730 -0.2139
  645W        W 4845   9.119   0.204   3.412 -0.1442 -0.1276 -0.1755
  646W        W 4846   9.144   7.238   3.378 -0.3357 -0.1158 -0.2025
  647W        W 4847   0.063   9.939  11.058 -0.0037 -0.2102  0.1199
  648W        W 4848   1.490   3.850   2.786 -0.1399 -0.0703  0.1024
  649W        W 4849   3.825   8.345   1.923 -0.0745  0.2316 -0.1070
  650W        W 4850   5.344   7.641   0.056 -0.0216  0.1640 -0.2028
  651W        W 4851   6.055   7.201   4.261  0.0996 -0.2847  0.3206
  652W        W 4852   0.014   7.438   8.375  0.0451 -0.1908 -0.2438
  653W        W 4853   1.992   9.667  10.970 -0.0058 -0.2182  0.2504
  654W        W 4854  10.106   7.916   0.519 -0.1467  0.4004 -0.0631
  655W        W 4855   3.624   8.604   0.261 -0.3224  0.2169 -0.3003
  656W        W 4856   4.221   4.255   9.963 -0.0406 -0.2125  0.1338
  657W        W 4857   7.679   8.587   0.941  0.0671 -0.1213 -0.0416
  658W        W 4858   6.423   3.204   3.993  0.2006  0.1604  0.2797
  659W        W 4859   9.206   1.139  13.234  0.1652  0.0379 -0.0280
  660W        W 4860   1.246   4.131   9.508 -0.0274 -0.2251  0.1094
  661W        W 4861   9.342   8.103   3.450 -0.2929 -0.1385 -0.3741
  662W        W 4862  10.041   9.860   1.015  0.1657 -0.0622  0.3521
  663W        W 4863   4.706  10.002  13.176 -0.1210  0.1502  0.4407
  664W        W 4864   9.281   0.149  11.179 -0.2434  0.1811  0.2295
  665W        W 4865   9.221   7.682  12.626 -0.1472  0.1675 -0.1022
  666W        W 4866   8.250   0.824  10.726  0.2115 -0.2406 -0.4297
  667W        W 4867   8.302   4.973  11.400 -0.1414  0.1351  0.5260
  668W        W 4868   2.523   8.669   4.511 -0.1513  0.3425 -0.0590
  669W        W 4869   3.451   4.213   8.968  0.2520 -0.0127  0.0068
  670W        W 4870   0.480   2.052  12.769  0.2366 -0.0180  0.2236
  671W        W 4871   5.945   2.012   9.979 -0.1568  0.1229  0.2903
  672W        W 4872   9.799   1.399  10.659 -0.1624 -0.1042 -0.2154
  673W        W 4873   0.646   7.399   1.379  0.0855  0.0646  0.2894
  674W        W 4874   5.753   1.181  10.177  0.0631  0.0898 -0.1096
  675W        W 4875   6.639   0.630   4.991 -0.1002 -0.0568  0.0142
  676W        W 4876   1.513   1.809   4.187  0.1591 -0.1010 -0.0892
  677W        W 4877   6.965   3.149  12.721 -0.2291 -0.1803 -0.1969
  678W        W 4878   7.882   0.574  10.394 -0.0797  0.0404 -0.2209
  679W        W 4879   9.830   4.573   3.664  0.1178 -0.0702  0.1452
  680W        W 4880   6.766   8.167   1.678 -0.2819  0.0785 -0.1635
  681W        W 4881   2.941   3.432   2.991 -0.0553  0.0681 -0.1889
  682W        W 4882   4.869   4.553   4.480 -0.1909 -0.0360  0.3010
  683W        W 4883   8.989   4.969   0.130  0.0680  0.1023 -0.0278
  684W        W 4884   4.327   7.739   9.474 -0.1824 -0.1737 -0.1473
  685W        W 4885   5.307   0.436  11.008  0.0319 -0.5940  0.2467
  686W        W 4886   9.376   4.073   3.037 -0.0230 -0.0107  0.1099
  687W        W 4887   0.903   5.096  13.298 -0.3004  0.3006 -0.1052
  688W        W 4888   6.442   9.584   1.382 -0.0132 -0.0105  0.1382
  689W        W 4889   8.195   1.869  11.900 -0.0013  0.1101 -0.0109
  690W        W 4890   7.150   0.120  11.413 -0.1492 -0.0178  0.2519
  691W        W 4891   6.258   2.322   2.597 -0.0698  0.4354 -0.0363
  692W        W 4892   3.056  10.191   2.653  0.0198  0.2779 -0.2387
  693W        W 4893   8.263   7.669  11.768 -0.1591 -0.1680  0.1008
  694W        W 4894   0.864   5.007   0.959  0.0207  0.0738  0.0637
  695W        W 4895   3.747   6.786  12.886 -0.0919  0.2415  0.0066
  696W        W 4896   9.465   1.126   1.270 -0.1319 -0.0032  0.0386
  697W        W 4897   8.761   7.178  10.656  0.0143 -0.2501 -0.1453
  698W        W 4898   8.353   4.880   4.284 -0.3507 -0.0594  0.0233
  699W        W 4899   3.064   5.130   0.258 -0.1776  0.0376  0.1465
  700W        W 4900   9.813   1.693  12.009  0.1084  0.1771  0.0817
  701W        W 4901   4.582   6.693   2.933 -0.3405  0.0084  0.1292
  702W        W 4902   8.000   0.804   2.583 -0.1769  0.1305  0.1010
  703W        W 4903   4.500   0.400  11.281  0.0059  0.0425  0.1088
  704W        W 4904   1.422   8.392  11.244  0.4029  0.1625  0.1548
  705W        W 4905   3.592  10.317  12.606 -0.4266  0.0235  0.0630
  706W        W 4906   4.671   8.865  11.929 -0.0542 -0.8219  0.2823
  707W        W 4907   6.547   0.129  12.748 -0.0406 -0.1238 -0.1178
  708W        W 4908   8.557   7.668  10.925  0.0499 -0.0347 -0.0124
  709W        W 4909   0.588   7.448  13.137 -0.2810 -0.0078  0.4119
  710W        W 4910   7.652   2.467  12.151  0.2590 -0.1236 -0.1420
  711W        W 4911   5.368   0.834   1.185 -0.2760  0.2978 -0.1924
  712W        W 4912   3.012   5.666   8.534  0.2102  0.0125 -0.0903
  713W        W 4913   3.508   3.233   0.517  0.1220  0.0629  0.2073
  714W        W 4914   1.256   9.383   3.557 -0.1927 -0.2357  0.0573
  715W        W 4915   7.432   4.491   3.415  0.0791  0.1755 -0.1486
  716W        W 4916   0.841   0.975   3.490  0.0335 -0.2378 -0.4402
  717W        W 4917   9.086   8.120   9.201  0.0515  0.0648 -0.0154
  718W        W 4918   0.254   2.126  10.048  0.1151  0.0761 -0.0088
  719W        W 4919   7.216   3.271  11.660  0.1913  0.4642 -0.2359
  720W        W 4920   9.674   5.379   2.374  0.1674 -0.0501 -0.3697
  721W        W 4921   6.477   9.391   4.670 -0.0136 -0.2079  0.1418
  722W        W 4922   3.683   9.481   0.046 -0.2661  0.0851 -0.0593
  723W        W 4923   7.307   0.922  12.582  0.2994  0.2285 -0.0080
  724W        W 4924   1.333   0.956  12.570  0.1480 -0.3996  0.0835
  725W        W 4925   4.969   8.053   0.125 -0.1688  0.0219 -0.0489
  726W        W 4926   2.468   6.288  12.870 -0.2510 -0.0993 -0.1407
  727W        W 4927   2.234   0.012   0.159  0.1803  0.0037 -0.4476
  728W        W 4928   5.913   1.468  13.152  0.4723  0.3064 -0.1008
  729W        W 4929  10.134   8.000   1.144  0.2035  0.0360  0.0197
  730W        W 4930   4.984   5.193   2.028 -0.1558  0.2806 -0.1117
  731W        W 4931   6.734   1.613   9.785 -0.0852 -0.1847 -0.0701
  732W        W 4932   8.492   6.091  10.755 -0.0430 -0.0131  0.2437
  733W        W 4933   7.624   4.026   0.091 -0.1403 -0.2541 -0.0529
  734W        W 4934   8.494   4.486   9.224 -0.3035  0.1186 -0.0044
  735W        W 4935   6.954   8.257  12.996 -0.2349 -0.2347  0.1971
  736W        W 4936   4.670   3.586   3.761  0.4103 -0.2442  0.0538
  737W        W 4937   0.623   8.032   1.328  0.0758  0.0679 -0.2994
  738W        W 4938   4.000   7.958  11.069  0.3602  0.0155 -0.2335
  739W        W 4939   6.491   2.572  11.297  0.1116 -0.1589 -0.3515
  740W        W 4940   1.000   8.073  12.594 -0.1792  0.0818  0.1688
  741W        W 4941   9.334   2.936  11.773 -0.2026 -0.0115  0.3846
  742W        W 4942   3.568   4.546   1.213  0.1979 -0.0060  0.0875
  743W        W 4943   0.625   9.924   1.267  0.1823 -0.0234  0.0235
  744W        W 4944   6.134   8.330   0.889 -0.1596  0.2361  0.0461
  745W        W 4945   7.536   3.125   3.395 -0.2456 -0.0818  0.4842
  746W        W 4946   7.397   2.118   2.928  0.0161  0.1382  0.2907
  747W        W 4947   5.527   7.066  12.852 -0.2360  0.0934  0.0622
  748W        W 4948   7.195   6.614   0.923  0.0781  0.2201  0.0519
  749W        W 4949   1.180   6.484  12.050 -0.1015  0.1449  0.3464
  750W        W 4950   6.611   7.325   1.686 -0.1115 -0.1810  0.1629
  751W        W 4951   9.225   7.448   2.458 -0.2539 -0.1826 -0.1655
  752W        W 4952   0.694   7.219   4.336  0.0255 -0.1853 -0.2397
  753W        W 4953   5.876   8.036   0.445  0.1972 -0.0986  0.0277
  754W        W 4954  10.234   7.976   5.096  0.2225  0.2181  0.1410
  755W        W 4955  10.394   6.585   4.435 -0.1729 -0.2891 -0.3106
  756W        W 4956   6.293   8.278   2.938 -0.0498 -0.0862 -0.1381
  757W        W 4957   6.566   0.152  12.145  0.1782 -0.0086  0.0457
  758W        W 4958   1.653   9.992   1.515  0.0728  0.1872 -0.2640
  759W        W 4959   4.240   2.019   3.388 -0.0984 -0.2894 -0.0173
  760W        W 4960   5.268   7.855  11.979 -0.2256  0.1747  0.2305
  761W        W 4961   9.791   6.873   2.051  0.0678  0.0025  0.1706
  762W        W 4962   5.934   8.002   4.163  0.2010  0.0674  0.0643
  763W        W 4963   9.665   7.021   0.191  0.2789 -0.1309 -0.1863
  764W        W 4964   2.430  10.475  11.015  0.3095  0.3731  0.0021
  765W        W 4965   5.082   0.383   4.339 -0.0358 -0.2837  0.2020
  766W        W 4966   9.448   2.490  11.675 -0.2048  0.0076 -0.3614
  767W        W 4967   1.053   2.202  12.867  0.0369 -0.1513  0.4107
  768W        W 4968   5.562   4.258   2.822 -0.1059  0.0887 -0.1623
  769W        W 4969   1.718   7.042   3.806  0.0336 -0.2041  0.0944
  770W        W 4970   9.652  10.010   3.565 -0.1178  0.0573 -0.0529
  771W        W 4971  10.298   4.118   3.165 -0.0081  0.2494  0.1653
  772W        W 4972   2.333   4.129   0.376 -0.2663  0.0449  0.0102
  773W        W 4973   0.664   9.887  11.757 -0.0280  0.1099 -0.0005
  774W        W 4974   4.814   4.586   3.975  0.0488  0.1345  0.2377
  775W        W 4975   6.169   6.058  10.407 -0.4713  0.3194  0.0207
  776W        W 4976  10.254   0.987   0.062  0.2944  0.1920  0.0792
  777W        W 4977   1.469   4.203  10.756 -0.0929 -0.2377 -0.0356
  778W        W 4978   2.413   1.792   9.406 -0.1524 -0.0665  0.3106
  779W        W 4979   6.004   4.606  13.071  0.1284  0.0149  0.1208
  780W        W 4980   2.852   1.343  10.482 -0.0717  0.0601 -0.1503
  781W        W 4981   3.436   6.903  13.394  0.0179 -0.4443 -0.1748
  782W        W 4982   8.350   5.451   4.220 -0.1922 -0.0774  0.0328
  783W        W 4983   6.946   7.853  10.934  0.1414 -0.0653  0.1889
  784W        W 4984   9.423   9.821  12.410  0.2680 -0.3792 -0.3585
  785W        W 4985  10.462   5.369   2.809  0.2949  0.0106  0.1414
  786W        W 4986   0.350   9.538   2.608  0.0831 -0.0924 -0.1140
  787W        W 4987   7.024   4.544  11.461 -0.0859 -0.0650  0.0688
  788W        W 4988   1.832   7.603   0.442 -0.0647 -0.2385  0.0682
  789W        W 4989  10.009   6.670   4.173 -0.1623  0.0312  0.0456
  790W        W 4990   0.546   2.169   2.033 -0.1806  0.0381  0.2009
  791W        W 4991   9.228   5.040   3.214  0.1327 -0.3740  0.1733
  792W        W 4992   3.643   4.483   4.313  0.0031  0.0655 -0.1315
  793W        W 4993   9.436   3.220  11.350 -0.1168 -0.1871  0.2156
  794W        W 4994   9.821   3.966   0.195  0.2217  0.0766 -0.1339
  795W        W 4995   8.353   0.329  10.718 -0.0169  0.0536  0.2118
  796W        W 4996   1.903   9.841  12.712  0.0735  0.1396  0.1096
  797W        W 4997   6.492   4.901   0.627  0.0778  0.1717 -0.1809
  798W        W 4998   8.731   2.178   1.289  0.2531  0.0427  0.2056
  799W        W 4999   2.752   6.243   9.503  0.0988 -0.1857  0.3967
  800W        W 5000   9.687   6.066  12.448 -0.1595 -0.1691 -0.0903
  801W        W 5001   3.554   4.935   2.999  0.1927  0.1174 -0.0439
  802W        W 5002   3.448   8.522   2.289  0.2428  0.0074  0.0342
  803W        W 5003   1.916   5.810  12.081  0.0562 -0.0799 -0.1547
  804W        W 5004   7.890   9.472   1.080  0.0957  0.1077  0.2284
  805W        W 5005   7.117   9.793   3.913 -0.3477  0.0445 -0.3213
  806W        W 5006   0.286   6.264  13.163 -0.1495  0.1529  0.0073
  807W        W 5007   9.102  10.006   9.601 -0.0702  0.0114 -0.0820
  808W        W 5008   9.070   4.577  13.193 -0.2046  0.2340  0.2706
  809W        W 5009   2.152   6.264   0.114 -0.1873 -0.2176  0.1271
  810W        W 5010   8.954   5.785   2.013 -0.1122 -0.2003 -0.0748
  811W        W 5011   9.642   8.139  11.590 -0.0424 -0.0806 -0.1489
  812W        W 5012   1.980   7.316   2.130 -0.5005 -0.1463  0.2497
  813W        W 5013   8.765   7.414  13.100 -0.2619 -0.0104  0.0421
  814W        W 5014   1.728   6.110  11.180  0.0751 -0.2605  0.3275
  815W        W 5015   4.715   4.722   2.039 -0.3432 -0.2688  0.1174
  816W        W 5016   6.485   0.279   3.018 -0.4047  0.1095 -0.0741
  817W        W 5017   7.171   1.205   3.830 -0.0167 -0.0984  0.0339
  818W        W 5018   0.585   9.990   2.698 -0.1469  0.3696  0.1224
  819W        W 5019   0.061   1.198   9.612  0.3442  0.0173  0.3632
  820W        W 5020   0.584   5.978   0.102  0.2468 -0.1946  0.0418
  821W        W 5021   5.284   4.818   4.025 -0.1275  0.0881 -0.0211
  822W        W 5022   5.561  10.252   9.504 -0.0622 -0.3351 -0.1247
  823W        W 5023   3.360   6.558   0.749 -0.0332 -0.1847  0.1425
  824W        W 5024   4.454   3.933   1.258  0.3901  0.0944  0.3407
  825W        W 5025   0.705   3.575  11.098 -0.0583  0.0650 -0.3190
  826W        W 5026   8.530   8.545   4.181 -0.0510 -0.0752  0.0873
  827W        W 5027   6.440   6.590  13.325  0.0862  0.2415 -0.2348
  828W        W 5028   3.339   8.499   1.745  0.4771 -0.4451 -0.0760
  829W        W 5029   8.212   0.547   4.061  0.1798  0.0375  0.4110
  830W        W 5030   3.567   9.332   9.298  0.1585 -0.2134  0.0561
  831W        W 5031   3.900   9.930   4.199  0.1334 -0.0355 -0.2095
  832W        W 5032   3.500   4.516  12.943 -0.1340  0.3792 -0.1514
  833W        W 5033   7.613   3.648   9.554  0.1950 -0.0997 -0.1065
  834W        W 5034   6.512   8.452   2.464 -0.1793 -0.0506  0.0234
  835W        W 5035   2.870   3.187  11.174 -0.1329  0.2267 -0.5696
  836W        W 5036   3.516   2.146   0.727  0.0253 -0.3963  0.0549
  837W        W 5037   5.624   3.099   0.251 -0.3751 -0.1133 -0.2968
  838W        W 5038   8.158   3.415   3.047 -0.0484 -0.1009 -0.3654
  839W        W 5039   5.548   0.820  12.268  0.0659 -0.0125 -0.0202
  840W        W 5040   4.831   2.214   4.997  0.0402 -0.1793 -0.2653
  841W        W 5041   8.858   5.974   3.987 -0.3051 -0.3320  0.4056
  842W        W 5042   2.973   2.640   3.057 -0.0423  0.2765  0.0871
  843W        W 5043   8.811   3.527   3.772 -0.0111 -0.0952 -0.0039
  844W        W 5044   7.603   6.924   9.870 -0.2261 -0.0967  0.3625
  845W        W 5045   1.420   2.999   0.141 -0.2610  0.1035  0.4261
  846W        W 5046   7.955   9.531  10.473  0.2422  0.0434 -0.1598
  847W        W 5047  10.376   6.681   2.890 -0.2927 -0.0637 -0.2227
  848W        W 5048   1.296   3.066   1.149  0.0309  0.0311  0.1414
  849W        W 5049   7.776   5.530  12.961 -0.1094  0.0256  0.0552
  850W        W 5050   6.279   1.651  10.312 -0.1420  0.3056 -0.0398
  851W        W 5051   7.527   4.315   3.946  0.1320  0.0935 -0.2519
  852W        W 5052   5.294   7.207   1.464 -0.2262  0.0802  0.0832
  853W        W 5053   4.001   6.805   9.084  0.2393  0.1149 -0.2357
  854W        W 5054   8.920   1.806   9.863  0.2626 -0.0256 -0.4195
  855W        W 5055   9.699   3.765  11.573 -0.3957  0.2137 -0.3323
  856W        W 5056   3.287   1.678   3.060 -0.0885  0.3822  0.0491
  857W        W 5057   8.124   3.601   9.368  0.1232 -0.0699 -0.0351
  858W        W 5058   8.327   6.750  11.590  0.0252  0.0800  0.0728
  859W        W 5059   3.166   8.977  10.494 -0.1639 -0.1265 -0.1996
  860W        W 5060   0.307   7.363   8.855 -0.1024  0.0581  0.0786
  861W        W 5061   7.247   4.354  13.336 -0.0580 -0.0685  0.0316
  862W        W 5062   9.374   6.687   8.995 -0.2031 -0.4063 -0.2613
  863W        W 5063   1.718   9.624  13.121  0.2270  0.0221  0.0768
  864W        W 5064   4.623   4.588  10.893  0.1170 -0.0136  0.0710
  865W        W 5065   9.688   7.557   1.951  0.0382  0.0591 -0.2754
  866W        W 5066   3.229   7.590   4.709  0.0972 -0.0143 -0.2857
  867W        W 5067   0.864   5.564   9.752  0.2915  0.1550  0.1954
  868W        W 5068   0.841   2.153  11.812 -0.4406  0.0583  0.0043
  869W        W 5069   5.388   8.087  10.377  0.0576 -0.1770 -0.0347
  870W        W 5070   4.899   0.120   9.907 -0.0255  0.1966 -0.0501
  871W        W 5071   9.919   8.052   4.068 -0.2533  0.0255  0.3702
  872W        W 5072   4.647   3.701   9.420  0.2274 -0.0009 -0.1090
  873W        W 5073   2.932   0.096   9.470 -0.0860  0.0144 -0.0099
  874W        W 5074   7.021   1.792   1.716 -0.1564  0.0251  0.0503
  875W        W 5075   8.731   4.029   2.397  0.1183 -0.1896 -0.0184
  876W        W 5076   7.196   0.450   0.401  0.0886 -0.2876 -0.4140
  877W        W 5077   7.429   3.967  13.063  0.0469  0.2040  0.2823
  878W        W 5078   4.429   0.433   1.434  0.1981 -0.2179 -0.1476
  879W        W 5079   1.873   5.050  12.587  0.1280 -0.1400 -0.2392
  880W        W 5080   3.921   2.574   9.061 -0.2457  0.2053 -0.1932
  881W        W 5081   4.222   2.599  11.205  0.3688  0.4878 -0.1110
  882W        W 5082   7.433  10.112  11.216  0.1727 -0.1866 -0.0263
  883W        W 5083   4.153   1.954   2.875  0.3290  0.0372  0.2381
  884W        W 5084   7.301   7.185   2.252 -0.0736 -0.1799  0.0750
  885W        W 5085   1.223   4.882  11.513 -0.3186  0.3303 -0.4595
  886W        W 5086   2.539   8.637   0.305  0.2171 -0.0189 -0.1427
  887W        W 5087   8.929   1.341  10.514 -0.2247  0.1317  0.0761
  888W        W 5088   6.742   1.932  11.724 -0.0565 -0.1711 -0.0834
  889W        W 5089   9.405   0.863  11.645 -0.1591  0.1485  0.0436
  890W        W 5090   8.178   2.102  10.698 -0.0628  0.2009  0.0812
  891W        W 5091   2.270   3.839   0.821 -0.1661 -0.1207 -0.3904
  892W        W 5092   0.631   1.845  11.476 -0.1939 -0.1902  0.1127
  893W        W 5093   1.063   1.702  10.612 -0.2120  0.4105 -0.2542
  894W        W 5094   7.141   9.809   9.390 -0.1878  0.0246 -0.1132
  895W        W 5095   1.174   5.533   9.163 -0.2632  0.0337 -0.0571
  896W        W 5096   8.307   4.340  10.801 -0.0036  0.1569 -0.0004
  897W        W 5097   1.555   7.370  11.533 -0.0965  0.0221  0.0679
  898W        W 5098   5.475   8.854   0.314 -0.0643  0.1893 -0.0074
  899W        W 5099   8.608   6.516   2.745 -0.1800 -0.3521 -0.0448
  900W        W 5100   7.261   5.301   9.880 -0.1110 -0.0146 -0.0864
  901W        W 5101  10.196   3.357  12.657 -0.1264  0.0392  0.1978
  902W        W 5102   9.432   1.881   1.592 -0.2648 -0.1635  0.0219
  903W        W 5103   9.060   9.225   1.679  0.2081 -0.2728 -0.2824
  904W        W 5104   0.442   6.035  10.815 -0.4172  0.0442 -0.1598
  905W        W 5105   5.458   3.012  12.411 -0.0983  0.0130  0.2258
  906W        W 5106   2.006  10.004  13.283  0.1426  0.0554 -0.2487
  907W        W 5107   3.491   6.175   4.700  0.0972 -0.4513  0.2390
  908W        W 5108   6.795   0.517  12.522 -0.1928 -0.0333 -0.2093
  909W        W 5109  10.317   3.982  11.479  0.5112  0.1136  0.0392
  910W        W 5110   7.627   7.401  13.254  0.1865 -0.0943 -0.4128
  911W        W 5111   7.482   1.428   2.547 -0.1540  0.2647  0.1721
  912W        W 5112  10.251   8.543   1.324 -0.1025 -0.0475  0.1434
  913W        W 5113   3.550   1.946   3.517 -0.0757  0.0829  0.4783
  914W        W 5114   4.436   2.423   2.099 -0.0666 -0.0208 -0.2337
  915W        W 5115   9.230   2.259  10.034  0.2971 -0.0989 -0.2243
  916W        W 5116   4.608   0.150   5.143  0.0956 -0.0364  0.0178
  917W        W 5117   3.378  10.227  13.071 -0.0874 -0.0887  0.0565
  918W        W 5118   8.419   4.251  12.512  0.2380  0.2406 -0.1756
  919W        W 5119   1.870   5.098   2.518 -0.4352 -0.0019  0.2215
  920W        W 5120   1.630   3.262  11.020  0.0599  0.1269 -0.0956
  921W        W 5121   8.277  10.117  11.026 -0.0706  0.1789 -0.1415
  922W        W 5122  10.427   6.748  10.935 -0.1796 -0.5092  0.0454
  923W        W 5123   2.850   4.971   9.338 -0.1741  0.0084 -0.1290
  924W        W 5124   9.708   7.499   2.792  0.1725  0.2571  0.0814
  925W        W 5125   4.561   1.316   1.227 -0.0812  0.1323 -0.2095
  926W        W 5126   3.602   8.189   1.403 -0.1155 -0.1955 -0.1102
  927W        W 5127   9.179   9.574  11.888 -0.0577 -0.3574 -0.1038
  928W        W 5128   6.739   7.221   3.621  0.1476 -0.1019  0.1062
  929W        W 5129   9.721   6.776   1.558 -0.0740 -0.0034  0.1528
  930W        W 5130  10.102   9.050   1.301  0.1738 -0.2360  0.2280
  931W        W 5131   8.417   2.020   3.754 -0.0836  0.1424 -0.2666
  932W        W 5132   2.263   9.994  11.271 -0.0918  0.0939  0.2738
  933W        W 5133   7.609   0.920  11.523 -0.2355 -0.0455 -0.0119
  934W        W 5134   2.645   5.268   5.178  0.0029 -0.2321 -0.0783
  935W        W 5135   6.230   1.034  10.693  0.1842  0.1059  0.3830
  936W        W 5136   6.661   5.757  12.453  0.2459  0.1013  0.0446
  937W        W 5137   6.751   1.394  11.767  0.2568  0.0611 -0.1369
  938W        W 5138   3.236   3.538  10.926 -0.1600 -0.0292  0.0346
  939W        W 5139   5.633   2.233  10.766 -0.1158 -0.0256 -0.0240
  940W        W 5140   0.687   1.220   2.829  0.2752 -0.1152  0.1013
  941W        W 5141   3.904   0.448  10.874  0.0922 -0.1642 -0.1520
  942W        W 5142   7.329   9.955   1.423 -0.4136 -0.0413  0.0512
  943W        W 5143   3.843   4.738   3.440  0.0204 -0.0412 -0.2637
  944W        W 5144   9.068   7.950  10.157 -0.0556  0.0801  0.1178
  945W        W 5145   3.537   6.767   2.155  0.0633  0.0609  0.0091
  946W        W 5146   0.821   5.022   1.448 -0.0264 -0.1123  0.0662
  947W        W 5147   8.180   4.695   0.589 -0.2296 -0.1050 -0.0661
  948W        W 5148   6.065   7.437   2.428  0.1754 -0.1844  0.1408
  949W        W 5149   9.998   0.245   3.843  0.0380  0.0643  0.0141
  950W        W 5150   5.764  10.201  10.354  0.5047 -0.1236  0.0433
  951W        W 5151   3.933   5.165   0.622 -0.0470 -0.2918 -0.2399
  952W        W 5152   1.146   2.281  13.329 -0.1930 -0.1103  0.2964
  953W        W 5153   6.346   4.912   4.186  0.2434 -0.0303 -0.0345
  954W        W 5154   9.669   7.039   3.295  0.0178  0.3547 -0.1863
  955W        W 5155   7.386   6.851   1.347  0.1369 -0.0334  0.1887
  956W        W 5156   7.710   0.009  10.328  0.0130  0.0968 -0.0138
  957W        W 5157   3.340   8.286   0.472 -0.0822  0.1750 -0.1025
  958W        W 5158   3.834   3.558   1.855  0.0519 -0.0595  0.1946
  959W        W 5159   5.420   6.358   3.043  0.0673  0.2068 -0.0360
  960W        W 5160   6.970   5.857   3.607  0.2664  0.2335 -0.0824
  961W        W 5161   8.476   1.259   2.484  0.1210  0.4078 -0.2383
  962W        W 5162   0.185   0.726   4.535 -0.0715 -0.2845  0.0066
  963W        W 5163   8.160   9.225  11.546  0.1833 -0.0293  0.0297
  964W        W 5164   9.435   8.379   0.755 -0.1289  0.0530 -0.0950
  965W        W 5165   4.119   2.712  11.752  0.0833 -0.1238 -0.0685
  966W        W 5166   8.753   0.507  12.203 -0.0505  0.0090  0.0493
  967W        W 5167   9.231   8.650  10.331  0.0421  0.1388  0.1277
  968W        W 5168   0.625   2.667   1.941 -0.1167 -0.1053 -0.2293
  969W        W 5169   3.861   8.770   2.373  0.1198  0.2086  0.0445
  970W        W 5170   2.674   7.817  12.669  0.2552 -0.1773 -0.0690
  971W        W 5171   4.878   0.647  11.108 -0.1083  0.0258 -0.2202
  972W        W 5172   9.554   7.248  11.276 -0.2300 -0.2982  0.1763
  973W        W 5173   4.057   1.809  10.728 -0.2255 -0.1084  0.0956
  974W        W 5174   5.941   1.217   4.990  0.1622 -0.1941 -0.0215
  975W        W 5175   2.634   8.980  10.915  0.2678 -0.0974 -0.2078
  976W        W 5176   1.879   1.006  11.072  0.1322  0.1131 -0.1865
  977W        W 5177   6.839   8.991  10.480  0.2654  0.0979 -0.0280
  978W        W 5178   6.905   5.804   2.529 -0.1092  0.2702  0.3785
  979W        W 5179   4.147  10.013  10.862 -0.0990 -0.0081 -0.2278
  980W        W 5180   4.061  10.253  12.426  0.0024 -0.2691  0.0934
  981W        W 5181   0.135   4.365  13.303 -0.0187 -0.2522  0.0509
  982W        W 5182   6.854  10.016   1.616 -0.0453  0.4112 -0.0351
  983W        W 5183   9.436   8.239  10.080  0.2202  0.0574  0.2338
  984W        W 5184   3.224   5.264  12.788 -0.3349 -0.1197 -0.1667
  985W        W 5185   3.239   4.324  12.457 -0.0853  0.1359 -0.0313
  986W        W 5186   5.277   7.720   0.601  0.4176 -0.2122  0.0732
  987W        W 5187   3.056   1.111   1.133 -0.1560 -0.0285  0.0596
  988W        W 5188   3.621   5.768   3.123 -0.0378 -0.1687 -0.0253
  989W        W 5189   3.166   9.662   0.846  0.1503 -0.1202 -0.1186
  990W        W 5190   7.515   8.361  10.875 -0.0299 -0.2346  0.0086
  991W        W 5191   5.518   5.167  12.909 -0.0802  0.0618 -0.1884
  992W        W 5192   5.416   6.237  12.512 -0.1456 -0.0757  0.1457
  993W        W 5193   4.276   3.505   9.708  0.0456  0.0562 -0.4049
  994W        W 5194   1.130   8.693  13.279 -0.1634  0.0084 -0.1512
  995W        W 5195   0.607   5.442   0.962  0.0229  0.2451 -0.0301
  996W        W 5196   2.696   6.886   1.828 -0.0945 -0.0219 -0.2966
  997W        W 5197   3.501   0.000   2.451  0.0332 -0.1273  0.3090
  998W        W 5198   4.817   4.081  11.221  0.0994  0.1744  0.1545
  999W        W 5199   4.423   5.585   9.302  0.0022  0.3043 -0.0590
 1000W        W 5200   1.799   7.199   8.278 -0.1187 -0.0029 -0.2250
 1001W        W 5201   1.814   5.408   4.708 -0.1700  0.3962 -0.0342
 1002W        W 5202   5.473   4.688  13.252  0.0692 -0.0424 -0.0948
 1003W        W 5203   7.259   4.975  10.283  0.2364 -0.0160  0.0651
 1004W        W 5204   2.497   5.329  10.096 -0.1292 -0.0702  0.0546
 1005W        W 5205   3.948   4.944   4.310 -0.0247 -0.0640  0.1669
 1006W        W 5206   2.317   9.043  10.554 -0.1558  0.2063  0.1601
 1007W        W 5207   2.656   2.822   9.270  0.2331  0.0101 -0.1323
 1008W        W 5208   9.705   7.834   2.472 -0.1012  0.0068  0.0602
 1009W        W 5209   6.744   9.757  12.429  0.0038 -0.0751 -0.0953
 1010W        W 5210   1.138   9.999   3.292 -0.1014  0.0201 -0.0715
 1011W        W 5211   6.081   3.526  12.954  0.3276  0.3406  0.4521
 1012W        W 5212   4.511   1.183   2.696 -0.0090 -0.3332 -0.0200
 1013W        W 5213   8.886   3.888   9.616 -0.0210 -0.4048 -0.3443
 1014W        W 5214   3.973   7.387   0.765  0.2336 -0.1245  0.1072
 1015W        W 5215   7.768   8.778   1.791  0.0177 -0.1864  0.0161
 1016W        W 5216   1.366   6.972   3.112 -0.2309  0.0482  0.0766
 1017W        W 5217   3.063   1.178   3.838 -0.1158 -0.0040 -0.0660
 1018W        W 5218   0.797   2.229  12.385  0.0074 -0.2852 -0.0507
 1019W        W 5219   5.235   1.059  11.795 -0.0202 -0.3093  0.4091
 1020W        W 5220   7.782  10.280   2.557 -0.0774 -0.2002  0.0408
 1021W        W 5221   7.211   7.016   3.615  0.2091 -0.1789  0.5468
 1022W        W 5222   2.397   5.824   4.168 -0.2364  0.0229  0.2394
 1023W        W 5223   4.901   9.423   1.865 -0.2434 -0.1260 -0.1665
 1024W        W 5224   2.850   9.171  11.784 -0.1548  0.2136  0.1030
 1025W        W 5225   2.265   5.480   1.117 -0.1195  0.0746 -0.2345
 1026W        W 5226   5.677   6.014  10.721  0.0594  0.0293 -0.0276
 1027W        W 5227   2.651   9.885  10.396  0.1915 -0.0807 -0.1179
 1028W        W 5228   3.449   7.999  10.269  0.1143 -0.1319 -0.0538
 1029W        W 5229   4.981   7.848  11.229  0.0988 -0.0201 -0.2008
 1030W        W 5230   8.310   5.357   0.528 -0.3026 -0.0392  0.2100
 1031W        W 5231   1.763   3.969  10.327  0.2386 -0.0261  0.1909
 1032W        W 5232   2.750   1.678  10.810  0.2026 -0.1742 -0.1223
 1033W        W 5233   2.330   2.205   0.482 -0.0036  0.2303  0.0656
 1034W        W 5234   8.385   6.753   2.394  0.2115  0.2180 -0.1092
 1035W        W 5235   1.775   8.024   0.222 -0.2030 -0.3354  0.4110
 1036W        W 5236   8.340   4.719   3.550 -0.3666  0.0891  0.0500
 1037W        W 5237   6.951   8.391   4.553 -0.2825  0.2710  0.3030
 1038W        W 5238   4.012   1.664   5.188 -0.0113 -0.0801  0.2665
 1039W        W 5239   2.772   6.389   2.571 -0.1109 -0.0181  0.2470
 1040W        W 5240   8.614   2.968   3.587 -0.2055  0.2615  0.0669
 1041W        W 5241   6.243   2.629  12.981  0.1243  0.0064  0.0117
 1042W        W 5242   5.379   3.420  10.543 -0.1072 -0.1942  0.0627
 1043W        W 5243   9.760   6.353   1.295 -0.0117 -0.0254 -0.1244
 1044W        W 5244   7.773  10.382   4.132 -0.1204  0.1190 -0.0821
 1045W        W 5245   0.402   1.191   1.925  0.0656 -0.1397  0.2982
 1046W        W 5246   1.376   3.290   1.983  0.4119  0.2949  0.1303
 1047W        W 5247   4.431   5.740   2.296 -0.2310 -0.2042  0.0490
 1048W        W 5248   2.326   3.877   3.011  0.3361  0.0601 -0.1492
 1049W        W 5249   7.415   2.774  10.748  0.0547 -0.5020 -0.4116
 1050W        W 5250   8.703   0.609   3.254 -0.3374 -0.0531 -0.0708
 1051W        W 5251   3.328   4.304  10.472 -0.2325  0.3092  0.0728
 1052W        W 5252   3.686   7.422  12.141  0.0316  0.0115  0.1707
 1053W        W 5253   5.866  10.279  11.118  0.0296 -0.0115 -0.0066
 1054W        W 5254   1.835   7.170   0.729  0.0692 -0.1248  0.3711
 1055W        W 5255   6.861   1.650  12.210 -0.1083  0.1819 -0.1738
 1056W        W 5256   0.275   3.978  11.029  0.0547 -0.3641  0.1732
 1057W        W 5257   6.213   5.614  13.418 -0.2275  0.3101 -0.1032
 1058W        W 5258   6.130   4.431   0.575 -0.2778  0.0826 -0.1653
 1059W        W 5259   4.855   6.697   3.802  0.2640  0.1595  0.1349
 1060W        W 5260   1.765   0.322  10.287  0.1251  0.0024 -0.2930
 1061W        W 5261   7.317  10.147   2.823  0.1326 -0.2872 -0.0217
 1062W        W 5262   2.234   2.754   0.593  0.0881 -0.2541 -0.1302
 1063W        W 5263   0.571   3.620  12.469 -0.1876 -0.0428  0.0451
 1064W        W 5264   6.710  10.209   2.111  0.2788  0.1702 -0.0108
 1065W        W 5265   5.975   2.979  12.699  0.0850  0.0691 -0.0537
 1066W        W 5266   8.807   9.240  12.622 -0.3440  0.1512  0.0668
 1067W        W 5267   7.373   5.026   3.548  0.2444  0.1006  0.0471
 1068W        W 5268   2.257   5.613  13.348  0.0843 -0.0494 -0.2903
 1069W        W 5269   4.425   4.125  10.832 -0.0698  0.2230 -0.2173
 1070W        W 5270   8.431   7.668   4.816  0.3724  0.1326 -0.1545
 1071W        W 5271   6.056   4.645   3.897  0.0612  0.0524  0.1339
 1072W        W 5272   3.647   1.934  13.107  0.2978 -0.0784 -0.0643
 1073W        W 5273   4.491   5.135   1.042 -0.2057 -0.2405 -0.0355
 1074W        W 5274   7.542   5.463   1.765  0.0131 -0.0859 -0.1409
 1075W        W 5275   8.359   2.413  10.362 -0.1984  0.1884  0.2422
 1076W        W 5276   2.772   1.004   4.433 -0.1632 -0.2724  0.0171
 1077W        W 5277   2.685   8.417   1.997 -0.1376  0.2835 -0.5480
 1078W        W 5278   2.774   4.902   1.845 -0.2445 -0.2420 -0.0580
 1079W        W 5279   7.278   8.698  10.555 -0.1389 -0.1555  0.1345
 1080W        W 5280   2.858   0.264   3.049 -0.2564 -0.1252  0.1656
 1081W        W 5281   1.028   0.925  10.100  0.0122 -0.0685 -0.1289
 1082W        W 5282   0.904   4.152   8.909 -0.2162  0.3826  0.0530
 1083W        W 5283   4.235   1.544   3.545 -0.1059  0.0102  0.3784
 1084W        W 5284   7.902  10.327  11.218 -0.2986 -0.2771 -0.2977
 1085W        W 5285   6.723   7.201  13.100  0.1592  0.1312  0.1150
 1086W        W 5286   8.948   9.947  12.431 -0.1378 -0.2892 -0.3350
 1087W        W 5287   0.181   3.906   1.800 -0.1898  0.0064  0.0149
 1088W        W 5288   4.560   2.373   3.097  0.3282  0.3551 -0.3149
 1089W        W 5289   6.504   8.747  11.065  0.1935  0.1331  0.2851
 1090W        W 5290   9.530   3.648   1.931  0.1345 -0.0047 -0.0177
 1091W        W 5291   1.081   8.726   4.247 -0.3488  0.0084  0.1868
 1092W        W 5292   2.802   6.237   3.055 -0.1389 -0.1283  0.0201
 1093W        W 5293   0.381   6.148   2.259  0.1788  0.1534  0.3129
 1094W        W 5294   5.670   4.040  11.674  0.0681 -0.1804 -0.0144
 1095W        W 5295   4.291   6.229   2.318 -0.2309  0.0032  0.0181
 1096W        W 5296   6.740   0.583   2.654  0.0101  0.2316  0.1350
 1097W        W 5297   4.839   7.453   0.546  0.2888  0.4666 -0.0303
 1098W        W 5298  10.294   4.780  12.471 -0.2138  0.0403  0.1170
 1099W        W 5299   8.890   9.888  11.636  0.1542 -0.0627 -0.1697
 1100W        W 5300   3.753   3.025   3.807 -0.0133 -0.0655 -0.5786
 1101W        W 5301   7.747   9.450  13.029 -0.1603 -0.2898  0.1062
 1102W        W 5302   5.723   9.269   2.060  0.0588 -0.2510  0.0571
 1103W        W 5303  10.286   7.674   1.458  0.0884  0.0559  0.1541
 1104W        W 5304   3.235   7.726   3.682 -0.3997 -0.1201  0.4557
 1105W        W 5305   4.404   2.756   4.339  0.0104  0.1193 -0.2045
 1106W        W 5306   5.187  10.154  10.524 -0.1180  0.1379  0.3015
 1107W        W 5307   9.057   4.632   1.801 -0.1022 -0.0541 -0.0361
 1108W        W 5308   0.483   9.411   4.738  0.0727 -0.0194  0.1524
 1109W        W 5309   5.714   1.368   0.434 -0.3275  0.0076  0.1651
 1110W        W 5310   3.709   6.105   4.259  0.3067 -0.3184 -0.3736
 1111W        W 5311   1.047   1.233  12.856 -0.1285 -0.0339  0.1985
 1112W        W 5312   7.064   5.336   1.961 -0.1918 -0.1104 -0.3684
 1113W        W 5313   7.871   0.670   3.049  0.2093 -0.1636  0.1835
 1114W        W 5314   8.762   9.730   4.085 -0.0153 -0.1056  0.0033
 1115W        W 5315   4.663   8.556   0.023 -0.2229 -0.3691 -0.1503
 1116W        W 5316   6.093   0.572   3.031  0.2972 -0.0939 -0.1179
 1117W        W 5317   1.831   3.101   1.918 -0.0155 -0.0657 -0.0844
 1118W        W 5318   0.751   9.718   9.923 -0.0475  0.0306  0.0358
 1119W        W 5319   3.824   0.276   1.164  0.0440  0.0110 -0.5098
 1120W        W 5320   4.179   6.495  13.115  0.0792  0.0622  0.0758
 1121W        W 5321   9.048   7.879   2.659  0.0954  0.0740  0.2383
 1122W        W 5322   9.304   1.511  11.979 -0.2466  0.0550  0.0432
 1123W        W 5323   7.568   9.270  12.113  0.0761 -0.2881  0.3338
 1124W        W 5324   8.076   9.201  10.140 -0.0051  0.2003  0.3226
 1125W        W 5325   5.587   0.907   4.194 -0.0412  0.1647  0.0092
 1126W        W 5326   4.940   9.062  10.529 -0.3576  0.1434  0.0289
 1127W        W 5327   4.145   3.028   2.792  0.1616 -0.0184  0.0396
 1128W        W 5328   8.697   2.401  12.448  0.3118 -0.1662 -0.0331
 1129W        W 5329  10.023   2.195   3.606 -0.0495 -0.0549  0.0326
 1130W        W 5330   3.830   5.077   9.491 -0.0157 -0.2552  0.0112
 1131W        W 5331   7.831   7.026   0.036  0.4607  0.2628 -0.0452
 1132W        W 5332   7.982   1.117  10.387 -0.0763 -0.0033 -0.2307
 1133W        W 5333   2.923  10.191  12.625 -0.1292 -0.2035 -0.1177
 1134W        W 5334   5.977   5.989  12.797 -0.1829  0.3186  0.5309
 1135W        W 5335   2.837   5.404   1.784 -0.1773  0.0994 -0.3229
 1136W        W 5336   7.373   0.502  11.661 -0.2725 -0.0381 -0.0530
 1137W        W 5337   3.276   1.170  12.976  0.1140  0.0278 -0.2510
 1138W        W 5338   8.893  10.155   0.196  0.1866  0.1136 -0.1700
 1139W        W 5339   7.777   7.970  10.974 -0.1352 -0.0761 -0.0692
 1140W        W 5340   4.936   7.258   9.795 -0.1303 -0.5677  0.2108
 1141W        W 5341   7.931   8.145   2.622  0.1896 -0.0689  0.0305
 1142W        W 5342   9.867  10.318  12.295 -0.1853  0.1043  0.5172
 1143W        W 5343   2.595   1.263   1.336 -0.0372  0.2980  0.5437
 1144W        W 5344   2.857   4.369   0.361 -0.2867  0.1894  0.0683
 1145W        W 5345   9.758   0.452   2.312 -0.0409 -0.0276  0.1677
 1146W        W 5346   5.327   2.572   9.315 -0.1141 -0.0490  0.0879
 1147W        W 5347   6.019   5.124   9.529 -0.0959 -0.0467 -0.1044
 1148W        W 5348  10.080   5.886   0.096 -0.2030  0.2903 -0.2613
 1149W        W 5349   8.908   0.366   9.469 -0.0870 -0.3662 -0.0842
 1150W        W 5350   8.626   6.343   2.259  0.1080  0.1245  0.0683
 1151W        W 5351   1.753   1.475   5.261 -0.1287  0.1158  0.2548
 1152W        W 5352   9.523   2.536   2.849 -0.1210 -0.0452 -0.2023
 1153W        W 5353   6.018   9.822   0.259  0.0426  0.3398 -0.1678
 1154W        W 5354   0.099   9.507   0.602 -0.2642 -0.0472  0.0333
 1155W        W 5355   3.716  10.381   1.565  0.2111  0.2347 -0.2913
 1156W        W 5356   7.906   9.450   9.627  0.1725  0.0792 -0.0288
 1157W        W 5357   3.581   6.428  10.139  0.1938 -0.1056 -0.4146
 1158W        W 5358   4.603   0.883  11.480  0.2599  0.1611  0.2807
 1159W        W 5359   8.047   3.602   1.779  0.0480 -0.0729  0.0455
 1160W        W 5360   6.266   0.162   3.657 -0.0408  0.1567 -0.1124
 1161W        W 5361   4.881   6.507   4.267 -0.2515 -0.0538  0.0532
 1162W        W 5362   6.149   4.659   1.079 -0.1071 -0.2935 -0.3803
 1163W        W 5363   1.728   5.290  11.136 -0.0190  0.1666 -0.0223
 1164W        W 5364   3.388   1.129  10.502 -0.0150  0.1946 -0.0086
 1165W        W 5365   4.396   8.317   4.720 -0.2615 -0.3318 -0.0888
 1166W        W 5366   0.590   3.478  10.381 -0.2177  0.2160  0.0606
 1167W        W 5367   4.197   4.372   3.211 -0.0049 -0.1543 -0.0589
 1168W        W 5368   7.731   8.775  12.358 -0.1814 -0.0182 -0.1585
 1169W        W 5369   2.186   4.102   4.060  0.0551 -0.2606 -0.2656
 1170W        W 5370   6.591   9.856   4.872  0.0591  0.0092 -0.0088
 1171W        W 5371   7.087   0.972   2.574  0.1485  0.2302 -0.1731
 1172W        W 5372   8.441   9.006   0.644 -0.2100 -0.0154 -0.0048
 1173W        W 5373   4.880   5.851   0.844 -0.2335 -0.1753  0.3166
 1174W        W 5374  10.458   1.177   4.477 -0.1708  0.0471  0.0313
 1175W        W 5375   4.505   0.331   8.352 -0.1197 -0.1700 -0.1167
 1176W        W 5376   7.920   8.463   9.614 -0.3963  0.2432 -0.1478
 1177W        W 5377   2.816   8.146   2.411  0.0140 -0.0529 -0.0002
 1178W        W 5378   2.670   6.836   9.945 -0.1845  0.0584 -0.0807
 1179W        W 5379   5.922   1.255   9.615 -0.0286 -0.3011  0.3523
 1180W        W 5380   1.412   5.155   4.508  0.2346 -0.0891  0.0539
 1181W        W 5381   5.042   7.781  10.704  0.1467 -0.1113 -0.0587
 1182W        W 5382   3.782   1.475  10.420  0.2476 -0.2022 -0.0525
 1183W        W 5383   1.651   7.922   3.185  0.1019  0.1989  0.1743
 1184W        W 5384   9.091   9.651  11.209 -0.0144 -0.0119  0.0663
 1185W        W 5385   8.647   8.733  12.553  0.4269  0.0741  0.1065
 1186W        W 5386   7.071   9.723  11.311  0.1111 -0.0695 -0.0566
 1187W        W 5387   7.299   0.208  10.045  0.1695  0.2357  0.2558
 1188W        W 5388   0.600   4.790   0.471  0.0383 -0.1233 -0.1017
 1189W        W 5389   4.922   4.617   1.566  0.0858  0.0507  0.0142
 1190W        W 5390   8.594   1.693  10.268 -0.1383  0.1307  0.0172
 1191W        W 5391   8.062   5.407  11.211 -0.0591  0.0385 -0.2597
 1192W        W 5392  10.072   1.275   1.890 -0.0111 -0.3675 -0.0263
 1193W        W 5393   3.728   2.286  12.481 -0.0253 -0.1750 -0.1753
 1194W        W 5394   8.647   4.859  10.048 -0.4983 -0.1499 -0.2285
 1195W        W 5395   0.863   5.103   9.344 -0.0701  0.0481  0.1228
 1196W        W 5396   9.414   5.893  10.613 -0.0162  0.0103 -0.1078
 1197W        W 5397   4.120   4.530   9.532 -0.1060  0.1048  0.3782
 1198W        W 5398   4.661   6.647  11.897 -0.1758 -0.1076  0.0549
 1199W        W 5399   2.747   9.082   1.068 -0.0151  0.1944 -0.0938
 1200W        W 5400   0.080   9.337   1.475  0.2820 -0.2826  0.1820
 1201W        W 5401   7.244   5.463   3.319 -0.0758 -0.2035  0.0492
 1202W        W 5402   5.215   2.258  10.998  0.1104 -0.4208 -0.0682
 1203W        W 5403   2.868   9.386   1.848  0.0074  0.0469 -0.0633
 1204W        W 5404   0.386   0.294   1.295 -0.0316 -0.0024  0.0092
 1205W        W 5405   9.848   9.337   2.276  0.0162 -0.0575  0.2231
 1206W        W 5406   7.820   4.135   9.321 -0.2440 -0.3218 -0.0534
 1207W        W 5407   6.621   2.086  11.225  0.1731 -0.2757  0.2180
 1208W        W 5408   2.281   4.975  11.776 -0.1695 -0.0945 -0.2396
 1209W        W 5409   3.787   8.467  10.843 -0.0597  0.0647 -0.0183
 1210W        W 5410   7.847   9.231  12.549  0.1451 -0.1791 -0.1216
 1211W        W 5411   0.963   5.076   4.115  0.0709 -0.0796  0.2185
 1212W        W 5412   9.234   6.487  10.740 -0.3749 -0.2317  0.5858
 1213W        W 5413   3.127   2.705  12.484  0.0531  0.0575 -0.1337
 1214W        W 5414   3.653   6.438  12.443  0.0334 -0.1743 -0.3055
 1215W        W 5415   6.418   3.201   0.449  0.0455  0.1832  0.1414
 1216W        W 5416   2.616   1.899   5.163  0.2993 -0.0599 -0.4458
 1217W        W 5417   3.471   4.187   0.329  0.0164  0.1006  0.5027
 1218W        W 5418   4.636   2.023   1.826 -0.1914 -0.0975 -0.0939
 1219W        W 5419   4.121   3.913   1.725 -0.2276 -0.0530 -0.0872
 1220W        W 5420   3.340   4.247   1.914  0.0877 -0.0844 -0.2725
 1221W        W 5421   7.557   0.791   1.305  0.0533  0.0562 -0.3226
 1222W        W 5422   5.380   5.523   1.319  0.1782  0.5231 -0.2473
 1223W        W 5423   3.002   7.483   8.733  0.1795  0.1071 -0.0907
 1224W        W 5424   1.978   3.602  11.019  0.1070 -0.0809  0.0103
 1225W        W 5425   2.837   3.876  11.220 -0.0406  0.2446  0.0245
 1226W        W 5426   8.882   3.868  11.126 -0.4423 -0.3458  0.0557
 1227W        W 5427   6.167   7.995   1.564  0.1686 -0.1742  0.1107
 1228W        W 5428   9.948   7.363   3.773  0.1199 -0.1281 -0.1590
 1229W        W 5429   4.539   7.854  10.984  0.0685 -0.2651  0.1288
 1230W        W 5430   3.362   4.535   3.927  0.4261  0.0338  0.3157
 1231W        W 5431   1.855   2.892   4.972 -0.2021 -0.0186 -0.0501
 1232W        W 5432   0.016   0.102   3.344  0.1424 -0.1004 -0.2993
 1233W        W 5433   7.700   7.331   9.618 -0.3645 -0.0224  0.0052
 1234W        W 5434   3.615   9.854  12.424  0.0122 -0.2042  0.2578
 1235W        W 5435   2.393   8.283  10.358 -0.1535  0.0667  0.0596
 1236W        W 5436   5.857   5.816   0.472 -0.1874 -0.0868 -0.1873
 1237W        W 5437   7.608   6.777  13.053 -0.1088  0.0900  0.0097
 1238W        W 5438  10.258   2.743   2.739 -0.0606  0.1485  0.0807
 1239W        W 5439   8.861  10.482  12.194 -0.1324  0.1283  0.0920
 1240W        W 5440   5.589   4.990   3.628  0.0942 -0.1163  0.2394
 1241W        W 5441   9.802   5.118   1.597 -0.0978  0.1440  0.1597
 1242W        W 5442   9.080   0.953   2.157 -0.0571  0.2565  0.0013
 1243W        W 5443   5.796   0.800   9.509  0.2138  0.1822 -0.0232
 1244W        W 5444   8.412   1.850   1.599  0.2619 -0.0059  0.1514
 1245W        W 5445   1.464   6.307   1.722 -0.0419  0.0478 -0.0346
 1246W        W 5446   8.921   0.587   1.476  0.2381 -0.1215 -0.1244
 1247W        W 5447   7.602   9.138   0.059 -0.1334 -0.0138 -0.2806
 1248W        W 5448   5.278   9.872  11.908  0.2889  0.1745 -0.0456
 1249W        W 5449   5.309   7.768   3.472  0.1308  0.0001  0.0982
 1250W        W 5450   6.153   1.258   0.146  0.1214 -0.2783  0.2117
 1251W        W 5451   8.541   3.357  11.745  0.1295  0.0285 -0.1869
 1252W        W 5452   8.081   4.553   4.064 -0.0789  0.0566  0.0986
 1253W        W 5453  10.381   8.785   2.993 -0.4179 -0.0994 -0.0592
 1254W        W 5454   0.849   4.037   0.649  0.3812 -0.2380  0.2488
 1255W        W 5455   5.377   5.757  11.753 -0.0788 -0.3557 -0.1252
 1256W        W 5456   4.833   8.910  10.006 -0.2854  0.4454  0.1919
 1257W        W 5457   7.285   2.138   1.407  0.1138 -0.3508 -0.0020
 1258W        W 5458   1.685   8.114   2.355  0.0862  0.0307  0.0313
 1259W        W 5459   6.302   8.315  11.287  0.1842  0.3350  0.2584
 1260W        W 5460   8.416   9.835  10.360  0.0528 -0.1321 -0.0768
 1261W        W 5461   3.555   4.502  12.116  0.2871  0.2761 -0.0992
 1262W        W 5462   7.491  10.139  10.706 -0.0825 -0.3674  0.1855
 1263W        W 5463   4.380   5.323  10.395 -0.0648  0.1288  0.1390
 1264W        W 5464   2.513  10.200   9.931  0.0677  0.3622 -0.0716
 1265W        W 5465   7.434   5.879  12.812 -0.0811 -0.1300  0.0488
 1266W        W 5466   0.230   1.361  12.176  0.0648 -0.0753 -0.0882
 1267W        W 5467  10.097   8.947  12.518  0.1248 -0.1103  0.0656
 1268W        W 5468   6.718   3.206  11.505 -0.3761  0.0251 -0.1945
 1269W        W 5469   0.973   4.291  10.539 -0.2074 -0.2466  0.2425
 1270W        W 5470  10.181   8.480   4.388 -0.0704 -0.2668  0.1969
 1271W        W 5471   4.646   6.096  11.969  0.2545  0.0726 -0.0357
 1272W        W 5472   7.843   9.703   2.069 -0.0884 -0.1735  0.0825
 1273W        W 5473   3.313   6.328   2.724 -0.2407 -0.2144  0.0419
 1274W        W 5474   4.770   5.937   2.675 -0.0077  0.2845 -0.0715
 1275W        W 5475   8.957   8.931   4.428  0.0533 -0.2847 -0.0084
 1276W        W 5476   1.120   0.003   0.372  0.2046 -0.1439  0.0770
 1277W        W 5477   5.865   2.551   2.056 -0.2666  0.2292 -0.1085
 1278W        W 5478   1.156   0.972   0.139  0.2119 -0.2165  0.1651
 1279W        W 5479   9.756   8.569  10.300 -0.0765  0.1242  0.1626
 1280W        W 5480   5.648   4.757  10.285 -0.1892  0.1753  0.0548
 1281W        W 5481   5.683   2.391  11.708 -0.0630  0.0422  0.2690
 1282W        W 5482   4.002   6.974  11.324 -0.2416 -0.0663 -0.2280
 1283W        W 5483   1.519   2.866   2.843  0.0984  0.0708  0.1040
 1284W        W 5484  10.062   3.039   0.527  0.0329  0.1796  0.2004
 1285W        W 5485   1.963   1.919   2.845 -0.1125 -0.1033  0.0656
 1286W        W 5486   6.942   3.991  12.969 -0.2111 -0.0378  0.0612
 1287W        W 5487   7.887   7.765   0.200 -0.1391  0.0133  0.1363
 1288W        W 5488   9.311   4.012  12.693 -0.0247 -0.2258 -0.0527
 1289W        W 5489   5.556   4.683  12.746  0.1243  0.0541  0.4079
 1290W        W 5490   7.000   3.765   3.840  0.4136  0.1588 -0.1255
 1291W        W 5491   9.176   9.877  13.303  0.3330  0.2446 -0.1563
 1292W        W 5492   1.179   0.824   1.751 -0.0222  0.0698  0.0310
 1293W        W 5493   4.760   0.034   9.281  0.0002  0.2671 -0.2597
 1294W        W 5494   4.685   4.803   0.093 -0.1664 -0.0252 -0.1133
 1295W        W 5495   0.831   6.622   5.090  0.2569 -0.2683  0.3208
 1296W        W 5496   3.348   3.248   2.048  0.0063  0.1802 -0.0896
 1297W        W 5497   3.898   8.071  10.538  0.0453  0.0235 -0.0041
 1298W        W 5498   6.670   6.309   0.268 -0.0830 -0.0614  0.2175
 1299W        W 5499   8.410   1.366   0.260 -0.0477 -0.0279 -0.1030
 1300W        W 5500   1.284   5.018  12.532 -0.5077 -0.0002 -0.0413
 1301W        W 5501   4.783  10.378  10.372  0.0051  0.1032 -0.1494
 1302W        W 5502   8.357   5.991  11.711 -0.3097  0.1852  0.1148
 1303W        W 5503   5.624   7.015  12.366  0.0010 -0.3389 -0.0769
 1304W        W 5504   5.571   9.473  11.616 -0.3331 -0.0256 -0.1214
 1305W        W 5505   5.780   3.998   5.139 -0.3137  0.1471 -0.2501
 1306W        W 5506  10.008   7.030   2.941 -0.1909 -0.1812 -0.1226
 1307W        W 5507   9.946   8.696   1.713 -0.2280  0.1897 -0.3645
 1308W        W 5508   4.698   4.390  10.182 -0.2555 -0.0423 -0.0912
 1309W        W 5509   6.317   0.873   1.561  0.0247  0.1916  0.2751
 1310W        W 5510   1.133   2.937   4.578  0.0298  0.1281  0.0198
 1311W        W 5511   0.516   7.175  11.765  0.0247  0.2559 -0.1573
 1312W        W 5512   6.047   1.874  10.867  0.2694  0.0291  0.0763
 1313W        W 5513   5.708   3.965   1.537  0.0516 -0.0727  0.1381
 1314W        W 5514   2.991   9.276   3.018 -0.2210  0.0861 -0.0191
 1315W        W 5515   7.648   2.628   1.606 -0.0076 -0.0309  0.0953
 1316W        W 5516   7.909  10.054  10.438 -0.1174 -0.1600  0.1354
 1317W        W 5517   0.830   3.006  11.130 -0.0393  0.1869 -0.4124
 1318W        W 5518  10.391   0.965   1.710  0.2378 -0.1455  0.0319
 1319W        W 5519   7.532   8.524   2.683  0.2192 -0.2449  0.3072
 1320W        W 5520   0.287   5.888   0.591  0.1437 -0.1009  0.0743
 1321W        W 5521   0.626   8.085  10.046  0.0201  0.1759 -0.3409
 1322W        W 5522  10.207   2.611   3.427 -0.0034  0.2062 -0.2106
 1323W        W 5523   4.797   0.498   9.497 -0.0407 -0.0904 -0.3040
 1324W        W 5524  10.305   3.427   9.411  0.1469  0.4259 -0.0728
 1325W        W 5525   0.869   9.965  10.943 -0.2740  0.3611 -0.1861
 1326W        W 5526   2.246   6.715   3.810 -0.0062 -0.0034  0.1257
 1327W        W 5527   7.156   9.223  10.129  0.1149  0.2273  0.0624
 1328W        W 5528   2.169   1.638   2.424  0.1822 -0.0908  0.0757
 1329W        W 5529   2.228   1.772   3.950  0.1323 -0.1030  0.1033
 1330W        W 5530   3.057   6.038   0.125  0.0797  0.2281 -0.0670
 1331W        W 5531   4.794   5.077   2.887 -0.2358 -0.1581  0.0032
 1332W        W 5532   5.391   6.610  12.214 -0.0166  0.0004 -0.2787
 1333W        W 5533   3.009   7.646   9.875 -0.2106 -0.1689 -0.3859
 1334W        W 5534   0.871   9.384   1.227  0.0032  0.0255 -0.4571
 1335W        W 5535   7.560   9.618  11.335  0.4835 -0.1069 -0.1005
 1336W        W 5536   2.343   6.407   1.132  0.0732  0.2020  0.0551
 1337W        W 5537   5.805  10.332   0.401 -0.1095  0.2976 -0.0433
 1338W        W 5538   4.405   7.162   2.476  0.1529  0.1859 -0.0866
 1339W        W 5539   3.691   1.647   0.681  0.0137 -0.0921 -0.1967
 1340W        W 5540   9.198   4.958  11.891 -0.0014 -0.1061  0.0386
 1341W        W 5541   0.943   2.101   2.923 -0.3564 -0.1241  0.2999
 1342W        W 5542   9.926   7.162   0.605 -0.1001  0.2397  0.2490
 1343W        W 5543   5.201   6.688  12.711  0.3671  0.3117  0.2137
 1344W        W 5544   5.649   2.789   4.323 -0.2744 -0.0734 -0.3094
 1345W        W 5545   3.210   9.695   9.227  0.1919 -0.1880 -0.1193
 1346W        W 5546   3.489   8.781   9.917 -0.1887  0.1727 -0.2061
 1347W        W 5547   1.965   6.358  12.247  0.0263  0.0535 -0.0676
 1348W        W 5548   6.132   4.788  11.423 -0.0407  0.1432 -0.1979
 1349W        W 5549   9.947   1.356   2.873 -0.2046  0.1130 -0.1917
 1350W        W 5550   0.196   0.176   2.373 -0.3319  0.0698 -0.2942
 1351W        W 5551   8.072   1.080   2.113 -0.0363 -0.3192  0.0692
 1352W        W 5552   6.874   6.666   1.271 -0.0822  0.1441 -0.1856
 1353W        W 5553   9.063   5.180   4.696 -0.2349 -0.0854  0.2100
 1354W        W 5554   0.725   4.782   2.585 -0.1225 -0.3636 -0.0575
 1355W        W 5555   2.129   9.996   2.486  0.1795 -0.0004  0.0139
 1356W        W 5556   5.270   4.970   1.549  0.2701 -0.4411 -0.3806
 1357W        W 5557   1.975  10.031   9.770 -0.0907  0.1620  0.1348
 1358W        W 5558   8.065   0.118  11.689  0.1267  0.1532  0.3660
 1359W        W 5559   6.312   4.508   3.434 -0.0867 -0.1843  0.1634
 1360W        W 5560   4.375   0.179   3.903 -0.4278  0.0519 -0.0752
 1361W        W 5561   0.690   1.393  10.407  0.0461  0.2895 -0.0144
 1362W        W 5562   6.363   4.845   2.930 -0.0994 -0.2098  0.2293
 1363W        W 5563   4.681   7.738   2.697  0.1184  0.2090 -0.0758
 1364W        W 5564   9.078   5.973  10.976 -0.0428  0.1766  0.0679
 1365W        W 5565   6.303   1.460  10.943 -0.1756 -0.0390  0.1655
 1366W        W 5566   9.749   7.883   3.230 -0.1023 -0.1407 -0.0892
 1367W        W 5567   9.363   9.373   2.048  0.3265  0.1144 -0.2620
 1368W        W 5568   4.710   9.586   3.753  0.3409 -0.0496  0.0144
 1369W        W 5569   1.016   4.704   0.146 -0.0133  0.1577 -0.0564
 1370W        W 5570   8.944   9.627   0.936  0.0891 -0.1265 -0.0787
 1371W        W 5571   0.271   6.335   4.193  0.0738 -0.3142 -0.0928
 1372W        W 5572   3.453   2.665   4.613 -0.1697  0.1059  0.1113
 1373W        W 5573   1.636   1.650  11.804 -0.2006 -0.1913  0.3294
 1374W        W 5574   7.337   3.710  10.361 -0.2360  0.0336  0.1830
 1375W        W 5575  10.216   8.041   2.327  0.6356  0.0484 -0.1010
 1376W        W 5576  10.488   0.410   3.718  0.1140 -0.0057 -0.0978
 1377W        W 5577   8.927   1.441   2.319 -0.4191  0.1579  0.1876
 1378W        W 5578   8.262  10.152  11.528 -0.5483 -0.0088  0.5531
 1379W        W 5579   1.294   5.990  11.502 -0.1311  0.0838  0.1225
 1380W        W 5580   5.631   0.526  11.720  0.0946 -0.1282  0.2422
 1381W        W 5581   7.983   5.575  12.202 -0.1916 -0.0685 -0.1976
 1382W        W 5582   1.616   3.892   4.431 -0.0637  0.1773 -0.1405
 1383W        W 5583   4.354   0.621  12.354  0.2658 -0.2136  0.2216
 1384W        W 5584   5.005   6.342  12.238 -0.0790 -0.0028  0.1681
 1385W        W 5585   5.987   4.427  10.022  0.2241  0.1435 -0.1812
 1386W        W 5586   3.583   3.553   3.639 -0.1215  0.0169 -0.1495
 1387W        W 5587   3.965  10.362   2.603 -0.2811  0.2203  0.0059
 1388W        W 5588   3.653   6.986   0.803  0.1393 -0.0465  0.2072
 1389W        W 5589   5.300   8.837   2.567  0.0213  0.1378 -0.1756
 1390W        W 5590   4.761   1.290   8.183 -0.3030  0.0754  0.1739
 1391W        W 5591   7.858   5.804   3.873  0.0560  0.0176 -0.0387
 1392W        W 5592  10.127  10.430  12.669  0.1338  0.3191  0.2450
 1393W        W 5593   5.658   7.667   5.346  0.4036  0.3577 -0.1037
 1394W        W 5594   9.252   3.830   1.355 -0.1378  0.0454  0.0215
 1395W        W 5595   5.907   1.119   2.898 -0.0400  0.1305  0.1282
 1396W        W 5596   7.358   1.371  11.620 -0.1752 -0.0517 -0.0174
 1397W        W 5597   6.847   9.237   9.322 -0.2348 -0.0384 -0.3178
 1398W        W 5598   3.835   6.418   1.914  0.0632 -0.0446  0.2220
 1399W        W 5599   8.124   2.723   2.995  0.0975  0.0114  0.1291
 1400W        W 5600   4.270   2.902   0.895  0.1075  0.1131  0.3396
 1401W        W 5601   9.038   8.442   9.747  0.0612  0.0403 -0.0371
 1402W        W 5602   2.097   1.309   2.801  0.1363  0.4361  0.0736
 1403W        W 5603   9.045   2.564  12.055 -0.0491 -0.0411 -0.0696
 1404W        W 5604   3.949   5.638   3.739 -0.2896  0.0240 -0.1206
 1405W        W 5605   9.566   4.431  10.245 -0.0126 -0.1373 -0.0266
 1406W        W 5606   6.760   7.141  11.609  0.0211  0.3634  0.1736
 1407W        W 5607   2.508   8.341  11.552 -0.0302  0.1473 -0.1369
 1408W        W 5608   4.572   1.697   2.615 -0.0596  0.1529  0.1212
 1409W        W 5609   2.084  10.127   1.185  0.0332 -0.1976  0.3426
 1410W        W 5610   2.496   3.730  10.231 -0.1880 -0.0958  0.1386
 1411W        W 5611   1.628   0.437   1.028 -0.1851 -0.2026  0.1000
 1412W        W 5612   6.727   6.654   2.224 -0.0732  0.0464 -0.2119
 1413W        W 5613   0.947   6.186   1.564  0.0081  0.0757 -0.1525
 1414W        W 5614   0.259   9.882  12.116 -0.2054  0.3890 -0.2634
 1415W        W 5615   8.491   5.631   0.084  0.0013  0.0544  0.4258
 1416W        W 5616   2.318   3.549  12.979 -0.2450  0.1037  0.0800
 1417W        W 5617   5.015   1.513  10.712 -0.2964  0.0702 -0.1210
 1418W        W 5618   8.631   7.697   9.495 -0.0903  0.0153 -0.2009
 1419W        W 5619   6.349   4.333   4.250 -0.0131 -0.1945  0.0780
 1420W        W 5620   3.157   4.591   9.136 -0.1151  0.2991  0.0388
 1421W        W 5621   6.632   7.310   9.739  0.2693 -0.0119  0.1896
 1422W        W 5622   8.171   6.276   2.558 -0.0961  0.0145 -0.0205
 1423W        W 5623   2.316   0.720  11.087 -0.1576  0.0399  0.0268
 1424W        W 5624   2.550   3.652   1.472 -0.0828  0.0465  0.0264
 1425W        W 5625   2.209   2.333   0.979  0.5021 -0.1406 -0.1974
 1426W        W 5626   6.506   6.720  10.901 -0.1110 -0.1288  0.1214
 1427W        W 5627   8.695   3.435   9.428  0.0861  0.3071 -0.0185
 1428W        W 5628   4.656   1.989   9.481 -0.2167 -0.3163 -0.2896
 1429W        W 5629   3.826   7.608  10.305  0.0545 -0.0220  0.0756
 1430W        W 5630   8.609   3.443   3.249  0.1076  0.0783 -0.2242
 1431W        W 5631   7.049   8.585   1.846  0.0172  0.3032 -0.0626
 1432W        W 5632   8.581   6.225   1.243  0.0400 -0.0643 -0.1071
 1433W        W 5633   0.413   8.261  13.401  0.0585 -0.1151  0.1022
 1434W        W 5634   2.280   7.388  12.885 -0.4044 -0.1135  0.1281
 1435W        W 5635   9.966   1.035  11.032 -0.0538 -0.1508 -0.1348
 1436W        W 5636   8.828   4.833   3.399 -0.0621 -0.2837 -0.1872
 1437W        W 5637  10.188   1.762   4.456 -0.1502  0.0365  0.3576
 1438W        W 5638   8.249   3.210   9.760  0.3693 -0.1128  0.1573
 1439W        W 5639   7.617   1.416   1.030  0.0239 -0.1765 -0.0345
 1440W        W 5640   9.430   6.023   1.162  0.0590  0.0993  0.0116
 1441W        W 5641   2.383   3.336  10.464 -0.1217  0.3244 -0.0003
 1442W        W 5642   9.361   3.053   2.931 -0.1506  0.0944 -0.2345
 1443W        W 5643   5.081   0.384  13.375  0.1089 -0.2629 -0.2460
 1444W        W 5644   4.067   9.057   3.688 -0.2776 -0.0764  0.0491
 1445W        W 5645   3.255   6.926   3.762 -0.0092  0.2202 -0.1167
 1446W        W 5646  10.069   3.737   1.914 -0.1773 -0.1279  0.1242
 1447W        W 5647   7.717   0.531  12.467 -0.0317 -0.0528 -0.0829
 1448W        W 5648   5.167  10.143   2.564  0.2791 -0.0663 -0.1902
 1449W        W 5649   7.245   7.250  11.422  0.0978 -0.0761  0.1137
 1450W        W 5650   2.024   0.789  12.461  0.0651  0.0199  0.0816
 1451W        W 5651   7.855   2.685  11.454  0.2449 -0.0716 -0.0366
 1452W        W 5652   0.444   4.514   9.557  0.0617 -0.0248  0.1420
 1453W        W 5653   8.722   3.885   1.467 -0.0228  0.1121 -0.0188
 1454W        W 5654   3.948   0.348  12.531  0.3073  0.0296  0.0066
 1455W        W 5655   5.601   8.810   3.952 -0.2353 -0.0763  0.0786
 1456W        W 5656   7.876   3.905   2.135  0.1194 -0.1733  0.3109
 1457W        W 5657   5.124   4.565  12.453 -0.0725 -0.1440 -0.0060
 1458W        W 5658   7.809   7.996  11.726 -0.0178  0.0685  0.0795
 1459W        W 5659   1.202   3.682   0.423 -0.0320 -0.0965 -0.0620
 1460W        W 5660   6.755   2.478  12.146 -0.1479  0.1277  0.2937
 1461W        W 5661   2.442   7.338   3.993  0.1095  0.4567 -0.3002
 1462W        W 5662   2.851   0.289   1.155  0.1431 -0.2936  0.0701
 1463W        W 5663   1.384   4.512   9.799  0.0519 -0.2046 -0.0019
 1464W        W 5664   3.956   3.184  10.376 -0.2061 -0.1447  0.0591
 1465W        W 5665   3.743   5.451  10.789  0.0619  0.0942  0.1818
 1466W        W 5666   2.838   1.939  11.627  0.2993 -0.0177  0.1316
 1467W        W 5667   2.906   1.445   8.848  0.1386  0.1201 -0.1330
 1468W        W 5668   4.983   2.840   9.627 -0.1257  0.0896 -0.0349
 1469W        W 5669   8.553   6.296   9.261 -0.0195  0.0102 -0.0167
 1470W        W 5670   3.439   3.134  11.201 -0.2722 -0.0899 -0.1102
 1471W        W 5671   9.969   1.452   0.372 -0.1754  0.1912  0.0314
 1472W        W 5672   0.947   4.882  10.841  0.5559  0.0293  0.0635
 1473W        W 5673   8.767   6.440  11.756  0.3370 -0.0590 -0.0800
 1474W        W 5674   6.269   8.843  12.035 -0.1798 -0.2157  0.3000
 1475W        W 5675   2.515   1.790  11.251  0.2322 -0.2620 -0.1116
 1476W        W 5676   0.053   6.710  12.699 -0.0836  0.2331 -0.0462
 1477W        W 5677   8.875   7.872   1.548 -0.1813 -0.0275  0.0648
 1478W        W 5678   0.813   7.671   2.831 -0.1701 -0.1026 -0.0288
 1479W        W 5679   4.798   5.969   9.588 -0.3991 -0.1230  0.1762
 1480W        W 5680   0.960   5.112   2.308  0.5547  0.2151 -0.0236
 1481W        W 5681   4.695   2.097   0.095  0.0213 -0.3018 -0.0520
 1482W        W 5682   4.939   3.930   4.679 -0.1383 -0.0570  0.1224
 1483W        W 5683   8.753   0.402  11.053  0.1367  0.1568 -0.0917
 1484W        W 5684   5.725   6.563  11.768  0.1510 -0.0359  0.0006
 1485W        W 5685   5.994   9.333  12.024  0.0727 -0.1245 -0.1478
 1486W        W 5686   4.497   5.657   5.209  0.2080  0.0296  0.1154
 1487W        W 5687   8.706   9.619   1.408 -0.0784 -0.1058 -0.0652
 1488W        W 5688   4.343   0.554   3.046  0.1938 -0.0365  0.0916
 1489W        W 5689   5.538   6.268  11.242 -0.3247  0.0269 -0.1515
 1490W        W 5690   6.369   6.185  12.645 -0.1834 -0.0197  0.0545
 1491W        W 5691   4.765   2.656  12.472  0.0234 -0.0327 -0.0423
 1492W        W 5692   6.257   7.787  10.317  0.5971 -0.1626  0.0275
 1493W        W 5693   0.832   4.103   4.032  0.0375 -0.1092  0.0750
 1494W        W 5694   5.990   2.214  13.043  0.0466  0.0633 -0.0644
 1495W        W 5695   6.546   3.987   0.455  0.1515 -0.0737  0.2618
 1496W        W 5696   9.478   0.639  11.174 -0.0436  0.0172  0.1730
 1497W        W 5697   8.571   1.407   1.400 -0.1955 -0.0115 -0.4105
 1498W        W 5698   6.299   8.403   4.426 -0.0081 -0.3340 -0.1405
 1499W        W 5699   1.813   2.938  11.339  0.1590  0.3055 -0.2661
 1500W        W 5700   3.572   7.374   9.591  0.0993 -0.0227 -0.2304
 1501W        W 5701   1.128   1.584   2.800 -0.1239 -0.0209 -0.0725
 1502W        W 5702   8.995   0.384   9.962 -0.2093  0.1817  0.0499
 1503W        W 5703   7.259   4.608  10.661 -0.0785 -0.1149  0.0478
 1504W        W 5704   4.653   5.254  12.566 -0.2542  0.0545 -0.2089
 1505W        W 5705   3.854   5.978  13.371 -0.0605 -0.3476  0.1157
 1506W        W 5706   6.071   9.605   1.029  0.0182  0.0348 -0.0027
 1507W        W 5707   7.729   2.136  11.312 -0.1950  0.1747 -0.2242
 1508W        W 5708   4.703   6.395  11.390  0.0439 -0.0698 -0.2959
 1509W        W 5709   1.997   3.615   3.852 -0.0678  0.1096 -0.0218
 1510W        W 5710   6.303   9.294   2.745  0.1759  0.2023  0.0901
 1511W        W 5711  10.206   2.011  13.005 -0.1285  0.0771 -0.0711
 1512W        W 5712   5.202   4.302   4.161 -0.0525  0.2284  0.2402
 1513W        W 5713   4.028   1.912  11.234  0.1664  0.2177  0.2838
 1514W        W 5714   7.997   8.903  13.226 -0.2680 -0.1297  0.0819
 1515W        W 5715   1.944   2.260  10.806 -0.1956  0.2471  0.0080
 1516W        W 5716   7.940   8.725   2.858  0.0529 -0.2287  0.0772
 1517W        W 5717   9.973   0.214   0.937  0.2062 -0.0316 -0.0453
 1518W        W 5718   7.037  10.031  10.615 -0.1054  0.1300 -0.1051
 1519W        W 5719   4.263   7.510   2.848  0.1723  0.0755 -0.4025
 1520W        W 5720   9.302   8.526  12.162  0.0977  0.1207  0.2245
 1521W        W 5721   2.993   5.028   3.333 -0.0079 -0.0003  0.0423
 1522W        W 5722   8.292   7.217  11.494 -0.0891 -0.2581 -0.0667
 1523W        W 5723   6.564   2.529   3.035 -0.0931 -0.4819  0.0878
 1524W        W 5724   8.996  10.373  11.719  0.0845  0.2289 -0.1074
 1525W        W 5725   0.762   6.293   4.079 -0.2226 -0.0019 -0.0213
 1526W        W 5726   5.284   8.948  11.894 -0.0322 -0.1435  0.0621
 1527W        W 5727   7.146   7.471   3.822 -0.0738  0.1707  0.0483
 1528W        W 5728   3.461  10.148   8.941 -0.0649  0.2644 -0.1114
 1529W        W 5729   8.857   5.537  10.644 -0.1729 -0.2373  0.3106
 1530W        W 5730   4.361   3.938   3.989  0.0529  0.1421  0.2993
 1531W        W 5731   0.600   8.265   9.568 -0.0749 -0.1318 -0.1034
 1532W        W 5732   2.006  10.214   4.079 -0.2944 -0.0448  0.0718
 1533W        W 5733   0.739   9.737   3.053  0.4773 -0.0346 -0.1689
 1534W        W 5734   9.081   3.645   3.354 -0.1704  0.1705  0.2497
 1535W        W 5735   2.794   0.028   4.439 -0.1843  0.2077  0.0135
 1536W        W 5736   4.505   9.652   1.081 -0.0874  0.0705 -0.0595
 1537W        W 5737   8.203   4.865  10.441 -0.2490 -0.1805  0.1714
 1538W        W 5738   9.772   5.844   9.200  0.3002  0.1434 -0.3380
 1539W        W 5739   9.528   0.328  11.577  0.0453  0.0168  0.3823
 1540W        W 5740   6.030   4.474   8.893 -0.0437 -0.0926  0.0908
 1541W        W 5741   5.847   7.598   8.562  0.4144  0.1055  0.3594
 1542W        W 5742   2.522   3.754   0.046 -0.0554 -0.0091  0.0012
 1543W        W 5743   9.941   8.343   3.460 -0.0883 -0.1494  0.1129
 1544W        W 5744   1.166   3.714   9.757  0.3206 -0.1222 -0.3124
 1545W        W 5745   1.010   5.251   2.905 -0.1014 -0.1330  0.0253
 1546W        W 5746   3.842  10.328  10.426 -0.0097 -0.0646 -0.2832
 1547W        W 5747   6.784   1.956   9.437 -0.1056  0.0643 -0.1580
 1548W        W 5748   9.686   4.841   3.227 -0.1664 -0.3691 -0.0629
 1549W        W 5749   1.160   5.670   3.349  0.0554 -0.1660  0.2171
 1550W        W 5750   3.627   2.227   4.423 -0.0703 -0.0204 -0.0858
 1551W        W 5751   9.944   0.083   3.010 -0.3419  0.1870  0.0498
 1552W        W 5752   8.074   0.058  13.324  0.0093 -0.3685 -0.2796
 1553W        W 5753   4.963  10.099   4.466 -0.1531  0.2371  0.1872
 1554W        W 5754   4.007   2.960   0.459  0.3937  0.3969  0.2817
 1555W        W 5755   5.988   8.321   8.515  0.1147  0.1250 -0.0713
 1556W        W 5756  10.104   7.244   8.811 -0.0460  0.0928 -0.4985
 1557W        W 5757   3.261   3.469  13.151  0.0060 -0.2344 -0.3373
 1558W        W 5758   6.198   1.445   0.942 -0.1149 -0.0523  0.0280
 1559W        W 5759   0.226   4.776  12.975  0.1707 -0.0466  0.0623
 1560W        W 5760   7.021   6.957   0.627  0.2564 -0.1890 -0.0040
 1561W        W 5761   3.731   9.248  12.115  0.1645  0.0568  0.0821
 1562W        W 5762   8.073   6.939   9.633 -0.0079 -0.3046  0.1193
 1563W        W 5763   3.855   7.188   8.347 -0.0286  0.1355 -0.1592
 1564W        W 5764   2.338  10.422   9.494 -0.1061  0.0540 -0.0540
 1565W        W 5765   8.559   5.321  11.570  0.2373 -0.1940  0.2181
 1566W        W 5766   3.005   0.479   3.499 -0.0453 -0.0435 -0.0650
 1567W        W 5767   5.188   4.829  10.105 -0.1531  0.4375 -0.3147
 1568W        W 5768   2.177   2.109  12.908 -0.0912 -0.2914  0.2075
 1569W        W 5769   3.350   2.142   3.907  0.0573 -0.2542 -0.4173
 1570W        W 5770   6.895   9.786   2.116 -0.0899  0.0860  0.0522
 1571W        W 5771   5.399   1.007   9.238  0.1692  0.1533  0.0648
 1572W        W 5772   7.260   1.789  12.536 -0.2409 -0.3808 -0.0295
 1573W        W 5773   1.559   5.383   2.780  0.1497 -0.2955 -0.2522
 1574W        W 5774   2.028   7.362   3.078  0.0621  0.0385  0.1917
 1575W        W 5775  10.347   3.912  10.721 -0.0721  0.2266  0.1968
 1576W        W 5776   5.916   7.249   5.224  0.0604  0.3034  0.0470
 1577W        W 5777   3.438   5.266  11.716  0.1146 -0.3124 -0.2195
 1578W        W 5778   2.022   4.962   0.269 -0.1190 -0.0455 -0.4418
 1579W        W 5779   0.972   3.259  10.166 -0.1933 -0.2036  0.0681
 1580W        W 5780   4.721   6.468  10.812  0.0441  0.0670  0.0000
 1581W        W 5781   8.912   1.525  11.073 -0.2089 -0.0766  0.2574
 1582W        W 5782   5.112   1.275   1.413 -0.3051  0.3676  0.0895
 1583W        W 5783   0.570   8.033  11.311  0.0838 -0.1456  0.1535
 1584W        W 5784   1.424   0.370   0.580 -0.0861 -0.0587 -0.3016
 1585W        W 5785   1.355   8.615  10.310  0.2239  0.2134  0.1296
 1586W        W 5786   2.884   9.855   1.675 -0.0843  0.1420  0.2163
 1587W        W 5787   4.387   0.968  11.068  0.1241 -0.2973  0.2256
 1588W        W 5788   7.983   2.388  12.795  0.0033 -0.0298 -0.1884
 1589W        W 5789   0.494   8.498   1.300  0.0020  0.0846 -0.0640
 1590W        W 5790   3.060   4.663   9.679  0.2976 -0.1131 -0.1210
 1591W        W 5791   1.849   4.773  11.118  0.2607  0.0914 -0.0300
 1592W        W 5792   6.096   0.377  11.922 -0.1788  0.3901 -0.0491
 1593W        W 5793   4.712   9.837   0.722 -0.1077 -0.0075  0.0668
 1594W        W 5794   4.098   8.140   1.526 -0.0039  0.0986  0.0657
 1595W        W 5795   7.075   9.209   0.073  0.1152  0.1577 -0.2853
 1596W        W 5796  10.180   5.380  11.926  0.0625 -0.1096 -0.0328
 1597W        W 5797   9.401   0.008  11.967  0.2010  0.2067 -0.1904
 1598W        W 5798   5.953   3.518  11.124  0.0718 -0.2368 -0.1204
 1599W        W 5799  10.048   8.149   8.781  0.2650  0.3365  0.1365
 1600W        W 5800   1.314   2.393  11.218 -0.1525  0.0091 -0.2171
 1601W        W 5801   3.854   1.251   9.027  0.1707 -0.0561 -0.0347
 1602W        W 5802   0.844   5.249   3.373 -0.0262 -0.1879  0.0984
 1603W        W 5803   9.625   9.760   9.743 -0.3630  0.0694  0.1644
 1604W        W 5804   5.238   9.241   2.234 -0.0053  0.2167 -0.1350
 1605W        W 5805   5.660   7.270  10.840 -0.0025  0.3911 -0.0553
 1606W        W 5806  10.457   7.108   3.165  0.0671  0.5578  0.1266
 1607W        W 5807   3.790   2.231   9.573 -0.0293 -0.1441  0.0061
 1608W        W 5808   7.418   6.628   4.218 -0.4657 -0.2341 -0.2196
 1609W        W 5809   0.726   3.729   1.146 -0.1206 -0.1219 -0.1570
 1610W        W 5810   2.882   5.242  10.449  0.2907 -0.1361  0.2156
 1611W        W 5811   9.647   0.589   1.215 -0.2829  0.0864  0.0688
 1612W        W 5812   9.818   1.192  13.319 -0.2148  0.1585  0.2553
 1613W        W 5813   0.233   6.989   4.396 -0.1253 -0.1077 -0.2018
 1614W        W 5814   3.905   5.099   3.812 -0.0579  0.0311 -0.2002
 1615W        W 5815   2.316   8.766   4.052 -0.0532 -0.0611 -0.2242
 1616W        W 5816   0.374   5.882  12.747  0.0762  0.0005 -0.1054
 1617W        W 5817   3.635   8.892   1.944  0.0665  0.1287 -0.1765
 1618W        W 5818   4.552   9.007   9.448  0.2388 -0.1279 -0.0506
 1619W        W 5819   0.216   9.127   8.887  0.0001 -0.1799  0.1086
 1620W        W 5820   5.017   6.838  13.174  0.1229 -0.0308 -0.1505
 1621W        W 5821   4.306   5.317   3.535 -0.1284  0.2592  0.1559
 1622W        W 5822   3.013   0.166  10.858  0.0573  0.1740 -0.3244
 1623W        W 5823   0.130   9.706  10.611 -0.2918  0.1698  0.0529
 1624W        W 5824   1.921   1.899   9.711 -0.0048 -0.0482  0.0669
 1625W        W 5825   3.079  10.321   1.324  0.0295  0.0359 -0.1174
 1626W        W 5826   7.504   1.339   0.540 -0.0822 -0.2673  0.0042
 1627W        W 5827   5.871   6.297   4.360  0.2020  0.4577  0.1728
 1628W        W 5828   2.879   7.204  10.278  0.0841 -0.0004 -0.1190
 1629W        W 5829   5.768   2.491   2.547 -0.4454 -0.5105 -0.1139
 1630W        W 5830   1.765   0.524   0.222  0.3135  0.0095 -0.1276
 1631W        W 5831   1.607   8.321  13.219 -0.0574 -0.1601 -0.0670
 1632W        W 5832   0.149   5.310  10.425  0.0077  0.2143  0.4332
 1633W        W 5833   7.969   2.725   1.195  0.0729  0.0722  0.0749
 1634W        W 5834   3.438   2.750   9.022  0.1118  0.1085  0.2496
 1635W        W 5835   7.187   3.534  13.037 -0.4736  0.4258 -0.1040
 1636W        W 5836   2.428   6.793  11.489 -0.0671 -0.0021 -0.0681
 1637W        W 5837   8.393  10.272  10.002 -0.0485  0.2296 -0.2196
 1638W        W 5838   0.970   0.425   4.293 -0.2365 -0.0108 -0.0773
 1639W        W 5839   2.397   8.771   8.333  0.0204  0.3560  0.1306
 1640W        W 5840   1.997   3.058  12.519 -0.3242  0.0865  0.1135
 1641W        W 5841   3.069   7.809   8.309 -0.0447  0.3282 -0.3139
 1642W        W 5842   7.814   1.304  11.894  0.0436 -0.0130  0.2462
 1643W        W 5843   6.436   9.405  10.059  0.1080 -0.1612  0.0724
 1644W        W 5844   4.938   9.385  12.954 -0.0949 -0.2055  0.1449
 1645W        W 5845   3.253   7.063  11.513 -0.0024  0.0437  0.2707
 1646W        W 5846   0.190   2.980   3.570 -0.1270 -0.1033 -0.3886
 1647W        W 5847   7.614   6.672  12.498 -0.0710  0.1674  0.2834
 1648W        W 5848  10.372   0.851   3.505  0.1830 -0.4197 -0.0062
 1649W        W 5849   1.957   5.425   8.531 -0.2519  0.1637 -0.3559
 1650W        W 5850   8.233   5.743  13.033 -0.0813 -0.0098 -0.2094
 1651W        W 5851   5.373   8.618  12.627  0.0475 -0.1760  0.2039
 1652W        W 5852   8.166   8.950   3.233  0.2088  0.0866  0.0022
 1653W        W 5853   7.855   2.952   1.968  0.2557  0.2412 -0.0940
 1654W        W 5854   9.005   9.296   2.810  0.2404 -0.1703  0.0127
 1655W        W 5855   6.117   0.202  12.472 -0.0902 -0.0273 -0.1962
 1656W        W 5856   6.416   8.316  12.702 -0.0257 -0.0692  0.1010
 1657W        W 5857   6.363   7.105   2.198 -0.1320  0.1033 -0.0754
 1658W        W 5858   8.601   7.943  10.344 -0.0092 -0.0553 -0.0770
 1659W        W 5859   1.734   0.858  12.882  0.2618 -0.1085 -0.2887
 1660W        W 5860   7.764   7.502  11.441 -0.4814  0.0949  0.2389
 1661W        W 5861   1.922   7.984   0.764 -0.2208  0.1802  0.0909
 1662W        W 5862   2.977   8.583  10.736  0.3522  0.1745  0.0699
 1663W        W 5863   2.816   9.377  11.214  0.1997 -0.1306  0.3538
 1664W        W 5864   4.945   2.763  12.993 -0.1722 -0.0254 -0.1360
 1665W        W 5865   9.375   2.031  13.323 -0.1296 -0.0123  0.2328
 1666W        W 5866   0.198   3.558   9.810 -0.1832  0.1483  0.0378
 1667W        W 5867   7.244   8.226  11.248  0.4045  0.0191 -0.2158
 1668W        W 5868   2.019   6.706   9.147 -0.2166  0.0611 -0.1050
 1669W        W 5869   1.149   8.909  10.000  0.0090  0.2020  0.0125
 1670W        W 5870   7.573   7.329  10.117 -0.2782 -0.0294 -0.2184
 1671W        W 5871  10.463   9.206   3.543 -0.1071 -0.0516  0.0778
 1672W        W 5872   9.486   6.554   8.507  0.2561  0.2217  0.2062
 1673W        W 5873  10.484   8.998  11.120  0.0228 -0.0515 -0.0878
 1674W        W 5874   1.133   2.351   3.523 -0.3128 -0.2154 -0.0924
 1675W        W 5875   5.263   5.772   9.330  0.3031 -0.4625 -0.2912
 1676W        W 5876   7.798   7.898  13.152  0.0479 -0.2063  0.5273
 1677W        W 5877   4.477   8.943  12.421  0.2716 -0.0789  0.1269
 1678W        W 5878   1.023   9.371  12.441  0.4215 -0.0413  0.1837
 1679W        W 5879   0.940  10.433   8.979 -0.0117 -0.0517  0.3694
 1680W        W 5880   3.357   0.853   3.596 -0.2569 -0.1846  0.5465
 1681W        W 5881   5.452   2.855   8.926 -0.1881 -0.2005 -0.1004
 1682W        W 5882   5.285   6.700   4.032  0.0690  0.1225  0.1152
 1683W        W 5883   0.712   7.143   8.612 -0.1756  0.2403 -0.2708
 1684W        W 5884   8.791   5.666   0.480  0.0052 -0.0367  0.1442
 1685W        W 5885   9.196   2.673  10.469  0.1689  0.2052  0.1158
 1686W        W 5886   6.378   6.824  11.490 -0.0773  0.2248 -0.1591
 1687W        W 5887   2.893   3.474   1.779  0.1110  0.3340  0.2567
 1688W        W 5888   9.907  10.123   1.731  0.1834 -0.0856  0.1989
 1689W        W 5889   5.619   9.153   9.526 -0.1766 -0.4105  0.0621
 1690W        W 5890   6.718   0.902   0.900  0.1253  0.1357 -0.1679
 1691W        W 5891   7.077  10.427   4.584 -0.0633 -0.0878  0.1065
 1692W        W 5892   5.219   8.707   3.708  0.0410  0.1391  0.3219
 1693W        W 5893   1.488   5.827   4.688 -0.1849  0.1021  0.2000
 1694W        W 5894   4.760   8.555   1.014  0.1852 -0.3320 -0.0200
 1695W        W 5895  10.236   2.519  12.970 -0.0793 -0.1276  0.1021
 1696W        W 5896   1.240   6.955   3.615 -0.0205  0.2116  0.0125
 1697W        W 5897   8.567   6.298  11.246  0.1002 -0.0700  0.1684
 1698W        W 5898   4.461   6.774   4.155  0.0556 -0.5340 -0.0909
 1699W        W 5899   7.127   6.780  11.690 -0.2055  0.2110  0.2178
 1700W        W 5900   8.137   5.246  13.098 -0.2180 -0.2683 -0.4063
 1701W        W 5901   3.108   4.030  10.819  0.0400 -0.3361 -0.2278
 1702W        W 5902   9.198   4.206   9.848 -0.3283 -0.0965 -0.0450
 1703W        W 5903   4.852   1.523   9.364 -0.0872  0.0668  0.0543
 1704W        W 5904   9.397   4.148  11.706 -0.0212 -0.4003  0.0762
 1705W        W 5905   9.715   2.769   0.242 -0.0427 -0.0345  0.0683
 1706W        W 5906   0.125   0.440  11.471 -0.0551  0.1569  0.0488
 1707W        W 5907   8.943   6.273  12.869 -0.0485  0.0603 -0.3594
 1708W        W 5908  10.485   7.956  11.360  0.2466  0.0878  0.1509
 1709W        W 5909   5.355   7.444   9.540 -0.1983  0.1453  0.0537
 1710W        W 5910   5.940   5.572  13.038  0.0395  0.4187  0.0231
 1711W        W 5911   5.278   5.480   4.163 -0.0001  0.0394 -0.0720
 1712W        W 5912   2.939   3.366   0.100 -0.1741  0.0813  0.2578
 1713W        W 5913  10.320   2.979   3.914  0.0052 -0.0053 -0.4358
 1714W        W 5914   1.256   9.338   0.780 -0.2013  0.0764 -0.0543
 1715W        W 5915   4.818   6.782   9.883  0.0331  0.1591 -0.0791
 1716W        W 5916   9.048   0.072   1.834 -0.5553  0.0602  0.1387
 1717W        W 5917   4.048   9.316   9.071  0.3320  0.1593  0.0957
 1718W        W 5918   7.809   6.947   9.226 -0.0181 -0.0222  0.0544
 1719W        W 5919   9.803   6.715   4.628 -0.0410 -0.2026 -0.0449
 1720W        W 5920   8.513   3.654   1.828 -0.2496  0.1961 -0.2955
 1721W        W 5921   6.868   5.644  12.000  0.1558 -0.3092  0.0430
 1722W        W 5922   6.155   3.163   1.982  0.0626 -0.0201 -0.0729
 1723W        W 5923   6.364   8.271   9.288 -0.1721  0.0200 -0.1053
 1724W        W 5924   9.777   6.281  13.275  0.1518  0.2316  0.0991
 1725W        W 5925   3.122   7.856   8.966  0.0248 -0.1049  0.1020
 1726W        W 5926   6.480   8.516   1.440 -0.2168 -0.3408  0.2575
 1727W        W 5927   7.486   8.364   1.971 -0.2839 -0.3103 -0.2659
 1728W        W 5928   1.464   4.668   3.401 -0.2644 -0.1480 -0.3867
 1729W        W 5929   0.892   9.351  10.207  0.0367  0.2395  0.4256
 1730W        W 5930   2.249   2.221  11.305  0.2930  0.1543 -0.1169
 1731W        W 5931   0.557   1.675  12.437  0.1623 -0.0276  0.3249
 1732W        W 5932   8.450   5.611  12.051  0.1258 -0.0058  0.0096
 1733W        W 5933   5.302   3.959  10.520 -0.1621 -0.0309  0.2736
 1734W        W 5934   1.763   3.084  10.170 -0.1888  0.1292  0.1221
 1735W        W 5935   2.697   7.485   0.205 -0.0871  0.3005  0.3585
 1736W        W 5936   0.910   4.669  12.486 -0.3029  0.0211  0.0411
 1737W        W 5937   7.364  10.231   9.207  0.0602 -0.1734 -0.3432
 1738W        W 5938   9.892   5.444  10.258 -0.0546 -0.1395  0.3609
 1739W        W 5939   4.476   4.087   0.733 -0.1437  0.1132  0.1187
 1740W        W 5940   5.846   2.764  13.296 -0.2033 -0.1476 -0.0020
 1741W        W 5941   5.882   9.676   4.392 -0.1455  0.1794 -0.0676
 1742W        W 5942  10.225   9.482   4.243  0.0682  0.1675  0.2057
 1743W        W 5943  10.117   5.014  10.523  0.1939  0.0613  0.2260
 1744W        W 5944   9.333   6.225  10.169  0.0071  0.0429 -0.0651
 1745W        W 5945  10.427   3.252   1.969  0.2095 -0.2319  0.0821
 1746W        W 5946   7.965   6.124  11.974 -0.0107  0.1288 -0.0019
 1747W        W 5947   3.442   6.987  11.017  0.0285 -0.0442 -0.0254
 1748W        W 5948   2.812   2.128   1.403  0.2964 -0.2443 -0.3626
 1749W        W 5949   7.777   4.974  11.356 -0.0074 -0.1265 -0.0964
 1750W        W 5950   9.724   1.857   1.032 -0.1295  0.0580  0.1285
 1751W        W 5951   5.966   8.392   8.991  0.0138  0.0873  0.0300
 1752W        W 5952   1.497  10.065   4.185  0.2563 -0.3654 -0.0380
 1753W        W 5953   4.867   8.089  11.665  0.2434  0.0734  0.1795
 1754W        W 5954   4.099   9.220  10.458  0.1567  0.0668  0.0720
 1755W        W 5955   1.876   8.436   0.452 -0.0141 -0.0079  0.3515
 1756W        W 5956   6.206   8.794   2.786  0.0177  0.5464 -0.0466
 1757W        W 5957   0.069   2.839   0.325  0.0721 -0.0059 -0.2883
 1758W        W 5958   6.635   1.265   1.302  0.1254  0.0613  0.1098
 1759W        W 5959   3.556  10.334  11.663 -0.1569 -0.0504  0.2305
 1760W        W 5960   0.544   2.832   0.098  0.0949  0.0531 -0.4914
 1761W        W 5961   9.061   5.536   4.155 -0.0239 -0.0434  0.8290
 1762W        W 5962   9.807   6.297   8.903 -0.0843 -0.1514 -0.0226
 1763W        W 5963   2.586   7.521   2.972  0.0284 -0.1743  0.1058
 1764W        W 5964   2.605   0.320  12.917 -0.1397 -0.2070  0.1731
 1765W        W 5965   7.524   6.309   2.050  0.4683 -0.1655 -0.0336
 1766W        W 5966   1.766   2.739   2.335 -0.0736 -0.1121  0.0147
 1767W        W 5967   3.125   2.737  11.998 -0.0780  0.0957 -0.1844
 1768W        W 5968   1.543   2.672   4.640 -0.0783  0.2777  0.1670
 1769W        W 5969   7.105   5.627   0.801  0.1797  0.0815  0.2306
 1770W        W 5970   0.518   3.925  12.070  0.2421  0.2256  0.1179
 1771W        W 5971   3.676   2.714  12.082 -0.0250 -0.1666 -0.0800
 1772W        W 5972   0.434   9.066   3.764 -0.1700 -0.0143  0.0354
 1773W        W 5973   7.207   0.423   2.539 -0.0818 -0.1818 -0.1156
 1774W        W 5974   4.613   1.453   3.889  0.0544  0.3773 -0.1708
 1775W        W 5975   4.817   2.628   4.741  0.3233 -0.2200  0.0424
 1776W        W 5976   3.867   0.964  10.353  0.0342  0.0701 -0.1241
 1777W        W 5977   9.310   5.122   2.637 -0.1700  0.1881 -0.1540
 1778W        W 5978   5.699   3.555   8.621 -0.0062  0.1819  0.1909
 1779W        W 5979   6.080   3.104  10.561  0.0983 -0.0204 -0.1393
 1780W        W 5980   8.604   0.513  10.358  0.0316 -0.0660 -0.2027
 1781W        W 5981   3.811   9.735   9.609 -0.1359  0.2083  0.1352
 1782W        W 5982   8.212   7.266   3.864 -0.0471  0.0172 -0.1305
 1783W        W 5983   9.600   0.870   2.056  0.0923  0.5046 -0.0651
 1784W        W 5984   6.503   2.587   9.636 -0.0061  0.2001  0.2292
 1785W        W 5985   7.988   3.195   0.442 -0.2677 -0.1882 -0.1522
 1786W        W 5986   9.178   8.277  11.718  0.2777 -0.0377  0.2127
 1787W        W 5987   9.816   4.489   4.633  0.1142  0.3108  0.0987
 1788W        W 5988   1.439   7.471   3.100 -0.1384 -0.2826 -0.1241
 1789W        W 5989   9.408   9.851  11.559 -0.1407 -0.0707  0.2882
 1790W        W 5990   9.889   6.947   9.222 -0.0038 -0.0718  0.0171
 1791W        W 5991   7.723   9.071   9.312 -0.2889  0.2242 -0.1904
 1792W        W 5992   7.264   6.794   1.922 -0.0352  0.0384 -0.0897
 1793W        W 5993   9.222   2.771   9.949 -0.2200  0.0285 -0.0270
 1794W        W 5994   2.555   4.317  12.811  0.1860  0.2964 -0.2618
 1795W        W 5995   2.967   2.846   4.523 -0.2387  0.1429  0.1379
 1796W        W 5996   0.832   1.866  13.179  0.2162 -0.2453 -0.0456
 1797W        W 5997   9.141   6.606   9.939  0.2199  0.3372 -0.0990
 1798W        W 5998   3.495   5.200   1.108  0.0466 -0.1375  0.2574
 1799W        W 5999   2.200   9.101   9.461  0.0770 -0.3761  0.0346
 1800W        W 6000  10.280   2.213   0.012  0.0132  0.2344 -0.1335
 1801W        W 6001   6.530   7.882  11.234 -0.0242 -0.5539  0.0508
 1802W        W 6002   4.390   6.214   0.932  0.0526  0.0099  0.5195
 1803W        W 6003   2.055   8.177   9.906 -0.1450  0.3446  0.1806
 1804W        W 6004   6.409   8.427  10.490 -0.0130 -0.2310  0.4790
 1805W        W 6005   1.385   1.918   1.923  0.2388 -0.0882  0.1056
 1806W        W 6006   5.572   4.376  11.250 -0.2478  0.1823 -0.0537
 1807W        W 6007   8.397  10.315  10.584  0.0147 -0.1108 -0.0525
 1808W        W 6008   7.167   1.641   0.724  0.3190  0.0976  0.4358
 1809W        W 6009   2.032   8.290   3.473 -0.0160  0.3601 -0.0808
 1810W        W 6010   7.181   8.701   3.002  0.1552  0.2492 -0.1717
 1811W        W 6011   3.098   0.487   4.408 -0.1748  0.3592 -0.0767
 1812W        W 6012   8.001   8.250   5.151 -0.4690 -0.0152  0.1070
 1813W        W 6013   8.708   8.293  10.812  0.1562 -0.0905 -0.0631
 1814W        W 6014  10.267   6.171  13.171  0.0777  0.2734  0.1419
 1815W        W 6015   4.975   1.441   2.835  0.2103 -0.1301 -0.2402
 1816W        W 6016  10.379   6.304   1.464 -0.2120 -0.0890  0.1838
 1817W        W 6017   8.471   3.835  10.861  0.1379  0.0539  0.3175
 1818W        W 6018   0.154   6.710   1.580 -0.3173  0.1341  0.0660
 1819W        W 6019   7.962   3.981  10.798 -0.0036 -0.2100 -0.1805
 1820W        W 6020   1.104   8.009  10.279  0.1012 -0.2168 -0.1064
 1821W        W 6021   4.348   6.368   9.315 -0.1326 -0.4396  0.1210
 1822W        W 6022   1.244   7.592  12.394 -0.0474 -0.1663  0.1635
 1823W        W 6023   9.845   5.923   3.083 -0.0112  0.0812 -0.0312
 1824W        W 6024   6.243   3.981  10.149 -0.1650 -0.0162  0.0389
 1825W        W 6025   3.531   8.973  12.975  0.0340 -0.1781  0.0501
 1826W        W 6026   2.181   5.387   3.990 -0.0273  0.0711 -0.0966
 1827W        W 6027   8.390  10.451  12.002 -0.0757  0.4820  0.1031
 1828W        W 6028   8.469   2.381  13.095  0.3012  0.0450 -0.0795
 1829W        W 6029   4.889   1.909  11.016  0.4243  0.3055  0.0551
 1830W        W 6030   5.451   5.580   2.123  0.1562 -0.1292  0.1295
 1831W        W 6031   5.570   7.603   1.001  0.0512 -0.1172  0.6481
 1832W        W 6032   0.816   5.873   0.539  0.0830  0.4057 -0.2586
 1833W        W 6033   4.171   3.743   4.503 -0.0982 -0.1429 -0.0414
 1834W        W 6034   4.917   4.411  11.999 -0.0158  0.0095 -0.1498
 1835W        W 6035   0.041   5.162   2.134  0.4185  0.1279 -0.1841
 1836W        W 6036   9.412   4.164   1.781  0.3512 -0.1449 -0.2994
 1837W        W 6037   8.554   9.094   0.153  0.0090  0.1895  0.0767
 1838W        W 6038   7.143  10.124  11.648  0.0093  0.0904  0.1912
 1839W        W 6039   2.494   3.264  13.368  0.1587 -0.2317 -0.2051
 1840W        W 6040   5.209   4.310   0.759  0.0465  0.1233 -0.1829
 1841W        W 6041   3.276   4.714  10.088  0.0952 -0.0488 -0.0857
 1842W        W 6042   2.675   1.576   3.134 -0.2786 -0.2845 -0.1411
 1843W        W 6043   6.539   5.702  10.706 -0.0205 -0.0411 -0.4346
 1844W        W 6044   0.633   5.490   3.726  0.1382  0.0525 -0.0718
 1845W        W 6045   0.394   8.008  12.311 -0.1979 -0.0022 -0.0476
 1846W        W 6046   0.244   4.844   3.424  0.0429 -0.2908  0.0034
 1847W        W 6047   9.129   2.736   1.832  0.0963  0.0366 -0.1361
 1848W        W 6048   7.864   5.007   0.306 -0.1796  0.1070  0.3317
 1849W        W 6049   8.193   7.323   0.289 -0.0675 -0.0301  0.2420
 1850W        W 6050   8.471  10.359   2.665  0.1710  0.1305 -0.0856
 1851W        W 6051   1.916   1.598   0.902 -0.0710 -0.3081 -0.1336
 1852W        W 6052   3.860   0.742   3.657 -0.0852 -0.0815  0.0088
 1853W        W 6053   3.914   3.054  12.588 -0.2764  0.1566 -0.0849
 1854W        W 6054   9.545   5.532  12.034  0.0315  0.2086 -0.2547
 1855W        W 6055   9.896  10.073  10.033  0.0490  0.1967  0.1313
 1856W        W 6056   1.488   9.122   2.127  0.4319 -0.0899  0.2008
 1857W        W 6057   9.593   2.106   3.266  0.0763 -0.0722 -0.2778
 1858W        W 6058   5.948   6.961   2.629 -0.2306  0.0766  0.2278
 1859W        W 6059   0.069   9.990   3.566 -0.3388 -0.2350 -0.1481
 1860W        W 6060   3.297   3.858  12.191 -0.0089 -0.2709 -0.0101
 1861W        W 6061   6.063   5.164   3.898 -0.1286  0.0983  0.2930
 1862W        W 6062   5.374   6.372   4.443 -0.4086  0.2747  0.0019
 1863W        W 6063   4.896   2.481   1.682 -0.0873 -0.1695  0.0235
 1864W        W 6064   8.412   6.215  10.141 -0.2080  0.2224  0.0629
 1865W        W 6065   8.919   3.574   2.263  0.4698  0.0851  0.0244
 1866W        W 6066   8.130   4.073   1.581 -0.3300 -0.3614  0.0021
 1867W        W 6067   0.249  10.433  12.466 -0.1185  0.0376  0.2772
 1868W        W 6068   1.073  10.070  11.945  0.0771 -0.1146 -0.0091
 1869W        W 6069   4.912   6.355   0.697  0.1694  0.0744 -0.0609
 1870W        W 6070   4.598   6.102   1.385 -0.0515 -0.0774 -0.2963
 1871W        W 6071   1.026   2.327   2.106  0.5134  0.0497 -0.2573
 1872W        W 6072   3.028   2.524  10.391 -0.0085 -0.3530 -0.0515
 1873W        W 6073   3.112   7.613   1.971  0.0189  0.1589 -0.2391
 1874W        W 6074   6.915   5.153   0.965 -0.1704 -0.3773  0.2772
 1875W        W 6075   7.353   3.017   1.295 -0.0291 -0.3019 -0.0085
 1876W        W 6076   8.490   2.800  12.752  0.2216 -0.3476 -0.2086
 1877W        W 6077   9.493   7.233   1.509 -0.0738 -0.0165  0.1043
 1878W        W 6078   0.168   4.093  12.469  0.1791 -0.0370  0.3004
 1879W        W 6079   9.625   7.382  10.750 -0.1041 -0.1035  0.0121
 1880W        W 6080   2.772   1.344  11.403  0.1413 -0.3396  0.0256
 1881W        W 6081   3.614   6.688  11.459  0.4645 -0.1729  0.3118
 1882W        W 6082   9.611   6.587   3.592  0.1327  0.1870  0.1758
 1883W        W 6083   2.193   5.324  10.652  0.0537 -0.1303  0.0519
 1884W        W 6084   2.635   6.681   2.943  0.1802  0.0995  0.0585
 1885W        W 6085   8.866   8.990   4.953 -0.0268 -0.2525  0.0968
 1886W        W 6086   3.128   5.880   2.871 -0.1068 -0.1318  0.0351
 1887W        W 6087   4.295   4.516   0.766 -0.1046 -0.3627 -0.1198
 1888W        W 6088   6.645   1.833   4.098  0.1730 -0.1358 -0.1050
 1889W        W 6089   6.632   4.752   1.121 -0.2136  0.3056 -0.2396
 1890W        W 6090   6.825   7.154   2.119  0.0602 -0.2843 -0.2954
 1891W        W 6091   6.953   0.040   2.753  0.1423 -0.2609  0.3952
 1892W        W 6092   5.508   4.070   1.975  0.0573 -0.3434  0.0756
 1893W        W 6093   5.840   8.133  11.147  0.2245 -0.0275  0.4168
 1894W        W 6094   4.834   2.318  10.619 -0.0359  0.0440  0.2384
 1895W        W 6095   4.024   8.515   3.600  0.0977  0.2231 -0.0933
 1896W        W 6096   5.421   2.911   0.733  0.1250 -0.0949  0.5071
 1897W        W 6097   9.642   4.376  11.041  0.1873 -0.2249  0.1545
 1898W        W 6098   2.972   7.329   3.856  0.2419 -0.0446  0.0306
 1899W        W 6099   5.591   6.429   3.776  0.1015  0.0484 -0.0107
 1900W        W 6100   3.758  10.347   3.945 -0.1859  0.1201  0.2186
 1901W        W 6101   0.055   5.251  13.241 -0.2300 -0.2234  0.3258
 1902W        W 6102   2.061   1.111   4.161  0.0394  0.0550  0.0875
 1903W        W 6103   7.948   9.606  11.797 -0.1152 -0.0549  0.1100
 1904W        W 6104   1.092   4.490   4.963 -0.2132 -0.6154  0.2887
 1905W        W 6105   7.787   9.268   3.447  0.2607  0.0638  0.0980
 1906W        W 6106   8.662   5.549   0.966  0.1500 -0.1331  0.0983
 1907W        W 6107   7.736   8.100   9.294  0.1035  0.0867  0.0480
 1908W        W 6108   7.095   1.236   2.157 -0.2763 -0.0102  0.2700
 1909W        W 6109   7.314   7.056   9.387  0.2678  0.2826 -0.0849
 1910W        W 6110   2.072   6.593  10.439 -0.2219 -0.0725  0.0393
 1911W        W 6111   3.121   6.606   1.233 -0.0150  0.1605 -0.3260
 1912W        W 6112   0.176   6.826   9.359 -0.1107  0.0595 -0.2764
 1913W        W 6113  10.208   2.062  11.035 -0.0893 -0.1417 -0.1071
 1914W        W 6114   4.245   5.262  13.147 -0.0382 -0.2735  0.1253
 1915W        W 6115   5.375   6.217  11.917 -0.0888  0.3473  0.1092
 1916W        W 6116   2.453   6.960   8.944  0.4394 -0.1826  0.0653
 1917W        W 6117   6.799   5.176  10.071 -0.2485 -0.0094 -0.0809
 1918W        W 6118   8.469   7.448   0.710  0.4536 -0.3503 -0.1224
 1919W        W 6119   7.722   2.800  12.692 -0.1729  0.1992 -0.1629
 1920W        W 6120   1.573   0.792   3.254  0.1897  0.1240 -0.0521
 1921W        W 6121   2.893   9.789   3.060  0.1081 -0.1736  0.0019
 1922W        W 6122   5.506   3.878   0.830  0.0986  0.0145  0.4704
 1923W        W 6123   6.484   8.137   3.939  0.2211 -0.2032  0.4965
 1924W        W 6124   1.426   1.964   2.991 -0.0422 -0.0248 -0.0736
 1925W        W 6125   1.543   2.926  12.594 -0.0401  0.1617  0.5118
 1926W        W 6126   6.385   8.554   9.708  0.3779 -0.2444 -0.0996
 1927W        W 6127   8.433  10.078   4.135 -0.0476 -0.0773 -0.2317
 1928W        W 6128   0.560   4.076   1.534  0.1371  0.2551 -0.0481
 1929W        W 6129   3.774   4.514   0.037  0.0429  0.0070 -0.1914
 1930W        W 6130   0.952   5.905  11.180  0.1136  0.0091 -0.2518
 1931W        W 6131   0.848  10.264   0.902  0.0705 -0.1170  0.0213
 1932W        W 6132   9.550   6.350   3.160 -0.1678 -0.0533 -0.1012
 1933W        W 6133   9.374   4.142  13.167 -0.1745 -0.1460  0.0372
 1934W        W 6134  10.015   7.449   3.250  0.2586 -0.0638 -0.2430
 1935W        W 6135   1.049   7.179  11.522  0.0571 -0.1616  0.1250
 1936W        W 6136   4.592   9.730   2.205 -0.1340 -0.0440 -0.0648
 1937W        W 6137   3.280   0.777   0.184 -0.0048  0.1093 -0.0489
 1938W        W 6138   7.676   8.236   3.096 -0.0949 -0.0735  0.1007
 1939W        W 6139   0.537   6.750   0.798  0.1187 -0.2130  0.1265
 1940W        W 6140   1.317   7.727   9.224 -0.0201  0.0682  0.2597
 1941W        W 6141   8.523   8.601   0.343  0.3280  0.1413 -0.1255
 1942W        W 6142   4.088   4.959   3.056 -0.0322  0.1266 -0.0770
 1943W        W 6143   5.254   1.984  10.565 -0.0982 -0.1896  0.1332
 1944W        W 6144   1.360   3.470  11.876  0.1098  0.3456 -0.0056
 1945W        W 6145  10.407   4.975  11.454  0.1473 -0.1249  0.0594
 1946W        W 6146   0.140   0.664   3.140  0.2210 -0.2209 -0.2260
 1947W        W 6147   0.027   1.221  10.650 -0.1664  0.0591  0.0157
 1948W        W 6148   8.298   8.281  11.148 -0.1327 -0.1972  0.2629
 1949W        W 6149   6.411   3.352  11.864  0.1962 -0.0624 -0.0388
 1950W        W 6150   2.514   1.314   9.577  0.1654  0.1682 -0.1756
 1951W        W 6151   5.992   7.823   0.986  0.1545 -0.0138 -0.1390
 1952W        W 6152   6.182   9.354   4.171 -0.1403  0.2602  0.2515
 1953W        W 6153  10.167   7.683  13.000  0.1174  0.0263  0.0701
 1954W        W 6154   1.785   0.394   9.118  0.1383  0.2198  0.1566
 1955W        W 6155   2.348   7.952   1.031  0.1136  0.1027 -0.1279
 1956W        W 6156   6.721   8.528   3.068 -0.1146  0.0462  0.2372
 1957W        W 6157   0.898   5.610  11.615  0.1405  0.0750  0.2435
 1958W        W 6158   7.925   5.202  12.613  0.2418 -0.2803 -0.2665
 1959W        W 6159   7.863   7.099  11.755  0.2644  0.0231  0.0731
 1960W        W 6160   2.943   8.209   8.533  0.3052 -0.0210 -0.0582
 1961W        W 6161  10.322   5.797   1.742  0.0634 -0.0290  0.0590
 1962W        W 6162   1.260   5.781  10.552  0.0238  0.2744 -0.1781
 1963W        W 6163   9.574   1.636   3.115 -0.0463 -0.1057 -0.0721
 1964W        W 6164   4.512   2.927   0.021  0.2840  0.1318 -0.0355
 1965W        W 6165   8.889   7.444   2.962  0.0599 -0.2090  0.1741
 1966W        W 6166   8.362   5.104   0.112 -0.0601  0.1275  0.2179
 1967W        W 6167  10.228   4.209   1.116  0.0393 -0.1133  0.1807
 1968W        W 6168   1.262   0.596  10.484  0.0161  0.1188  0.3219
 1969W        W 6169   9.563   6.164   9.760  0.1322  0.0558  0.2243
 1970W        W 6170   2.354   5.183   1.988  0.0145 -0.2909 -0.2483
 1971W        W 6171   9.179   0.609  13.031  0.1329 -0.1022  0.5550
 1972W        W 6172   2.110   6.311   9.532 -0.1424 -0.0921  0.0646
 1973W        W 6173   2.466   4.343  10.620 -0.1283 -0.4135 -0.3325
 1974W        W 6174   8.540   3.521   2.738  0.1928 -0.1272  0.0419
 1975W        W 6175   5.153   0.380   0.499 -0.0808  0.2747 -0.2239
 1976W        W 6176   6.323   7.803   2.681 -0.0500 -0.1371  0.0340
 1977W        W 6177   8.350  10.334   0.813 -0.1690  0.0047  0.2387
 1978W        W 6178   8.755   9.608   3.260  0.2749 -0.4517  0.0513
 1979W        W 6179   5.474   0.288   0.958 -0.3411 -0.0970  0.1597
 1980W        W 6180   8.529   4.347   1.481  0.1083  0.3332 -0.1426
 1981W        W 6181   3.248   0.969  11.014 -0.0143  0.2005 -0.1912
 1982W        W 6182   1.726   6.551  11.341 -0.0284  0.2202 -0.1532
 1983W        W 6183   0.383   7.156  12.680 -0.2546 -0.1216  0.0220
 1984W        W 6184   3.664   9.844   3.123  0.0057  0.1589 -0.1444
 1985W        W 6185   4.122   7.257  11.981  0.1573  0.4321 -0.1713
 1986W        W 6186   2.373   9.901   9.534 -0.1899  0.0364 -0.0516
 1987W        W 6187   0.138   5.263   3.719 -0.0429 -0.1293  0.0245
 1988W        W 6188   7.781   7.368   2.203  0.1195 -0.2325  0.0121
 1989W        W 6189   9.666   0.168   0.232  0.3749  0.2772  0.0886
 1990W        W 6190   3.678   3.035   2.675  0.1374  0.3652 -0.1769
 1991W        W 6191   5.612   5.101   1.965  0.0688  0.0863 -0.1041
 1992W        W 6192   9.802   5.085   3.907  0.2540 -0.0060  0.2416
 1993W        W 6193   7.566   5.540  12.476  0.0070  0.0736  0.2199
 1994W        W 6194  10.094   9.307   0.425 -0.6320 -0.0038 -0.0805
 1995W        W 6195   8.816   8.782   2.558 -0.0436  0.4246  0.1822
 1996W        W 6196   0.243   1.691  10.834 -0.1876  0.0248 -0.1404
 1997W        W 6197   2.367   8.246   0.084  0.1685 -0.0101  0.0918
 1998W        W 6198   4.359   8.764   3.936 -0.1902 -0.0090  0.1902
 1999W        W 6199   5.238   8.449   4.153  0.1220  0.1306  0.1583
 2000W        W 6200   4.881   3.150  12.523  0.0923 -0.4441  0.0677
 2001W        W 6201   7.497   7.238   0.409  0.1965 -0.1711  0.2064
 2002W        W 6202   1.384   4.351   2.961 -0.0143 -0.0780  0.0548
 2003W        W 6203   2.986   8.316  12.269  0.0398  0.1142  0.3007
 2004W        W 6204   5.385   1.418  12.525 -0.0845  0.2311  0.2128
 2005W        W 6205   5.699   2.003   3.272 -0.1200 -0.1625 -0.2284
 2006W        W 6206  10.254  10.450   4.395 -0.1596  0.0061 -0.0498
 2007W        W 6207   9.814   3.422   0.210  0.1889 -0.0158  0.0952
 2008W        W 6208   2.021   4.597  11.571 -0.1969  0.1332  0.1957
 2009W        W 6209   4.702   4.842  10.277  0.1097  0.3384  0.2510
 2010W        W 6210  10.433   2.804  12.481  0.3087  0.0287 -0.0841
 2011W        W 6211   6.641   2.663   1.375 -0.1895  0.2334  0.0444
 2012W        W 6212  10.273   8.458   1.997 -0.0203  0.0858 -0.0971
 2013W        W 6213   7.396   3.610   2.402 -0.0559 -0.2519 -0.4800
 2014W        W 6214   7.124   3.350   3.081  0.0729 -0.2904  0.1257
 2015W        W 6215   4.418   4.709   1.251 -0.0882  0.1579 -0.2012
 2016W        W 6216   7.939   7.005   2.516 -0.1322  0.2964  0.0761
 2017W        W 6217   6.124   5.969  12.077  0.2433 -0.0246 -0.2262
 2018W        W 6218   3.560   7.568  12.699 -0.2108 -0.3046 -0.2933
 2019W        W 6219   9.616   4.204   1.177  0.0275 -0.1455  0.0291
 2020W        W 6220   7.586   7.294  10.957  0.3953 -0.2029  0.2459
 2021W        W 6221   9.343   7.086   9.955  0.2895  0.2009 -0.0944
 2022W        W 6222   1.021   4.590   0.658  0.0188  0.0169 -0.0389
 2023W        W 6223   0.798   0.594   1.278 -0.1391  0.0270  0.0781
 2024W        W 6224   6.914   2.755   0.910  0.6583  0.3489  0.0953
 2025W        W 6225   9.928   5.604   4.102  0.0150 -0.2759 -0.1740
 2026W        W 6226   1.103   8.057   3.634 -0.2943  0.2355 -0.0842
 2027W        W 6227   5.623   0.145  10.772 -0.1970  0.0331 -0.1871
 2028W        W 6228   7.899   6.415   3.287  0.1875  0.0632 -0.0214
 2029W        W 6229   4.223   8.877  11.647 -0.0023  0.0984 -0.2132
 2030W        W 6230   8.540   8.852  11.512 -0.1138  0.1184  0.0726
 2031W        W 6231   5.662   8.589   0.819 -0.0906 -0.1267  0.0933
 2032W        W 6232   9.520   6.602  11.194 -0.0283 -0.3281 -0.0793
 2033W        W 6233   4.545   3.675  11.073 -0.1399 -0.1546  0.1025
 2034W        W 6234   8.797   9.958  10.030  0.1280  0.4217 -0.1234
 2035W        W 6235   7.649   8.754  11.837 -0.2293  0.1576  0.1308
 2036W        W 6236   6.772   7.972   2.623  0.0261  0.2512  0.0237
 2037W        W 6237   9.394   6.795  13.234  0.2053 -0.2453  0.0256
 2038W        W 6238   3.544   4.641   9.561  0.0646 -0.0771  0.0994
 2039W        W 6239   6.064   3.171  12.193  0.1353  0.1478  0.1557
 2040W        W 6240   3.023   1.397   1.701 -0.0263  0.1705  0.0025
 2041W        W 6241   8.574   3.209  12.461  0.2589  0.2401 -0.0041
 2042W        W 6242   3.145   6.031  12.197  0.3543 -0.0020 -0.1168
 2043W        W 6243   3.935   7.533   2.449 -0.1925  0.2450 -0.0644
 2044W        W 6244   5.559   4.622   3.230 -0.0362  0.2033 -0.2719
 2045W        W 6245   0.621   7.107  10.158 -0.0734  0.0231 -0.0366
 2046W        W 6246   0.711   3.141  12.230  0.0210 -0.0688 -0.0659
 2047W        W 6247   7.361   9.562   9.842 -0.0189  0.2327  0.0929
 2048W        W 6248   0.953  10.161   0.010 -0.2122 -0.0601 -0.0707
 2049W        W 6249   7.338   9.187  11.180  0.3329  0.2397  0.0126
 2050W        W 6250   0.022   7.267  11.877  0.1297  0.1460  0.0435
 2051W        W 6251   5.733   3.519   0.533 -0.1459  0.0258  0.0920
 2052W        W 6252   4.264   1.393   9.476  0.0153 -0.0258  0.0686
 2053W        W 6253   9.181   9.844   3.178  0.0945  0.1495 -0.0943
 2054W        W 6254   6.643   2.993   2.774 -0.2466 -0.1780  0.0448
 2055W        W 6255   9.915   6.243   4.815 -0.0862 -0.2334 -0.0960
 2056W        W 6256   9.466   6.737   9.519  0.0336  0.0201  0.0978
 2057W        W 6257   9.693   4.765   9.855 -0.0174 -0.2827  0.2358
 2058W        W 6258   2.837   5.641   4.697 -0.0752  0.0278  0.0032
 2059W        W 6259   3.874   5.877   2.313 -0.1893 -0.0014 -0.0064
 2060W        W 6260   2.961   8.209  11.587  0.4202 -0.0870  0.4653
 2061W        W 6261   9.656   9.662   3.980  0.0901 -0.0453 -0.1122
 2062W        W 6262   0.497   9.126   2.887 -0.0841 -0.1485  0.0118
 2063W        W 6263   9.760   3.738   1.520 -0.0932  0.2632 -0.3481
 2064W        W 6264   0.046   0.723  10.341 -0.0979 -0.2849  0.3206
 2065W        W 6265   1.231   9.069  11.962  0.0532 -0.1641 -0.0066
 2066W        W 6266   5.189   4.008   5.153 -0.2879  0.1438  0.0238
 2067W        W 6267   2.799   4.725   0.015  0.0641  0.0446 -0.1507
 2068W        W 6268   3.148   9.773  12.816  0.1266 -0.0875  0.1787
 2069W        W 6269   8.211   7.630   3.533  0.1317  0.1360  0.2082
 2070W        W 6270   1.741   3.185   2.568  0.0098 -0.2202  0.1922
 2071W        W 6271   2.080   4.642   9.883  0.0916 -0.0242 -0.0539
 2072W        W 6272   0.343   6.875   8.810  0.1879 -0.2542 -0.0061
 2073W        W 6273   1.451   6.534   3.395  0.0623 -0.0286  0.0717
 2074W        W 6274   8.081   7.401   1.771  0.1182 -0.1261  0.0362
 2075W        W 6275   3.617   5.254   1.623 -0.3791 -0.0004 -0.0536
 2076W        W 6276   6.201   0.591  12.867 -0.2541  0.0658  0.0653
 2077W        W 6277   8.817   2.867  10.720  0.1007 -0.0365  0.0573
 2078W        W 6278   9.910   8.210  12.038  0.3955 -0.0168  0.1337
 2079W        W 6279   7.812   2.231   3.195  0.1371 -0.2018 -0.1699
 2080W        W 6280   0.043   9.079   2.529 -0.2237  0.2738  0.1384
 2081W        W 6281   2.859   0.775   3.124  0.2624  0.0867 -0.0444
 2082W        W 6282   4.044   4.339   9.086 -0.0235 -0.2030  0.3813
 2083W        W 6283   8.276   6.297   9.647  0.2511 -0.3535 -0.3969
 2084W        W 6284   8.630   7.422   3.352  0.2605  0.3394  0.0315
 2085W        W 6285   7.741   5.097   1.480  0.3644  0.2204  0.0937
 2086W        W 6286   6.229   3.668   0.801 -0.4184 -0.2460  0.1373
 2087W        W 6287   4.279   3.515   9.168 -0.4093 -0.1887 -0.1184
 2088W        W 6288   3.404   7.194   4.137  0.0704 -0.0328 -0.0334
 2089W        W 6289   5.655   7.542   9.038  0.1518 -0.0548 -0.1236
 2090W        W 6290   4.758   7.494   9.385 -0.1031 -0.0906 -0.0442
 2091W        W 6291   0.190   4.893   1.663 -0.3962  0.1377  0.1090
 2092W        W 6292  10.475   5.499  11.316 -0.2177  0.0950  0.3808
 2093W        W 6293   7.316   9.715  10.882 -0.1225  0.2120  0.3282
 2094W        W 6294   4.206   6.577  12.617 -0.0968  0.0274 -0.1092
 2095W        W 6295  10.105   9.987   2.522 -0.0114  0.1498  0.1853
 2096W        W 6296   2.493   2.592  13.067 -0.1830  0.2404 -0.2004
 2097W        W 6297   7.700   9.419   4.902  0.0085  0.0107  0.1785
 2098W        W 6298   6.867   6.293   3.355 -0.1072  0.1976  0.1343
 2099W        W 6299   6.919   9.480   3.545  0.2872 -0.2095 -0.2352
 2100W        W 6300   6.194   1.892   0.032 -0.1382 -0.0415  0.0066
 2101W        W 6301   6.897   0.481   0.040  0.1613  0.0456 -0.2300
 2102W        W 6302   3.569   5.817   5.516  0.0674  0.2341 -0.2467
 2103W        W 6303   7.739   7.927   2.230 -0.0844 -0.1788  0.0256
 2104W        W 6304   2.508   9.077   1.589  0.0857  0.0026 -0.1506
 2105W        W 6305   8.063   0.625   1.169  0.0692 -0.0962  0.1562
 2106W        W 6306   4.207   9.577   4.442  0.0816 -0.0749 -0.0230
 2107W        W 6307   8.341   5.980  12.320  0.3814 -0.3863  0.2863
 2108W        W 6308   0.342   4.740  11.635  0.2879 -0.1770  0.0052
 2109W        W 6309   8.261   2.138  12.382  0.1724  0.1488  0.2036
 2110W        W 6310   9.529   0.386  13.269 -0.3326  0.3653 -0.1893
 2111W        W 6311   3.915   2.311   2.089  0.2615 -0.1570 -0.0504
 2112W        W 6312   5.680   3.097  10.802  0.0739 -0.2200  0.0363
 2113W        W 6313   6.957   5.828   5.130 -0.0008 -0.0085 -0.0909
 2114W        W 6314   4.500   9.274  10.852 -0.1602  0.3694  0.0386
 2115W        W 6315   8.693   7.243  11.127  0.1502 -0.1033  0.2294
 2116W        W 6316   8.200   0.834   0.716 -0.0338 -0.0048  0.1270
 2117W        W 6317   8.775   6.516  10.321 -0.0238 -0.2103  0.2563
 2118W        W 6318   8.326   5.548  12.576  0.3307 -0.0656  0.0023
 2119W        W 6319   0.624   8.930   1.120 -0.1628  0.1494 -0.1457
 2120W        W 6320   6.208   0.673   0.524  0.0981 -0.1345  0.2647
 2121W        W 6321   1.062   9.407   3.029  0.0774  0.3673  0.0502
 2122W        W 6322   9.998   4.751   0.425 -0.1981 -0.2844 -0.0015
 2123W        W 6323   2.764   7.307  12.623  0.2224  0.2520  0.0349
 2124W        W 6324   7.922   3.557  11.044 -0.2266 -0.2599  0.1585
 2125W        W 6325   5.874   1.015   2.337  0.0462 -0.0437 -0.1087
 2126W        W 6326   6.398  10.282   4.053  0.0712 -0.4610  0.2601
 2127W        W 6327   4.882   7.867   1.521 -0.0844 -0.1053 -0.0477
 2128W        W 6328  10.017   8.855   3.590 -0.0000  0.2597 -0.2727
 2129W        W 6329   3.745   4.901  10.014 -0.0925 -0.1686  0.0738
 2130W        W 6330   8.972   5.485  11.241 -0.0459  0.1071 -0.1934
 2131W        W 6331   1.099   8.362  10.729 -0.1435  0.1124 -0.0022
 2132W        W 6332   2.055   9.195   3.822 -0.0718 -0.0442  0.0930
 2133W        W 6333   0.492   0.796  10.057 -0.0460  0.0754  0.0161
 2134W        W 6334  10.254   1.463  11.274  0.0398 -0.0430  0.0002
 2135W        W 6335   5.467   9.382   4.572  0.1030 -0.2757 -0.1806
 2136W        W 6336   5.924   3.665   2.432 -0.0652  0.0191  0.0472
 2137W        W 6337   2.547   5.125   3.099  0.0210  0.1042 -0.2655
 2138W        W 6338   2.264   1.636  10.026  0.2422 -0.0926  0.3114
 2139W        W 6339   3.961   9.115   9.542 -0.1423  0.1180  0.0155
 2140W        W 6340   3.641   9.893   3.709  0.0134  0.1121 -0.0417
 2141W        W 6341   1.252   9.704  11.412  0.0315 -0.0799 -0.3111
 2142W        W 6342   1.024   2.615   0.865 -0.3520  0.3542 -0.3130
 2143W        W 6343   9.585  10.488   3.725 -0.1196  0.0059 -0.0907
 2144W        W 6344   4.678   8.780   9.056 -0.1024  0.0584  0.3233
 2145W        W 6345   7.967   3.938  13.024  0.1039 -0.2222 -0.2504
 2146W        W 6346   4.060   1.948   4.517 -0.5304 -0.0312 -0.2754
 2147W        W 6347   7.266   9.317  13.087 -0.1438  0.0754 -0.1850
 2148W        W 6348   3.915   4.718   0.497  0.1031 -0.0200 -0.1206
 2149W        W 6349   5.411   6.880   2.363  0.0090 -0.1786 -0.1098
 2150W        W 6350   5.128   3.319   3.064  0.2068  0.0236 -0.1810
 2151W        W 6351  10.349   1.562  12.784  0.1421  0.0352  0.0611
 2152W        W 6352   4.577   1.632   9.820  0.0534  0.0552 -0.0019
 2153W        W 6353  10.056   5.508   9.358 -0.3094  0.1065  0.7151
 2154W        W 6354   3.687   2.727  13.287  0.1118 -0.0892 -0.1836
 2155W        W 6355   6.323   3.921   3.217  0.2633 -0.3014  0.1422
 2156W        W 6356   0.920   3.689  12.824  0.0318  0.5907  0.0117
 2157W        W 6357   6.574   4.065   3.640 -0.0003 -0.0710  0.2202
 2158W        W 6358   3.853   2.298  11.464 -0.1490 -0.1257 -0.0129
 2159W        W 6359   2.251   2.900  10.096  0.1472 -0.0975 -0.0504
 2160W        W 6360   2.722   8.842   3.273 -0.0161  0.3497  0.0268
 2161W        W 6361   5.737   5.405   0.767 -0.0197  0.1561  0.0010
 2162W        W 6362   9.400   5.879   4.000 -0.1324  0.3505 -0.2310
 2163W        W 6363   4.061   1.511   4.696 -0.1019  0.0693 -0.2916
 2164W        W 6364   4.409   1.975   0.921  0.3380  0.1731  0.0142
 2165W        W 6365   2.499   0.210   9.892 -0.1407  0.2263 -0.0314
 2166W        W 6366   9.962   2.619   1.146 -0.0890  0.0383 -0.0825
 2167W        W 6367   9.911   2.952  12.564 -0.2206  0.0595 -0.0791
 2168W        W 6368   5.277   7.529  12.992  0.2767 -0.1146  0.1288
 2169W        W 6369   5.093   8.555  10.446 -0.0601  0.1288 -0.2748
 2170W        W 6370   2.233   3.715  11.527 -0.1073 -0.1159  0.0471
 2171W        W 6371   2.159   9.000   0.357  0.0809  0.0139  0.1307
 2172W        W 6372   7.709   3.518  13.154  0.0602 -0.1132  0.0105
 2173W        W 6373   0.733   8.070   1.865 -0.2051  0.0066  0.1479
 2174W        W 6374   9.903   8.268   2.699  0.0375  0.0441 -0.0415
 2175W        W 6375   5.860   3.177   3.772 -0.0527 -0.0261 -0.2423
 2176W        W 6376   1.294   4.659  10.606 -0.0747  0.2997 -0.1864
 2177W        W 6377   3.598   8.963   3.818  0.0642  0.0864 -0.0594
 2178W        W 6378   1.462   0.938  11.349 -0.3560 -0.0663 -0.0388
 2179W        W 6379   4.396   1.382   2.258  0.1952  0.2514  0.2963
 2180W        W 6380   6.734   6.658  12.896 -0.1241  0.4254  0.0788
 2181W        W 6381   4.142   9.765  12.714 -0.1246 -0.2315 -0.0258
 2182W        W 6382   9.726  10.326   2.606 -0.1377 -0.0374  0.0577
 2183W        W 6383   2.325  10.033  10.754  0.2769 -0.0068 -0.0960
 2184W        W 6384   1.693   3.341   1.292 -0.1709  0.2009 -0.0397
 2185W        W 6385   2.276   7.760   0.239  0.1607  0.2056 -0.1280
 2186W        W 6386   3.417   1.455   2.599  0.5049  0.0731  0.0983
 2187W        W 6387   8.426   0.612   1.600 -0.1242  0.0885  0.0367
 2188W        W 6388   0.937   0.748   2.148  0.2565 -0.1960 -0.1158
 2189W        W 6389   6.292   2.318   2.087  0.2856  0.2407  0.0907
 2190W        W 6390   1.723   5.457   0.949 -0.0352  0.0597 -0.2640
 2191W        W 6391   9.452   7.978  12.035 -0.1120  0.1279  0.0920
 2192W        W 6392   3.584   9.680  11.946 -0.2809 -0.3725  0.0265
 2193W        W 6393   5.270   1.836   0.640  0.0809  0.2906 -0.1373
 2194W        W 6394   5.011   6.395   1.536  0.2208  0.0692  0.3661
 2195W        W 6395   3.348   1.695   9.627 -0.1235  0.2243  0.1692
 2196W        W 6396   5.054   3.797   4.114 -0.4662  0.1209  0.0854
 2197W        W 6397   1.586   8.602  10.787  0.0381 -0.1303  0.4654
 2198W        W 6398   9.678   9.520   3.396  0.1798 -0.2377  0.0829
 2199W        W 6399   2.649   1.408   3.705  0.4727  0.0272  0.2204
 2200W        W 6400   0.637   2.562   2.905 -0.3498  0.4715  0.0535
 2201W        W 6401   6.841   4.738   2.935 -0.0148  0.0142 -0.2027
 2202W        W 6402   3.371   9.120   1.550 -0.2261 -0.1383  0.1304
 2203W        W 6403   8.082   4.969   9.962  0.1225  0.3278 -0.5035
 2204W        W 6404   4.684   9.963   3.388  0.3032  0.1007  0.0182
 2205W        W 6405   1.196  10.378  12.311  0.0380 -0.1031  0.2965
 2206W        W 6406  10.109   7.851  11.620 -0.0946  0.1133 -0.0142
 2207W        W 6407   8.074   4.147   0.660 -0.3436  0.1655 -0.1102
 2208W        W 6408   2.537   8.224  12.034 -0.1041 -0.1090 -0.0788
 2209W        W 6409   6.219   5.783   0.903 -0.1172 -0.3691 -0.0797
 2210W        W 6410   2.009   7.176   9.107 -0.1652  0.0632 -0.1379
 2211W        W 6411   2.123   4.872   3.229 -0.0934 -0.1063 -0.4538
 2212W        W 6412   9.067   5.853   3.573 -0.2611  0.1556 -0.0045
 2213W        W 6413   8.426   0.430   3.610  0.0846  0.0678  0.1854
 2214W        W 6414   5.000   5.801   2.204 -0.2289 -0.0507  0.0393
 2215W        W 6415   0.249   5.674   1.976  0.1132  0.1328 -0.1498
 2216W        W 6416   2.328   7.924   3.640 -0.1543 -0.0873  0.0300
 2217W        W 6417   4.001   4.828   9.089 -0.0381  0.1723  0.0119
 2218W        W 6418   2.762   9.098  13.009 -0.0131  0.0152  0.3552
 2219W        W 6419   6.896   3.827   2.220  0.0334 -0.1314  0.3199
 2220W        W 6420   3.347  10.024   4.147  0.1462  0.0375  0.0953
 2221W        W 6421   1.528   6.919  10.467  0.1432 -0.0603  0.1148
 2222W        W 6422   4.564   6.224  12.432  0.1034 -0.0393  0.0155
 2223W        W 6423   8.571   3.898   3.609  0.0269  0.3604 -0.1618
 2224W        W 6424   1.601   8.595   2.213  0.2437 -0.0374  0.0171
 2225W        W 6425   0.773   3.870   2.011  0.0775  0.1278 -0.1839
 2226W        W 6426   6.289   3.655   9.265 -0.2406 -0.0864  0.1186
 2227W        W 6427   5.169   6.488   2.063  0.2385  0.0854  0.1275
 2228W        W 6428   4.409   8.116   0.231  0.0479 -0.1289  0.0057
 2229W        W 6429   1.180   7.043   8.758  0.0705  0.5147 -0.0179
 2230W        W 6430   4.339   0.796   0.494  0.2883 -0.7090 -0.1157
 2231W        W 6431   7.487   0.568   2.128  0.2387 -0.1758  0.3954
 2232W        W 6432   4.456   9.010   0.221 -0.1258  0.0800  0.3326
 2233W        W 6433   3.598   2.646   3.000  0.0645 -0.0138  0.2418
 2234W        W 6434   0.487   5.213   1.864 -0.3168 -0.0769  0.0936
 2235W        W 6435   7.425   4.902  11.749 -0.2748  0.2178  0.0339
 2236W        W 6436   2.274   7.370  11.642 -0.0062 -0.1240 -0.0349
 2237W        W 6437   5.319   9.106   0.684 -0.1757  0.2281 -0.1005
 2238W        W 6438   2.658   1.998   4.379  0.3422 -0.3044 -0.5972
 2239W        W 6439   2.554   1.109   2.949 -0.0751 -0.2049  0.0747
 2240W        W 6440   2.070   4.582   0.656  0.0157  0.0051  0.3929
 2241W        W 6441   5.072   6.047  11.527  0.1772 -0.3977  0.2779
 2242W        W 6442  10.452   6.067  10.899 -0.0121  0.1279  0.0542
 2243W        W 6443   2.769   1.597  13.304 -0.1138  0.2366 -0.0707
 2244W        W 6444   3.788   7.993   2.301  0.1459  0.0355 -0.1630
 2245W        W 6445   4.378   1.929   3.975 -0.0824 -0.1960 -0.4259
 2246W        W 6446   1.659   6.364   0.911  0.1947 -0.1767  0.1239
 2247W        W 6447   6.247   3.159   3.439  0.0650  0.4380 -0.0899
 2248W        W 6448   7.611   1.200  13.179  0.0527 -0.0945 -0.0675
 2249W        W 6449   1.624   7.379   1.770  0.2315  0.1197  0.0829
 2250W        W 6450   8.379   7.672   9.974  0.2367 -0.1004 -0.1173
 2251W        W 6451   4.708   9.160   0.770  0.0547 -0.2846 -0.0308
 2252W        W 6452   6.627   7.403   4.056  0.2223 -0.0355  0.2896
 2253W        W 6453  10.043   1.253   3.552 -0.0647  0.0791 -0.1633
 2254W        W 6454   7.824   5.889   1.917  0.0889  0.0092  0.1935
 2255W        W 6455   0.240   5.009  12.519  0.1240 -0.1540 -0.0885
 2256W        W 6456   1.239   6.711   2.361 -0.0342  0.2320 -0.2156
 2257W        W 6457   6.926   7.632  13.027  0.1220 -0.1413 -0.0540
 2258W        W 6458   8.728   7.921  11.996 -0.1371  0.0867  0.2241
 2259W        W 6459   8.463   1.201  10.460 -0.0899 -0.2570  0.2309
 2260W        W 6460   5.773   7.501   1.985 -0.2374  0.0396  0.1678
 2261W        W 6461   5.676   8.318   9.932  0.0361  0.0574 -0.2566
 2262W        W 6462   3.369   8.555  11.099 -0.1203 -0.0824 -0.0935
 2263W        W 6463   1.319  10.470   3.363  0.1235  0.2547 -0.6092
 2264W        W 6464   2.993   4.154   3.647  0.3238 -0.2262  0.1545
 2265W        W 6465   8.739   5.753   4.417  0.1468 -0.2542  0.1490
 2266W        W 6466   0.541   9.154  12.569 -0.0140  0.0858 -0.1643
 2267W        W 6467   1.844   5.061   9.321 -0.1902 -0.3137 -0.1312
 2268W        W 6468   5.247   8.405   2.872 -0.0015  0.2652 -0.0315
 2269W        W 6469   4.112   6.641   3.697 -0.1156  0.2556  0.2429
 2270W        W 6470   3.663   5.357   5.027  0.1487  0.2307  0.2761
 2271W        W 6471   5.655   4.845   1.172 -0.2437 -0.0614  0.2793
 2272W        W 6472   7.438   7.222  11.977 -0.0804  0.3363  0.0087
 2273W        W 6473   0.606   8.504   0.801 -0.0930  0.1971  0.2076
 2274W        W 6474   8.539   8.607   3.625  0.4151  0.0532  0.1805
 2275W        W 6475   7.150   1.197   1.072 -0.0673 -0.4114 -0.0338
 2276W        W 6476   7.205   3.267   0.740  0.3307  0.0838 -0.0625
 2277W        W 6477   7.897   8.423  13.070  0.1350 -0.1644 -0.2138
 2278W        W 6478   2.954   8.685  11.862  0.2858 -0.0753  0.3325
 2279W        W 6479   8.811  10.362  12.687 -0.0647  0.1379  0.4243
 2280W        W 6480   3.448   5.768   1.975 -0.1845 -0.1582 -0.1262
 2281W        W 6481   7.211   1.381  12.959 -0.1305 -0.2828 -0.4173
 2282W        W 6482   3.582   3.983  10.844  0.0499 -0.2298  0.0293
 2283W        W 6483   2.772   4.443   1.796  0.0611 -0.0054  0.1458
 2284W        W 6484   2.251   9.520  13.210  0.0608 -0.3593 -0.0554
 2285W        W 6485   4.779   8.175  10.662 -0.1806 -0.0699  0.0566
 2286W        W 6486   0.335   7.338   3.992  0.2019  0.0925  0.0413
 2287W        W 6487   5.850   0.728   1.362 -0.1353 -0.0651 -0.4537
 2288W        W 6488   4.203   9.351  11.853  0.0745 -0.0529 -0.3516
 2289W        W 6489   2.235   3.698   4.362 -0.1847 -0.0362 -0.0268
 2290W        W 6490   7.410   1.638  12.030  0.2209  0.0125  0.0614
 2291W        W 6491   1.050   1.441  10.035  0.0170 -0.0132 -0.2786
 2292W        W 6492   7.431   3.026   1.760 -0.0716  0.0081  0.0192
 2293W        W 6493   9.373   3.355   1.086 -0.1404  0.2530 -0.0610
 2294W        W 6494   3.793   9.359   1.924  0.1241 -0.0040  0.1011
 2295W        W 6495   0.507   2.547   0.573 -0.0039  0.0331  0.1199
 2296W        W 6496   8.317   8.698   9.989  0.0025  0.3770 -0.0132
 2297W        W 6497   4.472   8.081   1.216  0.1923 -0.2210  0.0334
 2298W        W 6498   7.721   0.350  11.346  0.0078 -0.0975  0.1580
 2299W        W 6499   0.392  10.442   3.671  0.1348  0.1153  0.2609
 2300W        W 6500   6.928   5.746  12.911 -0.1760  0.1762  0.0777
 2301W        W 6501   8.660   6.101   0.761  0.2215  0.0415  0.0858
 2302W        W 6502   2.245   7.877   3.171 -0.1698 -0.0224 -0.0879
 2303W        W 6503   8.279   7.788  12.761  0.1021 -0.0568 -0.0221
 2304W        W 6504   9.510   2.643  12.211 -0.1044 -0.1634  0.0902
 2305W        W 6505   2.977   8.633   9.178  0.0571  0.0284 -0.0798
 2306W        W 6506   8.973   7.445   9.696 -0.2046 -0.1960  0.1815
 2307W        W 6507   5.082   9.664   4.698  0.2572 -0.0090 -0.3730
 2308W        W 6508   3.282   5.721  11.822 -0.0786  0.1243 -0.2403
 2309W        W 6509   9.349   9.238  10.975  0.4204 -0.3127  0.0843
 2310W        W 6510   2.123   8.213   4.454  0.2354  0.2727  0.0290
 2311W        W 6511   3.641   1.157   3.966  0.0033 -0.3023 -0.0188
 2312W        W 6512   9.243   7.101   9.277  0.0027  0.0725 -0.0429
 2313W        W 6513   5.784   0.848   0.390  0.0501  0.1315  0.0447
 2314W        W 6514   5.387   1.788   1.281 -0.0033 -0.0354 -0.0052
 2315W        W 6515   7.557   8.415   3.854  0.1878  0.2327 -0.2805
 2316W        W 6516   4.593   0.083   1.811  0.1534 -0.4929  0.0949
 2317W        W 6517   9.275   8.063   4.519 -0.1165  0.0432  0.1439
 2318W        W 6518   5.746   7.135   1.371 -0.1546  0.1407 -0.1156
 2319W        W 6519   5.152   0.147  10.645  0.4264 -0.4394  0.2691
 2320W        W 6520   8.076   1.809  11.094 -0.1350 -0.2225 -0.0195
 2321W        W 6521   9.801   6.078   0.796 -0.3144 -0.1086 -0.0775
 2322W        W 6522   8.043   1.397   0.637 -0.2060  0.2105  0.1286
 2323W        W 6523   3.933   5.079   2.053 -0.0955  0.0160 -0.0259
 2324W        W 6524   1.584   6.071   1.316 -0.1625  0.2301  0.1690
 2325W        W 6525   6.159   9.465   0.571  0.0893 -0.0685 -0.2491
 2326W        W 6526   5.560   0.140   0.003 -0.0051 -0.0837 -0.0824
 2327W        W 6527   4.801   1.876   3.564 -0.0406 -0.2293 -0.1637
 2328W        W 6528   6.399   9.140  12.979 -0.0083  0.1584  0.0909
 2329W        W 6529   5.258   2.568  11.463  0.2176  0.2501  0.1004
 2330W        W 6530   8.333   9.403   4.175 -0.0030 -0.0772  0.1609
 2331W        W 6531   0.447   9.663   0.237  0.0854 -0.0708 -0.1649
 2332W        W 6532   1.164   7.132   2.643  0.0131 -0.1397  0.2183
 2333W        W 6533   9.243   0.060   0.987 -0.0352 -0.1091 -0.0792
 2334W        W 6534   0.442   4.853   2.170  0.0685  0.0448  0.1290
 2335W        W 6535   3.835   5.315   3.360 -0.2497  0.0211 -0.2220
 2336W        W 6536   8.400   4.840   3.105  0.0711 -0.0547  0.2862
 2337W        W 6537   4.903   0.842   1.311  0.3630 -0.0630 -0.0696
 2338W        W 6538   3.876   5.943   9.278 -0.0781  0.2144 -0.1175
 2339W        W 6539   3.755   1.940   1.607  0.0294  0.5431  0.1602
 2340W        W 6540   5.912   1.250   4.438 -0.0012 -0.0693  0.1084
 2341W        W 6541   3.716   6.020  12.121 -0.2674  0.1797 -0.1057
 2342W        W 6542   3.587   0.540  10.459  0.1789 -0.1977  0.1533
 2343W        W 6543   7.266   3.745  11.811  0.0013 -0.0303  0.2519
 2344W        W 6544   6.721   9.438  13.241 -0.1219  0.0649  0.0502
 2345W        W 6545   4.239   6.449  11.600 -0.2430  0.1257 -0.1392
 2346W        W 6546   6.169   0.677  11.549 -0.1889 -0.0013 -0.1043
 2347W        W 6547   9.417   5.454  11.519 -0.1385  0.0536 -0.1688
 2348W        W 6548   1.165   9.381   9.779 -0.0632  0.2514  0.0737
 2349W        W 6549   4.551   8.312   2.672  0.0646 -0.0521 -0.2436
 2350W        W 6550   3.828   6.444   2.396  0.0349 -0.0047  0.1836
 2351W        W 6551   6.160   0.856   9.841  0.3449  0.0582 -0.2696
 2352W        W 6552   7.560   3.123  10.403  0.1217 -0.0121 -0.2442
 2353W        W 6553   2.204   3.863   9.869 -0.2549 -0.1001 -0.1015
 2354W        W 6554   3.477   7.774   3.148  0.0558 -0.0277 -0.2977
 2355W        W 6555   8.908   5.081   0.973  0.1455  0.1068 -0.1456
 2356W        W 6556   5.837   7.775  13.382 -0.1958 -0.0224 -0.3111
 2357W        W 6557   9.064   4.951  10.392 -0.1731  0.0230  0.0121
 2358W        W 6558   5.913   5.478   2.087  0.3847  0.2807  0.2932
 2359W        W 6559   3.454  10.313  10.071  0.1166 -0.2756 -0.1135
 2360W        W 6560   0.948   2.799   9.882 -0.0411  0.1566 -0.1478
 2361W        W 6561   4.413   9.997   9.483 -0.2992 -0.1508 -0.2630
 2362W        W 6562   6.984   7.000   4.042 -0.0669 -0.3365 -0.1874
 2363W        W 6563   8.992   6.790   0.668 -0.1381 -0.1434  0.0475
 2364W        W 6564   9.824   0.625  11.989  0.3907  0.0278  0.2358
 2365W        W 6565   6.340   6.661   9.523  0.0623 -0.0808 -0.0675
 2366W        W 6566   1.141   9.080  11.449 -0.2241  0.2227  0.1913
 2367W        W 6567   1.831   4.826   4.060  0.1268  0.1807  0.0113
 2368W        W 6568   4.147   5.816   2.740  0.1145  0.2217 -0.1517
 2369W        W 6569   7.542   7.579   1.803 -0.1170 -0.2078  0.1610
 2370W        W 6570   2.268   1.162  10.868  0.1298  0.1584  0.1687
 2371W        W 6571   7.991   1.593  12.253 -0.3124  0.0518  0.1952
 2372W        W 6572   0.347   4.439   1.871  0.1612 -0.2364 -0.0155
 2373W        W 6573   4.810   7.409   3.723  0.0624  0.0236 -0.0391
 2374W        W 6574   7.168   2.828  12.336  0.0160  0.1266 -0.2132
 2375W        W 6575   3.189   6.788   2.541 -0.0504 -0.1507 -0.1160
 2376W        W 6576   4.206   9.890   1.493  0.0677 -0.1912  0.5270
 2377W        W 6577   3.726   4.951  12.187  0.0550  0.1790  0.0379
 2378W        W 6578   5.938   8.310  12.184 -0.0016  0.1998 -0.2577
 2379W        W 6579   5.918   9.434   3.697 -0.2031  0.1263 -0.0658
 2380W        W 6580   8.101   2.779   0.699 -0.0181 -0.1846  0.1099
 2381W        W 6581   8.872   4.094  12.968 -0.2134  0.3505  0.1765
 2382W        W 6582   2.554   5.697   3.711 -0.1130 -0.1100 -0.1933
 2383W        W 6583  10.128   2.125  11.993 -0.3168 -0.1551  0.3058
 2384W        W 6584   0.543   7.782   4.217 -0.0447 -0.2431 -0.0934
 2385W        W 6585   5.157   6.923   0.178  0.4209  0.0112 -0.0034
 2386W        W 6586   1.389   0.165   5.162  0.0889 -0.0023 -0.0479
 2387W        W 6587   3.080   4.239   0.828 -0.0530  0.0652 -0.0838
 2388W        W 6588   9.020   0.344  10.652 -0.0717  0.2115  0.0382
 2389W        W 6589   9.869   0.759  11.520 -0.3267 -0.0830  0.1693
 2390W        W 6590   6.494   5.007   1.979 -0.1126  0.2552 -0.0428
 2391W        W 6591   9.646   6.635  10.025  0.0151  0.1435 -0.0675
 2392W        W 6592   9.568   9.152   1.571  0.2232  0.1965 -0.1193
 2393W        W 6593   7.124  10.380   3.263 -0.2107  0.1726 -0.1799
 2394W        W 6594   2.919   8.166  10.436  0.2107 -0.0315 -0.2819
 2395W        W 6595   6.756   9.049   3.815 -0.2928  0.0041 -0.1640
 2396W        W 6596   3.236   3.371   3.366 -0.1367  0.2060  0.2170
 2397W        W 6597   4.912   6.996   9.273 -0.0874  0.1785 -0.0398
 2398W        W 6598   3.774   1.694   8.678 -0.2583 -0.1302  0.3137
 2399W        W 6599   2.749   6.840   2.342 -0.2316 -0.1022 -0.0052
 2400W        W 6600   2.191   3.989   3.525  0.2830  0.0670  0.1782
 2401W        W 6601   0.059   8.817  12.391 -0.0326 -0.3913  0.0483
 2402W        W 6602   3.990   4.125   0.343 -0.1848 -0.2311  0.3399
 2403W        W 6603   8.298   2.045   1.110  0.1730 -0.0377 -0.1794
 2404W        W 6604   6.505   3.842   1.299  0.0667  0.0075 -0.2890
 2405W        W 6605   1.636   2.349  11.793  0.1115  0.2081 -0.0087
 2406W        W 6606   8.803   7.738   8.996  0.0522  0.0696 -0.0668
 2407W        W 6607  10.403   8.880   0.253  0.1004 -0.1314 -0.3373
 2408W        W 6608   1.006   7.529   8.531 -0.1434 -0.0359 -0.0968
 2409W        W 6609   0.647   6.480   2.525 -0.3677  0.0424 -0.0654
 2410W        W 6610   9.195   4.568  10.783 -0.0139 -0.0064  0.0923
 2411W        W 6611  10.001   5.852   9.710  0.3683 -0.0465  0.0049
 2412W        W 6612   1.371   3.095   3.806 -0.2989 -0.0025 -0.0291
 2413W        W 6613   9.394   0.759   3.528  0.0614 -0.2091 -0.0183
 2414W        W 6614   3.893  10.245  12.962  0.2418 -0.1228 -0.0654
 2415W        W 6615   3.930   0.430   2.246 -0.1269 -0.0422  0.0524
 2416W        W 6616   6.192   7.618   3.853 -0.0605  0.0526 -0.0117
 2417W        W 6617   8.367   5.929   4.021  0.3112  0.2626  0.0194
 2418W        W 6618   8.361   4.973  12.722  0.2145 -0.2709 -0.0070
 2419W        W 6619   1.996   3.459  13.366  0.1174 -0.0587 -0.0757
 2420W        W 6620   1.832   7.654  11.807 -0.3440 -0.1621 -0.1033
 2421W        W 6621   0.142   2.532  13.349  0.0820  0.3670  0.0163
 2422W        W 6622   2.129   7.813  12.169 -0.1394  0.0309  0.0779
 2423W        W 6623   3.598   1.595  11.359 -0.3331  0.0126 -0.1132
 2424W        W 6624   1.135   9.849  12.607  0.1918 -0.1023  0.0512
 2425W        W 6625   6.158  10.479   2.184  0.0180 -0.2454 -0.0476
 2426W        W 6626   9.906   7.508  10.357 -0.0475  0.1587  0.2229
 2427W        W 6627   2.001   5.225   1.467 -0.1051  0.4053  0.2607
 2428W        W 6628   3.897   3.399   1.299 -0.0449  0.1806 -0.1464
 2429W        W 6629   3.453   4.337  11.642 -0.1341  0.4478  0.2971
 2430W        W 6630  10.463   6.164   9.844 -0.0306 -0.0595  0.1009
 2431W        W 6631  10.431   6.631  13.155  0.2143 -0.3828 -0.3783
 2432W        W 6632   3.701   6.668   0.398 -0.0030 -0.0765 -0.1252
 2433W        W 6633   4.758   2.699   8.523  0.0886  0.0595  0.0096
 2434W        W 6634   2.709   2.245  11.216 -0.2956  0.5003 -0.3223
 2435W        W 6635   6.378   8.840  10.137  0.2435  0.0926  0.0167
 2436W        W 6636   2.620  10.181   4.843 -0.1303 -0.0147 -0.2593
 2437W        W 6637   2.025   7.097   4.231 -0.1863  0.1176  0.1076
 2438W        W 6638   7.152   9.260  11.716  0.0883 -0.0392 -0.1382
 2439W        W 6639   0.431   2.301  11.634  0.0584  0.3302  0.1855
 2440W        W 6640   1.493   0.828   0.454 -0.2167 -0.0626 -0.0111
 2441W        W 6641   3.050   3.265   0.626  0.2059 -0.0225 -0.1589
 2442W        W 6642   2.911   8.390   4.476 -0.3155  0.2790  0.2489
 2443W        W 6643   7.224   3.475   9.078 -0.0900 -0.1068  0.1220
 2444W        W 6644   0.489   6.617   3.636  0.0414  0.0150  0.1337
 2445W        W 6645   6.925   1.963  10.312  0.1527 -0.2440  0.1053
 2446W        W 6646   4.390   0.140   2.338  0.3490  0.1177  0.1601
 2447W        W 6647   9.804   9.034  11.631  0.1811  0.0358 -0.3040
 2448W        W 6648   4.214   5.193  10.893  0.3553  0.0938 -0.0048
 2449W        W 6649   6.941   6.067   0.648  0.1925 -0.0852 -0.0785
 2450W        W 6650   9.107  10.052   1.178 -0.2427 -0.2952  0.0522
 2451W        W 6651   1.511   4.606  12.637  0.0355  0.0925  0.0068
 2452W        W 6652   4.959   2.303   9.804  0.0245 -0.0807  0.0379
 2453W        W 6653   8.048   1.635  10.466 -0.0392  0.0250  0.1177
 2454W        W 6654   6.504   9.921   0.971  0.1983  0.1563  0.2749
 2455W        W 6655   2.992   7.331   0.567 -0.0201 -0.0885  0.1210
 2456W        W 6656   1.243   0.140  10.232 -0.0082  0.0122 -0.1680
 2457W        W 6657   3.301   8.981   3.318  0.4612  0.1782 -0.1430
 2458W        W 6658   4.111   9.146  11.246  0.0537  0.0160  0.2551
 2459W        W 6659   5.648   4.499   0.671 -0.2316 -0.0113 -0.2133
 2460W        W 6660   7.042   2.880   2.250 -0.0028  0.0168 -0.1929
 2461W        W 6661   2.481   4.724   0.395  0.1396 -0.1244  0.2990
 2462W        W 6662   1.856   9.675   3.848  0.2923  0.0800  0.0243
 2463W        W 6663   0.148   0.331  12.778  0.0923  0.0107 -0.2244
 2464W        W 6664   3.693   0.795   1.892 -0.1175 -0.1893 -0.0492
 2465W        W 6665   4.681   8.556   1.833 -0.2594  0.0420  0.1636
 2466W        W 6666   9.715   5.522  12.526 -0.0733 -0.3633 -0.0100
 2467W        W 6667   5.146   3.001   1.975  0.0275 -0.3481 -0.1072
 2468W        W 6668   2.268   8.221   2.406 -0.1345  0.1423  0.1168
 2469W        W 6669   8.473   2.962  13.227  0.1367  0.0155  0.2429
 2470W        W 6670   3.843   4.028  11.492 -0.1050 -0.0490 -0.4413
 2471W        W 6671   0.954   8.295  12.150 -0.0610  0.0499  0.2699
 2472W        W 6672   2.839   4.043   3.166  0.2363 -0.0217 -0.0782
 2473W        W 6673   4.506   3.573   0.860 -0.0547 -0.2703  0.2056
 2474W        W 6674   4.546   6.369   9.799  0.2234 -0.1287  0.0986
 2475W        W 6675   2.816   2.992   5.217 -0.1573  0.0994  0.4261
 2476W        W 6676   2.856   6.183  10.533 -0.2136  0.1306  0.1898
 2477W        W 6677   1.380   5.695  11.065 -0.0527 -0.0330  0.0381
 2478W        W 6678  10.255   6.567  11.374 -0.3489  0.1889  0.0659
 2479W        W 6679   9.946   8.573  13.271  0.2706 -0.0318 -0.2442
 2480W        W 6680   9.989   5.894  12.144 -0.4758  0.1934 -0.3262
 2481W        W 6681  10.060   6.480   1.874 -0.2431 -0.2270 -0.1645
 2482W        W 6682   0.652   9.572  12.815  0.0975  0.0320 -0.0670
 2483W        W 6683   3.326   4.805  12.461 -0.1368  0.0827  0.1364
 2484W        W 6684   2.809   3.249   2.232 -0.2142 -0.0350 -0.0855
 2485W        W 6685  10.355   4.473  11.547  0.0163 -0.1193 -0.1526
 2486W        W 6686   8.777   2.228   2.659  0.0710 -0.2664 -0.2233
 2487W        W 6687   9.898   7.199  12.148  0.3964  0.4044  0.1303
 2488W        W 6688   7.697   4.085  10.358  0.2602 -0.0445 -0.0090
 2489W        W 6689   5.373   6.287   9.349  0.2931  0.2425 -0.2244
 2490W        W 6690   1.257   2.017  11.554 -0.1475 -0.0136 -0.3741
 2491W        W 6691   5.840   6.199   3.353 -0.0357  0.2206 -0.0825
 2492W        W 6692   0.382   5.882   8.613 -0.0782 -0.3026  0.0170
 2493W        W 6693  10.299   0.587   2.544  0.1036  0.3352  0.0579
 2494W        W 6694   8.233   2.435   3.372  0.1873  0.1044  0.1716
 2495W        W 6695   2.807   3.448  12.944 -0.0852  0.0966  0.2882
 2496W        W 6696   7.217   6.884   4.610  0.2047  0.2675 -0.1415
 2497W        W 6697   9.264  10.365  12.418 -0.5128  0.0092 -0.1771
 2498W        W 6698   2.358   1.240   9.121 -0.0861  0.1341 -0.1925
 2499W        W 6699   0.791   6.535   4.554 -0.0925 -0.0201 -0.0188
 2500W        W 6700   6.171   9.832  12.364 -0.2604 -0.0009 -0.0200
 2501W        W 6701   0.420   1.075   1.306  0.0549 -0.3003 -0.0072
 2502W        W 6702   5.918   8.807   9.859  0.2263  0.2203  0.1451
 2503W        W 6703   0.801   6.737   0.316 -0.2735  0.0054 -0.0328
 2504W        W 6704   5.285   4.553   1.141  0.2478  0.0858  0.1194
 2505W        W 6705   0.095   1.610   4.732  0.0675 -0.0342 -0.2235
 2506W        W 6706   9.823   3.114   4.036  0.1179 -0.0989 -0.2522
 2507W        W 6707   2.207   2.091  10.297  0.0503  0.1593 -0.3802
 2508W        W 6708   5.980   6.149   1.619 -0.0424 -0.1421  0.0342
 2509W        W 6709   1.557   0.477   9.528 -0.1662  0.0914  0.3142
 2510W        W 6710   6.298   4.208   9.473 -0.1062 -0.1281 -0.2167
 2511W        W 6711   0.821   0.016   3.483 -0.1201  0.5617  0.0344
 2512W        W 6712   6.122   3.621   9.829 -0.0557  0.1373 -0.0429
 2513W        W 6713   6.232   0.217   0.377 -0.2312  0.2291  0.1611
 2514W        W 6714   7.133   5.884  12.332  0.1642 -0.0428  0.0742
 2515W        W 6715   8.347   0.580   9.549 -0.1832 -0.0592 -0.0097
 2516W        W 6716   3.137   8.724  12.499 -0.1349  0.0337 -0.0685
 2517W        W 6717   0.617   7.208  11.287  0.1635 -0.2838  0.1067
 2518W        W 6718   7.203   2.648   3.394  0.0808  0.1134 -0.1372
 2519W        W 6719   2.248   0.879   1.640  0.0749 -0.1933  0.1210
 2520W        W 6720   9.576   7.114   2.501  0.0833 -0.0968 -0.3358
 2521W        W 6721   1.627   8.663   9.101 -0.0410  0.0538 -0.1219
 2522W        W 6722   7.360   8.400  12.314 -0.3840 -0.2204 -0.2376
 2523W        W 6723   6.426   9.550   5.380  0.1410  0.1497 -0.1522
 2524W        W 6724   9.367   3.910   9.357 -0.0787 -0.0834  0.1356
 2525W        W 6725   0.712   2.661  11.477  0.1704 -0.2502  0.1628
 2526W        W 6726   8.258   2.797   0.212 -0.1832  0.1926 -0.2734
 2527W        W 6727   9.756   2.030   2.299  0.1154 -0.0228 -0.4500
 2528W        W 6728   3.469  10.383   0.358  0.0302 -0.1236  0.0558
 2529W        W 6729   1.147   8.121   3.036  0.1266  0.0106 -0.0297
 2530W        W 6730   3.253   6.556   0.295  0.2709  0.0630 -0.1373
 2531W        W 6731   3.387   7.563   2.718  0.1212  0.2341 -0.0045
 2532W        W 6732   5.978   7.712  10.790 -0.4886 -0.2088 -0.2043
 2533W        W 6733   1.204   8.005   1.009  0.1576  0.0753  0.0538
 2534W        W 6734   3.854   8.125  13.326 -0.1878 -0.2037  0.2746
 2535W        W 6735   0.280   1.980   4.422  0.1892  0.0234  0.0047
 2536W        W 6736   5.192   0.365   2.645  0.0658  0.0913 -0.0951
 2537W        W 6737   2.594   8.517   2.654 -0.0229  0.2723 -0.0523
 2538W        W 6738   6.286   2.765   2.389  0.0325 -0.2092 -0.1127
 2539W        W 6739   1.047   9.758   0.936 -0.2676 -0.1263  0.2422
 2540W        W 6740   5.487   9.949   1.218 -0.1744 -0.1134  0.3010
 2541W        W 6741   8.306   7.712  12.255  0.1717 -0.0404  0.0993
 2542W        W 6742   3.908   6.779  10.386 -0.0059 -0.0453 -0.0139
 2543W        W 6743   1.166   0.155   0.981  0.2638  0.2570 -0.3447
 2544W        W 6744   4.265   4.288   2.176 -0.1296  0.0386 -0.1514
 2545W        W 6745   1.313   3.430  11.356  0.0836  0.1913  0.0250
 2546W        W 6746   7.586   8.143   0.083  0.0937  0.1663 -0.0846
 2547W        W 6747  10.211   1.043  12.992  0.3848 -0.1628 -0.1819
 2548W        W 6748   5.106   5.525   1.700  0.4504 -0.0970 -0.0385
 2549W        W 6749   3.814   2.525   8.578 -0.1833  0.1548  0.1760
 2550W        W 6750   8.865   7.079   2.485 -0.2449 -0.0429  0.0670
 2551W        W 6751   8.437   0.260   1.223 -0.0869  0.3667  0.0990
 2552W        W 6752   8.921   7.840   2.129 -0.2601 -0.0143  0.1855
 2553W        W 6753   6.540   7.068  12.551  0.1548  0.1270  0.4379
 2554W        W 6754   5.088   5.487  12.567 -0.2483 -0.0038  0.0888
 2555W        W 6755   0.596   8.253   2.748  0.0989 -0.0538  0.1772
 2556W        W 6756   6.176   9.870  11.186  0.3536 -0.3604 -0.2270
 2557W        W 6757   3.544   1.903  10.885  0.1091  0.0962 -0.0494
 2558W        W 6758   4.154   1.090   3.834 -0.1313  0.3090 -0.0121
 2559W        W 6759  10.339   4.893   1.332 -0.0639  0.0226 -0.1495
 2560W        W 6760   3.290   6.834  12.542 -0.1111  0.1973 -0.0052
 2561W        W 6761   2.578   1.432   2.560 -0.1762 -0.0335 -0.0746
 2562W        W 6762   4.964   6.122  12.699  0.0151 -0.4951 -0.0436
 2563W        W 6763   3.533   2.597   3.511  0.1480  0.1607  0.4183
 2564W        W 6764   0.545   9.506   1.567  0.1768 -0.1980 -0.0807
 2565W        W 6765   6.397   4.583   4.725  0.0735  0.1419  0.1875
 2566W        W 6766   7.953   5.561   0.195  0.0304 -0.1697  0.0952
 2567W        W 6767   0.391   8.553   9.952 -0.3064 -0.3822 -0.0210
 2568W        W 6768   1.658   8.795  11.334  0.0923 -0.0297 -0.1578
 2569W        W 6769   0.329   9.502  11.027  0.2471  0.0121  0.0571
 2570W        W 6770   5.295   0.655  12.626  0.0277  0.3651 -0.0633
 2571W        W 6771   8.364   8.568   9.395 -0.0248  0.7123  0.3056
 2572W        W 6772   8.636   2.006  12.777  0.3694 -0.4646 -0.0269
 2573W        W 6773   4.261   4.765   1.790  0.1799 -0.0526 -0.0509
 2574W        W 6774   1.867  10.306  11.003  0.2477  0.1725 -0.0782
 2575W        W 6775   6.009  10.174  12.664  0.0762  0.0886  0.2328
 2576W        W 6776   4.986   1.003   9.522  0.2492  0.1944 -0.0439
 2577W        W 6777   4.017   6.228  10.108  0.0843  0.0122  0.5001
 2578W        W 6778   3.086   0.036  11.804 -0.0214 -0.0290  0.0987
 2579W        W 6779   5.693   7.685  10.014 -0.3782  0.1544  0.2201
 2580W        W 6780   5.328   6.647   0.573 -0.2471  0.2736  0.1993
 2581W        W 6781   3.087   6.540   2.093 -0.3888 -0.1415  0.2888
 2582W        W 6782   5.143   9.099   9.657 -0.5469 -0.2640 -0.2023
 2583W        W 6783   1.092   2.585   3.097 -0.2040  0.0846  0.2209
 2584W        W 6784   1.259   5.260  10.706 -0.1030  0.2050 -0.1965
 2585W        W 6785   0.827   0.596   2.633  0.1384 -0.1222  0.4225
 2586W        W 6786   3.836  10.357   9.642 -0.0221 -0.2127  0.1793
 2587W        W 6787   5.331   8.314  13.059 -0.1425  0.4186  0.0500
 2588W        W 6788   5.524   9.839   2.816  0.0789 -0.2249  0.0782
 2589W        W 6789   1.607   7.544  13.383  0.0213  0.2978  0.0113
 2590W        W 6790   6.577   0.573   9.858 -0.0162  0.1290 -0.1231
 2591W        W 6791   2.344   8.802   2.263  0.0575 -0.0683  0.3477
 2592W        W 6792   3.656   0.192  12.906  0.1373 -0.3410 -0.4735
 2593W        W 6793   9.822   3.100   3.536  0.1252  0.1028  0.1113
 2594W        W 6794   9.103   6.296   0.446  0.1584 -0.0797 -0.3705
 2595W        W 6795   1.549   7.007  11.148 -0.1202 -0.0550  0.0816
 2596W        W 6796   2.169   7.110   9.589 -0.0600 -0.3384  0.4120
 2597W        W 6797   9.316   6.466   1.402  0.0085 -0.1627  0.0474
 2598W        W 6798   6.535   3.836   4.071 -0.1577  0.2198  0.1393
 2599W        W 6799   1.088   6.653   2.839  0.0521 -0.0758  0.0282
 2600W        W 6800   5.746   6.777   4.556 -0.2689  0.1482 -0.2553
 2601W        W 6801   1.919   7.066  12.583  0.2233 -0.3124  0.1126
 2602W        W 6802   3.945   3.197   2.153  0.1295 -0.3242  0.0221
 2603W        W 6803   3.819   1.819   2.232  0.4198  0.1944 -0.1598
 2604W        W 6804   8.073   3.244  10.231  0.1020 -0.0396  0.3137
 2605W        W 6805   6.271   0.278  10.304 -0.0665 -0.0229  0.2636
 2606W        W 6806   6.667   5.764   3.233 -0.1141 -0.2299 -0.0338
 2607W        W 6807   4.152   2.703   3.137  0.2420  0.1305 -0.0287
 2608W        W 6808   4.655   0.915   3.908 -0.2160  0.0711 -0.1319
 2609W        W 6809   1.499  10.480  10.648 -0.1384 -0.1354 -0.1508
 2610W        W 6810   5.571   3.826  12.255 -0.1832  0.0540 -0.1026
 2611W        W 6811   4.015   7.826  12.415  0.4204 -0.1206  0.0699
 2612W        W 6812   6.198   3.598   0.275  0.0118 -0.2051  0.1719
 2613W        W 6813   0.998   4.073  11.942 -0.1925 -0.1675  0.1715
 2614W        W 6814   5.040   4.560   8.871 -0.0749 -0.0971  0.0854
 2615W        W 6815   8.864   9.592   1.947 -0.0029  0.1459 -0.2748
 2616W        W 6816   2.085   4.157  11.836 -0.1858 -0.1424  0.2232
 2617W        W 6817   0.655   3.894  10.664  0.3138 -0.1306 -0.0117
 2618W        W 6818   8.293   9.046  12.443  0.3230  0.1395 -0.2156
 2619W        W 6819   1.794   6.944   9.990 -0.4831  0.1220  0.4590
 2620W        W 6820   2.284   3.849   5.335  0.1023  0.0568  0.0420
 2621W        W 6821   5.968   8.555   3.245 -0.1542  0.1362 -0.3747
 2622W        W 6822   2.715   5.308  13.095  0.0829 -0.0691  0.0510
 2623W        W 6823   1.745   0.009   0.311 -0.1959  0.1044 -0.2743
 2624W        W 6824   8.691   9.390   3.711 -0.0816  0.1769  0.2106
 2625W        W 6825   0.056   9.596   3.892  0.1482 -0.1189  0.1567
 2626W        W 6826   1.121   8.146   9.401  0.1199 -0.0272 -0.0925
 2627W        W 6827   3.421   6.929  10.192  0.1113  0.2750  0.0693
 2628W        W 6828   8.255   9.299   1.448 -0.0562 -0.1622  0.0929
 2629W        W 6829   9.487   8.316   9.404 -0.0564 -0.1381  0.0180
 2630W        W 6830  10.296  10.232   3.043 -0.0144 -0.2738  0.2628
 2631W        W 6831   2.525   3.849  11.938  0.0040  0.0447 -0.4288
 2632W        W 6832   7.010   6.195   9.523  0.1452  0.2276 -0.1514
 2633W        W 6833   0.269   8.632   8.910  0.2916  0.3264 -0.2389
 2634W        W 6834   5.448   7.638   3.030 -0.1908  0.1383  0.0994
 2635W        W 6835   6.109   2.875  11.078 -0.0624 -0.1189  0.0186
 2636W        W 6836   6.014   5.458   5.514  0.0183 -0.1897  0.0151
 2637W        W 6837   5.831   5.824  11.213 -0.4113 -0.1382  0.0128
 2638W        W 6838   5.767   6.769  11.315 -0.1854  0.1282 -0.2860
 2639W        W 6839   4.367   5.750  13.389 -0.0748 -0.0244  0.2332
 2640W        W 6840   3.618   8.774   2.815 -0.4509 -0.2551 -0.0805
 2641W        W 6841   9.363   2.122  10.479 -0.3087 -0.1121 -0.4019
 2642W        W 6842   6.991   5.372   3.760  0.0192 -0.3658  0.2011
 2643W        W 6843   9.291   1.381  11.497 -0.0524  0.1950  0.0015
 2644W        W 6844   4.103   8.459  11.368  0.0468  0.0396 -0.0385
 2645W        W 6845   3.125   5.456   9.445 -0.3088 -0.2343  0.2912
 2646W        W 6846   6.785   1.630  11.160 -0.0010 -0.0708  0.0427
 2647W        W 6847   6.491   7.235  10.211  0.0415 -0.0212  0.0407
 2648W        W 6848   9.723   8.193   0.360 -0.0853  0.0377  0.0174
 2649W        W 6849   2.846   2.037   9.552  0.0124 -0.3689 -0.1387
 2650W        W 6850   7.311   8.123   2.446 -0.2919 -0.4899  0.0888
 2651W        W 6851   5.396   1.514  13.049  0.1829 -0.0740 -0.0217
 2652W        W 6852   9.633   2.300   1.829  0.2307  0.1902 -0.1195
 2653W        W 6853   5.300   5.201  11.647 -0.0992  0.1057 -0.2087
 2654W        W 6854   9.157   7.393   8.328 -0.1273 -0.0057  0.2967
 2655W        W 6855   7.562  10.477   9.609  0.0341  0.0146 -0.0586
 2656W        W 6856   1.513   9.547   4.338  0.1949  0.0404  0.1055
 2657W        W 6857   3.067   5.657  12.532 -0.2819  0.0120 -0.3144
 2658W        W 6858   3.457   2.363  13.091  0.0895  0.0131  0.0252
 2659W        W 6859   8.144   1.871   3.293 -0.1884 -0.1721 -0.1252
 2660W        W 6860   1.373   4.913  11.079 -0.0108 -0.1361  0.0470
 2661W        W 6861   7.874  10.418  12.112  0.1485 -0.1422  0.0998
 2662W        W 6862   5.641   5.838  12.291 -0.1911 -0.0596 -0.0209
 2663W        W 6863   8.061   3.780   0.102 -0.1488 -0.2787  0.0350
 2664W        W 6864   9.351   5.151   4.140  0.0128  0.1219  0.0597
 2665W        W 6865   9.210   5.838  12.920 -0.0716 -0.0412 -0.1157
 2666W        W 6866   9.479   2.780  11.121 -0.1914 -0.0572  0.3523
 2667W        W 6867   6.029  10.220   3.672  0.0873 -0.0748  0.3033
 2668W        W 6868   5.489   3.809   2.545 -0.1115  0.1454 -0.0223
 2669W        W 6869   6.745   3.837  10.284 -0.0149  0.1206 -0.0313
 2670W        W 6870   7.958   5.306   0.929 -0.1284 -0.2305  0.0713
 2671W        W 6871   6.074   5.128   0.330  0.0072  0.1976  0.2134
 2672W        W 6872   7.589   8.469   0.474 -0.0815 -0.2020  0.2960
 2673W        W 6873   4.955   9.633  10.551  0.0046  0.1602  0.1701
 2674W        W 6874   5.832   3.753  13.361  0.2109  0.0901 -0.0183
 2675W        W 6875   9.752   4.991   4.432  0.0509  0.0065 -0.0705
 2676W        W 6876   7.765   6.721   1.046 -0.2275 -0.2679 -0.1092
 2677W        W 6877   1.051   0.299  11.965  0.2951 -0.1004 -0.3144
 2678W        W 6878  10.312   4.374   4.356 -0.0241 -0.3660 -0.2803
 2679W        W 6879   3.458   6.650   8.877  0.2096  0.0153  0.0402
 2680W        W 6880   5.689   1.402   8.652  0.2181 -0.4448 -0.1338
 2681W        W 6881   2.925   3.964   1.794  0.1521  0.1749  0.0800
 2682W        W 6882   9.742   6.755  12.044 -0.1575  0.1925  0.0255
 2683W        W 6883   8.680   4.864   0.553  0.1692  0.3448 -0.1777
 2684W        W 6884   3.151   3.571   4.589  0.0192  0.0113 -0.0297
 2685W        W 6885   3.234   9.441  10.158  0.1089 -0.2949 -0.4414
 2686W        W 6886   0.637   7.237  10.699 -0.0731 -0.1093 -0.1752
 2687W        W 6887   2.472   0.665   0.162 -0.0171 -0.2669 -0.1022
 2688W        W 6888   5.246   6.594  11.646  0.0481  0.3841 -0.1236
 2689W        W 6889   0.496   5.403  11.332 -0.2228 -0.2930 -0.1076
 2690W        W 6890   5.463   1.754   2.897 -0.0378  0.0634  0.1018
 2691W        W 6891   3.013   4.004  11.754  0.2461  0.0069  0.1604
 2692W        W 6892   6.075   3.279   9.447  0.2195  0.0044  0.0814
 2693W        W 6893   3.380   4.555   2.582  0.0703 -0.1358 -0.0747
 2694W        W 6894  10.147   4.922   4.689 -0.0131 -0.2796 -0.3346
 2695W        W 6895   7.331   0.649   3.887 -0.1256 -0.2022 -0.1094
 2696W        W 6896   1.179   5.152   9.770 -0.0321 -0.3917 -0.0146
 2697W        W 6897   9.103   9.276   3.273 -0.1648 -0.1889  0.1386
 2698W        W 6898   3.350   8.618   4.296 -0.1000 -0.1592 -0.1322
 2699W        W 6899   8.181   1.804  12.798 -0.1283 -0.0551 -0.1469
 2700W        W 6900   8.095   9.699  11.264 -0.1164 -0.1116  0.1334
 2701W        W 6901   6.794   8.581  10.185 -0.0912  0.1725  0.2318
 2702W        W 6902   1.124   5.366   3.744 -0.1609 -0.2006  0.3033
 2703W        W 6903   4.055   6.556   1.513 -0.1502 -0.0561  0.1127
 2704W        W 6904   1.871   7.882   9.551 -0.0508  0.0552  0.1120
 2705W        W 6905   1.491   1.454  11.329  0.1379 -0.0691 -0.0887
 2706W        W 6906   7.475   8.450  12.843 -0.1274  0.0477  0.0549
 2707W        W 6907   8.235   1.905   9.947  0.2017  0.1658 -0.3156
 2708W        W 6908   2.380   7.233   4.554 -0.1193  0.0738  0.2195
 2709W        W 6909   3.308   6.152  10.666 -0.0017 -0.2085 -0.1840
 2710W        W 6910   7.476   6.295   3.054  0.3554  0.0567 -0.2939
 2711W        W 6911   1.343   8.369   0.213 -0.0597  0.1244 -0.0293
 2712W        W 6912   5.634   1.960  13.257  0.1073  0.0292  0.2579
 2713W        W 6913   3.012   5.643   2.290 -0.3323  0.0546  0.0878
 2714W        W 6914   0.910   3.203  12.676  0.1183  0.0532 -0.1614
 2715W        W 6915   9.734   7.250   4.241  0.0434  0.0654 -0.0672
 2716W        W 6916   4.024   6.946   2.154  0.1182  0.2357 -0.1872
 2717W        W 6917   8.627  10.330   2.183 -0.1388  0.2241 -0.0425
 2718W        W 6918   3.247   9.503  12.287  0.1051  0.1766 -0.0512
 2719W        W 6919   0.319   4.241  11.597 -0.1229  0.2648  0.0265
 2720W        W 6920   0.211   7.008  10.531 -0.1446  0.2610 -0.1731
 2721W        W 6921   7.266   5.346  12.081 -0.0940 -0.0700  0.0467
 2722W        W 6922   8.951   8.527  11.309 -0.1805 -0.1459  0.1630
 2723W        W 6923   5.960   3.991   0.539  0.2638 -0.0464 -0.1201
 2724W        W 6924   2.196   6.787  12.301  0.3875 -0.1312 -0.2528
 2725W        W 6925   4.794   6.952  10.955  0.0676  0.2526  0.0718
 2726W        W 6926   7.350   4.136   3.097 -0.0666  0.0709  0.0808
 2727W        W 6927   2.493   6.167   3.497 -0.1107  0.0086 -0.1659
 2728W        W 6928   9.587   4.558   0.644  0.1623  0.1550  0.3128
 2729W        W 6929   6.863   6.209  12.640 -0.1383 -0.0432  0.1139
 2730W        W 6930   6.701   9.953  13.191 -0.0373  0.3272 -0.1422
 2731W        W 6931   3.462   7.523   9.063  0.2711  0.1343  0.0352
 2732W        W 6932   6.515   0.989   3.672 -0.0412  0.0812 -0.0601
 2733W        W 6933   6.537   5.023   3.697  0.2299  0.0171 -0.0401
 2734W        W 6934   9.032  10.131  11.227 -0.1022 -0.0526  0.2179
 2735W        W 6935   5.132   8.285  10.992  0.2365 -0.0547  0.0542
 2736W        W 6936   2.617   4.535   1.284 -0.0346 -0.0882 -0.0116
 2737W        W 6937   5.704   2.014   3.883 -0.2310  0.2348  0.1074
 2738W        W 6938   1.545   8.059  10.795  0.2874  0.1397  0.2699
 2739W        W 6939   0.984   9.544  11.792 -0.1991 -0.4529 -0.1984
 2740W        W 6940   4.551   9.400  11.492  0.0280  0.0448  0.3628
 2741W        W 6941  10.206   5.991   2.190 -0.2032  0.0513  0.4445
 2742W        W 6942   4.263   8.303   0.755  0.0220  0.0216  0.1949
 2743W        W 6943   0.513   1.916   0.281  0.0139  0.2101 -0.3680
 2744W        W 6944   9.180   7.921   9.695 -0.1627 -0.1454 -0.0306
 2745W        W 6945   7.536   9.050   2.979 -0.2598  0.0061 -0.0420
 2746W        W 6946   4.658   0.041  13.119 -0.0186  0.0619  0.4086
 2747W        W 6947   2.011   4.358   9.039 -0.2356  0.0672  0.2209
 2748W        W 6948   5.586   8.258   2.228  0.2309  0.0432 -0.1742
 2749W        W 6949   3.330   7.193  12.921 -0.1944 -0.0742  0.1422
 2750W        W 6950   3.126   2.509   1.103 -0.0899  0.1086  0.1392
 2751W        W 6951   7.940   2.899  10.632  0.2609  0.1291 -0.1264
 2752W        W 6952   5.926   5.557  11.848 -0.1168 -0.2008  0.2252
 2753W        W 6953   6.173   2.076  12.620  0.2551 -0.2086  0.0076
 2754W        W 6954   5.565   6.486  10.841  0.1657  0.1116 -0.0991
 2755W        W 6955   6.779   5.085   1.524 -0.2135 -0.1219 -0.0750
 2756W        W 6956   3.191   1.547   0.770  0.0641  0.0308  0.1729
 2757W        W 6957   4.697   7.648   0.069 -0.0964  0.2250  0.1644
 2758W        W 6958   4.983   1.972   2.719  0.2174 -0.3350  0.1552
 2759W        W 6959   7.745   5.315   9.677 -0.2906 -0.0344  0.2536
 2760W        W 6960   9.897   6.381   2.758  0.0987 -0.1276 -0.2065
 2761W        W 6961   8.715   6.926  11.832 -0.2114 -0.4096  0.0757
 2762W        W 6962   3.118   7.623  10.407  0.1603 -0.5016 -0.1431
 2763W        W 6963   8.650   1.260  13.276 -0.1178  0.0549  0.1198
 2764W        W 6964   8.975   3.267   2.844  0.2591 -0.0315  0.2057
 2765W        W 6965   0.284   6.614  10.171  0.1231  0.0833 -0.0496
 2766W        W 6966   1.509   9.956  11.798  0.0092  0.2257  0.0090
 2767W        W 6967   8.373   5.593  10.741  0.1824 -0.2084  0.1495
 2768W        W 6968   5.535   0.723   3.396  0.2169 -0.2679  0.0948
 2769W        W 6969   5.708   1.873   0.386  0.0760  0.0682 -0.1729
 2770W        W 6970   5.798   0.614   3.833 -0.1246  0.5249  0.1719
 2771W        W 6971   9.290   5.712   2.558  0.1002 -0.1202  0.1621
 2772W        W 6972   0.237   3.408   3.102  0.1815  0.0312  0.0990
 2773W        W 6973   2.440   6.911  10.550 -0.4481 -0.0704  0.0338
 2774W        W 6974  10.243   4.591  10.739 -0.2785  0.0503  0.0858
 2775W        W 6975   8.215   8.930   4.185  0.1556 -0.0456 -0.1638
 2776W        W 6976  10.280   5.106   3.190  0.2869 -0.2029  0.2184
 2777W        W 6977  10.078   0.201  11.390  0.1383 -0.0713 -0.1297
 2778W        W 6978   3.505   6.221  11.701  0.0304  0.3460 -0.0309
 2779W        W 6979   4.387   7.887  10.475 -0.3893  0.0716  0.1206
 2780W        W 6980   9.432   5.341   0.108  0.2648 -0.0525 -0.1666
 2781W        W 6981   1.581   7.510   4.110  0.1176  0.0180 -0.0679
 2782W        W 6982  10.294   0.832  12.211  0.1613 -0.1170 -0.2700
 2783W        W 6983   4.873   1.734   1.366  0.1664 -0.1388 -0.2093
 2784W        W 6984  10.045   8.118  11.109  0.1085 -0.3725  0.0999
 2785W        W 6985   5.948   8.897   3.599  0.1299 -0.0618  0.0509
 2786W        W 6986   1.722   8.763  13.054 -0.0682 -0.0444 -0.1469
 2787W        W 6987   7.395   4.506   2.115 -0.1482 -0.1974 -0.0145
 2788W        W 6988   9.335   4.735  12.345  0.0532  0.2290 -0.0755
 2789W        W 6989   5.092   4.686  10.584 -0.1881 -0.1935 -0.0382
 2790W        W 6990   7.015   7.203   8.393 -0.1094 -0.0887 -0.1986
 2791W        W 6991   2.248   3.788   8.522  0.2029 -0.0034  0.1954
 2792W        W 6992   3.700   5.774  11.524 -0.0476  0.3300  0.1327
 2793W        W 6993   4.401   8.606   1.376  0.0169  0.0990 -0.0682
 2794W        W 6994   7.236   8.175  10.396  0.0474 -0.0726  0.1942
 2795W        W 6995   3.422   6.053   3.762  0.0188 -0.1410  0.0293
 2796W        W 6996   7.465   7.091   4.028  0.2032 -0.0173 -0.0682
 2797W        W 6997   9.548   1.345   1.814  0.0629 -0.0146 -0.0005
 2798W        W 6998   1.032   5.371  10.267 -0.2655 -0.0241 -0.1290
 2799W        W 6999   2.323   3.381  12.039  0.2382  0.0156  0.0995
 2800W        W 7000   9.768   1.341   2.349 -0.0886 -0.0211  0.0610
 2801W        W 7001   2.643   0.846  10.464  0.0846 -0.2208 -0.4898
 2802W        W 7002   1.123   8.294  13.035 -0.0625  0.0429 -0.0775
 2803W        W 7003   2.026   9.154   1.540 -0.4032  0.2990 -0.3187
 2804W        W 7004   3.276   0.058  12.319 -0.1748 -0.1944 -0.3034
 2805W        W 7005   7.525   8.649  13.403  0.3343 -0.0607 -0.0665
 2806W        W 7006   1.888   0.726   2.256 -0.2301 -0.0865 -0.1151
 2807W        W 7007   0.618   5.297   8.512 -0.0744 -0.1282 -0.0471
 2808W        W 7008   9.692  10.109  12.712 -0.1404  0.0993 -0.5618
 2809W        W 7009   8.781   4.502   2.219 -0.0937 -0.0413 -0.4315
 2810W        W 7010   5.588   9.482   0.944 -0.2039  0.1979 -0.0018
 2811W        W 7011   2.904   8.693  11.339  0.0748 -0.0838  0.0942
 2812W        W 7012   8.492   0.198  12.527 -0.0273 -0.1942 -0.1975
 2813W        W 7013   6.135  10.170  11.550 -0.2372 -0.5208 -0.0495
 2814W        W 7014   3.071   8.623   3.522  0.1121  0.2638 -0.2393
 2815W        W 7015   6.816   0.121   9.868  0.0804 -0.2584 -0.2867
 2816W        W 7016   4.219   7.860   4.864  0.4113  0.2764  0.0290
 2817W        W 7017   1.581   3.880  11.113  0.2784  0.1467  0.0082
 2818W        W 7018   4.649   6.645  12.875 -0.2338 -0.0362  0.0412
 2819W        W 7019   3.489   4.834  11.455  0.2899  0.1365 -0.1118
 2820W        W 7020   2.026   1.236  13.143 -0.1779 -0.1583  0.2828
 2821W        W 7021   5.743   4.136   3.296  0.2368 -0.1120  0.1892
 2822W        W 7022   9.415   8.646   3.653  0.2360  0.1094 -0.0374
 2823W        W 7023   3.432   3.352   1.531  0.2279 -0.1158 -0.2178
 2824W        W 7024   9.995   7.185  11.647  0.3398 -0.0202  0.1264
 2825W        W 7025   7.667   7.509   3.680  0.3070  0.0410  0.1422
 2826W        W 7026   4.411  10.204  12.807 -0.0665 -0.0267 -0.0218
 2827W        W 7027   7.416   4.714   1.108 -0.0706  0.1599  0.2885
 2828W        W 7028   0.264   7.044   0.454 -0.0773  0.1589 -0.0438
 2829W        W 7029   7.375   2.458  11.596 -0.0465 -0.0772 -0.1443
 2830W        W 7030   1.530   5.859   2.487 -0.2263  0.2273 -0.2385
 2831W        W 7031   1.704   8.865  11.903  0.0314  0.0540  0.2464
 2832W        W 7032   4.667   8.371  11.134  0.1052 -0.0557  0.1523
 2833W        W 7033   8.665   8.269   0.845  0.3989 -0.2072 -0.0151
 2834W        W 7034   9.173   5.998   5.409  0.2365  0.1854  0.4558
 2835W        W 7035   3.849   4.331   5.150  0.1457  0.1003 -0.1179
 2836W        W 7036   9.827   8.746   0.470  0.0610  0.4455  0.1803
 2837W        W 7037   9.931   6.768  13.248  0.2510  0.3649  0.0628
 2838W        W 7038   7.847   4.676  11.919  0.0572 -0.1201  0.0639
 2839W        W 7039   2.809   9.391   3.466  0.3258  0.1783  0.1788
 2840W        W 7040   9.717   5.590   0.956  0.0277 -0.1981 -0.0335
 2841W        W 7041   6.508   5.538   3.708 -0.0570  0.2611  0.2389
 2842W        W 7042  10.299   3.882   1.482 -0.1275 -0.0254  0.0554
 2843W        W 7043   3.656   7.928   9.178 -0.1654  0.0587  0.1171
 2844W        W 7044   1.697   7.386   9.516  0.1295 -0.2183 -0.0175
 2845W        W 7045   2.712  10.176  12.166 -0.1768 -0.0508  0.2751
 2846W        W 7046   6.172   6.887  10.401  0.0854 -0.0134 -0.0730
 2847W        W 7047   7.532   5.424  11.212  0.1676 -0.0372  0.3230
 2848W        W 7048   7.999   1.541   1.822 -0.1390  0.3674 -0.1777
 2849W        W 7049   8.224   6.265   3.656 -0.1833  0.0159  0.0332
 2850W        W 7050   3.025   9.084   3.719  0.0236 -0.0951  0.2020
 2851W        W 7051   0.083   8.030   2.729 -0.0023  0.1729 -0.2275
 2852W        W 7052   6.873   2.566  10.862 -0.0422 -0.1137  0.1255
 2853W        W 7053   3.214   7.508  11.923  0.3160 -0.0290  0.1592
 2854W        W 7054   8.633   6.961   1.942  0.3230 -0.2495  0.0219
 2855W        W 7055   9.412   6.259   9.214  0.1415  0.1986 -0.1190
 2856W        W 7056   1.211   0.203   2.552 -0.1347 -0.0837  0.1637
 2857W        W 7057   1.501   3.811   1.449 -0.3888  0.0359  0.1449
 2858W        W 7058   5.754   6.600   1.089 -0.0342 -0.0454  0.2875
 2859W        W 7059   0.846   0.172  13.406 -0.1862  0.2510  0.1875
 2860W        W 7060   1.126   4.305  12.786  0.0871  0.0401 -0.0021
 2861W        W 7061   5.920   5.369   9.972  0.2104  0.2102 -0.2903
 2862W        W 7062  10.479   4.406   1.485 -0.2642 -0.0945 -0.2542
 2863W        W 7063   6.314   4.676   0.200 -0.0645  0.1199  0.2590
 2864W        W 7064   4.262   7.737   0.578  0.1438  0.2402 -0.1635
 2865W        W 7065   4.564   9.704  11.051 -0.0181 -0.1771  0.1108
 2866W        W 7066   8.949   4.794   2.887  0.2127  0.2339  0.0257
 2867W        W 7067   5.473   1.823  12.222 -0.2543 -0.1068 -0.2349
 2868W        W 7068   1.074   4.433  11.089 -0.2489  0.2599 -0.0669
 2869W        W 7069   2.646   3.488   0.987  0.1853  0.3708 -0.1298
 2870W        W 7070   6.413   7.786   9.424 -0.1235 -0.0034 -0.0726
 2871W        W 7071   2.907   4.804   0.659  0.0004  0.1791  0.1268
 2872W        W 7072   1.065   5.529   4.634 -0.1125 -0.0869 -0.0285
 2873W        W 7073   2.784   4.482  11.011 -0.1988 -0.2478 -0.1702
 2874W        W 7074   5.290   9.763   5.165 -0.2059  0.1274 -0.0525
 2875W        W 7075   5.767   1.135   0.847 -0.0696  0.1133  0.1525
 2876W        W 7076  10.114   1.072  11.793  0.2777 -0.0362  0.4065
 2877W        W 7077   1.919   2.018   2.338  0.3151  0.0336  0.2176
 2878W        W 7078   1.584   9.268  11.203  0.0234  0.2188 -0.0718
 2879W        W 7079   5.180   5.177   4.537 -0.0506 -0.0342 -0.4127
 2880W        W 7080   8.700   4.947  13.120 -0.3883  0.1305  0.1063
 2881W        W 7081   4.491  10.220  11.189  0.0634  0.1179 -0.0382
 2882W        W 7082   2.523   4.394   0.814 -0.1965  0.0430  0.0056
 2883W        W 7083   0.543  10.414  10.896 -0.1116 -0.0451 -0.1197
 2884W        W 7084   1.539   9.238   3.975  0.1869  0.3325  0.4022
 2885W        W 7085   8.644   2.481   3.063 -0.0919 -0.1413  0.0314
 2886W        W 7086   2.885   0.604   0.428 -0.2055  0.0323  0.2267
 2887W        W 7087   8.599   8.951  12.036 -0.1415  0.1152 -0.3423
 2888W        W 7088   9.018   9.028   9.970  0.1219  0.0944  0.2256
 2889W        W 7089   7.629   4.414  12.329 -0.1523 -0.0339  0.2848
 2890W        W 7090   5.720   7.038   3.830  0.2268 -0.0207  0.0814
 2891W        W 7091   8.500   2.767   2.023  0.0872  0.2682 -0.3330
 2892W        W 7092   5.401   1.181   2.052 -0.1020  0.2621 -0.1500
 2893W        W 7093   3.323   1.369   9.086  0.1777 -0.3459 -0.0190
 2894W        W 7094   3.733   3.049   3.286  0.2698  0.0600 -0.0848
 2895W        W 7095   2.731   6.854  12.352  0.2548 -0.3073 -0.1346
 2896W        W 7096  10.171   9.350  11.536 -0.2400 -0.3479 -0.1490
 2897W        W 7097   6.805   5.842   2.011  0.0667  0.0784  0.0450
 2898W        W 7098   1.486   6.318  13.016 -0.1319 -0.1008 -0.1638
 2899W        W 7099   5.078   4.060   2.771 -0.0089 -0.1147 -0.3140
 2900W        W 7100   8.492   2.416  11.984 -0.5458 -0.0972 -0.2151
 2901W        W 7101   0.626   5.492   2.259 -0.3040  0.0276  0.1655
 2902W        W 7102   4.746   7.030   3.368  0.4318 -0.1839 -0.0524
 2903W        W 7103   2.153   8.531  10.693 -0.2265 -0.1188 -0.2234
 2904W        W 7104   4.091   8.827   8.120 -0.1303  0.0591  0.0349
 2905W        W 7105   1.189   8.359   2.162  0.0168  0.1786 -0.3975
 2906W        W 7106   2.430   8.730   9.181  0.0361  0.2021  0.0968
 2907W        W 7107   3.814   0.025  13.368  0.2401  0.5058 -0.1045
 2908W        W 7108   4.255   8.276   4.146 -0.2276  0.0422  0.2130
 2909W        W 7109   3.086   3.721   2.245 -0.3366  0.1073 -0.2735
 2910W        W 7110  10.226   4.475   2.766 -0.0740 -0.1720 -0.1977
 2911W        W 7111   5.014   1.360  13.291  0.1092 -0.1982 -0.0095
 2912W        W 7112   5.404   5.830  10.344 -0.0496  0.0796  0.2661
 2913W        W 7113   2.445   0.009   4.045  0.0614  0.0255 -0.2710
 2914W        W 7114   8.916   6.855  13.080  0.0355  0.2973  0.1479
 2915W        W 7115   0.959   3.061  11.748  0.2810  0.2818 -0.1602
 2916W        W 7116   2.885   6.185  11.815  0.1553 -0.2399  0.0616
 2917W        W 7117  10.052   9.404   3.714 -0.0627 -0.3902 -0.2146
 2918W        W 7118  10.214   0.574  12.712  0.2254  0.3156  0.0578
 2919W        W 7119   0.379   9.431   1.033 -0.3501 -0.0928  0.2396
 2920W        W 7120   5.388   9.073   1.763  0.0507 -0.1155 -0.5080
 2921W        W 7121   9.566   7.565  12.325 -0.1498  0.1843 -0.2360
 2922W        W 7122   6.998   0.006  12.401  0.1261  0.0007  0.2816
 2923W        W 7123   2.805   6.575   3.395 -0.1663  0.0824 -0.1361
 2924W        W 7124   0.128   5.831   5.061 -0.0298  0.0537 -0.0915
 2925W        W 7125   1.842   5.612  12.881  0.3660 -0.2321  0.4398
 2926W        W 7126   1.173   4.627   1.322 -0.1028 -0.2591  0.0224
 2927W        W 7127   5.204   6.976   3.591 -0.1423  0.2359 -0.1936
 2928W        W 7128   5.967   7.284  11.221 -0.0626  0.0815  0.1230
 2929W        W 7129   8.585   0.242  13.299 -0.0988 -0.2835  0.0476
 2930W        W 7130   3.074   9.757  13.397 -0.2000 -0.1188  0.1897
 2931W        W 7131   5.560   3.372   0.997 -0.1652  0.2678 -0.0881
 2932W        W 7132   5.336   6.868   9.642 -0.1905 -0.4327 -0.1530
 2933W        W 7133   5.180   2.107   1.545  0.2443 -0.1660  0.1388
 2934W        W 7134   9.473   1.533   0.028  0.0812 -0.0323  0.1770
 2935W        W 7135   5.436   7.915  10.981 -0.0317  0.0613  0.1919
 2936W        W 7136   6.467   5.000   9.677  0.1427  0.3271  0.3045
 2937W        W 7137   2.496   8.061  10.767  0.3844 -0.0318  0.2361
 2938W        W 7138   0.764   7.641  11.024 -0.1688 -0.0792  0.1480
 2939W        W 7139  10.374   5.003  10.940 -0.3641 -0.3148 -0.0706
 2940W        W 7140   9.801   8.555   9.034  0.1905  0.1297 -0.2900
 2941W        W 7141   4.440   3.982   3.418  0.2594  0.1413 -0.3300
 2942W        W 7142   5.055   7.362   4.588  0.1119  0.1123 -0.0332
 2943W        W 7143  10.034   2.465   0.447 -0.2278  0.1852 -0.3522
 2944W        W 7144   9.547   3.265   1.572 -0.0036 -0.1392  0.3216
 2945W        W 7145   9.717   2.137  10.124 -0.0067  0.0767  0.0166
 2946W        W 7146   1.308   0.613   9.102 -0.3012 -0.0171  0.0749
 2947W        W 7147   3.904   7.132  10.036 -0.1326  0.0175 -0.2259
 2948W        W 7148   8.704   2.440   3.576  0.1480  0.3094  0.2525
 2949W        W 7149   9.637   0.789  10.041  0.0098 -0.0490 -0.0720
 2950W        W 7150   2.225   4.487  13.379 -0.0603  0.3278  0.2179
 2951W        W 7151   8.202   4.229   2.449 -0.2270 -0.2280 -0.0915
 2952W        W 7152   9.582   7.664   0.072  0.2883 -0.4272 -0.1986
 2953W        W 7153   1.153   2.118   1.190  0.0986 -0.1019 -0.0530
 2954W        W 7154   2.105   6.604  11.015 -0.0415 -0.1126 -0.0261
 2955W        W 7155   5.522   7.054   0.914 -0.0313  0.1261 -0.2256
 2956W        W 7156   4.661   0.155   8.784 -0.0208 -0.2222 -0.3034
 2957W        W 7157   6.350   0.657  12.349  0.4729  0.0677 -0.2311
 2958W        W 7158   2.668   8.716  12.273 -0.1209  0.1684  0.1210
 2959W        W 7159   1.466   1.628   9.447  0.2602  0.1790  0.4314
 2960W        W 7160   3.003  10.466   2.202  0.1726  0.1306  0.0119
 2961W        W 7161   4.411   4.689  11.838 -0.1326  0.2250 -0.3331
 2962W        W 7162   6.345   9.122  11.535  0.2893 -0.1788 -0.2910
 2963W        W 7163   9.582   6.209   0.327  0.1222  0.0997 -0.5774
 2964W        W 7164   8.906   9.113   0.915 -0.0009  0.0861 -0.1732
 2965W        W 7165   0.786   5.814  10.224  0.4337  0.1027  0.4145
 2966W        W 7166   5.119   5.905   4.397  0.1992 -0.0365 -0.0864
 2967W        W 7167   1.508   4.624   0.884 -0.0607 -0.3687 -0.0111
 2968W        W 7168   1.009   6.943   1.105 -0.0070 -0.0001  0.1072
 2969W        W 7169   4.249   1.242  10.579  0.1276 -0.0075 -0.1156
 2970W        W 7170   5.195   4.200  13.409 -0.0022  0.0336 -0.1529
 2971W        W 7171   7.018   3.138  13.229  0.0450  0.1234  0.0726
 2972W        W 7172   2.599  10.343   1.375 -0.3058  0.4223 -0.1297
 2973W        W 7173   4.754   2.166   2.325 -0.2599 -0.0696  0.0593
 2974W        W 7174   2.588   1.706   1.560  0.3730  0.1974 -0.0457
 2975W        W 7175   5.630   4.134   0.213  0.1114 -0.0302 -0.0528
 2976W        W 7176   2.242   8.981   2.854  0.0374 -0.2044  0.3866
 2977W        W 7177   6.659   8.594   3.976  0.2121  0.0466  0.0699
 2978W        W 7178   3.007   1.288   2.867 -0.1453  0.0138  0.0428
 2979W        W 7179   7.590   1.045   2.302 -0.1935 -0.0709  0.3842
 2980W        W 7180   7.339   3.428  12.226  0.1264 -0.1124 -0.0024
 2981W        W 7181   5.460   3.316   2.673 -0.0589  0.2547 -0.0942
 2982W        W 7182   5.609  10.085   3.833  0.1363 -0.2717  0.1111
 2983W        W 7183   1.337   8.564   1.731  0.2639  0.0272 -0.4952
 2984W        W 7184   3.648   9.570   4.897  0.1139  0.2076  0.1761
 2985W        W 7185   3.452   7.379   1.569 -0.3037  0.4717  0.2235
 2986W        W 7186   7.371   6.852   0.092 -0.1303  0.1475 -0.0130
 2987W        W 7187   5.258   4.679   0.273 -0.0535  0.0993  0.2794
 2988W        W 7188   8.774   5.180   4.306  0.5864  0.0514  0.1711
 2989W        W 7189   4.453   9.036   3.365  0.2697  0.1035  0.2137
 2990W        W 7190   1.933   3.630   2.759 -0.1943  0.1191  0.0706
 2991W        W 7191   4.975   8.084   1.057 -0.2754 -0.1557 -0.0994
 2992W        W 7192   5.198   0.098   9.499 -0.0626 -0.0250  0.1723
 2993W        W 7193   1.970   2.582  12.934 -0.2725  0.1320  0.1437
 2994W        W 7194   4.852   2.810  10.764  0.0950 -0.0171 -0.3084
 2995W        W 7195   2.670  10.292   0.391  0.3384 -0.1549 -0.1335
 2996W        W 7196   3.382   3.725   1.853  0.2976  0.3252 -0.1371
 2997W        W 7197   0.041   9.261   3.027  0.0767 -0.1198  0.0294
 2998W        W 7198   1.222   3.385   2.905 -0.0159  0.0534  0.2462
 2999W        W 7199   3.294   5.372   2.982  0.2083  0.2764  0.0106
 3000W        W 7200   3.950   9.819  10.448  0.2317 -0.0527 -0.2349
 3001W        W 7201   1.493   1.162   0.909  0.0075  0.1883  0.1716
 3002W        W 7202   4.681  10.197   2.871 -0.2311 -0.3454  0.0785
 3003W        W 7203   1.035   6.425  12.896 -0.2420 -0.1766 -0.1298
 3004W        W 7204   8.736   6.777  11.358  0.3090 -0.2325 -0.1586
 3005W        W 7205   7.102   3.112   3.704  0.2910  0.1144  0.0418
 3006W        W 7206   4.054   3.861   0.951  0.2343  0.1778  0.2880
 3007W        W 7207   6.956   3.364   2.569 -0.2845  0.0942  0.0880
 3008W        W 7208   0.689   1.546  11.894  0.0209  0.2609 -0.1821
 3009W        W 7209   0.144  10.399   1.569  0.2111 -0.1809  0.0297
 3010W        W 7210   1.336   7.874  11.866  0.0926  0.0509  0.2522
 3011W        W 7211   6.598   0.481   1.426 -0.0607  0.0033 -0.1093
 3012W        W 7212   9.961   6.825   2.493  0.1295  0.0636 -0.2387
 3013W        W 7213   3.638   4.845   8.419 -0.2942  0.1888 -0.0043
 3014W        W 7214   5.018   6.992  11.446 -0.2425  0.0915  0.1930
 3015W        W 7215   4.633   2.538  10.228  0.2566 -0.2443 -0.3347
 3016W        W 7216   5.382   0.699   2.352  0.5824  0.2883 -0.0825
 3017W        W 7217   0.927   4.584   4.000 -0.1777  0.3124 -0.0652
 3018W        W 7218   5.510   5.538   5.331  0.0087  0.0824 -0.0912
 3019W        W 7219   2.095   5.067   8.904  0.1678 -0.2603  0.0380
 3020W        W 7220   3.649   0.848   9.217  0.2375 -0.2607 -0.1871
 3021W        W 7221   3.486   6.114   1.000 -0.4786  0.1858  0.3391
 3022W        W 7222   3.121   4.245   1.423  0.1159  0.2073 -0.2325
 3023W        W 7223   9.856   6.260  11.450  0.0192  0.1323 -0.0522
 3024W        W 7224   4.089   9.133   4.705 -0.0272  0.1553 -0.0890
 3025W        W 7225   0.335   7.604   2.742 -0.0788  0.0090 -0.1745
 3026W        W 7226   9.283   7.136   2.892 -0.0200  0.1266 -0.3157
 3027W        W 7227   2.332   5.550   4.590 -0.1370 -0.0676 -0.1721
 3028W        W 7228   6.438   8.037  10.799 -0.3172  0.0034 -0.1072
 3029W        W 7229   8.285   6.787   3.748 -0.1444 -0.0435 -0.1992
 3030W        W 7230   5.857   6.504  10.447 -0.1680  0.0687 -0.0149
 3031W        W 7231   8.452   4.360   3.268  0.1189 -0.0016 -0.3778
 3032W        W 7232  10.114   1.684   2.602 -0.0265 -0.4141  0.2988
 3033W        W 7233   7.380   7.665   0.122  0.2722 -0.2204 -0.0041
 3034W        W 7234   9.483   7.837  10.456  0.0399  0.1378 -0.0425
 3035W        W 7235   1.429   7.324   2.255  0.2910 -0.0718 -0.0855
 3036W        W 7236   2.398   4.977  13.304 -0.1832 -0.0081 -0.1118
 3037W        W 7237   2.139   6.801   0.198  0.0919 -0.1480  0.0355
 3038W        W 7238   9.011   3.168  10.309  0.0999 -0.1207  0.0693
 3039W        W 7239   0.614   6.605   1.611 -0.1257  0.2577 -0.0689
 3040W        W 7240   7.645   4.801   3.938 -0.0617 -0.2681 -0.1633
 3041W        W 7241   4.520   1.584  13.263  0.1814  0.1793  0.1355
 3042W        W 7242   4.483   5.872   8.450 -0.0948 -0.0967  0.4420
 3043W        W 7243   9.698   6.401  10.475  0.2989  0.2345  0.0875
 3044W        W 7244   2.755   7.761   3.978 -0.0742  0.0494  0.0864
 3045W        W 7245   3.724   6.982   1.695  0.1925  0.1451  0.1991
 3046W        W 7246   9.776   7.482   4.723  0.1128 -0.1907 -0.2923
 3047W        W 7247   5.753   1.830  12.699 -0.2969  0.1102 -0.0619
 3048W        W 7248  10.140   0.402   9.921 -0.2650 -0.3136 -0.1141
 3049W        W 7249   5.441   2.631   9.859 -0.1513 -0.2633  0.0156
 3050W        W 7250   6.837   0.727  11.316  0.2106  0.1222 -0.1020
 3051W        W 7251   8.362   8.416   2.744 -0.1286  0.5902 -0.1732
 3052W        W 7252   9.698   4.511  11.983  0.2154  0.1930 -0.1479
 3053W        W 7253   5.217   4.516   3.639  0.0091  0.1326 -0.0045
 3054W        W 7254   1.513   4.456  11.417  0.1378 -0.0105  0.1093
 3055W        W 7255   7.102   9.113   0.642  0.3287  0.1115  0.5114
 3056W        W 7256   4.642   0.342   0.660 -0.3935  0.1856 -0.1840
 3057W        W 7257   3.752   7.488  11.130  0.1817  0.0557  0.0421
 3058W        W 7258   6.369   7.063   1.389  0.1974 -0.0282 -0.2785
 3059W        W 7259   1.415   7.105  12.529  0.0620 -0.0393 -0.3851
 3060W        W 7260   8.444   2.934  10.367 -0.3783  0.3304 -0.1871
 3061W        W 7261   0.243   9.299  11.537  0.2090  0.2852 -0.1234
 3062W        W 7262   7.972   6.537   5.063 -0.0561 -0.3943 -0.1885
 3063W        W 7263   3.711  10.366   3.420  0.1239 -0.1967  0.1890
 3064W        W 7264   4.360   2.629  10.756 -0.2074  0.4220  0.1784
 3065W        W 7265   5.834   6.330  12.239 -0.1866 -0.0922 -0.0233
 3066W        W 7266   1.528   0.318   2.992  0.0145 -0.1333 -0.0939
 3067W        W 7267   8.564   6.446  13.250 -0.3360  0.4437 -0.2131
 3068W        W 7268   9.388   8.524   0.266  0.0068  0.0693  0.1996
 3069W        W 7269  10.078   9.267   1.816  0.1945  0.0211 -0.1584
 3070W        W 7270   6.673   7.529   2.447 -0.5331  0.2462  0.1493
 3071W        W 7271   9.453  10.351  13.286  0.3823 -0.1263 -0.0149
 3072W        W 7272   4.017   5.604   1.918  0.0496 -0.2283 -0.0802
 3073W        W 7273   7.439   8.538   9.521 -0.0856  0.1080 -0.0368
 3074W        W 7274   9.138   2.332   1.546 -0.6132 -0.2979  0.0119
 3075W        W 7275   2.021   4.699  12.138 -0.0605 -0.1095  0.0859
 3076W        W 7276   3.819   0.692   3.136  0.1745 -0.0380  0.1525
 3077W        W 7277   8.848   5.011   9.614 -0.3413  0.2095 -0.3043
 3078W        W 7278   3.992   7.737  12.931  0.0301 -0.1790  0.1988
 3079W        W 7279   2.708   6.475   0.204  0.1825 -0.2966  0.2755
 3080W        W 7280   6.095   8.710  12.469  0.2410  0.0596  0.1218
 3081W        W 7281   3.801   6.906  12.379 -0.1514 -0.0346  0.1217
 3082W        W 7282   8.354   4.719   1.788  0.2077  0.0912  0.0496
 3083W        W 7283   6.162   3.196  11.422  0.2780 -0.4213 -0.1972
 3084W        W 7284   7.436   3.996   3.601 -0.3195 -0.2319 -0.0863
 3085W        W 7285   5.246   1.562  10.179 -0.0310 -0.0549 -0.0189
 3086W        W 7286   9.804   3.694   2.455 -0.0828 -0.0114  0.1683
 3087W        W 7287   4.517   3.621   5.381  0.0284  0.0388  0.0943
 3088W        W 7288   4.312   8.811   0.756  0.3817  0.2819 -0.0589
 3089W        W 7289   4.701   6.409   2.502  0.0351  0.2075 -0.0619
 3090W        W 7290   9.802   2.002  10.682  0.0901  0.1340 -0.0783
 3091W        W 7291   4.079   4.288   1.237 -0.0937  0.0782 -0.0409
 3092W        W 7292   9.746   2.816  13.085  0.0468  0.2657  0.4609
 3093W        W 7293   6.089   7.939  12.645 -0.0531 -0.3452 -0.0135
 3094W        W 7294   4.183   2.474   1.199  0.0315  0.0513  0.1488
 3095W        W 7295  10.014   2.659   9.754 -0.3738  0.0830 -0.0918
 3096W        W 7296   4.098   0.298   0.301  0.2514  0.3830  0.0951
 3097W        W 7297   0.296  10.458   9.753  0.2459  0.1629 -0.0430
 3098W        W 7298   1.749   5.190   5.183 -0.0762 -0.2964  0.1272
 3099W        W 7299   0.245   2.490  12.805  0.0238 -0.1578  0.0394
 3100W        W 7300   6.427   9.823   4.206  0.1978  0.0235 -0.2792
 3101W        W 7301   6.786   3.383   9.372 -0.1170 -0.0602  0.0987
 3102W        W 7302   8.584   1.828   0.290 -0.0518 -0.2848  0.3975
 3103W        W 7303   3.612   2.526   1.062 -0.0614 -0.0804  0.1926
 3104W        W 7304   9.101   8.013   0.944  0.0406  0.1473 -0.0325
 3105W        W 7305   0.635   5.089  12.891 -0.0873 -0.1222  0.2508
 3106W        W 7306   5.216   8.813  10.930 -0.2725 -0.0752 -0.2477
 3107W        W 7307   7.910   8.578   2.216 -0.2587  0.0492 -0.2549
 3108W        W 7308   1.282   1.474   2.265 -0.3755 -0.0287  0.1153
 3109W        W 7309   8.737   2.156   0.711  0.1345  0.2683  0.0275
 3110W        W 7310   0.904   6.241  10.463 -0.0711  0.0508  0.1668
 3111W        W 7311   2.853   4.092  12.242 -0.1303  0.3022 -0.0914
 3112W        W 7312   9.398   2.367  12.946 -0.1675  0.2994 -0.2550
 3113W        W 7313   8.919   1.873  10.678 -0.0556 -0.0371  0.0492
 3114W        W 7314   9.736   9.565   0.588  0.1516  0.0097 -0.1847
 3115W        W 7315   8.625   4.527  12.912 -0.3068  0.2117 -0.0929
 3116W        W 7316   0.947   7.796  13.104  0.3894  0.1472  0.2365
 3117W        W 7317   1.958   9.248  12.185  0.1451  0.2669 -0.2050
 3118W        W 7318   2.459   1.914   3.524 -0.4645 -0.1125 -0.0463
 3119W        W 7319   3.312   6.610  12.977  0.2793  0.2750 -0.0136
 3120W        W 7320   2.922   8.947   0.032 -0.1775  0.0839 -0.0542
 3121W        W 7321   8.036   6.830   0.579 -0.1946  0.0908  0.1332
 3122W        W 7322   3.855   8.590   4.099  0.0241  0.1099 -0.0954
 3123W        W 7323   5.085   6.189   3.982  0.6181 -0.1420 -0.1228
 3124W        W 7324   4.360  10.376   0.531 -0.0652 -0.0152 -0.0502
 3125W        W 7325   0.249  10.189  11.743 -0.0007  0.0751 -0.0683
 3126W        W 7326   5.001   3.559   2.607  0.1811  0.0102  0.2652
 3127W        W 7327   0.810   6.192   2.925  0.1489  0.3287  0.3127
 3128W        W 7328   6.263   0.866   4.713 -0.0329 -0.0750 -0.2899
 3129W        W 7329   4.386  10.420  10.672  0.2282  0.1871  0.4374
 3130W        W 7330   1.014   7.370   9.497  0.1005  0.0518  0.0658
 3131W        W 7331   0.840   3.560  11.874  0.1033 -0.3304  0.1315
 3132W        W 7332   2.421   7.111  13.330  0.4955  0.1406  0.0874
 3133W        W 7333   2.624   9.391   9.556  0.3143 -0.0306  0.0685
 3134W        W 7334   4.785   6.913   0.590 -0.3514  0.2652 -0.2708
 3135W        W 7335   0.242   6.480   1.166 -0.0378 -0.2455  0.0074
 3136W        W 7336   4.846   4.195  10.588 -0.4732  0.0562  0.1965
 3137W        W 7337   7.192   8.695   4.157 -0.2588 -0.1460 -0.1713
 3138W        W 7338   1.409   7.943   8.745 -0.1060  0.1706  0.1149
 3139W        W 7339   3.890   2.228   3.750 -0.4284 -0.2771  0.0656
 3140W        W 7340   2.434   6.696   9.445  0.0338  0.1964 -0.0399
 3141W        W 7341   0.974   1.023  10.612  0.1916 -0.1140  0.1518
 3142W        W 7342   4.603   2.864  11.521  0.0688  0.0916  0.1581
 3143W        W 7343   2.924   8.710   2.402 -0.1523  0.4623 -0.1228
 3144W        W 7344   6.643   8.366   0.911  0.2060  0.0527  0.0376
 3145W        W 7345   6.306   6.162  13.143 -0.2966  0.0347 -0.1686
 3146W        W 7346   6.362   7.383   3.275 -0.1113 -0.0607  0.1366
 3147W        W 7347   8.975   4.464  11.960  0.0746 -0.1388  0.0006
 3148W        W 7348   2.592   8.002   1.594  0.0836 -0.0287  0.0780
 3149W        W 7349   5.819   3.319   3.016 -0.1917 -0.0984  0.0289
 3150W        W 7350   0.254   6.444  10.659 -0.0396 -0.0277 -0.3149
 3151W        W 7351  10.269   4.806  13.383  0.0313  0.0838 -0.2241
 3152W        W 7352   2.874   3.831   4.951  0.0655  0.2944  0.1805
 3153W        W 7353   3.816   3.667  10.419  0.3184 -0.1188  0.1500
 3154W        W 7354   4.093   1.055   2.968 -0.0088 -0.2191  0.2450
 3155W        W 7355   8.904   2.484   2.259  0.1447 -0.2078 -0.0797
 3156W        W 7356  10.200  10.002   9.191 -0.0525 -0.0599  0.1610
 3157W        W 7357   4.917   8.130  10.156  0.0487 -0.1329  0.0818
 3158W        W 7358   3.095   6.054   1.336  0.0873 -0.0078  0.2242
 3159W        W 7359   4.085   8.034   8.583  0.1496 -0.4385  0.1393
 3160W        W 7360   2.227   8.210   9.374  0.0548 -0.0735 -0.0667
 3161W        W 7361   9.830   6.629   0.464  0.1372  0.1582  0.0659
 3162W        W 7362   4.103   7.958  10.068  0.0150  0.0451 -0.0744
 3163W        W 7363   7.501   1.655   3.092 -0.2271 -0.2386 -0.1108
 3164W        W 7364   8.923   8.964  13.085  0.0966  0.2391 -0.0343
 3165W        W 7365   7.142   1.851  13.285 -0.0503  0.0823 -0.0291
 3166W        W 7366   1.420   9.201   4.955 -0.2046 -0.0745 -0.3447
 3167W        W 7367   2.594   9.661   9.966 -0.1286  0.1873 -0.3368
 3168W        W 7368   9.039   8.905  12.231 -0.0817 -0.0856 -0.0508
 3169W        W 7369  10.331   6.902   2.064 -0.1360  0.0535 -0.3428
 3170W        W 7370   4.088   9.816  13.259  0.2016 -0.1980 -0.3011
 3171W        W 7371   9.832   4.248  11.456  0.0066 -0.1771 -0.4261
 3172W        W 7372   9.239   5.481   1.168 -0.1316 -0.1170  0.1341
 3173W        W 7373   2.611   5.873  12.136  0.2009  0.1500  0.0907
 3174W        W 7374   0.620   5.906  12.317  0.0262 -0.2487 -0.3183
 3175W        W 7375   5.335   0.848   1.673  0.0628 -0.2207  0.0229
 3176W        W 7376   2.979   5.810  13.087 -0.0202  0.0879  0.0541
 3177W        W 7377   3.078   9.798   3.735  0.3257  0.1166 -0.0649
 3178W        W 7378   6.381   7.973   0.640 -0.0811 -0.2191  0.0415
 3179W        W 7379   5.154   7.594   1.210  0.0196 -0.0519  0.0627
 3180W        W 7380   0.242   5.821   2.999  0.0027  0.0799 -0.3983
 3181W        W 7381   8.427   3.727   9.818  0.1492 -0.0154 -0.2390
 3182W        W 7382   4.816   7.365  10.268  0.1040 -0.1818 -0.0770
 3183W        W 7383   7.319   4.838  13.131  0.1773  0.2603  0.1454
 3184W        W 7384   3.134   8.108   9.944 -0.0423 -0.0197 -0.0510
 3185W        W 7385   3.771   3.013   4.695 -0.4402 -0.2456 -0.5650
 3186W        W 7386   7.349   5.733   2.229  0.0808 -0.0593 -0.3041
 3187W        W 7387   8.255   3.698  12.581 -0.2379  0.1951  0.3687
 3188W        W 7388   2.299  10.472  13.109  0.0055  0.1237  0.2518
 3189W        W 7389   5.307   8.471   1.145  0.0906  0.0469  0.0917
 3190W        W 7390   5.166   7.489  11.646 -0.0476  0.1013 -0.2126
 3191W        W 7391   1.236   4.872  12.992  0.3541 -0.0495  0.2503
 3192W        W 7392   1.281   4.615   2.121  0.1196 -0.3236 -0.2326
 3193W        W 7393  10.343   8.997  13.240  0.0691  0.1181 -0.0547
 3194W        W 7394   8.671   4.586  10.466 -0.0264 -0.2428  0.2245
 3195W        W 7395   0.475   7.776   2.313 -0.3882  0.2441  0.0557
 3196W        W 7396   7.657   3.668   9.065  0.0668 -0.2398  0.0311
 3197W        W 7397   6.281   2.327  10.877  0.0398 -0.1481 -0.0171
 3198W        W 7398   9.229   6.686  12.040 -0.0165 -0.1426 -0.5569
 3199W        W 7399   2.389   0.646   3.035 -0.1155 -0.3120 -0.2174
 3200W        W 7400   0.005   6.645   3.926 -0.0267  0.0228 -0.0924
 3201W        W 7401   7.898   9.811   3.388  0.0636  0.1066  0.1799
 3202W        W 7402   0.641   7.598   1.845 -0.1588  0.1816 -0.4673
 3203W        W 7403   1.520   0.235  12.117  0.2739  0.1833  0.0205
 3204W        W 7404   9.732   4.573   8.786  0.2148 -0.0559  0.0808
 3205W        W 7405   5.283   5.211   2.404  0.2165  0.1938 -0.0305
 3206W        W 7406   5.952   2.730  11.511 -0.1118 -0.0543  0.0589
 3207W        W 7407   8.789   8.590   9.060  0.0630  0.1249  0.0412
 3208W        W 7408   3.366   6.167   3.204 -0.0413  0.4955 -0.0715
 3209W        W 7409   2.100   2.526  12.026  0.0621  0.2104  0.0861
 3210W        W 7410   4.735  10.355   0.198  0.1761 -0.3680  0.0762
 3211W        W 7411   6.985   8.004  12.122 -0.1737  0.1838 -0.1968
 3212W        W 7412   2.932   0.487   9.842 -0.1170 -0.0537  0.0371
 3213W        W 7413   8.383   4.974   0.945  0.1892  0.1147 -0.0623
 3214W        W 7414   5.191   8.263   9.450  0.0199 -0.1057  0.0450
 3215W        W 7415   0.566   8.848  13.356  0.0126  0.0189 -0.1498
 3216W        W 7416   9.311   9.279  11.485 -0.0844 -0.0109 -0.0011
 3217W        W 7417   6.312   6.273   0.678 -0.1854  0.2285  0.4089
 3218W        W 7418   0.707   0.874   1.687 -0.3893 -0.1561  0.2507
 3219W        W 7419   8.561   1.494   1.970  0.0722 -0.1954  0.0902
 3220W        W 7420   4.289   7.535   3.756 -0.0297  0.2532 -0.2229
 3221W        W 7421   9.653   8.267  10.697 -0.3152 -0.4189 -0.0039
 3222W        W 7422   8.317   6.489  11.978  0.3001  0.0185 -0.1188
 3223W        W 7423   0.553   6.662  12.901 -0.2297 -0.3449  0.3194
 3224W        W 7424   4.310   3.523  10.225 -0.5065 -0.0405 -0.1432
 3225W        W 7425   8.219   0.434  13.033  0.2780  0.2208 -0.0789
 3226W        W 7426   6.088   2.760  10.230 -0.1261  0.2350 -0.0374
 3227W        W 7427   3.214   2.916  13.046  0.1558 -0.0629 -0.1941
 3228W        W 7428   8.468   2.919  11.986  0.1574 -0.0542 -0.2204
 3229W        W 7429   5.701   7.969   1.785  0.1498  0.1268 -0.1389
 3230W        W 7430   5.000   4.830   3.325 -0.1010  0.2061  0.1699
 3231W        W 7431   7.893   6.006   2.932 -0.2506  0.0537  0.0208
 3232W        W 7432   4.229   3.864   2.947  0.1990 -0.2770  0.1874
 3233W        W 7433   7.178   1.738   3.868  0.0757 -0.2155 -0.0262
 3234W        W 7434   5.000   7.475   8.491  0.1418  0.0971 -0.2674
 3235W        W 7435   0.581   4.414  11.016 -0.2432 -0.2055 -0.0094
 3236W        W 7436   8.919   3.026  12.984  0.0150 -0.0298  0.0254
 3237W        W 7437   1.286   4.189   4.159  0.0037 -0.2507  0.1959
 3238W        W 7438   8.372   2.704  11.506 -0.0506  0.3168 -0.0776
 3239W        W 7439   4.623   2.862   1.854 -0.2882  0.0469  0.1241
 3240W        W 7440   8.060   1.863   0.246 -0.2013  0.1431 -0.1764
 3241W        W 7441   3.736   9.490   4.411  0.0634  0.2811  0.3121
 3242W        W 7442   0.377   8.428  10.441  0.3942  0.0781  0.0004
 3243W        W 7443   0.743   6.938   9.716 -0.0877 -0.0138 -0.1697
 3244W        W 7444   5.936   9.465   9.786 -0.1505  0.2295  0.1362
 3245W        W 7445   2.977   8.481   0.186  0.1545  0.0819 -0.0334
 3246W        W 7446   1.104   2.072  10.258  0.4521  0.1943 -0.1784
 3247W        W 7447   4.679   7.648   1.066 -0.0967 -0.2141 -0.2268
 3248W        W 7448   5.412   3.487  11.034  0.1316  0.0459 -0.0994
 3249W        W 7449   2.263   1.794   4.749 -0.1041 -0.2224 -0.2026
 3250W        W 7450   5.080   4.826  13.006 -0.1482  0.2523 -0.0750
 3251W        W 7451   7.057   2.146   4.179 -0.4682 -0.1210  0.0264
 3252W        W 7452   1.392   6.016  12.257 -0.0591 -0.0711 -0.1110
 3253W        W 7453   8.232   3.466  13.084 -0.0315 -0.1283 -0.1374
 3254W        W 7454   5.655   3.051   1.944 -0.0375 -0.0302 -0.0365
 3255W        W 7455   1.910   9.188  13.422 -0.2931  0.0073 -0.0496
 3256W        W 7456   4.987   7.455   3.154 -0.0763  0.2399  0.0435
 3257W        W 7457   9.374   3.109  12.292  0.0446  0.0117  0.0925
 3258W        W 7458   8.700   7.522   2.510 -0.2947 -0.2960 -0.0092
 3259W        W 7459   1.937   7.600   9.950  0.1531 -0.2486  0.0313
 3260W        W 7460   6.246  10.411   9.229  0.0805  0.3115  0.0731
 3261W        W 7461   2.620   9.594  10.791 -0.1297  0.0154 -0.0293
 3262W        W 7462   1.475   9.688  10.920  0.0493 -0.1234  0.1757
 3263W        W 7463   0.050   2.837   1.659 -0.0476 -0.1825 -0.0104
 3264W        W 7464   4.873   6.439   9.423 -0.0922 -0.0593  0.0292
 3265W        W 7465   1.753  10.055   3.161 -0.2007 -0.1594 -0.0498
 3266W        W 7466   5.034   0.402  11.508  0.0862  0.0225  0.2357
 3267W        W 7467   5.858   4.180   4.643 -0.0347  0.0318 -0.2063
 3268W        W 7468   4.248   5.246   2.501 -0.0835 -0.0250  0.0894
 3269W        W 7469   0.682   9.008   0.618  0.0293  0.0101 -0.1534
 3270W        W 7470   1.400   0.521  11.586 -0.2493  0.0920  0.2009
 3271W        W 7471   9.480   8.680   2.716  0.2382  0.3456 -0.2682
 3272W        W 7472   2.763   5.551   1.275 -0.3536 -0.3186  0.0326
 3273W        W 7473   0.963   7.968   2.400 -0.2803  0.0153 -0.2059
 3274W        W 7474   4.670   7.240  12.018  0.2906  0.0180  0.0112
 3275W        W 7475   8.734   5.335  12.475  0.1332  0.0653  0.1478
 3276W        W 7476   6.185   8.710  13.088 -0.1076  0.0431  0.1439
 3277W        W 7477   9.112   0.918   0.584 -0.0914  0.1106 -0.0017
 3278W        W 7478   3.404   9.777   0.421 -0.2385  0.0727  0.1389
 3279W        W 7479   9.071   2.947   2.320 -0.0544 -0.1077 -0.4886
 3280W        W 7480   6.055  10.399   1.708  0.1616 -0.3752 -0.0655
 3281W        W 7481   8.697   5.041   2.541  0.2058  0.0649  0.0198
 3282W        W 7482   8.649  10.421  11.325 -0.0072  0.2132  0.0031
 3283W        W 7483   7.866   2.225   1.285 -0.2349 -0.0372 -0.1866
 3284W        W 7484   6.186   5.264   0.934 -0.2317 -0.0491  0.0053
 3285W        W 7485   9.594   2.212  11.244 -0.0179 -0.2806  0.0556
 3286W        W 7486   0.557   2.189   9.157 -0.1974 -0.2061 -0.2009
 3287W        W 7487   2.522   6.322  12.358  0.1211 -0.0837  0.1421
 3288W        W 7488   3.564   6.770   9.734  0.1523 -0.2986 -0.2159
 3289W        W 7489   3.201   9.264   4.842 -0.1974  0.0195  0.0777
 3290W        W 7490   7.070   1.765   3.354 -0.2282 -0.2013  0.0888
 3291W        W 7491   6.907   8.590   9.591 -0.0885 -0.1147  0.3324
 3292W        W 7492   0.301   2.147   2.897  0.0258  0.1610  0.0019
 3293W        W 7493  10.306   6.769   0.696  0.2350  0.0988 -0.0781
 3294W        W 7494   2.093   8.567  12.049 -0.1057  0.1327 -0.2352
 3295W        W 7495   0.145   2.501   1.055 -0.1594 -0.2170 -0.1918
 3296W        W 7496   5.660   0.243   1.569  0.0813  0.0406  0.3053
 3297W        W 7497   1.871   6.229  10.704  0.1788  0.1011 -0.3400
 3298W        W 7498   5.130   5.157   3.686  0.0061 -0.0767  0.0450
 3299W        W 7499   4.441   4.775   2.503 -0.1389  0.0099  0.1045
 3300W        W 7500   1.773   9.583  10.203 -0.0502 -0.3055  0.2070
 3301W        W 7501   6.543   9.335   2.061  0.0852 -0.0286 -0.1404
 3302W        W 7502   5.396  10.005   3.379  0.3292 -0.0591  0.0710
 3303W        W 7503   0.134   0.891  11.845  0.0734 -0.0153  0.1468
 3304W        W 7504   3.314   9.845  10.502 -0.2318  0.0596 -0.1201
 3305W        W 7505   1.877  10.317   4.561 -0.1836 -0.2038 -0.0331
 3306W        W 7506   1.993   3.787   1.316 -0.0394  0.1011 -0.1523
 3307W        W 7507   2.757   4.872  11.986 -0.2300 -0.0165  0.2794
 3308W        W 7508  10.325   6.813   8.999  0.0130 -0.2567 -0.1140
 3309W        W 7509   1.260   3.707   3.857  0.1206 -0.0703  0.0867
 3310W        W 7510   0.490   4.935  12.077 -0.4336 -0.1875 -0.3599
 3311W        W 7511   4.889   2.703   2.237 -0.2394  0.0339  0.0367
 3312W        W 7512   8.954   7.761  10.642  0.1892  0.2594 -0.3486
 3313W        W 7513   0.607   3.567   1.648  0.0693 -0.0554 -0.2312
 3314W        W 7514   7.193   1.435   0.112 -0.0792 -0.1501 -0.1078
 3315W        W 7515   8.594   0.772  11.400  0.0361 -0.0481  0.1384
 3316W        W 7516   5.427   3.144   9.414  0.3886 -0.0704 -0.0349
 3317W        W 7517   1.569  10.086  12.935 -0.0692 -0.0547  0.0703
 3318W        W 7518  10.339   8.472   2.580 -0.0464 -0.3788 -0.1518
 3319W        W 7519   3.575   2.640   0.491 -0.2138 -0.2412  0.0790
 3320W        W 7520   3.690   5.366   4.469 -0.2089 -0.3035  0.1497
 3321W        W 7521   7.218   2.379  12.492 -0.1549  0.1222  0.1883
 3322W        W 7522   4.495   4.043   0.170  0.0970 -0.0368 -0.3281
 3323W        W 7523   0.653  10.420   0.480 -0.2064 -0.4461 -0.1520
 3324W        W 7524   6.588   1.904   0.874  0.1521  0.1072 -0.1845
 3325W        W 7525   9.129   6.790   3.843  0.2435 -0.0853  0.0108
 3326W        W 7526   7.888   9.743   4.403 -0.1350  0.0758 -0.0072
 3327W        W 7527   7.422   3.708   1.350  0.0747  0.0314 -0.1943
 3328W        W 7528   9.246   5.455  10.322  0.1397 -0.5127 -0.3332
 3329W        W 7529   1.699   0.578  10.864 -0.3081  0.3728  0.1914
 3330W        W 7530   4.438   5.444   2.991  0.0509 -0.0196  0.1737
 3331W        W 7531   1.331   4.195  10.189 -0.0740 -0.0929 -0.0699
 3332W        W 7532  10.142   0.061   1.799 -0.0573  0.1320  0.1025
 3333W        W 7533   8.094   3.181  12.692  0.0966  0.0579  0.2767
 3334W        W 7534   3.921   4.576   3.915  0.0673 -0.0194 -0.2166
 3335W        W 7535   8.558   6.614  12.820  0.0986 -0.3410 -0.1457
 3336W        W 7536  10.331   6.990   0.130  0.2889  0.1170  0.1018
 3337W        W 7537   4.117   3.989  12.364 -0.0699 -0.0121  0.0988
 3338W        W 7538   0.166   0.999   9.132  0.1945  0.2470  0.0711
 3339W        W 7539   5.766   8.911  10.933 -0.0255 -0.1266 -0.1713
 3340W        W 7540   5.602   5.040   4.718 -0.1263  0.5933 -0.1889
 3341W        W 7541   4.132   0.500  10.420 -0.2298  0.0314 -0.0871
 3342W        W 7542   2.931   1.845   2.684 -0.2931  0.1133  0.2512
 3343W        W 7543  10.306   3.771   0.268  0.0371 -0.0010 -0.1519
 3344W        W 7544   0.398   1.571  12.874 -0.1244  0.0037 -0.2417
 3345W        W 7545   1.818   5.917   9.711 -0.1659 -0.0732 -0.3074
 3346W        W 7546   7.694   3.269  11.409  0.3863  0.0638  0.1819
 3347W        W 7547   5.818   6.943   5.622 -0.0376  0.0648 -0.1126
 3348W        W 7548   1.512   3.531   0.039 -0.1262  0.1811  0.0495
 3349W        W 7549   4.173   5.842   0.414 -0.0951 -0.0534  0.0695
 3350W        W 7550   0.379   7.637   0.592 -0.1610 -0.3421  0.0052
 3351W        W 7551   1.459   5.671  11.906  0.0436 -0.3274  0.1189
 3352W        W 7552   5.497   7.158  13.339 -0.2206 -0.0499 -0.1614
 3353W        W 7553   0.393   0.106  10.262 -0.1123 -0.1531 -0.1956
 3354W        W 7554  10.252   6.264  11.836 -0.0637 -0.2710 -0.0103
 3355W        W 7555   0.258   5.621   1.276 -0.0988 -0.1139  0.2640
 3356W        W 7556   4.990   3.521   9.737  0.0324  0.1538 -0.3578
 3357W        W 7557   6.178   5.622  12.451 -0.0793 -0.0039  0.1068
 3358W        W 7558   0.089   8.172  10.094 -0.3906 -0.0640 -0.0975
 3359W        W 7559   9.609   1.051   4.052 -0.1041  0.3857  0.1565
 3360W        W 7560  10.185   6.997   3.546  0.1255 -0.1048  0.1102
 3361W        W 7561   6.015   1.756  12.260 -0.0094  0.0615 -0.1445
 3362W        W 7562   9.228   7.216  13.368  0.0331 -0.0446  0.2582
 3363W        W 7563   6.102   6.776   8.558 -0.1530  0.1277 -0.0734
 3364W        W 7564   6.172   9.403   1.756 -0.0621 -0.2348  0.0385
 3365W        W 7565   5.025   5.661   3.668 -0.0715 -0.1989 -0.2948
 3366W        W 7566   7.683  10.139   1.692 -0.1232 -0.3004 -0.0165
 3367W        W 7567   8.218   1.414  10.033 -0.0859  0.1517 -0.1438
 3368W        W 7568   5.250   0.833  11.377  0.1818 -0.2698  0.2986
 3369W        W 7569   8.814   3.464   0.497 -0.1841  0.1799  0.0146
 3370W        W 7570   6.005   0.475  10.710 -0.1123  0.2530 -0.1589
 3371W        W 7571   7.821   6.773  10.798  0.0910  0.2059  0.0245
 3372W        W 7572   7.614   7.657   0.757 -0.1456 -0.0500 -0.1591
 3373W        W 7573   4.602   9.789   4.196 -0.1586  0.1272  0.5925
 3374W        W 7574   2.374   2.734   3.836 -0.4045 -0.2252  0.2046
 3375W        W 7575   9.279   9.174   9.518  0.1745  0.0370  0.0563
 3376W        W 7576   4.609   0.364  10.229 -0.0212 -0.1729 -0.2222
 3377W        W 7577   3.986   1.394  12.341 -0.2369  0.1193 -0.0521
 3378W        W 7578   2.565   8.552   3.660  0.3197 -0.1334  0.0805
 3379W        W 7579   9.216   9.622   2.533 -0.0474 -0.1174  0.2450
 3380W        W 7580   6.417   1.447   3.136 -0.0337  0.0264 -0.1752
 3381W        W 7581   0.097   5.539   0.255 -0.1901  0.1573 -0.0652
 3382W        W 7582   6.599   3.748  12.085  0.0158  0.1279 -0.0559
 3383W        W 7583   3.432   2.298  12.061  0.0599  0.0306  0.0091
 3384W        W 7584   2.933   0.207   3.950  0.0985  0.1764  0.1869
 3385W        W 7585   9.694   7.620  11.804 -0.2809  0.0425  0.0913
 3386W        W 7586   3.540   8.771   0.712 -0.0444  0.1432  0.1827
 3387W        W 7587   4.050   7.537   9.828  0.1226  0.0770 -0.1286
 3388W        W 7588   2.733   2.332   1.858  0.2232  0.2514 -0.3463
 3389W        W 7589   2.806   9.910   4.414  0.0565  0.3253 -0.1563
 3390W        W 7590   1.772   6.571  13.368  0.0177 -0.1618 -0.0578
 3391W        W 7591   2.064   8.395   1.000  0.2491 -0.1837 -0.1337
 3392W        W 7592   9.920   4.659   0.989  0.1745 -0.3667 -0.3342
 3393W        W 7593   7.607   9.111  10.304 -0.2516  0.1933  0.0647
 3394W        W 7594   5.076   7.931   2.944 -0.1061  0.1818 -0.0625
 3395W        W 7595   6.980   5.738   4.111  0.0207 -0.0199  0.1462
 3396W        W 7596  10.483   3.282  11.665  0.0051 -0.0796 -0.0386
 3397W        W 7597   4.199   3.969   9.479 -0.0232 -0.0789 -0.0115
 3398W        W 7598   4.309   8.480   3.177 -0.2149 -0.1109  0.1159
 3399W        W 7599   7.135   3.604   9.782 -0.0198 -0.0397 -0.0586
 3400W        W 7600   4.873   4.828   9.289 -0.0134 -0.1405 -0.2811
 3401W        W 7601  10.277  10.230  11.608  0.0247  0.1008  0.0422
 3402W        W 7602   0.130   0.679   1.129 -0.1270  0.2877 -0.1911
 3403W        W 7603   6.080   8.746  11.318 -0.0271 -0.1836  0.2218
 3404W        W 7604   4.800   5.936  13.232 -0.1590  0.2648  0.0066
 3405W        W 7605   0.959   8.203   0.593 -0.2357  0.0596 -0.0668
 3406W        W 7606   2.742   0.952   1.878 -0.0325 -0.3532  0.1302
 3407W        W 7607   8.471   4.423   4.977 -0.2089 -0.0606  0.0423
 3408W        W 7608   2.457   9.485  11.634 -0.0566  0.2494  0.1163
 3409W        W 7609   0.357   5.074   9.404 -0.1402 -0.3590  0.1898
 3410W        W 7610   9.404   9.094  11.953 -0.0645  0.3674 -0.3163
 3411W        W 7611   7.934   6.160   4.196 -0.0710 -0.1453  0.0493
 3412W        W 7612   8.810  10.365  10.824 -0.2862  0.1116 -0.0421
 3413W        W 7613   8.923   0.858  10.133 -0.5120  0.0563  0.2520
 3414W        W 7614   9.656   3.764  12.083 -0.0211  0.1061  0.0934
 3415W        W 7615   7.113   8.486   0.661 -0.3689  0.1334  0.0945
 3416W        W 7616   6.654   3.881  10.782 -0.1166 -0.2151  0.0506
 3417W        W 7617   3.873   6.535   0.946 -0.1887  0.1345  0.3648
 3418W        W 7618   1.427   9.259  13.370  0.2216  0.0078  0.2571
 3419W        W 7619   1.536   2.528   0.056  0.1724  0.0486 -0.0279
 3420W        W 7620   7.545   4.831   9.869 -0.0027 -0.1482 -0.0693
 3421W        W 7621   7.720   9.085   1.374  0.0363  0.4027 -0.2926
 3422W        W 7622   6.774   3.860   4.522  0.2170  0.2245 -0.0761
 3423W        W 7623   6.420  10.170   1.402 -0.1876 -0.0991 -0.0246
 3424W        W 7624   2.192   1.302   3.699 -0.1261  0.1489 -0.3094
 3425W        W 7625   0.593   9.615   5.182  0.0915  0.0940  0.2551
 3426W        W 7626   1.779   9.199   0.559  0.1915 -0.1342 -0.0534
 3427W        W 7627   7.439   0.304   3.461 -0.2214  0.0313  0.3707
 3428W        W 7628   3.330   5.056   9.204 -0.1948  0.1694 -0.1154
 3429W        W 7629   1.632   1.636   2.590 -0.2991  0.2148  0.0484
 3430W        W 7630   2.357   0.140   5.434 -0.3874 -0.0303  0.0264
 3431W        W 7631   3.783   6.240  10.626 -0.1089 -0.1025  0.0260
 3432W        W 7632   1.134   5.538   2.402  0.2081  0.1306  0.1613
 3433W        W 7633   3.743   1.480  13.054  0.3044  0.1501  0.0152
 3434W        W 7634   0.594  10.272  12.169  0.1401  0.3410  0.0550
 3435W        W 7635   4.377   7.195   9.283 -0.0295 -0.1592  0.3962
 3436W        W 7636   3.233   5.382  13.288  0.1214 -0.0658 -0.3887
 3437W        W 7637   4.609   5.723  12.755 -0.3676  0.0548  0.1468
 3438W        W 7638   1.739   3.841  11.670  0.1793  0.2054 -0.1565
 3439W        W 7639   3.860   3.278   4.249 -0.1355  0.3657 -0.1011
 3440W        W 7640   8.477   9.132   2.846 -0.1608  0.2129 -0.3283
 3441W        W 7641   2.785  10.323  13.088  0.2677  0.1111 -0.0159
 3442W        W 7642   9.811   8.567   3.981 -0.2548  0.2449  0.1224
 3443W        W 7643   7.864   1.837   0.788 -0.3146  0.0636  0.2651
 3444W        W 7644   1.057   4.375   2.564 -0.0932 -0.1993 -0.2516
 3445W        W 7645   0.172   0.369   0.758 -0.1978 -0.2281  0.1835
 3446W        W 7646   2.328   1.738   0.662  0.0829 -0.2240 -0.1351
 3447W        W 7647   6.350   1.719  13.024 -0.0055  0.1991 -0.1149
 3448W        W 7648   3.512   4.035   1.012 -0.1827  0.1452  0.1574
 3449W        W 7649   2.743   3.211   4.774  0.3133  0.1204 -0.0030
 3450W        W 7650   6.731   9.993   9.782  0.1649 -0.0941  0.0074
 3451W        W 7651   8.950   4.059  11.599  0.1270  0.4733 -0.3280
 3452W        W 7652   1.744   9.271   3.481  0.1759  0.0314 -0.1169
 3453W        W 7653   7.510   5.721   4.902  0.2263 -0.0477 -0.0636
 3454W        W 7654   4.841   6.032  11.091  0.2011 -0.0519  0.0310
 3455W        W 7655   0.268   8.616   9.406 -0.2183 -0.1888  0.0058
 3456W        W 7656   7.926   4.466   9.757  0.1059 -0.1390  0.0209
 3457W        W 7657   6.139   6.994   3.092 -0.2172 -0.3382 -0.0578
 3458W        W 7658   3.569   8.049  12.916 -0.1304  0.1034 -0.1879
 3459W        W 7659   8.754   2.334  10.654 -0.0524  0.1117  0.2198
 3460W        W 7660   8.645   5.436  12.982 -0.3483  0.1974  0.2043
 3461W        W 7661   1.518   1.895  10.926 -0.1334  0.1183 -0.0411
 3462W        W 7662   1.707   1.377  10.726  0.0001  0.1999  0.1663
 3463W        W 7663   3.931   4.777  13.087  0.0208 -0.1439  0.1663
 3464W        W 7664   8.255   9.544  12.226  0.0933  0.0274 -0.1337
 3465W        W 7665   8.170   1.563   3.715 -0.3249  0.0493 -0.1567
 3466W        W 7666   4.403   5.313  11.345 -0.2720  0.2625  0.0104
 3467W        W 7667   4.397   1.099  12.490  0.0259 -0.2903 -0.0564
 3468W        W 7668   9.538   4.361   9.496  0.1599 -0.0744  0.1241
 3469W        W 7669   1.631   5.591   3.738  0.0287  0.0189 -0.0636
 3470W        W 7670   0.694   8.681  10.740  0.1881  0.1339 -0.3358
 3471W        W 7671   3.826   5.139   5.525  0.0208 -0.0869  0.0748
 3472W        W 7672   7.684   9.097   0.799 -0.1183  0.0876 -0.1088
 3473W        W 7673   9.026   9.349   0.114 -0.1183  0.0524 -0.1206
 3474W        W 7674   3.721   8.878  11.790 -0.1469  0.0429 -0.3879
 3475W        W 7675   9.208   8.698   9.328  0.0593 -0.0230  0.2557
 3476W        W 7676   6.298   6.741   4.529  0.2654 -0.0126 -0.2880
 3477W        W 7677   7.522   9.890  12.945 -0.0878  0.0346  0.3866
 3478W        W 7678   3.632   1.253   0.972 -0.0423 -0.3052  0.2663
 3479W        W 7679   1.235   0.725   3.791 -0.0879  0.1934 -0.2132
 3480W        W 7680   0.254  10.251   1.130  0.1600 -0.6990  0.2722
 3481W        W 7681   3.527   2.339   2.471 -0.2080  0.1776  0.0042
 3482W        W 7682   3.156   0.253   4.900  0.1773 -0.0415 -0.0047
 3483W        W 7683   0.135   8.358  11.651 -0.1316 -0.0123 -0.4086
 3484W        W 7684   1.743   9.951   2.144 -0.1514  0.0250 -0.0847
 3485W        W 7685   2.673   9.033   2.730 -0.2854 -0.4473  0.0927
 3486W        W 7686   4.190   3.493  10.748 -0.0645  0.0388 -0.0541
 3487W        W 7687   6.511   5.333  11.032 -0.0167  0.1257  0.1546
 3488W        W 7688   4.009   9.742   2.107  0.3642 -0.0827  0.0653
 3489W        W 7689   0.770   3.434   3.157  0.0134  0.1081 -0.0121
 3490W        W 7690   5.942   9.135  10.255 -0.0497 -0.3138 -0.1724
 3491W        W 7691   2.015   5.369  11.587  0.0772 -0.0374  0.0709
 3492W        W 7692   7.723   8.758   3.343  0.0054 -0.0272  0.0111
 3493W        W 7693   8.818   5.572   4.924 -0.0690 -0.3090 -0.1813
 3494W        W 7694   7.406   7.113  12.496 -0.1256 -0.0971  0.0991
 3495W        W 7695   7.018   3.436  10.764  0.2331 -0.0897 -0.1173
 3496W        W 7696   9.437   6.426  11.667  0.0873  0.2616  0.0633
 3497W        W 7697   5.821   4.199   2.466 -0.0969  0.0301  0.1156
 3498W        W 7698   0.118   8.564   0.898 -0.1665  0.2692  0.2820
 3499W        W 7699   6.865  10.025   2.620 -0.1048 -0.2573 -0.1801
 3500W        W 7700   6.276   2.082   9.509 -0.3445 -0.2113 -0.0353
 3501W        W 7701   7.963   7.685  10.292  0.1772 -0.1370  0.1744
 3502W        W 7702   7.856   1.863   2.790  0.0014 -0.2976  0.0839
 3503W        W 7703   5.268   1.150   3.140  0.0391  0.0714  0.1904
 3504W        W 7704   8.108   6.014   9.224  0.2682 -0.0950 -0.2593
 3505W        W 7705   1.047   9.623   1.889  0.0100 -0.0451  0.0973
 3506W        W 7706   6.877   8.392   8.959 -0.0637 -0.1165  0.2464
 3507W        W 7707  10.019   6.450  10.910  0.0769 -0.1926 -0.0150
 3508W        W 7708   9.778   1.311  11.471  0.1778 -0.1421 -0.3227
 3509W        W 7709   9.537   5.494   4.419 -0.2092 -0.2574  0.2796
 3510W        W 7710   9.816   9.447   1.273  0.0951 -0.0629 -0.2018
 3511W        W 7711   7.903   9.804   2.789 -0.0367  0.0140 -0.2957
 3512W        W 7712   0.699   9.030  11.116  0.1040 -0.1699 -0.0108
 3513W        W 7713   2.531   8.392   1.215  0.4010 -0.2304  0.1487
 3514W        W 7714   6.820   9.364   8.560  0.2718 -0.1466 -0.2414
 3515W        W 7715   6.770   2.710  13.120  0.2982 -0.1019  0.0045
 3516W        W 7716   4.724   1.084   8.600 -0.1458  0.1331  0.0468
 3517W        W 7717   3.211   4.396  13.329 -0.1458 -0.1694 -0.0463
 3518W        W 7718   0.594   9.258  10.741 -0.2701  0.6358  0.0837
 3519W        W 7719  10.292   9.663   3.307 -0.1670 -0.1168  0.1202
 3520W        W 7720   3.043   4.591  12.810 -0.1731 -0.0613  0.0406
 3521W        W 7721   1.048   6.052  13.248 -0.4239  0.2799  0.2549
 3522W        W 7722   0.245   8.907  11.898 -0.1644 -0.0898 -0.0977
 3523W        W 7723   8.526   5.753  11.220  0.0045 -0.2847  0.2364
 3524W        W 7724   8.241   7.913   4.460  0.0925 -0.0645 -0.3277
 3525W        W 7725   0.265   9.210   4.237  0.1381 -0.2208 -0.2641
 3526W        W 7726   6.000   0.118   0.802  0.1256 -0.0027  0.1102
 3527W        W 7727   3.148   2.795   2.125 -0.1251  0.0194  0.0484
 3528W        W 7728   7.939   9.706  10.027  0.0907 -0.0570  0.0558
 3529W        W 7729   3.243   5.456   8.937  0.1956 -0.0147  0.3015
 3530W        W 7730   7.244   4.131  12.608 -0.1539  0.1168 -0.0482
 3531W        W 7731   8.714   1.217  11.534 -0.2095 -0.2611  0.1225
 3532W        W 7732   4.956   5.554   2.956 -0.0213  0.0838 -0.2077
 3533W        W 7733   8.006   1.011  12.270  0.2097 -0.0998 -0.1503
 3534W        W 7734   0.642   9.393   2.049  0.1113  0.2223 -0.0325
 3535W        W 7735   7.655   3.020   4.240 -0.1014  0.0263 -0.0555
 3536W        W 7736   4.877   1.179   1.855 -0.1349 -0.0731  0.0024
 3537W        W 7737   2.521   6.885   4.194  0.0278 -0.0760  0.2100
 3538W        W 7738   2.549   6.551  11.932  0.2087 -0.2231 -0.0290
 3539W        W 7739   7.477   3.723  10.818 -0.0722 -0.3503  0.0476
 3540W        W 7740   5.326   5.037   2.958  0.1709 -0.0717  0.2650
 3541W        W 7741   3.821   6.675  11.885 -0.2385  0.2909  0.0809
 3542W        W 7742   9.563   8.601  11.705  0.1576  0.0139  0.0687
 3543W        W 7743   6.899   8.169   2.170  0.1738 -0.3440 -0.0809
 3544W        W 7744   6.991   9.487  10.514  0.0965 -0.0723 -0.0302
 3545W        W 7745  10.347   9.791  10.106 -0.2122  0.2134  0.0552
 3546W        W 7746   0.676   8.816  12.184 -0.0299  0.1576 -0.1405
 3547W        W 7747   2.243   7.922   8.943 -0.0547 -0.1236 -0.0702
 3548W        W 7748   8.569   2.111  11.618 -0.0428 -0.1622  0.3290
 3549W        W 7749   0.388   6.140   8.111 -0.1381  0.0698 -0.2524
 3550W        W 7750   2.208   4.278   2.161 -0.1997  0.3859  0.0229
 3551W        W 7751   4.217   5.684   1.470  0.1097  0.2668 -0.0818
 3552W        W 7752   7.750   6.633   1.667  0.1878 -0.0015  0.0722
 3553W        W 7753   9.938   1.306   0.931  0.0401  0.0312 -0.1328
 3554W        W 7754   1.691   1.522   0.054  0.1811 -0.1562 -0.0365
 3555W        W 7755   5.713   8.791  12.176  0.0105  0.2869  0.0438
 3556W        W 7756   1.083   6.176   3.320 -0.1204  0.2183  0.0661
 3557W        W 7757   6.621   1.513   2.226 -0.0659  0.1100  0.1788
 3558W        W 7758   6.953   0.843  10.320 -0.1289  0.2646 -0.2086
 3559W        W 7759   6.831   0.804   3.973 -0.0525 -0.1405 -0.0293
 3560W        W 7760   8.537   6.296   8.773 -0.0092  0.0320  0.2473
 3561W        W 7761   7.655   4.016   1.658 -0.1832 -0.0157 -0.0631
 3562W        W 7762   5.713   1.623   0.922  0.0847 -0.0700  0.0447
 3563W        W 7763   2.545   0.953   3.492 -0.0903  0.1806  0.1366
 3564W        W 7764   7.681   5.963  11.517  0.1583 -0.0831 -0.0807
 3565W        W 7765   9.050   1.322   1.792  0.1989 -0.4001 -0.1742
 3566W        W 7766   2.840   5.162   2.255  0.1609 -0.0135 -0.1740
 3567W        W 7767   8.945  10.400   9.868 -0.0518 -0.1162 -0.4953
 3568W        W 7768   0.116   9.856   1.689  0.0411 -0.0255  0.0049
 3569W        W 7769   6.213   5.339  11.504  0.1723 -0.1260 -0.2927
 3570W        W 7770   4.757   3.142   9.927  0.2429  0.1144  0.1322
 3571W        W 7771   4.104   2.346   4.200  0.1537 -0.2017 -0.3059
 3572W        W 7772   7.320   6.895  10.624 -0.1175  0.0794  0.2410
 3573W        W 7773   5.781   2.699   1.591  0.1871  0.1343  0.0124
 3574W        W 7774   9.288   3.869   2.270 -0.1642 -0.5003  0.0893
 3575W        W 7775   2.395   9.452   1.263  0.0101  0.0863 -0.1870
 3576W        W 7776   8.730   2.972   0.308  0.1838 -0.2026 -0.0921
 3577W        W 7777   6.920  10.225   1.065  0.0231 -0.4060 -0.2431
 3578W        W 7778   4.218   1.765   1.931 -0.0086  0.1454 -0.0184
 3579W        W 7779   5.128   5.137   0.003 -0.3643 -0.0527  0.0782
 3580W        W 7780   3.979   0.632   8.946 -0.0742 -0.0439  0.3107
 3581W        W 7781   4.700   7.169   1.309 -0.0109 -0.2640 -0.1603
 3582W        W 7782   8.888   7.005  10.166  0.1712 -0.0479  0.0688
 3583W        W 7783   6.719   3.557   0.596 -0.1096 -0.1970  0.3328
 3584W        W 7784   7.393   0.784   2.915  0.2957 -0.1242  0.1417
 3585W        W 7785   2.684   9.719   9.197 -0.1413  0.1874 -0.2025
 3586W        W 7786   9.349   1.139   2.477 -0.0498  0.0571 -0.0090
 3587W        W 7787   9.903   4.863  11.696  0.0153 -0.1892 -0.3078
 3588W        W 7788   2.097   5.423  12.385 -0.3265 -0.2246 -0.0261
 3589W        W 7789   1.302   0.406   1.402  0.0492  0.1301 -0.1940
 3590W        W 7790   1.280  10.357   1.544 -0.1006 -0.3505  0.4048
 3591W        W 7791   0.635   9.042   2.424 -0.4774  0.0097  0.3444
 3592W        W 7792   9.877   4.196  12.973  0.0039  0.0382  0.0455
 3593W        W 7793   9.176   1.541   1.321 -0.3387  0.0596  0.1112
 3594W        W 7794   8.064   8.529  11.688 -0.2137 -0.0229  0.0887
 3595W        W 7795   8.561   5.900   3.568  0.0033 -0.2619 -0.1036
 3596W        W 7796   0.669   0.819  10.977  0.0927  0.2178 -0.0117
 3597W        W 7797   3.756   9.058  10.842  0.0572 -0.1232  0.0862
 3598W        W 7798  10.118   0.688   0.952  0.0965  0.0186 -0.0520
 3599W        W 7799   9.803   3.841   2.955 -0.1074 -0.1803  0.0317
 3600W        W 7800   5.750   2.567   3.885  0.0854  0.1866 -0.1226
 3601W        W 7801   5.121   2.468   0.562 -0.0101 -0.1979  0.1644
 3602W        W 7802   6.856   0.632  10.822  0.2657  0.1743  0.0189
 3603W        W 7803   5.474   3.158   3.380  0.4199 -0.2759  0.0741
 3604W        W 7804   8.619   0.934   0.428  0.0333  0.0937 -0.0497
 3605W        W 7805   0.871   1.627   0.663 -0.1383 -0.2904 -0.0437
 3606W        W 7806   5.591   2.866  11.818  0.0312 -0.1990  0.0939
 3607W        W 7807   6.429   6.947   4.063 -0.1069  0.0942 -0.1812
 3608W        W 7808   9.925  10.073   0.543 -0.2786  0.2832  0.1161
 3609W        W 7809   2.210   2.920   9.584  0.0555 -0.0935 -0.0536
 3610W        W 7810   1.473   1.163   2.810 -0.2571 -0.1862 -0.1957
 3611W        W 7811   7.199   1.206   9.382 -0.2462 -0.1070  0.2206
 3612W        W 7812   6.967   4.279  11.041  0.3429  0.1441 -0.0641
 3613W        W 7813   9.798   2.875   3.078 -0.0906  0.1238 -0.0783
 3614W        W 7814   6.113   0.196  11.404 -0.1424 -0.2896 -0.1603
 3615W        W 7815   0.214   6.410  11.215 -0.0237  0.0746  0.5812
 3616W        W 7816   9.199   2.029  11.999 -0.1204  0.1398 -0.2369
 3617W        W 7817  10.082   8.835   9.982  0.2502 -0.2303 -0.3396
 3618W        W 7818   2.628   3.684   3.451  0.1149  0.3019 -0.1027
 3619W        W 7819   1.549   5.463   1.450 -0.0288  0.2711  0.1033
 3620W        W 7820   3.985   8.396  11.883 -0.0397  0.0048 -0.0616
 3621W        W 7821   0.245   2.022  13.276  0.2576  0.1670 -0.2533
 3622W        W 7822   8.727   2.345   1.854 -0.3783  0.1449 -0.0766
 3623W        W 7823   1.702   0.757   4.035 -0.1386 -0.1756  0.1397
 3624W        W 7824   9.269   9.370   0.648 -0.0056  0.3527  0.3395
 3625W        W 7825   1.114   6.654  10.690  0.1007 -0.2139 -0.3721
 3626W        W 7826  10.003   5.960  10.571 -0.0271 -0.2293  0.1477
 3627W        W 7827   3.426   3.298  10.287  0.0089  0.0948  0.0022
 3628W        W 7828   7.560   2.952  11.764  0.1619  0.3832 -0.1157
 3629W        W 7829   7.224   0.360  12.831  0.1787  0.0923  0.2053
 3630W        W 7830   2.264   7.305  12.316  0.1613 -0.1912  0.0391
 3631W        W 7831   4.729   4.442   3.346  0.0972  0.0734  0.0623
 3632W        W 7832   8.416   1.572   3.027 -0.0394 -0.1846  0.3911
 3633W        W 7833   3.528   4.777   2.070  0.1346  0.4473  0.1195
 3634W        W 7834   3.516   5.700  13.107 -0.0563 -0.0434  0.2785
 3635W        W 7835   2.663   3.037  10.747  0.0897  0.0542  0.0501
 3636W        W 7836   5.871  10.221   4.288  0.0509 -0.1115  0.2883
 3637W        W 7837   3.286   0.196  13.387 -0.2103  0.1853 -0.0178
 3638W        W 7838   5.681   6.268   2.593 -0.6273 -0.0677  0.1529
 3639W        W 7839   6.410   5.973   1.496 -0.2035  0.0697  0.0266
 3640W        W 7840   2.060   6.639  11.831 -0.2482 -0.1700 -0.0801
 3641W        W 7841   8.894   2.518  12.896  0.0665  0.1417  0.1607
 3642W        W 7842   1.655   6.316  11.830 -0.0718  0.0653  0.1048
 3643W        W 7843   9.296   4.413   2.219 -0.3570 -0.1811 -0.0254
 3644W        W 7844   3.740   0.954  10.880 -0.0184 -0.0363 -0.0658
 3645W        W 7845   3.415   0.372   3.969 -0.0666 -0.3020 -0.1451
 3646W        W 7846   2.974   5.608  11.445 -0.1224  0.0583  0.0257
 3647W        W 7847  10.473  10.063   9.713 -0.3260  0.4810  0.1880
 3648W        W 7848   8.661   7.169   4.068 -0.1637 -0.4064 -0.0126
 3649W        W 7849   0.896   0.763  11.486  0.2152  0.0766  0.2887
 3650W        W 7850   3.759   3.727   0.547 -0.0306  0.2342  0.1031
 3651W        W 7851   6.587   4.336  13.387 -0.2299 -0.2557  0.1392
 3652W        W 7852   7.683   1.619  12.788 -0.1711 -0.0595  0.0548
 3653W        W 7853   0.291   8.278   2.287  0.0415 -0.0929 -0.0124
 3654W        W 7854   5.560   0.598  13.132 -0.3332 -0.1378  0.2126
 3655W        W 7855   1.117   9.331  10.995 -0.3294  0.0178  0.0544
 3656W        W 7856   5.247   9.334   1.406 -0.1813 -0.0343  0.1891
 3657W        W 7857   6.484   9.776   0.206  0.1413  0.1412  0.0848
 3658W        W 7858   2.628   7.680   0.664 -0.0516 -0.2280 -0.3462
 3659W        W 7859   8.792   7.526  10.183 -0.0680  0.1468  0.2074
 3660W        W 7860   6.011  10.142   2.580 -0.1195  0.1636 -0.1664
 3661W        W 7861   4.751   4.357   1.125 -0.2731 -0.0535 -0.0913
 3662W        W 7862   0.307   1.759   3.705  0.0098 -0.1362 -0.3545
 3663W        W 7863   1.710   4.954  11.640  0.0850  0.0443  0.0124
 3664W        W 7864   8.807   7.587   4.462 -0.0943 -0.0274 -0.1596
 3665W        W 7865   7.848   6.657  12.025 -0.1391 -0.0043  0.4039
 3666W        W 7866   5.476   7.615  10.509 -0.1824 -0.0838 -0.0649
 3667W        W 7867   3.736   4.379  10.088 -0.1297 -0.4182  0.0595
 3668W        W 7868   8.652   5.042  11.974 -0.1080  0.0641  0.1371
 3669W        W 7869   5.425   2.388   2.882 -0.0101 -0.1022  0.0485
 3670W        W 7870   6.975   3.669  12.550  0.3760 -0.0497 -0.1656
 3671W        W 7871   2.067   9.612   0.756  0.0817 -0.0705 -0.1727
 3672W        W 7872  10.137   7.200  10.676 -0.1015 -0.0609  0.3233
 3673W        W 7873   8.714   8.862  10.404 -0.0722  0.0882  0.0461
 3674W        W 7874   9.106   9.594  12.808 -0.0884 -0.2312 -0.3184
 3675W        W 7875   7.786   0.203   1.192 -0.0766 -0.0709 -0.0688
 3676W        W 7876   7.322   9.655   1.878  0.1114 -0.0789 -0.1055
 3677W        W 7877   7.755   8.302  11.333  0.1257 -0.3496 -0.0697
 3678W        W 7878   5.838   1.019   1.784  0.1885 -0.0683  0.1084
 3679W        W 7879   0.151   3.048  13.259 -0.1483 -0.3453 -0.0417
 3680W        W 7880   9.148   9.611   3.677  0.2711  0.2921 -0.2229
 3681W        W 7881   9.071   3.123   3.403  0.0696 -0.0884 -0.2083
 3682W        W 7882   3.446   1.390  12.254  0.2096 -0.1004  0.0886
 3683W        W 7883   9.746   9.378  11.277  0.1688  0.0205 -0.0956
 3684W        W 7884   2.626   0.502   9.480 -0.1836 -0.2333  0.4191
 3685W        W 7885   7.390   8.215   4.373 -0.1193  0.0635 -0.1308
 3686W        W 7886   4.476   7.309   9.751 -0.0448  0.3331  0.1233
 3687W        W 7887   6.745   8.347  11.269 -0.1643 -0.4828 -0.0435
 3688W        W 7888   9.578   6.190  10.957  0.1865  0.4599  0.0121
 3689W        W 7889   4.431   8.843   4.423  0.1653  0.0466 -0.1801
 3690W        W 7890   9.678   3.668  13.214  0.4650  0.0378  0.0713
 3691W        W 7891   2.007   0.298  12.804  0.2796 -0.2881  0.3047
 3692W        W 7892   7.473   4.556   1.628  0.0816 -0.1898  0.1310
 3693W        W 7893   0.722   3.551   9.423  0.1587  0.1655  0.0161
 3694W        W 7894   0.323   7.261   9.451 -0.1803  0.2794 -0.1623
 3695W        W 7895   5.926   2.269   9.235 -0.2547  0.1300 -0.1312
 3696W        W 7896   4.000   2.529   0.703 -0.2069 -0.0964  0.0893
 3697W        W 7897   8.977   2.404   0.290 -0.0397 -0.0344 -0.3364
 3698W        W 7898   9.306   1.483  12.816 -0.0110 -0.0108  0.1222
 3699W        W 7899   7.912  10.246   9.937  0.2329  0.0986 -0.2067
 3700W        W 7900   9.027   8.264   1.792 -0.2423  0.2219 -0.1442
 3701W        W 7901   3.219   4.246   9.925 -0.2457  0.1158 -0.1151
 3702W        W 7902   7.042   4.200  10.429 -0.4277 -0.1827 -0.2925
 3703W        W 7903   5.309   7.651   1.720 -0.2325  0.1029  0.0601
 3704W        W 7904   7.797   0.309   3.862 -0.2687  0.0675 -0.3449
 3705W        W 7905   6.707   5.278  13.136 -0.0429  0.0284  0.0318
 3706W        W 7906   2.701  10.428   3.581  0.0807 -0.2504 -0.0399
 3707W        W 7907   0.221   4.988   0.762 -0.1502  0.2089  0.1702
 3708W        W 7908   7.580   6.197  12.377  0.2101  0.2348 -0.0146
 3709W        W 7909   6.233   8.381   0.391  0.1837  0.0764  0.1549
 3710W        W 7910   0.423   6.682   2.115 -0.2153  0.1762  0.1341
 3711W        W 7911   7.863   7.574   1.371  0.0549 -0.0424  0.0904
 3712W        W 7912   7.771   4.594   0.028  0.3129 -0.0751  0.0838
 3713W        W 7913   1.472   3.934  12.085  0.0167 -0.4794  0.1381
 3714W        W 7914   2.983   0.544   2.172  0.2731  0.1354  0.1698
 3715W        W 7915   6.177   2.848   2.862 -0.0657  0.1971  0.1606
 3716W        W 7916   5.353   7.396  12.195  0.4471  0.2186  0.0808
 3717W        W 7917   4.971   5.936  10.092 -0.4060 -0.0660  0.1752
 3718W        W 7918   7.936  10.217  12.971 -0.1783 -0.1245  0.1193
 3719W        W 7919   0.088   7.818  12.625 -0.2651 -0.1896  0.1272
 3720W        W 7920   8.333  10.186  12.474  0.0892  0.2063 -0.0314
 3721W        W 7921   5.602   8.098   3.172 -0.0508  0.1350 -0.0137
 3722W        W 7922   2.556   4.795  12.859  0.1104  0.0756  0.0768
 3723W        W 7923   2.717   5.931  11.125  0.2448  0.1279  0.2636
 3724W        W 7924   7.088   5.961   3.021  0.3636  0.1950  0.2550
 3725W        W 7925   7.546   2.664   3.048 -0.1436 -0.1378 -0.1108
 3726W        W 7926   5.221   2.425  10.213  0.1226 -0.1537 -0.0090
 3727W        W 7927  10.088   1.841   0.654  0.1026  0.1126 -0.1554
 3728W        W 7928   6.501   8.667   3.532 -0.0026 -0.0773  0.0236
 3729W        W 7929   4.906   5.280  12.094  0.1462 -0.0360 -0.1446
 3730W        W 7930   0.452   0.427   0.302 -0.2359  0.1357  0.1404
 3731W        W 7931   4.896   2.537   0.092 -0.0681  0.2708  0.0586
 3732W        W 7932   3.389   3.478  12.672 -0.1115 -0.2215 -0.1008
 3733W        W 7933   2.627   7.703  10.354 -0.2144  0.0031 -0.0785
 3734W        W 7934   6.919   6.247  13.192 -0.0667 -0.1420 -0.1321
 3735W        W 7935   9.347   5.492  10.951  0.3652 -0.3334 -0.0868
 3736W        W 7936   2.692   5.994   0.444  0.3963 -0.5356  0.1596
 3737W        W 7937  10.158   4.274  12.460 -0.1085  0.1927 -0.0807
 3738W        W 7938   7.539   1.211   3.384  0.2049  0.3159 -0.2824
 3739W        W 7939   4.066   0.310   3.390  0.2457 -0.0127 -0.4755
 3740W        W 7940   0.056   2.027   1.875 -0.0762  0.1960  0.1435
 3741W        W 7941   3.599   3.498   2.914 -0.0534  0.1227  0.1238
 3742W        W 7942   7.197   4.225   0.408 -0.0862  0.1501  0.0346
 3743W        W 7943   4.974   4.497   9.721 -0.2159 -0.1935  0.0699
 3744W        W 7944   8.522   9.158   9.965  0.0021 -0.0552 -0.0280
 3745W        W 7945   3.558   2.242   9.018 -0.2655 -0.0965  0.1393
 3746W        W 7946   1.535   8.834   4.466 -0.0290 -0.1645  0.0387
 3747W        W 7947   7.027   4.668   1.396 -0.0451 -0.1330  0.1516
 3748W        W 7948   6.211   1.722   0.527  0.2619 -0.3876 -0.0307
 3749W        W 7949   6.350   0.622   3.938 -0.1029 -0.2317  0.1743
 3750W        W 7950   9.498   7.097   3.784 -0.2394 -0.0854  0.1093
 3751W        W 7951   8.866   0.002   1.333  0.0911 -0.2112  0.0505
 3752W        W 7952   1.646   7.239   2.717 -0.0872 -0.0027 -0.0222
 3753W        W 7953   0.618   7.753   0.128 -0.1009  0.1158 -0.0825
 3754W        W 7954   7.861   3.114   3.820 -0.3476  0.0737 -0.0782
 3755W        W 7955   2.477   4.689   2.201 -0.1132  0.4138  0.4862
 3756W        W 7956   1.671   0.970  10.192  0.1309  0.0110  0.0112
 3757W        W 7957   6.276   7.169   9.452  0.1028  0.0988 -0.2554
 3758W        W 7958   2.479  10.440  10.420 -0.1834 -0.0329  0.3592
 3759W        W 7959   7.638   5.197  13.344  0.3438 -0.1451 -0.2385
 3760W        W 7960   6.348   8.208   3.423  0.0578 -0.2567 -0.0130
 3761W        W 7961   9.708   8.733   1.229 -0.0074 -0.3459  0.4160
 3762W        W 7962   4.436   8.042  12.554 -0.3225  0.1562  0.0159
 3763W        W 7963   9.486   6.789   4.265 -0.1169 -0.0470  0.0864
 3764W        W 7964   5.752   0.499  12.696 -0.5007 -0.0590  0.1163
 3765W        W 7965   4.002   2.284  13.003  0.1150  0.1563 -0.1633
 3766W        W 7966   0.159   2.415   2.122 -0.1430 -0.0910 -0.1414
 3767W        W 7967   2.665   9.098   0.446 -0.0631 -0.0635  0.0202
 3768W        W 7968   3.877   1.096   4.429 -0.1746  0.2312  0.0938
 3769W        W 7969   2.398   7.964  11.205 -0.2705  0.0144 -0.2221
 3770W        W 7970   5.269   0.635   3.874  0.0018  0.1601  0.1629
 3771W        W 7971   1.202   4.010   0.960  0.2102 -0.2668 -0.0196
 3772W        W 7972   6.764   2.221   1.578 -0.1461  0.0664 -0.0549
 3773W        W 7973   5.025   7.316  13.358  0.0829 -0.1255  0.4393
 3774W        W 7974   4.026  10.253  11.768  0.1201 -0.0821  0.0355
 3775W        W 7975   5.824   4.010   9.740 -0.0048  0.0917 -0.0992
 3776W        W 7976   1.120   0.794   2.982  0.1756 -0.1009  0.0577
 3777W        W 7977   8.308   0.565   0.183  0.0959  0.0814 -0.1991
 3778W        W 7978   4.492   1.595  12.445  0.1159  0.1164 -0.2998
 3779W        W 7979   9.442   4.077  10.703  0.0884 -0.1737 -0.0141
 3780W        W 7980   5.290   4.351  10.232 -0.1309  0.1721 -0.1838
 3781W        W 7981   4.486   3.448   2.800  0.0147 -0.0021  0.0369
 3782W        W 7982   4.202   8.365   2.233 -0.0210  0.2509  0.1237
 3783W        W 7983   3.251   7.116   4.619 -0.2351  0.1740  0.0190
 3784W        W 7984   2.900   5.122  12.407 -0.0469 -0.2853  0.0624
 3785W        W 7985   8.183   6.693   2.829 -0.1738  0.0668 -0.1942
 3786W        W 7986   8.430   6.998  10.279  0.0626  0.2486 -0.1283
 3787W        W 7987   9.911   4.237  10.584 -0.2535 -0.2303 -0.2723
 3788W        W 7988   8.421   2.306   0.164  0.0670 -0.2255 -0.0717
 3789W        W 7989   1.788   7.903   4.289  0.1473  0.2607  0.1565
 3790W        W 7990   3.619   9.193   2.467 -0.1386 -0.0342  0.0662
 3791W        W 7991   4.403   4.912   3.941 -0.0534  0.1165 -0.1287
 3792W        W 7992   1.283   0.179   1.995 -0.0824  0.1202  0.1704
 3793W        W 7993   3.511  10.338   2.895 -0.1676  0.1074 -0.2884
 3794W        W 7994   0.406   1.497   0.564 -0.0142 -0.0853  0.3085
 3795W        W 7995   4.464   2.397   3.709 -0.2530  0.0483  0.0141
 3796W        W 7996   8.124   0.272   0.683  0.1209  0.4036 -0.0167
 3797W        W 7997   7.447   5.898  11.123  0.1538 -0.1718  0.0827
 3798W        W 7998   6.185   4.012  11.784  0.1225 -0.1024 -0.2859
 3799W        W 7999   1.854   0.849   0.804 -0.2247  0.0155 -0.1044
 3800W        W 8000   8.052   7.254  10.007 -0.2964  0.0981 -0.0793
 3801W        W 8001   6.772   4.246  11.724 -0.1605 -0.1695  0.2295
 3802W        W 8002   3.633  10.483   8.669 -0.1008 -0.0588 -0.3252
 3803W        W 8003   7.753   5.449   2.265  0.2880 -0.1820 -0.1785
 3804W        W 8004   7.155   1.111  10.785  0.1167 -0.2876 -0.1369
 3805W        W 8005   3.307   1.092   9.530  0.0711 -0.2248  0.0854
 3806W        W 8006   7.737   5.919  13.238 -0.0023  0.1406 -0.0425
 3807W        W 8007   5.033   9.578   4.149 -0.3075 -0.0226 -0.1024
 3808W        W 8008   5.639   0.718   9.996  0.3700  0.0784 -0.1566
 3809W        W 8009   2.336   8.975  12.525 -0.0498 -0.0867 -0.0273
 3810W        W 8010   9.379   4.659  11.557  0.3012 -0.0093  0.0835
 3811W        W 8011   4.013   6.998   1.123  0.1844  0.3061  0.0846
 3812W        W 8012   1.800   4.739   5.367 -0.1267  0.1824 -0.1708
 3813W        W 8013   3.784   0.027  12.120  0.0511 -0.3727  0.2219
 3814W        W 8014   4.492   2.730   0.486  0.1103  0.1080  0.1947
 3815W        W 8015   0.699   7.785   0.905 -0.1260  0.0200  0.0913
 3816W        W 8016   3.297   2.195   2.934 -0.2748 -0.2141  0.3777
 3817W        W 8017   3.019   1.179   0.028  0.0264 -0.2599 -0.0337
 3818W        W 8018  10.232   2.157   2.355 -0.2538 -0.1036  0.2420
 3819W        W 8019   4.339   3.166   3.981  0.0792  0.0680  0.0283
 3820W        W 8020   5.077   9.913   3.809 -0.0549  0.0541  0.0420
 3821W        W 8021   0.201   2.933   2.258 -0.0746  0.1881  0.2504
 3822W        W 8022   3.240   5.126   1.904  0.0798 -0.3261 -0.0510
 3823W        W 8023   4.916  10.114  10.894  0.2001 -0.0695  0.2601
 3824W        W 8024   2.025   8.400   5.055  0.1925  0.1106 -0.0978
 3825W        W 8025   0.770   5.677  12.957  0.0481 -0.0911 -0.0819
 3826W        W 8026   5.646   8.875   9.099 -0.0291 -0.0364 -0.1017
 3827W        W 8027   2.478   3.774  12.451  0.2898  0.2680 -0.2113
 3828W        W 8028   7.711   4.709  10.335 -0.0510 -0.1792  0.0456
 3829W        W 8029  10.178   4.085  13.299  0.1447  0.1610  0.1478
 3830W        W 8030   2.389   5.434  12.009 -0.0883  0.3648  0.2528
 3831W        W 8031   3.393   6.990  12.036 -0.4279  0.2174 -0.2658
 3832W        W 8032   3.086   6.570  10.237 -0.3289  0.1053 -0.0180
 3833W        W 8033   0.998   0.775   9.615 -0.2348  0.3095 -0.1420
 3834W        W 8034   1.257   3.719   3.272  0.2921  0.0976  0.3132
 3835W        W 8035   4.791   3.408   2.068 -0.1392  0.1148  0.2176
 3836W        W 8036   3.695   6.826   3.448 -0.0524 -0.3533  0.2247
 3837W        W 8037   7.458   5.059   2.088 -0.0181  0.2690 -0.2036
 3838W        W 8038   2.789   6.442   1.538 -0.2424  0.0757  0.3199
 3839W        W 8039   8.733   9.391   0.548  0.2308 -0.1841 -0.1058
 3840W        W 8040   3.368   2.728   8.526  0.1552 -0.1776 -0.1862
 3841W        W 8041   6.728   2.580   2.538 -0.0930 -0.1914  0.0629
 3842W        W 8042   5.907   6.487  13.208  0.2537 -0.0493  0.0821
 3843W        W 8043   4.410   9.103   1.194 -0.0949 -0.0159 -0.0134
 3844W        W 8044   1.349   0.712  12.095 -0.2141  0.0643 -0.3546
 3845W        W 8045   2.787   7.231  11.605  0.0498 -0.1548 -0.2483
 3846W        W 8046   7.058   2.751   2.908 -0.1899  0.1030  0.0167
 3847W        W 8047   3.858   6.676  10.877 -0.0211  0.3382 -0.1726
 3848W        W 8048   6.480   5.651   2.797 -0.0885  0.1007  0.2555
 3849W        W 8049   5.612   1.547   3.384 -0.1179  0.1427 -0.3414
 3850W        W 8050   2.153   0.764   3.683  0.0683 -0.2563 -0.2796
 3851W        W 8051   1.956   1.643   4.302  0.1421 -0.0733  0.0330
 3852W        W 8052   0.275   2.075   9.577  0.0777 -0.0463  0.0586
 3853W        W 8053   2.200   7.545   9.353 -0.0103 -0.2585 -0.0888
 3854W        W 8054   6.635   6.789   9.926  0.1144 -0.2657 -0.1397
 3855W        W 8055   9.056   0.097   4.417  0.0119  0.1583 -0.2468
 3856W        W 8056   2.653   1.087   0.377  0.2028 -0.2492  0.2037
 3857W        W 8057   3.403   0.083  10.574  0.4845  0.0761 -0.2491
 3858W        W 8058   0.150   6.218   3.735  0.2053  0.1692 -0.0652
 3859W        W 8059   0.349   3.279  11.214  0.0261 -0.0310  0.2318
 3860W        W 8060   7.904   5.890  12.586  0.2660 -0.0979 -0.0843
 3861W        W 8061   6.635   0.239   4.022  0.1805  0.0676  0.0641
 3862W        W 8062   1.300   3.915  13.109  0.1941 -0.1745  0.3459
 3863W        W 8063   0.323  10.015  10.135  0.0074 -0.1605 -0.1643
 3864W        W 8064  10.173   4.706   1.769 -0.0710  0.3792 -0.1497
 3865W        W 8065   3.386   5.092   2.566  0.0341  0.2870 -0.1491
 3866W        W 8066   3.251   0.937   4.269 -0.3182  0.1338 -0.1648
 3867W        W 8067   9.955   7.602   5.355  0.1803 -0.1541  0.0252
 3868W        W 8068   3.878   5.098  10.435  0.1488  0.1108 -0.2233
 3869W        W 8069   7.868   0.697  13.258 -0.0326 -0.0053 -0.3972
 3870W        W 8070   4.129   5.032  11.756 -0.0171 -0.1288  0.0601
 3871W        W 8071   3.449   3.979   3.889 -0.0808  0.1647  0.1317
 3872W        W 8072   6.513   2.045   9.934 -0.1124  0.1493  0.1432
 3873W        W 8073   3.299   8.028  11.910 -0.0034  0.1512  0.0545
 3874W        W 8074   6.490   9.854  10.306  0.2420 -0.0145  0.0909
 3875W        W 8075  10.182   9.462   9.101  0.0925 -0.1149 -0.0113
 3876W        W 8076   8.056   1.309   3.307  0.2866  0.4319  0.2488
 3877W        W 8077   6.231   8.805   0.822  0.1180  0.0817  0.1851
 3878W        W 8078   4.613   7.657  11.781 -0.3075 -0.3771 -0.3101
 3879W        W 8079   0.833   0.767  12.282 -0.1047 -0.0594 -0.2333
 3880W        W 8080   2.050  10.413  10.565  0.1052  0.1223  0.0228
 3881W        W 8081   4.336   6.986  10.643  0.2062  0.0274 -0.0456
 3882W        W 8082   5.897   1.108   3.414  0.0740 -0.0275 -0.0859
 3883W        W 8083   2.405   9.920   1.504 -0.0036 -0.1388 -0.2589
 3884W        W 8084   6.256   0.951   1.050  0.0669  0.4384  0.1106
 3885W        W 8085   2.219   7.316   0.462  0.0246 -0.0335  0.0135
 3886W        W 8086   7.542   4.746   4.791  0.0827 -0.0377 -0.2750
 3887W        W 8087   8.029   3.883   2.800  0.4002  0.0833  0.1876
 3888W        W 8088   3.090   8.823   0.506 -0.1262 -0.3410 -0.3414
 3889W        W 8089   5.969   0.497   0.032  0.0694  0.2191  0.0351
 3890W        W 8090   3.581   2.664   9.547  0.2892 -0.3270  0.0975
 3891W        W 8091   1.495  10.479  12.697  0.1233 -0.3144  0.3478
 3892W        W 8092   5.828   9.093   0.558  0.0550 -0.0153  0.1863
 3893W        W 8093   7.878   7.342   4.833  0.0886 -0.0351  0.0088
 3894W        W 8094   5.168   6.542   2.628  0.0515  0.1853  0.1661
 3895W        W 8095   2.145   1.609   3.231  0.1231 -0.1397 -0.0877
 3896W        W 8096   7.280   8.882   9.176  0.2052  0.2764  0.0818
 3897W        W 8097   1.338   1.237  10.415  0.1253 -0.1337 -0.0286
 3898W        W 8098   2.707   0.372  11.875  0.0163  0.0271 -0.2191
 3899W        W 8099   7.131   4.672  12.383  0.4598 -0.2888 -0.0572
 3900W        W 8100   6.720   8.285   0.422 -0.0311 -0.2318 -0.1642
 3901W        W 8101   4.968   5.336   9.319  0.0452 -0.0049  0.1291
 3902W        W 8102   3.536   2.338   9.953  0.0215  0.4320 -0.0489
 3903W        W 8103   4.817   3.422  11.821  0.1046  0.0342 -0.1216
 3904W        W 8104   3.936   9.610   2.588  0.1076 -0.0029  0.2246
 3905W        W 8105   8.148   3.145  11.549  0.1290  0.1913  0.0493
 3906W        W 8106   6.491   6.012   3.683 -0.1229  0.1900  0.1945
 3907W        W 8107   0.021   8.831   3.954  0.0862  0.0611  0.2971
 3908W        W 8108   1.349   0.028  13.311 -0.0355 -0.0620  0.2453
 3909W        W 8109   8.363   6.416   4.126  0.1514 -0.1239 -0.0916
 3910W        W 8110   0.211   2.184  11.091  0.1378 -0.1384  0.2247
 3911W        W 8111   9.978   8.233   9.356 -0.1538 -0.0121 -0.0422
 3912W        W 8112   8.730   4.987   1.996  0.3795 -0.0404  0.1957
 3913W        W 8113   5.217   6.906  10.110 -0.1946  0.0579  0.2357
 3914W        W 8114   3.548   1.699   1.135  0.0787 -0.1034  0.0495
 3915W        W 8115   8.931   4.225   0.051  0.0903  0.1351 -0.0706
 3916W        W 8116   3.295   7.943   2.418  0.1590 -0.0723 -0.1386
 3917W        W 8117   0.793   6.398  10.991 -0.2200 -0.1731  0.0674
 3918W        W 8118   7.484   9.911   2.341 -0.2452  0.1763 -0.2829
 3919W        W 8119   9.478   6.170   5.037  0.0145  0.1886 -0.1548
 3920W        W 8120   7.479   3.638   2.874 -0.3788 -0.2533 -0.2773
 3921W        W 8121   2.338   2.260   3.902  0.2051 -0.0351 -0.1590
 3922W        W 8122   8.566   6.641   4.683 -0.1206 -0.2940 -0.1990
 3923W        W 8123   9.482   8.114   8.914 -0.1972 -0.0167 -0.1854
 3924W        W 8124   0.394   6.137  10.197  0.0114 -0.0378 -0.2318
 3925W        W 8125   0.231   2.556   2.671  0.1600  0.2321  0.1251
 3926W        W 8126   1.804   1.252  12.634  0.2226 -0.0406 -0.1058
 3927W        W 8127   3.183   2.222   3.418  0.3223  0.0964 -0.2722
 3928W        W 8128   4.568   5.447   0.593 -0.2935 -0.1768  0.1548
 3929W        W 8129  10.211   6.616   9.944 -0.3214  0.1169  0.0601
 3930W        W 8130   4.124   3.630   3.671  0.3026 -0.2371 -0.0708
 3931W        W 8131   2.561   0.360  11.374  0.2861 -0.0083  0.2483
 3932W        W 8132   0.430   7.604  11.502 -0.0094 -0.3300  0.0921
 3933W        W 8133   7.580   1.534  10.741  0.1885  0.0281 -0.2928
 3934W        W 8134   0.280   9.774   2.202  0.3567  0.0612 -0.1128
 3935W        W 8135   5.966   7.461   2.948  0.0334 -0.0130 -0.2740
 3936W        W 8136   5.821   3.630   4.001 -0.0947  0.0851 -0.0622
 3937W        W 8137   5.127   9.547   3.439  0.0469  0.1198  0.3920
 3938W        W 8138   7.858  10.360   0.833 -0.1448  0.2616  0.3283
 3939W        W 8139   0.883   7.774  12.070 -0.4359 -0.0383  0.1932
 3940W        W 8140   6.151   2.536  11.970  0.1245 -0.1625 -0.0516
 3941W        W 8141   5.436   3.720   3.007 -0.0778  0.1486  0.1666
 3942W        W 8142   8.987   9.080   2.185  0.1758  0.2469 -0.0856
 3943W        W 8143   4.711   6.196   1.975  0.1584  0.1808  0.0418
 3944W        W 8144   6.459   5.411   1.303  0.0896 -0.0227 -0.1062
 3945W        W 8145   4.489   9.016   8.613 -0.1367  0.2892 -0.1490
 3946W        W 8146   0.807  10.405  12.602 -0.0175 -0.0495  0.2546
 3947W        W 8147   5.107   2.726   3.132 -0.0329  0.0587  0.0598
 3948W        W 8148   8.642   3.153   2.390  0.0469 -0.0289 -0.1941
 3949W        W 8149  10.026   7.439   0.173 -0.1499 -0.1315  0.1866
 3950W        W 8150   9.267   8.231  12.921 -0.2928 -0.2046 -0.1817
 3951W        W 8151   8.502   5.313   9.708  0.3718 -0.0245  0.2011
 3952W        W 8152   4.136   5.743  11.250 -0.1466  0.0801 -0.0248
 3953W        W 8153   7.847   8.150  12.646 -0.3554  0.1593  0.1285
 3954W        W 8154   6.472   9.423  12.024  0.1698  0.0852  0.0388
 3955W        W 8155   1.182   5.992  12.703  0.2634 -0.0467 -0.1330
 3956W        W 8156   8.814   5.317   1.412  0.1017  0.0023 -0.1793
 3957W        W 8157  10.283   1.691   3.629  0.2384  0.0697  0.2722
 3958W        W 8158   7.607   3.777  11.372 -0.4363  0.3440  0.0553
 3959W        W 8159   2.245   5.914  12.528 -0.3099  0.0655  0.3011
 3960W        W 8160   2.787   9.683  12.524  0.0171  0.0479 -0.1613
 3961W        W 8161   6.234   6.486  11.873 -0.2991  0.0393 -0.0049
 3962W        W 8162   8.547   2.914   9.428 -0.1046 -0.0982 -0.3108
 3963W        W 8163   4.694   8.673  10.770  0.0860 -0.0195  0.0407
 3964W        W 8164   7.944   7.322   2.972  0.0746 -0.1766 -0.2550
 3965W        W 8165   0.667   5.567   2.764  0.0513  0.0019  0.2628
 3966W        W 8166   2.784   1.989   0.460  0.2537 -0.2536 -0.4196
 3967W        W 8167   3.435   7.439   8.514 -0.3608 -0.3269 -0.4593
 3968W        W 8168   4.654   1.852   3.073 -0.1528  0.1579  0.0197
 3969W        W 8169   0.756   9.020  11.737 -0.0958  0.1530  0.1051
 3970W        W 8170   0.694   3.791   9.934  0.2592 -0.0674  0.1222
 3971W        W 8171   0.189   1.938   2.393  0.2338  0.1095  0.1052
 3972W        W 8172   2.258   5.757  10.343 -0.1003  0.3382 -0.0911
 3973W        W 8173   6.147   1.018   9.247 -0.1262 -0.0051  0.0303
 3974W        W 8174   4.898   9.865   9.978  0.0209 -0.0758 -0.2257
 3975W        W 8175   3.094   5.604   0.458  0.0466 -0.0377 -0.1034
 3976W        W 8176  10.271   5.039  12.919  0.0363  0.2465  0.1532
 3977W        W 8177   6.300   4.517  11.852 -0.1312 -0.1436  0.2524
 3978W        W 8178   8.307   0.709  12.594  0.1706  0.0990 -0.0127
 3979W        W 8179   8.013   0.252   3.370 -0.2643 -0.0664 -0.3215
 3980W        W 8180   9.249   5.347   0.601 -0.2350  0.2866 -0.2668
 3981W        W 8181   4.282   6.975  12.957  0.1323  0.2177 -0.5097
 3982W        W 8182   9.248   3.598   0.343  0.0176  0.1889  0.0677
 3983W        W 8183   2.102   1.607  11.594  0.2288 -0.0878 -0.2555
 3984W        W 8184   9.585   7.328   9.010  0.0447 -0.1415 -0.3011
 3985W        W 8185   5.084   6.562  11.198  0.1544  0.0303 -0.0722
 3986W        W 8186   7.008   0.340   3.680  0.0833 -0.2008  0.1625
 3987W        W 8187   2.034   9.640   3.221  0.2294 -0.1164 -0.2005
 3988W        W 8188   5.507   1.917   4.375  0.0512 -0.1127  0.0988
 3989W        W 8189   5.811   4.663   0.192 -0.1730  0.0080 -0.4609
 3990W        W 8190   5.810   6.854   0.207 -0.1783 -0.1856  0.1266
 3991W        W 8191   3.049   4.972  11.086 -0.1020  0.0342  0.1584
 3992W        W 8192   2.626   2.636   2.392  0.4831 -0.3184  0.2459
 3993W        W 8193   3.377   2.448  10.778  0.1317 -0.2801 -0.1616
 3994W        W 8194   0.588   8.017   3.691  0.2745  0.3829  0.0883
 3995W        W 8195   0.695   1.332  11.416  0.1310 -0.1539 -0.1009
 3996W        W 8196   6.308   2.759   1.730  0.0942  0.1155 -0.2041
 3997W        W 8197   9.404   4.855   3.661  0.0529 -0.1270  0.1350
 3998W        W 8198   9.013   8.367   2.748  0.1120 -0.0650 -0.2612
 3999W        W 8199  10.079   6.874  12.568 -0.0321 -0.0856 -0.3506
 4000W        W 8200   4.471   9.069   1.657 -0.0247 -0.5047 -0.2224
 4001W        W 8201   2.356   9.933  11.831  0.0122 -0.2096  0.1584
 4002W        W 8202   9.870   3.270   2.014  0.0424 -0.1162  0.1078
 4003W        W 8203   8.335   7.246   2.288  0.2860  0.0220  0.1690
 4004W        W 8204   6.863   7.568  11.394  0.0592  0.4891  0.2769
 4005W        W 8205   3.249   4.923  11.995 -0.1427  0.3029  0.0599
 4006W        W 8206   4.213   6.001   9.620  0.4054 -0.1418  0.0897
 4007W        W 8207   2.115   3.104  10.928 -0.0685  0.1735  0.1939
 4008W        W 8208   7.208   2.697  13.399  0.0141  0.2257 -0.0594
 4009W        W 8209   0.845  10.426  10.502  0.0928 -0.2572  0.2226
 4010W        W 8210   0.651   2.938   3.221 -0.0317  0.1079 -0.0293
 4011W        W 8211   4.802   0.762  12.574  0.1485 -0.1447  0.1466
 4012W        W 8212   0.986   7.877   9.775  0.2871  0.0998 -0.2612
 4013W        W 8213   0.418   0.334  13.218 -0.0857  0.1083  0.2384
 4014W        W 8214   2.884   7.116   2.769  0.1839  0.0670  0.1423
 4015W        W 8215   6.151   4.261   1.479  0.2363  0.0939 -0.1297
 4016W        W 8216   2.486   0.303   0.591  0.0131  0.2125  0.1096
 4017W        W 8217   4.101   9.702  11.285  0.2753  0.2050  0.3206
 4018W        W 8218   4.894   4.233   0.388  0.3540 -0.1479 -0.0860
 4019W        W 8219   1.108   7.257   1.842 -0.1039  0.1966 -0.0556
 4020W        W 8220   6.453   6.053  11.704 -0.3484  0.3397  0.0662
 4021W        W 8221   9.702   1.947  12.900  0.1013  0.0716 -0.0075
 4022W        W 8222   7.494   0.170   2.953 -0.1529 -0.0398 -0.0506
 4023W        W 8223   0.402   5.567   9.427 -0.0880  0.3904 -0.0913
 4024W        W 8224   6.290   5.224   2.547 -0.0648  0.1272  0.0476
 4025W        W 8225   0.714   8.051  10.618 -0.3218  0.0290 -0.2076
 4026W        W 8226   6.701   3.561  11.182  0.0119  0.1295 -0.0790
 4027W        W 8227   2.196   4.213  10.224  0.0271 -0.3595  0.0840
 4028W        W 8228   4.085   6.004  11.766  0.0224 -0.1983  0.0362
 4029W        W 8229   8.289   8.143   0.432 -0.2182  0.0084 -0.2781
 4030W        W 8230   1.587   3.499   3.561  0.1912 -0.0880  0.1941
 4031W        W 8231   9.117   1.129   3.365 -0.0339 -0.1842  0.1059
 4032W        W 8232   1.454   4.571   3.882 -0.2442 -0.1395  0.0728
 4033W        W 8233   0.887   9.029   3.340  0.3351 -0.1432 -0.0036
 4034W        W 8234   0.024   5.998   1.044  0.1563  0.1243  0.1809
 4035W        W 8235   5.043   5.867  12.230  0.1685  0.1286  0.5846
 4036W        W 8236  10.222   2.811   2.173 -0.1580  0.2455 -0.2204
 4037W        W 8237   3.315   6.092  12.689 -0.0462 -0.0391 -0.0837
 4038W        W 8238   4.402   9.884   0.240  0.0943 -0.0323 -0.0703
 4039W        W 8239   5.194   4.782  11.906  0.0507 -0.0008 -0.0839
 4040W        W 8240   4.462   2.046  12.997  0.0855 -0.1268 -0.1166
 4041W        W 8241   5.515   1.109   3.726  0.0138  0.1912 -0.0329
 4042W        W 8242   2.395   6.651  13.205 -0.0286 -0.2798 -0.0169
 4043W        W 8243   8.614   8.123   9.273 -0.3835 -0.1037  0.0577
 4044W        W 8244   4.822   9.218   2.512  0.0108 -0.0097  0.2140
 4045W        W 8245   2.445   4.509  11.909  0.1853 -0.1705 -0.0116
 4046W        W 8246   7.835   4.128   3.210  0.0164 -0.2646 -0.2327
 4047W        W 8247   9.289   8.777   4.703 -0.0933  0.3092  0.4476
 4048W        W 8248   3.329   3.115  11.736 -0.0231 -0.0973 -0.2403
 4049W        W 8249   6.206   5.080  13.269 -0.2200 -0.1823  0.2700
 4050W        W 8250   3.392   1.418   3.483 -0.0793 -0.1767  0.0502
 4051W        W 8251   9.930   3.307  11.519 -0.2436 -0.1329 -0.0458
 4052W        W 8252   5.137   8.039   2.480  0.1512 -0.2720  0.0992
 4053W        W 8253   3.150   7.545   7.837 -0.1141 -0.1360  0.1503
 4054W        W 8254   0.990   8.981   2.773  0.1334 -0.2034 -0.2839
 4055W        W 8255   5.282   6.021   2.659 -0.2245 -0.2705 -0.1068
 4056W        W 8256  10.358   1.170   1.185 -0.0246  0.1137  0.2010
 4057W        W 8257   2.331   4.277  12.330 -0.2780  0.0517 -0.4276
 4058W        W 8258   1.644   3.693   0.797 -0.2441  0.1147 -0.0634
 4059W        W 8259   0.563   8.758   4.161  0.1120  0.1952  0.1796
 4060W        W 8260   3.744   1.820   9.140  0.4304  0.0332  0.0592
 4061W        W 8261   6.998   2.587   3.845  0.0703 -0.0707 -0.1869
 4062W        W 8262   2.741   3.040   2.725  0.1357 -0.0073 -0.2504
 4063W        W 8263   5.275   1.992   3.640  0.1599 -0.0575 -0.4670
 4064W        W 8264   7.494   3.147   2.246 -0.1573  0.2508 -0.1415
 4065W        W 8265   8.334   1.374  11.942  0.0337  0.1176 -0.0158
 4066W        W 8266   0.781   1.794   3.726  0.0987 -0.2375 -0.1258
 4067W        W 8267   5.606   1.772   9.063  0.2224 -0.3369 -0.4135
 4068W        W 8268   3.192   9.725   8.737  0.2115  0.1235  0.0919
 4069W        W 8269   8.796   4.586   0.983  0.1639  0.2652 -0.2493
 4070W        W 8270   6.636   1.958   1.980  0.0476  0.0340  0.1728
 4071W        W 8271   5.988   9.070   1.141  0.1032 -0.1765 -0.0857
 4072W        W 8272   9.602   2.289   1.306 -0.1283 -0.0350  0.1044
 4073W        W 8273  10.272   0.884   2.925 -0.0219 -0.2818  0.3321
 4074W        W 8274   6.615   6.080   4.622 -0.0234 -0.0437 -0.0275
 4075W        W 8275   3.636   8.923  12.438  0.0770 -0.0791 -0.1534
 4076W        W 8276   3.782   7.386   2.934  0.1164  0.1994 -0.3080
 4077W        W 8277   3.191   3.522  11.398  0.3072  0.1137 -0.1196
 4078W        W 8278   4.348   6.900  10.082 -0.0772 -0.2462  0.2154
 4079W        W 8279   4.268   7.130   1.497  0.3417  0.0928  0.0134
 4080W        W 8280   9.414   9.128   2.519 -0.0538 -0.3425  0.0422
 4081W        W 8281   9.237   5.026  13.117  0.1314 -0.0698 -0.3626
 4082W        W 8282   1.101   8.423   2.623  0.3370  0.0364  0.0487
 4083W        W 8283   6.858   9.501   9.769 -0.0143  0.2874  0.1648
 4084W        W 8284   2.662   9.477   0.809 -0.2315 -0.1372 -0.1558
 4085W        W 8285   1.830   6.269   2.624  0.3170  0.2457  0.0221
 4086W        W 8286   4.000   2.354   2.665 -0.1365 -0.0159  0.1282
 4087W        W 8287   4.331   2.801   4.846 -0.0105  0.2442  0.0956
 4088W        W 8288   0.567   4.573  10.539  0.1684 -0.1923  0.1740
 4089W        W 8289   2.788   1.050   2.360 -0.0521  0.2453  0.1647
 4090W        W 8290   1.702   3.298   3.061 -0.1354  0.2129 -0.1690
 4091W        W 8291   9.941   4.224   1.574 -0.3832  0.2115 -0.2802
 4092W        W 8292   2.146   6.926   8.546 -0.2742  0.1843  0.2005
 4093W        W 8293   9.159   0.052   0.406  0.1113  0.1724 -0.1224
 4094W        W 8294   2.723   0.859  11.488  0.2910 -0.0083 -0.1501
 4095W        W 8295   8.668   1.636   3.519 -0.3947  0.1841 -0.0651
 4096W        W 8296   1.433   1.687  10.266  0.1971 -0.2099  0.1602
 4097W        W 8297   5.681   7.508  12.637 -0.0549 -0.0008 -0.1379
 4098W        W 8298   5.192   6.436   9.799 -0.0631  0.1842  0.0026
 4099W        W 8299   5.679   6.484   2.177 -0.1021 -0.2037 -0.3326
 4100W        W 8300   2.949   0.707   3.968  0.0630  0.1622  0.1697
 4101W        W 8301   5.563  10.343   0.834  0.1391  0.0217  0.1280
 4102W        W 8302   9.457   3.292  10.277 -0.0569  0.2234  0.2940
 4103W        W 8303   4.517   2.995  12.813  0.1423  0.1173 -0.1891
 4104W        W 8304   8.745   7.040   1.016 -0.1052  0.0953  0.1238
 4105W        W 8305   5.036   0.547   0.924 -0.0683 -0.1937  0.3252
 4106W        W 8306   2.797   2.327   2.684  0.1962 -0.2006 -0.1691
 4107W        W 8307   8.039   1.124   1.130 -0.2936 -0.1700 -0.0200
 4108W        W 8308   0.073   8.356  12.585  0.0827 -0.2385 -0.0246
 4109W        W 8309   0.356   0.424  10.667 -0.0030  0.2069 -0.2355
 4110W        W 8310   4.743   3.111   4.561  0.0477  0.1232 -0.2490
 4111W        W 8311   8.783   1.767   1.070  0.4038  0.2794  0.0340
 4112W        W 8312   1.610  10.051  12.273  0.5026 -0.0646  0.0566
 4113W        W 8313   5.416   0.771   0.713 -0.2197 -0.1244 -0.1893
 4114W        W 8314   4.478   9.585   1.740  0.0096 -0.0990  0.3831
 4115W        W 8315   4.884   8.629   9.493 -0.2164  0.3124 -0.0903
 4116W        W 8316   1.570   2.753   0.581 -0.2453 -0.0698 -0.1752
 4117W        W 8317   7.423  10.130  12.077  0.2505 -0.3359  0.1813
 4118W        W 8318   8.524   4.573   2.676 -0.1421  0.0186 -0.0006
 4119W        W 8319   2.847   1.521   0.340 -0.0897 -0.3302  0.0872
 4120W        W 8320   4.049   6.067  12.578  0.1322  0.0040 -0.0869
 4121W        W 8321   5.453   8.712   3.210  0.0669 -0.0953  0.1366
 4122W        W 8322   9.616   4.639   1.892 -0.1759 -0.0005  0.0671
 4123W        W 8323   2.007   6.289   3.640 -0.1138  0.4347  0.1016
 4124W        W 8324   5.371   2.793   2.388 -0.2489 -0.0154  0.0716
 4125W        W 8325   6.147   7.219  10.738  0.4214 -0.5398  0.0869
 4126W        W 8326   7.158   1.320   1.582  0.0117  0.1621 -0.0697
 4127W        W 8327   7.723   7.821   4.486 -0.1114  0.1404  0.1881
 4128W        W 8328   2.913   7.796  10.840  0.0496 -0.0217 -0.0310
 4129W        W 8329   4.463   9.567   3.273 -0.0245  0.2661  0.1543
 4130W        W 8330   1.820   0.829   2.790 -0.3308 -0.0316  0.1422
 4131W        W 8331   5.702   8.603   2.802  0.1579  0.0372  0.3690
 4132W        W 8332   8.788   2.635  13.378 -0.0987 -0.3007  0.0819
 4133W        W 8333   0.743   9.760  12.269  0.1033 -0.2117  0.2600
 4134W        W 8334   5.460   3.921   3.813  0.1779  0.2270 -0.1155
 4135W        W 8335   3.808   4.049  11.999  0.0646 -0.1714 -0.2732
 4136W        W 8336   0.080   3.419   0.625  0.0446 -0.0888 -0.2115
 4137W        W 8337   3.279   6.737   1.662  0.2625  0.2320 -0.0722
 4138W        W 8338   6.588   6.198   2.361  0.1755 -0.0810  0.1095
 4139W        W 8339  10.225   3.123   3.200 -0.2854 -0.0804  0.0404
 4140W        W 8340   6.006   8.850   8.801 -0.0308  0.1870  0.0958
 4141W        W 8341   0.931   7.428   2.333  0.0895  0.1262  0.0789
 4142W        W 8342   2.562   0.216   2.185  0.0217  0.2823 -0.0689
 4143W        W 8343   0.921   3.148   0.155  0.0771  0.0783  0.2855
 4144W        W 8344   3.862   9.149   1.067 -0.0404  0.0450 -0.0169
 4145W        W 8345  10.231   3.045  13.021  0.2776  0.2431 -0.0888
 4146W        W 8346   0.056   6.082  12.160 -0.2614  0.1945 -0.0090
 4147W        W 8347   2.726   3.114   3.343  0.1248 -0.0437  0.1601
 4148W        W 8348   2.411   3.251   3.861 -0.3099  0.3901 -0.1528
 4149W        W 8349   6.085   3.621   1.578 -0.2349  0.4006  0.0005
 4150W        W 8350   3.947   2.521   4.656 -0.1594 -0.0288  0.0606
 4151W        W 8351   2.796   8.197   9.471  0.0952 -0.0491 -0.1174
 4152W        W 8352   2.057   8.629  13.417 -0.2102  0.1816  0.2115
 4153W        W 8353   0.976   3.623   0.019  0.0889 -0.3324  0.2772
 4154W        W 8354   0.780   6.487   1.149 -0.0972 -0.2355  0.1336
 4155W        W 8355   7.206   0.747   3.408 -0.4166 -0.5264 -0.1715
 4156W        W 8356   3.092   9.354   0.397 -0.0581 -0.4210 -0.2004
 4157W        W 8357   2.563   1.477   1.980 -0.0936 -0.0181  0.2435
 4158W        W 8358   1.526   9.480  12.627 -0.2187  0.0627 -0.3100
 4159W        W 8359   2.866   7.366  13.094 -0.3174  0.1843 -0.0870
 4160W        W 8360   1.250   5.795   1.693 -0.0044  0.1234 -0.2258
 4161W        W 8361  10.471   6.893   4.824  0.1301 -0.2201  0.2513
 4162W        W 8362   2.373   3.992  11.059  0.0705 -0.0655 -0.0055
 4163W        W 8363   6.511   3.403   3.110  0.1338 -0.1395  0.0141
 4164W        W 8364   7.246   5.694   9.619 -0.0059 -0.1964  0.4831
 4165W        W 8365   1.017   4.550   9.462  0.1190 -0.1342 -0.2917
 4166W        W 8366   3.499   8.420   4.749  0.0035 -0.1487 -0.0289
 4167W        W 8367   3.439   3.114   4.354 -0.2450 -0.3097 -0.1312
 4168W        W 8368   4.255   2.742   8.664  0.0088 -0.0409 -0.3883
 4169W        W 8369   2.789   2.944   0.928 -0.2081  0.0756  0.2101
 4170W        W 8370   1.100   6.388   9.482 -0.0062 -0.2060 -0.0166
 4171W        W 8371   8.487   9.344   1.013  0.0937  0.2254  0.2732
 4172W        W 8372   0.697   1.259   0.967 -0.0005  0.1586  0.3086
 4173W        W 8373  10.062   4.769  11.187  0.1377 -0.1725  0.2253
 4174W        W 8374   6.516   4.794  12.930 -0.0151 -0.0988  0.1294
 4175W        W 8375   4.471   3.894   2.478 -0.1116  0.1453  0.1404
 4176W        W 8376   3.033   9.016   9.970  0.1880  0.2771 -0.0170
 4177W        W 8377   8.480   1.647  12.370  0.0844 -0.1851  0.0058
 4178W        W 8378   5.939   3.071   0.756  0.2080 -0.0080 -0.1403
 4179W        W 8379   6.951   5.047  11.800  0.0039 -0.2034  0.0992
 4180W        W 8380   1.177   7.707  10.704 -0.1773 -0.1035 -0.2856
 4181W        W 8381  10.195   2.130   9.856 -0.1378  0.0316 -0.2819
 4182W        W 8382   9.956   0.424  10.968  0.2734 -0.0616 -0.3216
 4183W        W 8383   2.212   9.567   9.233 -0.1265  0.2459 -0.0837
 4184W        W 8384   2.602   0.141   9.148  0.0180 -0.2852  0.2408
 4185W        W 8385   3.135   6.097   0.633 -0.1582  0.2267 -0.0904
 4186W        W 8386   7.875   8.125   1.155 -0.0534 -0.2635  0.1159
 4187W        W 8387   2.564   6.061  13.341 -0.1211  0.1396 -0.1483
 4188W        W 8388   2.100   5.806   3.290  0.0978 -0.2804  0.1409
 4189W        W 8389   0.066   1.106  12.645  0.0074  0.0205 -0.1363
 4190W        W 8390   4.883   2.093   4.032 -0.3527  0.2577  0.1770
 4191W        W 8391   0.471   3.167   0.431  0.1272 -0.1932 -0.1717
 4192W        W 8392   9.231   2.194   0.656 -0.0305 -0.3238 -0.3251
 4193W        W 8393   9.127   8.104  13.385 -0.0707  0.3639  0.1720
 4194W        W 8394   3.251   5.580   1.500  0.1632  0.2070 -0.1744
 4195W        W 8395   4.263   0.735  13.415  0.5101  0.1473  0.1907
 4196W        W 8396   4.568   3.140  11.058  0.3853  0.1750  0.0649
 4197W        W 8397   7.933   7.322   0.666  0.1314 -0.1296 -0.3815
 4198W        W 8398   8.091   6.771  12.760  0.0139  0.0684  0.0265
 4199W        W 8399   3.788   3.569   9.485  0.1392  0.2725  0.0669
 4200W        W 8400  10.384   8.112  12.207  0.0865 -0.5109 -0.1733
 4201W        W 8401   7.844   4.123  11.771 -0.0004 -0.0602 -0.2741
 4202W        W 8402   1.833  10.399   9.377  0.0026 -0.1595  0.0310
 4203W        W 8403   0.049   9.428  11.983  0.0984  0.1115  0.0309
 4204W        W 8404   5.830   4.753   1.616  0.0828  0.2068 -0.3358
 4205W        W 8405   0.771   2.672  10.425 -0.0520  0.1383  0.1484
 4206W        W 8406   3.181   9.008   2.693  0.0895  0.0723 -0.1382
 4207W        W 8407   9.746   3.005   2.516 -0.1098 -0.2870  0.3000
 4208W        W 8408   0.165   2.342  12.138 -0.1148  0.0733 -0.0467
 4209W        W 8409   0.452  10.210   0.079  0.0603 -0.2738 -0.1483
 4210W        W 8410   7.773   0.306   2.494 -0.1664  0.1290 -0.2385
 4211W        W 8411   9.446   1.858  11.569  0.0986 -0.1786 -0.1554
 4212W        W 8412   3.306   9.520   3.403 -0.1235  0.0232 -0.1017
 4213W        W 8413   0.747   7.787   9.362  0.3195 -0.1467  0.1299
 4214W        W 8414  10.326   1.572   1.558 -0.0139  0.1524  0.0528
 4215W        W 8415   8.208   8.607  12.225 -0.1670  0.3017  0.3253
 4216W        W 8416   7.737   9.349   4.089  0.2906 -0.1525  0.0543
 4217W        W 8417   1.224   7.181  10.740 -0.1661 -0.0672  0.2349
 4218W        W 8418   6.672   9.470  11.529 -0.0994  0.1566 -0.0019
 4219W        W 8419   0.676   9.134   9.145 -0.4318  0.1636  0.1066
 4220W        W 8420   3.607   9.806  11.456  0.0882  0.0199 -0.0328
 4221W        W 8421   1.843   3.320   9.769  0.0091  0.0366  0.2282
 4222W        W 8422   3.949   9.504  10.027 -0.1897 -0.2945  0.1823
 4223W        W 8423   2.632   8.563  13.268 -0.1903 -0.0145  0.3097
 4224W        W 8424   9.920  10.195   9.558  0.0845  0.1748 -0.1138
 4225W        W 8425   7.210   9.925  12.472 -0.0594 -0.0749  0.3140
 4226W        W 8426   0.688   9.077   4.491  0.3106 -0.0872 -0.0876
 4227W        W 8427   7.455   0.095  12.416  0.0552 -0.4093  0.2379
 4228W        W 8428   0.321   0.780  12.354 -0.0361  0.1271 -0.2435
 4229W        W 8429   7.984   8.462   0.157  0.0411  0.4259 -0.1849
 4230W        W 8430   4.427   1.726   0.357  0.1259  0.0778  0.0619
 4231W        W 8431   4.159   8.607   0.309 -0.1090 -0.1746 -0.1606
 4232W        W 8432   4.850   5.648  11.759 -0.2743 -0.0442 -0.0741
 4233W        W 8433   8.927   2.534   0.932 -0.2046 -0.0491 -0.0596
 4234W        W 8434   4.098   0.935   2.140 -0.0871 -0.4483 -0.1243
 4235W        W 8435   9.265   8.002   0.432  0.2689  0.3319  0.2171
 4236W        W 8436   6.794   5.007  12.317 -0.0239 -0.1600 -0.3475
 4237W        W 8437   9.616   1.378  12.440  0.0996  0.1548  0.1298
 4238W        W 8438   8.947   6.084  10.493  0.0954  0.4007 -0.1144
 4239W        W 8439   5.669   7.873  12.272  0.2377 -0.1568 -0.0192
 4240W        W 8440   8.903   6.116   2.682 -0.1184  0.1629  0.2139
 4241W        W 8441   6.686   5.794   1.034  0.0712  0.1213  0.2238
 4242W        W 8442   0.329   8.273  10.950 -0.0097 -0.0119  0.0769
 4243W        W 8443   5.311   3.857  11.362 -0.0903  0.0460 -0.1815
 4244W        W 8444   8.028   8.815  11.246 -0.0729 -0.1076 -0.3669
 4245W        W 8445   2.037   5.852   3.796  0.0967 -0.2234 -0.2284
 4246W        W 8446   5.957   2.214  11.285  0.0786 -0.2151 -0.1841
 4247W        W 8447   0.620   3.874   0.196  0.1588 -0.0714 -0.0936
 4248W        W 8448   6.237  10.354   3.227 -0.2704 -0.4744  0.0572
 4249W        W 8449   6.500   0.756  10.408  0.2995 -0.1573  0.0192
 4250W        W 8450   9.645   7.722   4.291 -0.1451  0.0121 -0.0038
 4251W        W 8451   1.410   8.492   1.248  0.1223 -0.0963 -0.0720
 4252W        W 8452   0.886   4.302   1.794 -0.0676 -0.3048 -0.0152
 4253W        W 8453   9.892   8.235  12.883  0.1088 -0.3559  0.0234
 4254W        W 8454   5.998   7.295   0.991  0.0898 -0.0085  0.0875
 4255W        W 8455   7.531   4.091   2.537 -0.1580  0.2448 -0.0155
 4256W        W 8456   5.326   4.885   0.788  0.3096 -0.0283  0.2286
 4257W        W 8457   1.328  10.039   1.928 -0.0374 -0.2351  0.2076
 4258W        W 8458   5.647   9.636  13.332 -0.4236  0.0543  0.0064
 4259W        W 8459  10.155   7.598  12.017  0.1335  0.2401 -0.1333
 4260W        W 8460   1.868   9.035   2.395  0.5341  0.4274  0.1745
 4261W        W 8461   1.406   1.109   9.816  0.0605  0.1183 -0.1789
 4262W        W 8462   3.481   7.434   0.636 -0.0894 -0.2489 -0.1180
 4263W        W 8463   1.253   1.194   3.243 -0.3001 -0.0802 -0.0638
 4264W        W 8464   2.631   1.213  10.069  0.0083 -0.1172 -0.0531
 4265W        W 8465   1.763   2.891   1.071  0.1195  0.1044 -0.2012
 4266W        W 8466  10.089   0.877  10.571 -0.0705  0.2352 -0.0394
 4267W        W 8467   6.599   9.428   3.118 -0.6473  0.3837  0.0880
 4268W        W 8468   7.795   8.687   4.306  0.5235 -0.1240 -0.2008
 4269W        W 8469   3.993   0.464  12.006  0.1939  0.0532  0.1440
 4270W        W 8470   4.348   8.421   9.362  0.0197 -0.3443 -0.2510
 4271W        W 8471   7.581  10.392  13.299  0.3296 -0.1234  0.4211
 4272W        W 8472   6.964   7.527  11.834 -0.2369 -0.0567  0.0671
 4273W        W 8473   8.268   8.841   1.593  0.1211  0.0615  0.1198
 4274W        W 8474   7.390   5.068  10.856  0.3304  0.0538  0.3541
 4275W        W 8475   3.139   1.937  10.067  0.1936 -0.2463  0.1940
 4276W        W 8476   1.914   9.628   1.326 -0.0512 -0.0886  0.0477
 4277W        W 8477   3.100   0.369   8.554 -0.0057 -0.0304  0.0059
 4278W        W 8478   5.393   8.929  10.130 -0.3512  0.2766  0.2439
 4279W        W 8479   2.387   5.016   0.877 -0.0416 -0.1408 -0.3717
 4280W        W 8480   5.272   9.155  12.516 -0.1348 -0.1151 -0.1678
 4281W        W 8481   9.004   4.361   2.664 -0.1202  0.0478  0.0503
 4282W        W 8482   5.377   2.191   2.443 -0.1467 -0.0329 -0.0481
 4283W        W 8483   0.654   1.704   2.892  0.0561 -0.1011 -0.3287
 4284W        W 8484   3.859   3.984   4.793 -0.2464 -0.0740  0.0062
 4285W        W 8485   3.380   4.084   2.394  0.1344 -0.0840  0.2113
 4286W        W 8486   1.797   8.773   4.073  0.3305 -0.0242  0.1190
 4287W        W 8487   9.788   2.459  12.632 -0.0383 -0.1145 -0.0600
 4288W        W 8488   6.980   5.618   0.286  0.3981  0.1503 -0.0353
 4289W        W 8489  10.285   8.017   9.784  0.1646  0.0681 -0.2487
 4290W        W 8490   9.642   0.904   0.783 -0.0445  0.4473  0.2026
 4291W        W 8491   4.421   7.597  12.794 -0.1729  0.0835  0.1643
 4292W        W 8492   7.244   5.165   1.457  0.2265 -0.1661 -0.0542
 4293W        W 8493   4.230   6.655   2.529 -0.1663 -0.1858  0.1761
 4294W        W 8494   9.665   8.630  12.681 -0.0398 -0.0690  0.0187
 4295W        W 8495   8.422   8.099   3.843  0.1109  0.0257  0.4674
 4296W        W 8496   2.288   2.847   1.127  0.1345  0.0521 -0.0669
 4297W        W 8497   4.781   5.108   1.596 -0.0381  0.2355  0.0547
 4298W        W 8498   4.669   2.223   1.312 -0.3855  0.1250  0.3581
 4299W        W 8499   6.744   9.344   2.543 -0.0784 -0.0317  0.0198
 4300W        W 8500   5.803   1.372   9.145  0.0694  0.2748  0.3369
 4301W        W 8501   7.223   0.038   0.745  0.1231 -0.2135 -0.0602
 4302W        W 8502   4.894   3.477  11.340 -0.0049  0.1127  0.2285
 4303W        W 8503   4.731   4.364  13.206 -0.1891  0.0378  0.2400
 4304W        W 8504   2.876   3.003  11.660  0.2503  0.3321 -0.1328
 4305W        W 8505   4.152   1.875   9.620 -0.0360 -0.0595  0.2288
 4306W        W 8506   1.888   2.631  10.426 -0.1447 -0.2294  0.1106
 4307W        W 8507   0.819   7.627   3.863 -0.0031  0.2007 -0.0506
 4308W        W 8508   1.574   6.780   1.501  0.0149  0.0154 -0.0491
 4309W        W 8509   0.823   3.197   1.271 -0.2801 -0.0434  0.0225
 4310W        W 8510   3.372   5.599   3.500 -0.1186 -0.1695 -0.1819
 4311W        W 8511   1.377   5.344  11.521 -0.0257  0.1731 -0.0330
 4312W        W 8512   4.811   0.386   3.875  0.1335 -0.3101  0.0345
 4313W        W 8513   2.635   3.286   9.420  0.2358 -0.4921  0.2823
 4314W        W 8514   4.774  10.204   2.295  0.1887  0.1239  0.2596
 4315W        W 8515   4.342   6.596   2.007  0.1660 -0.4401 -0.1846
 4316W        W 8516   8.324   0.524   2.971 -0.0864  0.1491  0.0351
 4317W        W 8517   0.978   1.073   8.799 -0.2269 -0.0995 -0.1451
 4318W        W 8518   4.078   1.907  12.717  0.0977  0.2313  0.0909
 4319W        W 8519   0.642   4.431  12.040  0.1023 -0.1011  0.0583
 4320W        W 8520   9.333   8.994   0.129 -0.1005 -0.1407  0.0911
 4321W        W 8521   7.183   9.232   3.975 -0.1747 -0.2911 -0.0139
 4322W        W 8522   5.091   4.336   1.965 -0.1096  0.2098  0.1266
 4323W        W 8523   7.356   8.143   5.409 -0.1048  0.0182 -0.1167
 4324W        W 8524   9.828   8.832   9.477 -0.2953 -0.0380  0.4207
 4325W        W 8525   5.604   8.334   3.770  0.3083  0.2237  0.0129
 4326W        W 8526   4.157   2.216   1.686  0.2019 -0.2498 -0.2526
 4327W        W 8527   8.351   4.401   4.482  0.2196  0.0863 -0.1091
 4328W        W 8528   3.533   1.484   4.450 -0.0856 -0.0439  0.1076
 4329W        W 8529   1.129   9.154   9.291  0.1800 -0.2691 -0.0997
 4330W        W 8530   1.530   8.979   1.635  0.2719 -0.0744 -0.1608
 4331W        W 8531   4.979   7.056   5.034 -0.1295  0.2361  0.2209
 4332W        W 8532   4.049   7.310  12.595  0.0811  0.1334 -0.0085
 4333W        W 8533   6.113   9.871  13.176 -0.1119  0.0825 -0.2581
 4334W        W 8534   2.918   6.909  12.910  0.1145 -0.1689 -0.0361
 4335W        W 8535   2.965   6.834  11.197 -0.0794 -0.1170 -0.0076
 4336W        W 8536   4.564   1.131  13.128 -0.1787  0.0059  0.0731
 4337W        W 8537   9.424   7.845  10.928  0.4487  0.1729  0.1151
 4338W        W 8538   9.371   8.362  11.082 -0.3744  0.2690 -0.1993
 4339W        W 8539   5.351  10.209  11.063  0.0766 -0.2572 -0.0285
 4340W        W 8540   2.212   4.594   1.729  0.1733  0.1063  0.0254
 4341W        W 8541   9.293   0.539  10.324  0.0867 -0.0975  0.0508
 4342W        W 8542   9.617   2.469  10.725 -0.0852  0.1585  0.3000
 4343W        W 8543   3.602   7.356   1.135  0.0946 -0.1355  0.3440
 4344W        W 8544   2.473   1.266   8.637  0.1659 -0.0412  0.1644
 4345W        W 8545   8.186   8.002   9.524 -0.2707 -0.2487 -0.1407
 4346W        W 8546   5.336   5.600  13.230 -0.0307  0.0621  0.2612
 4347W        W 8547   1.102   6.894  10.179  0.1741 -0.2119  0.1014
 4348W        W 8548   3.842   5.813   4.656  0.2656 -0.1889  0.1572
 4349W        W 8549   1.637   0.303   2.303 -0.0656  0.2307 -0.1080
 4350W        W 8550   7.610   1.699  13.313  0.1442  0.0650  0.1933
 4351W        W 8551   9.270   7.379  10.403  0.2850  0.0956 -0.0286
 4352W        W 8552   3.598   5.058   0.239  0.0503 -0.0833 -0.0077
 4353W        W 8553   0.921   8.650   3.711 -0.0369 -0.0508 -0.1134
 4354W        W 8554   4.122   1.782  11.739  0.1761  0.1236 -0.4888
 4355W        W 8555   6.787   9.011  11.872  0.2244  0.0608 -0.0100
 4356W        W 8556   3.641   3.160  12.959 -0.2557 -0.0409  0.3915
 4357W        W 8557   3.189   9.339  13.187 -0.1578  0.1781  0.4282
 4358W        W 8558   8.119  10.017  12.009 -0.2312  0.0850  0.0740
 4359W        W 8559   2.813   0.751   1.388 -0.0963 -0.0543 -0.0379
 4360W        W 8560   1.303   2.346   0.495 -0.0812  0.3486 -0.0745
 4361W        W 8561   3.261   6.390   5.174  0.1739 -0.3670 -0.1441
 4362W        W 8562   7.282   6.121   2.544 -0.0976 -0.0986 -0.1448
 4363W        W 8563   3.704   2.700  11.115 -0.0009  0.1522 -0.1450
 4364W        W 8564   6.517   4.348  10.823  0.1360 -0.0619  0.4133
 4365W        W 8565   6.291   7.524   0.428 -0.2599  0.0106  0.2709
 4366W        W 8566   7.296   9.037   3.438  0.0806  0.5390 -0.2117
 4367W        W 8567   9.303   4.718   1.015  0.2349  0.1737  0.0214
 4368W        W 8568   1.174   2.511   2.599  0.0294 -0.1341  0.0455
 4369W        W 8569   6.765   2.391   0.617  0.1675  0.3821  0.0299
 4370W        W 8570   6.889   8.388  12.522  0.0709  0.2011  0.1050
 4371W        W 8571   1.419   2.599   1.227  0.0596 -0.0941 -0.0217
 4372W        W 8572   5.326   2.424   4.515 -0.0921 -0.1867  0.1474
 4373W        W 8573   6.990   1.146   0.571  0.2919  0.2471  0.2462
 4374W        W 8574   7.637   6.173   9.085  0.1027 -0.1250  0.0898
 4375W        W 8575   5.771   9.393  12.467 -0.1101  0.2651  0.0221
 4376W        W 8576   3.871   8.402   9.078 -0.1933 -0.0519  0.0310
 4377W        W 8577   0.683   2.964   0.873 -0.3170  0.1717 -0.0142
 4378W        W 8578   8.100   6.321  11.510 -0.0447 -0.1170  0.2635
 4379W        W 8579   3.058   1.059   0.611 -0.0416 -0.0032  0.0920
 4380W        W 8580   1.866   2.355  12.502  0.2027  0.1576 -0.1057
 4381W        W 8581   6.563   5.321   4.154 -0.0095  0.0198 -0.2666
 4382W        W 8582   8.926   3.724  10.059  0.2047  0.0241 -0.4155
 4383W        W 8583   8.067   3.601  11.631 -0.1213  0.2203  0.0458
 4384W        W 8584   9.483  10.366   3.236  0.1901  0.1912 -0.1204
 4385W        W 8585   5.563   4.836   2.413 -0.1700  0.0715  0.0886
 4386W        W 8586   0.155   6.392   0.627  0.1140  0.2210 -0.0577
 4387W        W 8587   0.508   0.546   4.232 -0.1068  0.0848 -0.0121
 4388W        W 8588   5.727   6.114  10.066  0.2032 -0.2669  0.0141
 4389W        W 8589   8.751   0.886   9.516  0.1621  0.1194 -0.0107
 4390W        W 8590   8.230   4.768  13.198  0.4383  0.3352 -0.1564
 4391W        W 8591   3.127   8.103   3.379 -0.0490 -0.4698 -0.1831
 4392W        W 8592   5.474   6.073   2.200  0.0420  0.0339 -0.2054
 4393W        W 8593   1.046   2.203  10.790 -0.1338 -0.0946 -0.0071
 4394W        W 8594   4.571   2.850   3.462 -0.2013  0.2252  0.1698
 4395W        W 8595   9.649   0.410   3.271 -0.0493 -0.0847  0.1117
 4396W        W 8596   5.267   0.863   8.741  0.0784 -0.0745 -0.3764
 4397W        W 8597   5.306   4.378   2.420  0.1735  0.4013  0.2496
 4398W        W 8598   4.902   1.664   0.278  0.1142 -0.0564 -0.0967
 4399W        W 8599   2.459   6.028   4.618 -0.0185  0.1000 -0.0708
 4400W        W 8600   1.824   7.553   3.535  0.1832  0.1939  0.1045
 4401W        W 8601   3.152   6.080   2.328 -0.1463  0.1335 -0.2270
 4402W        W 8602  10.250   1.225   2.529  0.0144  0.0702  0.0767
 4403W        W 8603   8.817   4.219  10.782 -0.1865  0.0879  0.0172
 4404W        W 8604   9.713   9.657   1.717 -0.1208  0.0300 -0.0545
 4405W        W 8605   9.940   0.644  13.089 -0.1761 -0.1667 -0.0043
 4406W        W 8606   5.600   2.896  10.328  0.3146  0.1820  0.0920
 4407W        W 8607   8.090   1.472  13.278  0.2553 -0.2007  0.1357
 4408W        W 8608   3.761   1.665   3.185  0.1642 -0.1781 -0.1631
 4409W        W 8609   6.868   9.210  12.826  0.1216 -0.1581 -0.0488
 4410W        W 8610   1.443   3.560   2.385 -0.1395  0.2849  0.2001
 4411W        W 8611   2.323   2.164  12.337  0.0002  0.0917  0.2461
 4412W        W 8612   0.321   8.815  11.407 -0.0793  0.2983 -0.2930
 4413W        W 8613   4.342  10.073   1.960 -0.0957  0.2303 -0.1937
 4414W        W 8614   4.993   1.275   2.357 -0.0480 -0.3022 -0.1005
 4415W        W 8615   2.066   8.091  11.619 -0.0247  0.0161 -0.0215
 4416W        W 8616   1.530   6.882   1.997 -0.0070 -0.1165 -0.1351
 4417W        W 8617   1.059  10.453  11.043  0.0418  0.2417  0.1227
 4418W        W 8618   5.781   1.317  12.100 -0.1588  0.0217 -0.0235
 4419W        W 8619   8.259   6.789   0.122  0.0628 -0.0228  0.1695
 4420W        W 8620   9.336   0.254   1.465  0.2030 -0.1231  0.3724
 4421W        W 8621   3.297   6.162  13.189 -0.0153 -0.1160  0.0559
 4422W        W 8622   9.925   3.771   1.064 -0.1312 -0.2327 -0.1248
 4423W        W 8623   5.190   0.030   2.215 -0.5339  0.1751 -0.0549
 4424W        W 8624   3.656   7.812   9.855 -0.1360 -0.1337  0.1913
 4425W        W 8625   2.697   9.128   2.248  0.0520 -0.1168  0.0010
 4426W        W 8626   2.274   7.405  10.686  0.2272 -0.1459  0.0205
 4427W        W 8627   5.849   7.012  11.861  0.0022  0.1263  0.3150
 4428W        W 8628   2.457   4.245   2.712 -0.2046  0.0307  0.2439
 4429W        W 8629   6.666   3.579  12.945 -0.2532 -0.0481  0.2520
 4430W        W 8630   4.430   6.535   4.704  0.0619 -0.1872 -0.1945
 4431W        W 8631   6.820   7.497   0.410 -0.2661 -0.0462  0.0121
 4432W        W 8632   0.527   3.778   9.002 -0.0721  0.0859  0.1595
 4433W        W 8633   0.889  10.341   1.960 -0.0146  0.1934 -0.0048
 4434W        W 8634   9.929   6.482  12.808  0.2134  0.2035 -0.0508
 4435W        W 8635   4.478   2.254   4.493 -0.2077  0.1183  0.1988
 4436W        W 8636   4.404   8.946  13.080 -0.4707  0.3497  0.0084
 4437W        W 8637   2.890   2.794   4.035  0.0788 -0.3939  0.1888
 4438W        W 8638   3.674   7.103   8.833  0.1167 -0.2392 -0.0944
 4439W        W 8639   6.852   1.239  12.592 -0.1329  0.1264  0.0208
 4440W        W 8640   1.876   5.844  11.577 -0.2572  0.1597  0.1820
 4441W        W 8641   5.945   2.335   0.147  0.1230 -0.1028 -0.2242
 4442W        W 8642   6.016   6.093   2.173 -0.2030  0.1886 -0.1017
 4443W        W 8643   4.977   3.741   5.586 -0.0059  0.0794 -0.3753
 4444W        W 8644   6.014   0.717  10.304 -0.1520  0.1818 -0.0829
 4445W        W 8645   7.905   6.173   9.986 -0.5106 -0.0274 -0.0868
 4446W        W 8646  10.301   3.186   2.498  0.3719 -0.0128  0.0070
 4447W        W 8647   2.113   0.188   3.704 -0.0039  0.0214 -0.1148
 4448W        W 8648   7.219   0.972   4.275  0.0638 -0.1280  0.0977
 4449W        W 8649   5.265   2.111  11.856  0.0417  0.0876 -0.3123
 4450W        W 8650   3.312   7.808   1.391 -0.0301 -0.3288  0.0308
 4451W        W 8651   5.204   9.490   9.240 -0.1904 -0.1278 -0.1056
 4452W        W 8652   3.941   8.197   3.184  0.1473 -0.0163 -0.2074
 4453W        W 8653   0.733   6.439  13.371  0.0572  0.0786  0.3644
 4454W        W 8654   4.514   3.209   0.521  0.0189 -0.1187 -0.0302
 4455W        W 8655   9.091   6.721   4.590 -0.1743  0.0449  0.1696
 4456W        W 8656   7.018   5.417  12.523 -0.0686 -0.4362  0.1734
 4457W        W 8657   5.632   3.154  11.354  0.1280 -0.0295 -0.0420
 4458W        W 8658   5.801   7.603   1.473 -0.2568  0.1752 -0.0102
 4459W        W 8659   7.823   3.542  10.535  0.2383  0.1875  0.0729
 4460W        W 8660   5.506   2.069  11.344  0.3996 -0.0306 -0.1165
 4461W        W 8661   0.492   1.015   4.931 -0.3285 -0.3063  0.1746
 4462W        W 8662   9.815   3.607   9.598 -0.1486 -0.0146  0.0297
 4463W        W 8663   9.039   7.261  11.486 -0.1552 -0.1863  0.1393
 4464W        W 8664   6.595   4.082   1.764  0.0574 -0.0044  0.0262
 4465W        W 8665   8.126  10.352   1.398  0.1590 -0.0746 -0.4602
 4466W        W 8666   1.377   5.137   0.828 -0.1729 -0.1438 -0.1711
 4467W        W 8667   3.924   3.550  11.753  0.1217 -0.0882  0.0610
 4468W        W 8668   8.423   3.942  11.729  0.1986  0.0316  0.0802
 4469W        W 8669   1.678   5.556   3.247 -0.2044 -0.1625 -0.0514
 4470W        W 8670   2.899   0.844  12.775  0.1569 -0.1580 -0.1176
 4471W        W 8671   8.513   7.143   9.815 -0.3031  0.1323  0.2249
 4472W        W 8672   4.522   2.537   9.690  0.3109 -0.0040 -0.0806
 4473W        W 8673   5.833   5.931  13.422  0.2502  0.2111  0.3172
 4474W        W 8674  10.138   3.343   1.523 -0.0195 -0.1437 -0.0513
 4475W        W 8675   7.754   3.238   1.464  0.4194  0.1303  0.2442
 4476W        W 8676   9.552   8.970   3.283 -0.0550  0.3185 -0.1680
 4477W        W 8677   1.832   5.774  10.790 -0.1136  0.4334 -0.1685
 4478W        W 8678   8.187   8.450   1.258  0.5776 -0.3374  0.0427
 4479W        W 8679  10.031   1.909  12.449 -0.4909  0.0752 -0.0567
 4480W        W 8680  10.251   6.016   2.697 -0.1315  0.0506 -0.1986
 4481W        W 8681   6.648   6.616   0.730  0.0033  0.1396 -0.0369
 4482W        W 8682   4.731   7.935   0.645 -0.0262 -0.1958  0.1297
 4483W        W 8683   3.834   3.337   9.936 -0.0162 -0.4333 -0.1556
 4484W        W 8684   9.011   8.742  11.750 -0.1687 -0.0006 -0.0343
 4485W        W 8685   2.203   0.384   2.520 -0.1841 -0.1214 -0.0104
 4486W        W 8686   6.078   8.457   3.800  0.2973  0.2078  0.0785
 4487W        W 8687   8.942   5.315   2.924 -0.1151  0.4039 -0.0813
 4488W        W 8688   8.720   9.062   1.376 -0.0336 -0.0847 -0.0263
 4489W        W 8689   7.275   3.860   4.264 -0.1495  0.0587  0.2679
 4490W        W 8690   8.253   9.464   3.329 -0.0370 -0.4222  0.1054
 4491W        W 8691   7.203   9.247   8.852  0.2972  0.1015 -0.0356
 4492W        W 8692   4.609   1.230   0.167  0.0378 -0.0971 -0.4137
 4493W        W 8693   0.920   1.209   2.017  0.1599  0.1314 -0.1956
 4494W        W 8694   3.075   7.970   2.853 -0.1788 -0.1734 -0.1521
 4495W        W 8695  10.112   3.815  12.320  0.0973  0.0973 -0.3562
 4496W        W 8696   2.991   4.454  11.430  0.3879 -0.0749  0.1809
 4497W        W 8697   1.406   4.491  13.342 -0.0649 -0.4613 -0.0154
 4498W        W 8698   7.993   1.307  10.940 -0.1857 -0.0554 -0.2215
 4499W        W 8699   1.223   6.036  10.074  0.0159  0.0813 -0.0142
 4500W        W 8700   4.659   3.227   9.427 -0.1540  0.4702  0.2626
 4501W        W 8701   0.982   0.493   0.476 -0.1530  0.0756 -0.0193
 4502W        W 8702   9.373   0.152   2.518 -0.0709 -0.0801  0.3469
 4503W        W 8703   9.385   6.024  11.401 -0.0576  0.0202  0.1382
 4504W        W 8704   8.966   1.051   1.409  0.1763  0.2352  0.1013
 4505W        W 8705   7.354   6.760  12.130  0.2617 -0.1769  0.1143
 4506W        W 8706   6.949   5.007  12.813 -0.2108  0.0739 -0.1582
 4507W        W 8707   2.405   9.436   4.114 -0.0845  0.1592 -0.0364
 4508W        W 8708   4.361   8.098   3.478  0.0197  0.0185  0.1553
 4509W        W 8709   3.214   0.078   8.993 -0.2010 -0.2221 -0.4415
 4510W        W 8710   4.614   5.902   3.168 -0.0747  0.1077 -0.0055
 4511W        W 8711   8.807   1.768   2.727  0.0802  0.2408 -0.0111
 4512W        W 8712  10.311   3.882  12.833  0.4438 -0.1313 -0.1082
 4513W        W 8713   0.023   6.604  12.236  0.0276 -0.0933 -0.2006
 4514W        W 8714   3.260   3.153   3.823  0.2064 -0.0772 -0.1127
 4515W        W 8715   0.487   8.918  10.307  0.0806  0.1572  0.0499
 4516W        W 8716   0.507   3.076  11.594  0.0789 -0.1835 -0.2769
 4517W        W 8717   2.014   5.021  10.229  0.2876 -0.0407 -0.3026
 4518W        W 8718   9.218   5.856   0.221 -0.0779  0.0800  0.3371
 4519W        W 8719   6.071   4.956  12.752  0.3712  0.3017  0.0105
 4520W        W 8720   9.807   0.101   1.415 -0.1527 -0.0753 -0.0322
 4521W        W 8721   1.867   2.431   1.379 -0.2202  0.0022 -0.2976
 4522W        W 8722   3.193   1.339   4.794  0.0506 -0.0258 -0.1957
 4523W        W 8723   4.249   5.958   4.403 -0.0342 -0.2222 -0.0715
 4524W        W 8724  10.117   9.895  12.857 -0.2516 -0.0772  0.1683
 4525W        W 8725   1.096   0.496   3.361 -0.1051  0.1912 -0.5272
 4526W        W 8726   3.261   2.474   0.111 -0.0060 -0.2074  0.0563
 4527W        W 8727   8.948   6.913   9.628  0.1055 -0.1119  0.1934
 4528W        W 8728   2.097   4.677   2.649 -0.0758  0.3431  0.0360
 4529W        W 8729   8.988   8.550   3.394 -0.3396  0.0426 -0.3657
 4530W        W 8730   2.618  10.264   1.896 -0.0075 -0.0896 -0.4617
 4531W        W 8731   2.277   1.632  10.570  0.1609 -0.4343  0.3546
 4532W        W 8732   7.794   2.360   2.738 -0.0239 -0.2378  0.0217
 4533W        W 8733   9.689   7.332  13.117  0.2339  0.0184 -0.1824
 4534W        W 8734   3.644   1.045  13.352  0.4522  0.2109 -0.2472
 4535W        W 8735   9.797   0.615   9.608  0.1092 -0.0187  0.0608
 4536W        W 8736   4.542   2.382  12.132 -0.0535  0.0620  0.1237
 4537W        W 8737  10.435  10.066  12.428  0.0766  0.0432  0.4994
 4538W        W 8738   2.348   0.784   0.656 -0.2277 -0.1311 -0.1026
 4539W        W 8739   3.830   0.925   2.536  0.0862 -0.0813 -0.1135
 4540W        W 8740   6.134   0.415   1.893  0.3916  0.0536 -0.0599
 4541W        W 8741   8.227   2.964   1.598  0.1847  0.1648 -0.0313
 4542W        W 8742   7.092   0.577   1.715 -0.0035  0.0580  0.2210
 4543W        W 8743   3.843   8.891   1.493  0.0192 -0.0481 -0.4563
 4544W        W 8744   1.844   2.339   0.415 -0.1585 -0.2650  0.0815
 4545W        W 8745   6.549   6.860   3.311  0.0576 -0.1974 -0.0869
 4546W        W 8746  10.392  10.014  13.317 -0.0089  0.2001 -0.2467
 4547W        W 8747   4.708   4.523  11.462 -0.0986  0.0189 -0.0774
 4548W        W 8748   2.685   9.941   3.498  0.0709  0.1290 -0.1060
 4549W        W 8749   4.506   0.528  10.749 -0.1363 -0.1927 -0.1749
 4550W        W 8750   5.682  10.301   3.049  0.0781 -0.0252 -0.2082
 4551W        W 8751   1.732   5.834   0.501  0.2228 -0.0772  0.2641
 4552W        W 8752   3.956   5.432   0.178 -0.2350 -0.3239 -0.0424
 4553W        W 8753   4.384   6.718  11.081  0.2293  0.1982  0.0507
 4554W        W 8754   2.956   1.213   3.368  0.1505  0.1446  0.2408
 4555W        W 8755   0.454   4.867   0.010 -0.1041  0.0092  0.0388
 4556W        W 8756   4.052   2.635  10.319  0.2566 -0.0127  0.0484
 4557W        W 8757   0.865   9.175  13.151 -0.0519 -0.0955 -0.0322
 4558W        W 8758   8.553   8.206   1.776  0.2433 -0.0385  0.0499
 4559W        W 8759   5.610   5.877   4.119 -0.1140 -0.1546  0.1902
 4560W        W 8760   2.063   6.228   0.677 -0.0052 -0.4319 -0.5148
 4561W        W 8761   4.175   3.358  12.886 -0.2397 -0.1718 -0.0586
 4562W        W 8762   0.613   3.278   9.801  0.0719 -0.1408 -0.0321
 4563W        W 8763   2.209  10.049   1.998  0.0051  0.1816  0.1837
 4564W        W 8764   0.641   4.374   2.860 -0.3458  0.3206 -0.0057
 4565W        W 8765   9.202   5.885   0.731  0.0967 -0.0540  0.1323
 4566W        W 8766   8.711   6.121   0.165  0.3427  0.1974  0.1517
 4567W        W 8767  10.275   7.010   9.593 -0.1267 -0.1545 -0.1342
 4568W        W 8768   9.589   5.107   1.108  0.0446 -0.0588  0.0385
 4569W        W 8769   8.299   1.897   2.062  0.0086 -0.2544 -0.0741
 4570W        W 8770   3.444   8.482   3.813 -0.0417 -0.0002  0.3173
 4571W        W 8771   5.396   7.955   4.014  0.0007  0.0391  0.0168
 4572W        W 8772   5.324   3.499  13.361  0.1271 -0.0769 -0.1358
 4573W        W 8773   7.808   8.546  10.199 -0.0971 -0.0565  0.1153
 4574W        W 8774  10.180   5.589   0.541 -0.1508  0.0367  0.0497
 4575W        W 8775   2.127   4.007  13.286 -0.0573 -0.2626 -0.2079
 4576W        W 8776   3.825   7.884  11.965  0.1159 -0.2038  0.2053
 4577W        W 8777   0.266   3.543   0.171  0.0885 -0.0032  0.0281
 4578W        W 8778   0.519  10.057   9.619 -0.2497  0.1332  0.0969
 4579W        W 8779   3.964  10.257   1.110 -0.0098 -0.3117  0.2132
 4580W        W 8780   6.562   5.283   0.204 -0.3645 -0.2025  0.1022
 4581W        W 8781   5.669   8.042   2.703 -0.0311  0.1186 -0.1446
 4582W        W 8782   2.448   3.339   9.899 -0.2492  0.0741  0.2774
 4583W        W 8783   8.194   3.967  10.248 -0.0343  0.1446 -0.3976
 4584W        W 8784   2.704  10.383   0.872 -0.4634  0.1150  0.0001
 4585W        W 8785   1.562   5.213  12.946 -0.1808 -0.3252 -0.2244
 4586W        W 8786   1.570   0.370   3.659  0.2459 -0.1280 -0.0987
 4587W        W 8787   0.270   7.009  13.143 -0.2296  0.0107 -0.0447
 4588W        W 8788   0.953  10.313   2.474  0.1885 -0.1403 -0.0963
 4589W        W 8789   3.588   0.358   3.476  0.0457 -0.1187 -0.0165
 4590W        W 8790   5.824  10.236   9.048  0.0790  0.0487 -0.1328
 4591W        W 8791   2.170   3.979  12.764  0.2646  0.1592  0.0597
 4592W        W 8792   3.145   1.670  12.867  0.0944 -0.1960 -0.0127
 4593W        W 8793   1.254   3.320  13.125  0.0304  0.1467  0.0702
 4594W        W 8794   4.818   2.455   9.303  0.0118  0.1608  0.0434
 4595W        W 8795   0.839   2.163   0.645  0.0274 -0.1538 -0.0526
 4596W        W 8796   6.563   5.485   1.795  0.2344 -0.0758 -0.1928
 4597W        W 8797   4.970   3.292  10.733  0.0204 -0.0276 -0.0681
 4598W        W 8798   5.712   6.635  12.671  0.0738 -0.3406  0.1637
 4599W        W 8799   1.842   1.689  12.961 -0.1001 -0.0289 -0.2244
 4600W        W 8800   0.118   2.701   3.132  0.0020  0.2242 -0.2015
 4601W        W 8801   3.903   3.740   4.074  0.0733 -0.0392  0.1860
 4602W        W 8802  10.415   7.476  11.434  0.0171 -0.1259 -0.3163
 4603W        W 8803   1.326   5.871   0.229  0.1508  0.0369  0.0397
 4604W        W 8804   9.315   4.479   3.254 -0.0160  0.0373 -0.3110
 4605W        W 8805   1.119   6.113   4.350 -0.1860 -0.0070  0.0781
 4606W        W 8806   3.933   0.337   3.946 -0.0302  0.1251 -0.1998
 4607W        W 8807   4.746   6.098   3.603 -0.2061 -0.3026 -0.0597
 4608W        W 8808   1.340   1.387   1.788 -0.0755 -0.2322  0.1403
 4609W        W 8809   3.453   8.632   1.268  0.0035  0.2288 -0.0394
 4610W        W 8810   2.135   5.993   2.303 -0.0738 -0.1926  0.2989
 4611W        W 8811   4.449   5.194   2.034  0.2323 -0.0364 -0.1267
 4612W        W 8812   0.293   3.315   9.184  0.0925  0.2443 -0.2853
 4613W        W 8813   2.011   0.992   3.216  0.2269 -0.1028  0.2233
 4614W        W 8814   6.258   9.345  13.394  0.0686 -0.1615 -0.2585
 4615W        W 8815   0.917   7.637  11.547 -0.1816 -0.4263  0.0140
 4616W        W 8816   3.867   3.971   3.263 -0.2016  0.0491 -0.0708
 4617W        W 8817   0.910  10.295   9.448 -0.3336  0.0677 -0.1716
 4618W        W 8818   5.869   6.971   2.168 -0.0054  0.4121 -0.0065
 4619W        W 8819   2.738   3.844   0.548  0.0299 -0.2788 -0.2995
 4620W        W 8820   9.031   8.671  10.841  0.3113  0.0630 -0.1990
 4621W        W 8821   7.718   4.391   0.456  0.2383 -0.3782  0.2100
 4622W        W 8822   5.149   1.476   3.747 -0.1386  0.0975 -0.0192
 4623W        W 8823   5.851   9.000   3.096  0.0440  0.0018 -0.0144
 4624W        W 8824   4.798   3.732   3.063  0.0179 -0.2411 -0.1008
 4625W        W 8825   1.663   2.690  10.873  0.0459 -0.0922  0.3466
 4626W        W 8826   2.823   8.279   0.694  0.0310 -0.0285 -0.0452
 4627W        W 8827   9.328   5.145   9.725  0.0728  0.1267  0.0046
 4628W        W 8828   7.192  10.171   9.721 -0.0852 -0.2843  0.2648
 4629W        W 8829   3.836   0.261  10.063 -0.2491  0.1929 -0.2108
 4630W        W 8830  10.240   9.390   0.939 -0.0820  0.3188 -0.2403
 4631W        W 8831   1.805   1.995   3.374 -0.0309  0.1648 -0.1671
 4632W        W 8832   8.502   6.800   9.403 -0.2309 -0.0445  0.1886
 4633W        W 8833   3.530   8.526  10.460 -0.1668  0.3190  0.0401
 4634W        W 8834   7.517   0.881  12.016 -0.0629 -0.0870 -0.0730
 4635W        W 8835   8.439   1.651  10.791 -0.1210  0.0980 -0.0571
 4636W        W 8836   1.947   5.469   9.942  0.1254 -0.0780 -0.3726
 4637W        W 8837   6.184   1.350   2.543  0.3956 -0.1753 -0.1963
 4638W        W 8838   6.743   7.058  10.618 -0.2881 -0.0106 -0.0052
 4639W        W 8839   8.546   5.495   1.921 -0.1275  0.1132  0.0054
 4640W        W 8840   6.512   2.215  12.932  0.2692 -0.1206 -0.2188
 4641W        W 8841   6.682   8.712  12.909 -0.4730 -0.2191 -0.0643
 4642W        W 8842   2.087   3.160   0.344  0.0313  0.0548  0.1251
 4643W        W 8843  10.019   2.040   1.468 -0.2106  0.2064 -0.2500
 4644W        W 8844   2.278   0.870   2.572 -0.1389  0.1069 -0.1513
 4645W        W 8845   1.390   3.192  10.570 -0.0788  0.1886 -0.2724
 4646W        W 8846   5.871   1.374  12.624  0.2146  0.2857 -0.1758
 4647W        W 8847   8.646   9.067   3.302 -0.0646  0.0155 -0.1748
 4648W        W 8848   4.045   9.278  12.496 -0.2458  0.0152 -0.1459
 4649W        W 8849   1.556   9.690   0.940  0.1010  0.0045 -0.1651
 4650W        W 8850   5.158  10.452   2.994 -0.1643  0.1870 -0.0379
 4651W        W 8851   4.372   3.191  12.325  0.2167  0.1480 -0.0460
 4652W        W 8852   4.510   5.668   9.944 -0.2251  0.0548  0.2055
 4653W        W 8853   1.966   6.982  11.421 -0.1600  0.0565  0.0035
 4654W        W 8854   4.732   1.402   3.427  0.1825  0.1448 -0.2433
 4655W        W 8855   7.470   2.026   1.001  0.1315  0.0407 -0.0784
 4656W        W 8856   1.552   6.779   9.043 -0.0066  0.0191  0.2409
 4657W        W 8857   0.189   8.718  10.794 -0.0529 -0.2638 -0.1730
 4658W        W 8858   2.545   7.789  13.208 -0.2468  0.0066 -0.3046
 4659W        W 8859   5.927   3.151   1.493  0.2041 -0.1338 -0.1146
 4660W        W 8860   7.184   0.019  10.515  0.1068  0.0485 -0.1297
 4661W        W 8861   8.029   3.135  13.364 -0.0952 -0.2971 -0.0867
 4662W        W 8862   1.986   5.928   9.161  0.1351  0.1760 -0.1339
 4663W        W 8863   9.763   5.861   2.594  0.2672  0.1032  0.2213
 4664W        W 8864   3.053   9.903  10.083  0.1568 -0.2589 -0.3020
 4665W        W 8865   5.947   9.373  11.276 -0.0943 -0.2050  0.1770
 4666W        W 8866   6.280   9.175  12.482 -0.0895  0.0081  0.1418
 4667W        W 8867   7.624   9.928   3.945 -0.1001  0.0040 -0.3109
 4668W        W 8868   0.340   9.168   0.285 -0.0184 -0.0592  0.0670
 4669W        W 8869   6.644  10.395  11.713  0.2234  0.4396  0.0617
 4670W        W 8870   1.998   3.509   2.231 -0.0971 -0.1882  0.0258
 4671W        W 8871   6.064  10.096   0.966 -0.1838  0.0208  0.4935
 4672W        W 8872   8.612   8.178  12.530  0.0950 -0.2714 -0.3164
 4673W        W 8873   8.425   2.336   2.285  0.2571 -0.0318 -0.2418
 4674W        W 8874   3.107   7.835   0.659  0.1780  0.0431 -0.0016
 4675W        W 8875   5.794   9.740   5.301 -0.0868 -0.0872  0.3507
 4676W        W 8876   6.236   1.803   2.293  0.0454  0.0408  0.2519
 4677W        W 8877  10.272   6.808  11.820  0.3183  0.0746 -0.3175
 4678W        W 8878   0.011   1.819   0.288 -0.1840  0.0043 -0.0011
 4679W        W 8879   1.377   5.680  13.152  0.0014  0.3408  0.0337
 4680W        W 8880   4.392   1.030   3.370 -0.0042  0.3744  0.3527
 4681W        W 8881   3.173   1.794  12.329  0.2019 -0.2795 -0.0914
 4682W        W 8882   5.238   3.331   8.858 -0.1106  0.1832  0.1855
 4683W        W 8883   5.471  10.288  12.089  0.1288 -0.3309  0.1389
 4684W        W 8884   4.193   9.396   0.090  0.2229 -0.0921 -0.0636
 4685W        W 8885   2.255   2.615  11.000 -0.1019 -0.0402  0.1225
 4686W        W 8886   2.207   7.253  10.199  0.1175  0.1578 -0.0624
 4687W        W 8887   9.074   3.773  13.370 -0.0145  0.2795  0.1441
 4688W        W 8888   6.584   4.532   3.864 -0.0794  0.0130 -0.2736
 4689W        W 8889   7.592   8.206   9.896 -0.1958  0.3621 -0.0220
 4690W        W 8890   2.492   4.173  11.506  0.1559  0.1346 -0.1741
 4691W        W 8891   1.813   4.238   9.885  0.2233  0.1761  0.4981
 4692W        W 8892   4.306   6.223   3.429  0.1298  0.1139 -0.1014
 4693W        W 8893   4.919   5.635   0.229 -0.0135 -0.0594  0.2706
 4694W        W 8894   1.920   3.127   3.772  0.1826  0.0991  0.2250
 4695W        W 8895   4.987   6.575   8.963  0.0293  0.2637  0.1751
 4696W        W 8896   4.397   6.177  11.056  0.3767  0.0097  0.0130
 4697W        W 8897   6.608   5.431   0.698 -0.4094  0.1227  0.1859
 4698W        W 8898   8.582   6.589   8.367  0.0026 -0.1731  0.3975
 4699W        W 8899   1.096  10.189  12.960 -0.2396 -0.1164 -0.1756
 4700W        W 8900   4.725   5.944  10.627  0.3224 -0.1473  0.0688
 4701W        W 8901   0.320   3.667  11.519 -0.2841  0.2876 -0.2769
 4702W        W 8902   4.149   9.970   0.712 -0.0407  0.3162  0.0054
 4703W        W 8903   1.831   5.011   0.778 -0.1148  0.1152  0.1558
 4704W        W 8904   1.508   6.533   4.466 -0.1161  0.0669 -0.1165
 4705W        W 8905   9.061   1.322   0.246 -0.0104  0.2205 -0.1323
 4706W        W 8906  10.379   0.617   0.337  0.2165  0.0589 -0.0707
 4707W        W 8907   7.946   0.891   9.381 -0.1873  0.0435 -0.0740
 4708W        W 8908   5.234   0.897  10.254 -0.0798 -0.0434 -0.2761
 4709W        W 8909   5.439   3.836   9.410 -0.1932 -0.4030  0.2550
 4710W        W 8910   3.596   8.830   8.346  0.2033 -0.2228 -0.2420
 4711W        W 8911   4.072   6.911   4.497  0.1233  0.0765 -0.0197
 4712W        W 8912   1.664   0.959  13.396 -0.0370  0.1639  0.3481
 4713W        W 8913   9.844   8.999  12.968  0.1558  0.0024 -0.1504
 4714W        W 8914   7.134   3.358   2.035  0.2970 -0.2047 -0.2236
 4715W        W 8915   3.072   3.024   1.721 -0.3039 -0.0912 -0.0487
 4716W        W 8916   6.453   4.987  11.871  0.0851  0.0686 -0.0734
 4717W        W 8917   6.402   0.480   0.914  0.1227  0.1590 -0.1450
 4718W        W 8918   1.600   2.918   4.197 -0.0988 -0.2680 -0.0416
 4719W        W 8919   0.065  10.431  10.670 -0.3316  0.1507 -0.2933
 4720W        W 8920   0.404   6.113   1.466 -0.1453 -0.1363 -0.1801
 4721W        W 8921   0.214   5.760   3.512  0.3723  0.0056 -0.1179
 4722W        W 8922   3.753   8.333  10.079 -0.3661 -0.0200 -0.1830
 4723W        W 8923   2.430   5.590   2.978 -0.0881  0.0460  0.1707
 4724W        W 8924   9.833   5.274   9.726  0.0221  0.1807 -0.2769
 4725W        W 8925   4.750   8.332   3.154 -0.1276  0.0212 -0.0075
 4726W        W 8926   0.300   6.560   0.188 -0.0958  0.3742  0.0003
 4727W        W 8927   5.758   7.838   3.595 -0.0370  0.3911 -0.1331
 4728W        W 8928   1.595   2.701  12.199  0.0632 -0.2165  0.0811
 4729W        W 8929   2.472   2.056   9.870  0.2372  0.1138 -0.0253
 4730W        W 8930   0.394   2.780  10.025  0.0189  0.0566 -0.2004
 4731W        W 8931   1.110   0.372  12.482  0.5364 -0.3763 -0.0365
 4732W        W 8932   4.506   6.319   3.961 -0.0400  0.3772 -0.1516
 4733W        W 8933   9.156   6.946  11.044 -0.1193 -0.0682 -0.0777
 4734W        W 8934   3.213   7.333  12.388  0.1926 -0.1441  0.1439
 4735W        W 8935   3.652   4.014  12.616  0.0470  0.0110  0.1721
 4736W        W 8936   0.431  10.024   0.674 -0.0876  0.2081  0.0833
 4737W        W 8937   9.403   6.221   2.698 -0.2002 -0.2762 -0.0488
 4738W        W 8938   2.680   8.787  10.303 -0.2004 -0.0551  0.2839
 4739W        W 8939   2.040   6.127  13.058  0.0615 -0.0277  0.0847
 4740W        W 8940   5.002   5.582   9.754  0.1708 -0.1990 -0.0134
 4741W        W 8941   3.267   2.179  12.653 -0.0040  0.2587  0.2327
 4742W        W 8942   6.995   9.791   3.048  0.1831  0.0644  0.0339
 4743W        W 8943   1.073   8.797   4.717  0.3038  0.0694 -0.2702
 4744W        W 8944   3.066   4.126   4.571  0.1615 -0.3128  0.0474
 4745W        W 8945   1.290   7.201   1.363 -0.1144 -0.2467 -0.0073
 4746W        W 8946   2.673   8.419   9.945 -0.0390  0.0120  0.1422
 4747W        W 8947   2.735   6.228   9.974 -0.0214 -0.3466 -0.1066
 4748W        W 8948   1.218   6.443  11.271  0.1215 -0.1193  0.2815
 4749W        W 8949   6.956   3.836   2.783  0.1838  0.3862  0.1620
 4750W        W 8950   6.574   6.533  10.407  0.0722  0.1314 -0.1152
 4751W        W 8951   8.489   0.924   1.234 -0.3433  0.2792  0.0063
 4752W        W 8952   8.685   7.105  12.715 -0.2540 -0.1928  0.0205
 4753W        W 8953   7.702   6.955   4.508  0.3369  0.0426  0.0862
 4754W        W 8954   1.249   6.575  13.378  0.2189 -0.2562 -0.1313
 4755W        W 8955   4.464   3.440   0.051  0.0500 -0.2525 -0.0492
 4756W        W 8956   3.137   0.763   2.659 -0.3046 -0.0693 -0.1230
 4757W        W 8957   6.059   5.615   3.996 -0.0688  0.2655  0.1088
 4758W        W 8958   1.082   0.328  12.981  0.0187  0.2612 -0.0255
 4759W        W 8959   0.505   3.851   4.509 -0.1593 -0.3863  0.0366
 4760W        W 8960  10.309   2.089   2.834  0.0664 -0.0404  0.1679
 4761W        W 8961   9.251  10.100   0.682  0.5091  0.2046  0.0657
 4762W        W 8962   7.391   3.986   9.951  0.0479  0.1693 -0.2113
 4763W        W 8963   6.422   9.883   2.374  0.4240  0.2924  0.0930
 4764W        W 8964   7.860   8.270   4.700  0.0739  0.4571  0.1049
 4765W        W 8965   3.936   0.320   1.716  0.1486  0.2701 -0.0485
 4766W        W 8966   4.777   5.311   3.354  0.2027  0.2095 -0.1177
 4767W        W 8967   4.156   0.076  11.126 -0.4126  0.1363 -0.0488
 4768W        W 8968   8.899   0.878  11.836  0.2892  0.0866 -0.2180
 4769W        W 8969   1.403   7.630   9.831 -0.1788 -0.0230  0.0434
 4770W        W 8970   1.532  10.072   0.073 -0.0199  0.3708  0.3153
 4771W        W 8971   0.161   1.236  13.149 -0.2953  0.0560  0.2106
 4772W        W 8972   7.798  10.032  11.561 -0.2315 -0.0972 -0.2029
 4773W        W 8973   3.295   8.019  11.261  0.3788  0.0716  0.2298
 4774W        W 8974   0.084   3.074  10.593  0.1303  0.2780 -0.0944
 4775W        W 8975   5.283   0.194  11.866  0.1346  0.4528 -0.1995
 4776W        W 8976   1.785   3.253  12.975 -0.1404 -0.0957  0.3816
 4777W        W 8977   0.621   7.513   9.818  0.1474  0.0775 -0.1219
 4778W        W 8978   7.027   9.660  12.883  0.0702 -0.2573 -0.0366
 4779W        W 8979   0.394   3.390   1.085 -0.2194  0.0747 -0.2360
 4780W        W 8980   5.379   5.359  10.079  0.1384 -0.1585 -0.0196
 4781W        W 8981   9.844   4.035   3.432  0.3913 -0.2324  0.0526
 4782W        W 8982   7.182   1.943  11.544 -0.0878  0.1487  0.0029
 4783W        W 8983   0.401   7.587   3.522 -0.1710  0.0159  0.1304
 4784W        W 8984   0.707   8.567  11.248  0.0115  0.2006 -0.0575
 4785W        W 8985   4.861   7.287  12.881  0.0472 -0.1190  0.0285
 4786W        W 8986   4.917   5.396  10.267  0.0768  0.0912 -0.4864
 4787W        W 8987   2.053   1.665  11.021 -0.1246  0.0639 -0.3329
 4788W        W 8988   1.006  10.165   3.779  0.0726  0.0253  0.1706
 4789W        W 8989   4.974   3.240   4.109 -0.0295 -0.3122 -0.0378
 4790W        W 8990   6.612   7.750   3.628  0.0310  0.0145  0.0996
 4791W        W 8991   2.602   7.504  11.243 -0.0116 -0.0257  0.7565
 4792W        W 8992   5.699   8.779   2.235 -0.0139 -0.1452 -0.0773
 4793W        W 8993   0.827   0.927   3.981 -0.1996 -0.0694 -0.2955
 4794W        W 8994   2.886   4.678   3.696  0.0425  0.0919 -0.0189
 4795W        W 8995   3.518   9.515   1.209  0.4100 -0.0759 -0.2529
 4796W        W 8996   4.851   5.163  10.699 -0.0919 -0.1290  0.4262
 4797W        W 8997   7.112  10.410   1.839 -0.1783 -0.0725 -0.1624
 4798W        W 8998   7.773   1.677  11.496 -0.1092  0.3605 -0.2314
 4799W        W 8999   2.035   6.541  12.759  0.1356  0.0669  0.2766
 4800W        W 9000   5.115   9.992   1.710  0.4316  0.0433  0.1865
 4801W        W 9001   3.611   2.698  12.755 -0.2985 -0.2398 -0.2718
 4802W        W 9002   9.570   8.764  10.741 -0.0828 -0.1565 -0.1152
 4803W        W 9003   2.320   6.274   9.094 -0.1341 -0.2892  0.4309
 4804W        W 9004   8.570   8.712   1.059  0.0342 -0.0488 -0.2354
 4805W        W 9005   9.318   8.332   1.276 -0.3620 -0.0031 -0.2542
 4806W        W 9006   8.009   4.675   1.458 -0.1322  0.2600 -0.3834
 4807W        W 9007   7.545   2.953  13.133  0.1301 -0.1271 -0.0895
 4808W        W 9008   3.838   7.686   1.505  0.1874  0.2785  0.0639
 4809W        W 9009   5.585   6.367   0.158  0.0920  0.0642  0.0264
 4810W        W 9010   2.480   0.911   4.008 -0.1430 -0.0125 -0.1610
 4811W        W 9011  10.480   8.053   0.763  0.0267  0.3523  0.1363
 4812W        W 9012   1.229   4.026   4.891 -0.0364  0.1359  0.0025
 4813W        W 9013   6.029   0.348   9.866  0.1743  0.1734 -0.4676
 4814W        W 9014   6.991   1.610  10.696 -0.1840  0.5847  0.0550
 4815W        W 9015   3.774   2.980   0.885  0.4921 -0.1045  0.0804
 4816W        W 9016   9.449   4.660   2.804  0.2707  0.1160  0.2287
 4817W        W 9017   0.825   4.120  13.134 -0.1177 -0.0097 -0.2319
 4818W        W 9018   8.860   2.136  13.304 -0.0401 -0.1415  0.0351
 4819W        W 9019   5.878   2.638  10.692 -0.1761 -0.0625 -0.0825
 4820W        W 9020  10.386   3.647   2.308  0.0407 -0.0072 -0.2754
 4821W        W 9021   6.905   4.106  12.196 -0.2263  0.2007  0.2897
 4822W        W 9022   8.258  10.122   3.100  0.0022  0.1424  0.0996
 4823W        W 9023  10.102   0.496   1.435  0.1023  0.0591  0.1020
 4824W        W 9024   8.211   4.350   0.208  0.1885  0.0343  0.1640
 4825W        W 9025   6.194   4.172   0.983  0.0003 -0.0656 -0.1021
 4826W        W 9026   7.068   0.913  11.699 -0.4305 -0.2832 -0.2270
 4827W        W 9027   0.947   5.204   8.874 -0.1650 -0.2652  0.1652
 4828W        W 9028   3.149   5.771  10.943  0.0139  0.1844  0.0148
 4829W        W 9029   8.477   7.699   2.952  0.3381  0.1698  0.2474
 4830W        W 9030   3.238  10.049  12.160  0.3146 -0.1519  0.3315
 4831W        W 9031   6.778   0.264  10.350  0.2919 -0.1066  0.1077
 4832W        W 9032   0.464   5.287   9.858 -0.0234 -0.5198  0.0705
 4833W        W 9033   5.344   0.221   4.748  0.1324 -0.0240 -0.1145
 4834W        W 9034   6.922   2.322   0.147 -0.1878 -0.2640  0.0155
 4835W        W 9035   4.106   6.920   0.574  0.0029  0.2239  0.2433
 4836W        W 9036   0.689   5.653   8.961  0.0086  0.1938  0.2183
 4837W        W 9037   5.725   2.437  12.626 -0.0860  0.2699 -0.0952
 4838W        W 9038   7.538   7.922  12.143  0.1330  0.1515 -0.0970
 4839W        W 9039   4.740   4.315   2.382 -0.0388 -0.0583  0.0904
 4840W        W 9040   4.438   1.199   4.329 -0.0884  0.3747  0.0622
 4841W        W 9041   9.791   3.026  11.981  0.1519 -0.0900 -0.2509
 4842W        W 9042   8.113   4.988  10.941 -0.0826  0.1797  0.1336
 4843W        W 9043   0.641   6.500   9.162 -0.0841  0.1888  0.1253
 4844W        W 9044   6.921   4.132   9.947  0.3102 -0.2810 -0.2905
 4845W        W 9045   3.873   0.008   0.674  0.2705  0.0051  0.1107
 4846W        W 9046   2.453   2.099  10.767 -0.0667 -0.2558  0.3897
 4847W        W 9047   3.064  10.232   0.111 -0.0900  0.1817  0.1557
 4848W        W 9048   2.904   5.843   9.688 -0.0728  0.0862  0.0773
 4849W        W 9049   9.699   4.051   9.862  0.0281  0.0452 -0.1314
 4850W        W 9050   4.792   5.121   9.736 -0.2180 -0.0730 -0.3396
 4851W        W 9051   2.950   6.854  11.862 -0.0232 -0.0896 -0.2640
 4852W        W 9052   4.405   0.502   2.009  0.1620  0.2183  0.3235
 4853W        W 9053   2.875   6.421  13.131  0.0960  0.2355 -0.1933
 4854W        W 9054   4.040   3.387   0.840 -0.2484  0.1095  0.2193
 4855W        W 9055   3.813   1.552   3.729  0.1294  0.0962  0.1601
 4856W        W 9056   2.718   2.980  10.261  0.2025  0.4241  0.3694
 4857W        W 9057   7.418   0.889   0.360 -0.1354 -0.3634  0.3866
 4858W        W 9058   8.750   6.726   4.179  0.1251 -0.0975  0.0565
 4859W        W 9059   2.245   6.197  10.125  0.1837 -0.3258  0.4063
 4860W        W 9060   1.272   9.963  10.537 -0.2149  0.0774  0.0869
 4861W        W 9061   6.420  10.424   9.734 -0.0949  0.4331  0.1893
 4862W        W 9062   2.488   3.280  12.548  0.1947  0.1103 -0.0165
 4863W        W 9063   7.952   4.939   1.993  0.0936 -0.3413  0.1872
 4864W        W 9064   1.721   3.643   8.436 -0.0667 -0.3777  0.1088
 4865W        W 9065   4.004   3.201   0.013  0.1124  0.1729  0.0646
 4866W        W 9066   0.203   4.114   0.307  0.1632  0.0315  0.0830
 4867W        W 9067   1.357   2.910  11.233  0.1788 -0.1502 -0.1791
 4868W        W 9068   7.355   8.297  11.822 -0.4023  0.0014  0.1693
 4869W        W 9069   9.709   6.136   2.154  0.1611  0.0257 -0.2439
 4870W        W 9070   7.975   2.054   1.740  0.1367  0.2042  0.2209
 4871W        W 9071  10.223   3.812   9.761 -0.0851  0.0149 -0.0050
 4872W        W 9072   4.775   9.699   2.633  0.1280 -0.0135  0.0151
 4873W        W 9073   0.793  10.239   3.041 -0.0075 -0.2236 -0.0369
 4874W        W 9074   9.962  10.260   0.039  0.3824 -0.1108  0.1495
 4875W        W 9075   3.669   6.713   2.913 -0.0180 -0.0126  0.0178
 4876W        W 9076   5.014   1.683  12.368  0.2400  0.4008  0.1016
 4877W        W 9077   8.854   3.822  12.538 -0.0550 -0.0570  0.0373
 4878W        W 9078   8.897   1.719  11.546  0.0290 -0.1724  0.1138
 4879W        W 9079   4.408   8.543  12.768  0.4871 -0.3271  0.1484
 4880W        W 9080   1.466   8.838   2.635 -0.1401  0.2576 -0.0741
 4881W        W 9081   1.741   0.639   8.709  0.2255  0.0448  0.0533
 4882W        W 9082   6.138   1.866   1.830  0.2197 -0.2709  0.2624
 4883W        W 9083   7.429   7.820   1.279  0.0341 -0.4784  0.1475
 4884W        W 9084   4.253   5.737   0.968  0.2416  0.1960  0.0755
 4885W        W 9085   4.752   0.219  12.117 -0.0662 -0.1422 -0.3348
 4886W        W 9086   6.657   6.495   4.855  0.1087 -0.1605  0.1352
 4887W        W 9087  10.433   8.599   3.455  0.0793  0.1126  0.0013
 4888W        W 9088   5.750   4.701  12.215 -0.0894  0.0000 -0.2241
 4889W        W 9089   6.773   2.757   9.198  0.1954  0.1885 -0.0395
 4890W        W 9090   1.780   3.048   9.305  0.4327 -0.1062 -0.2300
 4891W        W 9091   4.314   9.516   0.648 -0.4955  0.0365  0.1082
 4892W        W 9092   2.766   6.240   5.404  0.1058  0.0802  0.2489
 4893W        W 9093   4.647   8.553   3.581 -0.0752  0.0228  0.2692
 4894W        W 9094   7.049   2.078  10.857  0.0625  0.0141 -0.0105
 4895W        W 9095   1.493   8.931   9.605  0.2441  0.0797 -0.2201
 4896W        W 9096   1.532   8.019  12.300  0.0743  0.2068 -0.3694
 4897W        W 9097   3.147   2.297   8.277  0.1343 -0.0516 -0.2793
 4898W        W 9098   4.512   4.664   9.794 -0.0085 -0.0747  0.2026
 4899W        W 9099  10.446   8.498  13.306  0.0408  0.0075  0.0158
 4900W        W 9100   4.507   4.189   4.677 -0.4270  0.1381  0.0307
 4901W        W 9101   6.054   7.026   0.611  0.1961  0.0715  0.1478
 4902W        W 9102   3.270   0.847   1.691 -0.1132 -0.0620  0.3557
 4903W        W 9103   7.253   3.938   9.392 -0.3166  0.1017  0.0414
 4904W        W 9104   6.754   3.010   9.799  0.4661 -0.0933 -0.2813
 4905W        W 9105   0.778   1.959   9.711 -0.1318 -0.0105 -0.0111
 4906W        W 9106   5.370   5.713   0.901 -0.3271 -0.0922  0.1051
 4907W        W 9107   4.088   3.417   3.110  0.3383 -0.0534 -0.0308
 4908W        W 9108   7.526   9.247   2.105 -0.2267 -0.2666 -0.0809
 4909W        W 9109  10.081   1.808   3.146  0.0633  0.0700 -0.1948
 4910W        W 9110   4.025   0.217  11.588 -0.1638 -0.0393 -0.0205
 4911W        W 9111   2.200   2.559   0.142 -0.1038  0.5420 -0.0651
 4912W        W 9112   5.748   4.283   4.168  0.2144 -0.2043 -0.1183
 4913W        W 9113   6.311   5.552   9.580 -0.1018 -0.1449  0.2170
 4914W        W 9114   3.278   8.980  12.073 -0.1202  0.1739  0.0328
 4915W        W 9115   1.242   6.251   2.576  0.2250  0.1995  0.3300
 4916W        W 9116   7.445   1.514   1.949 -0.3574  0.1729  0.0993
 4917W        W 9117   2.432   7.890   9.694 -0.0808  0.1117 -0.0702
 4918W        W 9118  10.139   8.076  13.401  0.1549  0.1313 -0.1377
 4919W        W 9119   6.748   9.428   4.197  0.2236  0.0578 -0.2510
 4920W        W 9120   7.932   0.982   0.337 -0.2841  0.0135 -0.4131
 4921W        W 9121   5.775   3.518   1.974  0.3036 -0.2055 -0.0100
 4922W        W 9122   0.685   8.698   3.076  0.1168  0.1023 -0.3479
 4923W        W 9123   9.277   5.713   9.133 -0.1963  0.0920  0.1055
 4924W        W 9124   9.291   7.665   8.778 -0.0337  0.1302  0.0172
 4925W        W 9125   5.606   6.780   3.368 -0.1307 -0.2558  0.0298
 4926W        W 9126  10.088   8.400   8.303 -0.0416 -0.1872 -0.0714
 4927W        W 9127   1.007   1.253  12.228  0.2522  0.0058  0.1832
 4928W        W 9128   8.979   1.197   0.945 -0.1876  0.1854 -0.0444
 4929W        W 9129   9.683   1.975   2.776  0.3247  0.1305  0.3273
 4930W        W 9130   6.357  10.287  13.020  0.1022 -0.0463 -0.1435
 4931W        W 9131  10.078   0.363   0.052 -0.1215 -0.0094  0.0224
 4932W        W 9132   1.784   8.768   3.074 -0.2527 -0.3135  0.0350
 4933W        W 9133   4.863   8.965  13.250 -0.0442 -0.3879  0.1182
 4934W        W 9134   1.193   9.643   0.287 -0.1320 -0.3484 -0.0214
 4935W        W 9135   3.525   0.780   1.176  0.2227 -0.0859  0.2126
 4936W        W 9136   3.203   6.451   9.257  0.0152 -0.0800  0.1893
 4937W        W 9137   1.109   3.925  11.021  0.1326 -0.0470 -0.0285
 4938W        W 9138   1.250   3.974  11.513 -0.1678  0.0435 -0.4732
 4939W        W 9139   3.935   5.262  11.292  0.1861  0.1866  0.1061
 4940W        W 9140   5.783   9.928  11.811 -0.0109 -0.1419 -0.3188
 4941W        W 9141   5.052  10.056  12.278 -0.1732  0.0715 -0.1570
 4942W        W 9142   5.222   0.141  12.381 -0.1267 -0.0407  0.1055
 4943W        W 9143   3.982   9.671   1.060  0.1611 -0.1419  0.0932
 4944W        W 9144   6.116   6.264   1.150  0.2312  0.3852  0.0444
 4945W        W 9145   4.392   5.831   3.745  0.0394 -0.2246 -0.2578
 4946W        W 9146   2.600   3.178   0.481 -0.0821 -0.0151  0.1016
 4947W        W 9147   7.177  10.042   4.833  0.0409  0.1394 -0.3245
 4948W        W 9148   3.493   5.041   4.121  0.3093  0.1541 -0.0469
 4949W        W 9149   9.880   0.128  13.047  0.0526 -0.2670 -0.1792
 4950W        W 9150   8.248   5.220   1.378 -0.3157 -0.0279 -0.1482
 4951W        W 9151   0.842   0.764  12.779 -0.1200  0.4213  0.1617
 4952W        W 9152   3.515   5.492   4.033  0.2523 -0.0688 -0.1448
 4953W        W 9153   6.201   7.071   3.631 -0.2037  0.3061  0.2829
 4954W        W 9154   9.767   5.024  13.220 -0.1558  0.3095 -0.0465
 4955W        W 9155   9.648   1.156  11.958  0.0242  0.1168 -0.0465
 4956W        W 9156   1.365   8.861   3.706 -0.0946  0.2729 -0.0391
 4957W        W 9157   6.082   5.283   4.523  0.3942  0.0587 -0.4314
 4958W        W 9158   1.845   5.325  13.411 -0.0921 -0.3713 -0.0371
 4959W        W 9159   9.560   1.708   0.473  0.0556  0.0560  0.0522
 4960W        W 9160   6.503   7.127   0.221 -0.1000  0.0660  0.0209
 4961W        W 9161   2.344   9.568   3.595  0.0444  0.3308  0.1394
 4962W        W 9162   0.223   4.544   4.723 -0.0860  0.0819  0.3924
 4963W        W 9163   0.624   6.326   0.524 -0.4725 -0.1584  0.1292
 4964W        W 9164   0.935   2.788   3.643  0.5764  0.1728 -0.0611
 4965W        W 9165  10.096   2.787  10.668 -0.0356 -0.2137  0.2491
 4966W        W 9166   6.687   5.512  11.566  0.0499 -0.2048 -0.0186
 4967W        W 9167   2.223   0.754  12.962  0.2395  0.1575 -0.4810
 4968W        W 9168   2.107   2.388   9.858 -0.0671  0.3005 -0.1831
 4969W        W 9169   9.309   5.912   3.073 -0.1566 -0.0615 -0.0172
 4970W        W 9170   7.229   7.595  12.308 -0.0925  0.3539 -0.2284
 4971W        W 9171   0.036   4.752   9.238 -0.3508  0.3188 -0.3040
 4972W        W 9172   6.591   4.373   0.787 -0.0790  0.0806 -0.1071
 4973W        W 9173   8.573   4.559  11.695 -0.2419 -0.0598  0.0684
 4974W        W 9174   1.602   2.267  13.053  0.4815  0.1963 -0.0309
 4975W        W 9175   1.048   6.269   0.282  0.0003 -0.3355  0.0268
 4976W        W 9176  10.433   4.034   0.692 -0.0838 -0.1571  0.0349
 4977W        W 9177   5.441   3.377   8.221  0.2925  0.1545  0.0511
 4978W        W 9178   2.879   6.023   4.220 -0.0668  0.2708  0.1089
 4979W        W 9179   1.141   9.635  13.020  0.2494  0.1828  0.2200
 4980W        W 9180   7.689   2.467   0.746  0.3609  0.4284  0.1907
 4981W        W 9181   7.670   3.521  11.859 -0.1954  0.2425 -0.0505
 4982W        W 9182   5.056   2.896  10.273  0.0986  0.0859  0.2485
 4983W        W 9183   4.891   8.343   1.445  0.0062 -0.2834 -0.2248
 4984W        W 9184   8.032   9.135   2.045  0.0871 -0.0977  0.1851
 4985W        W 9185   7.268   5.047   2.981 -0.0608 -0.1998  0.0653
 4986W        W 9186   1.291   0.494   0.037  0.2034 -0.2717 -0.2821
 4987W        W 9187   9.600   8.890   2.035  0.1061 -0.3280  0.3891
 4988W        W 9188   5.513   2.864  12.918 -0.2569  0.1965 -0.1574
 4989W        W 9189   1.113   6.713   1.722 -0.4069 -0.0485  0.0060
 4990W        W 9190   6.760   7.483   9.215 -0.0419 -0.0477  0.0087
 4991W        W 9191  10.166   7.704   2.747  0.1690  0.0991 -0.1283
 4992W        W 9192   3.944   4.805   1.052 -0.1485  0.2783  0.1297
 4993W        W 9193   5.532   6.399   1.721  0.0371  0.2906  0.0009
 4994W        W 9194   6.276   9.074   9.695 -0.0647 -0.1720 -0.2845
 4995W        W 9195   1.722   6.831   9.504 -0.3458  0.0034  0.1016
 4996W        W 9196   2.881   9.393   8.628 -0.0724  0.1210  0.2873
 4997W        W 9197  10.313   1.413  10.218 -0.1258  0.2456  0.0255
 4998W        W 9198   2.270   6.235   2.945 -0.0390 -0.0215  0.0528
 4999W        W 9199   8.167   9.794  13.235  0.0963  0.1114  0.1768
 5000W        W 9200   5.951   7.370  10.329 -0.2247  0.4357 -0.3258
 5001W        W 9201   5.010   7.209   0.936 -0.0259  0.0294  0.0530
 5002W        W 9202   8.958   4.842  12.665  0.1729 -0.0840  0.1860
 5003W        W 9203   1.193   3.140  12.220 -0.0416  0.0273 -0.0472
 5004W        W 9204   0.644   2.325   1.133  0.1782 -0.0750 -0.0173
 5005W        W 9205   3.016   5.685   3.828 -0.2608 -0.0680 -0.0183
 5006W        W 9206   3.256   9.010  11.531 -0.3653 -0.1759  0.4168
 5007W        W 9207   6.384   0.279  13.289  0.0466 -0.0490  0.1140
 5008W        W 9208   3.828   4.467  11.082 -0.3444  0.0020 -0.2308
 5009W        W 9209   5.318   8.802   4.457 -0.4750 -0.1831 -0.0215
 5010W        W 9210   6.850   0.956   2.995 -0.2278 -0.1889  0.0424
 5011W        W 9211   1.900   9.690  12.081 -0.3850 -0.0925  0.4061
 5012W        W 9212  10.483   4.398  12.841 -0.1047  0.0490 -0.1980
 5013W        W 9213   1.991   7.004  13.110  0.3941 -0.2131  0.1143
 5014W        W 9214   0.206   3.798  10.255 -0.0908 -0.1049  0.1099
 5015W        W 9215   1.190   8.323   4.546 -0.1162 -0.2264  0.1721
 5016W        W 9216   3.161   8.525   2.897 -0.1442  0.0210 -0.1896
 5017W        W 9217   3.518   3.143   0.026 -0.2198  0.1014 -0.2177
 5018W        W 9218   4.153   0.142   4.391 -0.1160 -0.1645 -0.0333
 5019W        W 9219   1.628   3.977   0.147 -0.1246 -0.5007  0.0318
 5020W        W 9220   6.871   8.191   3.460 -0.3383 -0.1656  0.0929
 5021W        W 9221   9.175   9.130  10.462  0.2322  0.1248  0.0151
 5022W        W 9222   2.232   0.381  11.706  0.1131  0.1742  0.1306
 5023W        W 9223   9.748   4.089   2.093 -0.0612 -0.1403  0.0044
 5024W        W 9224   8.223   5.852   0.577 -0.0601  0.0221 -0.0516
 5025W        W 9225   5.348   5.428   3.314 -0.1866  0.0239  0.1818
 5026W        W 9226   2.539   1.013  12.474  0.0198 -0.0146 -0.0478
 5027W        W 9227   0.224   4.686  11.171  0.2855 -0.0192  0.0503
 5028W        W 9228   7.269   9.049   2.585 -0.0829 -0.3462  0.1066
 5029W        W 9229   7.947   9.283  10.925 -0.2217 -0.0828  0.2036
 5030W        W 9230   5.248   4.759   2.034  0.1773 -0.3271 -0.1770
 5031W        W 9231   2.183   4.244   1.167  0.2717 -0.4316  0.1710
 5032W        W 9232   7.136   5.240  13.411  0.1974 -0.2978 -0.2936
 5033W        W 9233   6.891   6.393   2.657  0.3329 -0.2592 -0.1050
 5034W        W 9234   4.029   9.123   0.459 -0.0377 -0.1876  0.1369
 5035W        W 9235   2.994   6.352  10.990  0.2474  0.2717  0.0656
 5036W        W 9236   5.261   4.173   3.244  0.2094  0.1215 -0.3440
 5037W        W 9237   3.005   2.740   3.556 -0.1751 -0.0040  0.0730
 5038W        W 9238   0.133   8.943   1.243  0.1462  0.2079 -0.1013
 5039W        W 9239   9.573   5.295   4.877  0.2272  0.2180 -0.2613
 5040W        W 9240   2.056   0.338   1.922  0.1490 -0.1603 -0.2966
 5041W        W 9241   3.074   2.494   9.730  0.2424 -0.2614 -0.0766
 5042W        W 9242   5.331   5.055  12.383  0.3870 -0.1356 -0.2334
 5043W        W 9243   1.030   1.107   0.632 -0.1643 -0.0245 -0.2754
 5044W        W 9244  10.299   5.971  11.398 -0.1671 -0.1139  0.1531
 5045W        W 9245   2.285   8.636   3.237 -0.1511  0.0861  0.2646
 5046W        W 9246   5.953   9.198   4.600  0.0837 -0.0458 -0.0195
 5047W        W 9247   1.784   6.402  10.020  0.2657 -0.0217  0.0902
 5048W        W 9248   0.814   1.455   3.303 -0.0042  0.2345  0.1476
 5049W        W 9249   5.576   8.057   0.859 -0.0192 -0.1851  0.4730
 5050W        W 9250   0.116   7.107   0.929 -0.4723 -0.1603 -0.0430
 5051W        W 9251   6.548   8.578   1.966  0.1412  0.1684 -0.0152
 5052W        W 9252   2.596   4.789  11.402 -0.1569 -0.1082  0.2159
 5053W        W 9253   0.503   2.922  12.913 -0.2193 -0.0328  0.0411
 5054W        W 9254   6.823   1.280   4.172 -0.0098 -0.0354 -0.0440
 5055W        W 9255   3.567   8.849   9.425 -0.1734  0.0444 -0.2119
 5056W        W 9256   8.288   4.427  10.201 -0.0039 -0.1230  0.2091
 5057W        W 9257   6.958   0.110   1.362  0.1354  0.3116 -0.2127
 5058W        W 9258   8.415   6.847  12.330 -0.0348 -0.3277 -0.2953
 5059W        W 9259   7.422   1.948   2.470 -0.1820  0.0853  0.3604
 5060W        W 9260   5.061   6.428   0.208  0.0173 -0.0010  0.0031
 5061W        W 9261   0.448   1.674   2.058  0.1769 -0.2668  0.2131
 5062W        W 9262   4.259   4.804  11.277 -0.2010 -0.0288  0.0418
 5063W        W 9263   4.276   5.162   1.486 -0.0612  0.1455  0.1632
 5064W        W 9264   1.720  10.487   0.855 -0.2747 -0.3515  0.1013
 5065W        W 9265   8.415   6.982   5.590 -0.1438 -0.2873  0.0284
 5066W        W 9266   0.627   2.591  12.005 -0.3327 -0.0012  0.0609
 5067W        W 9267   8.964   9.513   9.741 -0.3704  0.0487  0.0396
 5068W        W 9268   9.019   6.496   9.336 -0.2898  0.3579 -0.0859
 5069W        W 9269   4.954   8.809  12.305  0.0781 -0.1600  0.1434
 5070W        W 9270   8.700   1.523  12.837 -0.1073  0.2081 -0.3515
 5071W        W 9271   0.386   6.367  12.496  0.2884 -0.5390 -0.0752
 5072W        W 9272   2.219  10.405   0.673  0.0336  0.4368  0.0031
 5073W        W 9273   5.212   2.530   5.069 -0.3552 -0.2648  0.0215
 5074W        W 9274   3.441   8.204   0.943 -0.1698 -0.2163  0.1258
 5075W        W 9275   4.440   2.121  10.996 -0.1422  0.1617 -0.0377
 5076W        W 9276   3.986   5.719   5.140  0.2180  0.0945  0.0780
 5077W        W 9277   6.843   4.592   0.339 -0.2081 -0.2681  0.1783
 5078W        W 9278   4.642   7.219   2.928  0.4338  0.0148 -0.3727
 5079W        W 9279   6.744   0.709  12.999  0.0883 -0.0638  0.1519
 5080W        W 9280   5.835   6.040  11.666  0.1958  0.3628 -0.2326
 5081W        W 9281   9.764   6.935   7.746 -0.1079  0.1568 -0.0947
 5082W        W 9282   3.885   7.008   3.976  0.0936  0.0487 -0.3333
 5083W        W 9283   5.722   6.100   0.880  0.1342 -0.0149  0.2894
 5084W        W 9284  10.223   6.772   1.286  0.4594  0.1155 -0.1118
 5085W        W 9285   1.662   5.948   2.985 -0.0315 -0.2780  0.2680
 5086W        W 9286   1.341   2.391   1.700  0.1264  0.2367  0.1053
 5087W        W 9287   3.720   7.206  11.677 -0.1089 -0.1663  0.2347
 5088W        W 9288   3.455  10.450   8.217  0.0309 -0.1307 -0.3171
 5089W        W 9289   1.965   0.976   9.011 -0.3893  0.3199  0.1547
 5090W        W 9290   9.595   4.855  11.171 -0.2153  0.0608  0.1146
 5091W        W 9291   7.792   3.101   2.955  0.4435 -0.2578 -0.0180
 5092W        W 9292   4.029   3.501   2.580  0.0617  0.1612  0.2611
 5093W        W 9293   1.776   7.331  10.349  0.3061  0.1725 -0.0792
 5094W        W 9294   4.904   0.388  12.875  0.2486  0.1851  0.3498
 5095W        W 9295   2.496   7.081   3.233 -0.0416  0.2019 -0.2042
 5096W        W 9296   3.152   6.515  11.531  0.0793  0.0507  0.2926
 5097W        W 9297   1.405   0.668   2.599  0.0106 -0.1524  0.1149
 5098W        W 9298   1.376   4.948   1.706 -0.0098  0.3075 -0.4193
 5099W        W 9299   0.344   0.750  12.870  0.0823 -0.0489  0.2411
 5100W        W 9300   0.566   5.032   2.996  0.0352 -0.1971  0.1530
 5101W        W 9301  10.455   5.851   9.446 -0.1966  0.3284  0.0258
 5102W        W 9302   5.561   2.852   2.879  0.0159  0.0229 -0.2472
 5103W        W 9303   3.157   6.483   9.736  0.0719  0.3998  0.0235
 5104W        W 9304   4.367   1.365  12.004  0.2734 -0.0989 -0.0598
 5105W        W 9305   0.451   9.976  12.658 -0.2491  0.0423  0.1310
 5106W        W 9306   4.966   9.325  12.008  0.1569  0.0822 -0.0376
 5107W        W 9307   0.076   3.640  12.351 -0.3072 -0.0861 -0.0335
 5108W        W 9308   9.957   1.907  11.471  0.0124 -0.1488 -0.2614
 5109W        W 9309   4.559  10.142  12.204 -0.1171  0.3546  0.0484
 5110W        W 9310   1.328  10.044   0.592 -0.0336 -0.1727  0.1834
 5111W        W 9311   8.773   6.652   0.219  0.0546 -0.0165 -0.1929
 5112W        W 9312   8.123  10.294   0.374  0.1388 -0.0428  0.0745
 5113W        W 9313   0.216   4.518   2.528  0.0142  0.0867 -0.1359
 5114W        W 9314   2.491   2.367   9.381 -0.1394  0.1232  0.2580
 5115W        W 9315   8.572   5.789  10.324  0.1710  0.1460 -0.1530
 5116W        W 9316  10.314   3.230   0.171  0.2358 -0.0848 -0.1024
 5117W        W 9317   0.389   4.259   0.742  0.0904 -0.1544  0.0798
 5118W        W 9318   5.543   2.608   0.281  0.3177  0.0127  0.5107
 5119W        W 9319   9.168   2.117   2.017 -0.1310  0.2046 -0.0355
 5120W        W 9320   3.258   9.981   3.343 -0.5269 -0.1192  0.1970
 5121W        W 9321   4.863   7.759   2.082 -0.1527  0.0412  0.1722
 5122W        W 9322   5.677   5.791   1.749  0.2523 -0.0004  0.0429
 5123W        W 9323   0.229   3.908   3.915 -0.0317  0.2536 -0.0644
 5124W        W 9324   9.492   8.841   4.242 -0.1880 -0.3742  0.3790
 5125W        W 9325   6.645   1.974  13.311 -0.0905  0.2513  0.1361
 5126W        W 9326   8.816   5.786   3.074 -0.0770  0.2159  0.1724
 5127W        W 9327   2.980   6.178   4.759  0.0964 -0.0850  0.0605
 5128W        W 9328   5.074   1.127  12.255  0.0907 -0.1955  0.1359
 5129W        W 9329   5.551   0.378   4.231 -0.3675 -0.0482 -0.1468
 5130W        W 9330   9.021   6.772  12.521 -0.0500  0.2039 -0.1841
 5131W        W 9331   2.633   7.018   0.372 -0.0515 -0.0358  0.3365
 5132W        W 9332   5.385  10.368   4.347 -0.2020  0.0002 -0.3189
 5133W        W 9333   2.504   9.654   2.172 -0.0624  0.0915 -0.2477
 5134W        W 9334   6.104   5.847   4.447  0.3002 -0.2146 -0.0545
 5135W        W 9335   7.342   1.636  11.153  0.2254 -0.0771 -0.1564
 5136W        W 9336   0.159   4.122   9.893  0.2215 -0.0830 -0.4168
 5137W        W 9337   1.055   6.734   4.188  0.1529  0.2291  0.1433
 5138W        W 9338   0.831   6.138   8.839 -0.0665  0.1835 -0.2158
 5139W        W 9339   8.414   7.203   2.808 -0.2634 -0.1249  0.1686
 5140W        W 9340   3.461   3.792  11.713 -0.3164 -0.0679 -0.4142
 5141W        W 9341   4.715   2.543   0.914 -0.0591 -0.0286  0.1585
 5142W        W 9342   3.012   6.015   9.111  0.2766  0.1189  0.0775
 5143W        W 9343   8.362   0.375   2.511  0.6158  0.0312 -0.0176
 5144W        W 9344   1.772   1.455   9.943  0.0612 -0.2852  0.1756
 5145W        W 9345   1.912   7.671   2.701 -0.3734  0.2702  0.5283
 5146W        W 9346   8.198   5.237   2.363  0.4121 -0.3679 -0.1424
 5147W        W 9347   6.652   2.473   3.496  0.0606  0.1981  0.1749
 5148W        W 9348   0.763   7.269  12.219  0.3078 -0.1636 -0.3039
 5149W        W 9349   8.583   3.036   1.137 -0.4341 -0.1394  0.3761
 5150W        W 9350   3.847   1.171   3.371  0.1885 -0.1210  0.0656
 5151W        W 9351   9.212   8.379   4.914 -0.1243  0.0382  0.0410
 5152W        W 9352   7.934   5.447   2.739 -0.1968  0.0036  0.2373
 5153W        W 9353  10.106   3.582  11.898  0.2339 -0.3090  0.1981
 5154W        W 9354   2.212   5.084  11.195 -0.0244  0.0374 -0.0991
 5155W        W 9355   8.050   5.122  11.782 -0.0416  0.0376 -0.0172
 5156W        W 9356   2.944   5.262   0.951 -0.1985 -0.3597 -0.3099
 5157W        W 9357   5.483   6.855   1.897  0.0827 -0.0732  0.0169
 5158W        W 9358   5.367   3.635  10.050 -0.3622  0.1188 -0.2283
 5159W        W 9359   7.936   2.423   0.237  0.2410 -0.0737  0.0163
 5160W        W 9360   5.716   4.562   2.077  0.1888 -0.0673 -0.3882
 5161W        W 9361   2.283   4.359   3.181  0.0715 -0.0915  0.2008
 5162W        W 9362   0.490   0.353   3.315 -0.1507  0.3873  0.0536
 5163W        W 9363   0.011   6.351   9.334  0.0991 -0.3149 -0.3196
 5164W        W 9364   6.358  10.326  11.157 -0.1197 -0.1585  0.3563
 5165W        W 9365   0.870   9.195   0.215 -0.0752 -0.1109  0.0273
 5166W        W 9366   1.906   1.800   0.442  0.2743  0.3267  0.0992
 5167W        W 9367   5.980   8.476   1.796 -0.0890  0.0583  0.1219
 5168W        W 9368  10.091   6.323  12.353 -0.1183  0.1765  0.2375
 5169W        W 9369   0.899   5.590   4.149 -0.2299 -0.1175 -0.0951
 5170W        W 9370   2.425   7.349   1.321 -0.3399  0.4409 -0.1522
 5171W        W 9371   3.667   3.887   1.456  0.1315  0.1101  0.0798
 5172W        W 9372   5.568   1.247  11.069  0.0288 -0.1373 -0.1985
 5173W        W 9373   0.785   6.914  13.235 -0.0027 -0.1455  0.2444
 5174W        W 9374   0.687   8.475   8.685 -0.0686  0.0847  0.1231
 5175W        W 9375   0.495   5.100  10.905  0.1109  0.2363 -0.0332
 5176W        W 9376   9.344   0.652   2.517  0.1050 -0.0442 -0.2712
 5177W        W 9377   8.569   7.959   3.407  0.0124 -0.1862 -0.0396
 5178W        W 9378   4.812   9.487   9.640 -0.1162  0.1972  0.1980
 5179W        W 9379   1.952   7.020  10.710  0.1332 -0.0771 -0.3866
 5180W        W 9380   6.822   1.740  12.795  0.1084 -0.0342 -0.0057
 5181W        W 9381   9.510   6.599   2.400  0.0472  0.3309 -0.0387
 5182W        W 9382   9.916   9.759  12.342 -0.1189  0.0397  0.1699
 5183W        W 9383   8.956   4.345  12.503  0.5512  0.1080  0.0846
 5184W        W 9384   9.154   6.234  12.384  0.0109  0.1564  0.0445
 5185W        W 9385   3.743   1.728   9.933 -0.0369  0.0418 -0.0022
 5186W        W 9386   3.163  10.296   4.701  0.1615  0.2008 -0.1644
 5187W        W 9387   6.040   3.886  12.529  0.1704  0.1684  0.1213
 5188W        W 9388   3.356   5.902   9.413  0.0788 -0.2809 -0.1359
 5189W        W 9389   2.550   6.512  10.805 -0.0987 -0.2481  0.3075
 5190W        W 9390   8.154   3.285  12.098 -0.2578  0.2138  0.1725
 5191W        W 9391   0.653   4.363   2.237 -0.0018 -0.1574  0.2443
 5192W        W 9392   4.022   2.655   3.599 -0.0168 -0.0549 -0.2740
 5193W        W 9393   3.505   7.730  10.750  0.0862 -0.0120  0.1463
 5194W        W 9394   2.409   3.346   2.530 -0.0316  0.1894 -0.1340
 5195W        W 9395   8.403   6.573   3.314 -0.1749 -0.0982  0.0087
 5196W        W 9396   1.187   3.528   0.957  0.1179 -0.0707 -0.2471
 5197W        W 9397   5.402   9.239  10.519 -0.0654 -0.1269  0.1909
 5198W        W 9398   1.455   5.502  10.025 -0.0150 -0.1945 -0.0214
 5199W        W 9399   5.581   5.099   0.370  0.3366 -0.0144  0.0624
 5200W        W 9400  10.307   4.212   1.965 -0.1140  0.0418 -0.0466
 5201W        W 9401   0.410   0.867  11.397 -0.1574 -0.0916 -0.2771
 5202W        W 9402   7.511   4.806   0.632  0.2778 -0.0224 -0.0324
 5203W        W 9403   9.544   4.894   9.351 -0.2001  0.0676 -0.1953
 5204W        W 9404   1.629   4.583   2.520 -0.0058  0.0248  0.1132
 5205W        W 9405   2.567   4.137   4.397  0.1421  0.0688  0.0147
 5206W        W 9406  10.249   9.405  11.049 -0.0292 -0.4024  0.1590
 5207W        W 9407   9.704   5.720   0.394  0.0918  0.0570  0.1517
 5208W        W 9408   3.074   8.526  10.197 -0.2735  0.0308 -0.0489
 5209W        W 9409   5.787   0.602  11.214 -0.1725 -0.3016 -0.2872
 5210W        W 9410   6.928   7.122  12.135 -0.1903  0.1016  0.4072
 5211W        W 9411   3.658   5.664   0.702 -0.1871 -0.2716 -0.0458
 5212W        W 9412   3.144   1.016  12.025 -0.2226 -0.2833  0.2169
 5213W        W 9413   5.415   9.608   1.807 -0.1754  0.0836 -0.3514
 5214W        W 9414   9.653   7.678   0.551 -0.0555  0.3139  0.1486
 5215W        W 9415   4.096   6.356   0.247 -0.2566 -0.2027 -0.3899
 5216W        W 9416   1.423   0.957  10.831  0.1475  0.1301  0.1328
 5217W        W 9417   0.196   1.737   3.161 -0.0447  0.0375  0.0249
 5218W        W 9418   6.338   3.666  11.471  0.2599  0.0459 -0.3673
 5219W        W 9419   8.723   9.337  11.657  0.0230  0.4307  0.1095
 5220W        W 9420   5.207   2.981   8.477  0.3246  0.5241 -0.3126
 5221W        W 9421   0.821   4.457  11.552  0.2320  0.0804  0.1997
 5222W        W 9422   4.361   7.303   0.332  0.0327 -0.1207  0.1981
 5223W        W 9423   7.599   6.669  10.312 -0.4269  0.0085 -0.0442
 5224W        W 9424   7.783  10.012   0.159  0.0989  0.2771 -0.0088
 5225W        W 9425  10.087   5.153   0.902 -0.1374  0.1594 -0.2244
 5226W        W 9426   3.436   0.292   1.828  0.1692 -0.0931  0.0361
 5227W        W 9427   1.025   4.758  11.952  0.3276  0.2829  0.3253
 5228W        W 9428   2.224   3.180   4.729 -0.1266 -0.1286 -0.1256
 5229W        W 9429   2.958   2.464  13.014 -0.4298  0.2278 -0.3938
 5230W        W 9430   3.669   5.242  13.150 -0.0696  0.2698  0.0286
 5231W        W 9431   3.766   4.375   2.282  0.2154  0.0368 -0.0238
 5232W        W 9432   7.102   7.892   4.616 -0.1361 -0.0746  0.0099
 5233W        W 9433   2.988   3.189  12.499  0.2273  0.2136 -0.0635
 5234W        W 9434   1.168   5.845   2.830 -0.0431  0.0835 -0.0419
 5235W        W 9435   6.333   6.306   4.171 -0.1051 -0.1053  0.1028
 5236W        W 9436   6.804  10.017   3.609 -0.2338  0.2522  0.1373
 5237W        W 9437   7.697   6.354  11.152 -0.2111  0.0570 -0.2230
 5238W        W 9438   6.695   7.049   4.493 -0.1702 -0.0635  0.0625
 5239W        W 9439   1.893   6.905   2.449  0.0952 -0.2533  0.0616
 5240W        W 9440   8.194   8.037  10.641  0.1627 -0.3034 -0.1809
 5241W        W 9441   5.332   2.911   3.780  0.1070 -0.0514  0.0979
 5242W        W 9442   8.972   8.024   3.107 -0.1137 -0.0732  0.0551
 5243W        W 9443   5.868   0.157   9.423  0.1053 -0.0185 -0.0713
 5244W        W 9444   2.269   6.625   3.316  0.2373  0.1291  0.2334
 5245W        W 9445   4.895   3.290  13.065  0.1346 -0.0970 -0.1320
 5246W        W 9446   8.029   5.907   1.090 -0.2764 -0.1699  0.1654
 5247W        W 9447   8.311   2.386   1.512  0.0737 -0.0462 -0.0491
 5248W        W 9448   9.117   5.381  12.779  0.0577 -0.1329  0.1258
 5249W        W 9449  10.269   8.633   9.293  0.2468 -0.1212 -0.2017
 5250W        W 9450   9.338   2.869  12.763  0.0861  0.0580 -0.2019
 5251W        W 9451   4.145   8.544  13.232  0.2703 -0.1016 -0.0048
 5252W        W 9452   8.186   8.634  12.743  0.2753 -0.3803 -0.0336
 5253W        W 9453   2.145   0.394  10.791 -0.0785 -0.4056  0.0207
 5254W        W 9454   8.507   3.537  10.359 -0.0430 -0.0857  0.3428
 5255W        W 9455   7.973   0.639  11.705 -0.1922  0.0635 -0.1659
 5256W        W 9456   3.432   3.087  12.385 -0.3112  0.3128  0.0818
 5257W        W 9457   7.788   4.846   3.085  0.0720 -0.2075 -0.0013
 5258W        W 9458   5.828   2.067   2.236 -0.2360  0.4484  0.1844
 5259W        W 9459   4.793   3.983  11.758  0.1113  0.4374 -0.1466
 5260W        W 9460   3.406   7.028   9.279 -0.3637 -0.0520  0.0874
 5261W        W 9461   0.168   8.377   1.733 -0.0573 -0.0074 -0.0571
 5262W        W 9462   9.969   7.421   9.316 -0.1958  0.5430 -0.1052
 5263W        W 9463   3.625   0.687   9.788 -0.0909  0.1006  0.1493
 5264W        W 9464   1.684   7.766   2.006 -0.0771  0.1038 -0.0105
 5265W        W 9465   9.106   1.303   9.681 -0.1222 -0.2156  0.1134
 5266W        W 9466   8.552   0.284   9.892 -0.0118 -0.0279  0.1903
 5267W        W 9467   0.683   6.980   5.388  0.1059  0.0889 -0.0536
 5268W        W 9468   2.235   9.135   3.328  0.2898 -0.0206  0.2084
 5269W        W 9469   2.912   0.113   1.712 -0.2696  0.1700  0.0519
 5270W        W 9470   3.720   9.843   1.751  0.0310  0.0474  0.0818
 5271W        W 9471   5.107   3.765  12.969 -0.0811 -0.1733 -0.3232
 5272W        W 9472   8.749   1.270  10.027 -0.0884 -0.1442  0.3499
 5273W        W 9473   5.678   0.173  10.269  0.0568  0.1016  0.2014
 5274W        W 9474   7.212   8.997   4.980 -0.1601 -0.1515 -0.2122
 5275W        W 9475   9.433   1.382   0.834  0.0025 -0.1029 -0.1971
 5276W        W 9476   0.621   9.087   8.588 -0.1319 -0.1352  0.3683
 5277W        W 9477   7.867   4.794   1.032 -0.3130  0.2708 -0.1117
 5278W        W 9478   4.873   4.145   3.713  0.0634 -0.1861  0.1168
 5279W        W 9479   6.987   8.481   2.578 -0.1059  0.2372  0.1508
 5280W        W 9480   0.113   4.859   2.926  0.2757  0.2341  0.4710
 5281W        W 9481   6.811   4.698   3.420 -0.1083 -0.1750 -0.1396
 5282W        W 9482   2.021   7.399  11.205 -0.1683  0.2776  0.2739
 5283W        W 9483   9.795   7.033   9.700 -0.2959 -0.2445 -0.2696
 5284W        W 9484   8.382   9.687   1.938  0.1419  0.2813 -0.0997
 5285W        W 9485   0.358   8.619   0.349  0.0874 -0.1434 -0.3573
 5286W        W 9486   9.889   5.533   1.873  0.0504  0.1850 -0.1440
 5287W        W 9487   6.865   7.673   1.396  0.0736 -0.0729 -0.0336
 5288W        W 9488   2.593   5.222   0.399 -0.1172 -0.0735 -0.1679
 5289W        W 9489   2.100   7.526   0.918 -0.3357  0.0453  0.0837
 5290W        W 9490   2.778   7.309  12.114 -0.0302 -0.0111  0.1267
 5291W        W 9491   8.279   6.949   4.300 -0.0885 -0.0383  0.2110
 5292W        W 9492   4.915   5.079   0.473 -0.4533 -0.0502  0.3760
 5293W        W 9493   0.246   1.237  10.127  0.1005 -0.1364  0.3013
 5294W        W 9494   7.720   7.521   9.132 -0.1381  0.3446 -0.3081
 5295W        W 9495   1.606   6.609  10.832 -0.1958 -0.0990 -0.0139
 5296W        W 9496   5.637   2.889   1.164  0.4168  0.0301  0.1467
 5297W        W 9497   4.459   3.108   2.353  0.0187 -0.1479 -0.1374
 5298W        W 9498   0.674   1.068  11.840 -0.1483 -0.0501 -0.1602
 5299W        W 9499  10.163   0.139   2.488  0.0556 -0.0634  0.1167
 5300W        W 9500   2.442   9.948   0.802  0.0710 -0.1117  0.1157
 5301W        W 9501   5.780   2.765   9.362  0.0656 -0.1064  0.1845
 5302W        W 9502   2.251   2.196   3.134 -0.2418  0.2380  0.0894
 5303W        W 9503   4.592   5.696  12.257  0.0382 -0.2007  0.0289
 5304W        W 9504   2.218  10.447   1.642 -0.2500 -0.0887  0.0522
 5305W        W 9505   2.636   5.985   8.774  0.0627  0.0641 -0.0834
 5306W        W 9506   1.033   1.044   1.266  0.0704  0.2099  0.0036
 5307W        W 9507   9.899   4.320   4.128  0.1309 -0.2682  0.0573
 5308W        W 9508   0.869   2.257  11.287 -0.0200 -0.1757  0.2410
 5309W        W 9509   0.450   3.116   1.833 -0.0075 -0.0125  0.1237
 5310W        W 9510   6.300   7.968   0.118 -0.1198  0.4343 -0.0794
 5311W        W 9511   3.103   2.331  11.614  0.0778 -0.1021 -0.2839
 5312W        W 9512   7.736   9.544   1.587 -0.2985  0.1239  0.3145
 5313W        W 9513   6.109   8.847   0.236  0.2379  0.5765 -0.2440
 5314W        W 9514   3.451   3.772   9.798 -0.2730  0.1051  0.1273
 5315W        W 9515   4.433   0.668   8.713  0.1993 -0.0667 -0.0455
 5316W        W 9516   3.574   4.693   8.900  0.1704 -0.3820 -0.0845
 5317W        W 9517   7.217   7.378   9.780  0.1712  0.0213 -0.2423
 5318W        W 9518   2.074   8.354   8.186  0.2304  0.2198 -0.0405
 5319W        W 9519   9.523   1.821  12.364 -0.1637  0.2460 -0.2444
 5320W        W 9520   5.478   9.339  12.914 -0.1968 -0.3304 -0.1680
 5321W        W 9521   4.455   3.061  10.402  0.1550  0.1975 -0.0496
 5322W        W 9522   8.116   9.690   3.798 -0.0574  0.4635  0.0394
 5323W        W 9523   0.588   2.099  10.456  0.3802 -0.1377 -0.1215
 5324W        W 9524   5.392   3.686   4.805 -0.1594 -0.0839  0.0541
 5325W        W 9525   9.372   9.063  12.717  0.0957 -0.0292  0.0299
 5326W        W 9526   2.712   1.787  12.572 -0.1757  0.1732  0.2290
 5327W        W 9527   1.827  10.450  13.209 -0.3009 -0.0135  0.0321
 5328W        W 9528   3.721   0.747   4.121 -0.2760  0.1835 -0.0434
 5329W        W 9529   1.971   5.492   2.176 -0.1164  0.0221 -0.0344
 5330W        W 9530   0.935   7.666   0.477  0.1618 -0.0029 -0.1200
 5331W        W 9531   3.519   7.900   1.893  0.1810 -0.1043 -0.1009
 5332W        W 9532   1.065   2.639  12.249  0.2474  0.1099  0.3096
 5333W        W 9533   0.949   3.453  10.690 -0.1365  0.3063  0.0099
 5334W        W 9534   7.899   4.075  12.539  0.5025  0.0891 -0.2068
 5335W        W 9535   0.318   8.248   4.035 -0.1557 -0.0372  0.0881
 5336W        W 9536   3.160   5.741   0.951  0.4096 -0.2544 -0.1923
 5337W        W 9537   0.596   0.996   2.394 -0.3439 -0.0643  0.0005
 5338W        W 9538   6.773   4.850  13.349  0.1413  0.0101  0.0713
 5339W        W 9539   5.788   5.251   1.499  0.1353  0.0163 -0.1237
 5340W        W 9540   1.966   9.642  11.580  0.2774 -0.4220  0.2733
 5341W        W 9541   4.122   4.571  12.211  0.3144  0.1138  0.2618
 5342W        W 9542   7.468   0.281   1.632  0.2332 -0.3504  0.0181
 5343W        W 9543   2.354   9.504   0.328  0.2152 -0.0492  0.3385
 5344W        W 9544   9.364   8.866   0.633 -0.2201  0.2799  0.3054
 5345W        W 9545   0.443   6.192   3.267  0.0496 -0.0075  0.1152
 5346W        W 9546   7.868   4.534   3.591  0.1761 -0.3533 -0.1389
 5347W        W 9547   2.245   5.277  12.951 -0.1309 -0.0419  0.1515
 5348W        W 9548   3.156   1.865   9.111 -0.2951  0.1119 -0.0583
 5349W        W 9549   9.321   8.119   2.288 -0.0373  0.2287 -0.1248
 5350W        W 9550   6.270   6.016   9.948  0.1073 -0.0579 -0.0232
 5351W        W 9551   4.222   9.933   2.971  0.1382 -0.0772 -0.1452
 5352W        W 9552   7.108   6.379  12.276 -0.0958  0.2182 -0.1987
 5353W        W 9553   8.161   6.075   0.126 -0.0885  0.1390  0.0765
 5354W        W 9554   3.796   3.957   9.206 -0.4362 -0.0553  0.1717
 5355W        W 9555   9.927   1.505   4.011 -0.1925 -0.2702  0.3036
 5356W        W 9556   7.751   2.503  10.420 -0.1609  0.0860 -0.0542
 5357W        W 9557   8.612   5.795   9.782 -0.3049  0.0544 -0.1226
 5358W        W 9558   8.275   8.124  13.235  0.0040  0.1863 -0.2904
 5359W        W 9559   7.452   8.167   0.888 -0.3177 -0.2470 -0.2396
 5360W        W 9560   1.860   6.953   3.287  0.3280  0.1896 -0.1227
 5361W        W 9561   0.025   7.501  10.621 -0.1364 -0.2284 -0.1821
 5362W        W 9562   2.361   5.158   2.569  0.1109 -0.0894 -0.3379
 5363W        W 9563   5.992   7.336  12.199  0.1164 -0.0500 -0.1329
 5364W        W 9564   4.822   2.091   0.620  0.0295 -0.1102 -0.0319
 5365W        W 9565   7.519   3.917  12.187  0.0939  0.1036 -0.1105
 5366W        W 9566   0.517  10.128   8.986  0.1057  0.2474  0.3441
 5367W        W 9567   8.192   2.220   0.628  0.1282  0.3518  0.0349
 5368W        W 9568   2.786   2.116  12.094 -0.0406 -0.1152 -0.3060
 5369W        W 9569   7.581   8.933  12.913 -0.0871  0.0246 -0.0307
 5370W        W 9570   5.055   1.616   4.183 -0.2805 -0.2093 -0.1671
 5371W        W 9571   8.845   5.345  10.060 -0.0578 -0.1480  0.0062
 5372W        W 9572   0.214   5.357  11.781 -0.0896 -0.1710  0.1836
 5373W        W 9573   3.549  10.031   2.236 -0.0300 -0.2693  0.1326
 5374W        W 9574   8.213   9.280  12.900  0.0283  0.2542 -0.0516
 5375W        W 9575   7.256  10.365   2.362 -0.1477 -0.0757 -0.1785
 5376W        W 9576   7.744   6.294  12.868 -0.0538  0.1994  0.0149
 5377W        W 9577   0.101   0.747   4.038  0.0129 -0.0053  0.4809
 5378W        W 9578   4.280   2.303   9.290 -0.0468 -0.2591  0.0966
 5379W        W 9579   3.097   2.298   8.752  0.0500  0.0283  0.0736
 5380W        W 9580   5.859   5.724   1.224  0.0093  0.0382 -0.1630
 5381W        W 9581   0.871   5.119  12.339 -0.2686 -0.1537 -0.3426
 5382W        W 9582   2.075   1.100   1.232 -0.0209  0.0501  0.0025
 5383W        W 9583   4.746   4.986  11.139  0.3143  0.0136 -0.1813
 5384W        W 9584   8.433   9.709   9.775  0.1622  0.1317  0.2112
 5385W        W 9585  10.452   5.658   4.002 -0.3058 -0.2107 -0.1106
 5386W        W 9586   6.375   2.089  12.123 -0.2909 -0.0056  0.2363
 5387W        W 9587   1.622   3.310  12.244 -0.1205 -0.2018 -0.0152
 5388W        W 9588   8.720   2.006  11.162 -0.0384  0.2795 -0.0251
 5389W        W 9589   8.958   6.301   1.660  0.0292 -0.0647 -0.2691
 5390W        W 9590   9.759   9.448   8.847 -0.0270 -0.0116 -0.4540
 5391W        W 9591   0.566   1.302   3.740  0.3400  0.1188 -0.1171
 5392W        W 9592   9.911   3.126   1.027  0.2231 -0.1325  0.2831
 5393W        W 9593   0.581   4.136  10.248 -0.3952 -0.1447  0.0040
 5394W        W 9594   3.375   6.230   1.864  0.0999  0.0483 -0.2776
 5395W        W 9595   5.594   5.544  10.835  0.1493  0.0619  0.1926
 5396W        W 9596   7.250   2.235  12.034 -0.1473  0.0228  0.0719
 5397W        W 9597   8.743   2.536  11.209  0.0883 -0.2466 -0.0957
 5398W        W 9598   7.772   7.399   4.249  0.2017 -0.2311  0.0152
 5399W        W 9599   3.231   2.846  10.015  0.0442 -0.5226 -0.1530
 5400W        W 9600   9.638   5.639   1.464 -0.0686 -0.2419  0.1775
 5401W        W 9601   3.673   0.917   8.709  0.3104  0.0478  0.0510
 5402W        W 9602   4.871   0.705   9.946  0.0594 -0.1087 -0.2194
 5403W        W 9603   5.960   7.894   2.327  0.1477 -0.0277 -0.1098
 5404W        W 9604   2.515   0.438   1.668  0.2540  0.3781 -0.0841
 5405W        W 9605   5.667   9.807   4.850 -0.5122  0.1572  0.1166
 5406W        W 9606   8.167  10.017   2.368 -0.1510  0.0762 -0.1384
 5407W        W 9607   8.504   5.724   9.268 -0.0156  0.1708  0.3384
 5408W        W 9608   7.830   3.520  12.392 -0.1441  0.3395  0.0511
 5409W        W 9609   4.901   9.248  11.106  0.2146 -0.0922  0.3064
 5410W        W 9610   8.180   3.095   2.638  0.1580 -0.1223  0.0886
 5411W        W 9611   8.690   6.393  12.272 -0.1241 -0.0589  0.0359
 5412W        W 9612   6.798   2.985   3.275  0.0104  0.2165 -0.0373
 5413W        W 9613   1.129   9.849   2.775  0.4943  0.3886 -0.2170
 5414W        W 9614   4.214   3.203   1.729 -0.1225 -0.2503 -0.1908
 5415W        W 9615  10.268   2.696   0.777 -0.0014  0.1694 -0.1078
 5416W        W 9616   1.312   7.938  13.373 -0.2114  0.1198 -0.4579
 5417W        W 9617   7.952   0.854   9.878  0.2156 -0.1372  0.0516
 5418W        W 9618   5.265  10.412   0.405  0.2568  0.1474  0.1928
 5419W        W 9619   8.733   6.657  10.851 -0.1028  0.3120  0.4189
 5420W        W 9620   1.773   5.959   0.024 -0.1828  0.0177 -0.2572
 5421W        W 9621   1.486  10.264   2.448 -0.3024 -0.1629 -0.0810
 5422W        W 9622   9.821   8.558  11.230 -0.2812 -0.1886  0.0794
 5423W        W 9623   2.042   0.227  11.262 -0.2341 -0.0092  0.1911
 5424W        W 9624   9.851   3.741  10.572 -0.0733 -0.0612  0.1903
 5425W        W 9625   0.008   2.719  11.016 -0.0716 -0.1727 -0.2177
 5426W        W 9626   0.464   1.896   1.539  0.0219 -0.0601 -0.1063
 5427W        W 9627   8.134   0.453  12.210 -0.0747 -0.1762 -0.4996
 5428W        W 9628   2.223   5.320   3.456  0.3582 -0.0055  0.0907
 5429W        W 9629   3.154   8.597  13.082 -0.0131 -0.0895  0.1150
 5430W        W 9630   0.287   1.170   3.290  0.3008 -0.1635 -0.0642
 5431W        W 9631   5.220   8.719   2.063  0.0373 -0.0105 -0.3145
 5432W        W 9632   9.138   4.287  11.234  0.3974 -0.2597  0.3379
 5433W        W 9633   3.588   4.951  10.992 -0.2583 -0.2021  0.0611
 5434W        W 9634   6.240   8.952  10.638 -0.1498 -0.4020  0.1151
 5435W        W 9635   0.239   0.168  11.881 -0.1965 -0.0451  0.0805
 5436W        W 9636   5.742   6.621   9.979 -0.2444 -0.1177  0.0490
 5437W        W 9637   1.123   9.864   4.503  0.1949  0.0298  0.1765
 5438W        W 9638   9.691   9.502  12.847  0.1204 -0.3303 -0.0179
 5439W        W 9639   1.085   1.153  11.110 -0.1358  0.1155 -0.2450
 5440W        W 9640   6.955   6.990   8.888 -0.0950 -0.3895 -0.2017
 5441W        W 9641   1.179   8.664   9.352 -0.0894 -0.2616 -0.0034
 5442W        W 9642   6.840   6.876   9.490 -0.1156 -0.2095 -0.1309
 5443W        W 9643   1.192   5.950   2.148  0.4250  0.0347 -0.2076
 5444W        W 9644   3.350   5.187  10.253  0.0543 -0.0533  0.1584
 5445W        W 9645   7.738   1.180   2.933  0.0278 -0.4129  0.1666
 5446W        W 9646   9.341   7.650   3.101 -0.0880 -0.1351 -0.3728
 5447W        W 9647   5.939   0.857  11.951  0.1638  0.2158  0.1054
 5448W        W 9648   7.699   5.123  12.196 -0.1609 -0.2410  0.0322
 5449W        W 9649   0.145   9.063   9.905  0.0309  0.0104  0.0209
 5450W        W 9650   0.109   0.822  10.927 -0.0876  0.1587  0.0156
 5451W        W 9651   5.426   1.582   0.138 -0.1661  0.0066 -0.1238
 5452W        W 9652   4.080   0.209   8.724  0.0442  0.1202 -0.0515
 5453W        W 9653   0.759   4.861  11.300  0.3663 -0.3131 -0.0510
 5454W        W 9654  10.086   6.514   3.689 -0.0411 -0.1189 -0.1734
 5455W        W 9655   4.324   2.237  10.424  0.0736 -0.4391  0.0267
 5456W        W 9656   7.267   8.921   1.072 -0.0437  0.2928 -0.0648
 5457W        W 9657   3.776   2.728   4.218 -0.1654 -0.0689 -0.2304
 5458W        W 9658   9.213   9.653   1.500  0.0288  0.1816  0.1580
 5459W        W 9659   1.776   7.113   0.207 -0.0991  0.0725 -0.2613
 5460W        W 9660   0.331   2.403   1.621 -0.0012  0.1680  0.0666
 5461W        W 9661   2.616   7.848  11.680 -0.0761  0.2234  0.0203
 5462W        W 9662   9.116   5.771   9.915 -0.4435 -0.0436  0.1673
 5463W        W 9663   9.714   9.323  12.279 -0.0330 -0.3372 -0.0043
 5464W        W 9664   7.091   8.786  13.157 -0.1121  0.0930 -0.3530
 5465W        W 9665   0.342  10.261   3.117  0.0715 -0.1700 -0.0832
 5466W        W 9666   8.470   1.242   0.834 -0.3129 -0.0892 -0.0399
 5467W        W 9667   9.478   5.752   2.076 -0.0617  0.1003 -0.3233
 5468W        W 9668   9.781   2.358  13.258 -0.1618  0.1766  0.3116
 5469W        W 9669   7.226   4.198   1.222 -0.0785  0.0962 -0.0203
 5470W        W 9670   3.784   6.141   2.811  0.0376 -0.2171  0.0995
 5471W        W 9671   3.556   8.240   2.857  0.0658  0.1114 -0.1443
 5472W        W 9672   3.720   7.030   2.536  0.2878  0.1286 -0.0671
 5473W        W 9673   7.364   1.459   4.218 -0.3349 -0.0860 -0.3594
 5474W        W 9674   4.639  10.136   1.578  0.1787  0.2157  0.5706
 5475W        W 9675   1.958   0.485   3.288  0.0037 -0.0464 -0.0488
 5476W        W 9676   3.118   8.999  11.036 -0.1247  0.2556  0.0009
 5477W        W 9677   5.513   3.863   4.347  0.3385  0.2041  0.1340
 5478W        W 9678   7.312   9.995   0.374  0.1450 -0.0197  0.1461
 5479W        W 9679   8.376   5.837   2.705 -0.0568  0.2252  0.2736
 5480W        W 9680   9.350   0.079  10.271 -0.0325 -0.2037  0.0852
 5481W        W 9681   9.407   3.381   2.372  0.1533  0.1884  0.2112
 5482W        W 9682  10.020   4.043   9.396 -0.1969 -0.1780 -0.3308
 5483W        W 9683   0.279   1.261  11.091 -0.1105 -0.0429  0.2425
 5484W        W 9684   1.867   0.647   4.533 -0.3338  0.1910 -0.1303
 5485W        W 9685   8.108   9.338   0.651  0.2461 -0.0546  0.2274
 5486W        W 9686   2.857   2.328   3.854 -0.2741 -0.1297 -0.0582
 5487W        W 9687   4.714   1.441  10.330 -0.0971 -0.0740 -0.0134
 5488W        W 9688   1.552   6.882  11.696 -0.6268 -0.2010  0.1274
 5489W        W 9689   8.436   0.820   2.249 -0.0064 -0.0066 -0.0049
 5490W        W 9690   5.489   1.758  10.970 -0.1288  0.0877  0.2256
 5491W        W 9691   0.576   8.688   1.885  0.2900  0.0633 -0.3558
 5492W        W 9692   1.397   9.532   9.125 -0.0966 -0.0695 -0.2299
 5493W        W 9693   6.047   0.608   4.327  0.1505  0.0669 -0.4681
 5494W        W 9694   2.269   9.208   2.010  0.0399  0.0892 -0.0527
 5495W        W 9695   5.536   4.380  10.689 -0.0862  0.0932  0.0563
 5496W        W 9696   5.205   8.573   0.039  0.0790  0.1960  0.2012
 5497W        W 9697  10.312   7.431  12.509  0.2310  0.1209 -0.3814
 5498W        W 9698   2.751   2.365   0.083 -0.4938  0.2739 -0.0473
 5499W        W 9699   0.453   4.487   3.786  0.3150 -0.1528  0.3826
 5500W        W 9700   9.931   6.766   8.694 -0.4054 -0.5020 -0.0641
 5501W        W 9701   7.347   3.526   3.565 -0.1645 -0.0518 -0.2881
 5502W        W 9702   5.493   0.411   9.197 -0.2359 -0.0174  0.2979
 5503W        W 9703   1.544   5.464   9.513 -0.1351  0.2591 -0.1840
 5504W        W 9704   0.179   1.772  11.311  0.1398  0.0544 -0.1427
 5505W        W 9705   3.163   1.483  11.131  0.1722 -0.3223 -0.0088
 5506W        W 9706   3.644   1.170   9.911  0.0351  0.2340 -0.2344
 5507W        W 9707   1.877   6.955   4.661  0.1776 -0.0872 -0.0315
 5508W        W 9708   0.738   8.557   9.156 -0.2360  0.2968  0.0088
 5509W        W 9709   0.494   2.497   9.617 -0.1648 -0.0248  0.0382
 5510W        W 9710   6.549  10.336   0.089 -0.0896  0.2151 -0.2083
 5511W        W 9711   5.720   9.811  12.755  0.0929 -0.2368 -0.5035
 5512W        W 9712   4.530   5.920  11.531  0.0906 -0.1466 -0.2346
 5513W        W 9713   3.040   2.307   2.249 -0.3218 -0.2060  0.0723
 5514W        W 9714   7.982   5.741   4.440 -0.1565  0.0425 -0.4498
 5515W        W 9715   2.603   3.143   1.477  0.0839 -0.0113  0.0702
 5516W        W 9716   9.965   2.026   4.049 -0.1344  0.1406 -0.1622
 5517W        W 9717   5.092   2.798   4.323  0.1894 -0.1933 -0.1750
 5518W        W 9718   2.521   8.195   4.209 -0.0451  0.0632  0.0433
 5519W        W 9719   1.595   8.766   0.134 -0.0547  0.0767  0.2152
 5520W        W 9720   7.286   6.427   1.595  0.1346 -0.1928  0.0389
 5521W        W 9721   3.714   7.151   4.818 -0.3092 -0.4277 -0.1812
 5522W        W 9722   2.586   8.006   2.824 -0.3088  0.2504  0.2721
 5523W        W 9723   3.610   6.822   4.375  0.1831 -0.1630  0.0169
 5524W        W 9724   9.544   6.542  12.485  0.1279 -0.2443  0.2885
 5525W        W 9725  10.199   9.845  11.963  0.0351  0.1558 -0.0702
 5526W        W 9726   4.325   3.990  10.357  0.0056  0.1481 -0.2875
 5527W        W 9727   3.674   4.098  13.212  0.0124  0.3062  0.3828
 5528W        W 9728   3.654   1.916   2.741  0.0948  0.1575  0.1191
 5529W        W 9729   2.712   7.749   9.225 -0.0995 -0.1185 -0.2173
 5530W        W 9730   2.798   6.068   1.941  0.0327  0.3310 -0.0824
 5531W        W 9731   7.037   1.219  11.283  0.0546 -0.0472 -0.0312
 5532W        W 9732   5.939   7.916   9.194 -0.3067 -0.1234  0.0795
 5533W        W 9733  10.204   2.209   1.001 -0.2273  0.0376  0.1543
 5534W        W 9734   2.984   7.625   3.222 -0.1774  0.2255 -0.0181
 5535W        W 9735   0.482   0.967  10.566  0.0430 -0.0446  0.1276
 5536W        W 9736   7.782   3.187   9.521  0.1091  0.0652 -0.0738
 5537W        W 9737   7.798   2.288   2.264 -0.1059 -0.0354  0.1792
 5538W        W 9738  10.174   5.987   3.628  0.0326  0.1546  0.2103
 5539W        W 9739   9.929   3.917  11.070  0.2796  0.1515 -0.1180
 5540W        W 9740   8.940   3.193  12.016  0.1315  0.0191  0.0765
 5541W        W 9741   8.082   8.970   1.063 -0.2829  0.0348  0.1594
 5542W        W 9742   2.253   5.084   9.693  0.1347  0.2315 -0.1902
 5543W        W 9743   8.217   7.062   1.019 -0.2105  0.0654  0.0776
 5544W        W 9744   8.236   0.248  11.195  0.1300  0.0744 -0.0477
 5545W        W 9745   2.702   4.141   5.372 -0.3948 -0.1171  0.0360
 5546W        W 9746   6.250   6.719   1.007 -0.0298  0.3868 -0.2572
 5547W        W 9747   6.713   5.789   9.831 -0.1583  0.3897 -0.0637
 5548W        W 9748   7.536   1.820   0.384 -0.3357 -0.0373 -0.0382
 5549W        W 9749   1.948   2.572   4.023 -0.3718 -0.0780  0.0604
 5550W        W 9750   9.492  10.361   1.954 -0.3676  0.0692  0.0538
 5551W        W 9751   3.409   9.755   2.659 -0.0362 -0.0654  0.0584
 5552W        W 9752   0.596   2.366  13.151 -0.0704 -0.1322  0.0919
 5553W        W 9753   2.170   0.840  11.668 -0.0673 -0.2198 -0.2458
 5554W        W 9754   9.736   7.922   9.683  0.1727  0.0960 -0.0474
 5555W        W 9755   7.416   6.343  13.289 -0.1912  0.0543  0.3695
 5556W        W 9756   8.803   6.953   3.097  0.2108  0.2844  0.2065
 5557W        W 9757   6.018   8.353   2.457 -0.1672  0.0387  0.2700
 5558W        W 9758   8.685   8.777   9.665 -0.2614  0.0493 -0.0522
 5559W        W 9759   9.494   0.451   3.915 -0.1573  0.0319  0.3888
 5560W        W 9760   1.790   2.153   1.804 -0.0371 -0.3670 -0.4965
 5561W        W 9761   1.579   8.366   2.797  0.2618 -0.0678 -0.0524
 5562W        W 9762   5.436   5.515   2.734 -0.0521  0.0982 -0.0574
 5563W        W 9763   1.625   4.422  11.896 -0.0881 -0.1839 -0.1904
 5564W        W 9764   1.072   4.713   2.950  0.1030 -0.1021 -0.0104
 5565W        W 9765   0.199   4.257  10.576 -0.1857  0.1383 -0.2507
 5566W        W 9766   2.385   0.078  12.076  0.0236  0.1493  0.0896
 5567W        W 9767   2.220  10.077   2.950 -0.0049 -0.2339  0.0560
 5568W        W 9768   7.382   7.365   1.328 -0.0933  0.0078 -0.1941
 5569W        W 9769   4.534   3.839  13.097 -0.1449 -0.2548 -0.0626
 5570W        W 9770   5.233   0.924  10.822  0.0781  0.2064  0.0852
 5571W        W 9771   5.155   6.162  10.738 -0.0948  0.0566 -0.0092
 5572W        W 9772   5.339   3.442   2.156 -0.1803  0.1100 -0.1776
 5573W        W 9773   3.875   0.837   0.327  0.3362  0.1332  0.0383
 5574W        W 9774   6.700   2.801   0.208 -0.1667 -0.4086  0.0143
 5575W        W 9775   9.341   4.160   0.296 -0.4479 -0.0196  0.0924
 5576W        W 9776   4.743   0.373   2.844  0.0395 -0.0064 -0.1665
 5577W        W 9777   8.117   2.242   4.134 -0.0787  0.3468 -0.1959
 5578W        W 9778   7.458   4.552   2.776  0.1064  0.0913  0.1910
 5579W        W 9779   8.310   9.792   0.964  0.1100  0.1669 -0.4116
 5580W        W 9780   9.845   4.514  13.391  0.0638  0.2743 -0.2882
 5581W        W 9781   4.474   7.093   1.951 -0.1388 -0.2625 -0.2174
 5582W        W 9782   5.033   3.081   2.579 -0.2998  0.0146  0.0361
 5583W        W 9783   5.980   0.925  13.155  0.2736  0.2206  0.0611
 5584W        W 9784   4.515   1.016   9.763  0.0181 -0.1235  0.1634
 5585W        W 9785   5.427   1.137   9.775  0.4472 -0.0241  0.2899
 5586W        W 9786   3.058   3.891   4.189 -0.0109 -0.1556  0.2525
 5587W        W 9787   9.019   8.571   1.004 -0.4256 -0.1804  0.2115
 5588W        W 9788   6.718   6.315   9.949  0.1004  0.2075  0.0407
 5589W        W 9789   7.695   1.999  10.757  0.1877  0.0961  0.0555
 5590W        W 9790   1.800   2.630   1.870  0.0134  0.1697  0.2664
 5591W        W 9791   5.319   7.285   0.447 -0.2608  0.5603 -0.0237
 5592W        W 9792   1.755   4.671   1.575  0.1214  0.0018 -0.2284
 5593W        W 9793   4.684   5.865   4.150  0.2160  0.2602 -0.2346
 5594W        W 9794   0.311   8.645   2.655 -0.2225  0.1476  0.0270
 5595W        W 9795   6.517   6.607  12.416  0.0253 -0.1955  0.1758
 5596W        W 9796   8.888   0.257   2.345  0.1439  0.3846  0.4250
 5597W        W 9797   9.145   3.901   3.804  0.0108 -0.1806  0.0145
 5598W        W 9798  10.207   7.590  11.023 -0.0293  0.1987 -0.1176
 5599W        W 9799   3.082   7.409   9.429 -0.2090  0.1630 -0.1209
 5600W        W 9800   4.941   5.073   8.844  0.0609 -0.2413  0.1685
 5601W        W 9801   4.933   7.018   4.186  0.0218 -0.0480  0.0317
 5602W        W 9802   4.871   9.109   3.646  0.1487 -0.1933 -0.1174
 5603W        W 9803   3.932   8.582   9.629 -0.2836 -0.0530  0.0623
 5604W        W 9804   1.028   1.455  13.336 -0.2230  0.1011  0.3877
 5605W        W 9805   9.020   4.359   3.649  0.1416  0.1776 -0.0187
 5606W        W 9806   0.137   7.901   1.889 -0.0160 -0.0019 -0.1413
 5607W        W 9807   3.822   1.300   8.382 -0.0891 -0.0477  0.0325
 5608W        W 9808   1.350   1.459   8.524 -0.3811 -0.2228  0.4334
 5609W        W 9809   4.760   6.705  12.378  0.2776 -0.0157  0.2864
 5610W        W 9810   6.501   4.359  10.333  0.5635 -0.0976  0.0814
 5611W        W 9811   7.575   7.735   3.242  0.3175 -0.0246  0.0085
 5612W        W 9812   2.737   8.556  12.768 -0.1771 -0.0243  0.1470
 5613W        W 9813   1.296   6.107   8.606  0.0777  0.2095 -0.1443
 5614W        W 9814   3.010   0.434   8.062 -0.0461 -0.2386 -0.0186
 5615W        W 9815   4.926   8.783  12.780  0.1089  0.4770  0.0481
 5616W        W 9816   2.274   6.141  11.902  0.0153 -0.0929 -0.0592
 5617W        W 9817   4.046   2.989  10.866 -0.0206 -0.1348 -0.0122
 5618W        W 9818   1.172   2.411   4.356  0.2054  0.2960 -0.1875
 5619W        W 9819  10.214   3.557  13.207 -0.0285 -0.1826 -0.3467
 5620W        W 9820   0.696   8.522   4.580 -0.1633  0.0826  0.2046
 5621W        W 9821   5.742   9.807   8.684 -0.1368  0.3172 -0.0493
 5622W        W 9822   4.365   4.529   4.322  0.0171  0.0306  0.1207
 5623W        W 9823   2.735   9.895  11.401  0.2081 -0.0830  0.2055
 5624W        W 9824   1.390   6.424  10.334  0.1942 -0.0663  0.1454
 5625W        W 9825   5.650   0.025  12.603  0.0607 -0.0617 -0.1806
 5626W        W 9826   0.254   6.796   2.613  0.0566 -0.2373  0.1379
 5627W        W 9827   5.479   5.719  12.766 -0.3963 -0.0458  0.2632
 5628W        W 9828  10.335  10.458  12.098 -0.0426  0.0425 -0.1155
 5629W        W 9829   0.069   7.253   1.401  0.0774  0.1888 -0.1194
 5630W        W 9830   6.105   7.169   4.777 -0.1015 -0.0301  0.0204
 5631W        W 9831   3.058   8.690   1.023  0.2491 -0.0935  0.3884
 5632W        W 9832   2.031   3.306   0.904  0.0658 -0.0241 -0.1656
 5633W        W 9833   7.487   9.673  10.356  0.0057 -0.3284 -0.3528
 5634W        W 9834   8.058   7.901   3.060  0.0912  0.1185 -0.1848
 5635W        W 9835   2.103   3.016   2.829 -0.1901 -0.2157  0.0389
 5636W        W 9836   5.911   4.891   0.723  0.0208  0.2701 -0.1174
 5637W        W 9837   8.182   1.074   3.817  0.3580 -0.1065 -0.0795
 5638W        W 9838   4.371   7.994  13.130 -0.1408 -0.1619  0.1985
 5639W        W 9839   9.265   0.652   9.189  0.0033  0.2436 -0.0780
 5640W        W 9840   2.649   8.272   3.219 -0.2972 -0.0449 -0.2856
 5641W        W 9841   0.671   8.536  11.784  0.2169  0.1642 -0.1847
 5642W        W 9842   6.174   7.501   9.909 -0.0072 -0.0615  0.0748
 5643W        W 9843   1.735  10.241   5.078  0.0698  0.2316 -0.3546
 5644W        W 9844   0.143   8.082  13.053  0.2050 -0.2176  0.1125
 5645W        W 9845   4.060   2.303   9.987  0.1681 -0.1535 -0.0675
 5646W        W 9846   9.646   4.179   2.576 -0.5707 -0.0629 -0.0023
 5647W        W 9847   6.011   1.122   3.905 -0.1531  0.2144  0.1015
 5648W        W 9848   3.707   9.247   3.423  0.0990  0.0066 -0.0687
 5649W        W 9849   4.113   0.785   9.974  0.0905 -0.1730 -0.2923
 5650W        W 9850   8.587   3.869   0.051  0.2313 -0.2100  0.2001
 5651W        W 9851   7.125   0.199   9.529  0.0463  0.1857  0.2163
 5652W        W 9852   8.711   0.885  12.814  0.0281 -0.0054 -0.3461
 5653W        W 9853   8.066   4.715  12.416 -0.0084  0.2022  0.0883
 5654W        W 9854   9.791   2.844  11.482  0.2361 -0.2602  0.1974
 5655W        W 9855   1.017   6.550   3.689  0.1115  0.1865 -0.0220
 5656W        W 9856  10.148   4.625   3.260 -0.2434  0.1460  0.0511
 5657W        W 9857   4.307   4.507   0.273 -0.1900  0.2134 -0.0550
 5658W        W 9858   3.064   8.902   1.966  0.1742  0.0445 -0.4954
 5659W        W 9859   0.664   1.067  13.162 -0.1448  0.3699  0.2599
 5660W        W 9860   2.129   2.185   4.327  0.0563  0.2405 -0.0927
 5661W        W 9861   3.192   6.695   3.069  0.0520 -0.0361  0.1385
 5662W        W 9862   6.824   7.611  10.129 -0.0142 -0.0530  0.2837
 5663W        W 9863   9.137   7.501   1.833 -0.0084 -0.0559 -0.2014
 5664W        W 9864   4.689   8.382   4.318  0.1313 -0.0598  0.2484
 5665W        W 9865   6.801   3.692  11.671  0.1511  0.1277 -0.1040
 5666W        W 9866   6.449   0.733   0.017 -0.1023 -0.1482 -0.0063
 5667W        W 9867   2.765   4.562   4.582 -0.4261  0.1371  0.0603
 5668W        W 9868   9.519   3.825   0.853  0.0848 -0.1102  0.3610
 5669W        W 9869   0.532   1.652  10.001  0.2515 -0.4524  0.2628
 5670W        W 9870   4.037   5.124   4.749  0.2010  0.0951  0.2120
 5671W        W 9871   1.625   2.297   4.302 -0.0026  0.3103  0.0070
 5672W        W 9872   7.335   3.099   2.670  0.0605  0.0571  0.0174
 5673W        W 9873   8.368   7.484   1.295 -0.1886 -0.2750  0.0714
 5674W        W 9874  10.268   3.164  12.206  0.0226 -0.0487 -0.1502
 5675W        W 9875   1.886   8.772   3.561 -0.3742  0.1360 -0.0141
 5676W        W 9876   7.293   6.442  12.766  0.1533  0.1050  0.1664
 5677W        W 9877   1.863   2.924  13.331  0.0251 -0.1156 -0.0046
 5678W        W 9878   7.253   6.644   2.428 -0.2573 -0.1801 -0.0642
 5679W        W 9879   3.016   6.793  10.665  0.0473 -0.0046 -0.2355
 5680W        W 9880   1.214   5.225  12.013 -0.0602 -0.1710  0.1889
 5681W        W 9881   7.706   5.406   3.194 -0.1375 -0.0747 -0.2560
 5682W        W 9882   0.604   0.414   9.722 -0.1541  0.4037 -0.1547
 5683W        W 9883   5.175   9.257   5.034  0.0236 -0.0028  0.1842
 5684W        W 9884   5.130   4.265  12.916  0.2849  0.0859  0.2618
 5685W        W 9885   6.752   5.728   9.334 -0.2483  0.1845  0.1322
 5686W        W 9886   3.247   9.628   4.463 -0.1070  0.1481  0.2575
 5687W        W 9887   8.561   4.634  12.261  0.0326 -0.0779 -0.3629
 5688W        W 9888   6.156   2.162  10.395 -0.1565  0.0415  0.1016
 5689W        W 9889  10.436   8.548   9.785  0.2066  0.1426 -0.0334
 5690W        W 9890   9.583   4.911  10.293  0.0506 -0.0649 -0.1029
 5691W        W 9891   7.853   4.507  10.807  0.2121 -0.0018  0.0172
 5692W        W 9892   0.230   0.854   0.090 -0.2208 -0.0243  0.1715
 5693W        W 9893   9.014   1.660  12.403  0.1833  0.0565 -0.1543
 5694W        W 9894   8.566   3.621  12.175 -0.3769  0.0893 -0.0517
 5695W        W 9895   3.024   3.152   8.477 -0.2041 -0.0089 -0.2422
 5696W        W 9896   2.590   7.234   9.350 -0.2889 -0.1510 -0.0059
 5697W        W 9897   6.594  10.286  10.678  0.4509  0.0150 -0.0901
 5698W        W 9898   6.234   2.274   1.527  0.1952  0.0236 -0.1358
 5699W        W 9899   7.627   7.901   8.843  0.0585 -0.0730 -0.0468
 5700W        W 9900   5.892   9.430  10.778  0.0290  0.3310  0.1994
 5701W        W 9901   2.176   2.967   2.316  0.0204 -0.0379 -0.0971
 5702W        W 9902  10.426   7.193   2.645 -0.2227 -0.0930  0.2754
 5703W        W 9903   6.044   7.807  11.467 -0.2103 -0.0480 -0.0041
 5704W        W 9904   8.815   5.958  12.037  0.1835 -0.0983 -0.0151
 5705W        W 9905   6.560   1.860  10.687  0.0193 -0.1019 -0.4411
 5706W        W 9906   1.219   7.423  10.315 -0.2929 -0.0633  0.1175
 5707W        W 9907   1.874   4.149   0.667  0.0583  0.2283 -0.1972
 5708W        W 9908   7.651   6.228   1.250 -0.0023  0.1846 -0.1210
 5709W        W 9909   1.083   1.741  11.155 -0.0501  0.0994 -0.0845
 5710W        W 9910   2.662   1.174  11.855 -0.1655  0.0922 -0.1243
 5711W        W 9911   2.299   5.964   1.846 -0.1201  0.1798 -0.2171
 5712W        W 9912   1.359   6.582   9.848 -0.2217 -0.0936  0.0474
 5713W        W 9913   5.473   4.636   4.425  0.0689 -0.1246 -0.5581
 5714W        W 9914   5.928   0.102  13.011  0.1725  0.1538 -0.0936
 5715W        W 9915   7.996  10.485  10.732  0.0777  0.2701  0.0606
 5716W        W 9916   7.136   8.106   2.989 -0.0432  0.1171 -0.0141
 5717W        W 9917   4.338   0.924   9.197  0.2566 -0.2806  0.0028
 5718W        W 9918   7.694   1.283   1.508 -0.0649  0.2501 -0.0562
 5719W        W 9919   9.199   3.529  12.904 -0.2003  0.0867 -0.0861
 5720W        W 9920   1.415   2.698  13.026  0.1589  0.3236 -0.1385
 5721W        W 9921   0.287   7.880  10.414  0.1153  0.2017  0.0296
 5722W        W 9922   0.147  10.225   2.649  0.0361 -0.0022 -0.2503
 5723W        W 9923   0.120   2.771  11.504  0.3044 -0.0240 -0.1878
 5724W        W 9924   9.485   8.488   3.233  0.1444  0.4118  0.1673
 5725W        W 9925   6.742   1.249  13.172  0.0358  0.0584  0.0068
 5726W        W 9926   7.790   8.588   9.137 -0.1222  0.1459  0.1672
 5727W        W 9927   6.497   3.320   1.595  0.1777  0.1065 -0.0248
 5728W        W 9928   5.004   6.837   1.703 -0.3801  0.0384  0.0177
 5729W        W 9929   8.381   4.189  13.150  0.1352  0.2987  0.5782
 5730W        W 9930   6.471   7.625  11.681 -0.2383 -0.1019  0.1300
 5731W        W 9931   3.403   9.005   0.095 -0.0317  0.3457 -0.2386
 5732W        W 9932   9.329   1.526  10.714  0.0560  0.1678  0.1096
 5733W        W 9933   5.975   9.948   3.134 -0.0290  0.1298 -0.1395
 5734W        W 9934   0.503  10.376  13.051 -0.2021 -0.2793  0.1453
 5735W        W 9935   8.983   4.764   3.920 -0.0857 -0.1335 -0.2214
 5736W        W 9936   6.278   6.709   0.334  0.2755 -0.1336 -0.0702
 5737W        W 9937   2.834   9.717  11.994 -0.0797 -0.0394  0.1125
 5738W        W 9938   0.861   6.785   3.267  0.3374 -0.2614 -0.0002
 5739W        W 9939   0.784   9.668  13.332 -0.0257  0.3941 -0.0926
 5740W        W 9940   2.408   0.700   2.084  0.0343  0.1089  0.0534
 5741W        W 9941  10.286   3.567  10.337 -0.0453 -0.1438  0.2938
 5742W        W 9942   7.310   0.665  11.183  0.0527 -0.0381  0.0591
 5743W        W 9943   2.565   5.878  11.600  0.1225 -0.1582  0.1120
 5744W        W 9944   7.089   2.648   1.499 -0.2084  0.1767  0.1028
 5745W        W 9945   2.638   0.454   4.282 -0.0139  0.0703 -0.1203
 5746W        W 9946   6.700   3.945   9.509 -0.1893 -0.3082 -0.1818
 5747W        W 9947  10.219   3.578   2.794 -0.2689 -0.2054  0.1172
 5748W        W 9948   1.949   4.128   2.729  0.4496 -0.3269 -0.1233
 5749W        W 9949   5.281   7.256   2.069  0.0683  0.0069  0.0733
 5750W        W 9950   2.386   3.381   3.045 -0.0930 -0.2854  0.1516
 5751W        W 9951   1.258   0.706   8.584  0.1239  0.2557 -0.3230
 5752W        W 9952   4.474   9.543  12.357  0.0447 -0.1874 -0.1494
 5753W        W 9953   6.246   7.629   1.933 -0.0889  0.0635 -0.1192
 5754W        W 9954   6.749   0.891  12.215  0.1616  0.3292  0.2778
 5755W        W 9955   2.166   7.847  10.425  0.1395  0.1243 -0.1039
 5756W        W 9956   0.584   3.054  10.692  0.0993 -0.0015  0.0587
 5757W        W 9957   4.069   4.509   4.710 -0.0668 -0.0219  0.2134
 5758W        W 9958   0.624   2.518   2.418 -0.0216 -0.1229 -0.1730
 5759W        W 9959   1.339   4.544   4.514  0.1014  0.1607 -0.2693
 5760W        W 9960   2.684   2.706   0.405 -0.1998 -0.0330 -0.2303
 5761W        W 9961   6.281   2.737   3.753 -0.1650  0.2629  0.0904
 5762W        W 9962  10.180   3.057  11.149 -0.0234  0.0196 -0.2661
 5763W        W 9963   7.133   0.622   9.813  0.0158  0.0213  0.1513
 5764W        W 9964   4.201   1.814   1.338 -0.4289  0.2387 -0.0145
 5765W        W 9965   9.858   1.429  12.850 -0.1134  0.1999 -0.0655
 5766W        W 9966   2.159   9.994  10.213  0.2624 -0.1971 -0.1392
 5767W        W 9967   1.029   0.252  11.409 -0.3731  0.2480 -0.0469
 5768W        W 9968   4.355   7.966   3.013 -0.0700 -0.0138  0.0529
 5769W        W 9969   8.656   8.348  11.657  0.1547 -0.0620 -0.2127
 5770W        W 9970   0.213   3.221  10.175  0.0447 -0.3976 -0.1626
 5771W        W 9971   1.123   9.655   4.008  0.0347 -0.2629  0.1215
 5772W        W 9972   9.539   3.237   0.629 -0.0143  0.3456  0.1505
 5773W        W 9973   4.491   2.096   9.959 -0.2585 -0.1152  0.1717
 5774W        W 9974   0.915   2.958   2.777  0.0684  0.0563 -0.1395
 5775W        W 9975   5.550   9.411  10.049 -0.0966  0.2879  0.1380
 5776W        W 9976   8.590   9.154   1.866 -0.0813 -0.1140  0.1377
 5777W        W 9977   1.698   4.596  10.253 -0.2962 -0.1564 -0.0533
 5778W        W 9978   3.340   0.336  10.065 -0.1742 -0.0544  0.2037
 5779W        W 9979   8.120   1.272  12.686  0.1760  0.1179 -0.1822
 5780W        W 9980   1.012   5.286  11.152  0.2887 -0.2190 -0.3019
 5781W        W 9981   4.987   6.277   4.714  0.0394 -0.0704 -0.4453
 5782W        W 9982   4.916   1.210  11.210  0.1141  0.1183 -0.0226
 5783W        W 9983   2.078   6.780   2.865  0.0714 -0.0895  0.0760
 5784W        W 9984   4.871  10.439   0.777  0.3235 -0.1716 -0.3925
 5785W        W 9985   9.541   7.675   3.659 -0.1500 -0.0318  0.1034
 5786W        W 9986   9.029   3.676   1.787 -0.2687 -0.1706  0.0464
 5787W        W 9987   6.358   1.143  12.211 -0.2372  0.1251 -0.3522
 5788W        W 9988   4.294   5.561   4.732 -0.0123  0.1568 -0.0056
 5789W        W 9989   9.073   8.577   4.015  0.0349 -0.0153 -0.0805
 5790W        W 9990   6.386   2.803   0.722  0.1539 -0.0464  0.1516
 5791W        W 9991   4.409   7.611  12.276 -0.4229 -0.2620 -0.2167
 5792W        W 9992   8.438  10.117  13.416 -0.1703 -0.1359  0.1879
 5793W        W 9993   5.698   7.536  11.872 -0.0176 -0.2081  0.1144
 5794W        W 9994   0.685   0.325   0.870  0.0478  0.2542  0.0130
 5795W        W 9995   6.056   8.241  13.138 -0.1448 -0.1649  0.0784
 5796W        W 9996   8.404   3.430   0.151 -0.2672 -0.2636 -0.1969
 5797W        W 9997   8.248   3.276  10.761 -0.0276  0.1272 -0.0452
 5798W        W 9998   8.690   9.876   2.340 -0.0023  0.1233  0.0610
 5799W        W 9999   2.434   5.948   0.887 -0.0933 -0.0680  0.4293
 5800W        W10000  10.056   9.886  10.917  0.2819  0.0600 -0.1206
 5801W        W10001   7.217   8.014   1.702  0.3634  0.0439 -0.0826
 5802W        W10002   1.762   4.293  13.069  0.0579 -0.1533 -0.1001
 5803W        W10003  10.204   5.433   3.659  0.1696 -0.0205 -0.2202
 5804W        W10004   0.570   4.998   3.732 -0.0819  0.1312 -0.1031
 5805W        W10005   5.401   7.191   3.184 -0.2788 -0.0246 -0.0793
 5806W        W10006   2.900   6.799   0.685  0.0601 -0.0415  0.0334
 5807W        W10007   5.471   9.970   0.195 -0.1041 -0.0301  0.1499
 5808W        W10008   4.509   7.481   3.312 -0.1155  0.0956 -0.1385
 5809W        W10009   9.786   5.063  12.184  0.2678 -0.1965 -0.0106
 5810W        W10010  10.463   9.466   0.077  0.0404  0.2743 -0.0737
 5811W        W10011   7.671   3.062  12.223 -0.1901  0.0799  0.1288
 5812W        W10012   9.810   5.819  11.691  0.2298 -0.1661 -0.1426
 5813W        W10013   8.276   3.886   3.182  0.0724  0.1859 -0.2426
 5814W        W10014   1.742   1.587   2.067 -0.0719 -0.0642 -0.1963
 5815W        W10015   9.273   6.734   0.289 -0.1274 -0.0558 -0.0249
 5816W        W10016   6.974   9.323  12.336 -0.0103 -0.1986  0.0323
 5817W        W10017   0.380   9.469  10.273  0.2479  0.1446 -0.3671
 5818W        W10018   5.311   3.125   9.904 -0.2167 -0.3845  0.2459
 5819W        W10019   2.091  10.488  10.002  0.0126  0.0175 -0.1565
 5820W        W10020   0.811   7.773   3.302  0.0773 -0.1098 -0.1119
 5821W        W10021   5.346   5.834  11.180  0.0291  0.0595  0.5383
 5822W        W10022   8.567   6.638   9.897  0.2294  0.1237 -0.0011
 5823W        W10023   3.277   5.309  10.731  0.0474  0.3649  0.1299
 5824W        W10024   6.603   2.694  10.150  0.0716  0.0806  0.2744
 5825W        W10025  10.439   7.476   9.741  0.1676  0.1013  0.1109
 5826W        W10026   7.806   9.860   0.621 -0.3946 -0.1918 -0.0967
 5827W        W10027   0.704   1.964   2.454  0.3762 -0.3159 -0.2311
 5828W        W10028   9.165   7.401  10.906 -0.0961  0.0110  0.5170
 5829W        W10029   1.029   3.948   1.478 -0.1243  0.0284 -0.1270
 5830W        W10030   2.674   8.913   9.612  0.0384 -0.0708 -0.4515
 5831W        W10031   8.606  10.439   9.455  0.0108 -0.1817 -0.2492
 5832W        W10032   0.778   6.257  11.501 -0.2103 -0.0230  0.1570
 5833W        W10033   6.921   6.999   2.623 -0.0484 -0.1619  0.2183
 5834W        W10034   6.432   2.755  10.633 -0.0409 -0.1036 -0.0228
 5835W        W10035   0.710   7.516  12.676  0.1571 -0.1559  0.0352
 5836W        W10036   8.939   3.954   0.487  0.0213 -0.1318 -0.1402
 5837W        W10037   0.981   5.995  11.943  0.2169 -0.2075 -0.1496
 5838W        W10038   9.425   7.025   4.781  0.0760  0.1541 -0.1191
 5839W        W10039   3.265   3.009   2.986 -0.0540 -0.3907  0.1891
 5840W        W10040   4.018   0.777   1.379  0.2440 -0.0094 -0.0058
 5841W        W10041   7.739   6.357   3.750  0.3535  0.0966  0.1279
 5842W        W10042   4.913   9.051  11.573 -0.1383  0.2656 -0.0857
 5843W        W10043  10.240   1.644  10.743  0.1866  0.0913 -0.2239
 5844W        W10044  10.312   5.647   3.236 -0.1956  0.0934  0.0569
 5845W        W10045   3.233   1.629  10.583 -0.2845 -0.0175  0.1534
 5846W        W10046   9.654   3.312  12.791 -0.2004  0.0511  0.1187
 5847W        W10047   2.807   9.176  12.345  0.0678  0.0790  0.0770
 5848W        W10048   6.336   3.512  10.288 -0.0265  0.0852 -0.1580
 5849W        W10049   3.776   2.138  10.389 -0.0361 -0.0638 -0.0834
 5850W        W10050   8.390   6.982  13.089  0.0502  0.2331 -0.1590
 5851W        W10051   7.876   0.439  10.862 -0.0870 -0.1511 -0.2016
 5852W        W10052   6.485   7.340  11.138  0.0826 -0.1129  0.1636
 5853W        W10053   1.378  10.159   1.087  0.0958 -0.2405 -0.0182
 5854W        W10054   6.654   8.840  12.349 -0.0521 -0.1265 -0.2845
 5855W        W10055   8.159   3.094   3.396 -0.0869  0.2994  0.3112
 5856W        W10056   6.140   6.992  13.193 -0.0207  0.1987  0.1192
 5857W        W10057   1.310   5.886   9.607 -0.1722  0.0301  0.0414
 5858W        W10058   1.100   5.311  12.838  0.3580  0.1393 -0.2594
 5859W        W10059   8.031   8.575   3.710 -0.1811 -0.1459 -0.0723
 5860W        W10060   2.495   4.139   1.559 -0.0096  0.5764  0.1255
 5861W        W10061   7.409   7.764   4.120  0.1764  0.0671 -0.2374
 5862W        W10062   4.527   1.755  11.380  0.1552 -0.0075 -0.1166
 5863W        W10063   1.766   4.487   0.269  0.2256 -0.0016  0.1154
 5864W        W10064   2.848   0.310  10.300 -0.0916  0.0739 -0.1106
 5865W        W10065   7.204   5.779  13.292 -0.0285  0.2788 -0.0007
 5866W        W10066   9.742   6.235   3.935  0.0370 -0.0458 -0.3164
 5867W        W10067   1.807   7.233   1.264  0.1296 -0.1519 -0.2834
 5868W        W10068   9.913   2.503   2.462 -0.1814  0.2666 -0.0915
 5869W        W10069   7.768   8.996   2.487 -0.0703  0.3106 -0.1692
 5870W        W10070   4.236   1.270  11.475 -0.3109  0.3009 -0.2257
 5871W        W10071   3.021   1.842   1.899 -0.0005 -0.1775 -0.1393
 5872W        W10072   4.183   7.599   1.164 -0.1703 -0.0467  0.0160
 5873W        W10073   9.970   5.425  11.423  0.0110 -0.0270 -0.1826
 5874W        W10074   4.680   0.919  12.041 -0.0269  0.1367  0.4496
 5875W        W10075   7.418   7.502  12.841 -0.0392  0.1642  0.0523
 5876W        W10076   5.108   9.503   0.930  0.1083  0.2136 -0.0287
 5877W        W10077   6.393   5.568  10.249 -0.0984 -0.0791 -0.1096
 5878W        W10078   6.712   7.497   8.663 -0.1256  0.0519 -0.0393
 5879W        W10079   6.609   3.135   2.232  0.0144  0.2108  0.1625
 5880W        W10080   1.732   0.134   4.185 -0.1438 -0.0099  0.0659
 5881W        W10081   6.878   5.983  11.337 -0.1677 -0.0383  0.1348
 5882W        W10082   4.708   7.513   4.224  0.0466  0.1965  0.1010
 5883W        W10083   2.138   9.524   9.756  0.1861 -0.3587 -0.1100
 5884W        W10084   6.452   1.847   2.790 -0.1938  0.0235 -0.0683
 5885W        W10085   2.136   3.366   1.538  0.1697 -0.1520 -0.0358
 5886W        W10086   1.256   3.770   1.991 -0.0117 -0.1378  0.1232
 5887W        W10087   6.845   8.987  11.323 -0.0910 -0.0246 -0.0333
 5888W        W10088   8.874   7.290   1.460 -0.0253 -0.0643 -0.1072
 5889W        W10089   8.773   0.734  13.378  0.0495 -0.2722 -0.1245
 5890W        W10090   5.217   1.270   0.926 -0.0895  0.0247 -0.1838
 5891W        W10091   9.937   7.860  10.710 -0.0060 -0.0086  0.0960
 5892W        W10092   3.940  10.193   0.261 -0.2503  0.1913 -0.0332
 5893W        W10093   3.030   4.695  10.598 -0.0594 -0.3334  0.2531
 5894W        W10094   4.071   1.525   4.130 -0.2829 -0.1808  0.0845
 5895W        W10095   9.074  10.044   1.987 -0.0417 -0.0818  0.3194
 5896W        W10096   7.797   6.472   9.594 -0.2787  0.0405 -0.3999
 5897W        W10097   7.508   7.211   2.700 -0.0322 -0.0667 -0.0516
 5898W        W10098   3.400   1.122   2.121 -0.0156  0.1522 -0.0759
 5899W        W10099   9.606   4.239  12.401 -0.0855  0.0026  0.1154
 5900W        W10100   3.287   4.147   9.429  0.2784  0.0250 -0.0612
 5901W        W10101   3.295   0.893  12.476  0.3837 -0.1528  0.1821
 5902W        W10102   5.492   6.686  13.134 -0.0204 -0.0050  0.2570
 5903W        W10103   9.012  10.291   2.416 -0.0151  0.0179 -0.1715
 5904W        W10104   4.015  10.043   9.993 -0.1527 -0.1887  0.0818
 5905W        W10105   9.613   6.627   5.040  0.1119 -0.0805 -0.0823
 5906W        W10106   7.264   4.826   4.406  0.2432  0.0350 -0.0847
 5907W        W10107   3.555   6.154   0.341  0.0785 -0.1487  0.0800
 5908W        W10108   1.148   8.421   9.852 -0.3678 -0.2621 -0.0406
 5909W        W10109   5.876   1.595  11.255 -0.1845  0.1810 -0.1116
 5910W        W10110   1.975   5.746   1.496  0.1141 -0.1758 -0.1045
 5911W        W10111   4.557   8.164   9.742 -0.0250  0.3636 -0.0482
 5912W        W10112   6.401   3.422  10.857  0.1032  0.0786 -0.0242
 5913W        W10113   3.975   0.377   2.753  0.0812 -0.0135 -0.0827
 5914W        W10114   8.044   4.412   2.879 -0.2212 -0.0353  0.2095
 5915W        W10115   4.798   3.681   0.483  0.1557 -0.3258  0.0810
 5916W        W10116   7.745   0.394   9.346 -0.1668  0.0467  0.0327
 5917W        W10117  10.229   8.281   3.072 -0.1691 -0.1016  0.0308
 5918W        W10118   7.428   5.525  10.513  0.2110 -0.1290 -0.0652
 5919W        W10119  10.120  10.058   4.825  0.0156  0.0832  0.3380
 5920W        W10120   5.518   8.972   1.106  0.0054 -0.0912 -0.1334
 5921W        W10121   6.776   0.463  11.761  0.1881  0.0321 -0.0249
 5922W        W10122   5.195   3.542  12.525 -0.1817 -0.3810  0.1681
 5923W        W10123   5.505   9.143   3.603 -0.0700  0.2257 -0.0206
 5924W        W10124   3.115   5.663  10.457 -0.0154 -0.4582 -0.0121
 5925W        W10125   0.296   7.668   9.204 -0.0068  0.0626  0.0553
 5926W        W10126   8.062   5.831  10.292  0.3825  0.0570  0.0107
 5927W        W10127   2.113   1.670  12.555  0.1693  0.2251  0.2172
 5928W        W10128   1.325  10.442  11.693  0.3213 -0.0472 -0.0862
 5929W        W10129   3.564   3.949   4.401  0.2433  0.2197 -0.1202
 5930W        W10130   6.405   9.413  10.571  0.2318 -0.2732  0.0327
 5931W        W10131   6.436   6.539   1.466  0.1506 -0.2009 -0.3691
 5932W        W10132   1.583   6.374   9.435  0.0836 -0.0222  0.1254
 5933W        W10133   7.726   0.249  12.929 -0.1059 -0.3372 -0.2155
 5934W        W10134  10.289   4.270  11.096  0.2503  0.4163  0.1364
 5935W        W10135   6.011   4.121   1.958  0.2350 -0.0885 -0.1828
 5936W        W10136  10.146   7.597   4.150  0.2619 -0.1551 -0.1199
 5937W        W10137   8.746   6.940   3.606 -0.0072  0.3531  0.1729
 5938W        W10138   1.948   5.902   0.993 -0.0072 -0.2860 -0.1747
 5939W        W10139   0.294   6.695   5.161  0.0722 -0.1772  0.1841
 5940W        W10140   6.763   6.866   1.727  0.2105  0.0511 -0.2155
 5941W        W10141   4.003   5.730  10.114  0.0623  0.2650  0.3015
 5942W        W10142   2.567   4.678   9.697  0.0397  0.2958  0.0635
 5943W        W10143   9.410   0.397   0.639 -0.1959 -0.1398 -0.3070
 5944W        W10144   6.993   2.284  12.990 -0.0905  0.0198  0.3032
 5945W        W10145   6.153   4.159   0.087  0.0533 -0.0801 -0.0108
 5946W        W10146   7.723   6.764   2.163  0.0186 -0.3258  0.1094
 5947W        W10147   4.931   1.267   4.507  0.1092 -0.1788 -0.1364
 5948W        W10148   7.331   0.407   1.166 -0.2489  0.5112  0.1450
 5949W        W10149   1.360   7.873   0.484  0.0110 -0.4270  0.1505
 5950W        W10150   9.830   3.364  12.336 -0.1637  0.3814  0.1672
 5951W        W10151   7.617   7.753   2.689 -0.1857  0.1092  0.0366
 5952W        W10152  10.139   0.444   3.254  0.3631 -0.1486  0.1120
 5953W        W10153   4.911   3.912  10.179 -0.3568  0.1375 -0.0762
 5954W        W10154   8.681   9.043   4.045 -0.2284  0.0612 -0.2538
 5955W        W10155   5.784   0.095   3.894 -0.0538  0.0696  0.1976
 5956W        W10156   3.738   1.114  11.396  0.0630 -0.0342  0.2357
 5957W        W10157   7.712   6.546   2.671 -0.0762 -0.1528  0.1167
 5958W        W10158   9.280  10.265  10.668  0.1130 -0.0654 -0.0271
 5959W        W10159   6.686   6.684  11.921 -0.3919  0.0031 -0.1362
 5960W        W10160   0.518   0.196   2.817 -0.4390  0.0367  0.1584
 5961W        W10161   1.706   7.870  11.285 -0.4188  0.0002  0.2265
 5962W        W10162   4.303   0.012   9.555  0.1023 -0.0420  0.0910
 5963W        W10163   8.658   7.658   3.859  0.0964  0.1017  0.0249
 5964W        W10164   0.567   0.572  11.878  0.0151  0.2619 -0.2374
 5965W        W10165   6.637   0.239  11.327  0.1248 -0.0382  0.0084
 5966W        W10166   5.884   5.789   9.734  0.2114  0.1392  0.1252
 5967W        W10167   7.549   8.805  11.353 -0.2248 -0.1685  0.0449
 5968W        W10168  10.144   9.125  12.031  0.5686 -0.3069  0.0060
 5969W        W10169   9.020   5.033  11.014  0.1247  0.0340  0.3625
 5970W        W10170   8.446   6.658   5.172 -0.2902  0.4388  0.1325
 5971W        W10171   1.625   2.272  10.116 -0.1302 -0.0722 -0.1273
 5972W        W10172   8.754   2.653   1.477 -0.1817  0.0913 -0.0315
 5973W        W10173   5.063   5.913   1.320  0.0673 -0.0926 -0.2575
 5974W        W10174   4.057   8.419   2.744  0.1507  0.1216  0.0944
 5975W        W10175   6.201   1.614   5.016  0.0932 -0.0574 -0.1222
 5976W        W10176   6.223   8.937   1.917  0.0587 -0.0039  0.2276
 5977W        W10177   0.042   1.252   3.735 -0.2015 -0.3754 -0.0255
 5978W        W10178   8.980   8.001  11.111 -0.0056 -0.2659  0.1150
 5979W        W10179  10.266  10.193   1.384 -0.0015  0.3222  0.2056
 5980W        W10180   3.516   8.488   3.292 -0.1135  0.0483 -0.0956
 5981W        W10181   5.579   4.835  10.884  0.0012  0.3130  0.0444
 5982W        W10182   4.411   5.071   4.457  0.2463  0.0141 -0.0176
 5983W        W10183   6.870   9.502   1.683 -0.0176 -0.3477  0.0948
 5984W        W10184   1.915   8.801   1.918 -0.4499  0.1490 -0.1203
 5985W        W10185   1.562   1.226  12.141 -0.1907  0.1133 -0.0472
 5986W        W10186   0.802   5.150  11.724  0.2725  0.3244  0.2360
 5987W        W10187   0.293   3.186  12.497  0.1148 -0.1781 -0.0297
 5988W        W10188   7.453   6.667   3.417  0.1989 -0.1781  0.0962
 5989W        W10189   7.415   9.523   3.638 -0.5234  0.0947 -0.0151
 5990W        W10190   5.078   1.743   9.768  0.1721 -0.1339  0.0924
 5991W        W10191   5.281   7.999  12.659 -0.4493  0.1641  0.2880
 5992W        W10192   7.357   2.368  11.100  0.0081 -0.1518 -0.2395
 5993W        W10193   1.807   4.196  12.403  0.0072 -0.3603  0.0894
 5994W        W10194   5.595   2.203   9.601  0.2406 -0.2995  0.2338
 5995W        W10195   6.679   4.465   9.129  0.2101 -0.3481  0.2328
 5996W        W10196   0.959   1.340   4.244  0.1644  0.2678  0.2462
 5997W        W10197   3.653   5.864  11.034 -0.4149 -0.2083 -0.0989
 5998W        W10198   4.268   3.060   9.950 -0.2713 -0.2267  0.2002
 5999W        W10199   0.179   3.387   4.048 -0.1119 -0.0464  0.1603
 6000W        W10200   6.045   8.502  10.817  0.0241 -0.2399  0.0177
 6001W        W10201   2.578   4.909  10.787  0.2641  0.0075 -0.0725
 6002W        W10202   0.771  10.457   1.423  0.2675 -0.1549  0.4237
 6003W        W10203  10.274   5.773  12.573  0.0136  0.0740  0.2176
 6004W        W10204   0.834   8.298   4.087 -0.3354  0.0844 -0.0689
 6005W        W10205   2.839   0.942   9.661  0.0066  0.0265  0.3271
 6006W        W10206   9.252   7.542   0.760 -0.0363  0.0298  0.2952
 6007W        W10207   4.234   3.608   0.440 -0.4414 -0.3537  0.3574
 6008W        W10208   9.824   5.737  11.137  0.3558 -0.1065  0.0985
 6009W        W10209   8.280   0.981  13.106 -0.0776 -0.2589 -0.0716
 6010W        W10210   2.356   8.742   4.946 -0.1835 -0.0551 -0.1629
 6011W        W10211   5.174   4.326  11.606 -0.5554  0.0502  0.5155
 6012W        W10212   1.734   2.421   5.041 -0.0513  0.3665 -0.2058
 6013W        W10213  10.424   8.460  11.247 -0.1209 -0.0127 -0.0854
 6014W        W10214   7.822   9.838  10.913  0.0497 -0.0827  0.0845
 6015W        W10215   1.211  10.224   9.995  0.0983 -0.1009 -0.0975
 6016W        W10216   5.408   9.003  11.401 -0.0426 -0.1853 -0.0291
 6017W        W10217   0.387   0.844   3.651 -0.0886  0.1422  0.1370
 6018W        W10218   4.762   6.857  10.411  0.1943 -0.2756 -0.2531
 6019W        W10219   6.014   9.828   3.965  0.0249 -0.0877  0.0220
 6020W        W10220   8.347   9.626  10.791  0.0841  0.2420 -0.2464
 6021W        W10221   0.601   4.424   0.060 -0.1852  0.1828 -0.1796
 6022W        W10222   9.084   3.029   0.834 -0.0687 -0.2222 -0.1583
 6023W        W10223   6.885  10.310   4.123 -0.0300  0.1354  0.0522
 6024W        W10224   2.673   3.019  12.107  0.3804 -0.0722  0.1322
 6025W        W10225   3.863   2.988   5.559 -0.2006 -0.1184  0.0828
 6026W        W10226   6.962   5.607  10.276  0.1270 -0.0383 -0.3033
 6027W        W10227   2.386   7.061  11.064 -0.2338  0.1389  0.0267
 6028W        W10228   6.405   7.210  11.959 -0.0128 -0.1335 -0.0330
 6029W        W10229   3.067   2.024   0.903  0.4165 -0.2178  0.0328
 6030W        W10230   5.073   3.544   9.255 -0.0842  0.1824 -0.2722
 6031W        W10231   2.052   1.869   1.428  0.0476 -0.2169 -0.1956
 6032W        W10232   4.090   0.711  11.441 -0.2715 -0.0278 -0.0719
 6033W        W10233   1.973   9.124  12.821 -0.1855  0.1870 -0.0942
 6034W        W10234   1.742   1.952  11.416 -0.1197 -0.0090 -0.2046
 6035W        W10235   7.839   0.766   1.702  0.1184  0.0624 -0.0548
 6036W        W10236   5.595   7.291   4.728 -0.0213  0.0304  0.0661
 6037W        W10237   2.352   0.021   3.203 -0.1357 -0.0416  0.0658
 6038W        W10238   5.046   8.375   4.657  0.1962 -0.0385 -0.3307
 6039W        W10239   7.899   6.228  10.685  0.0856 -0.1542 -0.2112
 6040W        W10240   3.631   7.385   3.391  0.3013 -0.0307 -0.2456
 6041W        W10241   4.403   7.071   3.743  0.2361  0.0043  0.2143
 6042W        W10242   0.714   1.188   9.688 -0.0952  0.0281 -0.0301
 6043W        W10243   1.883   7.496   4.547  0.1628  0.0362  0.0384
 6044W        W10244   8.001   6.331   0.794  0.0125 -0.2881  0.2534
 6045W        W10245   7.778   4.881  12.962  0.1844  0.1058  0.2704
 6046W        W10246   3.633   5.195   8.808  0.2696  0.1927  0.0636
 6047W        W10247   3.138   2.399   4.311 -0.0635 -0.0113  0.1590
 6048W        W10248   7.825   0.707   3.573  0.0850  0.0482 -0.4684
 6049W        W10249   8.557   5.267  11.057 -0.1779  0.1603 -0.0001
 6050W        W10250   7.235   8.032  12.612 -0.1102  0.0812 -0.2937
 6051W        W10251   4.204   9.691   5.005 -0.4318 -0.2722 -0.0598
 6052W        W10252   6.182   6.991   9.908  0.3741  0.0601 -0.4302
 6053W        W10253  10.351   1.354   3.186  0.1322  0.2176 -0.1993
 6054W        W10254   4.683   3.695  12.191  0.1582 -0.0277 -0.2380
 6055W        W10255   8.821   1.411  12.065 -0.0677 -0.2690  0.0465
 6056W        W10256  10.482   7.822   0.185 -0.1832 -0.1426  0.0324
 6057W        W10257   3.934   0.354   9.611  0.0005  0.1720 -0.0883
 6058W        W10258   4.335   0.602   3.666 -0.3038 -0.0372  0.1583
 6059W        W10259   2.690   4.139   2.291 -0.0002 -0.1209 -0.1535
 6060W        W10260   2.865   9.474   4.069 -0.3809  0.2618  0.1278
 6061W        W10261   9.199   2.052   1.109  0.1389  0.3174  0.1160
 6062W        W10262   9.617   4.860   2.350  0.0079 -0.4249 -0.1127
 6063W        W10263   1.451   3.484  10.187  0.0216  0.2597  0.2034
 6064W        W10264   8.757   1.882   2.203 -0.3583 -0.1348  0.1046
 6065W        W10265   2.045   9.020   8.996  0.3782 -0.2935 -0.0107
 6066W        W10266   3.756   4.489   2.952 -0.3798 -0.1706  0.1018
 6067W        W10267   1.477   4.157   2.367  0.1161 -0.0223  0.2168
 6068W        W10268   0.307   0.622   2.569 -0.0209 -0.1081 -0.1807
 6069W        W10269   9.601   5.985   3.505  0.0562 -0.0557 -0.4027
 6070W        W10270   3.726   2.498   1.577 -0.2337  0.3976  0.0508
 6071W        W10271   9.263   1.926  10.997  0.0467 -0.2344  0.1921
 6072W        W10272   4.117   4.967   0.104  0.0531 -0.2389  0.0652
 6073W        W10273   7.014   0.809   1.274 -0.2315  0.0048 -0.2179
 6074W        W10274   8.529   0.098   1.811 -0.3918  0.0514 -0.1297
 6075W        W10275   1.837   4.878   4.606  0.2234 -0.1089 -0.1072
 6076W        W10276   4.445   7.587   1.668 -0.0376  0.2184 -0.0384
 6077W        W10277   8.554   1.158  12.424 -0.0195 -0.1186 -0.0531
 6078W        W10278  10.209   9.312  10.146 -0.1727  0.0264  0.0664
 6079W        W10279   8.906   5.992  11.474  0.3073  0.0880  0.0477
 6080W        W10280   0.821   3.487   0.632  0.0337 -0.1707 -0.0821
 6081W        W10281   2.258   9.532  10.397  0.0026  0.3721  0.1121
 6082W        W10282   2.888   3.815   9.809  0.1493  0.0903  0.4317
 6083W        W10283   1.103   0.208   9.747 -0.0269  0.1448 -0.2481
 6084W        W10284   6.155   6.402   4.834 -0.2274  0.2461  0.1134
 6085W        W10285   7.139   7.278   0.020 -0.0263  0.1476 -0.1445
 6086W        W10286   5.704   4.795   9.249  0.1272 -0.1880  0.2466
 6087W        W10287   1.112   4.905   3.673  0.1580  0.0581 -0.2868
 6088W        W10288   9.657  10.454   0.660  0.2023  0.2466 -0.2028
 6089W        W10289   3.427   2.849   1.406 -0.0682 -0.3029 -0.1273
 6090W        W10290   0.053   1.361   0.211  0.1669 -0.2974  0.6495
 6091W        W10291  10.252   6.166   4.194 -0.3515 -0.0354 -0.0558
 6092W        W10292   6.040   4.400   3.004  0.2414 -0.0547 -0.0279
 6093W        W10293   0.227   5.374   3.237 -0.2277 -0.2744 -0.4333
 6094W        W10294   9.682   9.844  13.186  0.2346 -0.1104  0.0567
 6095W        W10295   3.005   5.070  11.552 -0.1179 -0.1058 -0.0690
 6096W        W10296   1.793   5.319   4.238 -0.0599  0.1203  0.0412
 6097W        W10297   5.202   1.868   8.791  0.2393 -0.2342  0.2435
 6098W        W10298   2.706   1.825   3.952 -0.0713  0.0576  0.0990
 6099W        W10299   5.691   9.871  12.281  0.0082 -0.0651 -0.1770
 6100W        W10300   1.593  10.353   3.755  0.0280 -0.1733  0.2025
 6101W        W10301   0.026   2.089  10.635  0.3175  0.1247 -0.0364
 6102W        W10302   6.401   5.328   3.252 -0.0480 -0.0996  0.0493
 6103W        W10303   5.333   8.137  11.442 -0.0715  0.1128 -0.0655
 6104W        W10304   3.354   5.275   0.656  0.2653 -0.3472 -0.1601
 6105W        W10305   8.047   9.408   0.068  0.1678 -0.1127 -0.2527
 6106W        W10306   5.127   1.068   4.072  0.0525 -0.1262  0.3000
 6107W        W10307   1.924   9.234   8.428  0.1968  0.1523 -0.2236
 6108W        W10308   6.394   8.464   8.844  0.0784 -0.1164  0.1046
 6109W        W10309   6.407   0.645  11.115 -0.0827 -0.1603 -0.1669
 6110W        W10310   1.014   5.120   0.453  0.1816  0.0262  0.1435
 6111W        W10311   1.137   6.849   9.368 -0.1853 -0.0747 -0.1240
 6112W        W10312   5.048   3.013  11.624 -0.1090 -0.1012  0.1023
 6113W        W10313   6.939   6.534  10.874  0.1388  0.3355  0.2191
 6114W        W10314   6.429   2.841   8.662  0.0010  0.3371 -0.2143
 6115W        W10315   2.916   6.489  12.589 -0.0428 -0.1315 -0.0799
 6116W        W10316   4.299   7.334  11.075 -0.0925  0.1681 -0.3514
 6117W        W10317   1.703   6.802  12.208  0.0239 -0.2177  0.0211
 6118W        W10318   1.400   2.437  12.599  0.0704  0.1611 -0.2849
 6119W        W10319   0.006   1.714   9.830  0.0105  0.1821  0.1280
 6120W        W10320   5.144   2.058   9.355  0.2560  0.0606 -0.0197
 6121W        W10321   2.922   1.362  12.345  0.2577  0.1291 -0.0554
 6122W        W10322   1.943   5.820   4.402  0.0636 -0.4415 -0.0184
 6123W        W10323   1.029   8.041  11.111  0.4262  0.1449  0.1450
 6124W        W10324   2.339   2.116  11.775  0.2956  0.1874 -0.1886
 6125W        W10325   5.554   2.271   0.788  0.1192  0.0275  0.1400
 6126W        W10326   9.401   6.456   0.892  0.0465 -0.2918 -0.1238
 6127W        W10327   5.512   8.494  10.669  0.1237 -0.1559 -0.0179
 6128W        W10328   1.353   5.138   3.281 -0.0612  0.0788 -0.0302
 6129W        W10329  10.086   0.822   2.099 -0.0234  0.1345 -0.1101
 6130W        W10330   3.519   0.454   8.944 -0.0673  0.2397 -0.4033
 6131W        W10331   2.739   1.094  10.990  0.0545 -0.0068 -0.3519
 6132W        W10332  10.273   5.755  10.084 -0.0002  0.2230  0.2229
 6133W        W10333   6.749   8.049  10.400 -0.1675 -0.2083  0.1154
 6134W        W10334   0.456   1.534  13.412 -0.3439  0.0853 -0.0935
 6135W        W10335   3.136   3.716   0.871  0.3153  0.0142  0.5086
 6136W        W10336   6.457   9.929  11.955 -0.0795 -0.2134 -0.1724
 6137W        W10337   1.119   5.856   1.174 -0.1394 -0.0711 -0.2090
 6138W        W10338  10.035   5.887   1.201  0.0395 -0.0834 -0.1165
 6139W        W10339   7.253   7.381   9.026 -0.0561  0.0811  0.2986
 6140W        W10340   7.673   0.363  12.024  0.0167  0.2280  0.1287
 6141W        W10341   6.475   2.843  11.726  0.1044  0.2755  0.1177
 6142W        W10342   0.664   9.536   9.435 -0.1981  0.4756  0.2875
 6143W        W10343   4.407   2.829   9.166  0.0390 -0.1493 -0.0396
 6144W        W10344   6.446   5.085  10.428 -0.0820  0.2728  0.1094
 6145W        W10345   0.119   7.795   3.923 -0.0095  0.0565  0.2373
 6146W        W10346   1.865   3.871   3.216  0.3091 -0.1358  0.1361
 6147W        W10347   0.522   2.708  12.472 -0.0608 -0.0740  0.1872
 6148W        W10348   6.956   2.258   1.078  0.1702  0.1018  0.0895
 6149W        W10349   6.643   1.375   0.260  0.0386  0.3145  0.1637
 6150W        W10350   0.612   8.415  12.509 -0.2760  0.0609  0.1857
 6151W        W10351   3.710   2.990   1.788  0.1154  0.1845  0.0100
 6152W        W10352   0.684   7.254   0.214 -0.1230 -0.0776  0.2740
 6153W        W10353  10.232   1.713   1.101 -0.1595  0.1579  0.0499
 6154W        W10354  10.481   0.079  13.287  0.2520  0.1554 -0.4429
 6155W        W10355   6.291   2.173  11.643 -0.0984 -0.1710  0.2224
 6156W        W10356   4.588   3.627   1.640 -0.0798  0.4208  0.1615
 6157W        W10357   2.433   1.887   2.813  0.1708 -0.0565  0.1083
 6158W        W10358   1.851   9.211   4.376 -0.1126 -0.1351 -0.0624
 6159W        W10359   2.746   0.786   0.891 -0.2621 -0.2462  0.1526
 6160W        W10360   0.199   2.544  10.449 -0.1433 -0.2046  0.0256
 6161W        W10361   1.377   3.486  12.691 -0.1050  0.1388  0.2466
 6162W        W10362   8.090   2.692  13.152  0.0652  0.2582  0.0167
 6163W        W10363   0.698   6.023   9.745 -0.1579  0.2069 -0.0102
 6164W        W10364   0.755   1.479   2.386 -0.0423  0.1431  0.0187
 6165W        W10365   9.094   9.765   0.421 -0.2279  0.2683 -0.2597
 6166W        W10366   8.687  10.003  12.076  0.0441  0.0762  0.3692
 6167W        W10367   2.855  10.072   9.536 -0.0556  0.3934 -0.2521
 6168W        W10368   8.131   6.165   1.550  0.0676 -0.0358  0.1125
 6169W        W10369   1.854   8.288  12.808  0.0652  0.0416  0.3240
 6170W        W10370   3.314   9.612   1.649 -0.0296  0.1579 -0.3731
 6171W        W10371   5.861   3.588  11.638 -0.1175  0.0887  0.1342
 6172W        W10372   4.645   3.941   2.029  0.2010  0.2965  0.1422
 6173W        W10373   3.294   8.072   4.490 -0.2204  0.0442 -0.1107
 6174W        W10374   1.565   5.508  12.470 -0.0132  0.0284  0.4561
 6175W        W10375   4.741   0.093   1.295  0.2057 -0.2291 -0.0702
 6176W        W10376   8.709   8.458  12.141  0.1059 -0.0140  0.0281
 6177W        W10377   8.442   9.610   2.777  0.2325 -0.0279  0.0462
 6178W        W10378   5.759   1.559   2.317  0.2731 -0.0279 -0.0930
 6179W        W10379  10.284   8.620  11.977  0.2845  0.4421 -0.0998
 6180W        W10380   2.010   3.241   4.255 -0.1854 -0.2554 -0.2962
 6181W        W10381   0.711  10.036   4.231  0.0667  0.1389  0.1633
 6182W        W10382   1.193   8.614   3.129  0.0598 -0.1128 -0.1563
 6183W        W10383   0.177   1.821  11.784  0.1676  0.1371  0.1636
 6184W        W10384   1.702   1.056   3.637  0.2605  0.0406  0.0136
 6185W        W10385   1.873   6.396   3.143  0.1947  0.0790 -0.1257
 6186W        W10386   0.979   6.007   9.250  0.2807  0.3991  0.1874
 6187W        W10387   3.594   6.822   1.270  0.1828  0.4357  0.0533
 6188W        W10388   0.211   6.367   8.831  0.1921  0.2687 -0.1365
 6189W        W10389   1.003   2.787  13.274  0.0457 -0.0287  0.0103
 6190W        W10390   2.865   0.647  12.280  0.2120 -0.4623  0.2361
 6191W        W10391   2.187   1.384   1.651 -0.0077  0.1608  0.0673
 6192W        W10392  10.043   8.362   0.764 -0.1763 -0.1828 -0.1663
 6193W        W10393   7.932   6.890  11.246 -0.1037  0.0946  0.3306
 6194W        W10394   2.686   5.576   0.722  0.1476 -0.2563  0.0064
 6195W        W10395   2.322   6.592   1.614  0.1256 -0.1471  0.0242
 6196W        W10396   3.287   6.500  12.048 -0.0340  0.0338 -0.1053
 6197W        W10397   7.038   1.760   2.242  0.1359  0.1612 -0.2173
 6198W        W10398   8.295   2.338  11.178 -0.0200 -0.3643  0.2871
 6199W        W10399   7.678   1.376  10.138 -0.0388  0.4560 -0.4580
 6200W        W10400   9.705   9.541  11.816 -0.1161  0.0683 -0.0826
 6201W        W10401   2.297   3.843   2.457  0.2819 -0.2399 -0.0869
 6202W        W10402   1.797   9.362  10.627 -0.3066 -0.1182  0.0622
 6203W        W10403   4.487   8.453  11.671  0.0201 -0.0615  0.1032
 6204W        W10404   4.117   5.817  10.667  0.0889 -0.0196  0.0945
 6205W        W10405   3.813   7.206  13.148  0.0068  0.1852  0.3769
 6206W        W10406   1.617   3.432   4.078  0.1055  0.0511 -0.0676
 6207W        W10407   1.081   7.454   0.959 -0.2605  0.1117  0.0369
 6208W        W10408   5.364  10.434   1.286 -0.1358  0.2700  0.0305
 6209W        W10409   5.204   5.908   3.187 -0.1444  0.1927 -0.1786
 6210W        W10410   9.988   9.028  10.489  0.0714 -0.0194  0.0105
 6211W        W10411   6.497   4.494   9.800 -0.1915  0.3499 -0.0459
 6212W        W10412   0.879   2.688   1.444 -0.0404  0.0554 -0.3085
 6213W        W10413   3.542   6.357   1.446 -0.1372 -0.1116 -0.0357
 6214W        W10414   9.351   8.813  11.337 -0.0252 -0.0206 -0.0857
 6215W        W10415   9.764   4.697  10.674  0.2004  0.1360 -0.1680
 6216W        W10416   2.234   6.306  11.437  0.0866  0.0516  0.2665
 6217W        W10417   2.674   5.710  10.689  0.1992 -0.2839  0.0397
 6218W        W10418   5.655   3.479   9.702 -0.0065  0.0089  0.1166
 6219W        W10419   4.415   4.378   3.758  0.1577 -0.5302 -0.3274
 6220W        W10420   4.649   5.520   1.345 -0.2305  0.0019  0.0205
 6221W        W10421   3.600   0.134  11.208  0.2201 -0.1863 -0.0719
 6222W        W10422   9.610   4.647   1.416  0.1614 -0.0837  0.2071
 6223W        W10423   1.125   8.154   1.518  0.0601 -0.3028  0.2293
 6224W        W10424   4.481   9.428  12.917 -0.0085 -0.1860  0.2869
 6225W        W10425   7.531   9.563   3.123 -0.0769 -0.2041  0.2764
 6226W        W10426  10.437   9.940   0.376  0.0810 -0.1107 -0.1536
 6227W        W10427   3.217   0.066   3.253 -0.2276  0.1599  0.0384
 6228W        W10428  10.360   3.523   1.095  0.1577 -0.1766  0.0305
 6229W        W10429   5.812   8.650  10.325 -0.1203 -0.1023  0.1073
 6230W        W10430   6.018   2.536   9.792 -0.2468  0.1611 -0.0128
 6231W        W10431   6.950   8.541   1.371 -0.1720  0.2010  0.0119
 6232W        W10432   2.825   4.549  10.104 -0.4039  0.2842 -0.0463
 6233W        W10433   2.247  10.007   0.327 -0.2689 -0.1578 -0.3233
 6234W        W10434   7.006   0.702   2.192  0.0961 -0.1936 -0.0673
 6235W        W10435   2.369   6.913  12.751  0.0311 -0.1205  0.0537
 6236W        W10436   9.270   2.678  13.286  0.2853  0.0629  0.0745
 6237W        W10437   6.764   6.628   4.290  0.0235  0.3573  0.1215
 6238W        W10438   9.292   0.134  12.868  0.2976 -0.0566 -0.0423
 6239W        W10439   4.919   3.175   1.580 -0.2955 -0.0339 -0.0714
 6240W        W10440   0.586   8.020  12.813  0.3692 -0.4387 -0.0714
 6241W        W10441   6.114   0.262   1.369  0.0915 -0.1310  0.2148
 6242W        W10442   9.376   3.768  11.106  0.1010 -0.1758  0.3370
 6243W        W10443   7.093   4.851   1.874 -0.0861  0.2306 -0.0602
 6244W        W10444   7.285   4.503  10.104 -0.0397  0.4243 -0.1669
 6245W        W10445   2.179  10.038   3.566 -0.0774 -0.1165  0.1388
 6246W        W10446   2.405   9.482  12.164  0.2305 -0.2115  0.3811
 6247W        W10447   5.562   0.316   2.988  0.2326 -0.0662 -0.1132
 6248W        W10448   7.079   7.631   3.380  0.2847 -0.2766 -0.0568
 6249W        W10449   3.852   1.336  11.843 -0.0527  0.1253 -0.0189
 6250W        W10450   4.848   7.836  13.014 -0.1458 -0.2742  0.0170
 6251W        W10451   7.475   2.862  11.224  0.1128  0.1855  0.2436
 6252W        W10452   8.866   2.794  11.681  0.0190  0.1125 -0.0255
 6253W        W10453   7.954   3.670   1.257  0.0125 -0.1385 -0.1329
 6254W        W10454  10.319   8.341   3.894 -0.1729  0.2490 -0.0151
 6255W        W10455   2.993   9.923   2.237  0.1543 -0.1149 -0.0500
 6256W        W10456   4.034   1.323   1.514 -0.2496 -0.3353 -0.0356
 6257W        W10457   4.025   8.112   9.508  0.0449  0.0482  0.2997
 6258W        W10458   3.459   5.648   2.582  0.0254 -0.2108 -0.3225
 6259W        W10459   2.884   1.547   9.342  0.0361 -0.7532 -0.0743
 6260W        W10460   5.298   2.015  12.648 -0.2233 -0.1101  0.1131
 6261W        W10461   7.899   5.403   4.866  0.0563  0.2493 -0.0307
 6262W        W10462   3.615   1.398  10.854  0.0523 -0.0867 -0.2505
 6263W        W10463   8.404   1.843  13.284 -0.2640 -0.0083 -0.2497
 6264W        W10464   5.113   0.610  12.069  0.0381 -0.0678 -0.0141
 6265W        W10465   2.264   5.060   5.446 -0.1186 -0.0984  0.4901
 6266W        W10466   6.952   9.730   1.145  0.0465 -0.0258 -0.1513
 6267W        W10467   1.688   5.415  10.470  0.2097 -0.1949 -0.0853
 6268W        W10468   9.173   8.812   1.400 -0.0830  0.0231  0.0084
 6269W        W10469   1.888   6.708   0.606  0.0705  0.1249 -0.1376
 6270W        W10470   5.969   6.685   4.093  0.2998  0.0717  0.3817
 6271W        W10471   0.209   0.006  11.299  0.1918 -0.0530 -0.1968
 6272W        W10472   8.935   3.059   4.022  0.2371 -0.4319 -0.2153
 6273W        W10473   1.853   8.641  12.475  0.1058  0.2178 -0.1565
 6274W        W10474   5.038   3.783  10.931 -0.1990  0.2066  0.0913
 6275W        W10475   1.386   0.092   9.212 -0.1591  0.2081  0.1566
 6276W        W10476   6.688   5.892  13.413  0.0316  0.3559 -0.1552
 6277W        W10477   6.589   8.768   9.281 -0.0522 -0.4053  0.0046
 6278W        W10478   9.481   2.309   0.248 -0.0502 -0.0845  0.2270
 6279W        W10479  10.163   7.814   3.580 -0.1959 -0.5257 -0.2528
 6280W        W10480   0.937   3.307   3.674  0.0770  0.2351  0.0514
 6281W        W10481  10.486   9.753  11.564  0.0839  0.1111 -0.2064
 6282W        W10482   8.458   0.058   3.204 -0.1222  0.1881  0.2085
 6283W        W10483   6.002   3.681  10.669  0.0819  0.2757 -0.0267
 6284W        W10484   3.743   6.235  12.929 -0.0827 -0.1375 -0.0532
 6285W        W10485  10.353   0.953  11.355  0.2265  0.0037  0.0727
 6286W        W10486   5.062   4.524   2.880  0.2389 -0.1418 -0.1381
 6287W        W10487   9.228   0.482  11.923  0.0000  0.0647  0.4063
 6288W        W10488   1.207   1.075  11.731 -0.2748 -0.1566 -0.2225
 6289W        W10489   6.236   6.488  10.009 -0.1709 -0.0693 -0.0458
 6290W        W10490   8.545   9.716  12.541 -0.1427  0.1114 -0.0161
 6291W        W10491   0.208   8.405   3.059 -0.0871  0.0500 -0.3581
 6292W        W10492   5.283   6.394   1.008 -0.0557  0.2462 -0.0416
 6293W        W10493   4.724   9.466  13.377 -0.1163  0.0867 -0.3475
 6294W        W10494   7.626   6.673  11.564  0.2643  0.3863 -0.2484
 6295W        W10495   3.029   1.435   4.321  0.0886  0.1179 -0.1457
 6296W        W10496   2.545   4.216   9.864  0.0626  0.1459 -0.0810
 6297W        W10497  10.212   4.308   0.323  0.1885  0.3849 -0.0246
 6298W        W10498   3.349   5.311  12.262 -0.1111 -0.1032  0.2791
 6299W        W10499   1.068   7.480   0.012  0.0477 -0.0263 -0.0779
 6300W        W10500  10.224  10.348  11.096 -0.1597  0.0774  0.0514
 6301W        W10501   2.010   3.686   0.411  0.0471  0.0691  0.1380
 6302W        W10502   6.536   7.115   0.784 -0.1216  0.2688  0.2167
 6303W        W10503   8.570   5.057   3.821 -0.0399 -0.1940  0.4916
 6304W        W10504   2.698   3.686   4.458 -0.0068  0.2282 -0.0593
 6305W        W10505   1.403   6.814   0.373  0.0725 -0.0671  0.1502
 6306W        W10506   5.835  10.321   1.281  0.1182 -0.2830  0.1457
 6307W        W10507   7.956   7.400   8.566  0.0638 -0.0599  0.0160
 6308W        W10508   6.386   8.101   2.040  0.2241 -0.2562  0.0293
 6309W        W10509   9.694   6.255  12.021 -0.1445 -0.0862  0.0998
 6310W        W10510   5.239   9.696  12.528 -0.0181  0.1532  0.0243
 6311W        W10511   1.760   5.950  10.302  0.3011  0.1359  0.0341
 6312W        W10512   9.548  10.124   4.521 -0.0220  0.0720 -0.1322
 6313W        W10513   5.331  10.238   9.975 -0.1199 -0.2070 -0.1173
 6314W        W10514   9.991   7.512   9.865 -0.0479 -0.1619 -0.0293
 6315W        W10515   2.746   9.910   8.467 -0.0689  0.1793  0.5309
 6316W        W10516   5.389   4.333  12.075  0.1368  0.2193  0.2150
 6317W        W10517   5.139  10.480   3.960 -0.2672  0.3459  0.4112
 6318W        W10518   4.818   7.959  12.217  0.0808  0.0848  0.1202
 6319W        W10519   9.847  10.007   2.999  0.1828 -0.1539 -0.1286
 6320W        W10520   7.753   5.344   3.736  0.1956  0.0248  0.1662
 6321W        W10521   3.277   4.666   0.286 -0.0256 -0.0614 -0.0469
 6322W        W10522   1.155   1.538  11.734  0.0471 -0.0879 -0.1958
 6323W        W10523   5.308   0.236   3.504 -0.2262 -0.0014 -0.2143
 6324W        W10524   5.419  10.113  11.525 -0.2842  0.1510 -0.0961
 6325W        W10525   0.715   1.466  10.922 -0.1047 -0.0704 -0.2498
 6326W        W10526   7.283   5.941   1.706 -0.2720 -0.2019 -0.1448
 6327W        W10527   9.308   0.782   1.674  0.3414 -0.0323 -0.1290
 6328W        W10528   6.879   7.959  13.402  0.2056 -0.1407  0.0846
 6329W        W10529   3.526   5.580   9.817 -0.0369 -0.3551  0.0208
 6330W        W10530   4.853   0.785   0.521 -0.3180  0.0311  0.1186
 6331W        W10531   1.491   6.830   0.975 -0.3922 -0.4074  0.0627
 6332W        W10532  10.152   4.894   9.631  0.2304  0.1474 -0.2662
 6333W        W10533   7.741   3.624  10.060 -0.0977  0.0543  0.3914
 6334W        W10534   1.944   4.141  11.276  0.0777 -0.4125  0.0296
 6335W        W10535  10.292  10.070  10.502 -0.3065  0.0092  0.0803
 6336W        W10536   6.013   1.586   3.608 -0.0554 -0.2080 -0.2736
 6337W        W10537   4.956   2.442   3.554  0.0697  0.2080  0.0127
 6338W        W10538   6.749   3.544   0.093  0.2440  0.0172  0.0598
 6339W        W10539   8.249   8.891   2.450 -0.3890  0.0992  0.1601
 6340W        W10540   4.531   6.679   1.528  0.0488  0.0599 -0.0894
 6341W        W10541   8.914   1.898   3.933 -0.4001 -0.0552  0.1027
 6342W        W10542   4.764   0.799   4.389  0.0746 -0.1615  0.2190
 6343W        W10543   5.883   4.202  12.122  0.0449 -0.0334  0.0290
 6344W        W10544   2.052   9.599   1.822  0.1103  0.1716  0.1130
 6345W        W10545   8.725  10.397   3.708  0.0240  0.3763 -0.1301
 6346W        W10546   0.491   6.964   1.263 -0.2072  0.0872  0.4228
 6347W        W10547   9.500   2.765   1.055 -0.0483 -0.2401 -0.0770
 6348W        W10548   2.522  10.255   2.399  0.0727 -0.2592 -0.0840
 6349W        W10549   6.880   6.744   0.009 -0.1048  0.1858 -0.0659
 6350W        W10550   0.872   9.658   3.533  0.1107  0.1149  0.2933
 6351W        W10551   1.177   3.053   2.405 -0.3070 -0.0220 -0.0051
 6352W        W10552   5.304   7.399   3.854 -0.0868  0.1421 -0.0295
 6353W        W10553   5.980   6.739   1.504 -0.0318 -0.2643  0.0788
 6354W        W10554   6.598   4.633   1.665  0.0181 -0.0005  0.0905
 6355W        W10555   9.906   0.510   0.549  0.2592  0.0030 -0.1340
 6356W        W10556   0.127   6.287   1.882  0.1686 -0.1005  0.2821
 6357W        W10557   2.754   2.670   1.412 -0.1131 -0.0116 -0.0550
 6358W        W10558   9.583   6.737   2.919  0.3085 -0.0785 -0.2094
 6359W        W10559  10.384   8.054  10.757 -0.0522  0.2508 -0.1019
 6360W        W10560   6.449   7.981  13.063 -0.2761 -0.0961 -0.2732
 6361W        W10561   6.922   8.515  11.983  0.1166  0.1708  0.1407
 6362W        W10562   5.039   7.796   9.769 -0.1616 -0.0722 -0.0013
 6363W        W10563   5.359   0.174  12.943 -0.0613 -0.0558  0.2273
 6364W        W10564   8.153   6.643   1.324  0.0583  0.0181 -0.2012
 6365W        W10565   0.198   4.426   3.135  0.2254 -0.0627 -0.1013
 6366W        W10566   8.120   4.897   2.718  0.2209 -0.0692  0.1101
 6367W        W10567   4.018   6.154   3.867 -0.1891 -0.0605 -0.0760
 6368W        W10568   8.119  10.136   1.894 -0.3358  0.2491 -0.2125
 6369W        W10569   6.168   9.664  11.624 -0.2446  0.2279  0.3123
 6370W        W10570   3.322   4.890  13.245  0.5106 -0.0229  0.0881
 6371W        W10571   5.865   3.632   4.627 -0.3584  0.0187 -0.0158
 6372W        W10572   0.964   2.718   0.381 -0.4629  0.0356  0.3463
 6373W        W10573   3.451   6.404  11.072 -0.0254 -0.1368 -0.0969
 6374W        W10574   3.084   7.070   2.048  0.0495  0.2365  0.0754
 6375W        W10575   2.097   1.126   9.813  0.0256 -0.1750 -0.1303
 6376W        W10576   1.960   0.620   9.884 -0.1466  0.2745  0.0334
 6377W        W10577   2.294   9.488  12.608  0.0327  0.0439  0.0822
 6378W        W10578   8.335   6.184  12.838  0.3687  0.3053 -0.1042
 6379W        W10579   7.529   3.550   1.884  0.0107  0.0963  0.2513
 6380W        W10580   6.575   0.900  11.728  0.1703 -0.0405  0.0453
 6381W        W10581   6.619   3.496   9.862 -0.3568 -0.3418  0.1082
 6382W        W10582   5.255   1.698   2.428  0.0542  0.0065 -0.0632
 6383W        W10583   5.010  10.329   3.486  0.0474 -0.0927  0.2054
 6384W        W10584   9.484   7.146  11.747 -0.1576  0.2313 -0.1736
 6385W        W10585   8.028   7.468  10.965 -0.2999 -0.1313  0.1150
 6386W        W10586  10.144   9.768   2.019 -0.3140  0.0752 -0.3789
 6387W        W10587   5.504   0.801   2.844 -0.1943  0.2575 -0.1015
 6388W        W10588   0.740   2.331   0.189 -0.0119 -0.0062  0.1630
 6389W        W10589   2.344   2.297   1.505  0.1096  0.4002  0.0779
 6390W        W10590   3.300   4.054  11.265 -0.0041  0.0602  0.2051
 6391W        W10591   4.560   5.611   1.839  0.3008  0.1091  0.0008
 6392W        W10592   1.235   8.966   1.176 -0.0176 -0.1556 -0.0765
 6393W        W10593   7.516   1.185  11.133  0.0956  0.0484 -0.2679
 6394W        W10594   2.556   2.490   4.305 -0.1825  0.0326 -0.0814
 6395W        W10595   1.383   2.772  10.212 -0.0410 -0.3478 -0.0555
 6396W        W10596   0.273   7.480  10.180 -0.1483  0.1198 -0.0271
 6397W        W10597   0.899   5.312   5.049 -0.0368  0.0372  0.3138
 6398W        W10598   7.213   4.107  11.430 -0.2752 -0.0966  0.1241
 6399W        W10599   0.760   2.357  10.063 -0.0662  0.0476 -0.0573
 6400W        W10600   9.399  10.125   3.995 -0.0717  0.0633 -0.2099
 6401W        W10601   2.911   9.511   1.317 -0.0682 -0.3653 -0.0292
 6402W        W10602   6.908   9.616  11.953 -0.1822 -0.2099 -0.0948
 6403W        W10603   3.786   7.247   0.250  0.0341  0.1365  0.0330
 6404W        W10604   4.923   2.270  12.911  0.2350 -0.1477 -0.2114
 6405W        W10605   6.663   1.033   2.328 -0.1114  0.1900  0.0884
 6406W        W10606   6.131   4.613   2.542 -0.0093 -0.2075  0.1003
 6407W        W10607   0.207   3.508  10.791  0.0960  0.1614 -0.1752
 6408W        W10608   5.464   8.552   1.647 -0.2472  0.1350 -0.0578
 6409W        W10609   5.390   9.156   3.020  0.2532 -0.2394 -0.1165
 6410W        W10610   4.133   0.214  13.031 -0.1841  0.3674  0.0136
 6411W        W10611   9.115   6.874   1.638 -0.0886  0.4952 -0.1277
 6412W        W10612   5.941   2.573   0.917  0.0218  0.0441  0.0490
 6413W        W10613   7.424   7.734  10.616  0.0014 -0.1713 -0.2550
 6414W        W10614   5.980   5.213  11.020  0.4399  0.0268 -0.0111
 6415W        W10615   9.197   4.963   1.463 -0.0044  0.0543  0.1619
 6416W        W10616   1.858   8.867  10.360  0.1150 -0.0219 -0.1174
 6417W        W10617   9.465   6.324   4.566 -0.2408 -0.0844  0.0567
 6418W        W10618   6.054   0.123   2.811  0.1304  0.2368  0.0829
 6419W        W10619   1.517   6.964   4.277 -0.0329  0.1359  0.0216
 6420W        W10620   7.177   3.638  11.252 -0.1677  0.0449  0.2481
 6421W        W10621   1.478   5.354   0.334  0.1597  0.3263 -0.0453
 6422W        W10622   9.103   4.352   1.360 -0.2060 -0.1656  0.1328
 6423W        W10623   8.123   7.877  11.333  0.0915  0.2193 -0.0664
 6424W        W10624   9.023   5.483  11.948 -0.0424 -0.0719  0.5920
 6425W        W10625   2.116   0.431  13.310  0.0052 -0.1663 -0.2536
 6426W        W10626   0.236   2.929  12.048 -0.1838  0.0883 -0.2274
 6427W        W10627   0.563   9.361  12.000 -0.0713 -0.0029 -0.2037
 6428W        W10628   0.832   6.957   2.228 -0.0303  0.2214 -0.2683
 6429W        W10629   2.298   0.441  10.308 -0.1480 -0.0378  0.1135
 6430W        W10630   3.677   1.165  12.687 -0.1624 -0.0961  0.1115
 6431W        W10631   7.123   8.629  11.553 -0.2590 -0.0291 -0.1008
 6432W        W10632   2.804   6.035  12.628  0.2381  0.3041  0.2219
 6433W        W10633   8.392   0.894  11.983 -0.0769  0.1700  0.2999
 6434W        W10634   1.564   2.206   9.509  0.1310  0.0055 -0.1972
 6435W        W10635   5.358   5.180  10.543 -0.0677 -0.1950 -0.3877
 6436W        W10636   6.942   4.006   0.779  0.1118  0.2340 -0.1526
 6437W        W10637   1.223   1.924   2.424 -0.0834 -0.1016 -0.0899
 6438W        W10638   0.614   0.802   0.791  0.1658 -0.0873  0.2530
 6439W        W10639   8.670   3.574  12.990 -0.0302 -0.0384  0.3636
 6440W        W10640   3.014   2.082  10.742  0.1529  0.0690  0.0413
 6441W        W10641   3.410   0.482  10.919  0.0500 -0.2381  0.2962
 6442W        W10642   4.897   3.220   0.115 -0.0497  0.0934 -0.3925
 6443W        W10643   9.352   9.437  10.038 -0.1467  0.1391  0.2989
 6444W        W10644  10.124   3.636   3.265 -0.0148  0.0087 -0.0023
 6445W        W10645   1.513   9.178  10.164  0.0197  0.1969  0.0272
 6446W        W10646   3.613   3.598   2.313 -0.0687  0.0813 -0.2252
 6447W        W10647   8.563   2.602   0.599 -0.1567 -0.0815  0.1371
 6448W        W10648   6.646   1.515   1.719  0.3179 -0.0579 -0.1526
 6449W        W10649   0.938   9.442   2.503  0.2411 -0.0549  0.3985
 6450W        W10650   7.428  10.412   1.210  0.0566 -0.1515 -0.1597
 6451W        W10651   2.209   8.672  10.085 -0.0909  0.0136 -0.1276
 6452W        W10652   7.871   4.430   1.924 -0.2615 -0.1667 -0.1364
 6453W        W10653   3.194   2.735   2.602 -0.2585 -0.1660 -0.0740
 6454W        W10654   0.900   6.366  12.403  0.2945  0.0994  0.0785
 6455W        W10655   3.041   7.744  13.393 -0.0115  0.0497 -0.0196
 6456W        W10656   5.658   5.887   2.957  0.2679 -0.0467  0.1078
 6457W        W10657   5.818   8.927   1.619 -0.0418 -0.0889 -0.1238
 6458W        W10658   6.705   1.395   2.715  0.2728  0.1754 -0.0423
 6459W        W10659   6.268   0.130   4.402 -0.0475 -0.2198  0.2677
 6460W        W10660   9.227   9.944  10.251  0.2699  0.0371 -0.1730
 6461W        W10661   1.636   3.869   5.096  0.0617  0.2366 -0.4536
 6462W        W10662   1.741   3.996   9.383  0.1850 -0.0476  0.1402
 6463W        W10663   1.414   7.378   0.458 -0.5059 -0.1778 -0.1161
 6464W        W10664   4.475   4.317   1.688 -0.0463 -0.0164 -0.3213
 6465W        W10665   3.746   8.137  11.542  0.0619 -0.0997  0.1929
 6466W        W10666   7.745  10.170  12.531  0.0781  0.1907  0.0154
 6467W        W10667   1.414   4.818   0.416  0.3259  0.2667 -0.2078
 6468W        W10668   5.948   7.303   0.127 -0.0392 -0.0995 -0.0991
 6469W        W10669   5.253   4.904   9.563 -0.1694 -0.1078 -0.2619
 6470W        W10670   4.817   1.769  12.878 -0.0848  0.0639  0.1540
 6471W        W10671   3.905   1.375   2.026  0.1877 -0.1144 -0.1055
 6472W        W10672   8.798   0.034  10.327 -0.1828  0.1760 -0.0669
 6473W        W10673   2.290   3.021  12.924  0.1393 -0.3323 -0.1620
 6474W        W10674   2.843   5.013   9.916 -0.3273 -0.2787  0.2091
 6475W        W10675   5.679   9.706   9.344  0.1948 -0.1893 -0.1178
 6476W        W10676   8.869   3.307  13.372  0.0291  0.1760 -0.2242
 6477W        W10677   2.282   4.575   4.680  0.1926 -0.0796 -0.0364
 6478W        W10678   2.723   5.756  10.136  0.0043  0.2464 -0.2193
 6479W        W10679   3.471   9.382  11.116 -0.2688  0.0282 -0.0042
 6480W        W10680   0.615   0.333  12.778 -0.3839  0.1139  0.3756
 6481W        W10681   8.139   6.928   1.906  0.1561 -0.1654 -0.0398
 6482W        W10682   8.145   4.159   3.666  0.0194  0.0289 -0.0386
 6483W        W10683   3.947   7.468   9.252 -0.1508  0.1459 -0.1566
 6484W        W10684   2.357   8.636   1.704 -0.1072  0.1819  0.0260
 6485W        W10685   3.715   6.464  13.358  0.0429 -0.0800 -0.0158
 6486W        W10686   3.017   0.634  13.196 -0.0654 -0.0024 -0.0975
 6487W        W10687   1.224   6.424   9.009  0.0255 -0.1300  0.0914
 6488W        W10688   9.944   6.130  10.133 -0.0479 -0.1925 -0.2683
 6489W        W10689   7.135   7.342   1.758  0.2673  0.1019  0.1410
 6490W        W10690   5.679   0.128   2.086  0.1466  0.3984  0.1128
 6491W        W10691   6.003   4.966   2.190 -0.0980 -0.2589 -0.3341
 6492W        W10692   2.933   5.581   3.299 -0.3233  0.3170  0.2045
 6493W        W10693   5.497   8.651   9.535  0.1923 -0.2016  0.0788
 6494W        W10694   2.915   6.884   0.016  0.2726  0.1857 -0.2379
 6495W        W10695   4.962   3.419  10.236 -0.1530 -0.1102 -0.1803
 6496W        W10696   4.303   4.176   8.609  0.1466 -0.1442  0.3778
 6497W        W10697   6.957   2.809  11.293 -0.1988  0.0609 -0.3489
 6498W        W10698   6.765   0.689   0.469  0.2728 -0.4814  0.1590
 6499W        W10699   0.027   9.665  12.922  0.3213  0.1777 -0.0307
 6500W        W10700   3.484   0.507  12.186  0.2093  0.2055 -0.0311
 6501W        W10701   0.002   2.525   9.797 -0.0871  0.0028  0.0256
 6502W        W10702   1.400  10.300   2.925  0.2251  0.0526  0.4341
 6503W        W10703   9.819   1.967   0.172 -0.1695  0.0098  0.1153
 6504W        W10704   1.496   2.305  10.600 -0.0425 -0.1774 -0.1001
 6505W        W10705   4.975   7.990   4.285  0.1787 -0.0646  0.2411
 6506W        W10706   7.596   9.448   2.610  0.0731  0.1262  0.0476
 6507W        W10707   2.816   9.786   0.462 -0.2202 -0.1456  0.2144
 6508W        W10708   3.814   3.121  11.528 -0.0669  0.0107 -0.1751
 6509W        W10709   5.563   0.418   8.638  0.0484 -0.0269  0.1601
 6510W        W10710   7.049   8.670   3.672 -0.1630 -0.0617 -0.0014
 6511W        W10711   7.814   7.554  11.954 -0.0533  0.1834  0.1104
 6512W        W10712   4.920   8.811   3.229  0.1204  0.3652 -0.0449
 6513W        W10713   3.000   1.462   2.278  0.0588 -0.0975  0.0344
 6514W        W10714   7.548   8.928   3.903 -0.1035  0.1570 -0.0710
 6515W        W10715   7.051   8.092   1.210  0.1765 -0.2120  0.0886
 6516W        W10716   9.714   6.867  10.780 -0.0153  0.1560 -0.0362
 6517W        W10717   9.735   7.902   4.966  0.2337  0.1459 -0.1716
 6518W        W10718   4.946   8.194   3.837 -0.3511 -0.0192 -0.0077
 6519W        W10719   9.047   2.616   2.789 -0.2127 -0.4501  0.1896
 6520W        W10720   8.590   3.978   9.145 -0.1290 -0.0387  0.3097
 6521W        W10721   2.462   0.751   9.960 -0.0085 -0.1112  0.2532
 6522W        W10722   1.038   7.093   0.574 -0.0494  0.4006  0.0565
 6523W        W10723   3.899   8.841   3.242 -0.0504 -0.0630 -0.0005
 6524W        W10724   6.867   5.333   9.614  0.1922  0.2459 -0.2197
 6525W        W10725   4.607   7.722   9.989  0.0212 -0.1522  0.1659
 6526W        W10726   8.821   0.828   2.628 -0.1988  0.3880 -0.1575
 6527W        W10727   4.140   7.909   9.062 -0.1893 -0.0878  0.2973
 6528W        W10728   4.863   2.448  11.784  0.0728  0.0014  0.0409
 6529W        W10729   5.251   9.478   2.677  0.1425  0.0262 -0.2894
 6530W        W10730   5.731   7.124   9.877 -0.2537 -0.2623  0.2998
 6531W        W10731   3.555   8.313   9.522  0.0326  0.3088  0.0197
 6532W        W10732   6.242   3.642   8.740 -0.3444 -0.0863 -0.3205
 6533W        W10733  10.187   5.325  12.456  0.0315 -0.1482  0.1750
 6534W        W10734   0.301   9.153   9.442 -0.0883 -0.0492  0.0158
 6535W        W10735   7.223   6.793   2.967  0.1029  0.0435 -0.0022
 6536W        W10736   6.867   7.873   0.739  0.3217  0.0270  0.1433
 6537W        W10737  10.081   8.367  11.627  0.1312  0.0110  0.3182
 6538W        W10738   8.589   3.599   0.924 -0.1704 -0.3134  0.4048
 6539W        W10739   3.050   8.066   1.871  0.4013  0.2003 -0.0627
 6540W        W10740   9.451   8.102   2.853  0.3185  0.0726 -0.0490
 6541W        W10741   6.783   8.805   0.937 -0.2469  0.3839 -0.0839
 6542W        W10742   5.052   8.534  11.420 -0.1892 -0.0482 -0.1509
 6543W        W10743   7.874   8.038   3.520 -0.2842  0.2103 -0.4715
 6544W        W10744   1.914   6.284   4.643  0.1768  0.0822  0.1810
 6545W        W10745   5.522   7.147   4.266 -0.0212 -0.1488  0.0646
 6546W        W10746   6.740   5.337   2.341  0.1707 -0.2312  0.2853
 6547W        W10747   8.138   8.407   3.228 -0.2865  0.0087  0.0944
 6548W        W10748   4.986   9.999   1.133  0.1625 -0.0085  0.0570
 6549W        W10749   5.777   8.776   4.735 -0.3288  0.1388 -0.0981
 6550W        W10750   7.272   2.404   2.527  0.3108  0.1047  0.3591
 6551W        W10751   0.566   6.798  12.338  0.1442 -0.1601 -0.2599
 6552W        W10752   8.333   6.407   0.408 -0.1879  0.3121 -0.2020
 6553W        W10753   9.695  10.207   1.080  0.4257  0.0909  0.1105
 6554W        W10754   4.263   6.824  12.190  0.1720  0.2704 -0.0625
 6555W        W10755  10.444   5.244   9.231 -0.1508  0.3957 -0.0870
 6556W        W10756   6.734   1.879   0.408  0.0697  0.0925  0.1190
 6557W        W10757   8.160   9.349   9.167  0.1391  0.4009  0.2485
 6558W        W10758   3.469   6.665  10.619 -0.1579 -0.1703 -0.1847
 6559W        W10759   6.704   2.545   1.984  0.1147  0.0184  0.1297
 6560W        W10760   9.607   5.047  12.643 -0.3497  0.3319 -0.0723
 6561W        W10761   3.488   2.683  11.607 -0.0260 -0.0935 -0.0372
 6562W        W10762   9.905   6.390   9.382  0.1321  0.1334 -0.1552
 6563W        W10763   1.981   2.573   3.549  0.0372  0.3476  0.0039
 6564W        W10764   6.801   4.447   2.076 -0.1745  0.1348 -0.0619
 6565W        W10765   1.509   2.288   2.226  0.1043  0.2897  0.1564
 6566W        W10766   6.395   3.857  13.247  0.0418 -0.1874  0.1156
 6567W        W10767   4.467   0.595  12.947 -0.1540  0.2295 -0.1385
 6568W        W10768   1.390   8.511  12.690  0.2373 -0.0802  0.2913
 6569W        W10769   5.935   9.599   2.767 -0.3228  0.1961  0.2073
 6570W        W10770   4.506   0.171  12.583  0.1356 -0.0616 -0.0437
 6571W        W10771   3.651   8.552  13.170 -0.4829 -0.0622  0.0512
 6572W        W10772  10.122   0.047   0.420 -0.1647  0.2897 -0.4827
 6573W        W10773   1.623   7.952   3.808  0.1335  0.0149  0.2406
 6574W        W10774   3.047   0.132   0.541  0.3873 -0.3029  0.2083
 6575W        W10775   4.147   3.369  11.259 -0.0526  0.0304  0.2077
 6576W        W10776  10.467   2.132   3.316  0.1752  0.0097 -0.1859
 6577W        W10777   1.576   6.792  12.949  0.0898  0.0145 -0.2438
 6578W        W10778   7.115   8.841  12.661 -0.2185  0.2386  0.0272
 6579W        W10779   1.622   0.598   1.806  0.0283 -0.1881 -0.2047
 6580W        W10780   4.435   4.947   0.488  0.3040 -0.0254 -0.3331
 6581W        W10781   9.144   0.461  12.511  0.3446 -0.2242  0.1776
 6582W        W10782   4.155   5.432  12.626  0.0858  0.1569  0.2599
 6583W        W10783   9.928   4.928   2.806 -0.0141 -0.1871  0.0048
 6584W        W10784   2.514   9.053   3.726  0.0141 -0.0870 -0.2435
 6585W        W10785   3.476   5.385  11.208  0.1477 -0.1634  0.0072
 6586W        W10786   5.081   3.473   4.519 -0.0557 -0.1502  0.1115
 6587W        W10787   6.362   4.753  12.351 -0.2044  0.2606 -0.1867
 6588W        W10788   3.637   8.953  10.317 -0.4494 -0.0432 -0.4260
 6589W        W10789   3.341   3.898   3.377  0.4319  0.1501 -0.1097
 6590W        W10790   3.347   7.121   2.961 -0.0184 -0.3871 -0.0665
 6591W        W10791   1.211   7.489  11.159  0.1154 -0.1164  0.1147
 6592W        W10792   0.046  10.238  12.890  0.0797 -0.2716 -0.2509
 6593W        W10793   5.658   0.351   0.455 -0.1174  0.0742  0.2444
 6594W        W10794   4.888   7.353   1.742  0.2267  0.2624 -0.3329
 6595W        W10795   2.145   0.465   4.123  0.2774  0.2609 -0.1796
 6596W        W10796   0.605   2.098   3.317 -0.2534  0.5098  0.0209
 6597W        W10797   1.496   9.922   3.567 -0.0451 -0.0514 -0.2375
 6598W        W10798   7.672   0.046   2.018 -0.1614  0.0798 -0.1283
 6599W        W10799   7.707   2.753   9.982 -0.1994 -0.0779 -0.5041
 6600W        W10800   6.109   1.321   1.430  0.0076 -0.1892 -0.2499
 6601W        W10801   0.735   8.785   9.644 -0.0714  0.2277  0.1121
 6602W        W10802   1.143   8.762  11.009  0.1471 -0.1386  0.1297
 6603W        W10803  10.175   4.043   2.473  0.0150 -0.0907  0.0934
 6604W        W10804  10.006   4.115  11.907  0.1997  0.0318  0.2396
 6605W        W10805   4.742   8.014   9.337 -0.0114 -0.2255  0.0745
 6606W        W10806   8.210   5.495   3.732 -0.1856  0.0573  0.0916
 6607W        W10807   2.077   1.246  10.322 -0.2087  0.0895 -0.0211
 6608W        W10808   4.889   3.782  13.408 -0.1137  0.3409  0.2464
 6609W        W10809  10.153   1.023   0.547  0.2254 -0.1815 -0.1697
 6610W        W10810   0.295   8.491  12.117  0.0609  0.0083  0.1243
 6611W        W10811   7.322   9.584   0.606  0.0770  0.0566 -0.1939
 6612W        W10812   8.116   3.825  12.148 -0.0137 -0.1959  0.0410
 6613W        W10813   0.256   8.737  12.971  0.0108  0.2125  0.2482
 6614W        W10814   2.210   5.672  11.178  0.2420  0.0691 -0.2502
 6615W        W10815   1.662   0.914   9.392  0.0394 -0.1057 -0.0937
 6616W        W10816   8.905   9.061  11.223 -0.0659 -0.0605 -0.1216
 6617W        W10817   8.050   8.971   0.280  0.0533  0.0575 -0.0064
 6618W        W10818   4.256   1.730  10.280 -0.3436  0.1998  0.1127
 6619W        W10819   2.966   8.807   1.500 -0.2349 -0.3881 -0.0278
 6620W        W10820   0.395   3.486   3.527 -0.1334  0.0013 -0.0455
 6621W        W10821   2.159   0.611   4.968  0.0609 -0.0051  0.4006
 6622W        W10822   5.366   5.934   9.800 -0.0797 -0.0013  0.1155
 6623W        W10823   1.375   0.605  10.004 -0.0096  0.1109 -0.1050
 6624W        W10824   4.075   1.055   0.961  0.2899  0.1361  0.2109
 6625W        W10825   5.634   5.112   4.177  0.1694 -0.4613  0.1416
 6626W        W10826   7.819   7.756   9.828 -0.1902  0.1309  0.0134
 6627W        W10827   7.738   3.819   4.450  0.1877 -0.3080  0.3110
 6628W        W10828   1.704   2.319   2.744  0.0507  0.0618  0.1855
 6629W        W10829  10.436   0.630  13.166 -0.2798  0.3422  0.0132
 6630W        W10830   7.995   9.738  12.660  0.3067 -0.4014  0.0408
 6631W        W10831   3.313   5.750   4.481  0.1205 -0.0861 -0.3857
 6632W        W10832   0.908   5.465   1.861  0.0935 -0.2069 -0.1490
 6633W        W10833   4.237   6.112   1.770  0.1438 -0.0787  0.0320
 6634W        W10834   8.326   4.866   9.546  0.1070 -0.2817 -0.2752
 6635W        W10835   9.108   1.699  10.273 -0.1195  0.0351  0.0537
 6636W        W10836  10.312   7.747  10.214  0.0986 -0.1747  0.1357
 6637W        W10837   4.604   4.171   2.857  0.1107 -0.0459 -0.1048
 6638W        W10838   7.368   8.381   3.411  0.1233 -0.1055 -0.0547
 6639W        W10839   9.632   7.990   1.026  0.1529 -0.0727 -0.1235
 6640W        W10840   3.597   8.005   4.086 -0.0603  0.3127 -0.1181
 6641W        W10841   6.624   4.780   2.468 -0.0786  0.1178  0.1340
 6642W        W10842  10.127   2.366   1.894 -0.0091  0.2176  0.2131
 6643W        W10843   3.182   4.716   4.362  0.0118 -0.2209 -0.0623
 6644W        W10844   0.182   7.666   1.055  0.0671  0.3231 -0.0892
 6645W        W10845   3.163   2.965  10.745 -0.1744 -0.2770  0.0866
 6646W        W10846   7.549   2.069  12.922  0.2157  0.0621 -0.0316
 6647W        W10847   1.413   6.524  12.520  0.0181  0.1662 -0.0789
 6648W        W10848   4.717   5.264   4.892 -0.0447 -0.1531  0.0838
 6649W        W10849   5.999   6.278   9.580  0.1041  0.0330  0.0644
 6650W        W10850   3.200   6.040   8.228 -0.0450 -0.2888 -0.0794
 6651W        W10851   0.675   6.060   4.483 -0.1837 -0.1848 -0.0980
 6652W        W10852   4.622   2.074  12.531  0.1027 -0.0049  0.0824
 6653W        W10853   6.596   2.390   4.049 -0.0285 -0.0303 -0.0530
 6654W        W10854   5.459  10.123   2.157  0.5146 -0.0360 -0.3567
 6655W        W10855   2.899   6.422   3.900  0.0986  0.1244  0.0429
 6656W        W10856   1.432   9.059  10.734  0.2970 -0.4655  0.2006
 6657W        W10857   2.280   4.503  11.138 -0.1165  0.4105  0.3829
 6658W        W10858   2.661   1.871  10.303 -0.0707  0.4225 -0.1343
 6659W        W10859   9.892   9.006   2.728  0.0540 -0.0675 -0.1361
 6660W        W10860   6.640   6.186  12.136  0.0344  0.1078 -0.2349
 6661W        W10861   6.387   9.021   1.424 -0.0730  0.0689  0.1031
 6662W        W10862   1.298   7.440   8.090  0.2274 -0.2091 -0.1297
 6663W        W10863   9.591   5.829  13.315 -0.0819  0.1086 -0.0874
 6664W        W10864   0.781   0.662   0.002 -0.1631 -0.1047  0.1973
 6665W        W10865   8.630   8.624   3.092  0.1681  0.1422  0.0568
 6666W        W10866   3.820   4.788   2.488  0.0864 -0.1158 -0.0284
 6667W        W10867   2.040   8.362   8.930 -0.3447 -0.0501 -0.0790
 6668W        W10868   6.056   7.887   3.217 -0.1961  0.4670 -0.1927
 6669W        W10869   9.201   8.617   2.295  0.1190 -0.2106  0.1348
 6670W        W10870   2.539   3.782   9.459  0.2479  0.1144 -0.0728
 6671W        W10871   3.749   4.637   5.573  0.1277  0.1386  0.0342
 6672W        W10872   0.103   4.639   0.302 -0.0653  0.1818 -0.1035
 6673W        W10873   9.785   9.277   9.287 -0.0764  0.0091 -0.1858
 6674W        W10874   0.131   7.468  12.944  0.1196 -0.0622  0.1425
 6675W        W10875   7.464   0.840  10.198  0.3520  0.1756 -0.0204
 6676W        W10876   7.020   5.466  11.127 -0.0997 -0.0620 -0.2050
 6677W        W10877   9.527   2.203   3.743 -0.0184  0.0177  0.2102
 6678W        W10878   0.904   8.853  12.747 -0.1389  0.2811  0.2672
 6679W        W10879   6.410   3.189   9.022 -0.3956  0.0092  0.0861
 6680W        W10880   9.602   9.029  10.178 -0.0302  0.4518  0.2481
 6681W        W10881   8.157   7.835   1.591 -0.7113  0.1043 -0.1465
 6682W        W10882   4.735   0.114  10.962  0.2581  0.0616 -0.1224
 6683W        W10883   4.967  10.280  11.835  0.1331 -0.0803  0.0067
 6684W        W10884   6.462   8.426  12.214  0.0445  0.4486  0.0377
 6685W        W10885   6.759   2.554  12.622  0.1810  0.0643  0.0325
 6686W        W10886   3.643   5.380   2.236 -0.1364 -0.1932  0.2095
 6687W        W10887   4.376   3.285   1.267  0.1001 -0.0487  0.0278
 6688W        W10888   0.620   0.767   3.098  0.1403 -0.0484 -0.0417
 6689W        W10889   7.748   9.736  12.242  0.0150 -0.1667 -0.0286
 6690W        W10890   5.303   2.980  13.348  0.0644  0.2571  0.1505
 6691W        W10891   6.110   7.887  11.979  0.2102 -0.3093 -0.0299
 6692W        W10892   0.199   3.859  13.195  0.1840 -0.0618 -0.1039
 6693W        W10893   2.543   1.851   1.095  0.1686 -0.0775 -0.0164
 6694W        W10894   5.436   4.469   1.627  0.1528  0.0958  0.3954
 6695W        W10895   9.160   2.190   3.021 -0.1098  0.1655 -0.0098
 6696W        W10896   6.073  10.310  13.420  0.2874 -0.2119 -0.6323
 6697W        W10897   7.657   8.852  10.890 -0.3599  0.2061  0.1386
 6698W        W10898   3.942   4.498  11.669  0.2238 -0.2403  0.0716
 6699W        W10899   4.031   9.803  12.192  0.1468  0.2220  0.0225
 6700W        W10900   3.416   0.257   9.502  0.2938 -0.0564  0.2462
 6701W        W10901   0.456   0.623   2.058  0.3770 -0.3591 -0.0187
 6702W        W10902   2.187   2.470   2.059 -0.0372 -0.2604  0.2954
 6703W        W10903   1.718   5.851   1.931  0.2302  0.2543  0.1972
 6704W        W10904   2.623   5.853   2.640  0.1041  0.0397  0.2079
 6705W        W10905   9.550   1.297   3.573 -0.3416  0.0218 -0.0563
 6706W        W10906   7.137   7.366  10.408 -0.2253 -0.1123  0.1564
 6707W        W10907   2.282   6.906   2.114 -0.0947 -0.4643  0.1236
 6708W        W10908   6.756   0.989   1.752 -0.2015 -0.4027  0.2315
 6709W        W10909   0.575   4.922   5.064  0.1548 -0.1235  0.0494
 6710W        W10910   3.152   1.995  11.210 -0.1278 -0.0499  0.0171
 6711W        W10911   3.852   5.358   2.838  0.2347  0.3164 -0.0265
 6712W        W10912   5.407   9.890   4.351 -0.0485 -0.2349  0.0322
 6713W        W10913   6.178   1.992   3.914 -0.2628  0.1708  0.0627
 6714W        W10914   5.099   3.933   2.271 -0.0787  0.2815  0.1022
 6715W        W10915   7.184   6.460   0.337 -0.1229  0.3165 -0.2602
 6716W        W10916   7.078   8.249   3.969  0.0705 -0.1309 -0.0814
 6717W        W10917   0.474   7.301   3.088 -0.3276  0.1875 -0.1948
 6718W        W10918   5.746   5.367   0.044  0.1730  0.0770 -0.0131
 6719W        W10919   6.920   6.528   9.145  0.0525  0.1189  0.3586
 6720W        W10920   8.232   6.604  11.026  0.1639  0.3343  0.0028
 6721W        W10921   9.407   1.689   9.795  0.1544 -0.0921  0.2455
 6722W        W10922   6.601   6.177  10.914  0.1585  0.1179 -0.1746
 6723W        W10923   7.009   5.250   4.443 -0.2234 -0.0333  0.2734
 6724W        W10924   7.063   1.785   2.772  0.2952  0.1368 -0.0743
 6725W        W10925   0.647   9.931   1.793 -0.1649  0.0765  0.0455
 6726W        W10926   6.088   4.312  11.421  0.1343  0.0105  0.2088
 6727W        W10927   5.689   1.002  11.536  0.0239 -0.2872  0.2527
 6728W        W10928   1.827   2.440  11.295 -0.0680 -0.1451 -0.1944
 6729W        W10929   8.127   9.226   8.570  0.1412  0.0042  0.4161
 6730W        W10930   2.706   3.890  12.918  0.3022 -0.1988 -0.0235
 6731W        W10931   0.343   5.096   1.261 -0.0225 -0.0385  0.2807
 6732W        W10932   9.875   0.918   2.556  0.2249  0.1484 -0.1375
 6733W        W10933   5.331   0.782   0.197  0.0074  0.1222 -0.2013
 6734W        W10934   5.213   9.782  13.066 -0.0630 -0.1628 -0.2121
 6735W        W10935   6.293   1.556  11.947  0.1452  0.1350  0.1103
 6736W        W10936   2.604   3.807   3.979 -0.0016  0.1054 -0.1159
 6737W        W10937   0.085   5.729  13.210  0.1663 -0.3591  0.1443
 6738W        W10938   3.354   5.082   9.767 -0.0828  0.2871 -0.1390
 6739W        W10939   3.702   1.869   4.077  0.1683  0.1225 -0.1571
 6740W        W10940   8.690   4.127  12.070 -0.0215  0.0393  0.3056
 6741W        W10941   7.211   5.366   2.516 -0.1229 -0.0182  0.0907
 6742W        W10942   8.950   6.421   0.992  0.0631  0.1844  0.1303
 6743W        W10943   8.969   0.940  12.389 -0.0089  0.0136  0.2098
 6744W        W10944   0.267   7.258   4.993  0.2171 -0.1582 -0.2276
 6745W        W10945   2.880   4.130  10.346  0.3206 -0.0585 -0.3623
 6746W        W10946   4.738   4.033  12.695 -0.1904 -0.4203 -0.1583
 6747W        W10947   4.723   4.795  12.244  0.2478 -0.0038  0.1933
 6748W        W10948   8.457   7.070   1.498  0.3674  0.1805 -0.0799
 6749W        W10949   1.617   4.982   1.217  0.0605  0.0147 -0.1265
 6750W        W10950   9.258   2.266  12.476 -0.0348  0.3536 -0.3842
 6751W        W10951   1.698   2.856   8.866  0.0107 -0.1769  0.0797
 6752W        W10952   8.568   8.184   9.818 -0.1729 -0.1959  0.0411
 6753W        W10953   1.551   0.531  12.526  0.0099 -0.1996  0.2042
 6754W        W10954   6.217   1.610   9.852 -0.3729 -0.1518  0.0393
 6755W        W10955   2.240   6.617   4.504 -0.1984  0.0428 -0.2698
 6756W        W10956   0.927   7.041  12.748 -0.3653  0.2323 -0.2311
 6757W        W10957   0.739   4.890   9.769  0.2412 -0.0208  0.2563
 6758W        W10958   0.374   4.324   9.108  0.1117 -0.0256 -0.0680
 6759W        W10959  10.212   2.867  11.759  0.0220  0.3491  0.1847
 6760W        W10960   3.120   2.910   0.316 -0.2641 -0.1718  0.0745
 6761W        W10961   3.566   0.343  11.749 -0.2286  0.1392  0.0813
 6762W        W10962   2.325   0.142   4.511  0.0464  0.0330 -0.0029
 6763W        W10963   7.299   9.086   1.676  0.1897  0.2510  0.1451
 6764W        W10964   0.137   4.470  12.032  0.0100  0.1267  0.0555
 6765W        W10965   0.432   0.158   1.904 -0.0680  0.1378 -0.2437
 6766W        W10966   8.937   4.146   1.842  0.1766  0.0718 -0.1365
 6767W        W10967   3.122  10.147   0.657 -0.1180 -0.1943  0.1519
 6768W        W10968   7.190   1.250   2.982 -0.1325 -0.0865  0.0658
 6769W        W10969   2.993   3.356  12.002  0.0513  0.0952 -0.2248
 6770W        W10970   4.815   1.272  12.705  0.1760 -0.2160 -0.3723
 6771W        W10971   4.350   5.125  12.209  0.4139 -0.3081 -0.0011
 6772W        W10972   0.589   7.238   0.847  0.0576  0.0525  0.4542
 6773W        W10973   8.331   4.166   9.571 -0.4072  0.1540 -0.3635
 6774W        W10974   0.261   6.317  11.677  0.0428  0.1599 -0.0600
 6775W        W10975   5.617   2.542  11.157  0.1112  0.2707 -0.0721
 6776W        W10976   0.863   6.429   2.067 -0.2970 -0.1209 -0.1366
 6777W        W10977   9.398  10.227   1.519 -0.0412 -0.1951  0.2689
 6778W        W10978   6.561   7.561  13.362  0.0548 -0.4450 -0.0807
 6779W        W10979   8.187   5.766   2.215  0.1811 -0.1223  0.0369
 6780W        W10980   1.444   2.074  12.179  0.3943 -0.2402 -0.0165
 6781W        W10981   0.907   8.172   0.078  0.2238  0.2682  0.3303
 6782W        W10982   7.415   5.305   0.428  0.1090  0.0635 -0.0095
 6783W        W10983  10.106   7.126   4.576  0.0477 -0.0223  0.1043
 6784W        W10984   8.012   0.283   1.601 -0.0591  0.0241  0.0065
 6785W        W10985   8.875  10.372  13.180  0.0401 -0.1079  0.4467
 6786W        W10986   5.541   6.097   1.330  0.0480 -0.1889 -0.1579
 6787W        W10987   4.522   9.921  10.502  0.3870  0.3233  0.0720
 6788W        W10988   3.940   0.733  12.923 -0.2437 -0.0910  0.2040
 6789W        W10989   6.090   6.461   2.926  0.0151 -0.0962 -0.1431
 6790W        W10990   0.071   0.990   2.236  0.0382  0.6412 -0.1266
 6791W        W10991   6.500   4.414   2.753 -0.1200  0.1017 -0.1710
 6792W        W10992   9.014   6.723   2.184 -0.0112 -0.0058 -0.1748
 6793W        W10993   1.395   0.183   8.731  0.1255 -0.1082  0.0805
 6794W        W10994   4.245   5.378   4.096  0.0209  0.1498  0.3740
 6795W        W10995   5.158   2.048   2.026 -0.0137 -0.2682 -0.0423
 6796W        W10996   5.924   6.510   0.575  0.1849  0.1720 -0.2408
 6797W        W10997   6.877   9.347  10.960  0.0107  0.0783 -0.2326
 6798W        W10998   6.137   9.490   2.281 -0.3298 -0.1983  0.1632
 6799W        W10999   6.607   4.017  11.302  0.1038 -0.1704 -0.2479
 6800W        W11000   9.893   7.308  12.687  0.0641  0.0686 -0.1955
 6801W        W11001   4.141   7.011   2.860 -0.0733  0.2038 -0.2511
 6802W        W11002   0.233   7.399   0.049 -0.1107 -0.0419 -0.1803
 6803W        W11003   6.489   9.633  12.841 -0.1322 -0.2755  0.1114
 6804W        W11004   7.238   6.328  11.447  0.0842 -0.1967  0.0715
 6805W        W11005   2.661   5.455   9.611  0.3314  0.2644 -0.1593
 6806W        W11006   5.693   3.976  10.253 -0.0068  0.1557 -0.0317
 6807W        W11007  10.477   9.153  10.587 -0.0065 -0.1436  0.0225
 6808W        W11008   4.082   2.577   0.116 -0.5384 -0.0854  0.1364
 6809W        W11009   6.894   7.817   4.181  0.0243 -0.0055  0.2492
 6810W        W11010   2.305   9.287  11.094  0.4530  0.1069  0.3793
 6811W        W11011   4.355   8.003  12.003  0.3283  0.2494  0.2178
 6812W        W11012   9.964   6.596   3.214 -0.1085  0.1172 -0.2536
 6813W        W11013   7.188   2.708  12.850 -0.3060  0.2104 -0.0428
 6814W        W11014   8.494   8.060   1.252  0.2225  0.0989 -0.0810
 6815W        W11015   4.546   9.343  10.360 -0.0876 -0.1813  0.0819
 6816W        W11016   4.391   7.551   2.197 -0.0775 -0.0736  0.1871
 6817W        W11017   6.054   8.450  11.754  0.1647  0.0179 -0.0316
 6818W        W11018   8.945   8.577  13.401  0.1865  0.2319  0.0815
 6819W        W11019   0.353   3.447  11.992 -0.0107  0.1207 -0.1056
 6820W        W11020   8.209   5.707   3.228  0.0195  0.3402 -0.1565
 6821W        W11021   7.151   3.092   9.548 -0.1167  0.1069  0.0618
 6822W        W11022   7.499   9.657   0.010 -0.0311 -0.1691  0.1014
 6823W        W11023   9.117   0.677   1.032 -0.1295 -0.0469 -0.0432
 6824W        W11024   9.828   0.523   2.809  0.2174  0.0430 -0.0737
 6825W        W11025   9.108   4.212  10.366 -0.0951  0.0981  0.0209
 6826W        W11026   2.696   6.444   4.362 -0.2273  0.1210 -0.0125
 6827W        W11027   4.971   2.750   5.535  0.0358 -0.4086  0.3487
 6828W        W11028   1.575   0.047   9.805  0.1782 -0.1995  0.1823
 6829W        W11029   4.972   5.370   0.955  0.1116  0.0129 -0.0471
 6830W        W11030   5.594   5.970   4.618 -0.0142  0.3397 -0.2392
 6831W        W11031   6.051   4.958   3.358 -0.0962 -0.0563 -0.1643
 6832W        W11032   9.802   5.940   4.409  0.2637  0.1667  0.2576
 6833W        W11033   9.218   4.031  12.171  0.0220 -0.2009 -0.0922
 6834W        W11034   8.858   9.804  10.632 -0.2236  0.1594 -0.2210
 6835W        W11035   7.293  10.344  12.819  0.0319  0.0498 -0.0164
 6836W        W11036   5.092   1.167   0.328 -0.1877  0.0625 -0.1631
 6837W        W11037  10.420   8.851   1.665 -0.0876 -0.0165  0.0943
 6838W        W11038   4.504   8.048   1.842 -0.2444 -0.2086  0.0799
 6839W        W11039   6.148   1.189  11.653 -0.0712 -0.1312  0.0020
 6840W        W11040  10.387   7.414   0.456  0.1949  0.0150 -0.1196
 6841W        W11041   7.385   9.977   0.894 -0.0295  0.0141 -0.1538
 6842W        W11042   4.418   8.684   9.803 -0.1463 -0.1533 -0.1894
 6843W        W11043   3.014   4.310   5.030 -0.3094  0.1267  0.1640
 6844W        W11044   7.987   8.454  10.743 -0.1249 -0.1646 -0.0384
 6845W        W11045   6.426   8.164  10.052  0.0880  0.1258 -0.0992
 6846W        W11046   8.891   5.858   1.422  0.1412  0.1064  0.0382
 6847W        W11047   3.245   7.889   9.483  0.1719  0.0186  0.0177
 6848W        W11048   1.318   9.060   0.394  0.0207  0.3135  0.1688
 6849W        W11049   6.523   3.938  12.577  0.0483  0.1968 -0.1293
 6850W        W11050   2.012   7.910  13.196  0.0716  0.0131  0.2653
 6851W        W11051   4.494   1.355   8.982 -0.1033  0.1042 -0.2873
 6852W        W11052   4.329   4.252  11.314 -0.3128  0.1734  0.0867
 6853W        W11053   7.168   6.525   3.798 -0.1469 -0.0232  0.0315
 6854W        W11054   8.702   1.978  12.040 -0.0312 -0.1735 -0.4918
 6855W        W11055   5.473   9.365  11.061  0.2818  0.1526  0.0515
 6856W        W11056   7.674   5.736   0.681 -0.0102  0.1674 -0.3254
 6857W        W11057   6.695   4.281   3.188 -0.2351 -0.2180 -0.0748
 6858W        W11058  10.430   6.190  12.753  0.1375 -0.3063 -0.2827
 6859W        W11059  10.441   8.050   4.304  0.0897  0.2966  0.0064
 6860W        W11060   2.906   8.150  13.187  0.0949 -0.3725  0.2109
 6861W        W11061   6.821  10.276  10.246 -0.0150 -0.0414  0.0561
 6862W        W11062   5.914   3.886   2.887 -0.1442  0.0534  0.1620
 6863W        W11063   5.284   5.980   0.057  0.2389 -0.2005 -0.1808
 6864W        W11064  10.109   9.909   3.867 -0.2130  0.0447  0.0801
 6865W        W11065   2.531   9.795   2.663 -0.0013  0.0448 -0.0593
 6866W        W11066   0.920   8.655   1.538 -0.0025 -0.3046  0.1884
 6867W        W11067   3.265   3.763  10.394  0.0259 -0.1531  0.0425
 6868W        W11068   4.715   3.690  10.571 -0.0513 -0.2450  0.1329
 6869W        W11069   4.698   7.411  10.746  0.3515  0.0257  0.2502
 6870W        W11070   7.388   6.845  11.092  0.0688 -0.1996 -0.2714
 6871W        W11071   3.087   3.620   3.751 -0.0041 -0.2315 -0.0372
 6872W        W11072   2.632   2.889   1.941  0.1465  0.1333 -0.3116
 6873W        W11073   4.505   6.515   0.456  0.0821 -0.1897 -0.0121
 6874W        W11074   1.701   2.676   9.792  0.1114  0.1695 -0.2928
 6875W        W11075   6.109   0.360   8.890  0.0334 -0.1379 -0.0213
 6876W        W11076   6.403   9.846   1.857 -0.0534  0.0211 -0.0850
 6877W        W11077   2.995   3.737  12.560 -0.1062  0.1411  0.1512
 6878W        W11078   9.231  10.082  12.852  0.1752 -0.2257  0.1974
 6879W        W11079   1.217   1.779   4.640  0.0185 -0.1852  0.2948
 6880W        W11080   9.137   2.980   1.343 -0.1193  0.1178 -0.0265
 6881W        W11081   1.334   1.895   3.563  0.1226  0.1497  0.4122
 6882W        W11082   5.809   0.519   2.438  0.1039  0.0613  0.1026
 6883W        W11083   2.712   4.271  13.284  0.2617 -0.0843  0.2125
 6884W        W11084   0.808   3.802   3.490 -0.0979 -0.0604 -0.0487
 6885W        W11085   8.836   0.517   0.409  0.0738 -0.0891  0.0148
 6886W        W11086   2.687   5.437   4.213 -0.0288 -0.1958  0.4471
 6887W        W11087   2.939   0.011   8.241  0.0072  0.0522  0.0583
 6888W        W11088   3.429   7.431  10.066 -0.0692 -0.1019  0.2798
 6889W        W11089   1.358   1.463  12.546 -0.1027 -0.0911 -0.1709
 6890W        W11090   4.776   5.052  11.627  0.2901 -0.2632  0.0954
 6891W        W11091   5.265   2.868   1.539  0.1375  0.2743 -0.0952
 6892W        W11092   7.383   7.856   9.501 -0.1083  0.1822 -0.1639
 6893W        W11093   9.106   4.619   0.494  0.1438  0.0788  0.3914
 6894W        W11094  10.486   6.590   3.456  0.1610 -0.2417 -0.1238
 6895W        W11095   2.024   5.747   2.747  0.0944  0.1464  0.6613
 6896W        W11096  10.462   2.435   3.873 -0.1282  0.3120  0.1082
 6897W        W11097   0.704   1.443   1.602  0.0688 -0.1138  0.1719
 6898W        W11098   0.580   5.982   1.011  0.0357 -0.1166  0.4327
 6899W        W11099   0.180   7.026   3.604  0.1256  0.2998 -0.1451
 6900W        W11100   9.398   3.432  11.860 -0.1296  0.0825  0.0922
 6901W        W11101   0.252   5.589  10.912  0.2233 -0.0443 -0.4374
 6902W        W11102   2.038   9.694   4.427  0.0430 -0.0846  0.1728
 6903W        W11103  10.053   2.590  12.167  0.1517 -0.0315  0.1586
 6904W        W11104   7.662  10.432   0.370 -0.0576 -0.0804 -0.0743
 6905W        W11105   6.855   5.216   3.337 -0.1267  0.3648  0.0630
 6906W        W11106   0.738  10.402   9.955  0.2619  0.0523 -0.1116
 6907W        W11107   4.398   0.431   9.787 -0.0027  0.1201  0.2147
 6908W        W11108   8.218   4.360  12.032 -0.0300  0.0587 -0.0468
 6909W        W11109   8.761   7.554  12.588  0.2490 -0.2781  0.0943
 6910W        W11110   0.128   7.368   1.846 -0.2612  0.1081 -0.0258
 6911W        W11111   8.530   4.074   2.808 -0.0020 -0.0192  0.1542
 6912W        W11112   0.248   1.540   1.143 -0.0129  0.1537 -0.0287
 6913W        W11113   0.872   6.237   8.351 -0.1243  0.0292 -0.0927
 6914W        W11114   8.987   5.468  13.359  0.0968  0.2941  0.3746
 6915W        W11115   4.459   6.156  12.879  0.0595 -0.0872  0.1117
 6916W        W11116   0.782   0.236   2.254 -0.1841 -0.1074 -0.0834
 6917W        W11117   0.005   4.503  10.186  0.0670  0.0092 -0.0478
 6918W        W11118   3.114  10.038  11.687 -0.0281 -0.0873  0.0835
 6919W        W11119   0.345   9.881  13.159 -0.2853  0.2310  0.0912
 6920W        W11120   2.769   6.245   1.001  0.3935 -0.2535  0.1324
 6921W        W11121   0.952   7.444   9.022  0.1136  0.1103 -0.0300
 6922W        W11122   2.891   3.271   4.196 -0.1470  0.0725  0.3728
 6923W        W11123   0.428   6.069   9.190  0.0568  0.0870 -0.0046
 6924W        W11124   5.191   1.589   1.830 -0.0756 -0.3032  0.1958
 6925W        W11125   7.335   7.763  10.068  0.1975 -0.1584  0.1075
 6926W        W11126   6.308   2.244   0.491  0.2724 -0.1484 -0.1057
 6927W        W11127   6.871   2.065   3.688 -0.0368 -0.2936  0.1098
 6928W        W11128   8.401   7.467  10.496 -0.4259  0.1115  0.1056
 6929W        W11129   0.094   8.156   1.250 -0.0982  0.0836  0.1417
 6930W        W11130   7.899   7.164  10.494 -0.0373  0.1034 -0.1814
 6931W        W11131   0.153   4.861   9.796 -0.1487 -0.2402 -0.3954
 6932W        W11132   4.866   6.397  10.302  0.0675 -0.0367  0.0000
 6933W        W11133   4.048   5.707  12.215 -0.0281 -0.0832  0.3513
 6934W        W11134   2.993   5.753   5.187  0.1491 -0.0375  0.0231
 6935W        W11135   9.900   9.069   0.055  0.0835 -0.3275 -0.0176
 6936W        W11136   4.249  10.431   1.480 -0.1145  0.2160 -0.0487
 6937W        W11137   6.455   5.833   0.439 -0.1539  0.1420 -0.0119
 6938W        W11138   5.096   3.036  11.131 -0.0853 -0.0094 -0.0293
 6939W        W11139   8.559   2.993   3.011  0.2265  0.2269 -0.0070
 6940W        W11140   2.660   3.698   2.724 -0.1614  0.0006  0.0140
 6941W        W11141   6.382   5.538  11.985  0.0652  0.3214  0.0450
 6942W        W11142   1.158   5.912   3.787  0.2375  0.1503 -0.0981
 6943W        W11143   4.143   3.925  12.851 -0.0130  0.0343  0.2372
 6944W        W11144   8.501  10.140   9.103  0.0485 -0.0857 -0.2400
 6945W        W11145   0.167   3.346   1.527  0.2710  0.1753  0.0344
 6946W        W11146   3.271  10.344   3.699 -0.0083  0.0983  0.0463
 6947W        W11147   4.087   3.792  13.348  0.2707  0.2498  0.3450
 6948W        W11148   4.552  10.208   1.060  0.3348 -0.1447 -0.1467
 6949W        W11149   7.098   4.565   3.888 -0.1186 -0.2841  0.1880
 6950W        W11150   7.291   4.813   0.193 -0.2231  0.0471 -0.0598
 6951W        W11151   1.993   3.551  12.567 -0.2739  0.0697  0.0194
 6952W        W11152   5.819   3.113   2.379 -0.0019  0.3765  0.3749
 6953W        W11153   1.175   7.743   1.974 -0.1421 -0.0916  0.3080
 6954W        W11154   9.109   9.994   9.048  0.0499  0.1834  0.0549
 6955W        W11155   5.185   8.944   9.167  0.2313  0.0597 -0.2299
 6956W        W11156   6.885   3.277  12.045 -0.0440 -0.1610 -0.1097
 6957W        W11157   9.581   3.489   3.323 -0.3160 -0.3021  0.0708
 6958W        W11158   5.432   2.377  13.096 -0.0039  0.3164  0.0395
 6959W        W11159   8.197   3.535   3.617 -0.1189 -0.1226 -0.3306
 6960W        W11160   0.663   6.020   3.685  0.1347 -0.3126  0.2359
 6961W        W11161   2.879   4.338   4.080 -0.1334 -0.2742  0.1183
 6962W        W11162   1.123   1.392   3.735  0.0805 -0.2975  0.1947
 6963W        W11163   0.664   5.731   3.281 -0.3420 -0.0759  0.0781
 6964W        W11164   2.372   1.800   0.087 -0.3841  0.0938  0.2655
 6965W        W11165   8.717   7.818  11.467  0.3485 -0.0591  0.0858
 6966W        W11166   5.583   3.772  12.799  0.4132 -0.0729  0.1583
 6967W        W11167   9.929   2.385  11.616 -0.1106  0.1033 -0.0431
 6968W        W11168   3.477   0.704  11.388 -0.0598 -0.1149 -0.2384
 6969W        W11169   3.074   4.461  11.965 -0.0752  0.0092  0.1670
 6970W        W11170   3.503   3.434  12.052 -0.0515  0.2491 -0.2912
 6971W        W11171   3.655   6.130   9.753  0.2015 -0.2404 -0.1116
 6972W        W11172   2.672   2.363  12.612 -0.0953  0.2904  0.1015
 6973W        W11173   3.105   5.146   3.870 -0.0945 -0.0776 -0.2907
 6974W        W11174   9.316   5.769  12.417 -0.0104 -0.1042  0.0793
 6975W        W11175   4.163   5.176   9.998  0.0521  0.1458 -0.3955
 6976W        W11176   4.969   2.906   0.527  0.0975  0.3354  0.3338
 6977W        W11177   5.075   4.087  12.354  0.0596 -0.0147 -0.0154
 6978W        W11178   2.350   9.151   4.618 -0.3539  0.3863 -0.1564
 6979W        W11179   3.529   9.319   2.918  0.1200 -0.1802 -0.0671
 6980W        W11180   5.353  10.163  12.721 -0.0403 -0.3173  0.0958
 6981W        W11181   8.112   8.374   1.802  0.2144  0.0857  0.0457
 6982W        W11182   1.880   6.654   4.181  0.2778  0.0806 -0.1261
 6983W        W11183   7.999   9.303   2.918  0.2426 -0.0759  0.2229
 6984W        W11184   6.452   1.938   3.276  0.0263 -0.0640  0.2862
 6985W        W11185   9.115   3.655  10.604 -0.0607 -0.0062 -0.1778
 6986W        W11186   0.163   3.475  12.864 -0.0893 -0.1529  0.1573
 6987W        W11187   4.148   4.363   2.694  0.2571 -0.2250  0.1573
 6988W        W11188   2.660   2.461   0.908  0.0529  0.2110 -0.1231
 6989W        W11189   1.794   4.366   4.335  0.1179  0.0158 -0.0079
 6990W        W11190   4.212   1.422  12.816 -0.1221  0.1245 -0.1708
 6991W        W11191   9.059   7.722   3.508 -0.0101 -0.5555 -0.0591
 6992W        W11192   1.853   0.640  11.413 -0.0251 -0.1179  0.1853
 6993W        W11193   4.722   5.283  13.037 -0.2086 -0.1238 -0.0256
 6994W        W11194   7.386   5.699   3.731 -0.0207  0.0670  0.2824
 6995W        W11195   4.345   7.999  11.465  0.0255  0.0186  0.0284
 6996W        W11196   8.104   3.654   0.771 -0.1863  0.0963  0.1087
 6997W        W11197   8.683   8.200   0.100  0.0684  0.2129 -0.1683
 6998W        W11198   8.436   9.207  11.162 -0.0360 -0.0068  0.1092
 6999W        W11199   7.641   7.086   1.800  0.2071 -0.0093  0.1517
 7000W        W11200  10.390   6.478   2.403 -0.1708 -0.0696 -0.1842
 7001W        W11201   1.040   4.349   3.597  0.4427 -0.1047  0.1524
 7002W        W11202   2.756   4.033   1.113 -0.0777  0.0519  0.1561
 7003W        W11203   0.949   8.393   1.092  0.0146  0.1477  0.3142
 7004W        W11204   0.395   0.814   9.574 -0.1213  0.1054 -0.1690
 7005W        W11205   7.264   8.662   9.980  0.1409  0.2985  0.1018
 7006W        W11206   1.291   6.200  10.820 -0.4113  0.1333  0.1560
 7007W        W11207  10.081   8.407  12.469  0.3580  0.1138 -0.1890
 7008W        W11208   4.289   4.204  11.814 -0.1456  0.3702  0.0053
 7009W        W11209   6.927   5.402   2.909  0.1471 -0.0945 -0.0379
 7010W        W11210   2.338   0.619   1.100  0.2563  0.1954 -0.4342
 7011W        W11211   5.231   0.428  10.114 -0.2327  0.1663 -0.1588
 7012W        W11212   2.983  10.321  10.449  0.1275 -0.1979  0.1873
 7013W        W11213   6.115   5.175  12.215 -0.1227  0.1324  0.0847
 7014W        W11214   3.061   4.735   1.103 -0.0482  0.0278 -0.0356
 7015W        W11215   9.225   2.037   2.492  0.1033  0.0973  0.1202
 7016W        W11216   9.440   7.387   5.142  0.0691 -0.0061 -0.0860
 7017W        W11217   2.513   1.437   4.229 -0.1467 -0.1906  0.0493
 7018W        W11218   2.548   0.458   3.747 -0.1470 -0.0636  0.0719
 7019W        W11219   2.995   4.653   2.248 -0.2611 -0.2046  0.0244
 7020W        W11220   9.965   9.024  11.052 -0.0324  0.3689  0.2183
 7021W        W11221   4.440   6.721   0.953  0.0490 -0.1645 -0.1330
 7022W        W11222   8.782   7.775   8.516 -0.0885 -0.0599 -0.1556
 7023W        W11223   2.749   5.548   9.025  0.1087 -0.0441  0.2510
 7024W        W11224   3.246  10.211   1.847 -0.2280  0.1718  0.0106
 7025W        W11225   9.699   3.130   9.891  0.0615  0.0697  0.1826
 7026W        W11226   3.126  10.366  11.298  0.1728  0.2257 -0.1079
 7027W        W11227   3.432   4.815   0.741  0.0912 -0.0856 -0.0364
 7028W        W11228   5.773   5.237   3.134  0.3599 -0.1011 -0.1168
 7029W        W11229   0.973   7.298   3.325  0.0261 -0.0553 -0.0470
 7030W        W11230   7.110   4.848   2.446 -0.1408 -0.1051  0.0263
 7031W        W11231  10.440   5.756  11.812 -0.0464 -0.3691 -0.1704
 7032W        W11232   6.770   4.422  12.598  0.0404  0.1463 -0.1686
 7033W        W11233   4.521   6.941  11.536  0.0828 -0.2171  0.3715
 7034W        W11234   5.547   1.019  12.832 -0.1323 -0.0904 -0.2363
 7035W        W11235   2.212   1.899   1.925  0.2458  0.1138  0.0291
 7036W        W11236   0.771   9.539   4.335 -0.2346  0.0101 -0.1511
 7037W        W11237   9.864   3.614   3.732  0.4681 -0.0935  0.0020
 7038W        W11238   9.923   8.663   3.088 -0.2707 -0.0333 -0.2050
 7039W        W11239   2.668   1.424   0.802 -0.0533  0.2543 -0.2963
 7040W        W11240   7.112   1.225  12.077  0.0412 -0.2816 -0.2555
 7041W        W11241   5.201   9.985   0.656 -0.0015 -0.0666  0.0741
 7042W        W11242   6.734   6.076  10.386  0.0651  0.1511 -0.0572
 7043W        W11243  10.336   4.551   0.769 -0.0593 -0.1385 -0.2100
 7044W        W11244   1.251   4.320  12.317  0.3579 -0.1042  0.1973
 7045W        W11245   4.117   5.729   3.253 -0.1748 -0.2627 -0.1104
 7046W        W11246   9.208   7.675   9.294  0.1126  0.1611 -0.2567
 7047W        W11247  10.394   4.440   3.906 -0.0561  0.0493  0.3415
 7048W        W11248   9.244   9.772   4.328 -0.1197 -0.1306 -0.0471
 7049W        W11249   3.685   8.910  11.318 -0.2523 -0.0319  0.1974
 7050W        W11250   2.493   5.734  12.974 -0.2367  0.0317  0.1332
 7051W        W11251   5.675   1.603   9.909  0.0654 -0.0434 -0.1332
 7052W        W11252  10.414   0.213   1.174 -0.3335  0.0251 -0.1394
 7053W        W11253   6.345   8.959   2.368 -0.1164  0.1018  0.0934
 7054W        W11254   2.343   6.079  10.766 -0.3441 -0.3998  0.0218
 7055W        W11255   3.834   4.407   1.725  0.2726 -0.4486  0.0434
 7056W        W11256   8.208   7.435   9.558 -0.3256 -0.3209  0.0638
 7057W        W11257   5.116   7.178  10.625 -0.1982 -0.0170 -0.1147
 7058W        W11258   4.583   0.309   0.116 -0.1001 -0.3062  0.0006
 7059W        W11259   0.463   9.542   8.956 -0.1701 -0.0601 -0.0060
 7060W        W11260   7.017   6.806  12.537 -0.2007  0.0737 -0.0109
 7061W        W11261   0.962   6.931  11.066  0.0062  0.0590 -0.0698
 7062W        W11262   0.789   4.323   1.104 -0.0732  0.2064 -0.0629
 7063W        W11263   5.516   1.248   2.576  0.1467  0.3390  0.0479
 7064W        W11264   0.519   5.461  13.366  0.2101 -0.2958 -0.0915
 7065W        W11265   9.796   8.098   1.998  0.1256  0.2724  0.1788
 7066W        W11266   2.997   6.088   3.481 -0.1520 -0.1730  0.1793
 7067W        W11267   7.862   7.076  12.326 -0.0846 -0.2085 -0.2115
 7068W        W11268   1.343   9.680   2.256 -0.1832  0.1609  0.2906
 7069W        W11269   9.276   0.756   0.144 -0.0436  0.4440 -0.0475
 7070W        W11270  10.012  10.374   3.460  0.4390  0.1242 -0.1067
 7071W        W11271   6.026  10.301  12.145 -0.0747 -0.2192 -0.0124
 7072W        W11272   4.528   5.277   0.118 -0.0837  0.0681  0.0745
 7073W        W11273   5.311   8.887  13.078  0.0014 -0.1287 -0.0750
 7074W        W11274   8.280   5.170  12.226 -0.1220 -0.0177  0.1543
 7075W        W11275  10.098   8.592  10.831 -0.0153 -0.0431 -0.2176
 7076W        W11276   3.941  10.172   8.774 -0.2335 -0.1811 -0.0366
 7077W        W11277   1.016   0.211   2.985  0.0518 -0.0128  0.1204
 7078W        W11278   7.134   6.960  12.995  0.0564 -0.0508 -0.0511
 7079W        W11279   0.543   4.625   1.443 -0.0524 -0.0099  0.0351
 7080W        W11280   7.805   4.569   2.405 -0.1466 -0.2761 -0.0234
 7081W        W11281   9.144   2.598   3.299  0.0656 -0.0386 -0.2042
 7082W        W11282   1.931   2.723   5.553  0.1314 -0.2977 -0.0580
 7083W        W11283   0.970   4.027   2.950 -0.0160  0.3459 -0.1514
 7084W        W11284   7.389   4.661  11.102 -0.0017 -0.2041 -0.2825
 7085W        W11285   7.288   4.340  11.907 -0.1409  0.0671 -0.2104
 7086W        W11286   1.375   3.703  10.673 -0.1377  0.1566  0.0187
 7087W        W11287   1.519   0.216  11.160 -0.1012 -0.0408  0.0139
 7088W        W11288   5.094   7.094  12.470  0.0472  0.0521 -0.0442
 7089W        W11289   7.826   1.776   2.282 -0.0141 -0.0557 -0.1254
 7090W        W11290   6.597   7.859   3.136  0.0490  0.2614  0.1343
 7091W        W11291   1.142   3.064   3.226 -0.0052  0.1662 -0.2168
 7092W        W11292   5.417   9.445  12.113 -0.0407 -0.0920  0.1653
 7093W        W11293   8.354   2.671  10.803 -0.1242  0.2020 -0.2890
 7094W        W11294   3.445   1.027   3.020  0.2528  0.0332  0.1249
 7095W        W11295   7.027   4.555   0.822  0.0038 -0.0968  0.0810
 7096W        W11296   2.251   9.154   0.858  0.2166  0.1714 -0.1827
 7097W        W11297   3.661   2.846  10.560  0.0801  0.0863 -0.1009
 7098W        W11298  10.418   1.497   0.712 -0.3295  0.0048 -0.1382
 7099W        W11299   1.070   5.599  12.408  0.0831 -0.1209 -0.0472
 7100W        W11300   1.760   5.305  12.039  0.3142  0.2395  0.0665
 7101W        W11301   3.648   3.369  10.757  0.3609  0.1757 -0.2996
 7102W        W11302   8.405   2.468   1.001 -0.1321  0.0700  0.2062
 7103W        W11303   9.893   5.160  10.916  0.1463  0.1151 -0.2122
 7104W        W11304   0.792   5.483  10.711 -0.3357 -0.1732 -0.1590
 7105W        W11305   5.957   1.621   3.046 -0.0435  0.2164 -0.2199
 7106W        W11306   4.912   5.437  11.268  0.2437 -0.4942  0.0831
 7107W        W11307   8.970   3.768   2.803  0.0376 -0.4230 -0.0674
 7108W        W11308   6.053   4.362  12.554  0.2277 -0.2283  0.0643
 7109W        W11309   4.659   4.615  12.734 -0.0983 -0.1617 -0.3545
 7110W        W11310   7.541   6.519   4.699 -0.1386 -0.2918  0.1159
 7111W        W11311   0.197   1.748  10.365 -0.3727  0.0028  0.2163
 7112W        W11312   3.991   3.132  12.027  0.5498 -0.1386  0.2157
 7113W        W11313   6.094  10.446  10.690  0.2284  0.0933  0.0568
 7114W        W11314   9.988   2.401   2.979 -0.2107 -0.2498  0.1684
 7115W        W11315   9.071   7.590  12.110 -0.1621 -0.1542  0.1793
 7116W        W11316   6.313   4.540   2.080  0.4596 -0.0250  0.0306
 7117W        W11317   5.731   5.773   2.449  0.2517  0.0524  0.0221
 7118W        W11318   9.051   3.655   0.902  0.0274 -0.0335 -0.0857
 7119W        W11319   6.312   7.442   5.431  0.2626  0.0233 -0.2224
 7120W        W11320   2.302   9.356   2.543  0.0696  0.0263  0.1703
 7121W        W11321   9.428   7.028  12.411 -0.0567 -0.0660  0.1211
 7122W        W11322   4.286   9.814  11.729  0.0621  0.2820  0.2294
 7123W        W11323   9.020   1.006  11.168  0.1373 -0.2097 -0.1608
 7124W        W11324   0.106   7.780  11.857  0.0559 -0.1613 -0.1472
 7125W        W11325   2.339   9.025  11.990  0.0605 -0.1218  0.0624
 7126W        W11326   6.012   9.895   1.554  0.1018 -0.3225 -0.0073
 7127W        W11327   0.321   7.515  12.254 -0.2031 -0.2163 -0.0582
 7128W        W11328   6.547   4.984  11.390 -0.1256  0.1933 -0.2727
 7129W        W11329   4.130   7.566   8.273  0.1145 -0.2689  0.0476
 7130W        W11330   0.908   3.430   2.039  0.3987 -0.0774 -0.0509
 7131W        W11331   4.480   8.448  12.210 -0.1942  0.4529 -0.1427
 7132W        W11332  10.256   9.076   9.514 -0.1387  0.1338 -0.0810
 7133W        W11333   2.470  10.381  12.592  0.0585  0.2325  0.2134
 7134W        W11334   0.897   1.727  12.739 -0.0232  0.0724  0.1163
 7135W        W11335   4.110   1.262   0.009 -0.0016 -0.1668 -0.2098
 7136W        W11336   3.362   2.134   9.485  0.1025 -0.1278 -0.0300
 7137W        W11337   3.059   5.111   1.422 -0.1427  0.1014  0.0755
 7138W        W11338  10.325   6.183   3.161 -0.1018  0.2707 -0.0451
 7139W        W11339   9.759   9.464  10.746 -0.1583 -0.1249  0.3059
 7140W        W11340   2.740   8.005   0.256  0.2587 -0.1795  0.1677
 7141W        W11341   4.018   8.819  12.738  0.1365 -0.1602 -0.2735
 7142W        W11342   9.366   5.988   1.669  0.0976 -0.0980 -0.0339
 7143W        W11343   9.065   2.212  11.494  0.0600  0.0267 -0.1212
 7144W        W11344   2.960   7.028   9.025  0.0022  0.0207 -0.0011
 7145W        W11345   2.152   7.831  12.729 -0.0638 -0.2709 -0.0755
 7146W        W11346   4.063   9.390   3.060  0.0759  0.1364 -0.0615
 7147W        W11347   9.633   6.892  12.832 -0.1061  0.1537 -0.3142
 7148W        W11348   7.081   6.468  10.346  0.0980 -0.0422  0.3815
 7149W        W11349   7.022   5.819  10.785  0.4736 -0.1480 -0.1988
 7150W        W11350   8.058   5.018   3.845 -0.0913  0.2654 -0.1143
 7151W        W11351   0.547   3.993   2.594  0.1351 -0.2906  0.0204
 7152W        W11352   8.937   1.226   2.916  0.0120  0.1099 -0.0044
 7153W        W11353   9.737   5.178   0.581 -0.0514 -0.0609  0.1535
 7154W        W11354   3.778   4.147   9.671  0.4407 -0.3358 -0.2248
 7155W        W11355   3.109   2.983   9.352 -0.3585  0.1818 -0.3191
 7156W        W11356   5.846   8.099  10.543 -0.0923  0.2540 -0.2967
 7157W        W11357  10.484   7.055  12.298  0.1710  0.1315  0.1082
 7158W        W11358   2.854   7.907   1.170  0.3422 -0.3387  0.2975
 7159W        W11359   9.138   1.961  12.884  0.1056  0.1971 -0.4786
 7160W        W11360   7.634   9.162   5.324  0.0712  0.1880  0.0196
 7161W        W11361   7.664   3.444   0.908 -0.2075  0.4278  0.0074
 7162W        W11362   3.892   8.136   0.417 -0.0595 -0.2130  0.1160
 7163W        W11363   5.293   8.260   0.450 -0.1785 -0.1361  0.1379
 7164W        W11364   0.212   4.029   1.208 -0.0264  0.5788  0.2330
 7165W        W11365   4.165   3.107   3.539 -0.1951  0.2588  0.3056
 7166W        W11366   9.474   1.173   2.972  0.0160  0.3580  0.1977
 7167W        W11367   4.476   6.093  10.193 -0.0722  0.0091 -0.1830
 7168W        W11368   3.298   2.883   0.862 -0.1585  0.0317  0.0013
 7169W        W11369   4.080   3.502   4.950 -0.1962  0.1490 -0.3528
 7170W        W11370   2.643   0.455  10.766 -0.2042 -0.0631 -0.0579
 7171W        W11371   6.194   2.830   1.249 -0.0100  0.1599  0.2512
 7172W        W11372   7.428   6.420  10.754 -0.0876 -0.3080  0.0434
 7173W        W11373   7.350   2.572   1.118  0.1980 -0.1320  0.4653
 7174W        W11374   7.988   0.752  11.198  0.0548 -0.2306  0.1975
 7175W        W11375  10.096   9.639   9.556  0.2633  0.0279  0.1444
 7176W        W11376   4.835   4.981   4.209  0.2107 -0.0516  0.0628
 7177W        W11377   9.705   2.296   0.827  0.0191 -0.0569  0.2076
 7178W        W11378   1.681   8.066   1.153  0.2733  0.3235 -0.3925
 7179W        W11379   6.649   7.560  10.670  0.1402  0.2518  0.2477
 7180W        W11380   5.623   5.492   4.498 -0.2247 -0.0788 -0.2249
 7181W        W11381   9.808   6.825   1.003  0.0929  0.1143  0.0508
 7182W        W11382   2.888   7.324   4.328  0.0043  0.0942  0.0410
 7183W        W11383   7.841   7.223  12.869  0.0140 -0.3223  0.1822
 7184W        W11384   8.050   5.411   1.863 -0.2238 -0.2284  0.0210
 7185W        W11385   2.547   6.485   2.106  0.1317 -0.0242 -0.2994
 7186W        W11386   5.583   7.646  11.403 -0.2492  0.0829  0.4810
 7187W        W11387   3.190   7.301   0.115  0.3366  0.1017  0.1605
 7188W        W11388   1.549   2.567   3.789  0.2602  0.0358 -0.2568
 7189W        W11389  10.109   4.369   9.822  0.0568 -0.0449 -0.0305
 7190W        W11390   6.395   7.894   4.387 -0.0109 -0.0344  0.2226
 7191W        W11391   2.935  10.427   9.930 -0.0724 -0.0200 -0.3089
 7192W        W11392   1.546   8.312   9.568  0.3263 -0.0635  0.0403
 7193W        W11393   4.600   3.501   4.275  0.0639 -0.0959  0.0694
 7194W        W11394   8.837   7.577   1.037 -0.0421  0.0478 -0.2038
 7195W        W11395   8.604   9.727  11.233  0.0262  0.0483 -0.0628
 7196W        W11396  10.346  10.324   3.911 -0.0630  0.0085  0.0488
 7197W        W11397   2.425   5.206   9.238 -0.0345 -0.1509  0.0848
 7198W        W11398   1.538   7.916  12.988  0.1334  0.0814  0.2108
 7199W        W11399   1.600   6.644   2.846  0.2143 -0.0961  0.2592
 7200W        W11400   7.478   3.896   0.846  0.1272  0.0609 -0.2784
 7201W        W11401   7.994   1.349   2.578  0.2231 -0.2204  0.0696
 7202W        W11402   7.778   8.925   9.861 -0.0239  0.0279 -0.0362
 7203W        W11403   6.840   8.978   3.316  0.1246 -0.1349  0.0415
 7204W        W11404   3.182   9.492  11.594  0.2333 -0.2187 -0.0766
 7205W        W11405   6.017   9.440  12.969  0.3527 -0.3287 -0.2324
 7206W        W11406   8.164   2.670  12.406  0.3806  0.2588 -0.0750
 7207W        W11407   3.828   6.333   3.408  0.1357 -0.0468  0.0633
 7208W        W11408   7.423   5.253   0.963 -0.1071 -0.2457  0.0124
 7209W        W11409   6.441   1.611  12.454 -0.1566  0.2704 -0.0332
 7210W        W11410   1.040   6.888  12.310 -0.1734  0.0876  0.0115
 7211W        W11411   3.435   2.233   1.983 -0.1665 -0.0220 -0.1879
 7212W        W11412  10.409   7.011   5.262 -0.4784 -0.0805 -0.1248
 7213W        W11413   6.385   0.920   3.155  0.2823  0.1051  0.1361
 7214W        W11414   8.872   1.573   0.601  0.2857  0.1488  0.1310
 7215W        W11415   4.009   8.857  10.034  0.0317  0.0374  0.0116
 7216W        W11416   5.157   1.576  11.833  0.2611 -0.3323  0.2892
 7217W        W11417   4.776   2.663   3.976 -0.0383  0.3236  0.0631
 7218W        W11418   6.869   8.392  10.785  0.4828 -0.0218 -0.1551
 7219W        W11419   1.937   2.021  12.037  0.1977 -0.2360 -0.2443
 7220W        W11420   7.338   0.809  13.138 -0.0230 -0.2565 -0.0789
 7221W        W11421   0.590   3.338  13.156 -0.2805 -0.1470  0.0720
 7222W        W11422   3.057   1.634   1.246 -0.1421 -0.2097 -0.3122
 7223W        W11423   4.295   3.527   2.120 -0.2068 -0.0677 -0.1027
 7224W        W11424  10.479   8.733  10.320 -0.0845  0.1864  0.1130
 7225W        W11425   7.426   3.450   4.066 -0.1108 -0.2798 -0.0367
 7226W        W11426   1.540   6.347   2.208 -0.2204  0.0280  0.0017
 7227W        W11427   1.651   8.326   4.415 -0.0120 -0.1071  0.1436
 7228W        W11428   6.513   8.037   1.205 -0.0409 -0.0017  0.0851
 7229W        W11429   7.105   4.251   1.710  0.0985  0.2357  0.0018
 7230W        W11430   4.032   3.152   9.348  0.1103 -0.1301  0.1681
 7231W        W11431   5.996   1.731   4.301 -0.1339  0.0467 -0.1675
 7232W        W11432   6.047   5.095   8.951  0.2975 -0.1086  0.0115
 7233W        W11433   8.539   7.962   2.558  0.1220  0.0756  0.0977
 7234W        W11434   6.270   2.744   9.232  0.1732  0.1795 -0.0974
 7235W        W11435   6.337   9.871   3.469  0.2073 -0.1502 -0.0455
 7236W        W11436   5.006   8.349   8.998 -0.0200 -0.5797 -0.1207
 7237W        W11437   8.595   0.614   0.868  0.1027 -0.2213  0.1072
 7238W        W11438   3.118   9.422  10.756  0.0363 -0.1018 -0.1140
 7239W        W11439   5.815   5.043  11.810 -0.1239 -0.0322  0.2430
 7240W        W11440   8.124   3.209   1.089  0.1887  0.2307 -0.3202
 7241W        W11441   1.988   3.780  12.117  0.2325 -0.0661 -0.1232
 7242W        W11442   8.790   0.111   0.829 -0.1363 -0.0679  0.1407
 7243W        W11443   3.227   7.646   4.184  0.0064 -0.1070  0.1179
 7244W        W11444   7.484   2.253  10.018  0.1446  0.0399  0.0003
 7245W        W11445   1.678  10.420   1.850  0.0786  0.2178  0.3316
 7246W        W11446   4.184   0.912  11.969 -0.1713 -0.1130  0.0640
 7247W        W11447   6.119   6.022   2.644 -0.3722 -0.2215  0.1817
 7248W        W11448   1.725   1.700  12.291 -0.1054  0.2240  0.2681
 7249W        W11449   4.105   4.707  10.713 -0.4882  0.2484  0.2141
 7250W        W11450   1.157   3.453   1.516  0.2650  0.2886  0.0292
 7251W        W11451   4.001   8.276  12.854  0.0579  0.3535  0.0042
 7252W        W11452   3.274   6.067  10.140  0.3417 -0.3028  0.2789
 7253W        W11453   6.840   9.162   1.307  0.0255  0.0907  0.1853
 7254W        W11454   1.697   7.078   5.197 -0.0177 -0.2251  0.2140
 7255W        W11455   4.682   5.375   3.851 -0.1035  0.0821  0.1947
 7256W        W11456   5.815   3.350  10.217  0.0748  0.1611  0.2640
 7257W        W11457   1.284   1.442   0.316  0.0992 -0.2529 -0.0092
 7258W        W11458   7.844   9.986   1.180  0.2712  0.1789 -0.1168
 7259W        W11459   9.492   5.421   3.002 -0.0787  0.2035 -0.2067
 7260W        W11460   1.475   6.625   3.861 -0.1972  0.1592 -0.1361
 7261W        W11461   6.840   2.988   1.800  0.1093  0.1057  0.1906
 7262W        W11462   6.952   5.089   0.484 -0.1372  0.0515 -0.1769
 7263W        W11463   9.300   9.626  10.657  0.0894 -0.0330 -0.2331
 7264W        W11464   3.791   7.817   0.873 -0.0526 -0.0882  0.2271
 7265W        W11465   9.558   1.166   0.347 -0.1217  0.0751  0.0770
 7266W        W11466   3.637   1.707  12.563  0.1868  0.3294 -0.2155
 7267W        W11467   4.440   1.009   1.724  0.0152  0.0126  0.1359
 7268W        W11468   3.138   8.215  12.711  0.2976 -0.0472 -0.2158
 7269W        W11469   9.254   7.228  12.816  0.0074  0.0017 -0.2123
 7270W        W11470   3.185   1.408  10.071  0.1901  0.2497  0.2450
 7271W        W11471   2.091   7.464  13.370 -0.3697  0.0490  0.2270
 7272W        W11472   1.323   1.591   1.116  0.4385 -0.2464  0.0553
 7273W        W11473  10.126   1.873  10.291  0.4876  0.0970 -0.0257
 7274W        W11474   4.075   1.443   2.627  0.3346 -0.2270  0.1166
 7275W        W11475   6.600   2.939  12.210 -0.2527  0.1218 -0.1086
 7276W        W11476   8.807   5.584   2.499  0.0342 -0.0987  0.0704
 7277W        W11477   1.939   4.807  13.195 -0.0366  0.2104  0.0300
 7278W        W11478   9.460   4.266   4.408  0.0894 -0.3755  0.4453
 7279W        W11479   0.666   3.055   2.289 -0.0379 -0.1944  0.1243
 7280W        W11480   3.961   8.421  12.368  0.1352  0.1983  0.0007
 7281W        W11481   6.009   6.755  10.907 -0.0719  0.2286  0.2671
 7282W        W11482   7.787   5.750  10.827 -0.2376 -0.1402 -0.0416
 7283W        W11483   1.430   4.328   9.082  0.0439 -0.1608  0.4081
 7284W        W11484   7.019   9.840  10.148  0.1031  0.1216 -0.0492
 7285W        W11485   3.969   3.814   9.981  0.0075  0.3673  0.0165
 7286W        W11486   8.173   8.215  10.108 -0.0567  0.2460  0.0654
 7287W        W11487   9.809   8.574   2.314  0.1855 -0.1843 -0.1256
 7288W        W11488   9.479   7.627  10.023  0.0004 -0.2963 -0.0037
 7289W        W11489   9.674   7.293   1.074  0.1382 -0.1760  0.0379
 7290W        W11490   4.844   8.785   4.062 -0.3082 -0.0822  0.5134
 7291W        W11491   2.383   0.388  12.491  0.1987  0.0158 -0.2325
 7292W        W11492   8.760   0.571   1.938  0.2542 -0.3004 -0.0322
 7293W        W11493   4.519   8.860  11.246 -0.3213  0.1396 -0.0703
 7294W        W11494   0.086   5.465  12.802  0.0951  0.4085  0.0145
 7295W        W11495  10.399   8.383   0.387  0.0524 -0.0362  0.4292
 7296W        W11496   4.417   6.800   9.548 -0.1684  0.2058 -0.2759
 7297W        W11497   9.148   4.851   2.234  0.1631  0.1922 -0.1376
 7298W        W11498   7.070   2.253   2.036 -0.1702 -0.0058 -0.2942
 7299W        W11499   6.742   4.305   1.269  0.1800  0.0490 -0.3278
 7300W        W11500   0.347   4.359   4.279 -0.1320 -0.0883  0.1819
 7301W        W11501   8.392  10.413  12.939  0.2653 -0.3544  0.2933
 7302W        W11502   9.069   5.222   3.671 -0.0297 -0.0340  0.3704
 7303W        W11503   2.453   9.186  10.047 -0.2902 -0.0879  0.4868
 7304W        W11504   6.451   0.282  10.798  0.2744 -0.1145 -0.0834
 7305W        W11505   1.420   0.921   2.166 -0.2418 -0.3020 -0.0187
 7306W        W11506   8.555   3.074  11.246  0.0149  0.1380 -0.0609
 7307W        W11507   5.671   4.964   9.800 -0.1071  0.2866 -0.1196
 7308W        W11508   1.327   7.092   9.832  0.1243  0.0227  0.2353
 7309W        W11509   0.730   7.634  10.305  0.0107  0.1925  0.0166
 7310W        W11510   7.934   5.355  10.614  0.1347  0.0132  0.1184
 7311W        W11511   9.769   9.140   0.887 -0.0228  0.0523  0.0906
 7312W        W11512   1.678   2.312   0.922 -0.2046 -0.3319 -0.0675
 7313W        W11513   2.459   9.949   4.007 -0.2114  0.2375  0.1416
 7314W        W11514   5.718   9.221   4.144  0.0514 -0.4161 -0.1269
 7315W        W11515   3.052   5.464   9.955 -0.1475 -0.0723  0.0625
 7316W        W11516   5.202   8.454   9.953 -0.2421  0.1589 -0.1228
 7317W        W11517   4.856   4.644   0.669 -0.2267  0.1003 -0.0816
 7318W        W11518   1.476   5.051  10.251 -0.0214  0.3945 -0.1527
 7319W        W11519   6.397   4.826  10.928 -0.0870 -0.3182 -0.0494
 7320W        W11520   5.853   1.989   2.715  0.0607  0.0186  0.4064
 7321W        W11521   6.092   3.881   4.281  0.2192  0.2448 -0.1937
 7322W        W11522   2.434   7.022  11.939 -0.1831 -0.2039 -0.0808
 7323W        W11523   7.346   7.981  13.113  0.0624  0.0681  0.1502
 7324W        W11524   4.952   2.443   2.727 -0.1586 -0.0448  0.0675
 7325W        W11525   7.993   0.091  12.568 -0.2869 -0.2419 -0.2379
 7326W        W11526   2.850   7.553   2.533 -0.0541  0.1375 -0.1264
 7327W        W11527   7.502   5.744   2.840  0.2422  0.1233  0.0022
 7328W        W11528   4.101   2.745   2.334  0.0550  0.0015 -0.1029
 7329W        W11529   1.684   9.886   2.659  0.0670  0.2511  0.1054
 7330W        W11530   9.416   3.601   2.827  0.0858 -0.1375 -0.0706
 7331W        W11531   5.563   4.242  12.552  0.0925  0.2166  0.0357
 7332W        W11532   5.583   7.324   2.605  0.0984  0.1627 -0.3930
 7333W        W11533   5.932   4.754   4.408  0.1050 -0.3611  0.2576
 7334W        W11534   3.729   0.518  13.328  0.1324  0.0140 -0.0603
 7335W        W11535   2.732   5.585   0.052  0.1515  0.1973 -0.0598
 7336W        W11536   8.891   6.181   9.949  0.1545  0.1066  0.2023
 7337W        W11537   5.567   1.478  11.636  0.1584 -0.0430 -0.0231
 7338W        W11538   2.002   0.829  10.549  0.2516  0.1276  0.2355
 7339W        W11539   7.722   6.899   3.064 -0.0561 -0.2593 -0.2370
 7340W        W11540   0.412   8.558   3.584 -0.1544 -0.3056  0.1262
 7341W        W11541   3.153   8.613   9.632  0.3452 -0.1410  0.0215
 7342W        W11542   8.912   1.888   1.637 -0.1022 -0.0595 -0.1684
 7343W        W11543   5.235   9.151   4.050  0.2370 -0.0475 -0.2213
 7344W        W11544   1.989   2.134  13.374  0.0381  0.0072 -0.4427
 7345W        W11545   8.414   1.658  11.441 -0.1242 -0.1642 -0.1261
 7346W        W11546   8.568   5.038   9.175  0.1555  0.2770 -0.1183
 7347W        W11547   0.607   1.964  10.957  0.0035  0.1744 -0.1531
 7348W        W11548   1.862   8.632   1.429 -0.1380  0.3092  0.0426
 7349W        W11549  10.268   6.059   0.565  0.0379  0.2262 -0.3134
 7350W        W11550   5.556   1.147  13.353  0.0544 -0.0964 -0.1728
 7351W        W11551   0.010   0.238   2.829 -0.2691  0.0048 -0.3438
 7352W        W11552   7.690   0.969   0.800 -0.0283  0.0242 -0.1826
 7353W        W11553   6.065   6.234  10.856 -0.2460 -0.0435  0.0664
 7354W        W11554   0.677   3.621   3.975 -0.1700 -0.0687  0.3671
 7355W        W11555   3.297   9.503   2.187  0.0764  0.3609  0.2240
 7356W        W11556   7.141   0.544  12.142 -0.0735  0.2227 -0.1454
 7357W        W11557   9.083   6.448  11.213  0.2630 -0.0279 -0.0850
 7358W        W11558   0.142   5.574  12.233  0.0712  0.2285  0.0162
 7359W        W11559   1.644   7.523  10.839  0.1587 -0.1529 -0.1546
 7360W        W11560   6.068   8.863   4.083  0.3216 -0.0859 -0.0487
 7361W        W11561   5.049   0.911  13.083  0.0669 -0.1167  0.1270
 7362W        W11562   1.689   8.130   9.131  0.0242 -0.2465 -0.0953
 7363W        W11563   1.046   6.596   0.716 -0.1100  0.3008  0.1686
 7364W        W11564   2.197   3.766  10.628 -0.0148  0.0253  0.1387
 7365W        W11565   0.090   2.027   1.259 -0.2235 -0.1241 -0.2213
 7366W        W11566   9.976   4.654  12.818  0.0128  0.1123  0.2119
 7367W        W11567   0.746   4.716   3.305  0.0446 -0.0984 -0.2332
 7368W        W11568   7.204   0.965   8.924  0.0539  0.0442 -0.2754
 7369W        W11569   8.382   6.177   3.063 -0.3505 -0.0821 -0.0737
 7370W        W11570   1.716   3.987   3.952 -0.0803 -0.1530 -0.0290
 7371W        W11571   1.227   1.466   9.019  0.2734  0.0525  0.0301
 7372W        W11572   3.613   9.771  12.962 -0.0385  0.1430  0.0272
 7373W        W11573   4.127   1.553   0.941 -0.0885 -0.1649 -0.3300
 7374W        W11574   3.331   1.887   0.372  0.1368 -0.4155 -0.0134
 7375W        W11575   4.774   8.333   2.229 -0.2532 -0.2050  0.1610
 7376W        W11576   4.323   0.737   2.548 -0.0620  0.1979 -0.2052
 7377W        W11577   3.251   4.017  12.914 -0.2239 -0.2024 -0.0081
 7378W        W11578   7.976   2.980  11.125  0.0248 -0.1788  0.3532
 7379W        W11579   2.686   5.066   4.654  0.2620  0.1242 -0.3696
 7380W        W11580   2.937  10.133   9.029  0.0744  0.0498 -0.2966
 7381W        W11581   5.261   3.834   0.390 -0.4854  0.1595  0.1114
 7382W        W11582   1.730   3.532   1.753 -0.1008  0.1299 -0.2835
 7383W        W11583   8.787   6.685   1.340 -0.0384 -0.0509 -0.3397
 7384W        W11584   8.256   0.832   3.377 -0.2554 -0.0556  0.1142
 7385W        W11585   6.247   3.365   1.160 -0.0097  0.2580 -0.1218
 7386W        W11586   1.088   1.064   2.499 -0.0441 -0.0637 -0.0106
 7387W        W11587   9.231   3.207   1.928  0.1264 -0.0033  0.0234
 7388W        W11588   6.637   3.150  10.379  0.0131 -0.1321 -0.1521
 7389W        W11589   0.359   6.698   3.082  0.3190 -0.1474  0.3254
 7390W        W11590   4.674   5.869   4.699  0.0661  0.2531  0.0076
 7391W        W11591  10.280   7.111   4.077 -0.1476  0.2927  0.0414
 7392W        W11592   6.378   5.816  11.228  0.0502 -0.1200 -0.1731
 7393W        W11593   7.384   8.324   8.989 -0.0624  0.2867 -0.3265
 7394W        W11594   4.548   7.957   3.897 -0.0045  0.1952 -0.1890
 7395W        W11595   5.621   6.939  10.390 -0.0786 -0.1295  0.2468
 7396W        W11596   9.481   8.694   9.861  0.0324  0.1316  0.1050
 7397W        W11597   4.008   9.736   3.426  0.0047 -0.1457  0.0155
 7398W        W11598   5.119   3.064   5.053  0.2379 -0.0793 -0.0644
 7399W        W11599   5.137   4.784  11.392  0.0882 -0.1612  0.0959
 7400W        W11600   8.635   1.165   3.428 -0.1598  0.2770 -0.1183
 7401W        W11601   6.947   2.303   3.174  0.1067 -0.1572  0.0894
 7402W        W11602   2.057   0.335   9.511  0.0605 -0.0407  0.0723
 7403W        W11603   0.245   9.581  12.464 -0.0378  0.2877  0.0100
 7404W        W11604   5.135   3.634   3.405  0.2060 -0.0613 -0.0475
 7405W        W11605   3.696   6.465   9.291  0.0835 -0.0403  0.2994
 7406W        W11606   4.615   2.854   1.342  0.2166 -0.1351  0.2760
 7407W        W11607   6.472   6.573   5.288 -0.0191 -0.0790 -0.1089
 7408W        W11608   1.924   7.163  11.931 -0.1669  0.0234  0.0912
 7409W        W11609  10.354  10.005   4.331 -0.0812  0.1794 -0.2570
 7410W        W11610   9.289   7.102   2.057  0.0090  0.2178 -0.1675
 7411W        W11611   7.372   8.799   2.153  0.0863  0.0076 -0.2695
 7412W        W11612   1.255   5.597   0.704  0.3537 -0.4174  0.2775
 7413W        W11613   9.395   8.687  13.124 -0.2645  0.0857  0.2295
 7414W        W11614   7.940   7.821   4.025  0.0996  0.1990  0.0333
 7415W        W11615  10.414   1.518   2.179  0.0587 -0.0430  0.1912
 7416W        W11616   0.616  10.037   3.469  0.3176 -0.1559 -0.0100
 7417W        W11617   7.389   7.731  11.197  0.2525 -0.0161  0.3221
 7418W        W11618   3.790   2.247   3.157  0.2690  0.2696  0.0195
 7419W        W11619   4.915  10.382  12.681  0.1584  0.1222  0.0416
 7420W        W11620   1.488   9.026  12.370  0.1623  0.0840  0.1373
 7421W        W11621   1.943   4.449   3.724  0.2621  0.1165 -0.0807
 7422W        W11622   2.658   2.029  13.024  0.1476  0.0262 -0.1865
 7423W        W11623   9.144   6.329  13.363  0.0342 -0.4840  0.1945
 7424W        W11624   1.277   3.111   8.958  0.0726  0.2041 -0.4458
 7425W        W11625   3.078   3.538   9.407 -0.2185  0.0789  0.3206
 7426W        W11626   4.200   4.319  13.228  0.3603 -0.1080  0.4471
 7427W        W11627   3.945   9.037   4.187  0.0106 -0.2357 -0.1796
 7428W        W11628   4.775   0.764   0.024  0.3968  0.0620  0.0801
 7429W        W11629   2.299   8.847   1.229  0.2727 -0.1331  0.1999
 7430W        W11630   7.064   8.196   9.831 -0.4468 -0.0777 -0.1790
 7431W        W11631   8.297   9.105   3.675 -0.0356 -0.0544 -0.2893
 7432W        W11632   7.200   5.626  11.655 -0.1386 -0.2075 -0.0381
 7433W        W11633   1.126   9.197   4.418  0.0985 -0.1608  0.2917
 7434W        W11634   9.585   0.218  10.715 -0.0766 -0.0747  0.2478
 7435W        W11635   4.852   9.379   3.002  0.0385 -0.0994 -0.2661
 7436W        W11636   9.610   2.840   2.024  0.0958  0.0883  0.1095
 7437W        W11637   1.504   5.002  13.369 -0.0486  0.1354 -0.2098
 7438W        W11638   8.158   7.494  13.217  0.1000  0.0925 -0.0317
 7439W        W11639   7.157   0.076  11.917  0.0521 -0.1449 -0.0563
 7440W        W11640   9.227   4.234   0.807 -0.2915  0.0572  0.0272
 7441W        W11641   9.164   6.183   2.250 -0.1882  0.1072  0.3027
 7442W        W11642  10.355  10.384  10.038 -0.1138  0.1916  0.0034
 7443W        W11643   8.607   4.632   0.063 -0.0986 -0.0677  0.0195
 7444W        W11644   2.063  10.455   2.246 -0.1689 -0.0138 -0.1183
 7445W        W11645   6.507   6.310   1.894 -0.2488  0.1401 -0.0849
 7446W        W11646   1.895   7.970   8.501 -0.0264  0.0743 -0.2300
 7447W        W11647   8.102   2.330  11.693 -0.0456  0.1624 -0.1266
 7448W        W11648   6.323   3.358   2.588 -0.0081 -0.4519 -0.0175
 7449W        W11649   5.881   5.157  10.426 -0.2624  0.0928 -0.2189
 7450W        W11650   9.630   0.708  10.703  0.2061  0.1280  0.3035
 7451W        W11651   6.843   7.199   3.081 -0.4459  0.3988  0.1265
 7452W        W11652   9.545   0.324  12.291 -0.1763  0.1064  0.1065
 7453W        W11653   2.852   2.560  10.886 -0.0832  0.0835 -0.4138
 7454W        W11654   1.183   0.605  11.090 -0.4867  0.1606 -0.1860
 7455W        W11655   2.095   4.638  10.568 -0.7065 -0.3885 -0.0643
 7456W        W11656   6.859   4.750  10.411 -0.0742  0.0016  0.0137
 7457W        W11657   7.712   5.240  10.176  0.0804  0.0290  0.0754
 7458W        W11658   7.940   3.942   9.793  0.0724  0.2134 -0.2260
 7459W        W11659   3.901   6.131   0.710  0.0883  0.0587  0.0752
 7460W        W11660   4.041   7.721   0.123  0.1526  0.1635 -0.0498
 7461W        W11661   8.793   8.394  10.209  0.2412  0.1452 -0.2848
 7462W        W11662   2.666   5.344  11.069  0.1627 -0.4849 -0.2774
 7463W        W11663   5.951   9.701  10.293 -0.3275  0.0998 -0.0613
 7464W        W11664   2.715   1.999   9.004 -0.0007 -0.0878  0.0417
 7465W        W11665   9.420   5.045  10.722  0.1959 -0.0945 -0.1321
 7466W        W11666   9.998   5.445   4.580  0.0296  0.1617  0.0116
 7467W        W11667   9.589   9.863   2.145 -0.0434 -0.0577  0.1733
 7468W        W11668   5.257   3.352   0.566 -0.0886 -0.2522 -0.1093
 7469W        W11669   0.708   9.525   0.660  0.1023  0.0822 -0.0605
 7470W        W11670   8.108   7.611   2.551 -0.2641  0.3112 -0.3699
 7471W        W11671   2.884   7.570   1.529  0.4105  0.1549  0.0315
 7472W        W11672   1.906   8.295  11.116  0.2254 -0.0238 -0.2733
 7473W        W11673   3.521   7.686  11.574 -0.4109 -0.1017 -0.0919
 7474W        W11674   6.478  10.356   2.569  0.2132 -0.2272 -0.0765
 7475W        W11675   1.928  10.286  12.538  0.0410  0.1473  0.1155
 7476W        W11676   3.650   0.838  11.809  0.0475  0.0432  0.0669
 7477W        W11677   1.017   8.952  10.500 -0.1807  0.0695 -0.0782
 7478W        W11678   3.789   4.596  12.568 -0.2111 -0.0869  0.0004
 7479W        W11679   8.390   8.484  10.471  0.0532 -0.3555 -0.2702
 7480W        W11680   8.737   6.427   3.772 -0.0841  0.1885 -0.2969
 7481W        W11681  10.408   2.167  11.545 -0.1084 -0.1589 -0.0549
 7482W        W11682   5.599   8.178   0.068 -0.0317 -0.3564 -0.1533
 7483W        W11683   0.909   1.799   2.022 -0.0891  0.0190 -0.1899
 7484W        W11684   6.386   9.801   2.882  0.2447 -0.2064 -0.1483
 7485W        W11685   8.815   7.927  13.016  0.1562 -0.0522 -0.1164
 7486W        W11686   4.922   8.359  12.465 -0.1738  0.0197  0.0122
 7487W        W11687   4.425   4.029   9.052  0.1939  0.1091  0.3327
 7488W        W11688   4.391   5.530  11.855 -0.1066  0.0308  0.1014
 7489W        W11689   6.585   0.504   3.435  0.0001 -0.0903  0.2714
 7490W        W11690   6.954   8.009  11.616  0.1459  0.0432  0.2184
 7491W        W11691   2.562   2.552   3.454 -0.0433 -0.0480  0.0597
 7492W        W11692   2.770   1.010   9.155 -0.1760  0.0742 -0.0483
 7493W        W11693   5.770   3.414  12.523 -0.1630 -0.0281  0.1099
 7494W        W11694   4.318   2.428  12.705  0.2372 -0.2096  0.0313
 7495W        W11695   9.517   9.512   0.131  0.1423  0.0315  0.1152
 7496W        W11696   4.930   3.160   3.569 -0.1985 -0.0799  0.0545
 7497W        W11697   2.624   1.962   2.281 -0.0337  0.1053 -0.2365
 7498W        W11698   6.759   7.889  12.641  0.0566  0.0480 -0.2351
 7499W        W11699   5.358   2.515   1.970 -0.0733 -0.4778  0.0041
 7500W        W11700   5.816   8.362  12.711  0.0049  0.0997  0.1210
 7501W        W11701   5.436   1.280  10.538  0.2714  0.3597  0.0962
 7502W        W11702   1.915   1.938   8.701 -0.1122 -0.3045  0.1924
 7503W        W11703   0.974   3.540   8.967 -0.3119  0.2066  0.0002
 7504W        W11704   3.612   8.058   3.559 -0.0030 -0.1606 -0.0545
 7505W        W11705   4.212   1.990  12.262 -0.0806  0.1497 -0.0329
 7506W        W11706   0.019   0.415  12.260 -0.1284 -0.0690 -0.0936
 7507W        W11707   5.135   7.506   2.690  0.1377 -0.1175  0.2594
 7508W        W11708   4.073   7.853   1.927 -0.2194  0.1055 -0.2653
 7509W        W11709   0.804   0.419  10.284  0.0686 -0.2703 -0.3474
 7510W        W11710  10.113   9.449  13.147  0.1217  0.1279 -0.2277
 7511W        W11711   2.830   2.866  13.342 -0.0444 -0.0051 -0.0752
 7512W        W11712  10.068   5.420   1.307  0.2310  0.2477 -0.4242
 7513W        W11713   2.382   3.277   1.969 -0.2300 -0.0146 -0.0164
 7514W        W11714   2.965   5.410  11.983  0.2510 -0.1652  0.3465
 7515W        W11715   4.312   3.777  11.538 -0.0763  0.0065  0.0209
 7516W        W11716   4.119   6.876   0.070 -0.0830  0.2515  0.0028
 7517W        W11717   8.743   3.917   4.090  0.0745 -0.1009 -0.1771
 7518W        W11718   6.392   6.376   3.328  0.2902  0.1554 -0.2321
 7519W        W11719   8.108   5.956  11.116  0.0359  0.1551  0.2499
 7520W        W11720  10.332   5.107   0.431 -0.3154  0.1338 -0.4582
 7521W        W11721   2.584   7.642   4.832 -0.0620 -0.2120  0.0281
 7522W        W11722   9.843   6.766  11.530  0.0498 -0.0970 -0.0116
 7523W        W11723   5.301   9.266   0.014 -0.1222  0.0333  0.2790
 7524W        W11724   3.181   1.569  11.858 -0.1586 -0.2411  0.1300
 7525W        W11725   3.752   2.862   9.968  0.1976  0.1783 -0.1779
 7526W        W11726   0.143   6.956  11.402  0.3458 -0.4023 -0.1034
 7527W        W11727   1.165   1.100   9.292  0.5883  0.0682 -0.2349
 7528W        W11728   6.323   2.115   4.406  0.0046 -0.0380 -0.2083
 7529W        W11729   3.974   3.907   2.233 -0.1549 -0.0901 -0.1976
 7530W        W11730   9.046   1.311   3.872  0.2453 -0.1014 -0.3005
 7531W        W11731   5.319   8.105   1.464  0.0720 -0.0277  0.3260
 7532W        W11732   6.192   3.975  11.028  0.0162  0.1737  0.2127
 7533W        W11733   5.146   1.593  11.334  0.0790 -0.0293 -0.0804
 7534W        W11734   9.730   9.572  10.278 -0.1478  0.4972 -0.3162
 7535W        W11735   5.512   6.828   2.862  0.1742 -0.1264 -0.0380
 7536W        W11736   6.136   0.676   3.506 -0.0577  0.0077  0.2485
 7537W        W11737   3.138   7.784  12.906 -0.2959 -0.0770  0.0649
 7538W        W11738  10.085   4.773   4.155 -0.1494  0.4643 -0.1676
 7539W        W11739   8.062   6.373  12.431  0.2799  0.0295 -0.3631
 7540W        W11740  10.273   7.119  13.011  0.0312 -0.0477 -0.0005
 7541W        W11741   5.306   9.790  10.222 -0.1599 -0.0465  0.1980
 7542W        W11742   3.356  10.215  10.912  0.2146  0.0206  0.3866
 7543W        W11743   0.162   8.765   2.154 -0.2057  0.1916 -0.0604
 7544W        W11744   0.275   5.743   9.912  0.1038 -0.0204  0.1389
 7545W        W11745   1.591   2.913   3.365 -0.0062  0.1792  0.0158
 7546W        W11746   5.241   2.568   1.048 -0.1310 -0.2076 -0.0549
 7547W        W11747   1.794   1.173   2.433  0.1106 -0.0875  0.0454
 7548W        W11748   4.096   2.809  12.983 -0.0745  0.0534 -0.2412
 7549W        W11749   2.454   5.615   2.189 -0.0516 -0.0476  0.0633
 7550W        W11750   8.540   4.347   0.551  0.2171 -0.0484  0.1405
 7551W        W11751   4.695  10.232   3.910  0.1904  0.0676  0.2421
 7552W        W11752   9.322   0.382   2.113 -0.1644  0.2910  0.1691
 7553W        W11753   1.351   7.485   3.644 -0.2181 -0.0266 -0.2572
 7554W        W11754   7.032   7.360  10.947 -0.4006  0.3623 -0.1038
 7555W        W11755   8.058   8.319   4.146  0.2693  0.2433 -0.2658
 7556W        W11756   3.483   9.997   1.285 -0.2826 -0.0555  0.3434
 7557W        W11757   2.814  10.059  10.860 -0.1515 -0.0402  0.2741
 7558W        W11758   9.129   2.440  10.966 -0.1699 -0.1057  0.0440
 7559W        W11759   7.641   2.966   0.749  0.1400  0.1641  0.1536
 7560W        W11760   1.926   8.658   9.486 -0.6044  0.1512 -0.0328
 7561W        W11761   5.205   3.803  11.943 -0.0416 -0.0290  0.5434
 7562W        W11762   1.722   4.929  10.647  0.0654 -0.2155 -0.0177
 7563W        W11763  10.454   8.340   4.775  0.0113 -0.1830 -0.1967
 7564W        W11764   0.734   4.005  11.276  0.2133 -0.1395 -0.0659
 7565W        W11765   2.193   1.404   0.282  0.0428  0.1148 -0.1610
 7566W        W11766   4.521   5.562  10.852 -0.0531  0.2297 -0.3643
 7567W        W11767   1.442   5.078   4.006 -0.0739 -0.0174  0.0303
 7568W        W11768   6.130   9.478   3.269  0.1284  0.4756  0.0125
 7569W        W11769   7.686   9.200  11.637  0.1780  0.2817  0.0473
 7570W        W11770   1.008   1.542   9.511 -0.1358  0.1575  0.0229
 7571W        W11771   8.589   2.730   2.608 -0.0510  0.1290  0.0144
 7572W        W11772   6.140   6.518   2.429  0.1064 -0.0576 -0.0993
 7573W        W11773   3.679   9.709   9.028 -0.0850  0.1966  0.1896
 7574W        W11774   9.996   3.134  10.319 -0.1115  0.0698  0.1138
 7575W        W11775   2.929   6.838   9.465  0.1079 -0.0900  0.0087
 7576W        W11776   4.058   1.425  11.070  0.0826  0.0240  0.3391
 7577W        W11777   5.172   6.707  10.686 -0.0944 -0.2440  0.2206
 7578W        W11778   0.040   7.614   2.343 -0.0196 -0.2001 -0.1514
 7579W        W11779   7.906   2.058  10.255  0.1973 -0.3245  0.2118
 7580W        W11780   9.833   3.588  10.075 -0.2664  0.6062 -0.1761
 7581W        W11781   3.738   7.540   3.891 -0.1693  0.0443 -0.2091
 7582W        W11782   0.719   8.566   2.381 -0.2607 -0.1611 -0.2728
 7583W        W11783   8.610  10.044   1.717  0.2553  0.0674 -0.1573
 7584W        W11784   3.667   6.588   3.876  0.3205  0.1224  0.0535
 7585W        W11785   9.473   7.411   9.589 -0.0480  0.5418  0.1113
 7586W        W11786   4.599   3.512  12.699  0.0643 -0.6590 -0.1547
 7587W        W11787   2.054   8.195   1.889  0.1014  0.0895 -0.1598
 7588W        W11788   6.120   7.174   1.781  0.5224  0.5603  0.2704
 7589W        W11789   2.332   0.827   4.510  0.0155 -0.2343 -0.0468
 7590W        W11790   6.527   8.412  13.341  0.1866 -0.2251  0.1475
 7591W        W11791   7.467   3.222   9.931 -0.1867 -0.2582 -0.0687
 7592W        W11792   4.033   7.989   3.803 -0.1949  0.2594 -0.2391
 7593W        W11793  10.256   8.122   1.634 -0.2510 -0.1344 -0.0373
 7594W        W11794   5.518   9.008   8.656  0.1464 -0.1091  0.0676
 7595W        W11795   2.007   7.841  10.897 -0.0504 -0.3093  0.1808
 7596W        W11796   1.803   7.693   1.430  0.2034  0.1003 -0.2923
 7597W        W11797   3.508   5.709   0.234 -0.0210  0.1251 -0.1557
 7598W        W11798   9.805   4.370   3.016 -0.0025 -0.1143  0.2075
 7599W        W11799   6.480  10.456   0.939 -0.2009  0.0599  0.1840
 7600W        W11800   4.615   6.975   0.021  0.2872 -0.0017  0.0071
 7601W        W11801   3.933  10.095   9.277  0.2516 -0.0238  0.0677
 7602W        W11802   2.066   0.926   0.161 -0.1987 -0.1610 -0.0665
 7603W        W11803   0.885   2.193   1.609 -0.2826 -0.2030  0.1829
 7604W        W11804   4.276  10.374   3.475 -0.2878  0.1282 -0.1413
 7605W        W11805   9.255  10.032  11.986 -0.1469 -0.1888  0.1530
 7606W        W11806   0.993   1.787  12.219 -0.0854 -0.0641  0.1405
 7607W        W11807   5.677   0.353  12.227  0.0109  0.2283  0.0048
 7608W        W11808   6.106   5.624   1.650 -0.1194  0.2442  0.0256
 7609W        W11809   4.411   8.804   2.409 -0.0652 -0.2097  0.0670
 7610W        W11810   2.644   2.506  10.066 -0.0430  0.1202 -0.1155
 7611W        W11811   9.760   7.748  11.304  0.2056 -0.0037  0.0679
 7612W        W11812   2.989   4.308   2.702  0.0047  0.1660 -0.1234
 7613W        W11813   6.154   9.960  10.691  0.0389  0.3807  0.2517
 7614W        W11814   8.672   4.706  11.035  0.0719 -0.3374 -0.1167
 7615W        W11815   1.906  10.484   2.775  0.1709  0.3669 -0.3410
 7616W        W11816   4.522   1.515   1.684 -0.0944 -0.2083  0.1204
 7617W        W11817   0.468   8.108   9.094  0.3596 -0.0037  0.0961
 7618W        W11818   7.072   9.271   3.029  0.0814 -0.0808  0.2704
 7619W        W11819   9.245   6.962   1.123  0.0230  0.1940 -0.0552
 7620W        W11820   5.911   0.613   0.884  0.0219 -0.0440 -0.0172
 7621W        W11821   2.475   4.845  10.167 -0.1211 -0.1527 -0.1436
 7622W        W11822   5.482   5.902   3.614 -0.0039 -0.1339  0.1091
 7623W        W11823   1.663   0.449  13.142  0.0764 -0.0244  0.1811
 7624W        W11824   2.849   8.212  11.133 -0.2593  0.3001  0.4249
 7625W        W11825   4.786   9.393   1.371 -0.2166  0.1552  0.0451
 7626W        W11826   5.694   1.789  10.380  0.0680 -0.0256 -0.1915
 7627W        W11827   8.482   6.187   5.041  0.0920 -0.1169 -0.1256
 7628W        W11828   0.402   3.771   0.764 -0.0791 -0.2419 -0.1275
 7629W        W11829   3.899   9.675   0.422  0.0806 -0.1434  0.0634
 7630W        W11830   8.726  10.087   3.255 -0.1465 -0.3614 -0.1578
 7631W        W11831   7.024   0.966   0.077  0.2777  0.1519 -0.0991
 7632W        W11832   5.869   5.654  10.394  0.1113  0.1633  0.3882
 7633W        W11833   0.470   2.858   3.930  0.1260  0.0863  0.3743
 7634W        W11834   4.627   1.862  10.614  0.0204  0.1035  0.1406
 7635W        W11835   8.574  10.152   1.218  0.2548  0.0725 -0.1134
 7636W        W11836   2.976   3.282   8.995 -0.3141 -0.1900  0.1585
 7637W        W11837   8.806   0.349  12.869 -0.1022  0.3733  0.1452
 7638W        W11838   1.448   7.288   4.718  0.1617 -0.0697 -0.1771
 7639W        W11839  10.168   9.571  10.532 -0.1188  0.1409 -0.2177
 7640W        W11840   0.211   4.570   1.111 -0.2353  0.1979 -0.2054
 7641W        W11841   0.398   7.231   2.312 -0.0607 -0.1001  0.0327
 7642W        W11842   3.174   9.811  11.155 -0.1776 -0.3014  0.0470
 7643W        W11843   7.745   8.121  10.495  0.1623  0.0881 -0.2162
 7644W        W11844   5.139   1.660   3.254 -0.0987  0.3210 -0.0381
 7645W        W11845   4.035   5.720  12.978 -0.0065  0.0490 -0.0215
 7646W        W11846   1.465   4.144   3.511 -0.0106 -0.1169  0.1700
 7647W        W11847   1.896   2.588   9.357  0.0544 -0.0872  0.0947
 7648W        W11848   6.029   7.079  12.701 -0.2012 -0.1438  0.1968
 7649W        W11849   4.300   7.418  13.235  0.0684 -0.4134  0.1354
 7650W        W11850   3.123   9.226  12.693 -0.0918  0.1074  0.0156
 7651W        W11851   5.041   8.972   1.113  0.3531 -0.1094 -0.1491
 7652W        W11852   2.515   8.926  11.522  0.3408 -0.1587 -0.0655
 7653W        W11853   3.994   7.401   1.894 -0.1688  0.3444 -0.2632
 7654W        W11854   6.480   3.053  12.857 -0.1004 -0.2128  0.1676
 7655W        W11855   3.511   7.605  13.224  0.1432 -0.1271 -0.1382
 7656W        W11856   4.260   3.199   4.569 -0.1447 -0.1837 -0.1888
 7657W        W11857   0.987   4.879   4.630  0.0004 -0.0010  0.2785
 7658W        W11858   8.435   8.664  13.207  0.0212  0.1987  0.1006
 7659W        W11859   8.861   5.932   8.960 -0.1750  0.0478  0.2042
 7660W        W11860   3.438   5.035   3.525  0.0780  0.1782  0.1237
 7661W        W11861   6.917   3.795   3.261  0.1108  0.0360  0.1984
 7662W        W11862   9.694   2.204  12.075  0.4282  0.2410  0.1079
 7663W        W11863   4.030   4.191   4.287  0.0128 -0.1916 -0.0760
 7664W        W11864   4.850   0.613   1.769  0.1226 -0.0870  0.0179
 7665W        W11865   5.305   6.062   0.534  0.1909  0.0461 -0.2068
 7666W        W11866   5.479   3.416   1.553  0.1093  0.4630  0.0457
 7667W        W11867   2.571   7.178   0.829  0.2194 -0.2641 -0.1066
 7668W        W11868   5.885   1.384  10.696  0.2733  0.0809 -0.2176
 7669W        W11869   3.590   9.405  12.650  0.4682  0.2898  0.0788
 7670W        W11870   4.965   2.095  11.440  0.1594 -0.0776  0.1479
 7671W        W11871   4.471   2.497  13.253 -0.2290 -0.1753 -0.0904
 7672W        W11872  10.048   7.129  11.136 -0.0456  0.1766 -0.1316
 7673W        W11873   9.968   7.217   1.657 -0.1240 -0.1454  0.0105
 7674W        W11874   9.845   0.983   3.218 -0.1214  0.0101  0.2096
 7675W        W11875   8.152   8.978   9.549  0.4492  0.2200  0.2140
 7676W        W11876   8.793   8.345   2.283 -0.0826  0.1331  0.0413
 7677W        W11877   3.202   6.045  11.335 -0.3701  0.0103 -0.0840
 7678W        W11878   1.709   9.195   1.078 -0.0817 -0.0860 -0.1334
 7679W        W11879   8.067   2.475   1.933 -0.3039  0.0161  0.0367
 7680W        W11880   2.225   1.254   0.763 -0.1792 -0.2918 -0.2651
 7681W        W11881   2.073   4.547  12.729  0.1934  0.1707 -0.0724
 7682W        W11882   3.216   0.886  10.057 -0.1386 -0.0573  0.1766
 7683W        W11883   8.650   5.302   3.388 -0.1400  0.1216  0.0169
 7684W        W11884   6.833   9.699   0.652 -0.5420 -0.0969  0.3119
 7685W        W11885   8.521   4.243  11.303  0.2163  0.1094 -0.2761
 7686W        W11886   5.804   3.275  13.265  0.2579  0.1202  0.3807
 7687W        W11887   6.878   2.416  11.583 -0.0035 -0.2073 -0.1192
 7688W        W11888   6.697   0.212   0.457  0.3624  0.0562 -0.0949
 7689W        W11889   6.919   0.382   0.914  0.0774  0.0992  0.1601
 7690W        W11890   8.421   4.184   1.991  0.0889  0.2438  0.0202
 7691W        W11891   6.646   9.793  10.921 -0.1741  0.1431 -0.1663
 7692W        W11892   5.535   0.003   2.546 -0.2124  0.0849 -0.2120
 7693W        W11893   4.472   0.774   0.952 -0.0926 -0.0625 -0.3202
 7694W        W11894   5.891   1.852  11.747  0.0525 -0.0962  0.0638
 7695W        W11895   1.982   8.576   2.559 -0.2460  0.1904  0.1827
 7696W        W11896   8.712   9.429  12.172  0.0287 -0.0140  0.2381
 7697W        W11897   4.921   0.802   2.590 -0.0401  0.2578 -0.3065
 7698W        W11898   6.321   0.831   2.672 -0.1829  0.4101  0.2870
 7699W        W11899   9.046   0.520  11.471  0.1709  0.2895 -0.0917
 7700W        W11900   5.138   3.225  12.145  0.1049  0.0191  0.0522
 7701W        W11901   3.354   8.176  13.377  0.1627 -0.3284  0.2893
 7702W        W11902   2.219   3.072   9.096 -0.1636 -0.2235 -0.1627
 7703W        W11903  10.265   0.492  11.791  0.0880  0.0906 -0.1759
 7704W        W11904   4.300   9.954   3.769 -0.1856 -0.0745  0.2921
 7705W        W11905   7.356   9.951   3.408  0.0602 -0.0358  0.3434
 7706W        W11906   2.219   2.389   2.605  0.1905  0.2151  0.3869
 7707W        W11907   6.798   7.701   2.012  0.0984 -0.2461 -0.1020
 7708W        W11908   5.603   0.152  11.287  0.1063 -0.1915 -0.0134
 7709W        W11909   4.035   8.602  10.459 -0.0986  0.1028  0.0193
 7710W        W11910   3.993   0.985   9.576  0.1039 -0.2585 -0.0799
 7711W        W11911   5.457   7.628   4.397  0.1482 -0.0300 -0.1306
 7712W        W11912   5.914   8.402   9.506  0.0615 -0.4018  0.0276
 7713W        W11913   4.008   2.897   1.355 -0.2376  0.1018  0.2138
 7714W        W11914   5.188   8.249   3.392 -0.2365 -0.1137 -0.1740
 7715W        W11915   4.001   6.109   1.261 -0.0286 -0.1186 -0.1003
 7716W        W11916   7.369   5.258   4.077  0.0258  0.0884  0.3231
 7717W        W11917   3.127   0.608   9.362  0.1588 -0.3696  0.3027
 7718W        W11918   3.286   4.705   1.626 -0.1624  0.0697  0.1290
 7719W        W11919   3.447   2.008  11.672  0.0248  0.0585  0.0187
 7720W        W11920   1.466   9.356   2.617 -0.2550  0.0794 -0.3107
 7721W        W11921   8.928   3.422   1.313  0.3115 -0.0692  0.2333
 7722W        W11922   9.980   1.611   9.792  0.0383  0.2828 -0.2042
 7723W        W11923   1.309   7.785   2.708  0.2146  0.2084 -0.0079
 7724W        W11924   9.932   7.375   2.339 -0.2758 -0.5274  0.0324
 7725W        W11925   7.851   5.307   4.238  0.3003  0.1838  0.1703
 7726W        W11926   8.837   6.775   8.991 -0.0042 -0.0501  0.2891
 7727W        W11927   6.424   4.255  12.219  0.2961  0.1031  0.2876
 7728W        W11928  10.152   3.380  10.760  0.2983 -0.2532 -0.2956
 7729W        W11929   3.759   5.920   1.665  0.0396 -0.0719  0.1174
 7730W        W11930   9.224   6.288   3.632  0.1354 -0.0697  0.3331
 7731W        W11931   0.584   6.726  11.446  0.1339  0.0101  0.0064
 7732W        W11932   0.407   8.123   4.574 -0.1716  0.3991 -0.1472
 7733W        W11933   3.646   9.327  11.625 -0.0899  0.0968  0.1025
 7734W        W11934   0.638   6.988   4.795  0.0271 -0.2301  0.1536
 7735W        W11935   0.155   4.868   4.061  0.3595 -0.0538 -0.1873
 7736W        W11936   8.938   8.949   0.456  0.0563  0.0196 -0.2326
 7737W        W11937   1.904   4.165   1.591 -0.0284 -0.1532 -0.3932
 7738W        W11938   5.573   8.567  11.731  0.2076  0.0170 -0.1758
 7739W        W11939   3.299   9.689   9.711 -0.3267 -0.0368 -0.1160
 7740W        W11940   7.632   0.390   0.729 -0.0047  0.2671  0.1624
 7741W        W11941   5.062   2.142   3.160 -0.4389 -0.1656  0.2246
 7742W        W11942   7.200  10.073  13.290 -0.6877 -0.2749 -0.1964
 7743W        W11943   1.217   0.682   0.949 -0.1445 -0.3695 -0.2090
 7744W        W11944   0.650   0.010  11.611 -0.1569  0.2805  0.0638
 7745W        W11945   6.682   7.569  12.294  0.1288 -0.0071 -0.0548
 7746W        W11946   5.437   5.420  12.081  0.0666  0.1218  0.2024
 7747W        W11947   1.650   1.502   3.225  0.2567  0.0333 -0.0413
 7748W        W11948   9.561   1.006  12.884 -0.3065 -0.0319 -0.1735
 7749W        W11949   0.612   4.219   3.338  0.2103  0.0348  0.0567
 7750W        W11950   8.327   1.742   2.554  0.1225  0.0610 -0.0757
 7751W        W11951   2.685   2.921   9.779  0.0457  0.0588  0.0001
 7752W        W11952   7.551  10.430  11.620  0.2806  0.0660 -0.0375
 7753W        W11953   9.067   2.135   3.479 -0.0538  0.2731 -0.4110
 7754W        W11954   6.925   3.999   0.078  0.0915  0.3745 -0.2743
 7755W        W11955   2.053   3.527  10.142  0.2823 -0.1297  0.1672
 7756W        W11956   5.720   9.428   1.417 -0.2158 -0.1035 -0.0531
 7757W        W11957   9.395   7.944   1.730  0.4603 -0.1894  0.2359
 7758W        W11958   6.534   7.573   0.946  0.0238  0.3903 -0.0560
 7759W        W11959   1.349   9.445   1.365 -0.2959  0.0150 -0.0350
 7760W        W11960   3.823   7.166  10.708  0.1933  0.2141 -0.0343
 7761W        W11961   5.844   0.189   3.373 -0.0528  0.1471 -0.0083
 7762W        W11962   7.491   7.102   0.908  0.2166  0.3349  0.0374
 7763W        W11963   1.648   4.328   1.228 -0.0643  0.2376  0.0251
 7764W        W11964   7.165  10.314   3.718 -0.2869  0.2188 -0.3059
 7765W        W11965   0.724   9.511  11.350 -0.1230 -0.1881  0.0254
 7766W        W11966   8.270   6.577  10.518  0.0653  0.0727 -0.1220
 7767W        W11967   0.284  10.088   3.977 -0.5060  0.1806 -0.1070
 7768W        W11968   0.359   9.330  13.186  0.0586  0.6224  0.0381
 7769W        W11969   1.095   1.947   0.269  0.2554  0.2805 -0.2685
 7770W        W11970   5.268   0.637   9.672 -0.0461  0.1619  0.1770
 7771W        W11971   5.660   6.433   4.877 -0.1668 -0.0332 -0.0111
 7772W        W11972   7.041   6.107  11.843 -0.2127 -0.2555  0.2293
 7773W        W11973   2.734   4.821   4.169  0.6439 -0.2375 -0.0510
 7774W        W11974   6.879   6.904  11.190  0.0259 -0.0230  0.3512
 7775W        W11975   8.755  10.024   0.718  0.1807  0.3373  0.0361
 7776W        W11976   6.865   6.176   1.577  0.1333  0.4318 -0.0613
 7777W        W11977   6.603   6.268   1.126 -0.0263 -0.0820  0.3669
 7778W        W11978   7.652   5.040   2.610 -0.2486  0.0748  0.0889
 7779W        W11979   7.467   4.998  12.606 -0.2373  0.2033  0.0611
 7780W        W11980   6.629   8.921  13.360 -0.2801 -0.3410 -0.2807
 7781W        W11981   4.413   2.258   0.438  0.1367 -0.2507 -0.3950
 7782W        W11982   1.889   9.488   2.291 -0.2133  0.0806 -0.2249
 7783W        W11983   2.724   2.180   3.162  0.2388  0.3470 -0.0576
 7784W        W11984  10.025   2.517  11.101  0.0772 -0.0125 -0.1993
 7785W        W11985   0.392   2.477   3.532  0.4094 -0.2344  0.0907
 7786W        W11986   9.734   0.610   4.309  0.1458 -0.0957  0.0277
 7787W        W11987   8.931   8.741   1.829 -0.2781 -0.3297 -0.0078
 7788W        W11988   9.568   5.416  12.999  0.0076  0.0092  0.0021
 7789W        W11989   2.194   1.162   2.151  0.0372  0.1292 -0.0557
 7790W        W11990   3.168   2.704  11.234  0.1682 -0.1512  0.2497
 7791W        W11991   8.736   5.933  13.146 -0.0998 -0.0379 -0.0555
 7792W        W11992   3.535   0.883   0.652 -0.1644 -0.3576  0.5801
 7793W        W11993   3.372   3.710   9.034 -0.0901  0.2500 -0.1179
 7794W        W11994   8.244   0.152  10.252  0.0765  0.2086  0.0352
 7795W        W11995   0.838   0.340   1.717 -0.1289 -0.1702 -0.0974
 7796W        W11996   1.813  10.031   0.600 -0.0382  0.1261 -0.0359
 7797W        W11997   5.410   8.786   8.226  0.0272  0.0062  0.0939
 7798W        W11998   3.114   7.500   1.078  0.1809  0.3371  0.2216
 7799W        W11999   7.543   5.676   4.228 -0.1002 -0.0460  0.3625
 7800W        W12000   9.769   3.785  12.685 -0.0477 -0.0392 -0.4789
 7801W        W12001   9.177   7.225   4.342  0.2674 -0.1394 -0.1051
 7802W        W12002   0.485   5.882  11.832  0.1741 -0.2907 -0.1423
 7803W        W12003   2.154   7.732   1.817 -0.0729  0.2388  0.4065
 7804W        W12004   4.549   9.296   9.020 -0.1284 -0.0037 -0.0669
 7805W        W12005   2.540   7.330   9.834  0.0236  0.0298 -0.1118
 7806W        W12006   7.690   4.395  11.363  0.0716 -0.2966  0.0452
 7807W        W12007   8.143   1.074  11.539  0.0642 -0.3347  0.0924
 7808W        W12008   5.658   7.931  12.964  0.3486  0.0235  0.0193
 7809W        W12009   0.882   6.787  11.850  0.2223 -0.4420  0.1387
 7810W        W12010   4.858   4.081   1.577  0.2532  0.4424  0.3014
 7811W        W12011   9.582   5.784  10.069  0.1670  0.0247  0.1600
 7812W        W12012  10.150   6.361   0.964  0.3141 -0.1255  0.0737
 7813W        W12013   0.101   5.468   0.821 -0.1363 -0.0464  0.0789
 7814W        W12014   8.881   7.139  12.264  0.0456 -0.0267 -0.0912
 7815W        W12015   1.242   0.819  13.086  0.0269  0.1680  0.1345
 7816W        W12016   8.056   4.457  12.833 -0.0372  0.1502  0.0209
 7817W        W12017   0.349   3.465   2.136 -0.3087  0.0324 -0.0369
 7818W        W12018  10.361   0.247  10.348  0.1597 -0.1950  0.2402
 7819W        W12019   0.273   0.615   1.609  0.3987 -0.3076  0.0763
 7820W        W12020   4.206   4.964  12.675  0.1449  0.0602  0.1966
 7821W        W12021   3.003   3.843  13.387 -0.0983 -0.2949  0.2737
 7822W        W12022   0.592   2.525  10.966 -0.0606  0.1019  0.3416
 7823W        W12023   2.063   8.639  11.562 -0.1303  0.2687 -0.2066
 7824W        W12024   5.440   6.728   1.394 -0.1668 -0.0523  0.2039
 7825W        W12025   7.253   1.293  10.292  0.0716  0.0560  0.0159
 7826W        W12026   7.510   3.270   0.095 -0.1358 -0.1625 -0.1638
 7827W        W12027   3.371   0.310   1.333 -0.1139  0.1338  0.1297
 7828W        W12028   9.283   6.026  11.941 -0.0199  0.1380  0.1882
 7829W        W12029   0.856   6.443  10.019  0.2102  0.0564 -0.0949
 7830W        W12030   3.636   9.942   0.798  0.0816 -0.2632 -0.1097
 7831W        W12031   6.017   6.606   3.624 -0.0187  0.0086  0.1411
 7832W        W12032   2.649   8.280   9.035 -0.2379 -0.1741 -0.0666
 7833W        W12033   8.821   9.381  10.875 -0.2057  0.0172  0.0075
 7834W        W12034   0.864   9.894   2.241  0.2634 -0.1760 -0.3508
 7835W        W12035   2.696   6.948   3.719 -0.1644  0.1185  0.0283
 7836W        W12036   1.799   3.451  10.543  0.2246 -0.1574 -0.0406
 7837W        W12037   5.040  10.426  11.368  0.2668 -0.0636  0.1827
 7838W        W12038   8.460   9.307  10.464 -0.0806  0.1281  0.0600
 7839W        W12039   1.654   4.847   2.946 -0.1540  0.0417 -0.0975
 7840W        W12040   7.037   3.790   1.715 -0.0675 -0.1778 -0.4131
 7841W        W12041   3.745   3.651  12.959 -0.5716  0.1510 -0.0188
 7842W        W12042  10.475   5.015  12.058  0.0012  0.1929  0.0643
 7843W        W12043   3.353   3.850   4.961  0.0839 -0.1273  0.1050
 7844W        W12044   1.870   4.981   1.963 -0.3832 -0.0569 -0.0233
 7845W        W12045   9.159   9.284   4.133 -0.3805 -0.0141  0.3023
 7846W        W12046   6.981   7.287  12.659  0.0179 -0.2759 -0.0084
 7847W        W12047   6.738   2.083  12.438 -0.2769  0.1240 -0.2908
 7848W        W12048   6.706   6.460  11.420  0.2213 -0.1236  0.0525
 7849W        W12049   1.506   3.947  12.642 -0.1261 -0.0005 -0.2566
 7850W        W12050   3.229   7.451  11.079  0.0555 -0.2101 -0.0045
 7851W        W12051  10.184   1.559  13.286  0.1051  0.2181 -0.0033
 7852W        W12052   3.373   1.572  13.381 -0.1510  0.2721 -0.3439
 7853W        W12053   3.432   0.650  12.873  0.4918  0.0816  0.1013
 7854W        W12054   2.560   5.387  11.566  0.2400 -0.2032  0.0507
 7855W        W12055   2.508   5.064   1.378 -0.4801  0.2714  0.2519
 7856W        W12056   8.545   9.892   3.646  0.0354  0.1065 -0.1004
 7857W        W12057   4.280   7.233   4.191 -0.1033 -0.2672  0.1844
 7858W        W12058   0.532   9.036   1.571 -0.3345 -0.0900 -0.1233
 7859W        W12059   7.707   8.043   1.633  0.3646  0.2396  0.2012
 7860W        W12060   6.386   1.192  12.766 -0.2841 -0.4093  0.0511
 7861W        W12061   3.899   7.885   2.824  0.2341  0.2076 -0.0360
 7862W        W12062   5.078   6.773   3.112  0.1228  0.4245 -0.3299
 7863W        W12063   5.721   9.144   2.583 -0.2015  0.1511 -0.1113
 7864W        W12064   3.508   7.309   2.173 -0.2282 -0.1248  0.1126
 7865W        W12065   1.660   3.787   9.821  0.2333 -0.0978  0.1257
 7866W        W12066   4.251   0.069  10.174  0.1250  0.0481  0.0761
 7867W        W12067   7.157   7.478   0.790  0.2549  0.0153  0.0666
 7868W        W12068   6.386   7.226   2.740 -0.0694 -0.0960  0.0233
 7869W        W12069   4.718   0.348   3.358  0.0043 -0.1748  0.1547
 7870W        W12070   8.682   9.694   0.082  0.1903 -0.0543 -0.2289
 7871W        W12071   2.005   4.215  10.736  0.0498  0.0699 -0.4368
 7872W        W12072   8.504   7.693   0.148 -0.2701  0.0589  0.1914
 7873W        W12073   5.006   3.036   1.107 -0.3292 -0.0766 -0.0754
 7874W        W12074   8.435   9.685  11.758 -0.0935 -0.4580 -0.0219
 7875W        W12075  10.450  10.200   2.136  0.1807  0.1605 -0.1591
 7876W        W12076   4.303   0.085  12.080  0.2485 -0.1888  0.0585
 7877W        W12077   5.777   8.103   1.319 -0.1968 -0.0886  0.0813
 7878W        W12078   3.608   5.811  10.436 -0.1102 -0.3885  0.0331
 7879W        W12079   0.344   6.995   8.269 -0.1325 -0.0869 -0.0210
 7880W        W12080   5.863   8.969  11.754 -0.0326 -0.1028 -0.2607
 7881W        W12081   3.576   9.931  13.405  0.0375 -0.0463 -0.0747
 7882W        W12082   3.946   2.277  11.997  0.0857 -0.0898  0.2048
 7883W        W12083   4.478  10.437  11.668  0.0349 -0.1921 -0.0190
 7884W        W12084   0.773   7.096   3.788  0.3317  0.1065 -0.0613
 7885W        W12085   0.451   6.492   9.712 -0.0632 -0.1247  0.3175
 7886W        W12086   2.875   0.515   8.973 -0.0884 -0.0511  0.1401
 7887W        W12087   6.325   1.135   0.582 -0.1312 -0.1984 -0.1251
 7888W        W12088   1.750   7.441  12.892  0.1889  0.1675  0.1787
 7889W        W12089   9.474   6.271  12.894  0.2485  0.1358 -0.3047
 7890W        W12090   5.048   2.444   8.870  0.0753  0.0537  0.3073
 7891W        W12091   4.979   9.863   0.191 -0.3132  0.1585  0.0391
 7892W        W12092   0.589   6.400  11.996  0.1912 -0.1749 -0.1131
 7893W        W12093   7.495   2.032   1.956  0.1381 -0.3238  0.0849
 7894W        W12094   5.404   6.364  10.340 -0.0870 -0.0560  0.0491
 7895W        W12095   7.946   9.182   4.531 -0.1279 -0.0884  0.1858
 7896W        W12096   6.947   1.111   9.864  0.2058 -0.2731  0.0422
 7897W        W12097   8.995   7.632   0.140 -0.1573 -0.0221  0.0732
 7898W        W12098   1.104   9.880   1.428 -0.2713 -0.2815 -0.0720
 7899W        W12099   0.525   8.049  11.832  0.2370  0.0937  0.0023
 7900W        W12100   6.504   5.808   4.150  0.2167 -0.3320  0.2441
 7901W        W12101  10.173   8.920   0.716  0.1109  0.1497 -0.0244
 7902W        W12102   1.991   6.247   1.452 -0.0332  0.0518 -0.1869
 7903W        W12103   4.376   9.161   9.872  0.2243 -0.0358 -0.0617
 7904W        W12104   0.382   1.963   0.821  0.0127 -0.1330 -0.0007
 7905W        W12105   4.083   7.583  11.542 -0.0549 -0.3443 -0.2617
 7906W        W12106  10.306   5.166  10.064 -0.0951  0.0602 -0.2241
 7907W        W12107   2.572   1.657  11.988  0.0847 -0.2369 -0.1160
 7908W        W12108   2.580   7.846   2.043 -0.0806 -0.0553  0.0343
 7909W        W12109   1.157   0.185   3.897 -0.0380  0.0513 -0.3202
 7910W        W12110   2.988   1.759   3.503 -0.2240  0.1359 -0.1446
 7911W        W12111   1.798   4.367   3.203  0.1422 -0.1642 -0.1985
 7912W        W12112  10.323   7.225  10.170  0.1838  0.0547 -0.3488
 7913W        W12113   2.794   0.161  12.356 -0.0279  0.1327 -0.0327
 7914W        W12114   4.993   3.999   9.234 -0.0885  0.0946 -0.1060
 7915W        W12115   5.185   4.061   9.823 -0.1209  0.3311 -0.0040
 7916W        W12116   1.401   1.869   0.665  0.2230 -0.0331 -0.1175
 7917W        W12117   6.309  10.225   0.564  0.0288  0.3345 -0.0755
 7918W        W12118   3.578   9.809  10.087 -0.1864 -0.1220 -0.3394
 7919W        W12119   2.532   1.189  13.292 -0.1302  0.2591  0.0753
 7920W        W12120   7.258   0.753   0.790  0.0203  0.0079 -0.0511
 7921W        W12121   6.029   2.324   3.456  0.3754  0.2331  0.0533
 7922W        W12122   4.152   8.828   9.103 -0.2981 -0.2550 -0.0997
 7923W        W12123   7.812   2.456  10.914  0.0594 -0.0617 -0.0213
 7924W        W12124   4.098   3.865  11.057 -0.0964 -0.2255 -0.0506
 7925W        W12125   9.259   7.604   1.259  0.1026 -0.1935 -0.2570
 7926W        W12126   5.318   3.442  11.610  0.0080 -0.1046 -0.1463
 7927W        W12127   0.021   3.964  11.958  0.0410 -0.0362 -0.2198
 7928W        W12128   4.978   4.832   2.491 -0.2476  0.1013  0.1877
 7929W        W12129   9.137   2.413   3.924 -0.0790  0.3093 -0.1003
 7930W        W12130   0.723   7.048   9.160  0.3574  0.2512  0.0285
 7931W        W12131   9.871   0.765   3.707  0.0148  0.3382  0.0625
 7932W        W12132   1.244   8.614  11.643  0.0765 -0.1029 -0.1944
 7933W        W12133  10.489   0.490   2.067 -0.0997  0.0479 -0.1070
 7934W        W12134   5.629  10.145  13.190 -0.0793 -0.1114 -0.1045
 7935W        W12135   9.312   1.173  10.166 -0.0094 -0.1031 -0.4234
 7936W        W12136   5.637   9.520   3.222  0.0021  0.0419  0.0402
 7937W        W12137   4.274   9.492   9.514  0.4673  0.4329  0.2607
 7938W        W12138   1.364   1.799  13.131 -0.0302  0.2153  0.6072
 7939W        W12139   4.899   0.481   2.246 -0.0896 -0.1232  0.1059
 7940W        W12140   8.846   9.920   2.784 -0.1885  0.0639 -0.2330
 7941W        W12141   0.522   9.564   3.884  0.0394  0.0458 -0.1648
 7942W        W12142  10.051   3.578   0.623  0.2074  0.0212  0.2090
 7943W        W12143   9.330   9.295  13.145  0.3901  0.0490  0.1677
 7944W        W12144   5.168   8.204   1.916  0.3050 -0.1906 -0.2145
 7945W        W12145   8.567   0.055   0.368  0.2782 -0.5244  0.0865
 7946W        W12146   1.343   9.080  12.848 -0.1408  0.0725  0.2181
 7947W        W12147   3.444   1.607   1.925  0.2433  0.2445  0.0305
 7948W        W12148   1.528   9.574   1.787  0.0041  0.0527 -0.4803
 7949W        W12149   2.619   3.681   2.138 -0.1160 -0.4732  0.0254
 7950W        W12150   2.182   2.710  11.585  0.1212  0.0117  0.1676
 7951W        W12151   1.615   9.666   9.717  0.1263 -0.0802 -0.0747
 7952W        W12152   7.517   6.729   0.564 -0.0227  0.2173 -0.2036
 7953W        W12153   1.207   9.494  10.541 -0.1272 -0.0744 -0.1144
 7954W        W12154   1.789   9.619   0.309 -0.0343 -0.0641  0.1021
 7955W        W12155   8.120   4.519  11.501  0.1775  0.2675 -0.2467
 7956W        W12156   1.226   7.454  12.899  0.1088 -0.0037 -0.4041
 7957W        W12157   9.913  10.422  10.400 -0.1811 -0.2180  0.0705
 7958W        W12158   4.852   1.672   0.887  0.2897 -0.0931  0.0922
 7959W        W12159   7.440   9.519  12.631 -0.2020  0.2108 -0.2089
 7960W        W12160   1.269   1.889   9.827  0.0609  0.1847  0.0049
 7961W        W12161   7.576   3.263  10.853  0.3845  0.0720  0.0566
 7962W        W12162   7.154   7.607   2.831  0.1543  0.0376 -0.2097
 7963W        W12163   0.830   4.623  13.054 -0.0769 -0.2892 -0.1998
 7964W        W12164  10.454   7.621   3.146 -0.0238  0.1816  0.4973
 7965W        W12165   9.909   4.114   8.733 -0.0217  0.0179  0.0929
 7966W        W12166   0.149   9.052   0.754 -0.1700  0.0443  0.0637
 7967W        W12167   7.243   7.924   0.486 -0.2427 -0.4255 -0.2071
 7968W        W12168   0.867   0.363  10.755  0.2049  0.0135  0.0571
 7969W        W12169   0.151   5.805  10.474  0.3791 -0.2974  0.5176
 7970W        W12170   3.997   7.019   9.543 -0.1659 -0.2202 -0.0356
 7971W        W12171   0.065   6.100   0.184 -0.0206  0.1435  0.0633
 7972W        W12172   5.571   9.384   8.957 -0.0075  0.1066  0.2480
 7973W        W12173   5.180   2.688  12.056  0.0146 -0.1773 -0.0780
 7974W        W12174   8.362   9.667   4.591 -0.2187  0.0803 -0.4184
 7975W        W12175   7.368   7.280   3.228 -0.1536  0.0695 -0.2390
 7976W        W12176   4.750   7.422  11.415  0.0962 -0.0191  0.2194
 7977W        W12177   4.200   8.801  10.874 -0.3102 -0.1701 -0.0434
 7978W        W12178   3.951   2.366  10.774  0.0540 -0.1937 -0.1846
 7979W        W12179  10.481   4.663   2.156 -0.0398 -0.0174  0.0585
 7980W        W12180   2.760   1.347  12.819  0.0892  0.0004  0.1811
 7981W        W12181   4.973   8.915   1.603 -0.1587  0.1452 -0.2765
 7982W        W12182   4.048   8.375   5.107  0.1857  0.0060  0.0992
 7983W        W12183   9.958   5.399   0.062 -0.0647  0.0028 -0.1836
 7984W        W12184   3.215   3.252   2.559  0.6608  0.2179  0.0783
 7985W        W12185   6.027   3.125   4.310 -0.0626 -0.1327 -0.1168
 7986W        W12186  10.336   2.444   1.468  0.1138  0.0248 -0.0688
 7987W        W12187   3.639   3.532   4.726 -0.0304  0.0105 -0.3529
 7988W        W12188   7.774   3.582   3.393 -0.1748 -0.4538  0.1312
 7989W        W12189   9.541   5.408   3.630 -0.1204  0.0846 -0.1638
 7990W        W12190   8.421   1.773   0.737  0.2133  0.2463 -0.3243
 7991W        W12191   4.469   7.286   0.848  0.0095 -0.0315 -0.1767
 7992W        W12192   7.326   5.347  12.937  0.3775  0.1778  0.0414
 7993W        W12193   2.156   3.504   9.371 -0.2161 -0.1094 -0.1287
 7994W        W12194   9.560   9.881  11.054 -0.0374 -0.3223 -0.1535
 7995W        W12195   9.829   3.334   2.874 -0.2135 -0.2314 -0.0541
 7996W        W12196   1.229   7.858   4.259 -0.1253 -0.4186 -0.2289
 7997W        W12197   3.568   9.286   0.560 -0.1175  0.0190 -0.0716
 7998W        W12198   5.674   3.971  10.925 -0.1050  0.1152  0.2659
 7999W        W12199   9.245   0.585   3.003 -0.0614  0.1865 -0.2577
 8000W        W12200   0.712   5.957   1.922  0.1444 -0.0559 -0.1316
 8001W        W12201   9.630   3.007  10.632 -0.3097 -0.0651  0.1178
 8002W        W12202   7.029   4.256   3.536 -0.2224 -0.3479  0.1725
 8003W        W12203   5.083  10.306  13.269 -0.0850  0.1649  0.2747
 8004W        W12204   5.349   7.370  10.124 -0.3623  0.0732 -0.1404
 8005W        W12205   4.366   2.233  11.637  0.1224 -0.4505 -0.0452
 8006W        W12206   0.772   9.808  10.407 -0.0326  0.1792 -0.1394
 8007W        W12207   7.682   2.776   2.540  0.0944 -0.2662  0.0261
 8008W        W12208   4.135   8.953   2.760  0.3419 -0.0332 -0.2219
 8009W        W12209   4.257   7.935   2.477 -0.0785 -0.2412 -0.1217
 8010W        W12210   8.406   3.479   1.368 -0.0394  0.3740  0.1018
 8011W        W12211   6.603   8.766   0.448 -0.4358 -0.1366  0.1306
 8012W        W12212   5.837   6.798   9.500  0.0581  0.1067  0.3183
 8013W        W12213   7.089   7.798   5.089 -0.2068  0.0913  0.3661
 8014W        W12214   6.454   4.307  12.910  0.1167  0.0064 -0.1084
 8015W        W12215   9.860   0.968   1.552  0.0063  0.0276 -0.0508
 8016W        W12216   1.478   5.972   9.156  0.0755 -0.3878  0.0938
 8017W        W12217  10.232   8.654  12.871  0.1571 -0.2759 -0.0587
 8018W        W12218   2.263   8.675  12.889  0.2315  0.2499  0.1713
 8019W        W12219   5.678   9.815  11.205  0.3593 -0.1360  0.0051
 8020W        W12220   9.253   7.712  13.103  0.2429  0.1429  0.2028
 8021W        W12221   3.996   6.517   9.717 -0.0736  0.0218  0.1586
 8022W        W12222   4.082   2.666   9.560  0.2649  0.2592 -0.0369
 8023W        W12223   3.810   0.094   9.165  0.2222  0.1175 -0.0166
 8024W        W12224   2.093   7.199   1.683  0.1890  0.4300  0.0365
 8025W        W12225   5.752   8.491   4.285  0.2190  0.2953  0.3059
 8026W        W12226   7.253   6.496   9.823  0.1190 -0.2158  0.0194
 8027W        W12227  10.242   1.561  11.799  0.2134  0.0063  0.0756
 8028W        W12228   1.042   3.859   2.433  0.1601 -0.0151 -0.3157
 8029W        W12229   0.060   1.875  12.365 -0.0922 -0.1845  0.0615
 8030W        W12230   7.012   3.163   0.296  0.4256  0.1077 -0.0093
 8031W        W12231   9.742   7.706   1.435 -0.1846 -0.0488 -0.0380
 8032W        W12232   4.196   2.684  12.273  0.2697  0.0594  0.1854
 8033W        W12233   6.628   9.272   0.342  0.0843 -0.0558  0.1403
 8034W        W12234   2.743   9.408   0.017  0.3015 -0.1716  0.1300
 8035W        W12235   4.993   0.944   3.595  0.0293  0.2356  0.0940
 8036W        W12236   5.542   0.214   9.805  0.2455  0.2705  0.0583
 8037W        W12237   3.860  10.429   2.072 -0.1873 -0.0582  0.1040
 8038W        W12238   2.490   9.499   3.058 -0.0054 -0.1669 -0.2544
 8039W        W12239   4.295   0.022   2.980 -0.1025 -0.3158  0.2832
 8040W        W12240   8.527   9.079   9.057  0.1863  0.2328  0.2171
 8041W        W12241   2.309   6.309   4.055 -0.2870  0.2396  0.1591
 8042W        W12242  10.199   7.490   0.969 -0.1829 -0.0341  0.1893
 8043W        W12243   4.911   4.849   1.109 -0.1288  0.2482 -0.0569
 8044W        W12244   4.644   6.567   3.399 -0.5247  0.1291 -0.0091
 8045W        W12245   4.803   2.553  11.184  0.1891 -0.0307 -0.4053
 8046W        W12246   5.501   7.138  11.557 -0.1684 -0.3312  0.2196
 8047W        W12247   5.838   2.837   3.349  0.0475  0.2454  0.1464
 8048W        W12248   0.597   0.278  12.271 -0.0090  0.1144  0.1415
 8049W        W12249   3.435   3.517   4.135 -0.1934 -0.2324  0.0875
 8050W        W12250   7.929   7.089   1.368  0.1470 -0.0659 -0.1572
 8051W        W12251   7.191   3.631   0.384  0.3168  0.3164  0.1367
 8052W        W12252   3.101   0.388  11.310  0.1775 -0.1341 -0.0841
 8053W        W12253   2.202   6.712   9.844 -0.0529 -0.0956  0.3083
 8054W        W12254   6.075   6.834  12.276  0.2817  0.0727 -0.1950
 8055W        W12255   1.629   8.188   1.662 -0.0446  0.2982  0.1404
 8056W        W12256   5.885   1.762   9.531 -0.3482 -0.0550  0.2954
 8057W        W12257   8.167   0.025   2.177 -0.3356 -0.1714  0.0065
 8058W        W12258  10.014   4.637  10.241  0.0523 -0.3071 -0.0500
 8059W        W12259   4.034   9.480   3.956  0.3158 -0.0889 -0.3137
 8060W        W12260   7.774   2.725   3.489  0.1571  0.0720 -0.1744
 8061W        W12261   3.469   3.406   0.994 -0.0464 -0.0600  0.2389
 8062W        W12262   1.964   2.977  12.005 -0.0166  0.0367 -0.0142
 8063W        W12263   6.365   3.652   2.064  0.1103  0.2727 -0.0692
 8064W        W12264   5.238   5.693   4.813  0.1256  0.3291  0.2058
 8065W        W12265  10.359   5.295   1.720  0.1109  0.0814 -0.1519
 8066W        W12266   7.898   3.521   2.504 -0.1593 -0.0617  0.1335
 8067W        W12267   1.773   3.903   8.851 -0.1424  0.0473 -0.4984
 8068W        W12268  10.015   2.856   1.644 -0.0830 -0.1426  0.1523
 8069W        W12269   0.270   7.746  11.015  0.1283  0.0097  0.1881
 8070W        W12270   0.734   6.966   2.743  0.2318  0.0210 -0.0656
 8071W        W12271   5.116   1.953  13.234  0.0063  0.2664 -0.0924
 8072W        W12272   0.475   4.580  10.025 -0.3598 -0.2690 -0.0817
 8073W        W12273   1.851   0.026   3.329  0.2796 -0.0823  0.1142
 8074W        W12274   8.123   7.734   0.956  0.0688 -0.3743  0.0568
 8075W        W12275  10.078   1.814   2.003  0.3615 -0.3487  0.0803
 8076W        W12276   3.330   7.231  10.601 -0.1615 -0.1798 -0.2334
 8077W        W12277   5.436   9.553   3.915 -0.2794  0.0319 -0.0952
 8078W        W12278   9.162   8.167  10.577  0.0556 -0.0304  0.1958
 8079W        W12279   7.177   8.689  11.042 -0.0836 -0.2536 -0.1159
 8080W        W12280   3.082   8.131   3.912  0.0651  0.0375 -0.1094
 8081W        W12281   1.959   9.129  11.576  0.2308 -0.1360 -0.0479
 8082W        W12282   6.812  10.237  12.776  0.0042  0.0012 -0.0469
 8083W        W12283   6.227   3.127   9.921  0.0253  0.0556 -0.4027
 8084W        W12284   2.633   0.579   5.229  0.2080 -0.0884  0.1322
 8085W        W12285   4.537   4.696   2.957  0.0327  0.0425  0.0737
 8086W        W12286   7.433   1.783  10.365 -0.3731  0.0931 -0.0814
 8087W        W12287  10.335   9.561   2.395 -0.0146  0.1905  0.1233
 8088W        W12288   9.790   8.244   1.458  0.1462 -0.2240 -0.0743
 8089W        W12289   1.388  10.357   4.709  0.0933 -0.1183 -0.1046
 8090W        W12290   0.054   9.818   1.105 -0.0582  0.1841  0.1544
 8091W        W12291   5.760   0.025  11.733  0.1766 -0.2801 -0.1168
 8092W        W12292   9.858   0.475  10.337  0.0298  0.1334 -0.1028
 8093W        W12293   4.248   4.368  12.709  0.1238 -0.1355 -0.3722
 8094W        W12294   8.143   8.653   4.626  0.0894 -0.4547 -0.0897
 8095W        W12295   4.812   6.779   2.234  0.1332 -0.2656 -0.1728
 8096W        W12296   1.810   8.299  10.366  0.1497 -0.2247  0.1235
 8097W        W12297   7.807   4.239   1.155 -0.1568 -0.1904  0.0018
 8098W        W12298   1.102   5.370   1.232  0.0681 -0.1173 -0.0729
 8099W        W12299   2.617   6.835   1.201 -0.0940  0.0104 -0.2689
 8100W        W12300  10.460   0.322  10.954 -0.2137  0.0331 -0.4034
 8101W        W12301   6.404   9.382   3.740  0.1843 -0.0683  0.0757
 8102W        W12302   1.123   3.704  12.311  0.0201 -0.3567 -0.0371
 8103W        W12303  10.150   8.892   2.228 -0.3174  0.0024  0.2694
 8104W        W12304   4.090   6.439   4.270  0.3448 -0.1334 -0.0200
 8105W        W12305   8.460   3.593  11.267 -0.0507  0.0557 -0.0682
 8106W        W12306   5.168   4.341  10.983 -0.5284 -0.1522 -0.0234
 8107W        W12307   2.174   2.848   1.651  0.1776  0.0390 -0.4104
 8108W        W12308   2.003  10.290  12.032 -0.1041 -0.1532  0.0178
 8109W        W12309   8.908   4.126   3.166 -0.3038 -0.1793  0.3703
 8110W        W12310   6.931  10.106  12.092 -0.2228  0.1609  0.5289
 8111W        W12311   8.081   3.992  11.324  0.0895  0.0382 -0.0300
 8112W        W12312   5.954   0.917  12.508  0.1547  0.0146 -0.2365
 8113W        W12313   6.989   0.084  13.170  0.0183  0.2011 -0.1769
 8114W        W12314   4.026   7.730   3.318 -0.1674 -0.0370  0.1782
 8115W        W12315   8.449   3.873   0.494  0.1708  0.2604  0.1194
 8116W        W12316   7.958   2.117  13.260 -0.0994  0.0590 -0.0534
 8117W        W12317   5.608   4.849  11.334 -0.0318 -0.1765 -0.1443
 8118W        W12318   4.604   0.246   4.317 -0.1102 -0.2981  0.3716
 8119W        W12319   9.267   7.735  11.424 -0.1833 -0.0055 -0.1253
 8120W        W12320   1.253   6.122   0.722 -0.0575  0.3228 -0.0204
 8121W        W12321   8.782   8.426  12.962 -0.1834  0.0484 -0.4178
 8122W        W12322   7.665   9.938   9.586  0.0544 -0.1827  0.0715
 8123W        W12323  10.219   5.552  10.785  0.1294  0.0937  0.0975
 8124W        W12324   4.727   4.148   4.224  0.2234 -0.1953 -0.0771
 8125W        W12325   3.910   8.591   1.043  0.0659 -0.1037 -0.2697
 8126W        W12326   7.033   4.854   9.780  0.2079  0.0283  0.1321
 8127W        W12327   5.055   2.257  12.243  0.0738  0.0589 -0.1360
 8128W        W12328   8.316   8.252   2.230 -0.0056 -0.2711  0.1450
 8129W        W12329   0.370   4.570  12.466 -0.0794 -0.1542  0.0168
 8130W        W12330   0.526   7.579   4.672  0.0656 -0.0501 -0.1805
 8131W        W12331   3.665   5.699   1.210 -0.0553  0.4007  0.1488
 8132W        W12332   1.244   2.401   9.822  0.1399 -0.0452 -0.1688
 8133W        W12333   8.257   7.300  12.565 -0.2251 -0.0926  0.0720
 8134W        W12334   8.399   1.075   2.956 -0.2373  0.0388 -0.1387
 8135W        W12335   8.192   1.112   1.598  0.1919  0.1262 -0.2644
 8136W        W12336   6.606   0.554   1.950 -0.3698  0.1329 -0.0761
 8137W        W12337   5.777   2.981   9.815 -0.0795  0.0466 -0.2066
 8138W        W12338   9.457   5.144   1.933  0.1195 -0.1142  0.0924
 8139W        W12339   7.215   8.792   0.301  0.0744 -0.0689  0.2919
 8140W        W12340   3.100   3.680   1.346 -0.0707 -0.0630 -0.5889
 8141W        W12341   5.376   5.594   0.390  0.1756 -0.0675  0.3617
 8142W        W12342   4.542   7.130  12.522  0.1162  0.4039  0.1111
 8143W        W12343   7.999   1.668   1.315 -0.1700  0.1331  0.1501
 8144W        W12344   0.802   5.958   2.476 -0.4543  0.0208 -0.1367
 8145W        W12345   5.710   5.353  11.454 -0.1441 -0.1889 -0.5019
 8146W        W12346   5.686   1.569   1.777 -0.2890 -0.1320 -0.0178
 8147W        W12347   2.063   3.455   3.371 -0.0715 -0.0301  0.3674
 8148W        W12348   6.213   2.539  12.473  0.2993 -0.1845 -0.1819
 8149W        W12349   1.878   9.365   2.872 -0.0261 -0.0161  0.0105
 8150W        W12350   8.634   5.059  10.596 -0.0443 -0.4092  0.1970
 8151W        W12351   9.541   5.645   9.588 -0.0510 -0.4593  0.0553
 8152W        W12352   9.216   0.944  10.615 -0.0071  0.0436 -0.0052
 8153W        W12353   3.636   5.694  12.524  0.2634 -0.0172 -0.1434
 8154W        W12354   8.274   4.474   1.000  0.2553 -0.0106 -0.0327
 8155W        W12355   8.969   3.673  11.874  0.2239  0.5468  0.2072
 8156W        W12356   3.283   9.114   0.964 -0.0236  0.0282  0.2549
 8157W        W12357   7.455   6.180   0.749  0.1573  0.4268 -0.2253
 8158W        W12358   6.101   7.968   9.724  0.0903 -0.2875  0.2101
 8159W        W12359   8.759   7.420  11.801  0.2697  0.0315 -0.2621
 8160W        W12360   5.578   7.849   4.906 -0.3409 -0.2831 -0.0177
 8161W        W12361   9.377   0.285   9.614  0.4104 -0.2486  0.2743
 8162W        W12362   4.798   8.907   2.102  0.0238  0.1450  0.0552
 8163W        W12363   0.718   3.453   2.624 -0.2096 -0.3981  0.1394
 8164W        W12364   7.793   6.977   3.642  0.1947  0.0072 -0.1009
 8165W        W12365   4.460   2.510   2.614  0.3022 -0.1952  0.1453
 8166W        W12366   0.466  10.263   2.243  0.0465  0.3063 -0.4272
 8167W        W12367   9.365  10.038   2.763 -0.1115 -0.1653 -0.1399
 8168W        W12368   2.195   0.794   9.416 -0.2136 -0.1812  0.1081
 8169W        W12369   8.262   8.156  11.968  0.1941 -0.1530  0.0024
 8170W        W12370   9.624   8.208  13.276  0.0590 -0.0087  0.2125
 8171W        W12371   3.122   1.997  13.292 -0.1434 -0.2053 -0.0063
 8172W        W12372   2.841   9.956   1.068 -0.0620  0.2534  0.1560
 8173W        W12373   2.097   5.508   9.410 -0.2066 -0.0018 -0.1049
 8174W        W12374   8.765   8.490   1.441  0.0491 -0.0406  0.0464
 8175W        W12375   8.020   9.071  12.033  0.0679 -0.0924 -0.0321
 8176W        W12376   9.551   4.181   3.874  0.2440 -0.0743 -0.0573
 8177W        W12377   2.337   8.233   0.551 -0.0219 -0.0046 -0.1338
 8178W        W12378   3.191   3.680   0.364  0.2286 -0.1617 -0.3392
 8179W        W12379   4.271   0.180   0.999  0.0631  0.1290 -0.0116
 8180W        W12380   4.168   4.752  10.247  0.4418 -0.0807  0.2729
 8181W        W12381   6.481  10.160  12.452  0.1488 -0.0430 -0.0693
 8182W        W12382   8.607   9.308   9.509 -0.1085 -0.0119  0.3299
 8183W        W12383   3.330  10.241   9.427 -0.0989  0.2038  0.1235
 8184W        W12384   2.115   1.287  12.088 -0.0765 -0.1603 -0.1518
 8185W        W12385   4.937   9.400   0.422  0.0727 -0.1218 -0.0227
 8186W        W12386   5.253   2.173   0.201  0.1965  0.1748 -0.3779
 8187W        W12387   0.641   6.717  10.494 -0.1933 -0.1977 -0.1606
 8188W        W12388  10.363   2.839  10.170 -0.1689  0.0485 -0.2540
 8189W        W12389   6.164   1.373   1.948  0.2702 -0.3761  0.1004
 8190W        W12390   1.331   4.985   2.578 -0.2068  0.1491 -0.1490
 8191W        W12391   3.049   7.161   3.378  0.0214  0.3510  0.2606
 8192W        W12392   3.168   2.492   1.657 -0.2790 -0.0967 -0.1736
 8193W        W12393   8.520   1.203  11.073  0.1856  0.2519 -0.0136
 8194W        W12394   0.968   2.722  12.784  0.0760  0.1206  0.0471
 8195W        W12395   6.786   2.083   2.500 -0.0716 -0.0755  0.1332
 8196W        W12396  10.320   2.981   1.194 -0.0362 -0.0569 -0.1066
 8197W        W12397   2.420   9.963  12.888 -0.0734 -0.0527  0.0175
 8198W        W12398   6.509   8.160  11.760 -0.1913 -0.0854  0.0421
 8199W        W12399   2.363   7.704   2.479  0.1259 -0.2780 -0.0603
 8200W        W12400   4.058   7.197   3.313  0.0568  0.3381 -0.0365
 8201W        W12401  10.185   7.715   1.989 -0.0030  0.0767  0.0765
 8202W        W12402   8.958   3.408  11.407 -0.2340 -0.0904  0.1368
 8203W        W12403  10.197   1.421  12.314 -0.1477  0.0090 -0.1403
 8204W        W12404   6.829   6.164   3.982  0.0261 -0.0894 -0.2773
 8205W        W12405   9.701  10.339  11.500  0.3629  0.2837 -0.3250
 8206W        W12406  10.139   6.444   0.183  0.0568  0.0855 -0.1420
 8207W        W12407   9.838   1.495   1.429 -0.1869  0.0465  0.0003
 8208W        W12408   2.627   5.152   3.690  0.1947  0.3068 -0.3101
 8209W        W12409   7.234   2.294  10.488 -0.4302 -0.6120  0.3203
 8210W        W12410   5.042   9.870   3.013 -0.0854  0.1235  0.3251
 8211W        W12411   9.528   2.742   1.554  0.4604  0.1341 -0.0564
 8212W        W12412   3.407   3.220   9.682 -0.2698  0.0609 -0.1771
 8213W        W12413   0.737   4.119   9.440 -0.1574 -0.1373  0.0282
 8214W        W12414   7.389   6.084   4.017 -0.0610 -0.1497 -0.0462
 8215W        W12415   9.983   5.081   2.089  0.0779  0.1370 -0.1746
 8216W        W12416   6.308   4.944   1.432  0.0144 -0.0045  0.1577
 8217W        W12417   5.855   3.752   1.133 -0.0924 -0.2336 -0.1780
 8218W        W12418   8.054   0.521   2.075  0.1173  0.0457  0.0276
 8219W        W12419   6.364   0.403   2.411  0.2305 -0.1334  0.2658
 8220W        W12420   5.712   2.654  12.220 -0.4085  0.0853 -0.2434
 8221W        W12421   3.556   4.316   3.528 -0.2111 -0.0552  0.1222
 8222W        W12422   8.597   0.392  11.750 -0.0190 -0.1133 -0.1329
 8223W        W12423   2.702   4.609   3.178  0.2065 -0.0157 -0.1628
 8224W        W12424   1.391   7.030  13.348  0.1138 -0.0480  0.4149
 8225W        W12425  10.030   7.850  12.465  0.3626  0.4662 -0.2782
 8226W        W12426   9.907   0.974  12.519  0.2208  0.0010 -0.1486
 8227W        W12427   6.514   8.904   4.331 -0.3221 -0.4180  0.2474
 8228W        W12428   3.012   1.860   4.741  0.1118  0.2807  0.1311
 8229W        W12429   2.207   2.941   3.327 -0.0759  0.5033  0.0817
 8230W        W12430   3.941   9.252  13.014  0.2169 -0.1309 -0.0542
 8231W        W12431   6.044   4.039   3.717  0.3480  0.1359  0.0643
 8232W        W12432   4.812   8.346  12.991 -0.1411 -0.0084  0.0450
 8233W        W12433   2.752   9.636  13.003 -0.0574  0.1512 -0.1165
 8234W        W12434   4.120   2.723   1.822  0.1688  0.3901 -0.0821
 8235W        W12435   2.759   8.785   8.759 -0.2462  0.1096 -0.2121
 8236W        W12436   9.837   0.104  11.866 -0.2929  0.0542 -0.0831
 8237W        W12437   5.062  10.457   1.696 -0.1238  0.1052 -0.0915
 8238W        W12438   7.504   6.280  11.889 -0.2735  0.2581 -0.0361
 8239W        W12439   6.419   1.832   1.330 -0.1561 -0.0262 -0.4084
 8240W        W12440   3.261   6.494   3.562  0.1279  0.1947 -0.0115
 8241W        W12441  10.423   6.242  10.356 -0.2235  0.2273  0.0443
 8242W        W12442   4.329  10.000   2.497  0.0186 -0.0215 -0.2714
 8243W        W12443   9.551   9.405   2.914 -0.0014 -0.2666 -0.0506
 8244W        W12444   5.132   3.546   1.199 -0.1778  0.0054 -0.1503
 8245W        W12445   9.474   0.818  12.309 -0.0742 -0.2083  0.1870
 8246W        W12446   9.203   6.343   4.152  0.0875  0.3763  0.0582
 8247W        W12447   6.700   6.653   3.744  0.0901 -0.0219 -0.0858
 8248W        W12448   0.724   4.162  12.522 -0.1948  0.0014  0.2610
 8249W        W12449   5.362   6.961  11.051 -0.0285  0.5097 -0.0840
 8250W        W12450   2.628   9.921  13.413 -0.0337 -0.0682  0.1034
 8251W        W12451   3.129   7.086   9.820  0.0986  0.0456 -0.0277
 8252W        W12452   9.450   3.813  10.287  0.0125 -0.0461 -0.0965
 8253W        W12453   0.867   9.969   0.479  0.0433 -0.0476  0.0072
 8254W        W12454   3.492   0.561   2.323  0.0357  0.0939 -0.1977
 8255W        W12455   5.730   3.615   3.445 -0.1175  0.1047  0.0828
 8256W        W12456   5.573   9.666   2.323  0.1127 -0.2067 -0.0785
 8257W        W12457   8.629   1.028   1.806 -0.0235 -0.0729  0.1036
 8258W        W12458   1.527   6.016   3.482  0.1163 -0.0896  0.3762
 8259W        W12459   0.407   1.117   4.231 -0.3400  0.0270  0.0939
 8260W        W12460   6.288   7.549   1.371  0.0852 -0.0347  0.0454
 8261W        W12461   9.643   0.526  12.755 -0.0860  0.2954  0.4484
 8262W        W12462   2.891   7.850  12.130  0.1616  0.2976 -0.0051
 8263W        W12463   7.879   5.583   1.451 -0.1870  0.2892 -0.0083
 8264W        W12464  10.335   2.317  12.529 -0.0865  0.4241 -0.1165
 8265W        W12465   0.724   5.763   1.436  0.2871 -0.2469  0.1163
 8266W        W12466   4.284  10.297  13.332  0.3587 -0.0079  0.1602
 8267W        W12467  10.187   2.764   0.024 -0.3127  0.1335 -0.0830
 8268W        W12468   8.317   7.448   4.370 -0.3458 -0.1349  0.1223
 8269W        W12469   2.072   6.825   0.998  0.0917 -0.2184 -0.0926
 8270W        W12470   2.260   9.957  12.355 -0.2823 -0.1664 -0.0997
 8271W        W12471   6.693   0.045   3.456  0.0327  0.2764 -0.1976
 8272W        W12472   9.475   9.727   1.002  0.0709 -0.2340  0.1900
 8273W        W12473   3.073   6.819   4.220 -0.2440 -0.2300  0.1581
 8274W        W12474   4.975   6.732   1.172 -0.2405 -0.0189  0.1332
 8275W        W12475   0.458   4.330  12.928  0.1053 -0.0999 -0.1585
 8276W        W12476   3.403   2.649   3.967 -0.1053 -0.1847  0.2679
 8277W        W12477   4.085   8.847  12.120 -0.0763  0.0069 -0.0577
 8278W        W12478  10.167   9.708   1.532 -0.1748 -0.0307 -0.1429
 8279W        W12479   7.195   2.137   0.586 -0.1946 -0.4286  0.0290
 8280W        W12480   1.567   1.984   0.150 -0.0495  0.0110 -0.1912
 8281W        W12481   8.336   7.191  12.036  0.4278 -0.3777 -0.3214
 8282W        W12482   4.541   1.492  10.917  0.0036 -0.2376  0.0158
 8283W        W12483   1.770   1.094   1.855 -0.2147  0.0403  0.3192
 8284W        W12484   3.628   9.422  10.524  0.3204 -0.0104 -0.2945
 8285W        W12485   0.104   9.778   2.954 -0.0891  0.0706 -0.0219
 8286W        W12486   6.937  10.173  11.082  0.1120  0.0326  0.1097
 8287W        W12487   3.021   7.672  11.479 -0.0307 -0.0455  0.1694
 8288W        W12488   3.216   1.915   4.315 -0.0748 -0.2307 -0.4122
 8289W        W12489   0.028   9.139  12.777 -0.0435 -0.2142  0.4013
 8290W        W12490   6.690   3.138   1.185 -0.2529  0.0210  0.0427
 8291W        W12491   6.135   4.921  10.063 -0.0007 -0.2951  0.4497
 8292W        W12492   1.875   1.905   9.214 -0.0524 -0.1289  0.0184
 8293W        W12493   3.179   0.583   0.847  0.1200  0.1149 -0.3216
 8294W        W12494   4.822   9.812   9.194  0.2860  0.4311  0.0916
 8295W        W12495   2.876   5.439   2.706 -0.0830  0.2362 -0.0752
 8296W        W12496   4.343   5.061   9.507  0.1251  0.0830 -0.2150
 8297W        W12497   7.056   9.300   2.079 -0.5815  0.1984  0.0570
 8298W        W12498   7.781   6.441   0.197  0.1428 -0.0433  0.3357
 8299W        W12499   4.355   3.244  11.722 -0.2400  0.0172 -0.2290
 8300W        W12500   2.047   5.306   2.949 -0.3902 -0.0664 -0.0115
 8301W        W12501   1.804   7.547  12.403  0.3001  0.2138  0.1761
 8302W        W12502   4.274  10.194   4.161  0.2002 -0.1746  0.3619
 8303W        W12503   0.209   6.272   2.779  0.1295  0.1038  0.0383
 8304W        W12504   8.694   9.405  13.096 -0.1135 -0.1911  0.2690
 8305W        W12505   1.591   1.944   1.428  0.0329 -0.0304  0.2927
 8306W        W12506   2.082   5.358   0.533 -0.0899  0.1041 -0.3347
 8307W        W12507   5.724   7.556   4.010 -0.0100  0.0369  0.0345
 8308W        W12508   5.548   9.783  10.674  0.1488 -0.1639  0.1233
 8309W        W12509   0.568   5.435  12.572  0.3203  0.1867  0.1845
 8310W        W12510   5.987   5.579   3.472 -0.2176 -0.0368 -0.0301
 8311W        W12511   2.685   9.184   9.081 -0.3005  0.0841  0.0993
 8312W        W12512   8.224   2.276   8.170 -0.1324  0.1300  0.0294
 8313W        W12513   5.408   2.000  10.000 -0.0206 -0.2049  0.1185
 8314W        W12514   8.659   7.176   0.065 -0.1512  0.2288 -0.0006
 8315W        W12515   3.615   3.658   0.074 -0.4183 -0.0819 -0.1820
 8316W        W12516   4.296   7.405  10.279 -0.0802 -0.1185 -0.1619
 8317W        W12517  10.152   4.565  12.081 -0.1012  0.1344 -0.3054
 8318W        W12518   8.958   2.853  12.446 -0.5129  0.1382  0.0763
 8319W        W12519   5.913   9.938   2.090 -0.0887 -0.1841 -0.1081
 8320W        W12520   3.091   1.946   5.233 -0.1285  0.1997  0.0828
 8321W        W12521   2.270   1.666   8.885 -0.1948 -0.2195 -0.1729
 8322W        W12522   1.387   4.314   1.746  0.2158  0.1549 -0.0088
 8323W        W12523   4.744   5.449   4.431 -0.0090  0.2069 -0.0311
 8324W        W12524   9.243   6.732   3.308  0.2321 -0.3326 -0.0588
 8325W        W12525   6.325   3.293  13.320 -0.0091 -0.0578  0.2101
 8326W        W12526   1.767   5.117   3.524 -0.1978 -0.0428  0.2470
 8327W        W12527   4.555   4.257  12.272  0.0455 -0.3333 -0.3440
 8328W        W12528   3.821   0.840  12.314 -0.1446 -0.1933  0.1401
 8329W        W12529   6.022   4.055  13.004 -0.3421 -0.1125  0.0957
 8330W        W12530   3.417   9.514   3.958  0.1983 -0.0344  0.1745
 8331W        W12531  10.106   4.004  10.204  0.1020  0.2879  0.0762
 8332W        W12532   5.907  10.339   9.929  0.4364  0.1863  0.1154
 8333W        W12533   5.483   2.503   3.400  0.1902 -0.2187  0.1774
 8334W        W12534   9.411   2.492   2.333 -0.1219  0.1875  0.1937
 8335W        W12535  10.032   0.396  12.335  0.2563  0.0277 -0.2654
 8336W        W12536   9.806   7.028  10.334  0.1230 -0.1671  0.4207
 8337W        W12537   4.592   9.840   4.695 -0.0347 -0.0844 -0.2623
 8338W        W12538   2.549   0.049   2.745 -0.3619 -0.0769 -0.1956
 8339W        W12539   8.453   6.551   1.744  0.0606  0.0447 -0.0717
 8340W        W12540   7.685   3.614   0.423  0.2995 -0.5261  0.0318
 8341W        W12541   5.905   1.828   1.369  0.1809  0.2192 -0.0077
 8342W        W12542   6.094   5.671  10.829  0.2869  0.4866 -0.0912
 8343W        W12543   7.047   4.332   2.504  0.1045  0.1592  0.1717
 8344W        W12544   3.806   3.993   2.677  0.1473  0.0266  0.0595
 8345W        W12545   0.606   9.216   9.834 -0.0635 -0.2856 -0.2855
 8346W        W12546   9.144   4.716   9.923  0.1111  0.0400  0.2859
 8347W        W12547   3.030   8.327   1.408 -0.0887  0.2400  0.2285
 8348W        W12548   8.770   3.347  10.782  0.3359  0.0101  0.0996
 8349W        W12549   6.414   5.703  12.968 -0.2767 -0.0768  0.0836
 8350W        W12550   6.960   4.543  13.010 -0.1932 -0.0307 -0.3270
 8351W        W12551   6.926   1.708   1.228  0.1864  0.2042  0.1342
 8352W        W12552   2.494   2.666   2.986  0.1382 -0.2241 -0.2120
 8353W        W12553   7.555   4.485  12.800  0.1767  0.0027 -0.1104
 8354W        W12554   4.813   7.839   3.407 -0.1102  0.1227  0.0338
 8355W        W12555   6.872   0.207   2.192  0.0235 -0.0436 -0.2160
 8356W        W12556   7.117   6.159   1.121 -0.0393 -0.0360 -0.1264
 8357W        W12557   8.422   3.207   0.665 -0.1893  0.0128 -0.1347
 8358W        W12558   2.691   0.590   2.647 -0.1656 -0.3355 -0.1976
 8359W        W12559   4.283   2.020   2.326  0.1045 -0.0677  0.1443
 8360W        W12560   9.117   8.839   3.003  0.2724 -0.1807  0.0798
 8361W        W12561   3.627   1.771  12.058  0.2529 -0.3255  0.0589
 8362W        W12562   2.342   7.198   2.576 -0.1065  0.2967  0.2643
 8363W        W12563   6.700   1.090  10.910  0.4635  0.2729  0.1227
 8364W        W12564   5.691   4.525  11.762  0.1848  0.2152  0.0608
 8365W        W12565   2.385   8.599  11.146  0.1795  0.2708 -0.1713
 8366W        W12566   5.244   4.446   9.300 -0.0419 -0.1821 -0.0666
 8367W        W12567   4.625   2.956   2.972 -0.1969 -0.1349 -0.1368
 8368W        W12568   4.811   1.673   2.179 -0.1254  0.0993  0.1373
 8369W        W12569   8.562   7.493   1.802 -0.2676  0.1851 -0.0992
 8370W        W12570   0.175   8.567   4.412 -0.3430 -0.2518  0.1307
 8371W        W12571   9.489   9.151   3.813  0.0530 -0.0559  0.2877
 8372W        W12572   0.340   5.314   4.159  0.1774  0.2424  0.2090
 8373W        W12573   8.464   5.338   2.830  0.0161 -0.1605 -0.4068
 8374W        W12574   2.513   4.284   3.782 -0.2800 -0.0290 -0.0392
 8375W        W12575   5.374   3.311  12.920  0.0846  0.0826  0.2013
 8376W        W12576   1.011   8.896   2.149  0.0324  0.1112  0.0850
 8377W        W12577   2.333   5.861   9.780 -0.1009 -0.2637  0.0015
 8378W        W12578   0.590   0.389  11.173  0.1420  0.1609 -0.2958
 8379W        W12579   5.138   0.607   3.110 -0.2226 -0.1353  0.1582
 8380W        W12580   9.043   0.276  13.402 -0.4167  0.1757 -0.0760
 8381W        W12581   4.913   1.277   9.928 -0.1091  0.0571  0.1009
 8382W        W12582   7.026   2.809  11.876  0.3373  0.1815 -0.1181
 8383W        W12583   4.150   1.327   0.476 -0.1433 -0.0357 -0.2463
 8384W        W12584   1.072   8.184  11.603  0.0981  0.2079 -0.0843
 8385W        W12585   1.777   4.511   2.050 -0.0431 -0.1295  0.0801
 8386W        W12586   0.945   3.034   1.761  0.2825  0.1510 -0.2038
 8387W        W12587   4.342   8.798   4.936 -0.0275  0.1501 -0.3159
 8388W        W12588   0.203   4.117   2.249  0.0715  0.1639 -0.0188
 8389W        W12589   3.258   1.139  11.548  0.0917  0.1710 -0.1395
 8390W        W12590   4.306   9.746   9.067  0.0154 -0.1241  0.2778
 8391W        W12591   5.807   7.388   3.400 -0.0245  0.2225  0.2780
 8392W        W12592   6.864   1.241   3.416 -0.2203 -0.1051  0.1189
 8393W        W12593   4.885   0.037   4.733 -0.3898  0.0159 -0.1823
 8394W        W12594   8.132   5.742   9.708 -0.4459  0.1093  0.2170
 8395W        W12595   7.853   7.615  12.477  0.2702  0.0691  0.0876
 8396W        W12596   7.454   0.379  13.365 -0.0065  0.0113 -0.2759
 8397W        W12597   3.878   4.876   1.527  0.1001  0.1327 -0.3671
 8398W        W12598   5.597   3.360  12.026 -0.2292  0.2024  0.0767
 8399W        W12599   3.332   1.614   3.945  0.1645 -0.1398  0.2126
 8400W        W12600   8.106   2.628   2.513  0.1180  0.1299  0.1217
 8401W        W12601   7.314   9.225  10.717 -0.1200 -0.3329 -0.2377
 8402W        W12602   6.555   1.233  11.323  0.3779 -0.1823 -0.2652
 8403W        W12603   1.558   6.336   0.330  0.0515 -0.0052 -0.0267
 8404W        W12604   1.022   3.805  10.307  0.0807 -0.2298 -0.4688
 8405W        W12605   9.488   1.109  10.984  0.1466  0.1940 -0.1816
 8406W        W12606   9.146  10.153   3.575  0.5375  0.0371  0.0511
 8407W        W12607   7.566   1.773   1.523 -0.1702  0.4176  0.3500
 8408W        W12608   0.828   8.456  10.265 -0.1008 -0.1905 -0.1217
 8409W        W12609   0.332   5.938  11.365  0.0645 -0.0576  0.0055
 8410W        W12610   3.784   1.660   0.201  0.0715  0.0076 -0.2129
 8411W        W12611   8.657   4.839   1.415  0.2871  0.0426  0.0418
 8412W        W12612   7.602   1.274  12.334  0.2213 -0.2107 -0.3491
 8413W        W12613   7.296   0.487  10.640 -0.0399 -0.4191 -0.3102
 8414W        W12614   1.996   0.374   0.631  0.0852  0.2123 -0.0883
 8415W        W12615   8.171   9.801   1.496  0.2089  0.0682  0.0447
 8416W        W12616   0.474   1.566   9.430  0.1720 -0.1265 -0.1563
 8417W        W12617   0.192   2.939   0.802 -0.0238  0.1092 -0.1779
 8418W        W12618   6.998   6.275   2.097  0.2188 -0.0769  0.0771
 8419W        W12619   3.169   3.801   2.738 -0.1315 -0.3380 -0.2328
 8420W        W12620   9.928   9.141   4.104  0.1426 -0.0726 -0.4092
 8421W        W12621   1.102   8.767   0.762 -0.0043  0.1456  0.1570
 8422W        W12622   2.152   2.791   8.651  0.0125 -0.1032 -0.1532
 8423W        W12623   5.503   5.372   9.594  0.3110 -0.0421 -0.0746
 8424W        W12624   4.282   6.494  10.544 -0.1056  0.2741  0.3834
 8425W        W12625   1.934  10.280  11.548 -0.3239  0.2258 -0.2029
 8426W        W12626   8.546   7.008   0.515 -0.0029 -0.1610  0.3907
 8427W        W12627   5.613   5.473   3.784  0.1010 -0.3023 -0.1919
 8428W        W12628   8.875   4.906  11.507  0.0733 -0.1824  0.0165
 8429W        W12629   4.666   2.926  12.000 -0.0327  0.1939  0.0304
 8430W        W12630   2.310   1.178  11.367  0.0372  0.1331 -0.0411
 8431W        W12631   5.693   2.322  10.280 -0.0120  0.1172  0.1855
 8432W        W12632   1.374   7.222   9.178  0.0504  0.1661 -0.2508
 8433W        W12633   5.599   1.319   1.343  0.0794  0.2028 -0.0104
 8434W        W12634   5.584   8.522  11.258  0.1124  0.3181  0.2761
 8435W        W12635   3.256   8.179  10.786 -0.0240 -0.3092  0.1879
 8436W        W12636   2.703   3.491  11.600  0.3081  0.0291  0.1304
 8437W        W12637   8.581   1.514   4.060 -0.0212 -0.2823  0.1504
 8438W        W12638   0.127   7.222  10.960 -0.0417  0.2172 -0.4835
 8439W        W12639   6.480   1.199   9.696  0.0441  0.0719 -0.0044
 8440W        W12640   8.321   5.395  10.261 -0.3701 -0.2131  0.1386
 8441W        W12641   5.219   2.579  12.622  0.0049 -0.0105  0.1541
 8442W        W12642   4.530   6.813   9.038 -0.3300 -0.0168  0.1630
 8443W        W12643   7.412   9.098   4.438  0.2336  0.0207  0.0434
 8444W        W12644   1.479   1.276  13.033 -0.1869  0.0302  0.0281
 8445W        W12645   2.647   7.440   3.510  0.2491  0.2404 -0.5690
 8446W        W12646   5.897   8.583   1.263  0.0962 -0.1149  0.0385
 8447W        W12647   6.286  10.286  10.244 -0.2895  0.2066 -0.0516
 8448W        W12648   7.367   4.031   2.087  0.2587  0.1542 -0.3223
 8449W        W12649   6.971   0.412   3.094  0.2307  0.0395  0.1298
 8450W        W12650   4.129   6.634   3.160  0.1100  0.2225 -0.1057
 8451W        W12651   6.085   2.798   0.330  0.1082  0.1017  0.1336
 8452W        W12652   1.752  10.478   1.372  0.3329 -0.1666  0.1918
 8453W        W12653   4.649   6.460  13.328 -0.0050 -0.2932 -0.4544
 8454W        W12654   1.823   1.194  11.600 -0.1677 -0.1125  0.0323
 8455W        W12655   2.763   9.306  10.386 -0.0581  0.1608  0.0786
 8456W        W12656   7.556   7.953   5.008  0.3837 -0.0353  0.2258
 8457W        W12657   2.749   2.948  12.846 -0.1098 -0.1781 -0.0894
 8458W        W12658   8.792   5.916  12.602  0.0056 -0.0389  0.1249
 8459W        W12659   8.751   8.103   4.340  0.0293  0.2474  0.2979
 8460W        W12660   7.873   0.367   0.240 -0.1109  0.1945  0.0127
 8461W        W12661   1.338   8.627  12.165 -0.0220  0.0330  0.1203
 8462W        W12662   7.449   5.693   1.242  0.0763 -0.0303 -0.2104
 8463W        W12663   2.961   9.542   2.568  0.0675  0.0665  0.0818
 8464W        W12664   2.715   2.293   4.813 -0.0209 -0.2991  0.2288
 8465W        W12665   6.166   6.226   0.213  0.0248 -0.0090 -0.1693
 8466W        W12666   1.495   8.340   0.746 -0.2384 -0.0294  0.0505
 8467W        W12667   8.286   7.777   9.071 -0.2551 -0.1975 -0.0935
 8468W        W12668   0.276   6.788  11.875  0.0833 -0.2042 -0.2056
 8469W        W12669   8.281   4.756   2.283 -0.3663  0.0034 -0.3174
 8470W        W12670   6.510   8.613  11.656 -0.0279 -0.5412  0.0159
 8471W        W12671   0.690   8.270   3.312  0.0140  0.1236  0.0446
 8472W        W12672   4.297   1.477   3.042  0.1218 -0.0899 -0.2900
 8473W        W12673   9.265   5.250  12.309  0.0913 -0.0081  0.1672
 8474W        W12674   1.598   6.162   4.042  0.0499 -0.0813 -0.0234
 8475W        W12675   6.852   7.183   1.185 -0.0775 -0.3284 -0.1612
 8476W        W12676   3.918   6.191  11.252  0.0149 -0.1133 -0.0092
 8477W        W12677   6.527   9.275   0.901 -0.1702 -0.2815 -0.1074
 8478W        W12678   9.064  10.376   2.958 -0.0545  0.1568  0.0956
 8479W        W12679   3.523   7.748   0.273  0.1133  0.2103  0.0795
 8480W        W12680   9.884   6.044   1.699  0.2566 -0.1123 -0.1805
 8481W        W12681   0.885   9.224   3.923 -0.2956  0.2227 -0.1787
 8482W        W12682   0.559   7.109   1.795  0.1186 -0.0464 -0.0057
 8483W        W12683   5.794   9.122  13.392 -0.3857 -0.1017  0.0140
 8484W        W12684   1.352   3.067   9.773 -0.3262  0.0107 -0.1006
 8485W        W12685  10.323   4.957   2.527 -0.4721  0.2826 -0.3071
 8486W        W12686   1.302   7.212  12.030  0.0321  0.2348  0.0998
 8487W        W12687   6.758   4.617  12.057 -0.2235  0.2968 -0.1658
 8488W        W12688   0.882   8.612   0.334  0.5101  0.1574  0.0558
 8489W        W12689   7.389   7.725  11.698  0.0674  0.3329  0.2288
 8490W        W12690   5.873   7.429   9.448  0.1818  0.3483  0.1913
 8491W        W12691   2.696   6.392  11.403 -0.2785  0.1569 -0.0476
 8492W        W12692   7.610   2.806   0.280  0.0515  0.0900 -0.2483
 8493W        W12693   7.694   2.031  11.873 -0.0121  0.0830  0.0706
 8494W        W12694   7.409   2.650   2.074  0.0117  0.2163 -0.3628
 8495W        W12695   7.284   7.677   2.328 -0.0157  0.0891  0.2234
 8496W        W12696   0.905   4.249   9.924 -0.0106 -0.1360  0.1373
 8497W        W12697   4.819   7.333   2.314  0.3348  0.0073 -0.1520
 8498W        W12698   6.433   7.562  12.858 -0.0640  0.1115  0.3604
 8499W        W12699   2.341   8.397  12.480 -0.0338 -0.0127 -0.0616
 8500W        W12700   3.205   4.567   3.230 -0.0407  0.0920  0.0857
 8501W        W12701   6.554   4.527  11.339 -0.0059 -0.1102 -0.0351
 8502W        W12702   4.653   1.236   0.716 -0.1826  0.1159 -0.2743
 8503W        W12703   6.650   9.978  11.439 -0.1575 -0.0233 -0.1032
 8504W        W12704   2.606   8.712   0.826 -0.2813  0.2217 -0.0534
 8505W        W12705   1.530   9.783   8.684 -0.5841  0.3573 -0.1180
 8506W        W12706   3.806   4.324   0.763 -0.0456  0.2873  0.1787
 8507W        W12707   5.262   2.383   4.015 -0.2717 -0.2060 -0.1776
 8508W        W12708   5.711   9.874   0.658  0.0478  0.3027  0.0724
 8509W        W12709   9.981   9.733   0.158 -0.1897 -0.3688  0.1233
 8510W        W12710   0.221   5.642   2.479  0.0954 -0.2343 -0.0264
 8511W        W12711   7.214   2.656   0.500  0.0099 -0.0747  0.0274
 8512W        W12712   1.445   2.887   1.619 -0.1689  0.1728  0.0384
 8513W        W12713   6.405   2.356   1.036  0.2951  0.0640  0.0963
 8514W        W12714   7.217   6.016  10.017 -0.0776 -0.1770  0.1048
 8515W        W12715   8.016   5.631  11.684  0.0005 -0.0420  0.1693
 8516W        W12716   4.829   0.985   3.065  0.0130 -0.0452 -0.0926
 8517W        W12717   5.611   4.265  13.074  0.1439 -0.0145  0.0001
 8518W        W12718   4.774   9.809  12.697 -0.0147 -0.0139  0.1109
 8519W        W12719   6.049   0.688   5.185  0.0898 -0.0642  0.1468
 8520W        W12720   9.919   4.172   0.680  0.0256  0.1754  0.0567
 8521W        W12721   2.431   2.562  10.517  0.0280 -0.0765  0.3402
 8522W        W12722   8.491   6.035   1.862  0.3624 -0.1432  0.0394
 8523W        W12723   6.018   2.066   0.833  0.0839 -0.2229  0.1543
 8524W        W12724   9.772   0.751   0.121  0.0368 -0.0508  0.2236
 8525W        W12725   4.661   8.488   0.524  0.0139  0.0793  0.1992
 8526W        W12726   8.923   8.166   3.725 -0.1272 -0.0748  0.2413
 8527W        W12727   0.141   1.526   2.688  0.1584 -0.1799  0.0428
 8528W        W12728   6.919   5.180  10.698  0.3008  0.1367  0.3130
 8529W        W12729   8.882   9.486  10.258  0.0994 -0.4595 -0.0809
 8530W        W12730   1.573   9.437  11.791  0.0352  0.0269  0.1680
 8531W        W12731   5.534   4.421   8.898 -0.1049 -0.1834 -0.0136
 8532W        W12732   5.764   5.358  12.502 -0.1035  0.0855 -0.2598
 8533W        W12733   8.211   7.058   3.298 -0.0985  0.2422  0.0673
 8534W        W12734   1.251   9.736  10.065  0.0083 -0.0057 -0.0330
 8535ION    NA+12735   1.085   2.873   4.119 -0.0872 -0.0130  0.2614
 8536ION    NA+12736   5.339   8.770   5.013 -0.4183 -0.0343 -0.0314
 8537ION    NA+12737  10.366   0.743   9.623  0.0076  0.2417  0.0583
 8538ION    NA+12738   3.655   7.484   4.384 -0.0900 -0.1429  0.0205
 8539ION    NA+12739   6.098   9.781   9.075  0.3325 -0.0947  0.0128
 8540ION    NA+12740   8.129   8.608   0.713 -0.0745  0.1247  0.1207
 8541ION    NA+12741   1.813   3.950   2.122 -0.0248  0.3822 -0.0330
 8542ION    NA+12742   5.304   9.664   9.712 -0.1170 -0.0546  0.0907
 8543ION    NA+12743   2.970   2.423   9.249  0.0243  0.0936 -0.0047
 8544ION    NA+12744   4.503   7.105   4.633  0.2394 -0.1064 -0.0040
 8545ION    NA+12745   4.038   1.960   0.556  0.3449  0.2873 -0.7578
 8546ION    NA+12746   9.217   3.030   0.265  0.2295  0.0107 -0.1888
 8547ION    NA+12747   6.262   6.663  12.847 -0.1439 -0.2740  0.2477
 8548ION    NA+12748   2.603   2.774  11.336 -0.2100 -0.2496 -0.0482
 8549ION    NA+12749   5.492   0.576  10.529  0.0204 -0.0364 -0.0658
 8550ION    NA+12750   3.942   0.555   0.775 -0.1584  0.1318  0.4457
 8551ION    NA+12751   5.081   5.653  10.804  0.1841  0.2046 -0.0938
 8552ION    NA+12752   8.709   0.322   3.994 -0.2314  0.0930 -0.0828
 8553ION    NA+12753   1.007   4.718  10.195  0.1245 -0.1712 -0.1261
 8554ION    NA+12754   0.432   3.856   3.057 -0.1063  0.1802  0.2817
 8555ION    NA+12755   5.546   7.935   9.588  0.1758 -0.2086 -0.1909
 8556ION    NA+12756  10.305   7.790   9.309  0.4588  0.0317  0.1838
 8557ION    NA+12757   6.241   0.863   2.128 -0.0393  0.0118 -0.0364
 8558ION    NA+12758   6.041   1.086  11.186 -0.0680 -0.0207 -0.0891
 8559ION    NA+12759   8.795   4.060   0.939  0.1810 -0.0227  0.0974
 8560ION    NA+12760   8.232   3.269   2.099 -0.1593  0.2830 -0.1894
 8561ION    NA+12761   9.602   5.435   8.895  0.0317  0.0857  0.3212
 8562ION    NA+12762   8.529   8.757  10.925  0.0114 -0.0626  0.0696
 8563ION    NA+12763   0.810   4.778   1.846  0.0886 -0.3879  0.0968
 8564ION    NA+12764   2.110   8.102   1.419 -0.1159 -0.0007 -0.0032
 8565ION    NA+12765   7.590   8.349   8.477 -0.1862 -0.4344  0.1511
 8566ION    NA+12766   7.511   3.223  12.675 -0.3733  0.2311  0.1069
 8567ION    NA+12767   5.407   8.351  12.178  0.4175  0.0068 -0.2287
 8568ION    NA+12768   7.306   9.417   1.318 -0.1139 -0.1665 -0.1379
 8569ION    NA+12769   3.393   2.125   1.299  0.1966 -0.0704  0.0277
 8570ION    NA+12770   6.963   5.670   1.474  0.3118 -0.1351 -0.2572
 8571ION    NA+12771   4.184   8.765   1.926 -0.0845 -0.2367 -0.2178
 8572ION    NA+12772   3.860  10.185  11.253 -0.1251 -0.3457  0.2086
 8573ION    NA+12773   2.368   2.733  12.407 -0.0309 -0.0648  0.2408
 8574ION    NA+12774   0.542   5.385   0.457 -0.1563  0.2466 -0.2049
 8575ION    NA+12775   2.411   0.805  12.099 -0.2125 -0.0811  0.4635
 8576ION    NA+12776   8.459   7.247   5.074  0.1749  0.2035 -0.0665
 8577ION    NA+12777   0.118   5.692   8.983  0.1611  0.0035  0.0796
 8578ION    NA+12778   1.797   9.961  10.621 -0.0337  0.0138  0.0179
 8579ION    NA+12779   9.325   6.922   5.303  0.2013  0.4182  0.4000
 8580ION    NA+12780   6.387   3.424  12.450  0.1133 -0.3155 -0.1839
 8581ION    NA+12781   2.393   5.511   1.646  0.0066 -0.1965  0.0385
 8582ION    NA+12782   1.382   8.422   3.960 -0.1639  0.2567  0.3509
 8583ION    NA+12783   3.759   4.347   8.616  0.0153  0.2899 -0.2189
 8584ION    NA+12784   4.734   9.733  11.915 -0.0480 -0.1619  0.1432
 8585ION    NA+12785   4.474   8.264   8.855  0.1789 -0.1490  0.1448
 8586ION    NA+12786   9.120   1.888   0.296 -0.1629  0.2949  0.1529
 8587ION    NA+12787   7.733  10.259   3.149 -0.0589  0.2501  0.3235
 8588ION    NA+12788   1.037   0.232   4.822  0.1892  0.0223  0.0644
 8589ION    NA+12789   4.446   8.847  10.334  0.0043  0.2325 -0.0146
 8590ION    NA+12790   0.188   7.028   9.911 -0.0263  0.1051  0.0809
 8591ION    NA+12791   8.695   3.005   9.941 -0.3172  0.0062  0.2322
 8592ION    NA+12792   1.848   6.606   5.038  0.1946  0.1836  0.0826
 8593ION    NA+12793   1.766   6.086  12.623 -0.0764 -0.0481 -0.2356
 8594ION    NA+12794   9.250   3.220  10.840  0.4499 -0.0241 -0.3207
 8595ION    NA+12795   6.226   9.830   9.867 -0.2822 -0.1098  0.1740
 8596ION    NA+12796   1.106   4.105   0.159 -0.0254  0.1583  0.1629
 8597ION    NA+12797   9.110   8.118  12.424 -0.1745 -0.3832 -0.3901
 8598ION    NA+12798   2.492   5.814   5.108  0.3743 -0.3268  0.1998
 8599ION    NA+12799   9.791   1.757   3.613 -0.0549 -0.2800  0.0808
 8600ION    NA+12800   1.771   0.217  11.704 -0.0121 -0.4782  0.0639
 8601ION    NA+12801   1.462   1.066   8.862 -0.1623  0.0441 -0.3275
 8602ION    NA+12802   2.981   7.089   1.414  0.1033  0.2162 -0.2068
 8603ION    NA+12803   1.179   2.578  11.699  0.1246  0.4938 -0.0894
 8604ION    NA+12804   8.804   7.894   0.541  0.0636  0.2626  0.1971
 8605ION    NA+12805   9.731  10.001  10.557  0.3547 -0.0148  0.0787
 8606ION    NA+12806   0.980  10.089  11.428  0.0132  0.0806 -0.0743
 8607ION    NA+12807   4.036   6.353   8.864  0.2351  0.0802 -0.0019
 8608ION    NA+12808   8.562   9.337   2.312 -0.0894  0.1372  0.0787
 8609ION    NA+12809   9.116   5.339   2.230 -0.1662 -0.0584  0.2106
 8610ION    NA+12810   5.262   4.079   1.313 -0.2548 -0.1186  0.2848
 8611ION    NA+12811   3.693   2.235   0.127 -0.1085 -0.3203  0.0485
 8612ION    NA+12812   0.048  10.383   9.189  0.0702 -0.0802 -0.1285
 8613ION    NA+12813   5.278   0.375   1.864  0.1070  0.0558 -0.1772
 8614ION    NA+12814   3.646   6.688   4.965 -0.2979 -0.0553  0.0254
 8615ION    NA+12815   9.502   6.932   8.224  0.3505  0.3759 -0.2253
 8616ION    NA+12816   1.833   3.357  11.570 -0.0467 -0.0330 -0.0413
 8617ION    NA+12817  10.085   5.506  12.999 -0.2553  0.1259  0.5048
 8618ION    NA+12818   1.153   3.123   0.604 -0.2195  0.0516 -0.3428
 8619ION    NA+12819   1.942   9.462   4.894  0.3568 -0.2714 -0.2732
 8620ION    NA+12820   0.115   4.831  10.504  0.1765  0.0348 -0.3029
 8621ION    NA+12821   6.385   8.999   3.189 -0.1992 -0.1131  0.1566
 8622ION    NA+12822   1.444   9.109   3.038 -0.1905  0.0193 -0.0961
 8623ION    NA+12823   0.135   8.109   3.483  0.0960  0.0552  0.0955
 8624ION    NA+12824   0.595   1.061   0.352  0.0650  0.0810 -0.3457
 8625ION    CL-12825   4.998   8.467  11.934 -0.1204  0.0987  0.1710
 8626ION    CL-12826   4.036   5.419   9.116  0.0564 -0.0172  0.3798
 8627ION    CL-12827  10.290   4.895   3.671  0.1582 -0.0277 -0.0760
 8628ION    CL-12828   6.706   8.918   2.763 -0.1291 -0.0542 -0.0143
 8629ION    CL-12829   8.966   8.403   0.522 -0.1281  0.0990 -0.1299
 8630ION    CL-12830   5.531   4.481   9.779  0.2588 -0.0570 -0.1203
 8631ION    CL-12831   7.477   3.712  12.673  0.0497  0.4128  0.2908
 8632ION    CL-12832   9.251   1.585   2.695 -0.0804 -0.0326  0.1756
 8633ION    CL-12833   5.276   5.209  11.042  0.2432  0.0404  0.0040
 8634ION    CL-12834   3.879   2.092   1.101 -0.0208 -0.0115 -0.1109
 8635ION    CL-12835   2.490   3.035   4.302  0.1932  0.1760 -0.2482
 8636ION    CL-12836   7.197   5.062  11.333  0.0364  0.1074  0.0461
 8637ION    CL-12837   0.533   6.771   4.121 -0.1827 -0.1074 -0.0781
 8638ION    CL-12838   9.139   8.667  12.671  0.0501  0.0119  0.1399
 8639ION    CL-12839   7.040   3.332   1.516  0.0840 -0.2804  0.1272
 8640ION    CL-12840   6.031   3.664  12.115 -0.2674 -0.4365 -0.0025
 8641ION    CL-12841   1.549   8.096  10.022  0.0120  0.0646 -0.1100
 8642ION    CL-12842   4.025   9.453  10.870  0.1471 -0.4579  0.0290
 8643ION    CL-12843   8.474   8.701   2.060 -0.3421 -0.2905  0.1058
 8644ION    CL-12844   5.736   0.895  10.776  0.1013 -0.0860  0.0651
 8645ION    CL-12845   0.506   8.119   0.453  0.1386  0.0381 -0.1419
 8646ION    CL-12846   8.330   3.935   1.100  0.2460 -0.4428 -0.0237
 8647ION    CL-12847   8.077   9.427   2.439  0.0707 -0.0624 -0.0798
 8648ION    CL-12848   9.805   5.870  12.870 -0.1554 -0.1901 -0.0159
 8649ION    CL-12849   8.152   8.938  10.643  0.0709  0.3203 -0.0810
 8650ION    CL-12850   0.422   3.062   2.755  0.0063 -0.1379 -0.5827
 8651ION    CL-12851   2.197   3.787   1.802  0.2995  0.0105 -0.1908
 8652ION    CL-12852   8.971   5.969   9.497  0.0151  0.1461 -0.1930
 8653ION    CL-12853   5.002   6.977   2.662 -0.1892  0.0886  0.2878
 8654ION    CL-12854   0.066   4.013   2.748 -0.3036 -0.1370  0.1093
 8655ION    CL-12855   5.037   9.341  10.081  0.1997  0.0283 -0.0438
 8656ION    CL-12856   8.916   6.239   3.206 -0.0149 -0.1490  0.0602
 8657ION    CL-12857   5.090   9.499  11.554 -0.1465 -0.1816  0.2134
 8658ION    CL-12858  10.025   9.191   3.232 -0.0210 -0.1433 -0.2828
 8659ION    CL-12859   7.647  10.338   3.613  0.1106  0.2589 -0.0648
 8660ION    CL-12860   3.387   4.172   3.002 -0.1798 -0.3060 -0.0050
 8661ION    CL-12861   9.597   8.191  12.437 -0.2492 -0.1497  0.0443
 8662ION    CL-12862  10.163   6.700  10.457 -0.2785  0.2654 -0.0490
 8663ION    CL-12863   7.082   8.383   0.050  0.0653 -0.0051 -0.0187
 8664ION    CL-12864   3.188   7.048   0.982  0.2520  0.1136  0.0465
 8665ION    CL-12865   0.612   5.015  10.343  0.0709 -0.1920 -0.1866
 8666ION    CL-12866   0.354   5.174   2.547  0.0589 -0.1450  0.1942
 8667ION    CL-12867   8.644   7.266   9.241  0.1218 -0.2406  0.0241
 8668ION    CL-12868   2.882  10.221   4.016 -0.1039  0.3666  0.1467
 8669ION    CL-12869   6.388   5.673   2.269  0.0300 -0.1189 -0.2436
 8670ION    CL-12870   8.303   3.745   2.298 -0.1582  0.2363 -0.2418
 8671ION    CL-12871   9.165   5.467   1.710  0.1729 -0.0848  0.0253
 8672ION    CL-12872   8.850   6.258   4.501 -0.0500 -0.2286 -0.2426
 8673ION    CL-12873   1.370   4.277   0.491 -0.2064 -0.1667  0.1369
 8674ION    CL-12874   4.933   0.576  10.508 -0.0373 -0.2222 -0.0068
 8675ION    CL-12875   1.436   5.682   4.220  0.1840 -0.3189 -0.0497
 8676ION    CL-12876   2.643   2.590  11.867  0.0070  0.1493 -0.1915
 8677ION    CL-12877   0.939   5.527   0.170 -0.0089 -0.4626  0.1855
 8678ION    CL-12878   9.547  10.081   0.258 -0.0766  0.4341 -0.2955
 8679ION    CL-12879   3.504   4.975   4.723  0.3406 -0.0408  0.1476
 8680ION    CL-12880  10.446   7.343   9.161  0.0149  0.0109  0.1460
 8681ION    CL-12881   1.503   9.650   3.134 -0.3044  0.2388  0.1510
 8682ION    CL-12882   1.050   7.637   1.503 -0.0456 -0.0122 -0.2730
 8683ION    CL-12883   4.129   2.002  13.381 -0.0088 -0.1171  0.1114
 8684ION    CL-12884   5.675   2.133   1.764  0.1117 -0.0326 -0.4338
 8685ION    CL-12885   5.651   0.623   1.999 -0.0486 -0.1679  0.1879
 8686ION    CL-12886   2.282   3.236  11.382 -0.1996 -0.0605  0.0291
 8687ION    CL-12887   7.362   7.946   3.635 -0.1068 -0.0196 -0.2754
 8688ION    CL-12888   0.133   0.441   9.942  0.0145 -0.0504  0.2967
 8689ION    CL-12889   0.511  10.008  11.325  0.2613  0.0452  0.0043
 8690ION    CL-12890   6.011  10.035   9.486  0.1240 -0.0886 -0.0249
 8691ION    CL-12891   9.413   3.258  13.337  0.2333  0.1420  0.0294
 8692ION    CL-12892   4.861   1.040   9.051 -0.0687  0.1154  0.0733
 8693ION    CL-12893   5.925   2.441   2.978 -0.0325  0.1218  0.0711
 8694ION    CL-12894   9.123   7.809   4.072 -0.1518  0.1978  0.0183
 8695ION    CL-12895   3.960   8.964   0.023 -0.0347  0.3300 -0.0447
 8696ION    CL-12896   2.006   8.203   3.963 -0.2772  0.2404 -0.0113
 8697ION    CL-12897   0.298   7.880   9.683 -0.0408  0.1858 -0.1667
 8698ION    CL-12898   5.732   4.294   1.175  0.0384  0.0345  0.0315
 8699ION    CL-12899   2.032   6.442   1.960  0.1277  0.0541 -0.2361
 8700ION    CL-12900   1.529   3.012  11.781  0.2321  0.1489 -0.1433
 8701ION    CL-12901   3.933   4.250  10.584  0.0613  0.0026 -0.0648
 8702ION    CL-12902   1.770   1.599   3.719  0.1658  0.4561 -0.1026
 8703ION    CL-12903   8.037   0.095   2.876  0.1399 -0.4036  0.2078
 8704ION    CL-12904   3.539   0.408   0.377  0.1729 -0.0061 -0.0775
 8705ION    CL-12905   6.729   8.973   9.851 -0.5352 -0.1489  0.0853
 8706ION    CL-12906   1.513  10.160  11.306 -0.3219  0.0083  0.1322
 8707ION    CL-12907   1.970   0.278  12.241 -0.0806  0.0445 -0.0987
 8708ION    CL-12908   9.702   3.434  10.959 -0.3284 -0.2832 -0.0790
 8709ION    CL-12909   6.500   6.720   2.783  0.3259 -0.0161  0.1860
 8710ION    CL-12910   0.752   0.437   3.741  0.1433  0.5053  0.0959
 8711ION    CL-12911   2.295   4.568   4.203  0.0551  0.1298  0.1948
 8712ION    CL-12912   9.354   2.686   0.585  0.2124 -0.1076 -0.1030
 8713ION    CL-12913   2.663   3.835  10.672 -0.0060 -0.0783  0.0237
 8714ION    CL-12914   4.764   1.281  11.700 -0.2650  0.0155  0.1599
  10.49099  10.49099  13.42264
