Protein in INSANE! Membrane UpperLeaflet>POPC=1.0 LowerLeaflet>POPC=1.0
10365
    1AU     AUC    1   5.045   5.056   5.983
    1AU     AUC    2   5.196   4.870   5.742
    1AU     AUC    3   5.344   5.052   5.988
    1AU     AUC    4   4.722   5.085   5.965
    1AU     AUC    5   4.901   5.252   6.221
    1AU     AUC    6   4.898   5.295   5.907
    1AU     AUC    7   5.192   5.136   5.740
    1AU     AUC    8   4.917   4.948   6.225
    1AU     AUC    9   5.207   4.813   6.109
    1AU     AUC   10   5.221   5.087   6.274
    1AU     AUC   11   5.196   5.297   6.080
    1AU     AUC   12   4.904   4.796   5.905
    1AU     AUC   13   4.902   5.040   5.671
    1AU     AUC   14   5.362   4.686   5.511
    1AU     AUC   15   5.566   4.831   5.752
    1AU     AUC   16   5.679   5.052   5.961
    1AU     AUC   17   4.379   5.089   5.944
    1AU     AUC   18   4.538   5.314   6.194
    1AU     AUC   19   4.746   5.467   6.465
    1AU     AUC   20   4.742   5.541   5.800
    1AU     AUC   21   5.005   5.475   5.635
    1AU     AUC   22   5.334   5.335   5.474
    1AU     AUC   23   4.744   4.856   6.447
    1AU     AUC   24   5.065   4.652   6.379
    1AU     AUC   25   5.355   4.529   6.230
    1AU     AUC   26   5.394   5.093   6.567
    1AU     AUC   27   5.411   5.345   6.362
    1AU     AUC   28   5.361   5.590   6.150
    1AU     AUC   29   4.792   4.511   5.820
    1AU     AUC   30   4.746   4.790   5.557
    1AU     AUC   31   4.745   5.119   5.408
    1AU     AUC   32   5.580   5.076   6.282
    1AU     AUC   33   5.560   5.367   6.003
    1AU     AUC   34   5.059   4.598   5.608
    1AU     AUC   35   5.085   4.900   5.362
    1AU     AUC   36   5.059   5.285   6.533
    1AU     AUC   37   5.051   5.538   6.397
    1AU     AUC   38   4.561   4.766   5.847
    1AU     AUC   39   4.543   5.081   5.702
    1AU     AUC   40   5.392   5.031   5.447
    1AU     AUC   41   5.521   5.215   5.693
    1AU     AUC   42   4.524   5.334   5.822
    1AU     AUC   43   4.731   5.548   6.191
    1AU     AUC   44   5.345   4.593   5.861
    1AU     AUC   45   5.541   4.742   6.131
    1AU     AUC   46   4.521   4.980   6.208
    1AU     AUC   47   4.680   5.168   6.464
    1AU     AUC   48   5.020   5.649   6.069
    1AU     AUC   49   5.330   5.484   5.819
    1AU     AUC   50   5.030   4.970   6.546
    1AU     AUC   51   5.360   4.811   6.480
    1AU     AUC   52   4.700   5.340   5.550
    1AU     AUC   53   5.061   5.193   5.396
    1AU     AUC   54   4.773   4.658   6.137
    1AU     AUC   55   5.056   4.506   6.032
    1AU    AUSL   56   5.921   5.196   6.089
    1AU    AUSL   57   5.735   4.905   6.634
    1AU     AUL   58   6.100   4.878   6.344
    1AU       S   59   5.950   5.024   6.795
    1AU     LIG   60   6.201   5.173   7.213
    1AU     LIG   61   5.989   5.000   7.611
    1AU     LIG   62   5.611   4.748   7.723
    1AU       S   63   6.154   5.156   5.958
    1AU     LIG   64   6.369   5.512   5.614
    1AU     LIG   65   6.483   5.860   5.357
    1AU     LIG   66   6.343   6.096   4.983
    1AU    AUSL   67   5.722   5.280   6.460
    1AU    AUSL   68   5.411   5.571   6.446
    1AU     AUL   69   5.788   5.567   6.617
    1AU       S   70   6.371   5.180   6.112
    1AU     LIG   71   6.522   4.890   5.491
    1AU     LIG   72   6.499   4.764   4.950
    1AU     LIG   73   6.216   4.521   4.605
    1AU       S   74   4.858   5.329   7.199
    1AU     LIG   75   4.457   5.137   7.543
    1AU     LIG   76   3.997   4.972   7.647
    1AU     LIG   77   3.525   5.010   7.602
    1AU    AUSL   78   5.719   5.581   6.147
    1AU    AUSL   79   5.787   5.423   5.735
    1AU     AUL   80   5.999   5.594   5.916
    1AU       S   81   6.272   5.101   5.831
    1AU     LIG   82   6.273   4.504   5.298
    1AU     LIG   83   5.858   4.006   5.322
    1AU     LIG   84   5.443   3.908   5.181
    1AU       S   85   5.344   5.897   5.185
    1AU     LIG   86   5.345   6.220   4.833
    1AU     LIG   87   5.742   6.243   4.639
    1AU     LIG   88   6.066   5.939   4.557
    1AU    AUSL   89   5.133   4.568   5.164
    1AU    AUSL   90   5.095   5.030   5.102
    1AU     AUL   91   4.982   4.670   4.822
    1AU       S   92   5.411   4.809   4.736
    1AU     LIG   93   5.891   5.298   4.829
    1AU     LIG   94   6.004   5.701   5.067
    1AU     LIG   95   6.002   5.916   5.528
    1AU       S   96   6.098   5.147   5.421
    1AU     LIG   97   6.161   5.532   6.329
    1AU     LIG   98   5.811   5.953   6.869
    1AU     LIG   99   5.022   5.905   7.254
    1AU    AUSL  100   4.882   4.556   5.509
    1AU    AUSL  101   5.263   4.313   5.528
    1AU     AUL  102   5.094   4.288   5.242
    1AU       S  103   4.863   3.797   5.936
    1AU     LIG  104   5.315   3.872   6.717
    1AU     LIG  105   5.761   4.155   6.903
    1AU     LIG  106   6.113   4.421   6.634
    1AU       S  107   5.442   4.625   4.851
    1AU     LIG  108   5.956   4.160   4.862
    1AU     LIG  109   6.270   3.860   5.124
    1AU     LIG  110   6.109   3.622   5.555
    1AU    AUSL  111   4.747   4.798   5.172
    1AU    AUSL  112   4.477   4.449   5.560
    1AU     AUL  113   4.627   4.457   5.231
    1AU       S  114   4.231   4.163   6.129
    1AU     LIG  115   3.956   3.785   6.651
    1AU     LIG  116   3.658   4.202   6.956
    1AU     LIG  117   3.638   4.690   7.185
    1AU       S  118   5.290   5.008   4.693
    1AU     LIG  119   5.572   5.647   4.722
    1AU     LIG  120   5.747   6.115   5.132
    1AU     LIG  121   5.588   6.347   5.575
    1AU    AUSL  122   5.082   5.585   6.696
    1AU    AUSL  123   5.169   5.927   6.433
    1AU     AUL  124   5.456   5.885   6.492
    1AU       S  125   4.723   5.207   7.153
    1AU     LIG  126   4.287   4.734   7.255
    1AU     LIG  127   4.276   4.163   7.371
    1AU     LIG  128   4.224   3.768   7.096
    1AU       S  129   5.436   5.727   6.999
    1AU     LIG  130   5.668   5.009   7.177
    1AU     LIG  131   5.671   4.432   7.330
    1AU     LIG  132   5.584   3.935   7.309
    1AU    AUSL  133   5.427   5.317   6.802
    1AU    AUSL  134   4.710   5.397   6.742
    1AU     AUL  135   5.007   5.582   6.876
    1AU       S  136   4.442   5.783   6.896
    1AU     LIG  137   4.502   6.306   6.332
    1AU     LIG  138   4.399   6.564   5.776
    1AU     LIG  139   4.679   6.428   5.279
    1AU       S  140   4.694   4.949   7.127
    1AU     LIG  141   4.345   4.122   6.639
    1AU     LIG  142   4.375   3.753   6.393
    1AU     LIG  143   4.475   3.443   6.064
    1AU    AUSL  144   4.358   4.774   5.823
    1AU    AUSL  145   4.576   4.443   5.982
    1AU     AUL  146   4.230   4.420   5.726
    1AU       S  147   4.214   4.392   6.252
    1AU     LIG  148   4.598   4.217   6.985
    1AU     LIG  149   4.751   4.042   7.474
    1AU     LIG  150   5.202   4.176   7.518
    1AU       S  151   3.799   4.607   6.319
    1AU     LIG  152   4.121   4.364   6.969
    1AU     LIG  153   4.689   4.507   7.349
    1AU     LIG  154   5.045   4.586   7.735
    1AU    AUSL  155   4.448   4.920   5.440
    1AU    AUSL  156   4.116   5.123   5.751
    1AU     AUL  157   4.130   4.854   5.526
    1AU       S  158   3.781   5.386   5.588
    1AU     LIG  159   3.656   5.645   6.341
    1AU     LIG  160   3.532   5.508   6.851
    1AU     LIG  161   3.675   5.449   7.330
    1AU       S  162   4.188   4.442   6.181
    1AU     LIG  163   3.959   4.757   6.809
    1AU     LIG  164   4.073   5.165   7.200
    1AU     LIG  165   4.181   5.542   7.501
    1AU    AUSL  166   5.664   5.177   5.359
    1AU    AUSL  167   5.418   4.837   5.309
    1AU     AUL  168   5.667   4.972   5.066
    1AU       S  169   6.114   4.989   5.165
    1AU     LIG  170   6.409   5.397   5.114
    1AU     LIG  171   6.386   5.580   4.739
    1AU     LIG  172   6.265   5.229   4.480
    1AU       S  173   5.899   4.597   4.995
    1AU     LIG  174   5.868   4.874   4.588
    1AU     LIG  175   5.642   5.255   4.387
    1AU     LIG  176   5.367   5.598   4.181
    1AU    AUSL  177   5.814   4.739   5.422
    1AU    AUSL  178   5.943   4.705   5.910
    1AU     AUL  179   6.053   4.738   5.613
    1AU       S  180   5.766   4.499   5.228
    1AU     LIG  181   5.488   4.174   4.775
    1AU     LIG  182   5.762   4.048   4.404
    1AU     LIG  183   6.234   4.024   4.418
    1AU       S  184   6.362   4.653   5.988
    1AU     LIG  185   6.669   4.385   5.566
    1AU     LIG  186   6.683   4.275   5.083
    1AU     LIG  187   6.690   4.359   4.614
    1AU    AUSL  188   5.707   5.010   5.742
    1AU    AUSL  189   5.527   5.582   5.421
    1AU     AUL  190   5.808   5.472   5.451
    1AU       S  191   5.282   5.793   5.057
    1AU     LIG  192   4.988   5.786   4.514
    1AU     LIG  193   4.390   5.649   4.439
    1AU     LIG  194   3.877   5.540   4.564
    1AU       S  195   5.590   4.387   5.227
    1AU     LIG  196   4.786   3.974   5.306
    1AU     LIG  197   4.283   3.856   5.690
    1AU     LIG  198   3.936   3.797   6.128
    1AU    AUSL  199   4.162   5.628   6.198
    1AU    AUSL  200   4.743   5.801   6.551
    1AU     AUL  201   4.333   5.900   6.450
    1AU       S  202   5.297   5.541   7.200
    1AU     LIG  203   4.959   5.039   7.545
    1AU     LIG  204   4.570   4.723   7.780
    1AU     LIG  205   4.154   4.499   7.706
    1AU       S  206   3.934   5.891   6.071
    1AU     LIG  207   3.326   5.918   6.191
    1AU     LIG  208   3.249   5.382   6.408
    1AU     LIG  209   3.110   4.900   6.436
    1AU    AUSL  210   4.332   5.471   5.856
    1AU    AUSL  211   4.333   5.336   5.436
    1AU     AUL  212   4.112   5.488   5.854
    1AU       S  213   3.823   5.825   5.810
    1AU     LIG  214   3.705   5.420   5.113
    1AU     LIG  215   3.859   5.071   4.746
    1AU     LIG  216   4.013   4.647   4.548
    1AU       S  217   4.069   5.426   5.388
    1AU     LIG  218   4.094   5.703   4.976
    1AU     LIG  219   3.845   5.994   4.808
    1AU     LIG  220   3.444   6.134   4.971
    1AU    AUSL  221   4.583   5.593   6.213
    1AU    AUSL  222   4.326   5.224   6.187
    1AU     AUL  223   4.443   5.824   5.969
    1AU       S  224   3.788   5.274   6.066
    1AU     LIG  225   3.760   5.815   5.362
    1AU     LIG  226   4.382   6.040   5.167
    1AU     LIG  227   4.817   6.173   4.864
    1AU       S  228   4.117   6.114   6.033
    1AU     LIG  229   4.597   6.152   5.680
    1AU     LIG  230   5.045   6.428   5.599
    1AU     LIG  231   5.313   6.569   5.214
    1AU    AUSL  232   5.661   4.377   6.076
    1AU    AUSL  233   5.686   4.860   6.206
    1AU     AUL  234   5.928   4.495   6.127
    1AU       S  235   6.330   4.308   6.044
    1AU     LIG  236   6.850   4.580   6.027
    1AU     LIG  237   7.201   5.014   6.070
    1AU     LIG  238   7.370   5.349   6.347
    1AU       S  239   6.114   5.170   6.688
    1AU     LIG  240   6.564   4.993   6.515
    1AU     LIG  241   6.866   5.274   6.333
    1AU     LIG  242   7.112   5.505   5.940
    1AU    AUSL  243   5.565   4.570   5.705
    1AU    AUSL  244   5.243   4.392   5.951
    1AU     AUL  245   5.577   4.221   5.719
    1AU       S  246   6.367   4.542   5.881
    1AU     LIG  247   6.751   5.055   5.875
    1AU     LIG  248   6.631   5.588   6.035
    1AU     LIG  249   6.938   5.791   6.340
    1AU       S  250   4.616   3.938   6.025
    1AU     LIG  251   3.895   4.208   6.506
    1AU     LIG  252   3.503   4.629   6.682
    1AU     LIG  253   3.332   5.046   6.866
    1AU    AUSL  254   4.284   5.013   6.549
    1AU    AUSL  255   4.108   4.875   6.134
    1AU     AUL  256   4.107   4.936   6.423
    1AU       S  257   3.856   4.781   6.034
    1AU     LIG  258   3.376   5.031   6.041
    1AU     LIG  259   2.998   4.995   5.827
    1AU     LIG  260   2.711   4.781   5.481
    1AU       S  261   3.850   5.258   6.223
    1AU     LIG  262   3.420   5.521   5.901
    1AU     LIG  263   3.358   5.947   5.653
    1AU     LIG  264   3.531   6.326   5.446
    1AU    AUSL  265   4.338   5.439   6.557
    1AU    AUSL  266   4.683   4.986   6.668
    1AU     AUL  267   4.389   5.147   6.817
    1AU       S  268   4.386   5.545   7.042
    1AU     LIG  269   3.975   5.851   7.162
    1AU     LIG  270   3.553   5.999   6.911
    1AU     LIG  271   3.139   5.798   6.693
    1AU       S  272   3.737   5.179   6.321
    1AU     LIG  273   3.374   4.567   6.141
    1AU     LIG  274   3.386   4.015   6.072
    1AU     LIG  275   3.504   3.536   6.215
    1AU    AUSL  276   5.236   5.728   6.061
    1AU    AUSL  277   4.850   5.935   6.140
    1AU     AUL  278   5.191   6.100   6.092
    1AU       S  279   5.338   5.904   6.917
    1AU     LIG  280   5.809   5.428   7.063
    1AU     LIG  281   6.043   4.720   7.207
    1AU     LIG  282   6.245   4.264   7.093
    1AU       S  283   5.020   4.253   6.668
    1AU     LIG  284   5.687   4.022   6.454
    1AU     LIG  285   6.132   3.970   6.423
    1AU     LIG  286   6.334   3.760   6.109
    1AU    AUSL  287   4.822   5.709   5.782
    1AU    AUSL  288   5.110   5.421   5.311
    1AU     AUL  289   5.003   5.947   5.540
    1AU       S  290   4.388   4.584   6.627
    1AU     LIG  291   3.803   4.256   6.014
    1AU     LIG  292   3.854   4.096   5.546
    1AU     LIG  293   3.803   3.715   5.243
    1AU       S  294   4.699   5.462   4.784
    1AU     LIG  295   4.352   5.043   4.568
    1AU     LIG  296   4.183   4.737   5.018
    1AU     LIG  297   3.826   4.426   5.123
    1AU    AUSL  298   5.205   5.551   5.689
    1AU    AUSL  299   5.566   5.794   5.808
    1AU     AUL  300   5.425   5.899   5.663
    1AU       S  301   5.100   5.824   5.097
    1AU     LIG  302   4.266   5.252   4.986
    1AU     LIG  303   3.784   4.942   5.216
    1AU     LIG  304   3.496   4.560   5.496
    1AU       S  305   4.435   4.619   6.680
    1AU     LIG  306   3.927   5.227   6.755
    1AU     LIG  307   3.966   5.697   6.706
    1AU     LIG  308   3.869   6.113   6.513
    1AU    AUSL  309   5.373   4.870   6.853
    1AU    AUSL  310   5.665   4.509   6.493
    1AU     AUL  311   5.668   4.630   6.844
    1AU       S  312   5.300   4.741   7.312
    1AU     LIG  313   5.256   5.037   7.928
    1AU     LIG  314   5.350   5.554   8.091
    1AU     LIG  315   5.259   6.056   7.964
    1AU       S  316   6.174   4.876   6.794
    1AU     LIG  317   6.489   5.439   6.737
    1AU     LIG  318   6.417   5.900   6.512
    1AU     LIG  319   6.068   6.041   6.177
    1AU    AUSL  320   4.970   4.722   6.822
    1AU    AUSL  321   5.068   5.144   6.700
    1AU     AUL  322   5.109   5.018   6.979
    1AU       S  323   5.162   4.630   7.234
    1AU     LIG  324   5.415   5.191   7.510
    1AU     LIG  325   5.853   5.485   7.539
    1AU     LIG  326   6.204   5.685   7.179
    1AU       S  327   4.617   5.730   7.042
    1AU     LIG  328   4.967   6.191   6.894
    1AU     LIG  329   5.417   6.110   7.367
    1AU     LIG  330   5.165   5.674   7.652
    1AU    AUSL  331   5.253   4.596   6.528
    1AU    AUSL  332   4.818   4.555   6.449
    1AU     AUL  333   4.847   4.588   6.865
    1AU       S  334   4.882   3.873   6.452
    1AU     LIG  335   5.233   3.389   6.542
    1AU     LIG  336   5.716   3.179   6.535
    1AU     LIG  337   6.110   3.431   6.711
    1AU       S  338   5.282   4.420   7.029
    1AU     LIG  339   5.025   3.988   7.079
    1AU     LIG  340   4.662   3.714   6.850
    1AU     LIG  341   4.391   3.332   6.650
    1AU    AUSL  342   4.716   5.240   5.197
    1AU    AUSL  343   5.421   5.325   5.054
    1AU     AUL  344   5.102   5.356   4.968
    1AU       S  345   4.693   5.181   4.862
    1AU     LIG  346   4.531   4.607   4.722
    1AU     LIG  347   4.387   4.153   4.921
    1AU     LIG  348   4.310   3.764   5.199
    1AU       S  349   6.091   5.063   5.255
    1AU     LIG  350   6.037   4.296   5.643
    1AU     LIG  351   5.893   3.938   5.956
    1AU     LIG  352   5.834   3.585   6.267
    1AU    AUSL  353   4.771   5.642   5.341
    1AU    AUSL  354   4.425   5.716   5.533
    1AU     AUL  355   4.487   5.564   5.220
    1AU       S  356   4.675   5.709   4.845
    1AU     LIG  357   4.335   6.251   4.750
    1AU     LIG  358   4.291   6.666   5.133
    1AU     LIG  359   4.633   6.895   5.445
    1AU       S  360   4.187   5.787   5.511
    1AU     LIG  361   4.052   6.220   5.478
    1AU     LIG  362   3.874   6.409   5.093
    1AU     LIG  363   3.814   6.781   5.301
    1AU    AUSL  364   4.903   4.247   6.171
    1AU    AUSL  365   4.509   4.768   6.263
    1AU     AUL  366   4.646   4.296   6.352
    1AU       S  367   3.819   4.693   5.860
    1AU     LIG  368   3.453   5.046   5.570
    1AU     LIG  369   3.294   5.495   5.366
    1AU     LIG  370   3.351   5.645   4.860
    1AU       S  371   5.005   3.850   6.362
    1AU     LIG  372   5.019   3.382   6.073
    1AU     LIG  373   4.787   3.419   5.618
    1AU     LIG  374   4.738   3.482   5.146
    1AU    AUSL  375   5.305   4.220   6.329
    1AU    AUSL  376   4.892   4.209   5.742
    1AU     AUL  377   5.207   4.086   5.959
    1AU       S  378   5.255   3.784   6.284
    1AU     LIG  379   5.481   3.604   5.901
    1AU     LIG  380   5.715   3.251   5.660
    1AU     LIG  381   5.665   2.806   5.417
    1AU       S  382   4.746   4.010   5.776
    1AU     LIG  383   5.158   3.797   5.565
    1AU     LIG  384   5.358   3.451   5.369
    1AU     LIG  385   5.800   3.388   5.176
    2POPC   NC3  386   3.501   1.391   8.120
    2POPC   PO4  387   3.083   0.793   8.189
    2POPC   GL1  388   3.297   0.839   7.772
    2POPC   GL2  389   3.578   1.053   7.709
    2POPC   C1A  390   3.143   0.895   7.330
    2POPC   D2A  391   3.130   0.925   6.863
    2POPC   C3A  392   3.402   0.991   6.472
    2POPC   C4A  393   3.340   0.923   5.990
    2POPC   C1B  394   3.486   1.281   7.308
    2POPC   C2B  395   3.450   1.371   6.846
    2POPC   C3B  396   3.727   1.403   6.479
    2POPC   C4B  397   3.778   1.168   6.090
    3POPC   NC3  398   7.266   0.320   8.119
    3POPC   PO4  399   7.854   9.947   8.017
    3POPC   GL1  400   7.581   0.193   7.723
    3POPC   GL2  401   7.390   0.525   7.674
    3POPC   C1A  402   7.426   0.165   7.309
    3POPC   D2A  403   7.542   0.427   6.946
    3POPC   C3A  404   7.373   0.376   6.543
    3POPC   C4A  405   7.403   0.085   6.183
    3POPC   C1B  406   7.201   0.631   7.285
    3POPC   C2B  407   7.238   0.811   6.897
    3POPC   C3B  408   7.113   0.852   6.473
    3POPC   C4B  409   7.268   0.747   6.071
    4POPC   NC3  410   1.084   1.435   8.159
    4POPC   PO4  411   0.712   0.814   8.090
    4POPC   GL1  412   0.859   1.117   7.796
    4POPC   GL2  413   1.199   1.039   7.847
    4POPC   C1A  414   1.112   1.288   7.412
    4POPC   D2A  415   1.350   1.409   7.020
    4POPC   C3A  416   1.215   1.298   6.587
    4POPC   C4A  417   1.049   1.435   6.160
    4POPC   C1B  418   1.314   0.817   7.492
    4POPC   C2B  419   1.264   0.870   7.066
    4POPC   C3B  420   1.467   0.778   6.687
    4POPC   C4B  421   1.381   0.927   6.290
    5POPC   NC3  422   0.673   5.122   8.080
    5POPC   PO4  423   0.110   4.654   7.923
    5POPC   GL1  424   0.484   4.792   7.629
    5POPC   GL2  425   0.638   5.114   7.587
    5POPC   C1A  426   0.612   4.894   7.143
    5POPC   D2A  427   0.450   5.053   6.721
    5POPC   C3A  428   0.669   4.979   6.299
    5POPC   C4A  429   0.855   4.849   5.906
    5POPC   C1B  430   0.479   5.385   7.274
    5POPC   C2B  431   0.125   5.412   7.011
    5POPC   C3B  432   9.992   5.336   6.617
    5POPC   C4B  433   0.169   5.104   6.267
    6POPC   NC3  434   6.269   7.549   8.588
    6POPC   PO4  435   5.740   7.708   8.137
    6POPC   GL1  436   5.628   8.011   7.745
    6POPC   GL2  437   5.610   8.385   7.805
    6POPC   C1A  438   5.701   8.061   7.262
    6POPC   D2A  439   5.525   8.000   6.822
    6POPC   C3A  440   5.843   7.878   6.487
    6POPC   C4A  441   6.282   7.693   6.462
    6POPC   C1B  442   5.412   8.484   7.400
    6POPC   C2B  443   5.615   8.471   6.971
    6POPC   C3B  444   5.656   8.360   6.487
    6POPC   C4B  445   5.660   8.400   5.996
    7POPC   NC3  446   0.329   8.148   8.235
    7POPC   PO4  447   0.867   7.701   8.162
    7POPC   GL1  448   0.489   7.874   7.841
    7POPC   GL2  449   0.387   8.270   7.746
    7POPC   C1A  450   0.228   7.896   7.443
    7POPC   D2A  451   0.386   7.857   7.009
    7POPC   C3A  452   0.124   7.930   6.621
    7POPC   C4A  453   0.154   7.736   6.199
    7POPC   C1B  454   0.481   8.314   7.274
    7POPC   C2B  455   0.437   8.318   6.800
    7POPC   C3B  456   0.544   8.151   6.396
    7POPC   C4B  457   0.836   8.284   6.049
    8POPC   NC3  458   8.581   6.436   8.133
    8POPC   PO4  459   9.251   6.305   8.345
    8POPC   GL1  460   9.087   6.443   7.923
    8POPC   GL2  461   8.918   6.758   7.827
    8POPC   C1A  462   8.891   6.371   7.491
    8POPC   D2A  463   8.625   6.540   7.144
    8POPC   C3A  464   8.843   6.521   6.747
    8POPC   C4A  465   9.041   6.410   6.344
    8POPC   C1B  466   8.940   6.899   7.343
    8POPC   C2B  467   9.115   6.976   6.884
    8POPC   C3B  468   8.911   6.944   6.460
    8POPC   C4B  469   8.690   6.747   6.120
    9POPC   NC3  470   2.571   6.248   8.064
    9POPC   PO4  471   2.713   6.877   8.136
    9POPC   GL1  472   2.564   6.660   7.754
    9POPC   GL2  473   2.830   6.411   7.662
    9POPC   C1A  474   2.396   6.692   7.343
    9POPC   D2A  475   2.504   6.526   6.952
    9POPC   C3A  476   2.457   6.794   6.595
    9POPC   C4A  477   2.606   6.958   6.215
    9POPC   C1B  478   2.899   6.615   7.268
    9POPC   C2B  479   3.010   6.724   6.841
    9POPC   C3B  480   3.025   6.718   6.389
    9POPC   C4B  481   2.802   6.523   6.058
   10POPC   NC3  482   7.534   9.604   7.993
   10POPC   PO4  483   6.952   9.914   8.150
   10POPC   GL1  484   7.149   9.861   7.718
   10POPC   GL2  485   7.192   9.490   7.637
   10POPC   C1A  486   7.044   9.814   7.262
   10POPC   D2A  487   7.128   0.080   6.895
   10POPC   C3A  488   7.051   9.921   6.512
   10POPC   C4A  489   6.850   9.946   6.115
   10POPC   C1B  490   7.497   9.596   7.294
   10POPC   C2B  491   7.350   9.597   6.854
   10POPC   C3B  492   7.447   9.575   6.408
   10POPC   C4B  493   7.684   9.675   6.007
   11POPC   NC3  494   8.061   4.844   8.073
   11POPC   PO4  495   8.025   4.183   8.360
   11POPC   GL1  496   8.177   4.336   7.911
   11POPC   GL2  497   8.496   4.400   7.803
   11POPC   C1A  498   8.216   4.150   7.460
   11POPC   D2A  499   8.323   3.982   7.033
   11POPC   C3A  500   8.210   4.079   6.591
   11POPC   C4A  501   7.891   4.100   6.266
   11POPC   C1B  502   8.604   4.503   7.372
   11POPC   C2B  503   8.705   4.348   6.957
   11POPC   C3B  504   8.504   4.525   6.612
   11POPC   C4B  505   8.295   4.450   6.219
   12POPC   NC3  506   3.325   2.041   8.245
   12POPC   PO4  507   3.796   2.555   8.171
   12POPC   GL1  508   3.616   2.225   7.879
   12POPC   GL2  509   3.478   1.875   7.787
   12POPC   C1A  510   3.583   2.243   7.440
   12POPC   D2A  511   3.399   2.470   7.102
   12POPC   C3A  512   3.235   2.213   6.791
   12POPC   C4A  513   3.363   2.242   6.355
   12POPC   C1B  514   3.771   1.711   7.451
   12POPC   C2B  515   3.865   1.690   6.983
   12POPC   C3B  516   3.628   1.878   6.644
   12POPC   C4B  517   3.223   1.770   6.486
   13POPC   NC3  518   9.251   5.946   8.064
   13POPC   PO4  519   9.522   5.362   8.152
   13POPC   GL1  520   9.262   5.485   7.813
   13POPC   GL2  521   9.494   5.712   7.656
   13POPC   C1A  522   8.954   5.498   7.455
   13POPC   D2A  523   8.998   5.314   7.030
   13POPC   C3A  524   9.033   5.637   6.738
   13POPC   C4A  525   9.112   5.874   6.354
   13POPC   C1B  526   9.252   5.872   7.280
   13POPC   C2B  527   8.815   5.953   7.113
   13POPC   C3B  528   8.680   6.005   6.675
   13POPC   C4B  529   8.551   6.263   6.345
   14POPC   NC3  530   2.005   4.400   8.345
   14POPC   PO4  531   1.434   4.246   8.019
   14POPC   GL1  532   1.695   4.336   7.709
   14POPC   GL2  533   1.949   4.552   7.838
   14POPC   C1A  534   1.704   4.355   7.267
   14POPC   D2A  535   1.657   4.169   6.842
   14POPC   C3A  536   1.758   4.424   6.490
   14POPC   C4A  537   1.855   4.191   6.094
   14POPC   C1B  538   2.148   4.226   7.532
   14POPC   C2B  539   2.122   4.088   7.062
   14POPC   C3B  540   2.181   4.170   6.586
   14POPC   C4B  541   2.223   4.608   6.363
   15POPC   NC3  542   4.334   9.062   8.158
   15POPC   PO4  543   3.898   8.499   8.207
   15POPC   GL1  544   3.898   8.784   7.761
   15POPC   GL2  545   4.027   9.137   7.716
   15POPC   C1A  546   3.769   8.956   7.306
   15POPC   D2A  547   3.970   8.802   6.904
   15POPC   C3A  548   4.097   9.040   6.520
   15POPC   C4A  549   4.182   9.252   6.076
   15POPC   C1B  550   4.268   8.916   7.365
   15POPC   C2B  551   4.471   8.640   7.084
   15POPC   C3B  552   4.534   8.814   6.672
   15POPC   C4B  553   4.468   8.838   6.208
   16POPC   NC3  554   0.334   1.165   7.949
   16POPC   PO4  555   0.671   1.676   8.084
   16POPC   GL1  556   0.432   1.632   7.682
   16POPC   GL2  557   0.134   1.412   7.569
   16POPC   C1A  558   0.614   1.412   7.299
   16POPC   D2A  559   0.874   1.215   6.957
   16POPC   C3A  560   0.702   1.242   6.521
   16POPC   C4A  561   0.362   1.451   6.301
   16POPC   C1B  562   0.243   1.034   7.315
   16POPC   C2B  563   0.369   1.116   6.903
   16POPC   C3B  564   0.217   0.998   6.501
   16POPC   C4B  565   0.190   0.973   6.049
   17POPC   NC3  566   7.964   5.782   8.133
   17POPC   PO4  567   8.641   5.901   8.066
   17POPC   GL1  568   8.333   5.806   7.774
   17POPC   GL2  569   8.180   6.164   7.834
   17POPC   C1A  570   8.432   5.613   7.356
   17POPC   D2A  571   8.539   5.529   6.903
   17POPC   C3A  572   8.220   5.440   6.570
   17POPC   C4A  573   8.123   5.578   6.142
   17POPC   C1B  574   8.394   6.154   7.399
   17POPC   C2B  575   8.285   6.213   6.923
   17POPC   C3B  576   8.171   5.970   6.507
   17POPC   C4B  577   7.941   6.066   6.093
   18POPC   NC3  578   5.757   0.404   8.364
   18POPC   PO4  579   6.226   9.923   8.323
   18POPC   GL1  580   6.042   0.320   7.949
   18POPC   GL2  581   5.732   0.529   7.874
   18POPC   C1A  582   5.882   0.299   7.454
   18POPC   D2A  583   6.003   0.017   7.100
   18POPC   C3A  584   6.094   0.087   6.662
   18POPC   C4A  585   5.919   0.014   6.282
   18POPC   C1B  586   5.533   0.662   7.460
   18POPC   C2B  587   5.740   0.742   7.045
   18POPC   C3B  588   5.756   0.501   6.634
   18POPC   C4B  589   5.987   0.514   6.253
   19POPC   NC3  590   9.557   6.593   8.135
   19POPC   PO4  591   0.233   6.267   8.161
   19POPC   GL1  592   9.976   6.501   7.801
   19POPC   GL2  593   9.803   6.790   7.745
   19POPC   C1A  594   9.822   6.537   7.300
   19POPC   D2A  595   9.859   6.429   6.822
   19POPC   C3A  596   9.908   6.613   6.378
   19POPC   C4A  597   9.959   6.396   5.905
   19POPC   C1B  598   9.404   6.768   7.507
   19POPC   C2B  599   9.287   6.546   7.105
   19POPC   C3B  600   9.408   6.626   6.643
   19POPC   C4B  601   9.382   6.916   6.277
   20POPC   NC3  602   9.608   0.914   8.500
   20POPC   PO4  603   9.951   1.405   8.085
   20POPC   GL1  604   9.639   1.343   7.742
   20POPC   GL2  605   9.284   1.254   7.853
   20POPC   C1A  606   9.717   1.208   7.315
   20POPC   D2A  607   9.866   0.960   6.955
   20POPC   C3A  608   9.721   1.076   6.535
   20POPC   C4A  609   9.721   0.797   6.170
   20POPC   C1B  610   9.197   1.150   7.403
   20POPC   C2B  611   9.345   1.131   6.941
   20POPC   C3B  612   9.388   1.468   6.598
   20POPC   C4B  613   9.456   1.592   6.142
   21POPC   NC3  614   1.922   8.040   8.049
   21POPC   PO4  615   2.377   7.555   8.075
   21POPC   GL1  616   2.204   7.793   7.668
   21POPC   GL2  617   1.883   8.050   7.552
   21POPC   C1A  618   2.283   7.967   7.262
   21POPC   D2A  619   2.056   7.935   6.882
   21POPC   C3A  620   2.327   7.935   6.519
   21POPC   C4A  621   2.467   8.080   6.112
   21POPC   C1B  622   1.507   8.325   7.393
   21POPC   C2B  623   1.355   8.289   6.951
   21POPC   C3B  624   1.655   8.146   6.619
   21POPC   C4B  625   1.964   8.176   6.284
   22POPC   NC3  626   4.158   1.491   8.194
   22POPC   PO4  627   4.707   1.116   8.418
   22POPC   GL1  628   4.606   1.342   7.990
   22POPC   GL2  629   4.303   1.179   7.827
   22POPC   C1A  630   4.637   1.310   7.473
   22POPC   D2A  631   4.415   1.064   7.114
   22POPC   C3A  632   4.579   1.045   6.654
   22POPC   C4A  633   4.689   1.268   6.217
   22POPC   C1B  634   4.009   1.243   7.486
   22POPC   C2B  635   3.912   1.186   7.035
   22POPC   C3B  636   3.954   0.962   6.646
   22POPC   C4B  637   4.204   1.190   6.341
   23POPC   NC3  638   7.741   7.023   8.064
   23POPC   PO4  639   8.330   7.506   8.143
   23POPC   GL1  640   8.076   7.315   7.838
   23POPC   GL2  641   8.188   7.477   7.606
   23POPC   C1A  642   7.946   7.110   7.392
   23POPC   D2A  643   8.013   7.290   6.957
   23POPC   C3A  644   7.925   7.036   6.565
   23POPC   C4A  645   7.682   6.981   6.171
   23POPC   C1B  646   8.288   7.691   7.252
   23POPC   C2B  647   8.433   7.615   6.856
   23POPC   C3B  648   8.307   7.643   6.422
   23POPC   C4B  649   8.290   7.388   6.026
   24POPC   NC3  650   9.233   3.520   8.045
   24POPC   PO4  651   8.743   3.969   8.024
   24POPC   GL1  652   8.895   3.685   7.713
   24POPC   GL2  653   8.836   3.298   7.795
   24POPC   C1A  654   9.191   3.777   7.385
   24POPC   D2A  655   9.365   3.582   7.016
   24POPC   C3A  656   9.141   3.650   6.624
   24POPC   C4A  657   8.820   3.509   6.321
   24POPC   C1B  658   9.051   3.302   7.397
   24POPC   C2B  659   8.935   3.278   6.955
   24POPC   C3B  660   9.038   3.115   6.538
   24POPC   C4B  661   8.803   2.998   6.130
   25POPC   NC3  662   0.182   1.803   8.156
   25POPC   PO4  663   0.448   2.227   8.478
   25POPC   GL1  664   0.399   2.156   7.890
   25POPC   GL2  665   0.685   2.097   7.683
   25POPC   C1A  666   0.209   2.092   7.459
   25POPC   D2A  667   9.977   2.175   7.051
   25POPC   C3A  668   0.129   1.992   6.658
   25POPC   C4A  669   0.191   2.044   6.205
   25POPC   C1B  670   0.677   2.113   7.231
   25POPC   C2B  671   0.612   2.113   6.790
   25POPC   C3B  672   0.640   1.921   6.400
   25POPC   C4B  673   0.561   1.768   5.962
   26POPC   NC3  674   9.882   4.379   8.223
   26POPC   PO4  675   9.357   4.737   7.923
   26POPC   GL1  676   9.677   4.569   7.671
   26POPC   GL2  677   9.828   4.222   7.744
   26POPC   C1A  678   9.665   4.679   7.244
   26POPC   D2A  679   9.434   4.613   6.847
   26POPC   C3A  680   9.582   4.502   6.423
   26POPC   C4A  681   9.544   4.656   5.987
   26POPC   C1B  682   9.924   4.240   7.320
   26POPC   C2B  683   9.908   4.386   6.896
   26POPC   C3B  684   0.022   4.208   6.523
   26POPC   C4B  685   9.952   3.841   6.273
   27POPC   NC3  686   7.281   0.967   8.115
   27POPC   PO4  687   7.693   1.425   7.805
   27POPC   GL1  688   7.247   1.343   7.681
   27POPC   GL2  689   7.153   1.001   7.628
   27POPC   C1A  690   7.138   1.285   7.211
   27POPC   D2A  691   7.362   1.283   6.791
   27POPC   C3A  692   7.057   1.348   6.459
   27POPC   C4A  693   6.984   1.179   6.024
   27POPC   C1B  694   7.545   0.988   7.352
   27POPC   C2B  695   7.751   0.933   6.955
   27POPC   C3B  696   7.621   0.878   6.538
   27POPC   C4B  697   7.485   1.199   6.238
   28POPC   NC3  698   9.307   4.972   8.312
   28POPC   PO4  699   8.619   4.938   8.084
   28POPC   GL1  700   8.888   4.772   7.695
   28POPC   GL2  701   9.110   5.034   7.582
   28POPC   C1A  702   9.055   4.691   7.207
   28POPC   D2A  703   8.953   4.777   6.726
   28POPC   C3A  704   9.175   4.824   6.305
   28POPC   C4A  705   9.073   4.744   5.817
   28POPC   C1B  706   8.691   5.056   7.339
   28POPC   C2B  707   8.532   4.989   6.915
   28POPC   C3B  708   8.686   5.187   6.524
   28POPC   C4B  709   8.639   5.608   6.318
   29POPC   NC3  710   6.012   8.905   8.437
   29POPC   PO4  711   5.453   9.239   8.271
   29POPC   GL1  712   5.688   9.249   7.889
   29POPC   GL2  713   5.872   8.930   7.873
   29POPC   C1A  714   5.799   9.233   7.450
   29POPC   D2A  715   5.974   9.131   7.033
   29POPC   C3A  716   5.742   9.189   6.639
   29POPC   C4A  717   5.413   9.159   6.314
   29POPC   C1B  718   5.874   8.724   7.452
   29POPC   C2B  719   6.108   8.638   7.088
   29POPC   C3B  720   5.963   8.711   6.684
   29POPC   C4B  721   5.770   8.805   6.288
   30POPC   NC3  722   5.044   8.871   8.189
   30POPC   PO4  723   4.449   8.693   7.924
   30POPC   GL1  724   4.838   8.759   7.721
   30POPC   GL2  725   4.908   9.146   7.747
   30POPC   C1A  726   4.938   8.839   7.289
   30POPC   D2A  727   4.918   9.266   7.162
   30POPC   C3A  728   4.844   9.285   6.729
   30POPC   C4A  729   4.947   8.966   6.442
   30POPC   C1B  730   5.329   9.031   7.549
   30POPC   C2B  731   5.484   8.943   7.110
   30POPC   C3B  732   5.389   8.793   6.664
   30POPC   C4B  733   5.268   8.633   6.237
   31POPC   NC3  734   5.921   9.690   8.045
   31POPC   PO4  735   5.398   0.050   8.314
   31POPC   GL1  736   5.605   0.027   7.836
   31POPC   GL2  737   5.793   9.770   7.560
   31POPC   C1A  738   5.387   0.058   7.421
   31POPC   D2A  739   5.525   0.241   7.023
   31POPC   C3A  740   5.491   0.005   6.604
   31POPC   C4A  741   5.583   9.639   6.318
   31POPC   C1B  742   6.146   9.559   7.274
   31POPC   C2B  743   6.271   9.575   6.850
   31POPC   C3B  744   6.057   9.555   6.455
   31POPC   C4B  745   5.898   9.273   6.122
   32POPC   NC3  746   7.159   2.430   8.206
   32POPC   PO4  747   7.222   3.111   8.191
   32POPC   GL1  748   7.301   2.789   7.887
   32POPC   GL2  749   7.534   2.857   7.655
   32POPC   C1A  750   7.135   2.588   7.509
   32POPC   D2A  751   7.319   2.650   7.139
   32POPC   C3A  752   7.176   2.661   6.739
   32POPC   C4A  753   7.170   3.004   6.476
   32POPC   C1B  754   7.803   2.730   7.327
   32POPC   C2B  755   7.786   2.581   6.927
   32POPC   C3B  756   7.634   2.766   6.555
   32POPC   C4B  757   7.538   2.872   6.119
   33POPC   NC3  758   8.977   9.257   8.387
   33POPC   PO4  759   9.219   8.559   8.305
   33POPC   GL1  760   9.048   8.780   7.915
   33POPC   GL2  761   8.709   8.802   8.036
   33POPC   C1A  762   9.089   8.897   7.420
   33POPC   D2A  763   9.170   8.746   6.987
   33POPC   C3A  764   9.150   9.006   6.630
   33POPC   C4A  765   8.961   8.969   6.255
   33POPC   C1B  766   8.593   8.868   7.591
   33POPC   C2B  767   8.678   8.869   7.117
   33POPC   C3B  768   8.707   8.727   6.666
   33POPC   C4B  769   8.469   8.661   6.256
   34POPC   NC3  770   5.059   0.366   8.196
   34POPC   PO4  771   4.659   0.849   7.940
   34POPC   GL1  772   4.914   0.544   7.705
   34POPC   GL2  773   4.790   0.196   7.651
   34POPC   C1A  774   5.081   0.491   7.266
   34POPC   D2A  775   5.268   0.654   6.865
   34POPC   C3A  776   5.003   0.615   6.489
   34POPC   C4A  777   5.106   0.547   6.037
   34POPC   C1B  778   4.727   0.124   7.185
   34POPC   C2B  779   5.032   0.205   6.810
   34POPC   C3B  780   5.044   0.113   6.326
   34POPC   C4B  781   4.881   0.106   5.852
   35POPC   NC3  782   0.333   6.769   8.238
   35POPC   PO4  783   0.883   6.612   8.125
   35POPC   GL1  784   0.802   6.462   7.732
   35POPC   GL2  785   0.485   6.514   7.792
   35POPC   C1A  786   0.781   6.623   7.321
   35POPC   D2A  787   0.772   6.930   6.979
   35POPC   C3A  788   0.779   6.709   6.596
   35POPC   C4A  789   0.669   6.800   6.176
   35POPC   C1B  790   0.304   6.475   7.409
   35POPC   C2B  791   0.448   6.436   6.975
   35POPC   C3B  792   0.339   6.452   6.569
   35POPC   C4B  793   0.182   6.162   6.285
   36POPC   NC3  794   7.619   8.624   7.950
   36POPC   PO4  795   7.832   9.255   8.065
   36POPC   GL1  796   7.531   9.110   7.764
   36POPC   GL2  797   7.211   8.986   7.906
   36POPC   C1A  798   7.610   9.073   7.311
   36POPC   D2A  799   7.839   9.094   6.910
   36POPC   C3A  800   7.654   9.021   6.502
   36POPC   C4A  801   7.554   9.182   6.062
   36POPC   C1B  802   7.218   8.782   7.482
   36POPC   C2B  803   7.284   8.708   7.045
   36POPC   C3B  804   7.033   8.670   6.660
   36POPC   C4B  805   7.219   8.851   6.296
   37POPC   NC3  806   2.009   8.711   8.183
   37POPC   PO4  807   2.310   8.226   7.869
   37POPC   GL1  808   1.997   8.531   7.705
   37POPC   GL2  809   2.035   8.921   7.715
   37POPC   C1A  810   1.935   8.638   7.279
   37POPC   D2A  811   2.043   8.942   6.966
   37POPC   C3A  812   2.053   8.751   6.551
   37POPC   C4A  813   1.685   8.620   6.312
   37POPC   C1B  814   2.208   9.239   7.394
   37POPC   C2B  815   2.411   9.305   6.963
   37POPC   C3B  816   2.229   9.248   6.559
   37POPC   C4B  817   1.904   9.136   6.240
   38POPC   NC3  818   0.716   6.192   8.159
   38POPC   PO4  819   0.482   5.580   7.976
   38POPC   GL1  820   0.510   5.981   7.747
   38POPC   GL2  821   0.842   5.929   7.707
   38POPC   C1A  822   0.567   6.066   7.316
   38POPC   D2A  823   0.466   5.815   6.974
   38POPC   C3A  824   0.565   5.970   6.581
   38POPC   C4A  825   0.737   6.274   6.290
   38POPC   C1B  826   0.893   5.681   7.285
   38POPC   C2B  827   0.801   5.468   6.849
   38POPC   C3B  828   0.590   5.469   6.434
   38POPC   C4B  829   0.209   5.660   6.282
   39POPC   NC3  830   2.145   7.152   8.137
   39POPC   PO4  831   1.555   7.665   8.122
   39POPC   GL1  832   1.748   7.586   7.715
   39POPC   GL2  833   2.002   7.326   7.684
   39POPC   C1A  834   1.907   7.607   7.265
   39POPC   D2A  835   1.780   7.441   6.851
   39POPC   C3A  836   1.890   7.666   6.491
   39POPC   C4A  837   2.091   7.685   6.078
   39POPC   C1B  838   2.222   7.176   7.333
   39POPC   C2B  839   2.155   7.088   6.894
   39POPC   C3B  840   2.248   7.279   6.484
   39POPC   C4B  841   2.225   7.203   6.019
   40POPC   NC3  842   6.535   0.161   8.039
   40POPC   PO4  843   6.973   0.651   7.968
   40POPC   GL1  844   6.907   0.326   7.708
   40POPC   GL2  845   6.587   0.483   7.647
   40POPC   C1A  846   6.858   0.279   7.272
   40POPC   D2A  847   6.797   0.541   6.907
   40POPC   C3A  848   6.873   0.409   6.455
   40POPC   C4A  849   6.727   0.686   6.124
   40POPC   C1B  850   6.361   0.354   7.310
   40POPC   C2B  851   6.200   0.496   6.946
   40POPC   C3B  852   6.398   0.564   6.562
   40POPC   C4B  853   6.421   0.267   6.250
   41POPC   NC3  854   8.931   7.371   8.176
   41POPC   PO4  855   8.467   6.878   8.192
   41POPC   GL1  856   8.617   7.174   7.818
   41POPC   GL2  857   9.041   7.256   7.697
   41POPC   C1A  858   8.670   7.450   7.453
   41POPC   D2A  859   8.889   7.375   7.097
   41POPC   C3A  860   8.855   7.413   6.667
   41POPC   C4A  861   8.762   7.473   6.235
   41POPC   C1B  862   9.231   7.592   7.376
   41POPC   C2B  863   9.344   7.607   6.887
   41POPC   C3B  864   9.191   7.714   6.430
   41POPC   C4B  865   9.219   7.716   5.946
   42POPC   NC3  866   2.448   3.710   8.220
   42POPC   PO4  867   1.831   3.982   8.399
   42POPC   GL1  868   1.818   3.879   7.930
   42POPC   GL2  869   1.836   3.497   7.857
   42POPC   C1A  870   1.767   3.858   7.468
   42POPC   D2A  871   2.015   3.604   7.169
   42POPC   C3A  872   1.900   3.644   6.718
   42POPC   C4A  873   1.638   3.846   6.398
   42POPC   C1B  874   1.682   3.321   7.432
   42POPC   C2B  875   1.551   3.153   7.006
   42POPC   C3B  876   1.705   3.105   6.568
   42POPC   C4B  877   1.944   3.340   6.277
   43POPC   NC3  878   1.025   3.087   8.107
   43POPC   PO4  879   0.722   2.521   7.993
   43POPC   GL1  880   0.928   2.774   7.702
   43POPC   GL2  881   1.295   2.784   7.768
   43POPC   C1A  882   0.891   2.743   7.281
   43POPC   D2A  883   0.787   2.570   6.910
   43POPC   C3A  884   0.905   2.786   6.565
   43POPC   C4A  885   1.025   2.669   6.143
   43POPC   C1B  886   1.489   2.738   7.353
   43POPC   C2B  887   1.298   2.694   6.944
   43POPC   C3B  888   1.413   2.681   6.531
   43POPC   C4B  889   1.471   2.905   6.151
   44POPC   NC3  890   9.401   1.864   7.927
   44POPC   PO4  891   9.954   2.256   8.078
   44POPC   GL1  892   9.754   2.181   7.691
   44POPC   GL2  893   9.873   1.827   7.729
   44POPC   C1A  894   9.526   2.257   7.274
   44POPC   D2A  895   9.551   2.454   6.833
   44POPC   C3A  896   9.894   2.418   6.472
   44POPC   C4A  897   9.800   2.282   5.975
   44POPC   C1B  898   9.841   1.729   7.281
   44POPC   C2B  899   9.862   1.474   6.880
   44POPC   C3B  900   9.879   1.574   6.439
   44POPC   C4B  901   9.703   1.970   6.360
   45POPC   NC3  902   0.305   2.563   8.208
   45POPC   PO4  903   0.513   3.190   8.134
   45POPC   GL1  904   0.366   2.931   7.767
   45POPC   GL2  905   0.137   2.615   7.714
   45POPC   C1A  906   0.224   3.036   7.337
   45POPC   D2A  907   0.503   2.981   6.985
   45POPC   C3A  908   0.489   3.075   6.566
   45POPC   C4A  909   0.560   2.876   6.178
   45POPC   C1B  910   0.386   2.552   7.307
   45POPC   C2B  911   0.283   2.527   6.849
   45POPC   C3B  912   0.425   2.455   6.433
   45POPC   C4B  913   0.226   2.541   6.016
   46POPC   NC3  914   8.167   7.156   8.375
   46POPC   PO4  915   7.919   6.593   8.065
   46POPC   GL1  916   8.187   6.832   7.770
   46POPC   GL2  917   8.444   6.608   7.676
   46POPC   C1A  918   8.433   7.007   7.359
   46POPC   D2A  919   8.609   7.006   6.907
   46POPC   C3A  920   8.425   7.144   6.502
   46POPC   C4A  921   8.203   6.902   6.157
   46POPC   C1B  922   8.117   6.586   7.350
   46POPC   C2B  923   8.161   6.785   6.980
   46POPC   C3B  924   8.348   6.654   6.617
   46POPC   C4B  925   8.060   6.462   6.382
   47POPC   NC3  926   4.992   1.479   8.380
   47POPC   PO4  927   4.485   1.831   8.143
   47POPC   GL1  928   4.755   1.792   7.801
   47POPC   GL2  929   5.059   1.829   7.990
   47POPC   C1A  930   4.766   1.806   7.344
   47POPC   D2A  931   4.996   1.900   6.948
   47POPC   C3A  932   4.746   2.061   6.581
   47POPC   C4A  933   4.888   2.381   6.289
   47POPC   C1B  934   5.242   1.923   7.556
   47POPC   C2B  935   5.404   2.176   7.192
   47POPC   C3B  936   5.416   2.140   6.727
   47POPC   C4B  937   5.225   1.942   6.378
   48POPC   NC3  938   2.637   4.553   7.975
   48POPC   PO4  939   2.738   5.210   8.056
   48POPC   GL1  940   2.629   5.279   7.594
   48POPC   GL2  941   2.636   4.935   7.505
   48POPC   C1A  942   2.646   5.330   7.108
   48POPC   D2A  943   2.831   5.246   6.683
   48POPC   C3A  944   2.672   5.081   6.239
   48POPC   C4A  945   2.548   5.204   5.793
   48POPC   C1B  946   2.758   4.841   7.063
   48POPC   C2B  947   2.635   4.759   6.636
   48POPC   C3B  948   2.756   4.574   6.236
   48POPC   C4B  949   2.961   4.494   5.831
   49POPC   NC3  950   4.292   2.274   8.184
   49POPC   PO4  951   3.750   1.779   8.215
   49POPC   GL1  952   4.033   1.923   7.881
   49POPC   GL2  953   4.241   1.673   7.720
   49POPC   C1A  954   4.106   2.099   7.449
   49POPC   D2A  955   3.917   2.187   7.031
   49POPC   C3A  956   4.104   2.091   6.606
   49POPC   C4A  957   4.323   2.154   6.208
   49POPC   C1B  958   4.278   1.628   7.287
   49POPC   C2B  959   4.413   1.812   6.928
   49POPC   C3B  960   4.426   1.650   6.526
   49POPC   C4B  961   4.349   1.634   6.107
   50POPC   NC3  962   6.387   7.303   7.973
   50POPC   PO4  963   6.853   7.105   8.426
   50POPC   GL1  964   6.832   7.163   7.797
   50POPC   GL2  965   7.062   7.397   7.652
   50POPC   C1A  966   6.663   7.276   7.336
   50POPC   D2A  967   6.446   7.328   6.895
   50POPC   C3A  968   6.632   7.309   6.459
   50POPC   C4A  969   6.626   7.119   6.024
   50POPC   C1B  970   7.082   7.525   7.225
   50POPC   C2B  971   7.069   7.320   6.858
   50POPC   C3B  972   7.103   7.485   6.454
   50POPC   C4B  973   6.833   7.604   6.084
   51POPC   NC3  974   9.704   2.643   8.046
   51POPC   PO4  975   9.175   3.088   8.217
   51POPC   GL1  976   9.346   2.957   7.743
   51POPC   GL2  977   9.594   2.683   7.574
   51POPC   C1A  978   9.278   2.880   7.254
   51POPC   D2A  979   9.457   3.092   6.899
   51POPC   C3A  980   9.526   2.871   6.534
   51POPC   C4A  981   9.295   2.901   6.147
   51POPC   C1B  982   9.868   2.672   7.213
   51POPC   C2B  983   9.978   2.945   6.853
   51POPC   C3B  984   0.046   2.893   6.407
   51POPC   C4B  985   9.778   2.773   6.083
   52POPC   NC3  986   6.669   1.860   8.331
   52POPC   PO4  987   7.092   1.389   8.195
   52POPC   GL1  988   6.797   1.563   7.924
   52POPC   GL2  989   6.760   1.947   7.827
   52POPC   C1A  990   6.768   1.537   7.494
   52POPC   D2A  991   6.547   1.417   7.140
   52POPC   C3A  992   6.661   1.551   6.722
   52POPC   C4A  993   6.866   1.806   6.379
   52POPC   C1B  994   6.441   2.000   7.459
   52POPC   C2B  995   6.262   1.904   7.010
   52POPC   C3B  996   6.410   1.973   6.566
   52POPC   C4B  997   6.690   2.305   6.318
   53POPC   NC3  998   0.225   3.490   7.920
   53POPC   PO4  999   9.876   3.018   8.262
   53POPC   GL1 1000   9.858   3.084   7.798
   53POPC   GL2 1001   9.683   3.412   7.778
   53POPC   C1A 1002   9.734   3.171   7.341
   53POPC   D2A 1003   9.977   3.440   7.035
   53POPC   C3A 1004   9.752   3.490   6.637
   53POPC   C4A 1005   9.676   3.262   6.248
   53POPC   C1B 1006   9.718   3.728   7.407
   53POPC   C2B 1007   9.751   3.909   6.971
   53POPC   C3B 1008   9.548   3.992   6.575
   53POPC   C4B 1009   9.459   3.720   6.227
   54POPC   NC3 1010   7.002   8.763   8.456
   54POPC   PO4 1011   6.433   9.081   8.339
   54POPC   GL1 1012   6.448   8.967   7.881
   54POPC   GL2 1013   6.755   8.728   7.835
   54POPC   C1A 1014   6.335   9.067   7.415
   54POPC   D2A 1015   6.531   9.126   6.975
   54POPC   C3A 1016   6.271   9.109   6.617
   54POPC   C4A 1017   6.274   8.824   6.290
   54POPC   C1B 1018   6.846   9.110   7.572
   54POPC   C2B 1019   7.105   9.239   7.180
   54POPC   C3B 1020   7.090   9.167   6.713
   54POPC   C4B 1021   6.738   8.995   6.421
   55POPC   NC3 1022   9.654   0.339   7.818
   55POPC   PO4 1023   9.258   0.724   8.227
   55POPC   GL1 1024   9.532   0.821   7.796
   55POPC   GL2 1025   9.897   0.833   7.693
   55POPC   C1A 1026   9.485   0.743   7.316
   55POPC   D2A 1027   9.584   0.536   6.907
   55POPC   C3A 1028   9.372   0.710   6.555
   55POPC   C4A 1029   9.235   0.630   6.140
   55POPC   C1B 1030   9.958   0.555   7.291
   55POPC   C2B 1031   9.995   0.221   6.946
   55POPC   C3B 1032   9.952   0.405   6.535
   55POPC   C4B 1033   9.599   0.301   6.314
   56POPC   NC3 1034   0.098   5.840   8.013
   56POPC   PO4 1035   9.568   6.191   7.826
   56POPC   GL1 1036   9.955   6.053   7.566
   56POPC   GL2 1037   0.142   5.724   7.494
   56POPC   C1A 1038   0.076   6.094   7.138
   56POPC   D2A 1039   0.014   5.885   6.741
   56POPC   C3A 1040   9.699   6.068   6.490
   56POPC   C4A 1041   9.726   5.975   6.078
   56POPC   C1B 1042   9.759   5.695   7.223
   56POPC   C2B 1043   9.561   5.610   6.821
   56POPC   C3B 1044   9.607   5.574   6.374
   56POPC   C4B 1045   9.373   5.614   5.970
   57POPC   NC3 1046   8.151   9.582   8.135
   57POPC   PO4 1047   8.638   0.006   7.979
   57POPC   GL1 1048   8.271   9.832   7.679
   57POPC   GL2 1049   8.259   9.424   7.657
   57POPC   C1A 1050   7.918   9.972   7.354
   57POPC   D2A 1051   7.710   9.954   6.914
   57POPC   C3A 1052   7.846   9.931   6.453
   57POPC   C4A 1053   8.170   9.847   6.135
   57POPC   C1B 1054   8.014   9.466   7.254
   57POPC   C2B 1055   8.040   9.563   6.785
   57POPC   C3B 1056   7.952   9.422   6.355
   57POPC   C4B 1057   8.098   9.386   5.900
   58POPC   NC3 1058   3.755   7.593   8.084
   58POPC   PO4 1059   3.678   7.013   8.094
   58POPC   GL1 1060   3.795   7.289   7.643
   58POPC   GL2 1061   3.621   7.583   7.458
   58POPC   C1A 1062   3.898   7.356   7.132
   58POPC   D2A 1063   3.626   7.516   6.776
   58POPC   C3A 1064   3.384   7.205   6.569
   58POPC   C4A 1065   3.441   6.951   6.197
   58POPC   C1B 1066   3.256   7.646   7.175
   58POPC   C2B 1067   3.142   7.729   6.737
   58POPC   C3B 1068   3.317   7.664   6.338
   58POPC   C4B 1069   3.738   7.569   6.258
   59POPC   NC3 1070   8.809   2.238   7.858
   59POPC   PO4 1071   8.987   1.647   7.979
   59POPC   GL1 1072   9.044   1.615   7.560
   59POPC   GL2 1073   8.737   1.793   7.515
   59POPC   C1A 1074   9.348   1.616   7.187
   59POPC   D2A 1075   9.521   1.915   6.854
   59POPC   C3A 1076   9.220   1.961   6.476
   59POPC   C4A 1077   8.984   1.732   6.169
   59POPC   C1B 1078   9.049   2.043   7.276
   59POPC   C2B 1079   9.046   2.224   6.875
   59POPC   C3B 1080   8.724   2.100   6.558
   59POPC   C4B 1081   8.521   1.739   6.360
   60POPC   NC3 1082   6.689   1.128   8.242
   60POPC   PO4 1083   6.098   0.764   8.290
   60POPC   GL1 1084   6.324   0.859   7.886
   60POPC   GL2 1085   6.637   1.033   7.739
   60POPC   C1A 1086   6.238   0.827   7.421
   60POPC   D2A 1087   6.321   0.987   6.993
   60POPC   C3A 1088   6.059   0.924   6.644
   60POPC   C4A 1089   6.212   0.964   6.232
   60POPC   C1B 1090   6.754   0.916   7.300
   60POPC   C2B 1091   6.815   1.066   6.866
   60POPC   C3B 1092   6.625   1.075   6.484
   60POPC   C4B 1093   6.520   1.437   6.228
   61POPC   NC3 1094   1.051   4.051   7.884
   61POPC   PO4 1095   0.918   4.681   7.959
   61POPC   GL1 1096   0.864   4.442   7.587
   61POPC   GL2 1097   1.215   4.367   7.518
   61POPC   C1A 1098   0.863   4.440   7.097
   61POPC   D2A 1099   0.853   4.702   6.719
   61POPC   C3A 1100   0.908   4.522   6.315
   61POPC   C4A 1101   1.033   4.381   5.867
   61POPC   C1B 1102   1.248   4.109   7.150
   61POPC   C2B 1103   1.160   4.226   6.690
   61POPC   C3B 1104   1.349   4.273   6.265
   61POPC   C4B 1105   1.367   3.985   5.936
   62POPC   NC3 1106   7.622   3.315   8.251
   62POPC   PO4 1107   7.169   3.788   8.025
   62POPC   GL1 1108   7.405   3.451   7.805
   62POPC   GL2 1109   7.171   3.229   7.668
   62POPC   C1A 1110   7.671   3.293   7.451
   62POPC   D2A 1111   7.524   3.094   7.030
   62POPC   C3A 1112   7.575   3.295   6.603
   62POPC   C4A 1113   7.487   3.357   6.153
   62POPC   C1B 1114   7.210   3.411   7.284
   62POPC   C2B 1115   7.129   3.403   6.839
   62POPC   C3B 1116   7.015   3.478   6.397
   62POPC   C4B 1117   7.114   3.644   5.982
   63POPC   NC3 1118   1.917   2.863   8.203
   63POPC   PO4 1119   2.491   3.243   8.260
   63POPC   GL1 1120   2.290   3.068   7.841
   63POPC   GL2 1121   2.163   2.729   7.758
   63POPC   C1A 1122   2.131   3.074   7.363
   63POPC   D2A 1123   2.063   3.171   6.915
   63POPC   C3A 1124   2.213   2.955   6.525
   63POPC   C4A 1125   2.126   2.915   6.062
   63POPC   C1B 1126   2.021   2.570   7.339
   63POPC   C2B 1127   1.865   2.688   6.909
   63POPC   C3B 1128   1.915   2.545   6.478
   63POPC   C4B 1129   1.804   2.518   6.032
   64POPC   NC3 1130   8.078   7.837   7.941
   64POPC   PO4 1131   8.272   8.415   8.278
   64POPC   GL1 1132   8.405   8.437   7.815
   64POPC   GL2 1133   8.345   8.112   7.627
   64POPC   C1A 1134   8.394   8.478   7.317
   64POPC   D2A 1135   8.418   8.137   7.017
   64POPC   C3A 1136   8.404   8.312   6.638
   64POPC   C4A 1137   8.353   8.149   6.259
   64POPC   C1B 1138   7.992   8.102   7.296
   64POPC   C2B 1139   7.966   7.845   6.886
   64POPC   C3B 1140   7.885   7.969   6.477
   64POPC   C4B 1141   7.992   7.846   6.072
   65POPC   NC3 1142   4.256   9.786   8.191
   65POPC   PO4 1143   4.753   9.288   8.258
   65POPC   GL1 1144   4.469   9.447   7.859
   65POPC   GL2 1145   4.410   9.828   7.719
   65POPC   C1A 1146   4.465   9.383   7.415
   65POPC   D2A 1147   4.473   9.636   7.028
   65POPC   C3A 1148   4.391   9.461   6.572
   65POPC   C4A 1149   4.652   9.331   6.230
   65POPC   C1B 1150   4.052   9.678   7.504
   65POPC   C2B 1151   3.961   9.816   7.082
   65POPC   C3B 1152   4.180   9.915   6.657
   65POPC   C4B 1153   4.073   9.805   6.193
   66POPC   NC3 1154   2.051   1.225   8.099
   66POPC   PO4 1155   1.557   0.817   8.130
   66POPC   GL1 1156   1.752   0.957   7.762
   66POPC   GL2 1157   2.117   0.972   7.628
   66POPC   C1A 1158   1.656   1.179   7.390
   66POPC   D2A 1159   1.741   1.073   6.979
   66POPC   C3A 1160   1.729   1.207   6.544
   66POPC   C4A 1161   2.004   1.058   6.212
   66POPC   C1B 1162   2.155   1.257   7.256
   66POPC   C2B 1163   2.160   1.330   6.797
   66POPC   C3B 1164   2.062   1.580   6.405
   66POPC   C4B 1165   1.962   1.627   5.941
   67POPC   NC3 1166   7.367   4.211   8.023
   67POPC   PO4 1167   7.605   4.786   7.963
   67POPC   GL1 1168   7.734   4.422   7.672
   67POPC   GL2 1169   7.796   4.034   7.756
   67POPC   C1A 1170   7.755   4.248   7.242
   67POPC   D2A 1171   7.729   4.076   6.814
   67POPC   C3A 1172   7.486   4.312   6.507
   67POPC   C4A 1173   7.335   4.568   6.186
   67POPC   C1B 1174   7.532   3.813   7.446
   67POPC   C2B 1175   7.255   3.878   7.087
   67POPC   C3B 1176   7.203   3.897   6.658
   67POPC   C4B 1177   7.506   3.787   6.410
   68POPC   NC3 1178   2.091   5.374   8.139
   68POPC   PO4 1179   2.277   4.750   8.208
   68POPC   GL1 1180   2.218   5.012   7.805
   68POPC   GL2 1181   1.868   5.064   7.720
   68POPC   C1A 1182   2.197   5.167   7.332
   68POPC   D2A 1183   2.160   5.387   6.905
   68POPC   C3A 1184   2.248   5.124   6.554
   68POPC   C4A 1185   2.180   5.067   6.118
   68POPC   C1B 1186   1.630   4.960   7.321
   68POPC   C2B 1187   1.630   5.092   6.868
   68POPC   C3B 1188   1.743   5.013   6.411
   68POPC   C4B 1189   1.825   4.709   6.056
   69POPC   NC3 1190   7.924   2.811   7.972
   69POPC   PO4 1191   8.473   2.506   7.988
   69POPC   GL1 1192   8.350   2.743   7.658
   69POPC   GL2 1193   8.370   3.078   7.740
   69POPC   C1A 1194   8.302   2.625   7.240
   69POPC   D2A 1195   8.452   2.480   6.840
   69POPC   C3A 1196   8.131   2.581   6.552
   69POPC   C4A 1197   7.882   2.524   6.179
   69POPC   C1B 1198   8.149   3.139   7.332
   69POPC   C2B 1199   7.997   3.114   6.879
   69POPC   C3B 1200   8.020   3.084   6.433
   69POPC   C4B 1201   8.267   2.854   6.138
   70POPC   NC3 1202   1.161   7.326   8.184
   70POPC   PO4 1203   1.715   6.810   8.163
   70POPC   GL1 1204   1.544   7.123   7.760
   70POPC   GL2 1205   1.267   7.397   7.705
   70POPC   C1A 1206   1.499   7.312   7.280
   70POPC   D2A 1207   1.247   7.183   6.914
   70POPC   C3A 1208   1.407   7.268   6.489
   70POPC   C4A 1209   1.751   7.279   6.198
   70POPC   C1B 1210   1.005   7.496   7.310
   70POPC   C2B 1211   0.899   7.525   6.861
   70POPC   C3B 1212   0.867   7.227   6.490
   70POPC   C4B 1213   0.943   7.243   6.019
   71POPC   NC3 1214   0.666   9.653   8.207
   71POPC   PO4 1215   1.265   9.254   8.152
   71POPC   GL1 1216   1.319   9.419   7.730
   71POPC   GL2 1217   1.011   9.617   7.751
   71POPC   C1A 1218   1.252   9.335   7.268
   71POPC   D2A 1219   0.957   9.094   6.963
   71POPC   C3A 1220   0.941   9.228   6.505
   71POPC   C4A 1221   0.917   9.311   6.045
   71POPC   C1B 1222   1.285   9.845   7.456
   71POPC   C2B 1223   1.354   9.923   7.015
   71POPC   C3B 1224   1.066   9.929   6.667
   71POPC   C4B 1225   0.881   9.837   6.287
   72POPC   NC3 1226   6.741   6.804   8.117
   72POPC   PO4 1227   6.232   6.940   7.727
   72POPC   GL1 1228   6.600   6.796   7.517
   72POPC   GL2 1229   6.867   6.604   7.660
   72POPC   C1A 1230   6.613   6.835   7.072
   72POPC   D2A 1231   6.812   6.912   6.705
   72POPC   C3A 1232   6.539   6.757   6.381
   72POPC   C4A 1233   6.277   6.725   5.989
   72POPC   C1B 1234   6.898   6.435   7.211
   72POPC   C2B 1235   6.753   6.398   6.747
   72POPC   C3B 1236   6.718   6.244   6.303
   72POPC   C4B 1237   6.511   6.100   5.905
   73POPC   NC3 1238   7.572   6.335   7.899
   73POPC   PO4 1239   7.193   6.871   7.994
   73POPC   GL1 1240   7.279   6.896   7.599
   73POPC   GL2 1241   7.630   6.789   7.634
   73POPC   C1A 1242   7.111   6.896   7.164
   73POPC   D2A 1243   7.223   6.617   6.807
   73POPC   C3A 1244   7.046   6.627   6.359
   73POPC   C4A 1245   6.793   6.597   5.962
   73POPC   C1B 1246   7.628   6.712   7.205
   73POPC   C2B 1247   7.737   6.610   6.773
   73POPC   C3B 1248   7.552   6.523   6.384
   73POPC   C4B 1249   7.419   6.121   6.212
   74POPC   NC3 1250   6.212   2.670   8.027
   74POPC   PO4 1251   6.700   2.309   8.222
   74POPC   GL1 1252   6.755   2.512   7.832
   74POPC   GL2 1253   6.815   2.878   7.794
   74POPC   C1A 1254   6.577   2.596   7.414
   74POPC   D2A 1255   6.261   2.623   7.086
   74POPC   C3A 1256   6.329   2.463   6.654
   74POPC   C4A 1257   6.176   2.311   6.225
   74POPC   C1B 1258   6.887   2.982   7.295
   74POPC   C2B 1259   6.711   2.776   6.890
   74POPC   C3B 1260   6.686   2.824   6.403
   74POPC   C4B 1261   6.559   2.945   5.949
   75POPC   NC3 1262   3.547   0.526   8.140
   75POPC   PO4 1263   3.902   1.084   8.141
   75POPC   GL1 1264   4.001   0.761   7.785
   75POPC   GL2 1265   3.736   0.536   7.676
   75POPC   C1A 1266   3.993   0.759   7.315
   75POPC   D2A 1267   3.594   0.785   7.068
   75POPC   C3A 1268   3.593   0.564   6.674
   75POPC   C4A 1269   3.737   0.674   6.247
   75POPC   C1B 1270   3.379   0.439   7.422
   75POPC   C2B 1271   3.201   0.423   7.013
   75POPC   C3B 1272   3.212   0.219   6.624
   75POPC   C4B 1273   3.250   0.504   6.274
   76POPC   NC3 1274   2.488   2.043   8.230
   76POPC   PO4 1275   3.003   2.434   8.326
   76POPC   GL1 1276   3.080   2.332   7.848
   76POPC   GL2 1277   2.869   2.027   7.818
   76POPC   C1A 1278   3.044   2.189   7.351
   76POPC   D2A 1279   2.740   2.086   6.962
   76POPC   C3A 1280   2.826   2.112   6.486
   76POPC   C4A 1281   2.968   2.084   6.037
   76POPC   C1B 1282   2.680   1.841   7.431
   76POPC   C2B 1283   2.484   1.644   7.071
   76POPC   C3B 1284   2.550   1.644   6.613
   76POPC   C4B 1285   2.804   1.639   6.234
   77POPC   NC3 1286   1.400   4.693   7.922
   77POPC   PO4 1287   1.490   5.267   7.990
   77POPC   GL1 1288   1.129   5.107   7.774
   77POPC   GL2 1289   1.004   5.441   7.744
   77POPC   C1A 1290   1.084   4.836   7.358
   77POPC   D2A 1291   1.339   4.617   7.011
   77POPC   C3A 1292   1.337   4.729   6.563
   77POPC   C4A 1293   1.323   4.836   6.111
   77POPC   C1B 1294   1.240   5.309   7.339
   77POPC   C2B 1295   1.124   5.091   6.930
   77POPC   C3B 1296   1.098   5.201   6.494
   77POPC   C4B 1297   1.366   5.403   6.196
   78POPC   NC3 1298   8.046   0.871   8.153
   78POPC   PO4 1299   8.026   1.540   8.235
   78POPC   GL1 1300   8.169   1.249   7.832
   78POPC   GL2 1301   8.473   1.377   7.699
   78POPC   C1A 1302   8.087   1.072   7.369
   78POPC   D2A 1303   8.300   1.020   6.950
   78POPC   C3A 1304   8.144   0.878   6.524
   78POPC   C4A 1305   7.913   0.958   6.103
   78POPC   C1B 1306   8.277   1.548   7.319
   78POPC   C2B 1307   7.931   1.431   7.010
   78POPC   C3B 1308   7.884   1.334   6.562
   78POPC   C4B 1309   8.185   1.366   6.201
   79POPC   NC3 1310   1.931   0.553   8.069
   79POPC   PO4 1311   1.951   9.909   8.103
   79POPC   GL1 1312   1.650   0.049   7.772
   79POPC   GL2 1313   1.575   0.435   7.721
   79POPC   C1A 1314   1.750   0.114   7.332
   79POPC   D2A 1315   2.135   0.238   7.071
   79POPC   C3A 1316   2.075   0.220   6.619
   79POPC   C4A 1317   2.072   0.188   6.182
   79POPC   C1B 1318   1.817   0.646   7.358
   79POPC   C2B 1319   2.138   0.777   7.038
   79POPC   C3B 1320   2.011   0.758   6.617
   79POPC   C4B 1321   1.748   0.567   6.287
   80POPC   NC3 1322   5.155   9.600   8.348
   80POPC   PO4 1323   4.638   0.082   8.208
   80POPC   GL1 1324   4.844   9.771   7.971
   80POPC   GL2 1325   5.128   9.896   7.901
   80POPC   C1A 1326   4.863   9.698   7.488
   80POPC   D2A 1327   5.032   9.750   7.044
   80POPC   C3A 1328   4.770   9.802   6.654
   80POPC   C4A 1329   4.598   9.852   6.233
   80POPC   C1B 1330   5.329   9.555   7.648
   80POPC   C2B 1331   5.413   9.449   7.198
   80POPC   C3B 1332   5.321   9.469   6.731
   80POPC   C4B 1333   5.087   9.567   6.327
   81POPC   NC3 1334   1.056   8.828   8.133
   81POPC   PO4 1335   1.595   8.383   8.098
   81POPC   GL1 1336   1.544   8.833   7.862
   81POPC   GL2 1337   1.212   8.930   7.669
   81POPC   C1A 1338   1.634   9.030   7.429
   81POPC   D2A 1339   1.386   8.795   7.095
   81POPC   C3A 1340   1.282   8.798   6.631
   81POPC   C4A 1341   1.366   9.033   6.214
   81POPC   C1B 1342   1.026   8.611   7.413
   81POPC   C2B 1343   0.878   8.552   7.001
   81POPC   C3B 1344   0.739   8.740   6.633
   81POPC   C4B 1345   0.941   8.748   6.244
   82POPC   NC3 1346   9.522   8.909   8.216
   82POPC   PO4 1347   9.967   8.448   8.163
   82POPC   GL1 1348   9.829   8.676   7.818
   82POPC   GL2 1349   9.505   8.546   7.841
   82POPC   C1A 1350   9.988   8.841   7.394
   82POPC   D2A 1351   9.979   9.176   7.039
   82POPC   C3A 1352   9.843   8.995   6.620
   82POPC   C4A 1353   9.849   8.737   6.175
   82POPC   C1B 1354   9.506   8.605   7.391
   82POPC   C2B 1355   9.667   8.658   6.978
   82POPC   C3B 1356   9.481   8.650   6.521
   82POPC   C4B 1357   9.477   9.080   6.230
   83POPC   NC3 1358   2.508   5.602   7.958
   83POPC   PO4 1359   1.943   5.708   8.403
   83POPC   GL1 1360   1.836   5.702   7.858
   83POPC   GL2 1361   2.104   5.536   7.667
   83POPC   C1A 1362   1.912   5.951   7.444
   83POPC   D2A 1363   2.151   6.114   7.047
   83POPC   C3A 1364   2.105   5.881   6.648
   83POPC   C4A 1365   1.746   5.990   6.408
   83POPC   C1B 1366   1.780   5.466   7.369
   83POPC   C2B 1367   1.772   5.712   6.996
   83POPC   C3B 1368   1.737   5.511   6.594
   83POPC   C4B 1369   2.006   5.505   6.271
   84POPC   NC3 1370   7.512   5.232   8.005
   84POPC   PO4 1371   7.561   5.880   7.952
   84POPC   GL1 1372   7.805   5.523   7.657
   84POPC   GL2 1373   7.812   5.111   7.623
   84POPC   C1A 1374   7.739   5.367   7.194
   84POPC   D2A 1375   7.740   5.338   6.723
   84POPC   C3A 1376   7.725   5.701   6.427
   84POPC   C4A 1377   7.629   5.667   5.971
   84POPC   C1B 1378   7.656   4.825   7.304
   84POPC   C2B 1379   7.575   4.642   6.908
   84POPC   C3B 1380   7.576   4.888   6.519
   84POPC   C4B 1381   7.825   5.151   6.224
   85POPC   NC3 1382   1.292   6.659   8.308
   85POPC   PO4 1383   0.769   7.084   8.335
   85POPC   GL1 1384   0.956   7.007   7.839
   85POPC   GL2 1385   1.237   6.738   7.809
   85POPC   C1A 1386   1.138   6.975   7.384
   85POPC   D2A 1387   1.241   6.658   7.038
   85POPC   C3A 1388   1.277   6.770   6.587
   85POPC   C4A 1389   1.135   6.597   6.188
   85POPC   C1B 1390   1.471   6.542   7.499
   85POPC   C2B 1391   1.568   6.254   7.141
   85POPC   C3B 1392   1.633   6.389   6.731
   85POPC   C4B 1393   1.622   6.514   6.308
   86POPC   NC3 1394   0.316   8.727   8.037
   86POPC   PO4 1395   0.305   9.345   8.104
   86POPC   GL1 1396   0.721   9.187   7.899
   86POPC   GL2 1397   0.705   8.843   7.735
   86POPC   C1A 1398   0.787   9.253   7.443
   86POPC   D2A 1399   0.493   9.300   7.075
   86POPC   C3A 1400   0.426   9.161   6.655
   86POPC   C4A 1401   0.536   9.045   6.234
   86POPC   C1B 1402   0.531   8.827   7.299
   86POPC   C2B 1403   0.247   8.760   6.936
   86POPC   C3B 1404   0.254   8.706   6.482
   86POPC   C4B 1405   0.421   8.563   6.104
   87POPC   NC3 1406   0.475   7.431   8.252
   87POPC   PO4 1407   9.936   7.026   8.235
   87POPC   GL1 1408   0.118   7.172   7.842
   87POPC   GL2 1409   0.031   7.515   7.780
   87POPC   C1A 1410   0.150   6.963   7.401
   87POPC   D2A 1411   0.126   6.845   6.949
   87POPC   C3A 1412   0.340   6.996   6.568
   87POPC   C4A 1413   0.405   7.258   6.212
   87POPC   C1B 1414   0.361   7.417   7.428
   87POPC   C2B 1415   0.425   7.337   6.960
   87POPC   C3B 1416   0.507   7.604   6.565
   87POPC   C4B 1417   0.832   7.731   6.264
   88POPC   NC3 1418   8.226   0.276   7.977
   88POPC   PO4 1419   7.646   0.634   8.123
   88POPC   GL1 1420   7.835   0.755   7.717
   88POPC   GL2 1421   8.195   0.681   7.657
   88POPC   C1A 1422   7.827   0.538   7.339
   88POPC   D2A 1423   8.073   0.542   6.955
   88POPC   C3A 1424   7.903   0.417   6.588
   88POPC   C4A 1425   7.719   0.504   6.195
   88POPC   C1B 1426   8.310   0.330   7.352
   88POPC   C2B 1427   8.253   0.044   6.973
   88POPC   C3B 1428   8.358   0.098   6.539
   88POPC   C4B 1429   8.235   0.384   6.202
   89POPC   NC3 1430   5.039   1.027   8.102
   89POPC   PO4 1431   5.444   1.561   8.218
   89POPC   GL1 1432   5.367   1.480   7.754
   89POPC   GL2 1433   5.061   1.369   7.745
   89POPC   C1A 1434   5.165   1.480   7.270
   89POPC   D2A 1435   4.776   1.441   6.965
   89POPC   C3A 1436   4.934   1.561   6.553
   89POPC   C4A 1437   5.372   1.438   6.414
   89POPC   C1B 1438   5.097   1.000   7.462
   89POPC   C2B 1439   4.929   0.967   7.073
   89POPC   C3B 1440   5.079   1.096   6.672
   89POPC   C4B 1441   5.135   1.030   6.214
   90POPC   NC3 1442   5.309   7.880   8.135
   90POPC   PO4 1443   4.893   8.411   8.243
   90POPC   GL1 1444   4.770   8.251   7.830
   90POPC   GL2 1445   5.120   8.212   7.781
   90POPC   C1A 1446   4.851   8.331   7.375
   90POPC   D2A 1447   5.123   8.309   7.013
   90POPC   C3A 1448   4.944   8.495   6.674
   90POPC   C4A 1449   4.662   8.371   6.360
   90POPC   C1B 1450   5.223   7.960   7.421
   90POPC   C2B 1451   5.081   7.799   7.021
   90POPC   C3B 1452   4.937   7.944   6.637
   90POPC   C4B 1453   5.213   8.151   6.408
   91POPC   NC3 1454   9.673   7.448   8.269
   91POPC   PO4 1455   9.235   7.034   8.122
   91POPC   GL1 1456   9.544   7.211   7.845
   91POPC   GL2 1457   9.491   7.551   7.802
   91POPC   C1A 1458   9.700   7.218   7.431
   91POPC   D2A 1459   9.623   6.953   7.063
   91POPC   C3A 1460   9.603   7.145   6.667
   91POPC   C4A 1461   9.875   7.122   6.284
   91POPC   C1B 1462   9.725   7.744   7.428
   91POPC   C2B 1463   9.970   7.565   7.091
   91POPC   C3B 1464   0.014   7.445   6.651
   91POPC   C4B 1465   9.681   7.592   6.345
   92POPC   NC3 1466   7.894   1.826   7.900
   92POPC   PO4 1467   7.644   2.431   7.990
   92POPC   GL1 1468   7.988   2.368   7.656
   92POPC   GL2 1469   8.359   2.215   7.584
   92POPC   C1A 1470   8.002   2.209   7.226
   92POPC   D2A 1471   7.828   1.963   6.910
   92POPC   C3A 1472   7.719   2.216   6.557
   92POPC   C4A 1473   7.542   2.097   6.185
   92POPC   C1B 1474   8.496   2.059   7.154
   92POPC   C2B 1475   8.301   1.761   6.833
   92POPC   C3B 1476   8.035   1.821   6.455
   92POPC   C4B 1477   8.230   2.168   6.255
   93POPC   NC3 1478   1.261   8.036   8.124
   93POPC   PO4 1479   0.704   8.489   8.120
   93POPC   GL1 1480   0.905   8.228   7.745
   93POPC   GL2 1481   1.022   7.862   7.708
   93POPC   C1A 1482   0.976   8.110   7.276
   93POPC   D2A 1483   0.862   8.032   6.845
   93POPC   C3A 1484   1.017   8.310   6.550
   93POPC   C4A 1485   1.320   8.270   6.261
   93POPC   C1B 1486   1.393   7.819   7.417
   93POPC   C2B 1487   1.369   7.748   6.959
   93POPC   C3B 1488   1.309   7.786   6.497
   93POPC   C4B 1489   1.601   7.855   6.132
   94POPC   NC3 1490   0.789   2.118   8.192
   94POPC   PO4 1491   1.381   1.795   8.237
   94POPC   GL1 1492   1.129   1.893   7.859
   94POPC   GL2 1493   1.155   2.267   7.838
   94POPC   C1A 1494   1.071   1.809   7.383
   94POPC   D2A 1495   0.916   1.713   6.935
   94POPC   C3A 1496   1.138   1.809   6.527
   94POPC   C4A 1497   1.024   1.966   6.078
   94POPC   C1B 1498   1.146   2.325   7.389
   94POPC   C2B 1499   1.112   2.186   6.946
   94POPC   C3B 1500   1.046   2.300   6.510
   94POPC   C4B 1501   1.384   2.300   6.192
   95POPC   NC3 1502   8.303   3.876   8.131
   95POPC   PO4 1503   8.059   3.240   8.114
   95POPC   GL1 1504   8.046   3.539   7.787
   95POPC   GL2 1505   8.391   3.607   7.725
   95POPC   C1A 1506   8.024   3.671   7.357
   95POPC   D2A 1507   7.734   3.587   7.019
   95POPC   C3A 1508   7.955   3.634   6.651
   95POPC   C4A 1509   7.942   3.581   6.227
   95POPC   C1B 1510   8.550   3.491   7.357
   95POPC   C2B 1511   8.348   3.490   6.982
   95POPC   C3B 1512   8.403   3.403   6.581
   95POPC   C4B 1513   8.371   3.345   6.149
   96POPC   NC3 1514   8.204   8.883   8.171
   96POPC   PO4 1515   7.903   8.268   7.917
   96POPC   GL1 1516   7.967   8.574   7.586
   96POPC   GL2 1517   8.010   8.913   7.700
   96POPC   C1A 1518   7.805   8.597   7.174
   96POPC   D2A 1519   7.932   8.347   6.832
   96POPC   C3A 1520   7.953   8.518   6.417
   96POPC   C4A 1521   7.659   8.681   6.096
   96POPC   C1B 1522   8.174   8.956   7.295
   96POPC   C2B 1523   8.234   8.759   6.893
   96POPC   C3B 1524   8.231   9.014   6.543
   96POPC   C4B 1525   8.058   8.962   6.164
   97POPC   NC3 1526   3.464   8.176   8.187
   97POPC   PO4 1527   3.355   7.595   7.867
   97POPC   GL1 1528   3.702   7.973   7.784
   97POPC   GL2 1529   3.620   8.325   7.730
   97POPC   C1A 1530   3.881   8.009   7.408
   97POPC   D2A 1531   3.668   7.946   7.036
   97POPC   C3A 1532   3.853   7.982   6.643
   97POPC   C4A 1533   3.614   8.068   6.305
   97POPC   C1B 1534   3.376   8.103   7.430
   97POPC   C2B 1535   3.187   8.142   7.052
   97POPC   C3B 1536   3.262   8.244   6.622
   97POPC   C4B 1537   3.228   8.367   6.187
   98POPC   NC3 1538   2.311   9.628   8.081
   98POPC   PO4 1539   2.940   9.952   8.174
   98POPC   GL1 1540   2.960   9.580   7.847
   98POPC   GL2 1541   2.623   9.484   7.700
   98POPC   C1A 1542   3.081   9.591   7.398
   98POPC   D2A 1543   2.817   9.637   7.006
   98POPC   C3A 1544   2.832   9.851   6.590
   98POPC   C4A 1545   2.526   9.948   6.276
   98POPC   C1B 1546   2.732   9.208   7.357
   98POPC   C2B 1547   2.917   9.130   6.949
   98POPC   C3B 1548   2.883   9.345   6.567
   98POPC   C4B 1549   2.576   9.439   6.232
   99POPC   NC3 1550   3.288   9.638   8.237
   99POPC   PO4 1551   3.954   9.376   8.158
   99POPC   GL1 1552   3.777   9.739   7.942
   99POPC   GL2 1553   3.513   9.542   7.791
   99POPC   C1A 1554   3.620   9.977   7.537
   99POPC   D2A 1555   3.426   9.953   7.099
   99POPC   C3A 1556   3.682   0.044   6.710
   99POPC   C4A 1557   3.638   0.178   6.283
   99POPC   C1B 1558   3.595   9.480   7.347
   99POPC   C2B 1559   3.332   9.459   6.959
   99POPC   C3B 1560   3.312   9.683   6.583
   99POPC   C4B 1561   3.535   9.700   6.203
  100POPC   NC3 1562   8.894   4.459   8.091
  100POPC   PO4 1563   9.477   4.534   8.400
  100POPC   GL1 1564   9.338   4.241   7.921
  100POPC   GL2 1565   9.004   4.237   7.664
  100POPC   C1A 1566   9.416   4.235   7.397
  100POPC   D2A 1567   9.224   4.094   6.980
  100POPC   C3A 1568   9.111   4.299   6.585
  100POPC   C4A 1569   9.161   4.346   6.124
  100POPC   C1B 1570   8.726   4.010   7.369
  100POPC   C2B 1571   8.805   3.778   7.011
  100POPC   C3B 1572   8.675   3.889   6.623
  100POPC   C4B 1573   8.707   4.183   6.302
  101POPC   NC3 1574   7.551   1.515   8.233
  101POPC   PO4 1575   7.127   1.993   8.364
  101POPC   GL1 1576   7.259   1.837   7.920
  101POPC   GL2 1577   7.252   2.165   7.767
  101POPC   C1A 1578   7.230   1.784   7.411
  101POPC   D2A 1579   7.117   1.726   6.921
  101POPC   C3A 1580   7.409   1.731   6.531
  101POPC   C4A 1581   7.265   1.639   6.082
  101POPC   C1B 1582   7.504   2.233   7.371
  101POPC   C2B 1583   7.369   2.183   6.932
  101POPC   C3B 1584   7.173   2.198   6.521
  101POPC   C4B 1585   7.157   2.542   6.224
  102POPC   NC3 1586   1.146   0.611   8.135
  102POPC   PO4 1587   0.957   0.018   8.088
  102POPC   GL1 1588   1.085   0.259   7.739
  102POPC   GL2 1589   0.908   0.571   7.679
  102POPC   C1A 1590   1.247   0.344   7.317
  102POPC   D2A 1591   1.113   0.392   6.886
  102POPC   C3A 1592   1.357   0.320   6.513
  102POPC   C4A 1593   1.315   0.072   6.153
  102POPC   C1B 1594   0.811   0.873   7.356
  102POPC   C2B 1595   0.754   0.739   6.938
  102POPC   C3B 1596   0.971   0.807   6.598
  102POPC   C4B 1597   0.884   0.860   6.197
  103POPC   NC3 1598   1.786   2.062   8.239
  103POPC   PO4 1599   2.279   1.626   8.151
  103POPC   GL1 1600   2.312   1.928   7.768
  103POPC   GL2 1601   2.070   2.203   7.772
  103POPC   C1A 1602   2.224   2.058   7.311
  103POPC   D2A 1603   2.015   2.080   6.904
  103POPC   C3A 1604   2.298   2.102   6.575
  103POPC   C4A 1605   2.396   1.919   6.191
  103POPC   C1B 1606   1.663   2.267   7.553
  103POPC   C2B 1607   1.586   2.294   7.100
  103POPC   C3B 1608   1.573   2.181   6.645
  103POPC   C4B 1609   1.877   2.068   6.275
  104POPC   NC3 1610   7.768   8.049   8.307
  104POPC   PO4 1611   7.211   8.477   8.165
  104POPC   GL1 1612   7.326   8.166   7.827
  104POPC   GL2 1613   7.509   8.343   7.546
  104POPC   C1A 1614   7.359   7.882   7.447
  104POPC   D2A 1615   7.536   8.070   7.047
  104POPC   C3A 1616   7.368   7.920   6.602
  104POPC   C4A 1617   7.296   7.838   6.164
  104POPC   C1B 1618   7.096   8.299   7.349
  104POPC   C2B 1619   7.088   8.233   6.906
  104POPC   C3B 1620   7.457   8.410   6.630
  104POPC   C4B 1621   7.204   8.336   6.291
  105POPC   NC3 1622   3.140   7.211   8.056
  105POPC   PO4 1623   3.137   7.852   8.252
  105POPC   GL1 1624   2.849   7.583   7.848
  105POPC   GL2 1625   3.016   7.390   7.575
  105POPC   C1A 1626   2.565   7.553   7.424
  105POPC   D2A 1627   2.376   7.535   6.990
  105POPC   C3A 1628   2.656   7.596   6.645
  105POPC   C4A 1629   2.582   7.563   6.211
  105POPC   C1B 1630   2.727   7.073   7.460
  105POPC   C2B 1631   2.639   7.038   7.024
  105POPC   C3B 1632   2.845   7.145   6.624
  105POPC   C4B 1633   3.012   7.270   6.225
  106POPC   NC3 1634   3.139   5.417   7.996
  106POPC   PO4 1635   2.823   5.915   7.887
  106POPC   GL1 1636   2.457   5.937   7.609
  106POPC   GL2 1637   2.389   6.210   7.500
  106POPC   C1A 1638   2.354   5.713   7.250
  106POPC   D2A 1639   2.571   5.780   6.817
  106POPC   C3A 1640   2.527   5.542   6.396
  106POPC   C4A 1641   2.913   5.497   6.070
  106POPC   C1B 1642   2.712   6.121   7.218
  106POPC   C2B 1643   2.913   6.229   6.862
  106POPC   C3B 1644   2.693   6.339   6.520
  106POPC   C4B 1645   2.622   6.021   6.302
  107POPC   NC3 1646   0.515   4.499   8.098
  107POPC   PO4 1647   0.220   3.907   8.155
  107POPC   GL1 1648   0.521   4.068   7.819
  107POPC   GL2 1649   0.340   4.283   7.653
  107POPC   C1A 1650   0.694   4.035   7.353
  107POPC   D2A 1651   0.813   3.917   6.957
  107POPC   C3A 1652   0.645   4.121   6.622
  107POPC   C4A 1653   0.422   4.025   6.266
  107POPC   C1B 1654   0.380   4.445   7.263
  107POPC   C2B 1655   0.404   4.501   6.842
  107POPC   C3B 1656   0.352   4.602   6.434
  107POPC   C4B 1657   0.027   4.575   6.133
  108POPC   NC3 1658   7.139   7.319   8.151
  108POPC   PO4 1659   7.745   7.569   8.193
  108POPC   GL1 1660   7.656   7.620   7.764
  108POPC   GL2 1661   7.565   7.317   7.694
  108POPC   C1A 1662   7.778   7.619   7.314
  108POPC   D2A 1663   7.520   7.576   6.928
  108POPC   C3A 1664   7.645   7.474   6.487
  108POPC   C4A 1665   7.668   7.464   6.014
  108POPC   C1B 1666   7.474   7.218   7.281
  108POPC   C2B 1667   7.524   7.074   6.873
  108POPC   C3B 1668   7.320   7.025   6.511
  108POPC   C4B 1669   7.133   7.100   6.111
  109POPC   NC3 1670   6.575   9.614   8.279
  109POPC   PO4 1671   6.241   9.899   7.797
  109POPC   GL1 1672   6.596   9.920   7.572
  109POPC   GL2 1673   6.699   9.615   7.749
  109POPC   C1A 1674   6.533   9.927   7.121
  109POPC   D2A 1675   6.606   0.091   6.752
  109POPC   C3A 1676   6.492   9.815   6.450
  109POPC   C4A 1677   6.324   9.806   6.027
  109POPC   C1B 1678   6.661   9.486   7.298
  109POPC   C2B 1679   6.815   9.587   6.843
  109POPC   C3B 1680   6.852   9.478   6.370
  109POPC   C4B 1681   6.438   9.349   6.205
  110POPC   NC3 1682   3.877   2.994   8.040
  110POPC   PO4 1683   4.429   2.721   8.221
  110POPC   GL1 1684   4.276   2.632   7.796
  110POPC   GL2 1685   3.961   2.541   7.684
  110POPC   C1A 1686   4.353   2.537   7.336
  110POPC   D2A 1687   4.423   2.326   6.929
  110POPC   C3A 1688   4.401   2.552   6.515
  110POPC   C4A 1689   4.505   2.843   6.155
  110POPC   C1B 1690   3.861   2.650   7.237
  110POPC   C2B 1691   3.909   2.616   6.745
  110POPC   C3B 1692   3.999   2.858   6.335
  110POPC   C4B 1693   3.987   3.314   6.249
  111POPC   NC3 1694   1.587   9.616   8.127
  111POPC   PO4 1695   2.193   9.185   8.127
  111POPC   GL1 1696   1.919   9.430   7.780
  111POPC   GL2 1697   2.092   9.733   7.631
  111POPC   C1A 1698   1.724   9.563   7.342
  111POPC   D2A 1699   1.865   9.798   6.931
  111POPC   C3A 1700   1.645   9.882   6.507
  111POPC   C4A 1701   1.729   9.826   6.022
  111POPC   C1B 1702   2.323   9.748   7.226
  111POPC   C2B 1703   2.351   9.786   6.758
  111POPC   C3B 1704   2.102   9.699   6.371
  111POPC   C4B 1705   2.154   9.534   5.945
  112POPC   NC3 1706   9.512   8.180   8.270
  112POPC   PO4 1707   0.048   7.749   8.273
  112POPC   GL1 1708   9.937   8.017   7.891
  112POPC   GL2 1709   9.594   8.041   7.810
  112POPC   C1A 1710   9.902   8.282   7.486
  112POPC   D2A 1711   9.911   8.137   7.050
  112POPC   C3A 1712   9.917   8.384   6.645
  112POPC   C4A 1713   9.917   8.217   6.211
  112POPC   C1B 1714   9.338   8.119   7.462
  112POPC   C2B 1715   9.373   8.171   7.032
  112POPC   C3B 1716   9.528   8.057   6.623
  112POPC   C4B 1717   9.364   8.158   6.215
  113POPC   NC3 1718   0.038   9.685   7.964
  113POPC   PO4 1719   0.444   0.034   8.373
  113POPC   GL1 1720   0.472   9.932   7.840
  113POPC   GL2 1721   0.487   9.605   7.700
  113POPC   C1A 1722   0.758   9.963   7.450
  113POPC   D2A 1723   0.886   9.673   7.111
  113POPC   C3A 1724   0.653   9.625   6.708
  113POPC   C4A 1725   0.461   9.560   6.294
  113POPC   C1B 1726   0.187   9.582   7.351
  113POPC   C2B 1727   0.205   9.732   6.931
  113POPC   C3B 1728   0.032   9.497   6.604
  113POPC   C4B 1729   0.074   9.219   6.237
  114POPC   NC3 1730   3.662   8.983   8.147
  114POPC   PO4 1731   3.165   8.533   8.158
  114POPC   GL1 1732   3.325   8.724   7.771
  114POPC   GL2 1733   3.447   9.047   7.698
  114POPC   C1A 1734   3.410   8.599   7.327
  114POPC   D2A 1735   3.600   8.448   6.944
  114POPC   C3A 1736   3.606   8.656   6.516
  114POPC   C4A 1737   3.427   8.825   6.123
  114POPC   C1B 1738   3.263   9.096   7.324
  114POPC   C2B 1739   3.389   8.937   6.917
  114POPC   C3B 1740   3.376   9.157   6.518
  114POPC   C4B 1741   3.714   9.234   6.245
  115POPC   NC3 1742   3.388   2.681   8.315
  115POPC   PO4 1743   3.474   3.254   8.073
  115POPC   GL1 1744   3.211   2.905   7.855
  115POPC   GL2 1745   3.472   2.698   7.725
  115POPC   C1A 1746   3.048   2.688   7.439
  115POPC   D2A 1747   2.889   2.589   6.996
  115POPC   C3A 1748   3.069   2.646   6.553
  115POPC   C4A 1749   3.100   2.586   6.092
  115POPC   C1B 1750   3.447   2.955   7.304
  115POPC   C2B 1751   3.431   2.907   6.820
  115POPC   C3B 1752   3.493   2.979   6.346
  115POPC   C4B 1753   3.634   3.052   5.895
  116POPC   NC3 1754   3.228   3.640   8.076
  116POPC   PO4 1755   2.706   4.081   8.066
  116POPC   GL1 1756   2.801   3.663   7.807
  116POPC   GL2 1757   2.788   3.281   7.867
  116POPC   C1A 1758   2.958   3.378   7.414
  116POPC   D2A 1759   2.983   3.150   7.010
  116POPC   C3A 1760   2.956   3.456   6.612
  116POPC   C4A 1761   3.003   3.592   6.154
  116POPC   C1B 1762   2.455   3.436   7.531
  116POPC   C2B 1763   2.499   3.426   7.072
  116POPC   C3B 1764   2.389   3.445   6.618
  116POPC   C4B 1765   2.511   3.297   6.211
  117POPC   NC3 1766   5.693   1.973   8.144
  117POPC   PO4 1767   6.269   1.525   8.150
  117POPC   GL1 1768   5.892   1.576   7.873
  117POPC   GL2 1769   6.035   1.891   7.771
  117POPC   C1A 1770   5.711   1.656   7.432
  117POPC   D2A 1771   5.712   1.822   7.019
  117POPC   C3A 1772   5.744   1.699   6.609
  117POPC   C4A 1773   6.030   1.789   6.281
  117POPC   C1B 1774   5.912   2.140   7.410
  117POPC   C2B 1775   5.907   2.287   6.997
  117POPC   C3B 1776   5.909   2.171   6.616
  117POPC   C4B 1777   5.672   2.166   6.231
  118POPC   NC3 1778   2.699   2.820   8.294
  118POPC   PO4 1779   2.145   2.403   8.222
  118POPC   GL1 1780   2.538   2.425   7.900
  118POPC   GL2 1781   2.703   2.736   7.804
  118POPC   C1A 1782   2.576   2.425   7.412
  118POPC   D2A 1783   2.363   2.444   6.978
  118POPC   C3A 1784   2.552   2.547   6.572
  118POPC   C4A 1785   2.622   2.781   6.166
  118POPC   C1B 1786   2.621   2.959   7.416
  118POPC   C2B 1787   2.505   2.928   6.982
  118POPC   C3B 1788   2.714   3.022   6.600
  118POPC   C4B 1789   3.008   3.091   6.238
  119POPC   NC3 1790   2.730   1.093   8.037
  119POPC   PO4 1791   3.102   1.657   8.111
  119POPC   GL1 1792   2.879   1.483   7.734
  119POPC   GL2 1793   2.491   1.409   7.707
  119POPC   C1A 1794   2.969   1.419   7.289
  119POPC   D2A 1795   2.976   1.604   6.892
  119POPC   C3A 1796   2.987   1.296   6.547
  119POPC   C4A 1797   2.905   0.855   6.396
  119POPC   C1B 1798   2.606   1.081   7.387
  119POPC   C2B 1799   2.642   1.167   6.912
  119POPC   C3B 1800   2.492   1.159   6.450
  119POPC   C4B 1801   2.390   1.373   6.068
  120POPC   NC3 1802   1.518   5.632   8.244
  120POPC   PO4 1803   1.227   6.195   8.253
  120POPC   GL1 1804   1.251   6.213   7.825
  120POPC   GL2 1805   1.351   5.869   7.788
  120POPC   C1A 1806   1.092   6.219   7.372
  120POPC   D2A 1807   1.036   6.043   6.942
  120POPC   C3A 1808   1.183   6.242   6.548
  120POPC   C4A 1809   1.362   6.121   6.124
  120POPC   C1B 1810   1.391   5.803   7.341
  120POPC   C2B 1811   1.298   5.586   6.932
  120POPC   C3B 1812   1.286   5.745   6.555
  120POPC   C4B 1813   0.970   5.806   6.294
  121POPC   NC3 1814   4.482   7.337   8.273
  121POPC   PO4 1815   5.135   7.444   8.168
  121POPC   GL1 1816   4.860   7.731   7.872
  121POPC   GL2 1817   4.528   7.575   7.815
  121POPC   C1A 1818   4.731   7.792   7.391
  121POPC   D2A 1819   4.609   7.618   6.932
  121POPC   C3A 1820   4.674   7.528   6.459
  121POPC   C4A 1821   4.700   7.392   5.988
  121POPC   C1B 1822   4.221   7.637   7.463
  121POPC   C2B 1823   4.157   7.794   7.031
  121POPC   C3B 1824   4.124   7.535   6.659
  121POPC   C4B 1825   3.915   7.148   6.482
  122POPC   NC3 1826   1.673   6.301   8.140
  122POPC   PO4 1827   2.216   5.951   8.053
  122POPC   GL1 1828   2.085   6.395   7.846
  122POPC   GL2 1829   2.044   6.794   7.749
  122POPC   C1A 1830   1.960   6.444   7.405
  122POPC   D2A 1831   2.016   6.603   6.990
  122POPC   C3A 1832   2.130   6.388   6.600
  122POPC   C4A 1833   2.270   6.495   6.208
  122POPC   C1B 1834   1.791   6.914   7.340
  122POPC   C2B 1835   1.675   6.932   6.867
  122POPC   C3B 1836   1.935   6.870   6.463
  122POPC   C4B 1837   1.899   6.805   5.972
  123POPC   NC3 1838   4.419   8.332   8.198
  123POPC   PO4 1839   4.193   7.697   8.212
  123POPC   GL1 1840   4.244   7.999   7.828
  123POPC   GL2 1841   4.120   8.321   7.780
  123POPC   C1A 1842   4.376   8.146   7.386
  123POPC   D2A 1843   4.588   8.144   6.963
  123POPC   C3A 1844   4.401   7.958   6.571
  123POPC   C4A 1845   4.552   7.919   6.137
  123POPC   C1B 1846   3.977   8.490   7.367
  123POPC   C2B 1847   4.079   8.297   7.004
  123POPC   C3B 1848   4.227   8.419   6.660
  123POPC   C4B 1849   4.012   8.376   6.346
  124POPC   NC3 1850   0.623   0.339   8.062
  124POPC   PO4 1851   9.986   0.129   8.050
  124POPC   GL1 1852   0.185   0.342   7.711
  124POPC   GL2 1853   0.394   0.668   7.710
  124POPC   C1A 1854   0.275   0.081   7.347
  124POPC   D2A 1855   0.584   0.120   6.975
  124POPC   C3A 1856   0.411   0.063   6.561
  124POPC   C4A 1857   0.034   9.941   6.343
  124POPC   C1B 1858   0.453   0.538   7.291
  124POPC   C2B 1859   0.276   0.621   6.872
  124POPC   C3B 1860   0.488   0.571   6.473
  124POPC   C4B 1861   0.863   0.347   6.375
  125POPC   NC3 1862   5.935   1.192   8.211
  125POPC   PO4 1863   5.396   0.723   8.206
  125POPC   GL1 1864   5.511   1.008   7.842
  125POPC   GL2 1865   5.860   1.014   7.747
  125POPC   C1A 1866   5.577   1.167   7.366
  125POPC   D2A 1867   5.538   1.308   6.917
  125POPC   C3A 1868   5.563   0.987   6.579
  125POPC   C4A 1869   5.610   0.828   6.162
  125POPC   C1B 1870   6.098   1.311   7.477
  125POPC   C2B 1871   6.042   1.429   7.043
  125POPC   C3B 1872   6.166   1.413   6.609
  125POPC   C4B 1873   5.852   1.311   6.262
  126POPC   NC3 1874   4.292   0.785   8.210
  126POPC   PO4 1875   3.820   0.268   8.428
  126POPC   GL1 1876   4.053   0.235   7.988
  126POPC   GL2 1877   4.377   0.402   7.866
  126POPC   C1A 1878   4.080   0.202   7.507
  126POPC   D2A 1879   3.813   0.312   7.140
  126POPC   C3A 1880   4.078   0.430   6.776
  126POPC   C4A 1881   4.135   0.310   6.335
  126POPC   C1B 1882   4.469   0.547   7.400
  126POPC   C2B 1883   4.615   0.570   6.954
  126POPC   C3B 1884   4.578   0.291   6.600
  126POPC   C4B 1885   4.627   0.403   6.183
  127POPC   NC3 1886   9.757   4.958   8.009
  127POPC   PO4 1887   0.377   4.877   8.338
  127POPC   GL1 1888   0.206   5.156   7.902
  127POPC   GL2 1889   9.910   5.401   7.814
  127POPC   C1A 1890   0.091   5.097   7.434
  127POPC   D2A 1891   0.108   4.854   7.053
  127POPC   C3A 1892   9.899   4.837   6.647
  127POPC   C4A 1893   9.661   5.046   6.310
  127POPC   C1B 1894   9.606   5.255   7.456
  127POPC   C2B 1895   9.661   5.143   7.021
  127POPC   C3B 1896   9.356   5.121   6.706
  127POPC   C4B 1897   9.171   5.334   6.363
  128POPC   NC3 1898   9.719   9.928   8.368
  128POPC   PO4 1899   9.369   9.352   8.175
  128POPC   GL1 1900   9.582   9.498   7.839
  128POPC   GL2 1901   9.829   9.215   7.844
  128POPC   C1A 1902   9.685   9.736   7.440
  128POPC   D2A 1903   9.721   9.625   7.025
  128POPC   C3A 1904   9.646   9.909   6.686
  128POPC   C4A 1905   9.317   9.835   6.397
  128POPC   C1B 1906   9.569   9.128   7.468
  128POPC   C2B 1907   9.466   9.163   7.020
  128POPC   C3B 1908   9.488   9.404   6.627
  128POPC   C4B 1909   9.693   9.561   6.231
  129POPC   NC3 1910   2.692   7.987   8.082
  129POPC   PO4 1911   2.395   8.513   8.361
  129POPC   GL1 1912   2.711   8.495   7.831
  129POPC   GL2 1913   3.007   8.279   7.748
  129POPC   C1A 1914   2.654   8.345   7.313
  129POPC   D2A 1915   2.354   8.350   6.918
  129POPC   C3A 1916   2.445   8.441   6.468
  129POPC   C4A 1917   2.752   8.535   6.157
  129POPC   C1B 1918   2.906   7.928   7.466
  129POPC   C2B 1919   2.746   7.889   7.063
  129POPC   C3B 1920   2.775   8.121   6.703
  129POPC   C4B 1921   2.916   7.975   6.316
  130POPC   NC3 1922   9.038   9.703   7.949
  130POPC   PO4 1923   8.531   9.282   8.241
  130POPC   GL1 1924   8.760   9.282   7.843
  130POPC   GL2 1925   9.125   9.257   7.746
  130POPC   C1A 1926   8.745   9.323   7.391
  130POPC   D2A 1927   8.959   9.291   6.992
  130POPC   C3A 1928   8.692   9.246   6.628
  130POPC   C4A 1929   8.446   9.544   6.411
  130POPC   C1B 1930   9.243   9.509   7.357
  130POPC   C2B 1931   9.197   9.776   6.971
  130POPC   C3B 1932   8.881   9.749   6.634
  130POPC   C4B 1933   8.940   9.502   6.240
  131POPC   NC3 1934   8.753   2.847   8.125
  131POPC   PO4 1935   9.259   2.320   7.900
  131POPC   GL1 1936   9.105   2.504   7.548
  131POPC   GL2 1937   8.878   2.765   7.649
  131POPC   C1A 1938   8.808   2.505   7.225
  131POPC   D2A 1939   8.916   2.758   6.892
  131POPC   C3A 1940   9.076   2.595   6.525
  131POPC   C4A 1941   9.424   2.414   6.305
  131POPC   C1B 1942   8.667   2.987   7.332
  131POPC   C2B 1943   8.484   3.010   6.950
  131POPC   C3B 1944   8.546   2.910   6.555
  131POPC   C4B 1945   8.599   2.529   6.324
  132POPC   NC3 1946   2.766   8.754   8.249
  132POPC   PO4 1947   3.232   9.199   8.138
  132POPC   GL1 1948   2.925   9.036   7.808
  132POPC   GL2 1949   2.559   8.989   7.830
  132POPC   C1A 1950   2.930   8.746   7.429
  132POPC   D2A 1951   2.988   8.590   6.971
  132POPC   C3A 1952   3.076   8.739   6.539
  132POPC   C4A 1953   2.954   9.023   6.186
  132POPC   C1B 1954   2.426   8.775   7.459
  132POPC   C2B 1955   2.532   8.807   7.044
  132POPC   C3B 1956   2.599   8.905   6.609
  132POPC   C4B 1957   2.441   8.944   6.186
  133POPC   NC3 1958   2.812   0.400   8.166
  133POPC   PO4 1959   2.317   0.840   8.078
  133POPC   GL1 1960   2.472   0.596   7.800
  133POPC   GL2 1961   2.821   0.665   7.699
  133POPC   C1A 1962   2.426   0.569   7.386
  133POPC   D2A 1963   2.722   0.693   7.081
  133POPC   C3A 1964   2.525   0.696   6.703
  133POPC   C4A 1965   2.400   0.675   6.283
  133POPC   C1B 1966   2.857   0.295   7.374
  133POPC   C2B 1967   2.703   0.224   6.900
  133POPC   C3B 1968   2.776   0.349   6.416
  133POPC   C4B 1969   2.976   0.163   6.009
  134POPC   NC3 1970   5.814   3.070   8.285
  134POPC   PO4 1971   5.814   2.432   8.086
  134POPC   GL1 1972   5.813   2.804   7.776
  134POPC   GL2 1973   6.066   2.617   7.553
  134POPC   C1A 1974   5.921   3.071   7.401
  134POPC   D2A 1975   5.901   2.972   6.968
  134POPC   C3A 1976   6.222   2.946   6.669
  134POPC   C4A 1977   6.182   2.817   6.253
  134POPC   C1B 1978   5.684   2.612   7.315
  134POPC   C2B 1979   5.537   2.618   6.889
  134POPC   C3B 1980   5.677   2.624   6.460
  134POPC   C4B 1981   5.368   2.562   6.095
  135POPC   NC3 1982   8.622   5.421   8.044
  135POPC   PO4 1983   7.961   5.310   8.104
  135POPC   GL1 1984   8.274   5.239   7.733
  135POPC   GL2 1985   8.349   4.882   7.664
  135POPC   C1A 1986   8.196   5.160   7.270
  135POPC   D2A 1987   8.001   4.942   6.914
  135POPC   C3A 1988   8.205   4.927   6.500
  135POPC   C4A 1989   8.343   5.119   6.136
  135POPC   C1B 1990   8.118   4.650   7.388
  135POPC   C2B 1991   8.155   4.459   6.990
  135POPC   C3B 1992   7.951   4.507   6.601
  135POPC   C4B 1993   7.829   4.608   6.190
  136POPC   NC3 1994   6.822   8.237   8.040
  136POPC   PO4 1995   6.744   7.601   8.047
  136POPC   GL1 1996   6.845   7.883   7.652
  136POPC   GL2 1997   6.609   8.195   7.577
  136POPC   C1A 1998   6.763   7.918   7.190
  136POPC   D2A 1999   6.777   7.725   6.788
  136POPC   C3A 2000   6.842   7.972   6.432
  136POPC   C4A 2001   6.491   8.014   6.133
  136POPC   C1B 2002   6.232   8.102   7.272
  136POPC   C2B 2003   6.021   8.183   6.851
  136POPC   C3B 2004   6.166   8.293   6.432
  136POPC   C4B 2005   6.595   8.429   6.460
  137POPC   NC3 2006   8.883   0.415   8.111
  137POPC   PO4 2007   9.420   9.973   8.015
  137POPC   GL1 2008   9.170   0.220   7.692
  137POPC   GL2 2009   8.815   0.314   7.615
  137POPC   C1A 2010   9.269   0.260   7.239
  137POPC   D2A 2011   9.077   0.432   6.857
  137POPC   C3A 2012   9.060   0.267   6.449
  137POPC   C4A 2013   9.227   0.132   6.017
  137POPC   C1B 2014   8.765   0.174   7.191
  137POPC   C2B 2015   8.569   0.446   6.890
  137POPC   C3B 2016   8.612   0.583   6.481
  137POPC   C4B 2017   8.754   0.464   6.065
  138POPC   NC3 2018   5.552   7.280   8.099
  138POPC   PO4 2019   6.110   7.192   8.328
  138POPC   GL1 2020   5.942   7.360   7.803
  138POPC   GL2 2021   6.044   7.707   7.725
  138POPC   C1A 2022   6.125   7.439   7.321
  138POPC   D2A 2023   6.005   7.673   6.945
  138POPC   C3A 2024   5.901   7.378   6.597
  138POPC   C4A 2025   6.181   7.162   6.282
  138POPC   C1B 2026   5.648   7.591   7.442
  138POPC   C2B 2027   5.516   7.522   6.984
  138POPC   C3B 2028   5.393   7.610   6.518
  138POPC   C4B 2029   5.411   7.400   6.093
  139POPC   NC3 2030   0.397   3.543   8.413
  139POPC   PO4 2031   0.992   3.658   8.110
  139POPC   GL1 2032   0.838   3.415   7.770
  139POPC   GL2 2033   0.602   3.623   7.616
  139POPC   C1A 2034   0.698   3.196   7.411
  139POPC   D2A 2035   0.524   3.484   7.095
  139POPC   C3A 2036   0.752   3.480   6.713
  139POPC   C4A 2037   0.658   3.557   6.309
  139POPC   C1B 2038   0.239   3.834   7.379
  139POPC   C2B 2039   0.268   3.997   6.975
  139POPC   C3B 2040   0.275   3.700   6.647
  139POPC   C4B 2041   0.168   3.382   6.324
  140POPC   NC3 2042   8.737   8.292   8.284
  140POPC   PO4 2043   9.251   7.755   8.240
  140POPC   GL1 2044   9.072   7.884   7.842
  140POPC   GL2 2045   9.092   8.243   7.904
  140POPC   C1A 2046   8.827   7.944   7.422
  140POPC   D2A 2047   8.914   7.870   6.969
  140POPC   C3A 2048   8.727   7.924   6.564
  140POPC   C4A 2049   8.833   7.973   6.133
  140POPC   C1B 2050   8.892   8.438   7.541
  140POPC   C2B 2051   8.863   8.368   7.088
  140POPC   C3B 2052   9.047   8.326   6.660
  140POPC   C4B 2053   8.925   8.452   6.249
  141POPC   NC3 2054   6.889   3.404   8.059
  141POPC   PO4 2055   6.226   3.129   8.100
  141POPC   GL1 2056   6.364   3.051   7.643
  141POPC   GL2 2057   6.634   3.312   7.591
  141POPC   C1A 2058   6.396   3.112   7.150
  141POPC   D2A 2059   6.639   3.245   6.738
  141POPC   C3A 2060   6.439   3.295   6.332
  141POPC   C4A 2061   6.137   3.293   5.983
  141POPC   C1B 2062   6.726   3.511   7.175
  141POPC   C2B 2063   6.716   3.746   6.769
  141POPC   C3B 2064   6.765   3.920   6.346
  141POPC   C4B 2065   6.733   4.009   5.906
  142POPC   NC3 2066   1.449   3.752   8.259
  142POPC   PO4 2067   1.507   3.086   8.170
  142POPC   GL1 2068   1.346   3.316   7.801
  142POPC   GL2 2069   1.352   3.666   7.733
  142POPC   C1A 2070   1.200   3.153   7.403
  142POPC   D2A 2071   1.008   3.138   6.989
  142POPC   C3A 2072   1.204   3.201   6.593
  142POPC   C4A 2073   0.994   3.172   6.217
  142POPC   C1B 2074   1.083   3.642   7.343
  142POPC   C2B 2075   1.237   3.618   6.904
  142POPC   C3B 2076   1.134   3.732   6.466
  142POPC   C4B 2077   0.917   4.023   6.209
  143POPC   NC3 2078   8.763   1.269   8.101
  143POPC   PO4 2079   8.471   0.678   8.078
  143POPC   GL1 2080   8.685   0.868   7.726
  143POPC   GL2 2081   9.030   0.773   7.737
  143POPC   C1A 2082   8.666   1.110   7.326
  143POPC   D2A 2083   8.668   1.411   6.981
  143POPC   C3A 2084   8.542   1.256   6.556
  143POPC   C4A 2085   8.696   1.317   6.111
  143POPC   C1B 2086   8.953   0.689   7.282
  143POPC   C2B 2087   8.835   0.897   6.865
  143POPC   C3B 2088   8.942   0.964   6.417
  143POPC   C4B 2089   9.301   1.124   6.208
  144POPC   NC3 2090   2.038   3.827   3.766
  144POPC   PO4 2091   1.988   3.102   3.853
  144POPC   GL1 2092   2.056   3.431   4.135
  144POPC   GL2 2093   1.728   3.618   4.166
  144POPC   C1A 2094   2.291   3.398   4.520
  144POPC   D2A 2095   2.335   3.558   4.948
  144POPC   C3A 2096   2.355   3.324   5.352
  144POPC   C4A 2097   2.227   3.382   5.806
  144POPC   C1B 2098   1.847   3.632   4.625
  144POPC   C2B 2099   1.851   3.408   5.036
  144POPC   C3B 2100   1.862   3.520   5.476
  144POPC   C4B 2101   1.789   3.684   5.918
  145POPC   NC3 2102   2.570   2.041   3.985
  145POPC   PO4 2103   2.548   1.412   3.756
  145POPC   GL1 2104   2.421   1.546   4.179
  145POPC   GL2 2105   2.731   1.722   4.337
  145POPC   C1A 2106   2.348   1.696   4.629
  145POPC   D2A 2107   2.708   1.596   4.915
  145POPC   C3A 2108   2.674   1.540   5.357
  145POPC   C4A 2109   2.516   1.727   5.733
  145POPC   C1B 2110   2.946   1.965   4.653
  145POPC   C2B 2111   3.044   1.976   5.100
  145POPC   C3B 2112   2.942   1.950   5.523
  145POPC   C4B 2113   3.038   1.633   5.788
  146POPC   NC3 2114   7.336   7.026   3.821
  146POPC   PO4 2115   7.701   6.613   4.032
  146POPC   GL1 2116   7.422   6.724   4.353
  146POPC   GL2 2117   7.105   6.927   4.276
  146POPC   C1A 2118   7.445   6.642   4.803
  146POPC   D2A 2119   7.546   6.883   5.177
  146POPC   C3A 2120   7.512   6.624   5.518
  146POPC   C4A 2121   7.319   6.621   5.932
  146POPC   C1B 2122   6.990   6.870   4.728
  146POPC   C2B 2123   7.067   6.717   5.184
  146POPC   C3B 2124   7.047   6.401   5.551
  146POPC   C4B 2125   7.028   6.067   5.891
  147POPC   NC3 2126   5.638   9.227   4.010
  147POPC   PO4 2127   5.388   8.620   3.934
  147POPC   GL1 2128   5.672   8.772   4.269
  147POPC   GL2 2129   5.973   8.902   4.390
  147POPC   C1A 2130   5.653   8.869   4.747
  147POPC   D2A 2131   5.871   8.991   5.116
  147POPC   C3A 2132   5.689   8.773   5.458
  147POPC   C4A 2133   5.503   8.888   5.855
  147POPC   C1B 2134   6.115   8.631   4.710
  147POPC   C2B 2135   6.265   8.674   5.089
  147POPC   C3B 2136   6.285   8.727   5.501
  147POPC   C4B 2137   6.022   8.862   5.837
  148POPC   NC3 2138   0.986   5.089   3.820
  148POPC   PO4 2139   1.584   5.308   4.018
  148POPC   GL1 2140   1.166   5.303   4.279
  148POPC   GL2 2141   1.227   4.965   4.368
  148POPC   C1A 2142   0.928   5.223   4.720
  148POPC   D2A 2143   0.949   4.989   5.141
  148POPC   C3A 2144   1.046   5.159   5.559
  148POPC   C4A 2145   0.894   5.351   5.987
  148POPC   C1B 2146   1.412   5.124   4.755
  148POPC   C2B 2147   1.448   5.056   5.210
  148POPC   C3B 2148   1.528   4.977   5.634
  148POPC   C4B 2149   1.727   5.202   5.929
  149POPC   NC3 2150   6.512   8.105   3.923
  149POPC   PO4 2151   6.131   8.589   4.045
  149POPC   GL1 2152   6.330   8.289   4.380
  149POPC   GL2 2153   6.442   7.903   4.402
  149POPC   C1A 2154   6.500   8.240   4.813
  149POPC   D2A 2155   6.308   8.198   5.233
  149POPC   C3A 2156   6.484   8.227   5.617
  149POPC   C4A 2157   6.342   8.464   5.952
  149POPC   C1B 2158   6.795   7.842   4.744
  149POPC   C2B 2159   6.794   8.004   5.166
  149POPC   C3B 2160   6.854   7.861   5.594
  149POPC   C4B 2161   6.908   8.157   5.925
  150POPC   NC3 2162   9.028   2.450   3.910
  150POPC   PO4 2163   8.941   3.106   3.896
  150POPC   GL1 2164   8.979   3.003   4.313
  150POPC   GL2 2165   9.023   2.636   4.385
  150POPC   C1A 2166   8.777   3.183   4.662
  150POPC   D2A 2167   8.524   3.001   4.989
  150POPC   C3A 2168   8.726   3.050   5.371
  150POPC   C4A 2169   8.493   3.073   5.738
  150POPC   C1B 2170   9.027   2.759   4.835
  150POPC   C2B 2171   8.883   2.578   5.227
  150POPC   C3B 2172   8.842   2.659   5.687
  150POPC   C4B 2173   9.002   2.475   6.037
  151POPC   NC3 2174   8.058   2.212   3.939
  151POPC   PO4 2175   8.677   2.158   4.078
  151POPC   GL1 2176   8.502   1.852   4.368
  151POPC   GL2 2177   8.152   1.934   4.365
  151POPC   C1A 2178   8.478   1.808   4.802
  151POPC   D2A 2179   8.661   1.787   5.197
  151POPC   C3A 2180   8.314   1.797   5.475
  151POPC   C4A 2181   8.263   1.787   5.914
  151POPC   C1B 2182   8.044   2.233   4.688
  151POPC   C2B 2183   8.012   2.098   5.102
  151POPC   C3B 2184   8.124   2.249   5.475
  151POPC   C4B 2185   7.922   2.158   5.844
  152POPC   NC3 2186   8.846   4.155   4.011
  152POPC   PO4 2187   9.015   4.806   3.797
  152POPC   GL1 2188   9.035   4.591   4.248
  152POPC   GL2 2189   9.159   4.279   4.378
  152POPC   C1A 2190   9.166   4.638   4.722
  152POPC   D2A 2191   9.304   4.554   5.154
  152POPC   C3A 2192   8.923   4.447   5.424
  152POPC   C4A 2193   8.683   4.369   5.826
  152POPC   C1B 2194   8.869   4.122   4.734
  152POPC   C2B 2195   8.799   3.959   5.177
  152POPC   C3B 2196   8.941   3.961   5.610
  152POPC   C4B 2197   9.012   3.878   6.044
  153POPC   NC3 2198   7.331   7.750   4.184
  153POPC   PO4 2199   7.629   7.328   3.653
  153POPC   GL1 2200   7.541   7.228   4.225
  153POPC   GL2 2201   7.646   7.537   4.528
  153POPC   C1A 2202   7.433   7.127   4.663
  153POPC   D2A 2203   7.521   7.367   5.024
  153POPC   C3A 2204   7.230   7.253   5.335
  153POPC   C4A 2205   7.460   7.086   5.706
  153POPC   C1B 2206   7.308   7.766   4.799
  153POPC   C2B 2207   7.252   7.785   5.218
  153POPC   C3B 2208   7.531   7.620   5.509
  153POPC   C4B 2209   7.215   7.512   5.786
  154POPC   NC3 2210   1.166   3.499   3.870
  154POPC   PO4 2211   0.589   3.692   4.043
  154POPC   GL1 2212   0.848   3.674   4.391
  154POPC   GL2 2213   1.123   3.431   4.383
  154POPC   C1A 2214   0.923   3.658   4.835
  154POPC   D2A 2215   1.040   3.373   5.167
  154POPC   C3A 2216   0.874   3.564   5.515
  154POPC   C4A 2217   0.985   3.618   5.933
  154POPC   C1B 2218   1.384   3.468   4.784
  154POPC   C2B 2219   1.438   3.701   5.192
  154POPC   C3B 2220   1.385   3.578   5.636
  154POPC   C4B 2221   1.415   3.438   6.133
  155POPC   NC3 2222   0.223   4.943   4.181
  155POPC   PO4 2223   0.757   4.628   3.831
  155POPC   GL1 2224   0.816   4.682   4.258
  155POPC   GL2 2225   0.703   5.015   4.329
  155POPC   C1A 2226   0.821   4.738   4.715
  155POPC   D2A 2227   0.462   4.904   5.031
  155POPC   C3A 2228   0.540   5.059   5.466
  155POPC   C4A 2229   0.358   4.872   5.842
  155POPC   C1B 2230   0.411   5.254   4.672
  155POPC   C2B 2231   0.123   5.364   5.043
  155POPC   C3B 2232   0.203   5.486   5.477
  155POPC   C4B 2233   0.389   5.382   5.881
  156POPC   NC3 2234   9.072   8.159   3.744
  156POPC   PO4 2235   8.615   7.814   3.875
  156POPC   GL1 2236   8.745   7.919   4.262
  156POPC   GL2 2237   9.088   7.872   4.233
  156POPC   C1A 2238   8.517   8.028   4.669
  156POPC   D2A 2239   8.396   8.307   5.043
  156POPC   C3A 2240   8.710   8.332   5.407
  156POPC   C4A 2241   8.578   8.333   5.841
  156POPC   C1B 2242   9.072   8.172   4.578
  156POPC   C2B 2243   9.312   8.312   4.944
  156POPC   C3B 2244   9.256   8.379   5.382
  156POPC   C4B 2245   9.084   8.257   5.782
  157POPC   NC3 2246   7.597   2.666   3.875
  157POPC   PO4 2247   7.037   2.281   3.869
  157POPC   GL1 2248   7.194   2.402   4.280
  157POPC   GL2 2249   7.272   2.690   4.257
  157POPC   C1A 2250   7.153   2.483   4.725
  157POPC   D2A 2251   7.026   2.405   5.122
  157POPC   C3A 2252   7.227   2.600   5.403
  157POPC   C4A 2253   7.337   2.935   5.657
  157POPC   C1B 2254   7.632   2.588   4.556
  157POPC   C2B 2255   7.615   2.448   4.989
  157POPC   C3B 2256   7.636   2.316   5.418
  157POPC   C4B 2257   7.475   2.449   5.825
  158POPC   NC3 2258   5.017   0.574   4.041
  158POPC   PO4 2259   5.124   9.929   3.988
  158POPC   GL1 2260   5.242   0.163   4.405
  158POPC   GL2 2261   5.302   0.541   4.484
  158POPC   C1A 2262   5.139   0.247   4.866
  158POPC   D2A 2263   5.303   0.516   5.224
  158POPC   C3A 2264   5.344   0.289   5.628
  158POPC   C4A 2265   5.563   0.315   6.051
  158POPC   C1B 2266   4.975   0.732   4.766
  158POPC   C2B 2267   4.791   0.579   5.154
  158POPC   C3B 2268   4.839   0.591   5.597
  158POPC   C4B 2269   4.683   0.841   5.940
  159POPC   NC3 2270   1.362   6.711   4.013
  159POPC   PO4 2271   0.869   6.217   3.886
  159POPC   GL1 2272   0.976   6.410   4.240
  159POPC   GL2 2273   1.313   6.345   4.371
  159POPC   C1A 2274   0.808   6.625   4.602
  159POPC   D2A 2275   0.931   6.857   4.993
  159POPC   C3A 2276   1.129   6.633   5.346
  159POPC   C4A 2277   0.945   6.739   5.746
  159POPC   C1B 2278   1.314   6.706   4.680
  159POPC   C2B 2279   1.467   6.927   5.073
  159POPC   C3B 2280   1.629   6.837   5.499
  159POPC   C4B 2281   1.437   6.502   5.761
  160POPC   NC3 2282   0.573   5.815   3.777
  160POPC   PO4 2283   0.517   5.151   3.880
  160POPC   GL1 2284   0.617   5.485   4.178
  160POPC   GL2 2285   0.321   5.648   4.224
  160POPC   C1A 2286   0.695   5.658   4.633
  160POPC   D2A 2287   0.639   5.440   5.094
  160POPC   C3A 2288   0.782   5.593   5.512
  160POPC   C4A 2289   0.654   5.826   5.908
  160POPC   C1B 2290   0.171   5.713   4.647
  160POPC   C2B 2291   0.349   5.862   5.033
  160POPC   C3B 2292   0.434   5.958   5.457
  160POPC   C4B 2293   0.157   5.907   5.816
  161POPC   NC3 2294   0.552   7.543   3.871
  161POPC   PO4 2295   0.023   7.064   3.853
  161POPC   GL1 2296   0.210   7.310   4.176
  161POPC   GL2 2297   0.509   7.099   4.215
  161POPC   C1A 2298   0.275   7.523   4.575
  161POPC   D2A 2299   0.140   7.692   5.005
  161POPC   C3A 2300   0.302   7.522   5.426
  161POPC   C4A 2301   0.526   7.593   5.851
  161POPC   C1B 2302   0.669   7.196   4.650
  161POPC   C2B 2303   0.669   7.495   5.019
  161POPC   C3B 2304   0.792   7.405   5.468
  161POPC   C4B 2305   0.547   7.089   5.728
  162POPC   NC3 2306   4.035   3.639   3.900
  162POPC   PO4 2307   4.295   4.138   3.992
  162POPC   GL1 2308   4.254   3.785   4.335
  162POPC   GL2 2309   4.356   3.435   4.264
  162POPC   C1A 2310   4.052   3.491   4.662
  162POPC   D2A 2311   4.144   3.273   5.048
  162POPC   C3A 2312   3.875   3.229   5.418
  162POPC   C4A 2313   3.810   3.516   5.751
  162POPC   C1B 2314   4.522   3.253   4.664
  162POPC   C2B 2315   4.574   2.999   5.041
  162POPC   C3B 2316   4.335   2.958   5.425
  162POPC   C4B 2317   4.158   3.079   5.832
  163POPC   NC3 2318   8.118   7.049   3.847
  163POPC   PO4 2319   7.761   7.620   4.057
  163POPC   GL1 2320   8.111   7.366   4.249
  163POPC   GL2 2321   8.443   7.518   4.308
  163POPC   C1A 2322   8.332   7.116   4.612
  163POPC   D2A 2323   8.416   6.983   5.051
  163POPC   C3A 2324   8.040   6.929   5.317
  163POPC   C4A 2325   7.965   7.069   5.736
  163POPC   C1B 2326   8.186   7.608   4.677
  163POPC   C2B 2327   8.070   7.356   5.017
  163POPC   C3B 2328   8.290   7.368   5.416
  163POPC   C4B 2329   8.023   7.596   5.644
  164POPC   NC3 2330   8.168   7.800   3.973
  164POPC   PO4 2331   7.544   8.129   3.954
  164POPC   GL1 2332   7.724   8.042   4.352
  164POPC   GL2 2333   8.020   8.208   4.249
  164POPC   C1A 2334   7.971   8.060   4.756
  164POPC   D2A 2335   8.018   7.857   5.167
  164POPC   C3A 2336   8.298   8.023   5.480
  164POPC   C4A 2337   8.440   7.847   5.849
  164POPC   C1B 2338   7.829   8.508   4.536
  164POPC   C2B 2339   7.898   8.525   4.993
  164POPC   C3B 2340   8.036   8.479   5.438
  164POPC   C4B 2341   8.068   8.401   5.914
  165POPC   NC3 2342   6.404   0.508   3.920
  165POPC   PO4 2343   6.087   1.045   4.070
  165POPC   GL1 2344   6.357   0.800   4.345
  165POPC   GL2 2345   6.659   0.566   4.339
  165POPC   C1A 2346   6.502   0.822   4.751
  165POPC   D2A 2347   6.408   0.570   5.079
  165POPC   C3A 2348   6.315   0.785   5.444
  165POPC   C4A 2349   6.284   0.634   5.851
  165POPC   C1B 2350   6.610   0.277   4.668
  165POPC   C2B 2351   6.598   0.074   5.060
  165POPC   C3B 2352   6.692   0.278   5.399
  165POPC   C4B 2353   6.569   0.215   5.785
  166POPC   NC3 2354   3.171   8.726   3.960
  166POPC   PO4 2355   3.790   8.963   4.004
  166POPC   GL1 2356   3.442   8.908   4.355
  166POPC   GL2 2357   3.347   9.220   4.531
  166POPC   C1A 2358   3.285   8.815   4.811
  166POPC   D2A 2359   3.360   9.172   5.085
  166POPC   C3A 2360   3.252   9.189   5.544
  166POPC   C4A 2361   3.309   9.316   5.955
  166POPC   C1B 2362   3.766   9.154   4.690
  166POPC   C2B 2363   3.838   8.966   5.059
  166POPC   C3B 2364   3.613   8.841   5.405
  166POPC   C4B 2365   3.704   9.044   5.755
  167POPC   NC3 2366   7.152   9.281   3.807
  167POPC   PO4 2367   6.940   9.904   3.891
  167POPC   GL1 2368   7.082   9.625   4.252
  167POPC   GL2 2369   7.433   9.495   4.185
  167POPC   C1A 2370   7.137   9.395   4.682
  167POPC   D2A 2371   7.330   9.310   5.099
  167POPC   C3A 2372   7.128   9.435   5.505
  167POPC   C4A 2373   7.187   9.575   5.963
  167POPC   C1B 2374   7.475   9.763   4.544
  167POPC   C2B 2375   7.548   9.794   4.984
  167POPC   C3B 2376   7.578   9.685   5.399
  167POPC   C4B 2377   7.397   9.957   5.692
  168POPC   NC3 2378   9.017   7.517   3.878
  168POPC   PO4 2379   8.552   7.137   3.987
  168POPC   GL1 2380   8.775   7.084   4.342
  168POPC   GL2 2381   8.948   7.380   4.354
  168POPC   C1A 2382   8.817   7.176   4.794
  168POPC   D2A 2383   8.778   7.364   5.203
  168POPC   C3A 2384   8.822   7.040   5.535
  168POPC   C4A 2385   9.031   7.133   5.955
  168POPC   C1B 2386   8.911   7.687   4.695
  168POPC   C2B 2387   8.903   7.987   5.054
  168POPC   C3B 2388   8.930   7.857   5.493
  168POPC   C4B 2389   8.774   7.506   5.722
  169POPC   NC3 2390   3.932   8.046   4.016
  169POPC   PO4 2391   3.268   7.825   3.854
  169POPC   GL1 2392   3.447   8.093   4.216
  169POPC   GL2 2393   3.634   8.443   4.213
  169POPC   C1A 2394   3.424   8.228   4.653
  169POPC   D2A 2395   3.259   8.142   5.072
  169POPC   C3A 2396   3.463   8.174   5.461
  169POPC   C4A 2397   3.391   7.964   5.864
  169POPC   C1B 2398   3.728   8.619   4.655
  169POPC   C2B 2399   3.760   8.460   5.097
  169POPC   C3B 2400   3.893   8.451   5.564
  169POPC   C4B 2401   3.683   8.400   5.934
  170POPC   NC3 2402   7.269   0.920   3.944
  170POPC   PO4 2403   7.399   1.564   3.903
  170POPC   GL1 2404   7.384   1.258   4.289
  170POPC   GL2 2405   7.714   1.259   4.437
  170POPC   C1A 2406   7.394   1.025   4.752
  170POPC   D2A 2407   7.468   1.166   5.213
  170POPC   C3A 2408   7.229   0.932   5.564
  170POPC   C4A 2409   6.819   0.713   5.626
  170POPC   C1B 2410   7.367   1.527   4.699
  170POPC   C2B 2411   7.099   1.498   5.059
  170POPC   C3B 2412   7.197   1.523   5.504
  170POPC   C4B 2413   7.524   1.327   5.732
  171POPC   NC3 2414   2.247   6.239   3.926
  171POPC   PO4 2415   1.609   6.325   3.971
  171POPC   GL1 2416   1.887   6.111   4.292
  171POPC   GL2 2417   1.892   5.743   4.298
  171POPC   C1A 2418   2.117   6.125   4.722
  171POPC   D2A 2419   1.970   6.011   5.175
  171POPC   C3A 2420   2.107   5.961   5.633
  171POPC   C4A 2421   2.164   5.956   6.127
  171POPC   C1B 2422   1.685   5.860   4.700
  171POPC   C2B 2423   1.453   5.960   5.101
  171POPC   C3B 2424   1.580   6.026   5.558
  171POPC   C4B 2425   1.706   5.760   5.927
  172POPC   NC3 2426   0.712   4.128   3.868
  172POPC   PO4 2427   1.353   3.847   3.646
  172POPC   GL1 2428   1.264   3.917   4.141
  172POPC   GL2 2429   1.000   4.163   4.272
  172POPC   C1A 2430   1.308   3.941   4.619
  172POPC   D2A 2431   1.123   4.141   5.004
  172POPC   C3A 2432   1.089   4.037   5.461
  172POPC   C4A 2433   0.694   4.008   5.733
  172POPC   C1B 2434   1.217   4.452   4.550
  172POPC   C2B 2435   1.289   4.635   4.957
  172POPC   C3B 2436   1.217   4.594   5.407
  172POPC   C4B 2437   1.510   4.473   5.747
  173POPC   NC3 2438   2.153   7.295   3.828
  173POPC   PO4 2439   2.431   6.659   3.879
  173POPC   GL1 2440   2.184   6.550   4.326
  173POPC   GL2 2441   1.789   6.614   4.353
  173POPC   C1A 2442   2.048   6.731   4.762
  173POPC   D2A 2443   1.971   7.021   5.119
  173POPC   C3A 2444   2.265   7.046   5.479
  173POPC   C4A 2445   2.398   6.754   5.792
  173POPC   C1B 2446   1.681   6.371   4.731
  173POPC   C2B 2447   1.701   6.451   5.168
  173POPC   C3B 2448   1.975   6.451   5.537
  173POPC   C4B 2449   1.858   6.284   5.937
  174POPC   NC3 2450   7.183   4.611   4.027
  174POPC   PO4 2451   7.568   4.079   3.963
  174POPC   GL1 2452   7.381   4.179   4.356
  174POPC   GL2 2453   7.524   3.896   4.468
  174POPC   C1A 2454   7.298   4.167   4.844
  174POPC   D2A 2455   7.417   4.269   5.290
  174POPC   C3A 2456   7.131   4.220   5.666
  174POPC   C4A 2457   7.205   4.103   6.117
  174POPC   C1B 2458   7.789   4.171   4.682
  174POPC   C2B 2459   7.916   4.309   5.107
  174POPC   C3B 2460   7.823   4.525   5.479
  174POPC   C4B 2461   7.594   4.338   5.817
  175POPC   NC3 2462   4.166   7.329   4.117
  175POPC   PO4 2463   3.990   6.739   4.135
  175POPC   GL1 2464   3.850   6.995   4.469
  175POPC   GL2 2465   3.932   7.377   4.568
  175POPC   C1A 2466   4.002   7.009   4.892
  175POPC   D2A 2467   4.289   7.182   5.199
  175POPC   C3A 2468   4.229   7.122   5.650
  175POPC   C4A 2469   4.310   6.959   6.081
  175POPC   C1B 2470   4.002   7.543   4.961
  175POPC   C2B 2471   4.037   7.571   5.404
  175POPC   C3B 2472   4.295   7.640   5.761
  175POPC   C4B 2473   4.234   7.461   6.172
  176POPC   NC3 2474   8.695   4.936   4.106
  176POPC   PO4 2475   8.296   5.407   3.703
  176POPC   GL1 2476   8.263   5.210   4.098
  176POPC   GL2 2477   8.114   4.862   4.066
  176POPC   C1A 2478   8.359   5.255   4.543
  176POPC   D2A 2479   8.353   5.179   4.977
  176POPC   C3A 2480   8.295   5.419   5.358
  176POPC   C4A 2481   8.462   5.440   5.775
  176POPC   C1B 2482   8.046   4.833   4.540
  176POPC   C2B 2483   8.024   4.797   5.016
  176POPC   C3B 2484   8.184   4.917   5.416
  176POPC   C4B 2485   8.132   4.769   5.832
  177POPC   NC3 2486   0.301   4.767   3.719
  177POPC   PO4 2487   0.233   4.092   3.869
  177POPC   GL1 2488   0.405   4.387   4.195
  177POPC   GL2 2489   0.464   4.084   4.351
  177POPC   C1A 2490   0.390   4.483   4.693
  177POPC   D2A 2491   0.716   4.458   5.104
  177POPC   C3A 2492   0.659   4.542   5.543
  177POPC   C4A 2493   0.533   4.427   5.982
  177POPC   C1B 2494   0.730   4.106   4.701
  177POPC   C2B 2495   0.636   3.965   5.152
  177POPC   C3B 2496   0.303   4.196   5.415
  177POPC   C4B 2497   0.146   4.113   5.853
  178POPC   NC3 2498   8.668   9.757   4.077
  178POPC   PO4 2499   9.278   9.444   3.862
  178POPC   GL1 2500   9.104   9.611   4.258
  178POPC   GL2 2501   9.100   9.976   4.319
  178POPC   C1A 2502   9.000   9.555   4.680
  178POPC   D2A 2503   9.151   9.368   5.043
  178POPC   C3A 2504   8.970   9.498   5.451
  178POPC   C4A 2505   8.990   9.241   5.812
  178POPC   C1B 2506   8.862   0.044   4.731
  178POPC   C2B 2507   8.959   9.955   5.197
  178POPC   C3B 2508   8.899   9.968   5.685
  178POPC   C4B 2509   8.741   9.975   6.173
  179POPC   NC3 2510   3.502   7.428   3.710
  179POPC   PO4 2511   4.089   7.661   3.768
  179POPC   GL1 2512   3.694   7.631   4.136
  179POPC   GL2 2513   3.573   7.369   4.235
  179POPC   C1A 2514   3.476   7.717   4.592
  179POPC   D2A 2515   3.288   7.639   5.016
  179POPC   C3A 2516   3.512   7.658   5.438
  179POPC   C4A 2517   3.420   7.430   5.873
  179POPC   C1B 2518   3.439   7.221   4.663
  179POPC   C2B 2519   3.598   7.236   5.106
  179POPC   C3B 2520   3.726   7.204   5.541
  179POPC   C4B 2521   3.844   7.152   5.971
  180POPC   NC3 2522   9.925   2.637   3.825
  180POPC   PO4 2523   9.949   3.232   4.173
  180POPC   GL1 2524   9.710   3.100   4.432
  180POPC   GL2 2525   9.486   2.850   4.340
  180POPC   C1A 2526   9.730   2.928   4.801
  180POPC   D2A 2527   9.586   3.093   5.137
  180POPC   C3A 2528   9.764   2.892   5.479
  180POPC   C4A 2529   9.575   3.131   5.773
  180POPC   C1B 2530   9.461   2.507   4.661
  180POPC   C2B 2531   9.439   2.569   5.106
  180POPC   C3B 2532   9.262   2.836   5.442
  180POPC   C4B 2533   9.419   2.584   5.775
  181POPC   NC3 2534   1.019   1.244   4.008
  181POPC   PO4 2535   0.860   0.700   3.640
  181POPC   GL1 2536   1.177   0.779   4.117
  181POPC   GL2 2537   1.423   1.002   4.276
  181POPC   C1A 2538   1.040   0.962   4.599
  181POPC   D2A 2539   1.195   1.254   4.936
  181POPC   C3A 2540   1.173   1.160   5.377
  181POPC   C4A 2541   1.170   1.063   5.818
  181POPC   C1B 2542   1.609   1.290   4.645
  181POPC   C2B 2543   1.650   1.499   5.095
  181POPC   C3B 2544   1.611   1.375   5.557
  181POPC   C4B 2545   1.578   1.309   6.027
  182POPC   NC3 2546   2.194   1.601   3.507
  182POPC   PO4 2547   1.931   1.793   4.090
  182POPC   GL1 2548   1.807   2.045   4.437
  182POPC   GL2 2549   1.681   2.361   4.322
  182POPC   C1A 2550   1.912   1.902   4.864
  182POPC   D2A 2551   2.313   1.875   5.111
  182POPC   C3A 2552   2.385   2.134   5.441
  182POPC   C4A 2553   2.122   2.078   5.803
  182POPC   C1B 2554   1.749   2.527   4.748
  182POPC   C2B 2555   1.971   2.342   5.129
  182POPC   C3B 2556   1.847   1.985   5.388
  182POPC   C4B 2557   1.606   2.111   5.761
  183POPC   NC3 2558   7.760   1.258   3.906
  183POPC   PO4 2559   8.369   1.546   3.659
  183POPC   GL1 2560   8.182   1.465   4.158
  183POPC   GL2 2561   8.386   1.229   4.322
  183POPC   C1A 2562   8.154   1.420   4.703
  183POPC   D2A 2563   8.320   1.390   5.181
  183POPC   C3A 2564   8.042   1.389   5.633
  183POPC   C4A 2565   7.791   1.645   6.015
  183POPC   C1B 2566   8.510   1.041   4.755
  183POPC   C2B 2567   8.505   0.917   5.203
  183POPC   C3B 2568   8.495   1.127   5.646
  183POPC   C4B 2569   8.426   0.887   6.080
  184POPC   NC3 2570   8.255   8.964   3.886
  184POPC   PO4 2571   7.584   9.096   3.819
  184POPC   GL1 2572   7.885   9.232   4.126
  184POPC   GL2 2573   7.959   8.924   4.283
  184POPC   C1A 2574   8.014   9.337   4.579
  184POPC   D2A 2575   7.833   9.370   4.990
  184POPC   C3A 2576   8.004   9.288   5.399
  184POPC   C4A 2577   7.865   8.955   5.691
  184POPC   C1B 2578   8.190   8.854   4.651
  184POPC   C2B 2579   8.213   8.944   5.070
  184POPC   C3B 2580   8.444   8.760   5.389
  184POPC   C4B 2581   8.339   8.792   5.782
  185POPC   NC3 2582   8.123   9.501   3.711
  185POPC   PO4 2583   8.372   0.134   3.939
  185POPC   GL1 2584   8.219   9.845   4.265
  185POPC   GL2 2585   7.900   9.729   4.234
  185POPC   C1A 2586   8.436   9.683   4.672
  185POPC   D2A 2587   8.632   9.600   5.054
  185POPC   C3A 2588   8.504   9.758   5.439
  185POPC   C4A 2589   8.555   9.632   5.873
  185POPC   C1B 2590   7.962   9.839   4.700
  185POPC   C2B 2591   8.063   9.784   5.162
  185POPC   C3B 2592   8.023   9.814   5.622
  185POPC   C4B 2593   7.854   0.134   5.892
  186POPC   NC3 2594   4.983   2.273   3.950
  186POPC   PO4 2595   5.203   1.512   4.068
  186POPC   GL1 2596   5.095   1.715   4.415
  186POPC   GL2 2597   5.110   2.053   4.386
  186POPC   C1A 2598   4.976   1.763   4.834
  186POPC   D2A 2599   5.121   1.959   5.219
  186POPC   C3A 2600   4.813   1.997   5.567
  186POPC   C4A 2601   4.752   1.944   6.044
  186POPC   C1B 2602   4.989   2.270   4.779
  186POPC   C2B 2603   4.853   2.399   5.198
  186POPC   C3B 2604   5.151   2.383   5.562
  186POPC   C4B 2605   5.217   2.103   5.904
  187POPC   NC3 2606   3.398   2.873   3.822
  187POPC   PO4 2607   4.034   3.174   3.943
  187POPC   GL1 2608   3.898   3.100   4.323
  187POPC   GL2 2609   3.709   2.792   4.304
  187POPC   C1A 2610   3.700   3.102   4.734
  187POPC   D2A 2611   3.357   2.910   4.962
  187POPC   C3A 2612   3.413   2.949   5.404
  187POPC   C4A 2613   3.127   2.951   5.748
  187POPC   C1B 2614   3.704   2.573   4.721
  187POPC   C2B 2615   3.540   2.477   5.184
  187POPC   C3B 2616   3.435   2.486   5.652
  187POPC   C4B 2617   3.636   2.569   6.061
  188POPC   NC3 2618   2.887   8.060   3.710
  188POPC   PO4 2619   2.269   7.824   3.799
  188POPC   GL1 2620   2.499   8.066   4.168
  188POPC   GL2 2621   2.878   8.119   4.205
  188POPC   C1A 2622   2.444   8.168   4.632
  188POPC   D2A 2623   2.219   8.029   5.013
  188POPC   C3A 2624   2.428   8.105   5.392
  188POPC   C4A 2625   2.494   8.420   5.716
  188POPC   C1B 2626   2.945   8.055   4.635
  188POPC   C2B 2627   2.822   8.366   4.961
  188POPC   C3B 2628   2.896   8.310   5.408
  188POPC   C4B 2629   2.913   8.164   5.831
  189POPC   NC3 2630   9.349   5.110   3.910
  189POPC   PO4 2631   9.976   5.302   4.024
  189POPC   GL1 2632   9.692   5.028   4.290
  189POPC   GL2 2633   9.546   4.673   4.300
  189POPC   C1A 2634   9.565   4.979   4.724
  189POPC   D2A 2635   9.654   5.114   5.113
  189POPC   C3A 2636   9.510   4.890   5.509
  189POPC   C4A 2637   9.377   5.129   5.894
  189POPC   C1B 2638   9.666   4.483   4.712
  189POPC   C2B 2639   9.853   4.638   5.118
  189POPC   C3B 2640   0.031   4.951   5.421
  189POPC   C4B 2641   9.882   5.006   5.842
  190POPC   NC3 2642   8.741   1.259   3.712
  190POPC   PO4 2643   9.329   1.418   3.912
  190POPC   GL1 2644   8.908   1.308   4.184
  190POPC   GL2 2645   8.755   0.934   4.181
  190POPC   C1A 2646   8.807   1.437   4.603
  190POPC   D2A 2647   9.057   1.522   4.978
  190POPC   C3A 2648   8.911   1.364   5.371
  190POPC   C4A 2649   9.137   1.376   5.783
  190POPC   C1B 2650   8.967   0.921   4.547
  190POPC   C2B 2651   9.022   0.997   4.984
  190POPC   C3B 2652   8.964   0.867   5.419
  190POPC   C4B 2653   8.906   0.918   5.876
  191POPC   NC3 2654   0.773   2.750   4.076
  191POPC   PO4 2655   1.389   2.416   3.906
  191POPC   GL1 2656   1.289   2.745   4.207
  191POPC   GL2 2657   1.352   3.056   4.032
  191POPC   C1A 2658   1.104   2.948   4.608
  191POPC   D2A 2659   0.949   2.873   5.051
  191POPC   C3A 2660   1.206   2.710   5.362
  191POPC   C4A 2661   1.553   2.715   5.646
  191POPC   C1B 2662   1.561   3.133   4.440
  191POPC   C2B 2663   1.523   2.999   4.909
  191POPC   C3B 2664   1.487   3.155   5.349
  191POPC   C4B 2665   1.195   3.115   5.735
  192POPC   NC3 2666   1.903   9.761   3.797
  192POPC   PO4 2667   1.326   9.670   4.093
  192POPC   GL1 2668   1.761   9.626   4.256
  192POPC   GL2 2669   2.096   9.790   4.263
  192POPC   C1A 2670   1.861   9.487   4.649
  192POPC   D2A 2671   1.767   9.368   5.052
  192POPC   C3A 2672   1.896   9.549   5.472
  192POPC   C4A 2673   1.673   9.348   5.831
  192POPC   C1B 2674   2.266   9.769   4.660
  192POPC   C2B 2675   2.403   9.982   4.966
  192POPC   C3B 2676   2.262   0.090   5.344
  192POPC   C4B 2677   2.099   0.003   5.715
  193POPC   NC3 2678   7.970   6.246   4.068
  193POPC   PO4 2679   8.370   6.663   3.745
  193POPC   GL1 2680   8.280   6.730   4.218
  193POPC   GL2 2681   7.955   6.900   4.349
  193POPC   C1A 2682   8.290   6.596   4.678
  193POPC   D2A 2683   8.377   6.495   5.148
  193POPC   C3A 2684   8.411   6.703   5.577
  193POPC   C4A 2685   8.312   6.450   5.939
  193POPC   C1B 2686   7.897   6.897   4.801
  193POPC   C2B 2687   7.878   6.510   5.077
  193POPC   C3B 2688   7.987   6.418   5.518
  193POPC   C4B 2689   7.826   6.562   5.927
  194POPC   NC3 2690   7.836   5.381   3.854
  194POPC   PO4 2691   7.573   4.796   3.902
  194POPC   GL1 2692   7.624   4.630   4.330
  194POPC   GL2 2693   7.322   4.814   4.466
  194POPC   C1A 2694   7.597   4.605   4.816
  194POPC   D2A 2695   7.491   4.790   5.206
  194POPC   C3A 2696   7.738   5.140   5.370
  194POPC   C4A 2697   7.971   5.281   5.747
  194POPC   C1B 2698   7.071   4.633   4.829
  194POPC   C2B 2699   7.014   4.612   5.280
  194POPC   C3B 2700   7.237   4.709   5.662
  194POPC   C4B 2701   7.628   4.881   5.809
  195POPC   NC3 2702   3.568   1.868   3.998
  195POPC   PO4 2703   3.690   2.508   3.845
  195POPC   GL1 2704   3.690   2.266   4.289
  195POPC   GL2 2705   3.329   2.143   4.343
  195POPC   C1A 2706   3.832   1.902   4.610
  195POPC   D2A 2707   4.035   1.717   5.002
  195POPC   C3A 2708   3.863   1.678   5.437
  195POPC   C4A 2709   3.905   1.621   5.882
  195POPC   C1B 2710   3.421   2.146   4.778
  195POPC   C2B 2711   3.563   1.969   5.151
  195POPC   C3B 2712   3.460   1.968   5.601
  195POPC   C4B 2713   3.452   1.854   6.029
  196POPC   NC3 2714   4.748   1.432   4.025
  196POPC   PO4 2715   3.995   1.560   3.904
  196POPC   GL1 2716   3.885   1.425   4.332
  196POPC   GL2 2717   4.090   1.143   4.275
  196POPC   C1A 2718   4.015   1.265   4.770
  196POPC   D2A 2719   4.065   1.200   5.229
  196POPC   C3A 2720   4.350   1.507   5.422
  196POPC   C4A 2721   4.670   1.533   5.729
  196POPC   C1B 2722   4.463   1.073   4.565
  196POPC   C2B 2723   4.538   0.999   5.007
  196POPC   C3B 2724   4.565   1.044   5.464
  196POPC   C4B 2725   4.280   1.185   5.822
  197POPC   NC3 2726   7.416   7.731   3.718
  197POPC   PO4 2727   6.895   7.947   4.110
  197POPC   GL1 2728   7.111   8.137   4.434
  197POPC   GL2 2729   7.338   8.425   4.366
  197POPC   C1A 2730   7.009   8.359   4.789
  197POPC   D2A 2731   7.237   8.558   5.111
  197POPC   C3A 2732   7.129   8.289   5.430
  197POPC   C4A 2733   7.323   8.034   5.696
  197POPC   C1B 2734   7.492   8.236   4.788
  197POPC   C2B 2735   7.606   8.160   5.230
  197POPC   C3B 2736   7.806   8.068   5.636
  197POPC   C4B 2737   7.637   8.190   6.074
  198POPC   NC3 2738   8.963   3.486   3.634
  198POPC   PO4 2739   9.291   3.904   4.015
  198POPC   GL1 2740   9.116   3.749   4.362
  198POPC   GL2 2741   8.889   3.518   4.199
  198POPC   C1A 2742   9.063   3.628   4.812
  198POPC   D2A 2743   9.094   3.281   5.095
  198POPC   C3A 2744   9.054   3.419   5.527
  198POPC   C4A 2745   9.165   3.373   5.971
  198POPC   C1B 2746   8.630   3.671   4.546
  198POPC   C2B 2747   8.571   3.538   4.982
  198POPC   C3B 2748   8.502   3.501   5.415
  198POPC   C4B 2749   8.674   3.564   5.824
  199POPC   NC3 2750   1.798   9.091   3.795
  199POPC   PO4 2751   2.335   9.477   3.923
  199POPC   GL1 2752   2.147   9.271   4.260
  199POPC   GL2 2753   2.132   8.914   4.213
  199POPC   C1A 2754   2.291   9.213   4.686
  199POPC   D2A 2755   2.115   8.958   5.022
  199POPC   C3A 2756   1.937   9.044   5.413
  199POPC   C4A 2757   2.136   9.040   5.795
  199POPC   C1B 2758   1.853   8.946   4.587
  199POPC   C2B 2759   1.598   8.839   4.993
  199POPC   C3B 2760   1.534   8.710   5.443
  199POPC   C4B 2761   1.676   8.834   5.847
  200POPC   NC3 2762   7.938   0.384   4.119
  200POPC   PO4 2763   7.678   0.829   3.749
  200POPC   GL1 2764   8.011   0.890   4.152
  200POPC   GL2 2765   8.323   0.655   4.304
  200POPC   C1A 2766   8.029   0.916   4.620
  200POPC   D2A 2767   7.960   1.050   5.046
  200POPC   C3A 2768   8.016   0.698   5.346
  200POPC   C4A 2769   8.053   0.582   5.776
  200POPC   C1B 2770   8.327   0.224   4.598
  200POPC   C2B 2771   8.433   0.112   5.016
  200POPC   C3B 2772   8.242   0.222   5.406
  200POPC   C4B 2773   8.415   0.143   5.797
  201POPC   NC3 2774   8.928   9.254   3.619
  201POPC   PO4 2775   8.400   9.378   4.056
  201POPC   GL1 2776   8.690   9.294   4.342
  201POPC   GL2 2777   8.967   9.131   4.147
  201POPC   C1A 2778   8.605   9.178   4.769
  201POPC   D2A 2779   8.735   9.118   5.200
  201POPC   C3A 2780   8.515   9.229   5.585
  201POPC   C4A 2781   8.532   9.161   6.074
  201POPC   C1B 2782   9.095   9.049   4.600
  201POPC   C2B 2783   9.107   8.821   5.014
  201POPC   C3B 2784   9.110   8.869   5.470
  201POPC   C4B 2785   8.843   8.753   5.807
  202POPC   NC3 2786   7.442   3.645   4.005
  202POPC   PO4 2787   7.638   3.108   3.735
  202POPC   GL1 2788   7.430   3.154   4.179
  202POPC   GL2 2789   7.352   3.410   4.434
  202POPC   C1A 2790   7.299   2.978   4.655
  202POPC   D2A 2791   7.260   3.020   5.093
  202POPC   C3A 2792   7.477   3.371   5.239
  202POPC   C4A 2793   7.609   3.382   5.647
  202POPC   C1B 2794   7.240   3.628   4.825
  202POPC   C2B 2795   7.144   3.814   5.210
  202POPC   C3B 2796   7.375   3.807   5.557
  202POPC   C4B 2797   7.622   3.830   5.917
  203POPC   NC3 2798   5.638   0.078   3.485
  203POPC   PO4 2799   5.480   0.521   4.024
  203POPC   GL1 2800   5.871   0.540   4.279
  203POPC   GL2 2801   5.849   0.822   4.490
  203POPC   C1A 2802   6.127   0.438   4.659
  203POPC   D2A 2803   6.103   0.124   5.001
  203POPC   C3A 2804   6.195   0.247   5.432
  203POPC   C4A 2805   6.044   0.188   5.834
  203POPC   C1B 2806   5.667   0.614   4.834
  203POPC   C2B 2807   5.843   0.515   5.206
  203POPC   C3B 2808   5.777   0.573   5.636
  203POPC   C4B 2809   5.395   0.806   5.694
  204POPC   NC3 2810   4.438   7.934   3.672
  204POPC   PO4 2811   4.155   7.745   4.288
  204POPC   GL1 2812   3.885   7.970   4.525
  204POPC   GL2 2813   4.047   8.257   4.477
  204POPC   C1A 2814   3.737   7.967   4.961
  204POPC   D2A 2815   4.018   8.056   5.278
  204POPC   C3A 2816   3.885   7.959   5.709
  204POPC   C4A 2817   4.057   7.938   6.117
  204POPC   C1B 2818   4.471   8.262   4.666
  204POPC   C2B 2819   4.520   8.328   5.121
  204POPC   C3B 2820   4.421   8.197   5.568
  204POPC   C4B 2821   4.325   8.394   5.952
  205POPC   NC3 2822   5.745   8.312   3.984
  205POPC   PO4 2823   6.153   7.790   3.959
  205POPC   GL1 2824   5.918   7.963   4.357
  205POPC   GL2 2825   5.779   8.321   4.465
  205POPC   C1A 2826   6.028   8.124   4.815
  205POPC   D2A 2827   5.831   8.407   5.116
  205POPC   C3A 2828   5.954   8.334   5.572
  205POPC   C4A 2829   6.026   8.032   5.927
  205POPC   C1B 2830   5.534   8.030   4.739
  205POPC   C2B 2831   5.413   8.122   5.187
  205POPC   C3B 2832   5.542   8.032   5.628
  205POPC   C4B 2833   5.533   7.907   6.079
  206POPC   NC3 2834   9.621   9.178   4.007
  206POPC   PO4 2835   0.012   8.681   3.897
  206POPC   GL1 2836   9.997   8.965   4.257
  206POPC   GL2 2837   9.696   8.820   4.368
  206POPC   C1A 2838   9.994   9.107   4.690
  206POPC   D2A 2839   0.204   9.201   5.068
  206POPC   C3A 2840   0.043   9.331   5.465
  206POPC   C4A 2841   9.783   9.265   5.831
  206POPC   C1B 2842   9.569   8.836   4.794
  206POPC   C2B 2843   9.575   8.803   5.237
  206POPC   C3B 2844   9.603   8.804   5.684
  206POPC   C4B 2845   9.320   8.662   6.011
  207POPC   NC3 2846   2.894   1.328   4.063
  207POPC   PO4 2847   2.279   0.997   3.939
  207POPC   GL1 2848   2.614   0.967   4.292
  207POPC   GL2 2849   2.742   1.246   4.524
  207POPC   C1A 2850   2.566   0.836   4.754
  207POPC   D2A 2851   2.688   1.093   5.070
  207POPC   C3A 2852   2.454   1.074   5.430
  207POPC   C4A 2853   2.485   0.924   5.844
  207POPC   C1B 2854   3.099   1.257   4.788
  207POPC   C2B 2855   3.186   1.102   5.188
  207POPC   C3B 2856   3.036   1.159   5.608
  207POPC   C4B 2857   2.875   1.186   6.022
  208POPC   NC3 2858   6.382   9.012   4.122
  208POPC   PO4 2859   6.917   8.881   3.755
  208POPC   GL1 2860   6.782   8.764   4.281
  208POPC   GL2 2861   6.701   9.120   4.522
  208POPC   C1A 2862   6.645   8.707   4.758
  208POPC   D2A 2863   6.724   8.511   5.199
  208POPC   C3A 2864   6.786   8.634   5.625
  208POPC   C4A 2865   6.817   8.632   6.073
  208POPC   C1B 2866   6.317   9.120   4.779
  208POPC   C2B 2867   6.375   9.160   5.202
  208POPC   C3B 2868   6.658   9.128   5.509
  208POPC   C4B 2869   6.525   8.987   5.884
  209POPC   NC3 2870   2.956   5.744   4.038
  209POPC   PO4 2871   2.302   5.757   3.939
  209POPC   GL1 2872   2.383   5.924   4.312
  209POPC   GL2 2873   2.657   6.121   4.290
  209POPC   C1A 2874   2.503   5.795   4.704
  209POPC   D2A 2875   2.495   5.980   5.110
  209POPC   C3A 2876   2.469   5.664   5.436
  209POPC   C4A 2877   2.526   5.723   5.877
  209POPC   C1B 2878   2.943   6.042   4.684
  209POPC   C2B 2879   2.989   5.867   5.118
  209POPC   C3B 2880   2.855   5.973   5.527
  209POPC   C4B 2881   2.939   6.047   5.924
  210POPC   NC3 2882   1.227   7.453   3.887
  210POPC   PO4 2883   0.922   6.868   3.958
  210POPC   GL1 2884   1.041   7.145   4.272
  210POPC   GL2 2885   0.865   7.479   4.274
  210POPC   C1A 2886   1.183   7.203   4.692
  210POPC   D2A 2887   1.147   7.328   5.120
  210POPC   C3A 2888   1.215   7.120   5.533
  210POPC   C4A 2889   1.398   6.977   5.959
  210POPC   C1B 2890   0.990   7.684   4.659
  210POPC   C2B 2891   1.231   7.822   5.033
  210POPC   C3B 2892   1.262   7.693   5.468
  210POPC   C4B 2893   1.400   7.478   5.853
  211POPC   NC3 2894   2.100   7.714   4.221
  211POPC   PO4 2895   1.676   7.314   3.877
  211POPC   GL1 2896   1.827   7.115   4.228
  211POPC   GL2 2897   2.169   7.049   4.266
  211POPC   C1A 2898   1.674   7.072   4.626
  211POPC   D2A 2899   1.601   7.432   4.903
  211POPC   C3A 2900   1.637   7.359   5.339
  211POPC   C4A 2901   1.848   7.277   5.697
  211POPC   C1B 2902   2.133   7.254   4.673
  211POPC   C2B 2903   2.089   7.522   5.037
  211POPC   C3B 2904   2.189   7.607   5.459
  211POPC   C4B 2905   2.510   7.742   5.734
  212POPC   NC3 2906   9.490   1.852   3.943
  212POPC   PO4 2907   9.524   2.476   4.005
  212POPC   GL1 2908   9.678   2.153   4.337
  212POPC   GL2 2909   9.903   1.835   4.290
  212POPC   C1A 2910   9.737   2.082   4.801
  212POPC   D2A 2911   9.851   2.176   5.228
  212POPC   C3A 2912   9.534   2.125   5.541
  212POPC   C4A 2913   9.323   2.054   5.946
  212POPC   C1B 2914   9.704   1.598   4.657
  212POPC   C2B 2915   9.538   1.674   5.120
  212POPC   C3B 2916   9.574   1.611   5.584
  212POPC   C4B 2917   9.860   1.778   5.912
  213POPC   NC3 2918   2.037   5.353   3.992
  213POPC   PO4 2919   2.504   4.917   4.030
  213POPC   GL1 2920   2.159   5.023   4.388
  213POPC   GL2 2921   1.780   4.940   4.368
  213POPC   C1A 2922   1.896   5.342   4.662
  213POPC   D2A 2923   1.657   5.487   5.038
  213POPC   C3A 2924   1.844   5.565   5.438
  213POPC   C4A 2925   2.116   5.460   5.767
  213POPC   C1B 2926   1.797   4.820   4.845
  213POPC   C2B 2927   1.805   4.684   5.295
  213POPC   C3B 2928   2.069   4.893   5.636
  213POPC   C4B 2929   2.416   4.698   5.883
  214POPC   NC3 2930   1.355   8.437   4.008
  214POPC   PO4 2931   0.929   7.867   3.943
  214POPC   GL1 2932   1.091   8.092   4.318
  214POPC   GL2 2933   1.473   8.077   4.343
  214POPC   C1A 2934   0.988   8.187   4.772
  214POPC   D2A 2935   0.751   7.998   5.154
  214POPC   C3A 2936   0.870   8.052   5.580
  214POPC   C4A 2937   1.162   7.933   5.907
  214POPC   C1B 2938   1.448   8.405   4.680
  214POPC   C2B 2939   1.333   8.355   5.113
  214POPC   C3B 2940   1.413   8.197   5.522
  214POPC   C4B 2941   1.667   8.312   5.878
  215POPC   NC3 2942   5.168   8.693   3.538
  215POPC   PO4 2943   4.790   8.987   3.992
  215POPC   GL1 2944   4.888   8.841   4.382
  215POPC   GL2 2945   5.186   8.800   4.378
  215POPC   C1A 2946   4.824   8.659   4.773
  215POPC   D2A 2947   4.706   8.832   5.136
  215POPC   C3A 2948   4.704   8.632   5.524
  215POPC   C4A 2949   4.839   8.621   5.938
  215POPC   C1B 2950   5.186   9.071   4.736
  215POPC   C2B 2951   5.075   9.207   5.140
  215POPC   C3B 2952   5.070   9.010   5.542
  215POPC   C4B 2953   5.045   9.085   5.975
  216POPC   NC3 2954   2.883   6.615   3.891
  216POPC   PO4 2955   3.347   7.053   3.955
  216POPC   GL1 2956   3.163   6.853   4.356
  216POPC   GL2 2957   2.863   6.584   4.404
  216POPC   C1A 2958   2.987   6.976   4.759
  216POPC   D2A 2959   2.738   6.733   5.063
  216POPC   C3A 2960   2.796   6.852   5.484
  216POPC   C4A 2961   3.051   6.921   5.862
  216POPC   C1B 2962   2.549   6.395   4.703
  216POPC   C2B 2963   2.303   6.451   5.094
  216POPC   C3B 2964   2.535   6.387   5.452
  216POPC   C4B 2965   2.477   6.228   5.831
  217POPC   NC3 2966   2.847   3.751   3.389
  217POPC   PO4 2967   2.879   4.087   4.005
  217POPC   GL1 2968   2.754   4.296   4.436
  217POPC   GL2 2969   2.543   4.633   4.484
  217POPC   C1A 2970   2.724   4.253   4.896
  217POPC   D2A 2971   2.922   4.305   5.330
  217POPC   C3A 2972   3.000   4.000   5.692
  217POPC   C4A 2973   2.896   4.093   6.151
  217POPC   C1B 2974   2.358   4.616   4.923
  217POPC   C2B 2975   2.389   4.340   5.293
  217POPC   C3B 2976   2.546   4.241   5.683
  217POPC   C4B 2977   2.390   4.219   6.086
  218POPC   NC3 2978   3.077   7.512   4.142
  218POPC   PO4 2979   2.468   7.477   4.138
  218POPC   GL1 2980   2.708   7.287   4.413
  218POPC   GL2 2981   2.686   7.000   4.194
  218POPC   C1A 2982   2.835   7.489   4.804
  218POPC   D2A 2983   2.782   7.854   5.092
  218POPC   C3A 2984   3.013   7.804   5.474
  218POPC   C4A 2985   2.980   7.665   5.908
  218POPC   C1B 2986   2.503   6.895   4.621
  218POPC   C2B 2987   2.487   7.161   5.014
  218POPC   C3B 2988   2.669   7.386   5.362
  218POPC   C4B 2989   2.677   7.257   5.796
  219POPC   NC3 2990   2.559   4.456   4.003
  219POPC   PO4 2991   1.973   4.098   4.124
  219POPC   GL1 2992   2.231   4.230   4.418
  219POPC   GL2 2993   2.041   4.491   4.553
  219POPC   C1A 2994   2.221   4.110   4.863
  219POPC   D2A 2995   2.075   3.904   5.237
  219POPC   C3A 2996   2.175   3.896   5.705
  219POPC   C4A 2997   2.187   3.776   6.210
  219POPC   C1B 2998   1.687   4.306   4.795
  219POPC   C2B 2999   1.560   4.215   5.221
  219POPC   C3B 3000   1.720   4.058   5.569
  219POPC   C4B 3001   2.043   4.385   5.678
  220POPC   NC3 3002   5.582   9.961   4.056
  220POPC   PO4 3003   6.252   0.079   3.870
  220POPC   GL1 3004   6.048   0.033   4.319
  220POPC   GL2 3005   5.851   9.723   4.408
  220POPC   C1A 3006   5.707   0.135   4.666
  220POPC   D2A 3007   5.562   0.076   5.100
  220POPC   C3A 3008   5.800   9.921   5.447
  220POPC   C4A 3009   5.832   9.718   5.856
  220POPC   C1B 3010   5.916   9.674   4.844
  220POPC   C2B 3011   5.998   9.492   5.247
  220POPC   C3B 3012   5.739   9.283   5.563
  220POPC   C4B 3013   5.422   9.397   5.859
  221POPC   NC3 3014   9.762   4.030   3.891
  221POPC   PO4 3015   9.972   4.607   4.011
  221POPC   GL1 3016   9.936   4.251   4.312
  221POPC   GL2 3017   9.621   4.091   4.381
  221POPC   C1A 3018   0.035   4.101   4.724
  221POPC   D2A 3019   9.776   4.130   5.077
  221POPC   C3A 3020   9.805   4.042   5.488
  221POPC   C4A 3021   9.878   4.490   5.640
  221POPC   C1B 3022   9.379   4.038   4.775
  221POPC   C2B 3023   9.306   4.033   5.246
  221POPC   C3B 3024   9.376   4.294   5.641
  221POPC   C4B 3025   9.647   4.162   6.014
  222POPC   NC3 3026   9.361   3.258   4.065
  222POPC   PO4 3027   9.887   3.351   3.683
  222POPC   GL1 3028   9.682   3.624   4.154
  222POPC   GL2 3029   9.959   3.709   4.412
  222POPC   C1A 3030   9.528   3.560   4.612
  222POPC   D2A 3031   9.648   3.645   5.031
  222POPC   C3A 3032   9.534   3.533   5.414
  222POPC   C4A 3033   9.399   3.787   5.727
  222POPC   C1B 3034   0.003   3.404   4.772
  222POPC   C2B 3035   0.082   3.204   5.139
  222POPC   C3B 3036   9.998   3.343   5.524
  222POPC   C4B 3037   9.839   3.581   5.859
  223POPC   NC3 3038   1.225   0.142   4.067
  223POPC   PO4 3039   0.719   0.633   4.153
  223POPC   GL1 3040   1.083   0.422   4.478
  223POPC   GL2 3041   1.455   0.444   4.411
  223POPC   C1A 3042   1.376   0.262   4.865
  223POPC   D2A 3043   1.178   0.196   5.233
  223POPC   C3A 3044   1.256   0.122   5.643
  223POPC   C4A 3045   0.895   0.203   5.892
  223POPC   C1B 3046   1.470   0.745   4.722
  223POPC   C2B 3047   1.224   0.726   5.096
  223POPC   C3B 3048   1.264   0.633   5.543
  223POPC   C4B 3049   1.245   0.546   5.999
  224POPC   NC3 3050   8.057   3.074   3.539
  224POPC   PO4 3051   8.538   3.513   3.812
  224POPC   GL1 3052   8.248   3.524   4.245
  224POPC   GL2 3053   7.869   3.541   4.326
  224POPC   C1A 3054   8.208   3.326   4.684
  224POPC   D2A 3055   8.067   3.463   5.128
  224POPC   C3A 3056   8.067   3.162   5.467
  224POPC   C4A 3057   7.940   3.150   5.923
  224POPC   C1B 3058   7.736   3.543   4.756
  224POPC   C2B 3059   7.666   3.846   5.081
  224POPC   C3B 3060   7.869   3.930   5.469
  224POPC   C4B 3061   8.086   3.616   5.733
  225POPC   NC3 3062   6.531   9.667   3.918
  225POPC   PO4 3063   6.049   9.336   4.163
  225POPC   GL1 3064   6.388   9.529   4.399
  225POPC   GL2 3065   6.605   9.857   4.378
  225POPC   C1A 3066   6.470   9.624   4.828
  225POPC   D2A 3067   6.662   9.592   5.231
  225POPC   C3A 3068   6.367   9.754   5.514
  225POPC   C4A 3069   6.214   9.376   5.727
  225POPC   C1B 3070   6.943   9.867   4.725
  225POPC   C2B 3071   7.088   9.866   5.183
  225POPC   C3B 3072   6.901   9.870   5.601
  225POPC   C4B 3073   6.709   9.525   5.823
  226POPC   NC3 3074   9.919   5.797   3.936
  226POPC   PO4 3075   9.284   5.545   3.768
  226POPC   GL1 3076   9.535   5.525   4.152
  226POPC   GL2 3077   9.467   5.824   4.260
  226POPC   C1A 3078   9.677   5.479   4.622
  226POPC   D2A 3079   9.630   5.636   5.095
  226POPC   C3A 3080   9.691   5.398   5.526
  226POPC   C4A 3081   9.872   5.491   5.939
  226POPC   C1B 3082   9.503   5.960   4.687
  226POPC   C2B 3083   9.883   6.064   4.911
  226POPC   C3B 3084   9.939   5.974   5.340
  226POPC   C4B 3085   9.608   5.893   5.599
  227POPC   NC3 3086   8.984   5.832   4.014
  227POPC   PO4 3087   9.254   6.428   3.913
  227POPC   GL1 3088   9.131   6.201   4.343
  227POPC   GL2 3089   8.997   5.856   4.498
  227POPC   C1A 3090   9.083   6.229   4.793
  227POPC   D2A 3091   9.134   5.860   5.076
  227POPC   C3A 3092   9.116   6.043   5.504
  227POPC   C4A 3093   9.250   6.097   5.915
  227POPC   C1B 3094   8.765   5.547   4.739
  227POPC   C2B 3095   8.765   5.447   5.139
  227POPC   C3B 3096   8.724   5.725   5.463
  227POPC   C4B 3097   8.883   5.739   5.886
  228POPC   NC3 3098   8.474   3.115   4.042
  228POPC   PO4 3099   8.062   2.650   3.754
  228POPC   GL1 3100   8.005   2.740   4.188
  228POPC   GL2 3101   7.964   3.079   4.120
  228POPC   C1A 3102   8.153   2.763   4.645
  228POPC   D2A 3103   8.097   2.621   5.082
  228POPC   C3A 3104   8.388   2.672   5.421
  228POPC   C4A 3105   8.381   2.476   5.847
  228POPC   C1B 3106   7.781   3.084   4.521
  228POPC   C2B 3107   7.777   3.039   4.952
  228POPC   C3B 3108   7.700   2.834   5.333
  228POPC   C4B 3109   7.928   2.685   5.694
  229POPC   NC3 3110   5.934   2.767   3.939
  229POPC   PO4 3111   5.263   2.646   3.956
  229POPC   GL1 3112   5.588   2.687   4.320
  229POPC   GL2 3113   5.515   2.379   4.417
  229POPC   C1A 3114   5.881   2.812   4.751
  229POPC   D2A 3115   6.165   2.865   5.193
  229POPC   C3A 3116   6.084   2.893   5.675
  229POPC   C4A 3117   5.745   2.929   6.040
  229POPC   C1B 3118   5.888   2.301   4.650
  229POPC   C2B 3119   6.090   2.405   5.002
  229POPC   C3B 3120   6.015   2.347   5.431
  229POPC   C4B 3121   5.797   2.467   5.817
  230POPC   NC3 3122   1.294   6.028   3.859
  230POPC   PO4 3123   0.968   5.564   3.725
  230POPC   GL1 3124   1.002   5.809   4.195
  230POPC   GL2 3125   1.367   5.809   4.303
  230POPC   C1A 3126   1.010   6.054   4.625
  230POPC   D2A 3127   0.862   5.926   5.053
  230POPC   C3A 3128   1.060   6.044   5.437
  230POPC   C4A 3129   0.975   6.231   5.831
  230POPC   C1B 3130   1.243   5.612   4.696
  230POPC   C2B 3131   1.151   5.484   5.109
  230POPC   C3B 3132   1.337   5.565   5.482
  230POPC   C4B 3133   1.190   5.742   5.839
  231POPC   NC3 3134   4.933   8.518   4.003
  231POPC   PO4 3135   5.434   7.968   4.011
  231POPC   GL1 3136   5.294   8.293   4.318
  231POPC   GL2 3137   4.953   8.292   4.450
  231POPC   C1A 3138   5.332   8.489   4.753
  231POPC   D2A 3139   5.176   8.635   5.168
  231POPC   C3A 3140   5.271   8.498   5.596
  231POPC   C4A 3141   5.148   8.218   5.915
  231POPC   C1B 3142   4.966   8.178   4.910
  231POPC   C2B 3143   4.931   8.170   5.386
  231POPC   C3B 3144   4.837   7.859   5.723
  231POPC   C4B 3145   5.034   7.753   6.145
  232POPC   NC3 3146   7.111   1.866   3.661
  232POPC   PO4 3147   7.613   2.161   4.029
  232POPC   GL1 3148   7.626   2.087   4.413
  232POPC   GL2 3149   7.683   1.736   4.308
  232POPC   C1A 3150   7.367   2.034   4.792
  232POPC   D2A 3151   7.350   1.935   5.216
  232POPC   C3A 3152   7.014   2.081   5.515
  232POPC   C4A 3153   7.018   2.092   5.976
  232POPC   C1B 3154   7.811   1.771   4.745
  232POPC   C2B 3155   7.837   1.583   5.139
  232POPC   C3B 3156   7.786   1.806   5.500
  232POPC   C4B 3157   7.452   1.935   5.721
  233POPC   NC3 3158   0.478   0.921   3.880
  233POPC   PO4 3159   0.731   1.615   3.964
  233POPC   GL1 3160   0.529   1.286   4.243
  233POPC   GL2 3161   0.166   1.232   4.195
  233POPC   C1A 3162   0.492   1.019   4.647
  233POPC   D2A 3163   0.762   0.978   5.054
  233POPC   C3A 3164   0.728   0.895   5.521
  233POPC   C4A 3165   0.652   1.184   5.892
  233POPC   C1B 3166   0.191   1.435   4.608
  233POPC   C2B 3167   0.459   1.411   4.974
  233POPC   C3B 3168   0.417   1.312   5.412
  233POPC   C4B 3169   0.215   1.426   5.806
  234POPC   NC3 3170   3.035   3.658   3.888
  234POPC   PO4 3171   2.462   3.937   3.573
  234POPC   GL1 3172   2.435   3.862   4.078
  234POPC   GL2 3173   2.604   3.565   4.150
  234POPC   C1A 3174   2.549   3.850   4.569
  234POPC   D2A 3175   2.796   3.758   4.990
  234POPC   C3A 3176   2.593   3.784   5.422
  234POPC   C4A 3177   2.597   3.763   5.908
  234POPC   C1B 3178   2.812   3.407   4.535
  234POPC   C2B 3179   2.914   3.253   4.954
  234POPC   C3B 3180   2.978   3.407   5.382
  234POPC   C4B 3181   2.778   3.324   5.768
  235POPC   NC3 3182   0.355   3.200   3.969
  235POPC   PO4 3183   0.394   2.511   3.876
  235POPC   GL1 3184   0.215   2.794   4.234
  235POPC   GL2 3185   9.940   2.618   4.387
  235POPC   C1A 3186   0.238   2.958   4.690
  235POPC   D2A 3187   0.439   2.833   5.100
  235POPC   C3A 3188   0.265   2.770   5.540
  235POPC   C4A 3189   0.157   3.063   5.909
  235POPC   C1B 3190   0.035   2.496   4.838
  235POPC   C2B 3191   0.356   2.303   5.136
  235POPC   C3B 3192   0.719   2.477   5.374
  235POPC   C4B 3193   0.787   2.786   5.696
  236POPC   NC3 3194   1.894   1.306   4.034
  236POPC   PO4 3195   1.663   0.608   4.000
  236POPC   GL1 3196   1.882   0.820   4.352
  236POPC   GL2 3197   2.192   0.738   4.422
  236POPC   C1A 3198   1.927   0.928   4.820
  236POPC   D2A 3199   1.659   0.995   5.152
  236POPC   C3A 3200   1.776   0.742   5.479
  236POPC   C4A 3201   1.637   0.841   5.864
  236POPC   C1B 3202   2.249   1.200   4.572
  236POPC   C2B 3203   2.225   1.373   5.007
  236POPC   C3B 3204   2.122   1.494   5.435
  236POPC   C4B 3205   2.034   1.149   5.724
  237POPC   NC3 3206   2.709   9.801   3.908
  237POPC   PO4 3207   3.086   9.194   4.082
  237POPC   GL1 3208   2.874   9.389   4.458
  237POPC   GL2 3209   2.596   9.566   4.358
  237POPC   C1A 3210   2.682   9.522   4.884
  237POPC   D2A 3211   2.289   9.487   5.128
  237POPC   C3A 3212   2.426   9.358   5.532
  237POPC   C4A 3213   2.815   9.352   5.775
  237POPC   C1B 3214   2.847   9.891   4.581
  237POPC   C2B 3215   2.907   9.993   5.028
  237POPC   C3B 3216   2.680   9.776   5.365
  237POPC   C4B 3217   2.586   9.810   5.798
  238POPC   NC3 3218   7.863   4.423   3.896
  238POPC   PO4 3219   8.516   4.488   4.032
  238POPC   GL1 3220   8.164   4.373   4.305
  238POPC   GL2 3221   8.017   4.028   4.248
  238POPC   C1A 3222   8.254   4.385   4.734
  238POPC   D2A 3223   8.539   4.408   5.073
  238POPC   C3A 3224   8.332   4.437   5.458
  238POPC   C4A 3225   8.088   4.248   5.813
  238POPC   C1B 3226   8.167   3.847   4.695
  238POPC   C2B 3227   8.281   3.945   5.150
  238POPC   C3B 3228   8.435   3.963   5.599
  238POPC   C4B 3229   8.355   3.889   6.085
  239POPC   NC3 3230   9.611   6.714   3.934
  239POPC   PO4 3231   9.929   6.158   4.224
  239POPC   GL1 3232   9.705   6.516   4.401
  239POPC   GL2 3233   9.906   6.857   4.325
  239POPC   C1A 3234   9.538   6.469   4.822
  239POPC   D2A 3235   9.490   6.229   5.203
  239POPC   C3A 3236   9.527   6.419   5.632
  239POPC   C4A 3237   9.516   6.429   6.152
  239POPC   C1B 3238   9.717   6.943   4.714
  239POPC   C2B 3239   9.661   6.849   5.143
  239POPC   C3B 3240   9.811   6.986   5.530
  239POPC   C4B 3241   9.702   6.829   5.902
  240POPC   NC3 3242   5.629   0.960   4.067
  240POPC   PO4 3243   5.915   1.428   3.656
  240POPC   GL1 3244   5.859   1.467   4.193
  240POPC   GL2 3245   5.564   1.377   4.360
  240POPC   C1A 3246   5.922   1.275   4.677
  240POPC   D2A 3247   6.043   0.954   4.975
  240POPC   C3A 3248   5.850   1.004   5.376
  240POPC   C4A 3249   5.942   1.035   5.809
  240POPC   C1B 3250   5.451   1.501   4.776
  240POPC   C2B 3251   5.720   1.462   5.140
  240POPC   C3B 3252   5.702   1.450   5.584
  240POPC   C4B 3253   5.477   1.260   5.916
  241POPC   NC3 3254   2.126   0.565   3.942
  241POPC   PO4 3255   1.711   0.179   3.580
  241POPC   GL1 3256   1.724   0.118   4.096
  241POPC   GL2 3257   1.955   0.291   4.311
  241POPC   C1A 3258   1.697   9.985   4.576
  241POPC   D2A 3259   1.868   9.909   5.013
  241POPC   C3A 3260   1.722   0.214   5.351
  241POPC   C4A 3261   1.688   0.319   5.816
  241POPC   C1B 3262   1.883   0.421   4.744
  241POPC   C2B 3263   2.112   0.537   5.108
  241POPC   C3B 3264   2.292   0.578   5.509
  241POPC   C4B 3265   2.085   0.625   5.897
  242POPC   NC3 3266   6.320   3.253   3.421
  242POPC   PO4 3267   6.083   3.212   4.044
  242POPC   GL1 3268   6.483   3.170   4.341
  242POPC   GL2 3269   6.878   3.193   4.243
  242POPC   C1A 3270   6.407   3.093   4.781
  242POPC   D2A 3271   6.324   3.348   5.139
  242POPC   C3A 3272   6.460   3.244   5.540
  242POPC   C4A 3273   6.654   3.453   5.886
  242POPC   C1B 3274   6.883   3.286   4.709
  242POPC   C2B 3275   6.867   3.364   5.165
  242POPC   C3B 3276   7.062   3.354   5.571
  242POPC   C4B 3277   7.032   3.124   6.002
  243POPC   NC3 3278   3.489   0.410   3.764
  243POPC   PO4 3279   3.186   0.992   3.932
  243POPC   GL1 3280   3.458   0.728   4.220
  243POPC   GL2 3281   3.627   0.373   4.235
  243POPC   C1A 3282   3.455   0.564   4.664
  243POPC   D2A 3283   3.379   0.164   4.918
  243POPC   C3A 3284   3.265   0.244   5.377
  243POPC   C4A 3285   3.390   0.449   5.786
  243POPC   C1B 3286   3.854   0.271   4.627
  243POPC   C2B 3287   3.774   0.456   5.048
  243POPC   C3B 3288   3.814   0.328   5.460
  243POPC   C4B 3289   3.908   0.346   5.883
  244POPC   NC3 3290   8.725   1.732   3.931
  244POPC   PO4 3291   9.203   2.096   3.694
  244POPC   GL1 3292   9.160   2.112   4.242
  244POPC   GL2 3293   9.082   1.777   4.303
  244POPC   C1A 3294   8.888   2.221   4.696
  244POPC   D2A 3295   8.518   2.266   5.056
  244POPC   C3A 3296   8.660   2.190   5.522
  244POPC   C4A 3297   8.676   2.096   5.997
  244POPC   C1B 3298   9.280   1.892   4.691
  244POPC   C2B 3299   9.198   2.065   5.116
  244POPC   C3B 3300   9.085   1.847   5.514
  244POPC   C4B 3301   8.721   1.663   5.731
  245POPC   NC3 3302   0.335   9.862   3.990
  245POPC   PO4 3303   0.729   9.342   3.855
  245POPC   GL1 3304   0.627   9.461   4.267
  245POPC   GL2 3305   0.324   9.358   4.380
  245POPC   C1A 3306   0.654   9.531   4.736
  245POPC   D2A 3307   0.526   9.566   5.165
  245POPC   C3A 3308   0.799   9.368   5.483
  245POPC   C4A 3309   0.471   9.302   5.793
  245POPC   C1B 3310   0.148   9.605   4.740
  245POPC   C2B 3311   0.061   9.796   5.134
  245POPC   C3B 3312   0.267   9.797   5.545
  245POPC   C4B 3313   0.121   9.650   5.929
  246POPC   NC3 3314   7.309   8.708   3.899
  246POPC   PO4 3315   6.772   9.275   4.065
  246POPC   GL1 3316   7.152   9.085   4.277
  246POPC   GL2 3317   7.461   8.977   4.317
  246POPC   C1A 3318   7.138   8.870   4.693
  246POPC   D2A 3319   6.925   8.985   5.086
  246POPC   C3A 3320   7.166   8.931   5.471
  246POPC   C4A 3321   7.032   9.081   5.889
  246POPC   C1B 3322   7.656   8.954   4.747
  246POPC   C2B 3323   7.649   8.903   5.216
  246POPC   C3B 3324   7.551   8.575   5.542
  246POPC   C4B 3325   7.250   8.554   5.841
  247POPC   NC3 3326   5.710   7.603   4.004
  247POPC   PO4 3327   6.119   7.080   4.008
  247POPC   GL1 3328   6.064   7.432   4.343
  247POPC   GL2 3329   5.742   7.324   4.441
  247POPC   C1A 3330   5.918   7.645   4.779
  247POPC   D2A 3331   5.890   7.869   5.234
  247POPC   C3A 3332   5.888   7.619   5.640
  247POPC   C4A 3333   5.902   7.549   6.099
  247POPC   C1B 3334   6.044   7.158   4.787
  247POPC   C2B 3335   6.216   7.306   5.223
  247POPC   C3B 3336   6.174   7.171   5.684
  247POPC   C4B 3337   5.808   7.054   5.952
  248POPC   NC3 3338   2.713   0.939   3.788
  248POPC   PO4 3339   2.590   0.252   3.881
  248POPC   GL1 3340   2.914   0.556   4.126
  248POPC   GL2 3341   3.120   0.316   4.341
  248POPC   C1A 3342   3.033   0.802   4.544
  248POPC   D2A 3343   3.089   0.633   5.007
  248POPC   C3A 3344   2.874   0.729   5.418
  248POPC   C4A 3345   2.910   0.658   5.887
  248POPC   C1B 3346   2.771   0.378   4.664
  248POPC   C2B 3347   2.623   0.420   5.104
  248POPC   C3B 3348   2.725   0.259   5.533
  248POPC   C4B 3349   2.500   0.321   5.919
  249POPC   NC3 3350   8.818   6.748   3.900
  249POPC   PO4 3351   8.589   6.146   4.118
  249POPC   GL1 3352   8.746   6.541   4.374
  249POPC   GL2 3353   9.112   6.706   4.322
  249POPC   C1A 3354   8.778   6.646   4.824
  249POPC   D2A 3355   9.092   6.578   5.161
  249POPC   C3A 3356   8.875   6.502   5.516
  249POPC   C4A 3357   8.796   6.282   5.903
  249POPC   C1B 3358   9.219   6.859   4.721
  249POPC   C2B 3359   9.207   7.072   5.138
  249POPC   C3B 3360   9.308   6.893   5.552
  249POPC   C4B 3361   9.154   6.651   5.899
  250POPC   NC3 3362   4.819   9.551   3.914
  250POPC   PO4 3363   5.499   9.592   3.767
  250POPC   GL1 3364   5.327   9.547   4.249
  250POPC   GL2 3365   5.021   9.336   4.324
  250POPC   C1A 3366   5.376   9.692   4.701
  250POPC   D2A 3367   5.486   9.552   5.146
  250POPC   C3A 3368   5.296   9.771   5.508
  250POPC   C4A 3369   5.324   9.881   5.956
  250POPC   C1B 3370   4.770   9.375   4.720
  250POPC   C2B 3371   4.830   9.681   5.038
  250POPC   C3B 3372   4.765   9.761   5.464
  250POPC   C4B 3373   4.907   9.572   5.845
  251POPC   NC3 3374   7.221   1.927   4.147
  251POPC   PO4 3375   6.631   1.834   3.786
  251POPC   GL1 3376   6.641   1.778   4.209
  251POPC   GL2 3377   6.318   1.712   4.351
  251POPC   C1A 3378   6.807   1.699   4.628
  251POPC   D2A 3379   6.860   1.940   5.002
  251POPC   C3A 3380   6.715   1.679   5.356
  251POPC   C4A 3381   6.797   1.620   5.816
  251POPC   C1B 3382   6.347   1.996   4.714
  251POPC   C2B 3383   6.394   2.041   5.173
  251POPC   C3B 3384   6.498   2.046   5.619
  251POPC   C4B 3385   6.475   1.926   6.052
  252POPC   NC3 3386   1.582   2.001   3.840
  252POPC   PO4 3387   1.444   1.422   4.001
  252POPC   GL1 3388   1.420   1.718   4.342
  252POPC   GL2 3389   1.261   2.028   4.241
  252POPC   C1A 3390   1.317   1.809   4.810
  252POPC   D2A 3391   1.092   1.687   5.233
  252POPC   C3A 3392   1.258   1.728   5.689
  252POPC   C4A 3393   1.483   1.782   6.130
  252POPC   C1B 3394   1.220   2.320   4.577
  252POPC   C2B 3395   1.031   2.261   4.985
  252POPC   C3B 3396   1.226   2.177   5.376
  252POPC   C4B 3397   1.144   2.374   5.752
  253POPC   NC3 3398   0.151   3.634   3.961
  253POPC   PO4 3399   0.813   3.218   3.948
  253POPC   GL1 3400   0.661   3.170   4.365
  253POPC   GL2 3401   0.385   3.406   4.419
  253POPC   C1A 3402   0.679   3.216   4.785
  253POPC   D2A 3403   0.536   3.437   5.115
  253POPC   C3A 3404   0.507   3.207   5.468
  253POPC   C4A 3405   0.643   3.253   5.864
  253POPC   C1B 3406   0.392   3.724   4.719
  253POPC   C2B 3407   0.151   3.771   5.119
  253POPC   C3B 3408   0.340   3.706   5.514
  253POPC   C4B 3409   0.339   3.646   5.928
  254POPC   NC3 3410   3.899   9.726   3.563
  254POPC   PO4 3411   4.351   9.427   3.835
  254POPC   GL1 3412   4.473   9.363   4.256
  254POPC   GL2 3413   4.593   9.701   4.371
  254POPC   C1A 3414   4.225   9.450   4.643
  254POPC   D2A 3415   4.312   9.615   5.088
  254POPC   C3A 3416   4.083   9.356   5.438
  254POPC   C4A 3417   3.832   9.530   5.802
  254POPC   C1B 3418   4.264   9.954   4.644
  254POPC   C2B 3419   4.036   0.028   5.063
  254POPC   C3B 3420   4.093   9.877   5.503
  254POPC   C4B 3421   4.382   9.619   5.784
  255POPC   NC3 3422   2.625   9.133   4.087
  255POPC   PO4 3423   2.737   8.494   3.840
  255POPC   GL1 3424   2.636   8.621   4.266
  255POPC   GL2 3425   2.914   8.827   4.412
  255POPC   C1A 3426   2.404   8.684   4.665
  255POPC   D2A 3427   2.356   8.526   5.113
  255POPC   C3A 3428   2.452   8.839   5.420
  255POPC   C4A 3429   2.784   8.850   5.732
  255POPC   C1B 3430   2.771   9.027   4.794
  255POPC   C2B 3431   2.843   9.126   5.217
  255POPC   C3B 3432   3.096   8.765   5.322
  255POPC   C4B 3433   3.243   8.575   5.709
  256POPC   NC3 3434   0.328   9.070   3.878
  256POPC   PO4 3435   0.992   8.730   4.037
  256POPC   GL1 3436   0.661   8.929   4.238
  256POPC   GL2 3437   0.418   8.683   4.211
  256POPC   C1A 3438   0.509   8.978   4.651
  256POPC   D2A 3439   0.707   9.096   5.019
  256POPC   C3A 3440   0.549   8.940   5.393
  256POPC   C4A 3441   0.725   8.852   5.795
  256POPC   C1B 3442   0.124   8.610   4.583
  256POPC   C2B 3443   0.226   8.703   5.008
  256POPC   C3B 3444   0.057   8.801   5.403
  256POPC   C4B 3445   0.170   8.919   5.820
  257POPC   NC3 3446   6.346   1.261   3.763
  257POPC   PO4 3447   6.808   0.758   3.875
  257POPC   GL1 3448   6.842   1.038   4.244
  257POPC   GL2 3449   6.556   1.260   4.241
  257POPC   C1A 3450   6.911   1.179   4.680
  257POPC   D2A 3451   6.956   1.002   5.120
  257POPC   C3A 3452   6.784   1.200   5.500
  257POPC   C4A 3453   6.507   1.100   5.840
  257POPC   C1B 3454   6.425   1.327   4.659
  257POPC   C2B 3455   6.479   1.238   5.087
  257POPC   C3B 3456   6.247   1.325   5.461
  257POPC   C4B 3457   6.154   1.509   5.870
  258POPC   NC3 3458   5.220   1.475   3.615
  258POPC   PO4 3459   4.793   0.957   3.887
  258POPC   GL1 3460   5.138   1.027   4.230
  258POPC   GL2 3461   4.966   1.217   4.447
  258POPC   C1A 3462   5.386   1.010   4.649
  258POPC   D2A 3463   5.439   1.013   5.076
  258POPC   C3A 3464   5.073   0.979   5.324
  258POPC   C4A 3465   5.007   1.156   5.726
  258POPC   C1B 3466   4.983   1.247   4.888
  258POPC   C2B 3467   4.934   1.477   5.281
  258POPC   C3B 3468   5.194   1.636   5.625
  258POPC   C4B 3469   5.082   1.571   6.040
  259POPC   NC3 3470   6.432   7.423   3.983
  259POPC   PO4 3471   7.070   7.386   3.972
  259POPC   GL1 3472   7.066   7.408   4.423
  259POPC   GL2 3473   6.745   7.469   4.384
  259POPC   C1A 3474   6.998   7.366   4.866
  259POPC   D2A 3475   6.751   7.510   5.200
  259POPC   C3A 3476   6.766   7.338   5.591
  259POPC   C4A 3477   6.978   6.936   5.650
  259POPC   C1B 3478   6.446   7.470   4.704
  259POPC   C2B 3479   6.353   7.756   5.013
  259POPC   C3B 3480   6.364   7.743   5.477
  259POPC   C4B 3481   6.367   7.578   5.906
  260POPC   NC3 3482   6.141   1.757   3.881
  260POPC   PO4 3483   6.130   2.335   4.018
  260POPC   GL1 3484   5.896   2.000   4.248
  260POPC   GL2 3485   5.568   1.890   4.277
  260POPC   C1A 3486   5.892   1.772   4.644
  260POPC   D2A 3487   5.895   1.936   5.054
  260POPC   C3A 3488   6.045   1.804   5.448
  260POPC   C4A 3489   6.021   2.014   5.834
  260POPC   C1B 3490   5.453   2.015   4.757
  260POPC   C2B 3491   5.530   2.263   5.164
  260POPC   C3B 3492   5.582   2.016   5.563
  260POPC   C4B 3493   5.588   1.746   5.981
  261POPC   NC3 3494   0.712   8.298   4.009
  261POPC   PO4 3495   0.191   7.834   3.901
  261POPC   GL1 3496   0.469   7.885   4.245
  261POPC   GL2 3497   0.314   8.198   4.325
  261POPC   C1A 3498   0.524   7.942   4.703
  261POPC   D2A 3499   0.281   8.192   5.014
  261POPC   C3A 3500   0.219   8.029   5.447
  261POPC   C4A 3501   0.398   8.074   5.891
  261POPC   C1B 3502   0.590   8.457   4.648
  261POPC   C2B 3503   0.694   8.512   5.100
  261POPC   C3B 3504   0.494   8.455   5.532
  261POPC   C4B 3505   0.076   8.433   5.762
  262POPC   NC3 3506   9.935   8.231   3.933
  262POPC   PO4 3507   9.397   7.839   3.769
  262POPC   GL1 3508   9.585   7.960   4.186
  262POPC   GL2 3509   9.898   7.815   4.298
  262POPC   C1A 3510   9.467   7.846   4.642
  262POPC   D2A 3511   9.663   7.915   5.063
  262POPC   C3A 3512   9.466   7.901   5.489
  262POPC   C4A 3513   9.727   7.815   5.884
  262POPC   C1B 3514   9.910   8.123   4.627
  262POPC   C2B 3515   9.814   8.409   4.955
  262POPC   C3B 3516   9.774   8.335   5.373
  262POPC   C4B 3517   9.596   8.300   5.787
  263POPC   NC3 3518   9.627   0.627   4.051
  263POPC   PO4 3519   0.044   0.126   3.720
  263POPC   GL1 3520   9.897   0.203   4.185
  263POPC   GL2 3521   9.579   0.169   4.369
  263POPC   C1A 3522   9.992   0.138   4.656
  263POPC   D2A 3523   9.816   0.258   5.096
  263POPC   C3A 3524   9.984   0.241   5.543
  263POPC   C4A 3525   0.048   0.422   6.003
  263POPC   C1B 3526   9.663   0.530   4.675
  263POPC   C2B 3527   9.460   0.686   5.040
  263POPC   C3B 3528   9.693   0.680   5.419
  263POPC   C4B 3529   9.591   0.455   5.802
  264POPC   NC3 3530   4.292   8.975   3.929
  264POPC   PO4 3531   4.535   8.357   3.808
  264POPC   GL1 3532   4.454   8.602   4.250
  264POPC   GL2 3533   4.111   8.740   4.353
  264POPC   C1A 3534   4.467   8.982   4.597
  264POPC   D2A 3535   4.319   9.124   5.008
  264POPC   C3A 3536   4.597   9.277   5.351
  264POPC   C4A 3537   4.598   9.129   5.762
  264POPC   C1B 3538   4.193   8.643   4.839
  264POPC   C2B 3539   4.228   8.711   5.294
  264POPC   C3B 3540   4.186   8.846   5.716
  264POPC   C4B 3541   3.959   8.794   6.100
  265POPC   NC3 3542   8.443   5.823   3.835
  265POPC   PO4 3543   7.824   5.820   3.957
  265POPC   GL1 3544   8.139   5.687   4.290
  265POPC   GL2 3545   8.510   5.706   4.342
  265POPC   C1A 3546   8.214   5.674   4.778
  265POPC   D2A 3547   8.282   5.896   5.178
  265POPC   C3A 3548   8.003   5.896   5.590
  265POPC   C4A 3549   7.584   6.140   5.723
  265POPC   C1B 3550   8.585   6.031   4.742
  265POPC   C2B 3551   8.730   6.150   5.161
  265POPC   C3B 3552   8.472   6.171   5.545
  265POPC   C4B 3553   8.413   5.939   5.938
  266POPC   NC3 3554   8.761   0.441   3.750
  266POPC   PO4 3555   9.343   0.293   3.937
  266POPC   GL1 3556   9.073   0.505   4.192
  266POPC   GL2 3557   8.744   0.359   4.273
  266POPC   C1A 3558   9.171   0.454   4.607
  266POPC   D2A 3559   9.344   0.171   4.902
  266POPC   C3A 3560   9.349   0.265   5.358
  266POPC   C4A 3561   9.106   0.474   5.677
  266POPC   C1B 3562   8.686   0.545   4.704
  266POPC   C2B 3563   8.933   0.473   5.063
  266POPC   C3B 3564   8.722   0.360   5.392
  266POPC   C4B 3565   8.532   0.624   5.641
  267POPC   NC3 3566   6.564   2.323   3.837
  267POPC   PO4 3567   6.240   2.825   3.586
  267POPC   GL1 3568   6.421   2.769   4.049
  267POPC   GL2 3569   6.768   2.697   4.124
  267POPC   C1A 3570   6.334   2.645   4.532
  267POPC   D2A 3571   6.585   2.427   4.871
  267POPC   C3A 3572   6.525   2.507   5.344
  267POPC   C4A 3573   6.362   2.494   5.795
  267POPC   C1B 3574   6.808   2.806   4.570
  267POPC   C2B 3575   6.779   2.868   5.038
  267POPC   C3B 3576   6.830   2.899   5.489
  267POPC   C4B 3577   6.881   2.560   5.793
  268POPC   NC3 3578   1.090   9.218   4.113
  268POPC   PO4 3579   1.563   9.458   3.659
  268POPC   GL1 3580   1.568   9.183   4.204
  268POPC   GL2 3581   1.419   8.844   4.318
  268POPC   C1A 3582   1.436   9.220   4.661
  268POPC   D2A 3583   1.197   9.279   5.011
  268POPC   C3A 3584   1.407   9.218   5.388
  268POPC   C4A 3585   1.209   9.049   5.720
  268POPC   C1B 3586   1.117   8.811   4.711
  268POPC   C2B 3587   1.099   8.814   5.175
  268POPC   C3B 3588   1.023   8.553   5.505
  268POPC   C4B 3589   1.232   8.566   5.872
  269POPC   NC3 3590   1.763   2.700   3.944
  269POPC   PO4 3591   2.384   2.426   3.812
  269POPC   GL1 3592   2.209   2.517   4.254
  269POPC   GL2 3593   2.189   2.875   4.257
  269POPC   C1A 3594   2.261   2.565   4.759
  269POPC   D2A 3595   2.385   2.631   5.242
  269POPC   C3A 3596   2.161   2.549   5.658
  269POPC   C4A 3597   2.286   2.417   6.132
  269POPC   C1B 3598   2.004   3.000   4.657
  269POPC   C2B 3599   1.986   2.900   5.094
  269POPC   C3B 3600   1.981   3.007   5.521
  269POPC   C4B 3601   1.729   3.180   5.826
  270POPC   NC3 3602   0.549   6.578   3.928
  270POPC   PO4 3603   0.201   6.089   3.707
  270POPC   GL1 3604   0.430   6.150   4.161
  270POPC   GL2 3605   0.294   6.495   4.351
  270POPC   C1A 3606   0.507   6.138   4.627
  270POPC   D2A 3607   0.528   6.413   5.004
  270POPC   C3A 3608   0.666   6.405   5.443
  270POPC   C4A 3609   0.472   6.339   5.865
  270POPC   C1B 3610   0.069   6.533   4.764
  270POPC   C2B 3611   0.018   6.476   5.221
  270POPC   C3B 3612   0.227   6.685   5.574
  270POPC   C4B 3613   0.200   6.832   6.010
  271POPC   NC3 3614   9.812   7.484   3.883
  271POPC   PO4 3615   9.270   7.060   3.928
  271POPC   GL1 3616   9.419   7.138   4.317
  271POPC   GL2 3617   9.447   7.480   4.242
  271POPC   C1A 3618   9.301   7.356   4.723
  271POPC   D2A 3619   9.243   7.606   5.107
  271POPC   C3A 3620   9.256   7.411   5.527
  271POPC   C4A 3621   9.523   7.303   5.901
  271POPC   C1B 3622   9.773   7.426   4.579
  271POPC   C2B 3623   9.711   7.374   5.041
  271POPC   C3B 3624   9.785   7.497   5.473
  271POPC   C4B 3625   0.040   7.352   5.849
  272POPC   NC3 3626   7.032   0.348   3.940
  272POPC   PO4 3627   7.549   0.627   4.220
  272POPC   GL1 3628   7.164   0.637   4.358
  272POPC   GL2 3629   7.091   0.266   4.439
  272POPC   C1A 3630   6.988   0.666   4.735
  272POPC   D2A 3631   7.023   0.333   4.992
  272POPC   C3A 3632   7.191   0.337   5.404
  272POPC   C4A 3633   7.069   0.326   5.855
  272POPC   C1B 3634   7.465   0.242   4.728
  272POPC   C2B 3635   7.849   0.241   4.993
  272POPC   C3B 3636   7.736   0.215   5.406
  272POPC   C4B 3637   7.548   0.510   5.712
  273POPC   NC3 3638   9.618   9.937   3.858
  273POPC   PO4 3639   0.016   9.423   3.997
  273POPC   GL1 3640   9.897   9.707   4.321
  273POPC   GL2 3641   9.592   9.640   4.281
  273POPC   C1A 3642   9.661   9.789   4.768
  273POPC   D2A 3643   9.465   9.759   5.191
  273POPC   C3A 3644   9.739   9.755   5.549
  273POPC   C4A 3645   9.729   9.982   5.933
  273POPC   C1B 3646   9.525   9.333   4.632
  273POPC   C2B 3647   9.674   9.292   5.071
  273POPC   C3B 3648   9.441   9.304   5.476
  273POPC   C4B 3649   9.331   9.623   5.844
  274POPC   NC3 3650   0.591   2.071   3.954
  274POPC   PO4 3651   0.585   2.498   4.411
  274POPC   GL1 3652   0.741   2.060   4.453
  274POPC   GL2 3653   0.472   1.801   4.371
  274POPC   C1A 3654   0.759   1.818   4.836
  274POPC   D2A 3655   0.558   1.826   5.260
  274POPC   C3A 3656   0.785   2.028   5.600
  274POPC   C4A 3657   0.673   2.314   5.972
  274POPC   C1B 3658   0.242   1.941   4.729
  274POPC   C2B 3659   0.043   1.704   5.042
  274POPC   C3B 3660   0.071   1.760   5.452
  274POPC   C4B 3661   0.251   2.120   5.687
  275POPC   NC3 3662   9.547   1.059   3.716
  275POPC   PO4 3663   8.960   0.863   3.740
  275POPC   GL1 3664   9.278   0.976   4.152
  275POPC   GL2 3665   9.645   1.119   4.210
  275POPC   C1A 3666   9.322   1.263   4.569
  275POPC   D2A 3667   9.567   1.191   4.952
  275POPC   C3A 3668   9.389   1.165   5.355
  275POPC   C4A 3669   9.394   0.928   5.742
  275POPC   C1B 3670   9.896   1.007   4.588
  275POPC   C2B 3671   0.070   1.060   5.032
  275POPC   C3B 3672   9.901   1.187   5.464
  275POPC   C4B 3673   9.753   1.247   5.921
  276POPC   NC3 3674   3.651   1.162   3.945
  276POPC   PO4 3675   3.156   1.696   4.081
  276POPC   GL1 3676   3.396   1.588   4.434
  276POPC   GL2 3677   3.328   1.258   4.338
  276POPC   C1A 3678   3.536   1.515   4.890
  276POPC   D2A 3679   3.306   1.567   5.321
  276POPC   C3A 3680   3.482   1.391   5.716
  276POPC   C4A 3681   3.318   1.393   6.160
  276POPC   C1B 3682   3.587   1.058   4.595
  276POPC   C2B 3683   3.640   0.949   5.000
  276POPC   C3B 3684   3.508   0.758   5.387
  276POPC   C4B 3685   3.785   0.812   5.734
  277POPC   NC3 3686   2.401   2.895   3.759
  277POPC   PO4 3687   3.036   3.180   3.886
  277POPC   GL1 3688   2.682   3.052   4.151
  277POPC   GL2 3689   2.694   2.686   4.136
  277POPC   C1A 3690   2.571   2.947   4.592
  277POPC   D2A 3691   2.804   2.747   4.937
  277POPC   C3A 3692   2.778   2.937   5.356
  277POPC   C4A 3693   2.482   2.931   5.692
  277POPC   C1B 3694   2.690   2.419   4.520
  277POPC   C2B 3695   2.636   2.259   4.959
  277POPC   C3B 3696   2.836   2.412   5.349
  277POPC   C4B 3697   2.679   2.441   5.775
  278POPC   NC3 3698   0.510   0.408   3.800
  278POPC   PO4 3699   9.969   0.894   3.855
  278POPC   GL1 3700   0.171   0.655   4.240
  278POPC   GL2 3701   0.374   0.297   4.294
  278POPC   C1A 3702   0.189   0.602   4.720
  278POPC   D2A 3703   0.377   0.620   5.154
  278POPC   C3A 3704   0.232   0.721   5.586
  278POPC   C4A 3705   0.530   0.605   5.946
  278POPC   C1B 3706   0.476   0.025   4.661
  278POPC   C2B 3707   0.511   0.085   5.127
  278POPC   C3B 3708   0.494   0.254   5.574
  278POPC   C4B 3709   0.422   0.092   6.036
  279POPC   NC3 3710   4.086   2.722   3.958
  279POPC   PO4 3711   4.519   2.299   3.914
  279POPC   GL1 3712   4.570   2.653   4.188
  279POPC   GL2 3713   4.390   2.928   4.297
  279POPC   C1A 3714   4.611   2.632   4.674
  279POPC   D2A 3715   4.354   2.540   5.052
  279POPC   C3A 3716   4.402   2.454   5.484
  279POPC   C4A 3717   4.646   2.408   5.845
  279POPC   C1B 3718   4.154   2.866   4.702
  279POPC   C2B 3719   3.922   2.812   5.116
  279POPC   C3B 3720   3.889   2.717   5.562
  279POPC   C4B 3721   4.141   2.559   5.918
  280POPC   NC3 3722   4.251   1.946   3.785
  280POPC   PO4 3723   4.862   1.761   3.720
  280POPC   GL1 3724   4.667   1.894   4.166
  280POPC   GL2 3725   4.631   2.200   4.397
  280POPC   C1A 3726   4.492   1.763   4.585
  280POPC   D2A 3727   4.534   2.072   4.914
  280POPC   C3A 3728   4.355   1.997   5.288
  280POPC   C4A 3729   4.316   1.971   5.724
  280POPC   C1B 3730   4.199   2.312   4.589
  280POPC   C2B 3731   3.969   2.232   4.997
  280POPC   C3B 3732   3.914   2.214   5.462
  280POPC   C4B 3733   3.863   2.132   5.913
  281POPC   NC3 3734   3.553   9.344   4.087
  281POPC   PO4 3735   3.526   9.941   3.721
  281POPC   GL1 3736   3.562   9.861   4.189
  281POPC   GL2 3737   3.269   9.710   4.344
  281POPC   C1A 3738   3.751   9.734   4.621
  281POPC   D2A 3739   3.778   9.544   5.042
  281POPC   C3A 3740   3.597   9.825   5.354
  281POPC   C4A 3741   3.576   9.977   5.779
  281POPC   C1B 3742   3.256   9.638   4.813
  281POPC   C2B 3743   3.139   9.597   5.255
  281POPC   C3B 3744   3.115   9.764   5.685
  281POPC   C4B 3745   3.013   9.679   6.143
  282POPC   NC3 3746   8.704   5.021   3.530
  282POPC   PO4 3747   8.869   5.376   4.093
  282POPC   GL1 3748   9.143   5.375   4.422
  282POPC   GL2 3749   9.166   5.054   4.424
  282POPC   C1A 3750   9.234   5.369   4.868
  282POPC   D2A 3751   9.151   5.083   5.206
  282POPC   C3A 3752   8.959   5.256   5.587
  282POPC   C4A 3753   8.848   5.212   6.017
  282POPC   C1B 3754   8.832   5.035   4.791
  282POPC   C2B 3755   8.679   4.895   5.247
  282POPC   C3B 3756   8.603   4.884   5.711
  282POPC   C4B 3757   8.693   4.751   6.179
  283POPC   NC3 3758   3.554   6.634   4.096
  283POPC   PO4 3759   3.066   6.193   3.995
  283POPC   GL1 3760   3.290   6.320   4.419
  283POPC   GL2 3761   3.630   6.435   4.556
  283POPC   C1A 3762   3.128   6.493   4.822
  283POPC   D2A 3763   3.019   6.352   5.229
  283POPC   C3A 3764   3.089   6.454   5.646
  283POPC   C4A 3765   3.326   6.419   6.043
  283POPC   C1B 3766   3.538   6.764   4.867
  283POPC   C2B 3767   3.302   6.806   5.285
  283POPC   C3B 3768   3.512   6.772   5.715
  283POPC   C4B 3769   3.890   6.615   5.938
  284POPC   NC3 3770   1.107   9.560   3.690
  284POPC   PO4 3771   0.784   0.060   3.937
  284POPC   GL1 3772   0.893   9.891   4.365
  284POPC   GL2 3773   1.094   9.577   4.517
  284POPC   C1A 3774   0.959   9.983   4.792
  284POPC   D2A 3775   0.986   9.728   5.127
  284POPC   C3A 3776   0.833   9.880   5.478
  284POPC   C4A 3777   0.702   9.733   5.838
  284POPC   C1B 3778   1.406   9.707   4.856
  284POPC   C2B 3779   1.449   9.742   5.324
  284POPC   C3B 3780   1.234   9.612   5.736
  284POPC   C4B 3781   1.327   9.558   6.207
  285POPC   NC3 3782   4.369   0.957   3.699
  285POPC   PO4 3783   3.819   0.742   3.810
  285POPC   GL1 3784   4.050   0.648   4.234
  285POPC   GL2 3785   4.429   0.701   4.220
  285POPC   C1A 3786   4.066   0.746   4.717
  285POPC   D2A 3787   4.267   0.560   5.133
  285POPC   C3A 3788   4.269   0.642   5.611
  285POPC   C4A 3789   4.205   0.741   6.069
  285POPC   C1B 3790   4.518   0.486   4.657
  285POPC   C2B 3791   4.565   0.148   5.005
  285POPC   C3B 3792   4.504   0.203   5.450
  285POPC   C4B 3793   4.355   0.127   5.868
  286POPC   NC3 3794   2.305   8.279   3.738
  286POPC   PO4 3795   1.753   8.658   3.941
  286POPC   GL1 3796   1.825   8.489   4.344
  286POPC   GL2 3797   1.994   8.183   4.398
  286POPC   C1A 3798   1.947   8.483   4.803
  286POPC   D2A 3799   1.846   8.348   5.220
  286POPC   C3A 3800   2.026   8.559   5.568
  286POPC   C4A 3801   2.120   8.580   6.027
  286POPC   C1B 3802   1.756   7.993   4.778
  286POPC   C2B 3803   1.707   7.850   5.209
  286POPC   C3B 3804   1.760   7.823   5.641
  286POPC   C4B 3805   2.096   8.084   5.774
  287W        W 3806   8.793   1.889   0.255
  288W        W 3807   4.544   0.979  10.752
  289W        W 3808   8.975   1.372   2.267
  290W        W 3809   0.031   7.985   1.668
  291W        W 3810   8.848   3.420   9.154
  292W        W 3811   7.160   7.351   9.542
  293W        W 3812   0.707   0.156   0.937
  294W        W 3813   3.485   7.670  11.213
  295W        W 3814   1.664   8.381   1.940
  296W        W 3815   8.642   1.650   3.228
  297W        W 3816   6.919   2.022  11.723
  298W        W 3817   2.158   0.762   8.965
  299W        W 3818   8.004   3.993   3.625
  300W        W 3819   4.673   3.674   8.930
  301W        W 3820   1.237   0.992   9.537
  302W        W 3821   5.725   6.312   2.520
  303W        W 3822   6.733   9.078  11.828
  304W        W 3823   8.660   2.625   2.454
  305W        W 3824   6.193   8.222   9.223
  306W        W 3825   4.684   6.784   9.498
  307W        W 3826   4.186   6.761   3.593
  308W        W 3827   5.146   4.628   0.956
  309W        W 3828   0.429   8.554   2.597
  310W        W 3829   7.279   6.010   1.898
  311W        W 3830   8.105   6.344  10.502
  312W        W 3831   4.490   1.862   0.439
  313W        W 3832   6.139   2.700  10.918
  314W        W 3833   2.762   3.236   3.468
  315W        W 3834   6.478   3.000  11.845
  316W        W 3835   6.908   6.888   2.747
  317W        W 3836   8.269   2.022   3.509
  318W        W 3837   5.495   0.559   1.668
  319W        W 3838   4.922   5.226  10.477
  320W        W 3839   2.776   4.718   9.481
  321W        W 3840   5.441   2.281  11.415
  322W        W 3841   2.272   9.322  10.386
  323W        W 3842   9.273   8.887   3.746
  324W        W 3843   3.682   0.539   3.297
  325W        W 3844   6.377   8.400   1.252
  326W        W 3845   8.759   4.501  11.065
  327W        W 3846   4.569   4.178  11.808
  328W        W 3847   9.546   0.685   9.554
  329W        W 3848   5.233   6.606  11.830
  330W        W 3849   8.783   2.115   3.384
  331W        W 3850   6.961   9.243   9.989
  332W        W 3851   3.350   4.628   0.965
  333W        W 3852   9.289   5.188   9.584
  334W        W 3853   5.792   7.922   3.618
  335W        W 3854   2.657   7.090   3.278
  336W        W 3855   2.632   6.662   9.575
  337W        W 3856   5.222   1.221   2.309
  338W        W 3857   1.406   2.090  10.603
  339W        W 3858   4.586   5.113   9.479
  340W        W 3859   0.455   5.921   1.675
  341W        W 3860   8.335   8.528   8.784
  342W        W 3861   6.905   2.788   0.110
  343W        W 3862   3.558   9.096   0.322
  344W        W 3863   4.107   1.882   9.462
  345W        W 3864   1.602   5.125   3.500
  346W        W 3865   0.377   3.417   2.186
  347W        W 3866   9.458   6.274   0.276
  348W        W 3867   3.098   4.717   8.631
  349W        W 3868   3.344   4.231   2.843
  350W        W 3869   2.919   0.406  11.514
  351W        W 3870   5.374   9.884   9.675
  352W        W 3871   8.023   2.396   0.482
  353W        W 3872   4.663   7.755   8.533
  354W        W 3873   4.716   0.913   0.691
  355W        W 3874   9.923   3.320  10.451
  356W        W 3875   9.369   0.610  10.041
  357W        W 3876   5.062   3.302   9.559
  358W        W 3877   7.297   3.631   9.712
  359W        W 3878   0.871   7.476   0.191
  360W        W 3879   3.123   4.180   1.808
  361W        W 3880   8.977   7.365  10.005
  362W        W 3881   0.352   0.870   8.860
  363W        W 3882   3.544   2.391  10.907
  364W        W 3883   4.615   5.027   3.066
  365W        W 3884   9.394   8.522   1.285
  366W        W 3885   1.423   3.574  11.549
  367W        W 3886   4.899   7.065   9.128
  368W        W 3887   0.111   1.068   8.450
  369W        W 3888   4.749   7.818   1.844
  370W        W 3889   9.492   9.646  11.212
  371W        W 3890   6.010   3.261   2.420
  372W        W 3891   5.505   1.753  10.784
  373W        W 3892   5.486   9.844   1.449
  374W        W 3893   2.284   3.963  11.478
  375W        W 3894   4.536   5.072   0.065
  376W        W 3895   2.701   2.207   9.300
  377W        W 3896   2.569   1.083   2.441
  378W        W 3897   5.972   8.185   1.014
  379W        W 3898   2.195   7.933  11.589
  380W        W 3899   4.617   6.135   0.308
  381W        W 3900   8.435   0.205   0.212
  382W        W 3901   3.735   3.386   2.696
  383W        W 3902   2.362   8.079   1.305
  384W        W 3903   3.934   6.366   1.320
  385W        W 3904   7.121   4.675  11.053
  386W        W 3905   9.640   2.381   9.690
  387W        W 3906   4.220   0.010   8.654
  388W        W 3907   6.873   1.548   2.733
  389W        W 3908   4.910   2.740   8.458
  390W        W 3909   3.551   8.125   9.864
  391W        W 3910   9.316   7.601   1.291
  392W        W 3911   1.176   7.310   1.502
  393W        W 3912   4.041   2.866   8.536
  394W        W 3913   2.433   1.560  11.301
  395W        W 3914   8.737   4.835   0.483
  396W        W 3915   2.543   2.437   8.608
  397W        W 3916   0.592   9.592  11.549
  398W        W 3917   7.925   9.880  11.398
  399W        W 3918   1.873   2.992   9.915
  400W        W 3919   5.231   2.684  11.193
  401W        W 3920   0.398   8.653  11.161
  402W        W 3921   5.033   5.751   8.835
  403W        W 3922   2.778   8.074   2.955
  404W        W 3923   0.352   3.258   1.097
  405W        W 3924   3.852   4.619  11.085
  406W        W 3925   1.669   0.474  10.590
  407W        W 3926   6.708   4.730   8.695
  408W        W 3927   4.816   2.415   1.102
  409W        W 3928   7.965   5.123   2.511
  410W        W 3929   4.123   6.162   0.185
  411W        W 3930   8.474   2.105   9.254
  412W        W 3931   6.025   7.415   3.603
  413W        W 3932   5.564   7.348  10.232
  414W        W 3933   2.733   6.637   9.016
  415W        W 3934   8.026   2.392  11.960
  416W        W 3935   3.177   3.154   9.551
  417W        W 3936   5.084   4.496   0.370
  418W        W 3937   8.794   1.640   1.240
  419W        W 3938   0.292   4.564   3.191
  420W        W 3939   1.872   5.365   2.721
  421W        W 3940   2.885   2.566   0.731
  422W        W 3941   3.675   3.976   9.027
  423W        W 3942   0.391   5.605   9.496
  424W        W 3943   4.232   2.861   2.596
  425W        W 3944   1.783   2.524   0.125
  426W        W 3945   5.467   0.117   9.205
  427W        W 3946   1.892   4.244   8.845
  428W        W 3947   2.974   7.702   3.315
  429W        W 3948   3.285   8.570   9.085
  430W        W 3949   6.564   5.157   8.431
  431W        W 3950   9.386   2.875   3.692
  432W        W 3951   9.790   7.780   0.675
  433W        W 3952   3.053   2.220   2.057
  434W        W 3953   0.466   7.469  11.858
  435W        W 3954   8.347   0.699   8.972
  436W        W 3955   4.951   3.571   0.309
  437W        W 3956   8.815   8.983  11.171
  438W        W 3957   4.201   9.955   3.193
  439W        W 3958   6.296   7.584   2.594
  440W        W 3959   3.567   3.651   1.214
  441W        W 3960   2.108   7.423   1.976
  442W        W 3961   6.178   1.463   1.850
  443W        W 3962   8.129   7.385   9.703
  444W        W 3963   9.700   2.947   0.929
  445W        W 3964   2.880   0.936   2.805
  446W        W 3965   8.030   5.546  11.458
  447W        W 3966   7.145   6.769   0.828
  448W        W 3967   9.202   7.406  11.497
  449W        W 3968   7.966   1.653   0.844
  450W        W 3969   6.880   9.545   0.175
  451W        W 3970   0.717   6.611   0.014
  452W        W 3971   4.236   2.052   0.886
  453W        W 3972   8.477   1.263   2.922
  454W        W 3973   2.254   8.074   2.326
  455W        W 3974   1.796   4.917   8.221
  456W        W 3975   9.804   3.637   3.104
  457W        W 3976   6.482   8.346  10.751
  458W        W 3977   4.000   6.205   0.822
  459W        W 3978   4.063   5.116   1.579
  460W        W 3979   8.499   4.635  10.087
  461W        W 3980   8.341   3.620   9.115
  462W        W 3981   3.283   1.993   0.897
  463W        W 3982   5.470   7.487  11.622
  464W        W 3983   0.844   4.494   9.215
  465W        W 3984   6.953   1.283  11.896
  466W        W 3985   0.538   4.434   0.920
  467W        W 3986   9.553   1.876   9.536
  468W        W 3987   8.921   7.046  10.434
  469W        W 3988   0.011   1.229   8.948
  470W        W 3989   5.187   3.515  11.877
  471W        W 3990   9.056   9.097   8.958
  472W        W 3991   3.196   7.367  11.514
  473W        W 3992   1.400   1.380  11.405
  474W        W 3993   1.796   5.974   3.295
  475W        W 3994   4.468   4.562   2.829
  476W        W 3995   9.398   7.699   9.945
  477W        W 3996   9.834   6.070   8.949
  478W        W 3997   6.615   2.135  10.384
  479W        W 3998   7.108   7.965  11.281
  480W        W 3999   7.546   2.582  11.877
  481W        W 4000   6.670   4.258   3.642
  482W        W 4001   7.289   5.606   2.632
  483W        W 4002   4.156   5.731   0.992
  484W        W 4003   0.535   2.723  10.753
  485W        W 4004   6.135   3.194   0.724
  486W        W 4005   8.595   1.089   0.074
  487W        W 4006   6.492   6.850   2.046
  488W        W 4007   6.657   9.756   0.923
  489W        W 4008   8.570   0.590  10.510
  490W        W 4009   0.754   8.417   8.943
  491W        W 4010   1.633   1.471   1.793
  492W        W 4011   5.439   6.623  11.331
  493W        W 4012   5.258   2.981   1.660
  494W        W 4013   6.672   0.023   9.946
  495W        W 4014   3.962   7.956   0.231
  496W        W 4015   4.136   1.679  11.638
  497W        W 4016   7.301   0.349   9.192
  498W        W 4017   6.951   4.163   9.345
  499W        W 4018   3.863   1.755   1.395
  500W        W 4019   2.285   4.630   8.721
  501W        W 4020   2.903   4.170  10.567
  502W        W 4021   5.460   5.194  11.804
  503W        W 4022   2.890   1.144   0.014
  504W        W 4023   9.529   5.092   9.144
  505W        W 4024   4.901   4.202  10.512
  506W        W 4025   4.146   1.530  10.759
  507W        W 4026   2.568   3.963   0.874
  508W        W 4027   3.751   8.812  11.944
  509W        W 4028   6.304   6.142   9.810
  510W        W 4029   9.744   4.562   3.123
  511W        W 4030   4.724   4.907   2.575
  512W        W 4031   2.977   0.793   0.425
  513W        W 4032   4.950   3.574   3.623
  514W        W 4033   8.323   3.954   1.837
  515W        W 4034   1.569   5.017   2.981
  516W        W 4035   2.960   1.378   2.292
  517W        W 4036   9.145   0.833   1.568
  518W        W 4037   2.492   5.301   0.720
  519W        W 4038   3.161   7.506   8.892
  520W        W 4039   3.322   2.085  11.936
  521W        W 4040   8.877   6.369   1.577
  522W        W 4041   0.424   5.419   1.658
  523W        W 4042   8.451   9.807  11.131
  524W        W 4043   3.213   0.982  10.868
  525W        W 4044   6.885   2.572   3.047
  526W        W 4045   4.551   5.616  10.533
  527W        W 4046   3.634   5.434   8.923
  528W        W 4047   1.367   1.634   3.512
  529W        W 4048   0.322   9.702   0.005
  530W        W 4049   5.066   2.969  10.205
  531W        W 4050   5.932   2.423   3.522
  532W        W 4051   9.538   9.798   8.848
  533W        W 4052   9.222   3.758   9.332
  534W        W 4053   7.343   7.209  11.923
  535W        W 4054   2.313   7.454   3.368
  536W        W 4055   1.233   6.444  11.401
  537W        W 4056   0.537   0.281   9.913
  538W        W 4057   1.274   5.375  11.678
  539W        W 4058   5.598   8.640   0.185
  540W        W 4059   4.076   3.797   8.393
  541W        W 4060   1.363   3.581   1.523
  542W        W 4061   1.407   8.719   3.565
  543W        W 4062   2.498   5.407   4.255
  544W        W 4063   2.695   2.677  10.794
  545W        W 4064   8.408   2.672   1.643
  546W        W 4065   6.148   6.383   1.348
  547W        W 4066   6.770   5.748   1.328
  548W        W 4067   4.964   9.600   1.738
  549W        W 4068   8.060   0.185  11.856
  550W        W 4069   7.959   9.679   0.978
  551W        W 4070   1.463   3.526  11.012
  552W        W 4071   1.757   3.271   1.984
  553W        W 4072   7.606   2.314   1.288
  554W        W 4073   7.199   5.561   2.140
  555W        W 4074   9.660   5.330   1.963
  556W        W 4075   1.688   2.769  11.688
  557W        W 4076   8.503   1.490  10.014
  558W        W 4077   3.689   8.844   2.119
  559W        W 4078   5.066   8.050   0.107
  560W        W 4079   7.623   4.653   1.311
  561W        W 4080   2.417   7.006   2.061
  562W        W 4081   7.030   0.647   0.792
  563W        W 4082   5.939   9.960  10.430
  564W        W 4083   8.128   5.128   9.064
  565W        W 4084   5.830   7.566   9.828
  566W        W 4085   0.956   9.517   1.875
  567W        W 4086   1.946   3.113   2.887
  568W        W 4087   9.490   3.409   9.731
  569W        W 4088   6.595   8.856   1.203
  570W        W 4089   7.754   6.175   2.012
  571W        W 4090   5.087   6.939   1.509
  572W        W 4091   0.468   0.783   9.840
  573W        W 4092   4.510   3.345   3.788
  574W        W 4093   1.336   6.090   2.557
  575W        W 4094   6.979   4.524   1.818
  576W        W 4095   9.586   2.970  11.056
  577W        W 4096   1.138   4.615   9.627
  578W        W 4097   0.341   9.591  11.083
  579W        W 4098   6.563   4.349   9.042
  580W        W 4099   4.311   1.142   2.444
  581W        W 4100   9.489   2.944   1.455
  582W        W 4101   9.729   9.384   1.279
  583W        W 4102   9.629   6.099  11.057
  584W        W 4103   0.263   0.503  11.749
  585W        W 4104   6.942   5.097  11.266
  586W        W 4105   4.961   2.326   2.109
  587W        W 4106   1.393   6.423   1.484
  588W        W 4107   5.761   0.182   9.944
  589W        W 4108   6.064   0.911   2.806
  590W        W 4109   5.086   3.203  11.492
  591W        W 4110   8.202   7.209  11.507
  592W        W 4111   1.665   4.552   2.728
  593W        W 4112   3.675   6.342   2.245
  594W        W 4113   2.265   2.426  11.066
  595W        W 4114   9.000   4.704   0.918
  596W        W 4115   6.431   5.114   4.015
  597W        W 4116   1.211   5.292   8.479
  598W        W 4117   3.625   7.293  10.377
  599W        W 4118   2.845   0.895   1.750
  600W        W 4119   8.401   2.168   2.510
  601W        W 4120   2.244   8.822   0.726
  602W        W 4121   9.935   6.191   1.917
  603W        W 4122   5.793   5.922   1.296
  604W        W 4123   7.062   3.774   3.262
  605W        W 4124   4.738   3.164   3.355
  606W        W 4125   4.282   2.750   1.929
  607W        W 4126   9.999   4.653  10.475
  608W        W 4127   3.260   5.531   0.881
  609W        W 4128   4.178   0.537   8.648
  610W        W 4129   0.435   4.182   2.866
  611W        W 4130   0.841   4.281  11.730
  612W        W 4131   1.668   2.260  11.448
  613W        W 4132   1.206   8.034  11.237
  614W        W 4133   3.969   0.342  10.931
  615W        W 4134   5.683   7.830   2.764
  616W        W 4135   0.199   0.051   2.191
  617W        W 4136   1.275   1.194   2.027
  618W        W 4137   2.142   3.735  10.412
  619W        W 4138   8.414   2.925   2.103
  620W        W 4139   5.524   5.704   3.239
  621W        W 4140   8.280   8.469  10.616
  622W        W 4141   6.425   2.486   3.274
  623W        W 4142   9.916   5.734   1.008
  624W        W 4143   6.749   1.847  11.045
  625W        W 4144   5.372   2.057   1.999
  626W        W 4145   5.872   5.945   9.987
  627W        W 4146   7.593   8.253   9.386
  628W        W 4147   2.202   6.015   9.225
  629W        W 4148   7.282   0.749  11.796
  630W        W 4149   4.979   4.036   1.943
  631W        W 4150   3.834   5.521   0.137
  632W        W 4151   8.057   5.015   3.033
  633W        W 4152   7.165   0.002  10.985
  634W        W 4153   6.191   6.967   3.191
  635W        W 4154   5.031   7.447  10.274
  636W        W 4155   0.768   7.393   0.691
  637W        W 4156   9.433   9.980  10.803
  638W        W 4157   8.008   1.156  10.133
  639W        W 4158   5.280   6.862   3.666
  640W        W 4159   4.736   3.852   9.892
  641W        W 4160   5.264   5.471   0.699
  642W        W 4161   7.429   1.225  11.019
  643W        W 4162   2.096   7.982   0.470
  644W        W 4163   9.864   1.500  10.524
  645W        W 4164   5.285   0.993   1.859
  646W        W 4165   2.922   8.289  10.938
  647W        W 4166   6.125   8.539  10.413
  648W        W 4167   0.024   9.418   9.542
  649W        W 4168   9.345   6.077   0.738
  650W        W 4169   7.028   0.905   1.232
  651W        W 4170   4.680   4.586   1.217
  652W        W 4171   8.360   2.029   3.008
  653W        W 4172   9.468   8.482   9.736
  654W        W 4173   1.752   3.644   0.257
  655W        W 4174   7.192   3.524  11.993
  656W        W 4175   6.947   0.445   0.332
  657W        W 4176   4.228   3.504  11.960
  658W        W 4177   9.324   3.576   0.295
  659W        W 4178   8.748   6.636   9.180
  660W        W 4179   3.654   5.441   1.261
  661W        W 4180   2.911   9.351   3.227
  662W        W 4181   9.714   1.880   9.027
  663W        W 4182   2.323   7.651  11.050
  664W        W 4183   6.997   5.168   3.899
  665W        W 4184   5.540   9.435   1.154
  666W        W 4185   9.235   3.269   1.774
  667W        W 4186   4.535   6.030   3.136
  668W        W 4187   0.359   7.086   9.749
  669W        W 4188   1.945   6.380   1.693
  670W        W 4189   2.042   0.398  10.964
  671W        W 4190   2.695   0.386   1.175
  672W        W 4191   3.843   2.937  11.248
  673W        W 4192   5.678   9.106   9.234
  674W        W 4193   5.513   7.217   0.430
  675W        W 4194   8.049   6.654  11.861
  676W        W 4195   6.049   7.569  10.322
  677W        W 4196   7.635   6.113   0.253
  678W        W 4197   3.013   1.302   3.571
  679W        W 4198   6.578   1.500   0.886
  680W        W 4199   3.610   3.322   3.718
  681W        W 4200   9.469   5.322   1.426
  682W        W 4201   3.611   0.745   1.301
  683W        W 4202   5.022   2.356   1.590
  684W        W 4203   5.721   7.135   3.156
  685W        W 4204   9.885   0.852  11.760
  686W        W 4205   5.217   7.514   0.082
  687W        W 4206   6.543   5.536   9.249
  688W        W 4207   2.326   9.099   0.277
  689W        W 4208   2.178   5.518  11.684
  690W        W 4209   8.804   9.070   2.792
  691W        W 4210   6.780   4.479  10.045
  692W        W 4211   4.051   9.228   2.802
  693W        W 4212   8.410   8.493   3.273
  694W        W 4213   2.235   7.565   2.448
  695W        W 4214   6.397   2.199  10.940
  696W        W 4215   4.249   1.431  10.239
  697W        W 4216   6.380   1.536   2.869
  698W        W 4217   4.621   0.746   1.176
  699W        W 4218   4.152   9.814   1.407
  700W        W 4219   5.433   7.058  11.933
  701W        W 4220   5.151   2.806  10.689
  702W        W 4221   0.087   9.564  11.545
  703W        W 4222   7.953   5.085   0.015
  704W        W 4223   4.242   5.102   2.696
  705W        W 4224   4.466   6.625   3.156
  706W        W 4225   3.903   3.935  10.368
  707W        W 4226   3.976   4.574   4.021
  708W        W 4227   0.877   9.890   9.745
  709W        W 4228   9.426   1.337   0.308
  710W        W 4229   9.785   3.822   0.642
  711W        W 4230   2.747   0.049  10.521
  712W        W 4231   3.200   4.916   8.146
  713W        W 4232   9.992   6.962   9.015
  714W        W 4233   2.378   8.363   9.048
  715W        W 4234   8.768   7.932   3.410
  716W        W 4235   4.235   3.854  11.593
  717W        W 4236   9.370   7.005  10.684
  718W        W 4237   5.682   6.517   1.140
  719W        W 4238   3.400   5.417   0.398
  720W        W 4239   5.623   7.833  10.404
  721W        W 4240   8.941   7.470   2.349
  722W        W 4241   8.529   4.823   3.086
  723W        W 4242   9.844   1.523   3.111
  724W        W 4243   2.835   1.461  11.617
  725W        W 4244   7.675   3.152   3.158
  726W        W 4245   5.110   5.452   3.081
  727W        W 4246   4.451   0.076   2.430
  728W        W 4247   9.449   0.212   9.721
  729W        W 4248   9.756   2.383  10.881
  730W        W 4249   7.619   5.294  11.665
  731W        W 4250   3.128   6.913   1.211
  732W        W 4251   8.863   6.254   0.821
  733W        W 4252   5.116   2.028   1.194
  734W        W 4253   4.249   5.748   3.438
  735W        W 4254   6.697   1.169   3.092
  736W        W 4255   3.831   4.611   0.056
  737W        W 4256   8.394   3.830   2.334
  738W        W 4257   8.141   5.884   1.140
  739W        W 4258   4.465   2.585   1.449
  740W        W 4259   7.189   7.277   0.783
  741W        W 4260   3.857   3.627   9.856
  742W        W 4261   8.955   4.616   0.046
  743W        W 4262   3.585   7.873  10.336
  744W        W 4263   4.029   8.250   1.527
  745W        W 4264   9.034   8.321   2.122
  746W        W 4265   7.529   8.938  10.502
  747W        W 4266   9.063   4.197   0.879
  748W        W 4267   0.325   2.906   3.575
  749W        W 4268   4.787   2.773  11.427
  750W        W 4269   1.758   0.709   2.253
  751W        W 4270   7.812   1.236  10.629
  752W        W 4271   2.798   3.379   2.981
  753W        W 4272   4.107   0.856  11.034
  754W        W 4273   2.794   8.031   1.607
  755W        W 4274   3.677   4.476   9.353
  756W        W 4275   7.540   4.399   3.100
  757W        W 4276   7.882   4.660   0.316
  758W        W 4277   9.793   7.676   2.008
  759W        W 4278   8.366   4.578  11.462
  760W        W 4279   1.508   0.557   9.396
  761W        W 4280   5.119   2.773   2.701
  762W        W 4281   8.697   6.110  11.946
  763W        W 4282   0.083   5.616   9.057
  764W        W 4283   8.947   7.042   9.463
  765W        W 4284   3.289   9.228   1.412
  766W        W 4285   0.427   6.613   9.913
  767W        W 4286   4.619   5.758   2.213
  768W        W 4287   7.882   1.859   1.331
  769W        W 4288   3.215   3.553  11.922
  770W        W 4289   7.092   6.456   8.304
  771W        W 4290   2.350   2.119  10.110
  772W        W 4291   6.972   6.350   8.794
  773W        W 4292   5.018   9.862   9.185
  774W        W 4293   2.317   1.910  10.913
  775W        W 4294   8.800   6.228  10.573
  776W        W 4295   7.355   3.207   2.731
  777W        W 4296   5.178   3.941  10.152
  778W        W 4297   2.621   7.988  11.287
  779W        W 4298   5.891   2.265  11.027
  780W        W 4299   9.173   9.306  11.511
  781W        W 4300   7.155   6.536   3.954
  782W        W 4301   8.470   7.930  11.039
  783W        W 4302   9.878   1.279  10.062
  784W        W 4303   1.667   3.753   0.771
  785W        W 4304   0.916   8.896   3.571
  786W        W 4305   2.020   3.290   3.376
  787W        W 4306   9.519   8.135   2.018
  788W        W 4307   9.399   4.852  11.811
  789W        W 4308   3.084   3.755   0.946
  790W        W 4309   2.246   3.788   1.877
  791W        W 4310   8.336   8.793   0.198
  792W        W 4311   5.148   8.727  10.934
  793W        W 4312   6.207   9.882   0.278
  794W        W 4313   5.894   1.637   8.473
  795W        W 4314   2.752   4.387   2.120
  796W        W 4315   2.746   2.076   0.933
  797W        W 4316   0.339   6.203   3.219
  798W        W 4317   6.561   9.277   2.411
  799W        W 4318   9.609   7.525  11.780
  800W        W 4319   4.174   8.883   8.737
  801W        W 4320   2.918   0.436   9.342
  802W        W 4321   8.727   6.423  11.225
  803W        W 4322   2.715   3.704  10.654
  804W        W 4323   5.416   0.854  11.070
  805W        W 4324   5.624   1.666   2.307
  806W        W 4325   5.154   8.871  10.438
  807W        W 4326   1.401   0.273   8.949
  808W        W 4327   5.975   8.048   3.148
  809W        W 4328   6.969   2.571   9.798
  810W        W 4329   3.526   4.548   3.746
  811W        W 4330   3.820   1.430   8.675
  812W        W 4331   9.892   6.837   9.970
  813W        W 4332   3.910   8.052   9.077
  814W        W 4333   6.822   2.794  10.219
  815W        W 4334   1.826   5.667   9.568
  816W        W 4335   8.875   0.834   8.970
  817W        W 4336   0.478   1.655   9.850
  818W        W 4337   3.304   8.435  10.617
  819W        W 4338   4.764   7.502   2.312
  820W        W 4339   3.833   9.789  11.817
  821W        W 4340   2.687   3.620   0.070
  822W        W 4341   5.075   6.358   0.240
  823W        W 4342   3.502   0.619   2.221
  824W        W 4343   5.207   5.691   1.183
  825W        W 4344   8.269   4.331   2.346
  826W        W 4345   6.687   8.524   1.832
  827W        W 4346   3.343   9.305   8.616
  828W        W 4347   7.234   1.971   1.454
  829W        W 4348   3.748   9.016   1.626
  830W        W 4349   8.953   9.915  10.946
  831W        W 4350   3.182   8.280   3.197
  832W        W 4351   0.004   1.749   2.676
  833W        W 4352   6.827   5.884   8.957
  834W        W 4353   0.325   0.025  11.606
  835W        W 4354   4.905   1.872   1.817
  836W        W 4355   6.588   8.758  10.445
  837W        W 4356   1.167   0.379  10.723
  838W        W 4357   6.426   2.749  10.515
  839W        W 4358   2.759   9.217  10.649
  840W        W 4359   6.259   3.693   0.771
  841W        W 4360   0.455   1.350  11.274
  842W        W 4361   4.554   9.208   2.772
  843W        W 4362   6.380   9.291   2.962
  844W        W 4363   5.860   4.622  10.465
  845W        W 4364   9.642   1.759   0.110
  846W        W 4365   6.104   9.060  11.162
  847W        W 4366   2.203   3.853   9.018
  848W        W 4367   7.627   2.561  11.363
  849W        W 4368   2.694   6.920   2.804
  850W        W 4369   1.357   3.830   9.287
  851W        W 4370   0.859   2.894  11.508
  852W        W 4371   2.123   0.991   0.813
  853W        W 4372   6.192   5.932   1.656
  854W        W 4373   0.626   2.825   9.543
  855W        W 4374   4.237   2.804   9.552
  856W        W 4375   9.663   0.556   3.563
  857W        W 4376   7.956   7.399   0.393
  858W        W 4377   9.436   8.620  10.248
  859W        W 4378   5.259   5.528   0.166
  860W        W 4379   2.731   3.356   9.704
  861W        W 4380   8.589   3.422   3.296
  862W        W 4381   8.290   1.973   1.693
  863W        W 4382   4.038   8.525   3.876
  864W        W 4383   8.304   3.227  11.449
  865W        W 4384   9.550   3.054   0.269
  866W        W 4385   3.943   2.409  11.265
  867W        W 4386   8.041   5.993   9.568
  868W        W 4387   3.366   4.248   4.151
  869W        W 4388   7.396   4.799   0.423
  870W        W 4389   5.200   2.273   0.178
  871W        W 4390   3.889   7.879   9.568
  872W        W 4391   7.807   1.646  10.293
  873W        W 4392   0.963   9.242   9.552
  874W        W 4393   4.991   6.020   8.398
  875W        W 4394   9.472   1.577   9.960
  876W        W 4395   6.580   2.419   0.921
  877W        W 4396   7.107   6.601   1.320
  878W        W 4397   7.581   3.778   1.976
  879W        W 4398   9.091   9.766  10.433
  880W        W 4399   9.927   4.761   0.899
  881W        W 4400   2.151   9.637   2.141
  882W        W 4401   0.365   4.556   1.788
  883W        W 4402   7.277   2.164   3.225
  884W        W 4403   2.173   3.013  11.447
  885W        W 4404   7.798   3.662   9.562
  886W        W 4405   1.352   9.483   2.620
  887W        W 4406   6.376   6.019   4.115
  888W        W 4407   8.632   5.064  10.375
  889W        W 4408   9.038   4.309  10.639
  890W        W 4409   4.520   7.682  11.363
  891W        W 4410   6.490   1.124   2.617
  892W        W 4411   7.971   0.206   0.974
  893W        W 4412   8.386   3.642  10.217
  894W        W 4413   8.979   4.708  10.273
  895W        W 4414   3.202   6.674  10.878
  896W        W 4415   6.512   7.267   3.493
  897W        W 4416   9.293   2.571  10.826
  898W        W 4417   9.952   9.826   9.235
  899W        W 4418   0.688   4.654  10.880
  900W        W 4419   4.203   4.312  10.624
  901W        W 4420   4.720   2.293   9.016
  902W        W 4421   0.277   3.933   2.240
  903W        W 4422   7.096   2.788  10.663
  904W        W 4423   1.787   6.176   1.231
  905W        W 4424   0.184   5.452   8.375
  906W        W 4425   2.478   3.172   0.207
  907W        W 4426   4.847   6.670   1.977
  908W        W 4427   1.507   8.601   2.789
  909W        W 4428   5.124   0.974   3.320
  910W        W 4429   0.775   7.960   0.021
  911W        W 4430   9.245   7.584   2.790
  912W        W 4431   6.558   7.216   2.948
  913W        W 4432   5.035   4.021  11.979
  914W        W 4433   2.987   7.437   2.843
  915W        W 4434   6.879   3.069   2.835
  916W        W 4435   7.580   1.210   0.500
  917W        W 4436   7.701   9.980   0.379
  918W        W 4437   3.253   7.862   2.898
  919W        W 4438   4.186   6.807   1.424
  920W        W 4439   6.053   3.337   9.188
  921W        W 4440   2.544   8.726   2.399
  922W        W 4441   0.938   7.594  11.679
  923W        W 4442   5.200   8.872   9.103
  924W        W 4443   1.023   5.666  10.887
  925W        W 4444   4.474   4.078   1.953
  926W        W 4445   6.097   5.232   9.265
  927W        W 4446   3.814   9.846   1.016
  928W        W 4447   5.604   0.623   0.768
  929W        W 4448   0.596   7.443  10.900
  930W        W 4449   6.677   9.960   0.463
  931W        W 4450   6.691   0.242   3.589
  932W        W 4451   6.193   4.190   8.267
  933W        W 4452   6.471   4.610   0.488
  934W        W 4453   0.538   3.530  11.763
  935W        W 4454   2.591   0.712   0.784
  936W        W 4455   1.978   2.661   9.555
  937W        W 4456   0.174   0.569  10.738
  938W        W 4457   3.402   2.101   3.561
  939W        W 4458   5.716   2.090  10.444
  940W        W 4459   9.992   2.159  11.475
  941W        W 4460   9.701   1.433   8.595
  942W        W 4461   3.263   3.652  11.054
  943W        W 4462   1.232   3.823   1.968
  944W        W 4463   4.753   2.818   0.807
  945W        W 4464   5.008   9.826   1.262
  946W        W 4465   3.997   3.410  10.412
  947W        W 4466   2.568   3.346  11.601
  948W        W 4467   0.117   6.492   8.862
  949W        W 4468   3.331   1.388  10.017
  950W        W 4469   5.316   6.444   0.747
  951W        W 4470   9.399   2.598  11.347
  952W        W 4471   9.629   7.024   3.529
  953W        W 4472   1.704   2.192   2.385
  954W        W 4473   3.271   3.064   2.381
  955W        W 4474   5.721   1.903   2.773
  956W        W 4475   0.357   0.940   3.363
  957W        W 4476   4.679   5.431   2.720
  958W        W 4477   4.361   7.682   1.091
  959W        W 4478   6.161   7.203  11.428
  960W        W 4479   8.646   2.402   9.649
  961W        W 4480   1.401   9.330   9.810
  962W        W 4481   4.954   9.387  10.490
  963W        W 4482   5.866   0.907   1.764
  964W        W 4483   6.569   3.780   3.495
  965W        W 4484   2.746   0.862  10.627
  966W        W 4485   1.880   6.986   0.856
  967W        W 4486   3.182   7.064   2.544
  968W        W 4487   9.824   4.342   1.292
  969W        W 4488   8.498   4.683   1.404
  970W        W 4489   2.253   1.323  10.897
  971W        W 4490   5.788   5.026   1.332
  972W        W 4491   7.555   6.352   1.570
  973W        W 4492   0.639   5.806   3.147
  974W        W 4493   2.886   0.654  11.072
  975W        W 4494   4.124   1.375   1.626
  976W        W 4495   7.336   6.200   9.549
  977W        W 4496   8.979   6.224   2.681
  978W        W 4497   0.549   7.690   3.164
  979W        W 4498   9.790   0.338   2.188
  980W        W 4499   1.950   9.907  11.994
  981W        W 4500   2.224   5.032   1.893
  982W        W 4501   9.196   7.298   3.464
  983W        W 4502   5.813   6.726   2.821
  984W        W 4503   1.713   2.291   1.431
  985W        W 4504   1.661   5.198   1.095
  986W        W 4505   7.438   2.996  11.552
  987W        W 4506   9.412   5.757   1.138
  988W        W 4507   0.794   7.880   8.846
  989W        W 4508   1.769   5.245  11.786
  990W        W 4509   3.253   8.252   0.450
  991W        W 4510   3.029   7.794  11.034
  992W        W 4511   9.576   5.036  10.425
  993W        W 4512   1.839   8.196   2.944
  994W        W 4513   6.087   1.429   2.357
  995W        W 4514   3.347   3.851  11.521
  996W        W 4515   8.847   3.309  10.486
  997W        W 4516   2.903   2.882   3.108
  998W        W 4517   3.094   9.450   2.377
  999W        W 4518   2.771   1.237  11.005
 1000W        W 4519   1.307   3.311   9.311
 1001W        W 4520   7.005   7.992   0.185
 1002W        W 4521   2.398   8.950  11.345
 1003W        W 4522   3.062   6.620   9.879
 1004W        W 4523   6.660   1.308   1.716
 1005W        W 4524   6.954   4.264   2.297
 1006W        W 4525   9.890   8.269   0.834
 1007W        W 4526   5.101   3.757   8.649
 1008W        W 4527   2.085   1.801   0.398
 1009W        W 4528   4.264   8.423   8.958
 1010W        W 4529   7.877   1.751   3.777
 1011W        W 4530   0.630   0.773   1.160
 1012W        W 4531   6.054   8.514   8.817
 1013W        W 4532   3.162   8.543   2.581
 1014W        W 4533   2.982   1.853   0.496
 1015W        W 4534   9.343   7.916   0.020
 1016W        W 4535   9.940   8.432  11.540
 1017W        W 4536   5.712   8.078   1.799
 1018W        W 4537   1.277   4.055  11.489
 1019W        W 4538   9.110   5.205  10.296
 1020W        W 4539   1.288   0.231   2.575
 1021W        W 4540   2.388   6.671   1.697
 1022W        W 4541   4.107   1.865  11.169
 1023W        W 4542   3.994   8.011   3.418
 1024W        W 4543   8.415   1.202   0.536
 1025W        W 4544   9.837   4.580  11.773
 1026W        W 4545   5.667   0.771  11.906
 1027W        W 4546   3.963   4.861   8.804
 1028W        W 4547   6.438   4.734   2.879
 1029W        W 4548   6.121   5.251   3.619
 1030W        W 4549   8.951   6.465   9.627
 1031W        W 4550   9.063   8.572  10.962
 1032W        W 4551   2.784   2.708   0.206
 1033W        W 4552   9.392   4.711   2.770
 1034W        W 4553   8.627   6.068   1.238
 1035W        W 4554   3.013   6.845  11.438
 1036W        W 4555   7.953   2.770   2.922
 1037W        W 4556   2.158   4.547   1.327
 1038W        W 4557   5.547   3.193   0.046
 1039W        W 4558   5.549   2.263   0.540
 1040W        W 4559   9.819   5.253   0.964
 1041W        W 4560   1.113   5.578   3.216
 1042W        W 4561   6.052   3.489  11.374
 1043W        W 4562   2.225   2.848   9.135
 1044W        W 4563   5.491   4.407  10.757
 1045W        W 4564   4.652   8.261   8.670
 1046W        W 4565   0.766   8.581   1.821
 1047W        W 4566   8.718   9.953   2.027
 1048W        W 4567   1.248   9.989   0.820
 1049W        W 4568   3.561   2.042  11.296
 1050W        W 4569   5.560   5.196   3.118
 1051W        W 4570   4.146   8.623  11.154
 1052W        W 4571   6.800   9.381   1.960
 1053W        W 4572   3.437   2.607   0.618
 1054W        W 4573   0.216   4.321  11.510
 1055W        W 4574   5.151   7.996   2.081
 1056W        W 4575   7.540   7.560   2.336
 1057W        W 4576   7.847   0.638   0.739
 1058W        W 4577   4.113   4.321   2.199
 1059W        W 4578   4.266   3.658   1.703
 1060W        W 4579   4.135   9.918  10.639
 1061W        W 4580   7.872   2.979  10.237
 1062W        W 4581   3.166   9.088   9.804
 1063W        W 4582   6.874   6.947   3.282
 1064W        W 4583   8.265   6.395  11.003
 1065W        W 4584   9.369   4.089   0.496
 1066W        W 4585   5.315   4.423  10.281
 1067W        W 4586   7.054   9.539   0.647
 1068W        W 4587   3.839   9.274   2.342
 1069W        W 4588   3.560   1.863   8.681
 1070W        W 4589   9.838   3.897  11.086
 1071W        W 4590   4.893   5.366  11.854
 1072W        W 4591   6.978   8.605  10.789
 1073W        W 4592   9.699   3.903   0.137
 1074W        W 4593   4.213   2.694  10.901
 1075W        W 4594   1.215   6.700  10.576
 1076W        W 4595   0.965   3.271   0.437
 1077W        W 4596   1.716   8.475  11.805
 1078W        W 4597   1.298   9.718   9.523
 1079W        W 4598   5.632   8.969   0.925
 1080W        W 4599   0.186   7.274  11.175
 1081W        W 4600   0.218   5.915  11.744
 1082W        W 4601   7.564   4.690   1.826
 1083W        W 4602   9.774   5.626  11.792
 1084W        W 4603   4.499   2.258  11.636
 1085W        W 4604   8.275   4.642  10.988
 1086W        W 4605   3.480   5.924   2.971
 1087W        W 4606   4.230   6.881   9.730
 1088W        W 4607   5.169   0.579  11.448
 1089W        W 4608   1.045   1.548   1.717
 1090W        W 4609   5.324   1.190   9.250
 1091W        W 4610   6.775   8.334  11.170
 1092W        W 4611   1.890   2.262   9.902
 1093W        W 4612   8.877   5.708  10.440
 1094W        W 4613   7.118   3.550   0.899
 1095W        W 4614   9.462   8.390  10.706
 1096W        W 4615   8.023   4.999  11.485
 1097W        W 4616   5.602   0.673  10.072
 1098W        W 4617   2.379   3.605   3.197
 1099W        W 4618   7.643   3.903  10.807
 1100W        W 4619   6.163   4.726   9.513
 1101W        W 4620   9.316   9.505   0.893
 1102W        W 4621   4.706   8.638  10.459
 1103W        W 4622   6.990   8.076   2.765
 1104W        W 4623   9.777   7.358   1.048
 1105W        W 4624   6.955   5.320   0.229
 1106W        W 4625   0.663   6.563   2.144
 1107W        W 4626   3.730   2.461   2.735
 1108W        W 4627   7.524   1.555   1.524
 1109W        W 4628   1.943   9.559   3.333
 1110W        W 4629   3.640   8.491   1.748
 1111W        W 4630   3.765   4.178  10.830
 1112W        W 4631   3.703   8.863   2.637
 1113W        W 4632   6.513   6.565   3.179
 1114W        W 4633   8.899   6.482  11.701
 1115W        W 4634   0.394   8.502   9.330
 1116W        W 4635   3.178   9.878   2.679
 1117W        W 4636   0.552   0.450   3.296
 1118W        W 4637   1.142   8.851   0.353
 1119W        W 4638   8.502   5.443  10.744
 1120W        W 4639   6.034   5.594   3.239
 1121W        W 4640   3.689   9.577   9.004
 1122W        W 4641   0.831   8.794  11.461
 1123W        W 4642   4.216   0.630  10.557
 1124W        W 4643   2.048   6.491  11.408
 1125W        W 4644   1.050   4.975  10.520
 1126W        W 4645   6.457   8.140  11.508
 1127W        W 4646   3.772   5.933  10.729
 1128W        W 4647   9.800   4.066  11.657
 1129W        W 4648   0.583   7.594   2.679
 1130W        W 4649   3.201   7.324   0.895
 1131W        W 4650   0.067   5.429   2.912
 1132W        W 4651   1.453   2.953   0.179
 1133W        W 4652   3.724   5.962   0.447
 1134W        W 4653   8.551   8.919   9.042
 1135W        W 4654   9.746   6.502   9.224
 1136W        W 4655   9.114   5.732   2.819
 1137W        W 4656   8.481   2.750  11.474
 1138W        W 4657   6.844   4.977  10.256
 1139W        W 4658   1.643   3.496  10.539
 1140W        W 4659   8.626   3.940   0.925
 1141W        W 4660   7.405   9.461  11.725
 1142W        W 4661   0.356   2.600   9.960
 1143W        W 4662   5.508   7.040   1.179
 1144W        W 4663   8.928   1.227   3.252
 1145W        W 4664   9.937   0.107   8.797
 1146W        W 4665   4.912   3.407   1.526
 1147W        W 4666   4.863   3.073   4.080
 1148W        W 4667   3.065   6.227   2.222
 1149W        W 4668   7.949   3.938   1.406
 1150W        W 4669   3.151   3.364   1.958
 1151W        W 4670   0.627   9.777   2.183
 1152W        W 4671   1.367   9.315   2.151
 1153W        W 4672   1.184   4.581  10.833
 1154W        W 4673   2.229   9.181   3.519
 1155W        W 4674   4.765   3.727  10.390
 1156W        W 4675   2.130   7.116  10.409
 1157W        W 4676   6.267   6.453   2.336
 1158W        W 4677   1.108   7.152  10.356
 1159W        W 4678   6.886   9.526  11.668
 1160W        W 4679   8.571   7.599   9.826
 1161W        W 4680   2.821   7.931   2.100
 1162W        W 4681   6.241   3.169   1.395
 1163W        W 4682   3.011   9.304   1.887
 1164W        W 4683   4.915   2.192  10.781
 1165W        W 4684   8.952   6.693   1.149
 1166W        W 4685   1.189   6.148  10.982
 1167W        W 4686   6.500   2.689   9.570
 1168W        W 4687   1.815   5.261   9.227
 1169W        W 4688   3.240   5.121   2.276
 1170W        W 4689   6.839   7.210  11.864
 1171W        W 4690   7.412   9.866  11.410
 1172W        W 4691   0.570   6.192  10.193
 1173W        W 4692   6.091   0.048   2.601
 1174W        W 4693   9.216   3.666   0.813
 1175W        W 4694   7.548   7.651   0.166
 1176W        W 4695   3.033   2.825   1.413
 1177W        W 4696   0.764   2.626   0.806
 1178W        W 4697   3.748   6.727   8.910
 1179W        W 4698   5.538   4.548   0.600
 1180W        W 4699   3.877   4.023   0.829
 1181W        W 4700   4.648   8.222   0.360
 1182W        W 4701   9.859   9.127   0.298
 1183W        W 4702   1.936   8.695   3.037
 1184W        W 4703   8.812   3.888   3.170
 1185W        W 4704   7.699   1.474   2.896
 1186W        W 4705   4.659   3.995  11.345
 1187W        W 4706   4.887   2.216   2.591
 1188W        W 4707   3.626   3.394   2.173
 1189W        W 4708   3.259   3.111   3.390
 1190W        W 4709   9.804   1.498   3.655
 1191W        W 4710   0.398   9.442   9.159
 1192W        W 4711   2.613   0.579   2.561
 1193W        W 4712   3.102   7.577  11.965
 1194W        W 4713   2.579   6.205   1.658
 1195W        W 4714   7.223   8.952   9.645
 1196W        W 4715   5.647   8.341  10.347
 1197W        W 4716   6.905   4.634  11.517
 1198W        W 4717   8.487   3.491   0.180
 1199W        W 4718   4.486   8.308   2.713
 1200W        W 4719   3.720   8.272  11.913
 1201W        W 4720   7.106   8.698  11.820
 1202W        W 4721   7.757   9.165   8.756
 1203W        W 4722   2.097   6.536  10.059
 1204W        W 4723   3.743   8.123   0.657
 1205W        W 4724   1.643   4.648   1.291
 1206W        W 4725   1.849   1.660   8.571
 1207W        W 4726   5.279   3.199   2.419
 1208W        W 4727   3.663   6.441   7.957
 1209W        W 4728   5.182   8.003  10.185
 1210W        W 4729   9.598   3.359   0.666
 1211W        W 4730   8.165   5.380   1.844
 1212W        W 4731   1.263   0.775  10.381
 1213W        W 4732   8.738   6.490   3.424
 1214W        W 4733   8.788   3.795   9.946
 1215W        W 4734   9.451   8.018   0.994
 1216W        W 4735   6.456   6.031  11.991
 1217W        W 4736   4.122   4.903  11.433
 1218W        W 4737   0.396   6.234   2.701
 1219W        W 4738   3.591   4.078   0.286
 1220W        W 4739   0.801   2.584   9.125
 1221W        W 4740   8.643   7.430  11.914
 1222W        W 4741   8.399   1.386   1.011
 1223W        W 4742   6.016   0.053  11.296
 1224W        W 4743   2.712   9.678  10.852
 1225W        W 4744   9.136   4.221   9.086
 1226W        W 4745   9.275   7.374   8.634
 1227W        W 4746   6.331   1.705   0.322
 1228W        W 4747   6.635   1.644  10.066
 1229W        W 4748   1.053   4.175   0.201
 1230W        W 4749   2.691   0.393   1.689
 1231W        W 4750   1.843   1.293  11.886
 1232W        W 4751   8.482   7.089   2.498
 1233W        W 4752   1.448   1.795   1.467
 1234W        W 4753   8.529   4.976   1.814
 1235W        W 4754   0.485   2.943   2.362
 1236W        W 4755   9.841   8.010  11.292
 1237W        W 4756   3.492   6.312   0.775
 1238W        W 4757   4.973   0.265  11.863
 1239W        W 4758   7.861   4.508  11.369
 1240W        W 4759   4.141   7.017   0.503
 1241W        W 4760   9.031   2.409  10.421
 1242W        W 4761   6.480   9.794   2.352
 1243W        W 4762   7.483   1.928   0.982
 1244W        W 4763   0.131   2.432  10.467
 1245W        W 4764   2.148   2.451   2.486
 1246W        W 4765   5.850   6.458  10.021
 1247W        W 4766   7.374   8.823   1.403
 1248W        W 4767   2.723   1.656  10.701
 1249W        W 4768   0.720   2.582  10.316
 1250W        W 4769   9.058   1.707  10.885
 1251W        W 4770   4.948   7.024   2.355
 1252W        W 4771   5.730   6.471  11.751
 1253W        W 4772   9.064   5.538   0.332
 1254W        W 4773   6.997   7.695   1.656
 1255W        W 4774   4.582   6.822   8.426
 1256W        W 4775   5.547   3.283   9.051
 1257W        W 4776   8.873   4.950   9.373
 1258W        W 4777   7.422   0.289   1.907
 1259W        W 4778   5.625   8.885  11.068
 1260W        W 4779   3.029   6.041   2.730
 1261W        W 4780   1.658   6.749  11.990
 1262W        W 4781   7.588   3.585   2.481
 1263W        W 4782   1.998   7.865   3.347
 1264W        W 4783   9.198   6.748   3.526
 1265W        W 4784   3.207   8.959   2.277
 1266W        W 4785   8.668   8.405   0.260
 1267W        W 4786   2.627   0.879   1.275
 1268W        W 4787   4.785   8.751   2.662
 1269W        W 4788   4.024   8.051  10.958
 1270W        W 4789   2.661   6.226   9.320
 1271W        W 4790   5.490   5.845   9.065
 1272W        W 4791   0.429   9.008   9.465
 1273W        W 4792   9.108   0.907   9.425
 1274W        W 4793   7.669   6.205   3.653
 1275W        W 4794   3.843   3.863   2.163
 1276W        W 4795   0.390   5.158   2.609
 1277W        W 4796   8.973   8.497  10.445
 1278W        W 4797   9.842   0.426  11.486
 1279W        W 4798   2.745   1.330   8.905
 1280W        W 4799   2.681   8.808   9.136
 1281W        W 4800   8.671   9.455  11.413
 1282W        W 4801   8.719   0.331   9.117
 1283W        W 4802   5.573   3.171   0.550
 1284W        W 4803   8.053   7.101  10.962
 1285W        W 4804   6.208   4.489  10.843
 1286W        W 4805   9.718   8.165  10.201
 1287W        W 4806   3.052   9.044   2.770
 1288W        W 4807   1.442   1.759  11.049
 1289W        W 4808   0.406   3.373  11.283
 1290W        W 4809   9.727   1.239   0.924
 1291W        W 4810   6.933   0.417   1.273
 1292W        W 4811   2.009   5.154   3.174
 1293W        W 4812   2.121   2.316   0.463
 1294W        W 4813   4.320   9.416   8.553
 1295W        W 4814   0.272   1.495   3.400
 1296W        W 4815   1.822   5.203   9.771
 1297W        W 4816   9.996   5.123  10.709
 1298W        W 4817   6.972   2.079   1.036
 1299W        W 4818   2.237   6.532   9.156
 1300W        W 4819   3.999   4.245   2.990
 1301W        W 4820   3.831   2.118   9.043
 1302W        W 4821   0.619   7.189  10.450
 1303W        W 4822   7.490   7.178   0.387
 1304W        W 4823   8.117   3.312   9.920
 1305W        W 4824   0.234   2.925  10.366
 1306W        W 4825   5.225   0.714   2.472
 1307W        W 4826   8.966   0.171   0.934
 1308W        W 4827   3.793   8.580   9.060
 1309W        W 4828   7.144   4.024   1.797
 1310W        W 4829   2.822   1.763   1.975
 1311W        W 4830   8.391   7.192   2.995
 1312W        W 4831   7.330   9.850  10.533
 1313W        W 4832   3.794   0.599   2.662
 1314W        W 4833   9.397   0.612  11.691
 1315W        W 4834   3.152   4.921  11.637
 1316W        W 4835   4.752   3.151   8.153
 1317W        W 4836   3.301   4.061   3.687
 1318W        W 4837   6.967   3.681  10.104
 1319W        W 4838   6.453   9.023   9.948
 1320W        W 4839   9.972   6.507  10.919
 1321W        W 4840   5.086   2.694   9.765
 1322W        W 4841   7.947   8.536   3.534
 1323W        W 4842   6.922   3.357   2.389
 1324W        W 4843   3.870   7.103   3.784
 1325W        W 4844   1.782   9.627  10.527
 1326W        W 4845   6.694   1.697   1.368
 1327W        W 4846   2.160   7.452   8.855
 1328W        W 4847   4.960   9.033   0.417
 1329W        W 4848   9.852   0.390   0.587
 1330W        W 4849   8.883   7.674  11.201
 1331W        W 4850   5.620   9.816  11.498
 1332W        W 4851   5.054   3.028  11.976
 1333W        W 4852   7.628   0.670   3.239
 1334W        W 4853   4.005   3.227   1.848
 1335W        W 4854   7.399   3.054   0.058
 1336W        W 4855   0.726   0.559   9.011
 1337W        W 4856   2.559   1.349   9.390
 1338W        W 4857   9.259   1.442   9.520
 1339W        W 4858   0.819   1.797  11.740
 1340W        W 4859   7.028   9.755   9.706
 1341W        W 4860   0.275   9.920   9.626
 1342W        W 4861   6.130   8.062   9.702
 1343W        W 4862   3.234   9.045  10.757
 1344W        W 4863   1.583   0.777   1.353
 1345W        W 4864   8.475   3.547   2.796
 1346W        W 4865   1.421   7.073   9.097
 1347W        W 4866   0.652   7.465   2.186
 1348W        W 4867   8.497   3.633  11.215
 1349W        W 4868   3.508   5.511  11.677
 1350W        W 4869   2.324   3.163  10.092
 1351W        W 4870   0.851   6.350   1.462
 1352W        W 4871   3.467   5.760   9.758
 1353W        W 4872   8.958   1.354   2.771
 1354W        W 4873   2.609   8.487  11.316
 1355W        W 4874   1.819   9.321   2.410
 1356W        W 4875   4.519   2.390  10.105
 1357W        W 4876   7.854   3.177   2.643
 1358W        W 4877   2.254   3.792  10.927
 1359W        W 4878   1.413   9.324  11.874
 1360W        W 4879   7.347   7.996  11.802
 1361W        W 4880   4.711   1.386   0.208
 1362W        W 4881   7.509   8.394   1.632
 1363W        W 4882   4.114   2.897  10.414
 1364W        W 4883   5.632   4.176   1.520
 1365W        W 4884   3.684   0.366   0.729
 1366W        W 4885   1.717   0.019  10.847
 1367W        W 4886   9.019   6.965   8.891
 1368W        W 4887   1.007   4.056   9.004
 1369W        W 4888   9.423   0.404   0.888
 1370W        W 4889   6.580   8.021   2.475
 1371W        W 4890   2.138   0.373  10.452
 1372W        W 4891   5.208   8.988  11.420
 1373W        W 4892   2.922   3.803   8.446
 1374W        W 4893   1.884   5.422  10.806
 1375W        W 4894   2.312   3.552   1.407
 1376W        W 4895   4.355   4.005   0.631
 1377W        W 4896   4.026   6.031   3.046
 1378W        W 4897   9.100   4.990  11.213
 1379W        W 4898   1.960   6.992   9.062
 1380W        W 4899   6.626   5.510   2.156
 1381W        W 4900   8.539   3.782  11.703
 1382W        W 4901   7.032   1.902  10.600
 1383W        W 4902   5.799   2.660  11.343
 1384W        W 4903   7.452   8.175   2.961
 1385W        W 4904   6.249   6.161  10.305
 1386W        W 4905   6.459   5.778  11.075
 1387W        W 4906   3.083   2.165  11.457
 1388W        W 4907   4.318   7.617   3.223
 1389W        W 4908   7.700   4.615   0.798
 1390W        W 4909   6.667   4.154   1.654
 1391W        W 4910   4.019   2.330   1.800
 1392W        W 4911   4.772   9.592   2.467
 1393W        W 4912   0.978   1.225  10.396
 1394W        W 4913   4.442   7.431   1.907
 1395W        W 4914   4.934   7.998   3.894
 1396W        W 4915   9.405   9.694  11.763
 1397W        W 4916   4.691   2.315   0.628
 1398W        W 4917   5.368   3.439   1.814
 1399W        W 4918   1.213   0.953   0.491
 1400W        W 4919   8.267   5.638   2.487
 1401W        W 4920   0.014   0.229   1.718
 1402W        W 4921   3.637   6.820   2.545
 1403W        W 4922   1.369   4.590   0.330
 1404W        W 4923   2.975   4.695  10.521
 1405W        W 4924   8.725   7.242  11.447
 1406W        W 4925   0.733   2.102  11.099
 1407W        W 4926   1.155   2.941   3.117
 1408W        W 4927   1.058   8.398   9.367
 1409W        W 4928   1.864   7.053   2.238
 1410W        W 4929   4.565   4.131   9.179
 1411W        W 4930   5.977   7.184   0.896
 1412W        W 4931   9.262   5.213   2.795
 1413W        W 4932   4.108   6.376   9.629
 1414W        W 4933   2.462   1.665   1.141
 1415W        W 4934   4.292   3.744   9.603
 1416W        W 4935   5.890   9.436   3.022
 1417W        W 4936   8.475   6.574   1.329
 1418W        W 4937   1.376   7.123   9.917
 1419W        W 4938   3.125   9.535  10.036
 1420W        W 4939   4.193   0.400   9.141
 1421W        W 4940   3.264   1.126   1.357
 1422W        W 4941   3.104   6.517   9.389
 1423W        W 4942   8.913   4.630   9.770
 1424W        W 4943   2.191   0.120   0.436
 1425W        W 4944   3.267   1.766   2.733
 1426W        W 4945   0.416   4.008  11.863
 1427W        W 4946   5.484   5.737  10.257
 1428W        W 4947   8.861   7.924   0.211
 1429W        W 4948   2.551   9.937   1.341
 1430W        W 4949   5.543   4.039   3.364
 1431W        W 4950   3.490   0.854   0.762
 1432W        W 4951   0.166   3.274   3.238
 1433W        W 4952   5.521   1.206  10.680
 1434W        W 4953   7.766   7.464   1.268
 1435W        W 4954   4.722   3.906   1.534
 1436W        W 4955   4.059   8.190   9.953
 1437W        W 4956   8.619   5.369   0.632
 1438W        W 4957   5.040   4.652  10.707
 1439W        W 4958   9.745   8.619   2.836
 1440W        W 4959   9.008   5.481  11.346
 1441W        W 4960   9.992   3.085  11.975
 1442W        W 4961   2.284   1.241   1.456
 1443W        W 4962   6.890   6.832  10.213
 1444W        W 4963   7.654   8.859   1.835
 1445W        W 4964   2.034   1.292   0.386
 1446W        W 4965   1.622   2.718   3.092
 1447W        W 4966   5.841   0.484   8.918
 1448W        W 4967   7.874   0.803   1.216
 1449W        W 4968   1.864   5.696   0.407
 1450W        W 4969   1.755   9.864   8.796
 1451W        W 4970   2.276   2.100   1.352
 1452W        W 4971   4.912   2.756   8.967
 1453W        W 4972   2.209   1.689   9.883
 1454W        W 4973   9.309   3.125   2.852
 1455W        W 4974   2.663   9.486   9.801
 1456W        W 4975   6.943   5.949   2.335
 1457W        W 4976   6.396   6.786  11.033
 1458W        W 4977   8.348   2.871  10.081
 1459W        W 4978   0.159   9.137   1.143
 1460W        W 4979   8.192   9.309   9.143
 1461W        W 4980   3.705   1.620   2.474
 1462W        W 4981   3.672   9.043   9.852
 1463W        W 4982   2.045   8.702   3.537
 1464W        W 4983   3.952   9.193   3.576
 1465W        W 4984   6.084   5.925   2.549
 1466W        W 4985   7.449   6.049   2.403
 1467W        W 4986   5.677   7.057   9.824
 1468W        W 4987   1.764   1.783  10.127
 1469W        W 4988   9.774   9.862   2.009
 1470W        W 4989   7.839   1.602  11.869
 1471W        W 4990   8.579   5.566   1.114
 1472W        W 4991   4.903   2.668   0.308
 1473W        W 4992   2.578   1.973   8.853
 1474W        W 4993   6.244   5.935   0.473
 1475W        W 4994   8.451   3.123   9.031
 1476W        W 4995   6.103   5.473   0.268
 1477W        W 4996   9.306   3.742   3.162
 1478W        W 4997   3.034   1.065   0.901
 1479W        W 4998   8.575   8.404   1.912
 1480W        W 4999   8.491   0.043   9.678
 1481W        W 5000   9.438   1.414  11.268
 1482W        W 5001   6.838   0.234   9.507
 1483W        W 5002   7.186   4.776   3.556
 1484W        W 5003   1.390   1.477   1.055
 1485W        W 5004   8.498   0.325  11.661
 1486W        W 5005   2.317   6.048  10.087
 1487W        W 5006   5.790   7.284  10.683
 1488W        W 5007   2.715   8.866   0.552
 1489W        W 5008   6.645   4.134   0.349
 1490W        W 5009   3.836   4.577   1.665
 1491W        W 5010   6.942   3.425   3.657
 1492W        W 5011   3.179   4.146   9.653
 1493W        W 5012   0.909   9.357   2.370
 1494W        W 5013   7.357   6.530   2.033
 1495W        W 5014   9.296   3.179   9.315
 1496W        W 5015   7.169   6.083   3.688
 1497W        W 5016   2.231   4.981  11.538
 1498W        W 5017   6.481   4.844  11.246
 1499W        W 5018   9.443   8.981   0.574
 1500W        W 5019   5.037   6.739   8.696
 1501W        W 5020   1.221   2.869   0.678
 1502W        W 5021   7.105   2.502   1.327
 1503W        W 5022   1.007   7.416   3.028
 1504W        W 5023   8.124   3.804   0.950
 1505W        W 5024   7.557   0.764  10.828
 1506W        W 5025   8.578   9.864   3.015
 1507W        W 5026   7.705   4.697   2.323
 1508W        W 5027   9.406   0.461  10.654
 1509W        W 5028   0.016   3.017   2.165
 1510W        W 5029   8.524   2.314  10.523
 1511W        W 5030   2.940   5.169   3.152
 1512W        W 5031   4.867   6.087   1.416
 1513W        W 5032   4.050   3.887   1.284
 1514W        W 5033   3.544   3.753   8.490
 1515W        W 5034   3.660   0.017   1.495
 1516W        W 5035   8.488   7.031  10.124
 1517W        W 5036   5.082   5.284   1.844
 1518W        W 5037   3.345   0.871   1.794
 1519W        W 5038   9.500   2.423   1.716
 1520W        W 5039   8.262   6.666   9.039
 1521W        W 5040   8.854   3.063   2.646
 1522W        W 5041   1.711   6.335   2.884
 1523W        W 5042   4.957   0.663  10.961
 1524W        W 5043   8.950   7.091   0.789
 1525W        W 5044   4.006   4.343   0.468
 1526W        W 5045   1.520   6.920   3.580
 1527W        W 5046   9.198   6.076   1.855
 1528W        W 5047   1.331   6.658   0.367
 1529W        W 5048   7.444   0.919   0.884
 1530W        W 5049   9.819   3.168   2.866
 1531W        W 5050   4.065   3.220  10.879
 1532W        W 5051   5.422   2.319   9.972
 1533W        W 5052   8.100   8.407   9.434
 1534W        W 5053   7.633   2.333   2.217
 1535W        W 5054   7.528   1.105   8.549
 1536W        W 5055   6.091   6.751   9.661
 1537W        W 5056   7.421   8.530   9.871
 1538W        W 5057   9.260   4.489  11.103
 1539W        W 5058   3.324   7.968   0.889
 1540W        W 5059   4.160   2.584   3.022
 1541W        W 5060   0.216   1.796  10.277
 1542W        W 5061   9.195   3.137   0.826
 1543W        W 5062   3.493   1.210  10.482
 1544W        W 5063   5.937   2.743  10.318
 1545W        W 5064   4.288   4.439   8.571
 1546W        W 5065   7.401   9.571   0.228
 1547W        W 5066   4.996   6.603  10.629
 1548W        W 5067   7.887   6.284   3.198
 1549W        W 5068   1.720   5.780   9.081
 1550W        W 5069   6.396   1.366  11.505
 1551W        W 5070   0.010   5.873   0.181
 1552W        W 5071   1.849   9.208   9.592
 1553W        W 5072   5.370   8.507  11.339
 1554W        W 5073   1.879   4.702  11.258
 1555W        W 5074   4.707   1.426   0.713
 1556W        W 5075   9.653   7.505   3.387
 1557W        W 5076   5.514   2.182   1.524
 1558W        W 5077   6.948   5.532   8.538
 1559W        W 5078   9.626   6.451   8.679
 1560W        W 5079   1.349   8.445   0.129
 1561W        W 5080   6.510   7.821   9.446
 1562W        W 5081   8.497   6.956   1.001
 1563W        W 5082   9.560   4.095   2.861
 1564W        W 5083   5.040   6.405  11.097
 1565W        W 5084   5.864   1.864   1.271
 1566W        W 5085   4.635   3.617   8.431
 1567W        W 5086   8.091   9.439  11.197
 1568W        W 5087   4.007   3.258   9.510
 1569W        W 5088   9.877   1.300  11.465
 1570W        W 5089   0.221   1.045   1.005
 1571W        W 5090   6.359   3.732   0.264
 1572W        W 5091   2.622   1.943  11.579
 1573W        W 5092   7.704   2.103  11.690
 1574W        W 5093   5.204   6.955  10.022
 1575W        W 5094   3.752   1.726   0.894
 1576W        W 5095   4.157   3.191   9.982
 1577W        W 5096   0.313   3.753  10.931
 1578W        W 5097   8.525   6.607   0.078
 1579W        W 5098   1.238   1.586  11.924
 1580W        W 5099   9.501   3.133   2.377
 1581W        W 5100   2.844   0.149  11.047
 1582W        W 5101   7.543   1.180  11.978
 1583W        W 5102   2.916   4.327   0.843
 1584W        W 5103   0.897   0.090   8.917
 1585W        W 5104   7.033   5.471   1.660
 1586W        W 5105   8.869   6.975   3.227
 1587W        W 5106   8.066   0.060  10.911
 1588W        W 5107   7.228   4.636  10.190
 1589W        W 5108   4.762   3.708   9.414
 1590W        W 5109   6.741   5.193   8.919
 1591W        W 5110   5.420   7.614   1.833
 1592W        W 5111   5.738   6.160  10.427
 1593W        W 5112   7.829   6.627  10.870
 1594W        W 5113   7.474   1.856   1.991
 1595W        W 5114   9.135   3.042   9.896
 1596W        W 5115   1.119   5.729   2.236
 1597W        W 5116   2.132   2.582   1.319
 1598W        W 5117   8.779   4.315   0.482
 1599W        W 5118   8.082   2.801   8.877
 1600W        W 5119   3.588   3.640   0.703
 1601W        W 5120   3.377   0.356  11.070
 1602W        W 5121   9.675   8.577   8.576
 1603W        W 5122   0.213   0.010   0.834
 1604W        W 5123   7.029   9.033  10.474
 1605W        W 5124   5.018   4.125   3.251
 1606W        W 5125   7.118   5.958  11.492
 1607W        W 5126   3.281   0.767  11.397
 1608W        W 5127   5.195   0.063  11.341
 1609W        W 5128   3.829   8.323  10.515
 1610W        W 5129   1.801   3.123   9.380
 1611W        W 5130   9.864   8.032  10.696
 1612W        W 5131   7.382   7.486   9.994
 1613W        W 5132   4.902   5.348   1.366
 1614W        W 5133   7.553   5.584  10.233
 1615W        W 5134   4.955   7.519  11.630
 1616W        W 5135   5.161   0.722  11.950
 1617W        W 5136   9.040   3.162   8.733
 1618W        W 5137   3.058   7.867  11.533
 1619W        W 5138   4.010   2.203  10.793
 1620W        W 5139   9.352   9.961   0.657
 1621W        W 5140   9.503   6.499   2.726
 1622W        W 5141   2.287   0.109   1.897
 1623W        W 5142   8.705   1.845  11.727
 1624W        W 5143   3.771   3.660   8.018
 1625W        W 5144   8.496   0.331   0.777
 1626W        W 5145   6.634   3.230  10.453
 1627W        W 5146   7.834   6.094  10.855
 1628W        W 5147   3.220   2.960   0.305
 1629W        W 5148   2.779   6.424  11.056
 1630W        W 5149   3.644   0.978   3.028
 1631W        W 5150   7.738   8.480  11.300
 1632W        W 5151   3.655   8.801  10.603
 1633W        W 5152   9.835   9.982  11.764
 1634W        W 5153   4.583   3.272  10.259
 1635W        W 5154   1.051   9.668   0.473
 1636W        W 5155   6.713   7.621   3.192
 1637W        W 5156   1.060   2.834  10.715
 1638W        W 5157   5.428   2.740   0.283
 1639W        W 5158   3.147   8.236  10.150
 1640W        W 5159   3.565   4.255  11.286
 1641W        W 5160   0.677   4.931   0.844
 1642W        W 5161   3.555   5.904   9.202
 1643W        W 5162   4.146   0.078   1.831
 1644W        W 5163   1.787   5.867   2.735
 1645W        W 5164   0.414   9.304   8.631
 1646W        W 5165   4.187   2.200   2.670
 1647W        W 5166   3.729   6.351  10.432
 1648W        W 5167   3.814   6.120   9.979
 1649W        W 5168   2.051   1.499   0.873
 1650W        W 5169   9.634   1.022   1.398
 1651W        W 5170   4.692   7.259   3.172
 1652W        W 5171   2.685   8.974   9.640
 1653W        W 5172   6.772   9.961   1.364
 1654W        W 5173   5.105   4.996   3.332
 1655W        W 5174   3.370   1.082   0.297
 1656W        W 5175   4.313   9.113  11.219
 1657W        W 5176   3.755   9.220   1.129
 1658W        W 5177   0.494   4.210   9.528
 1659W        W 5178   1.966   2.749   2.106
 1660W        W 5179   2.328   8.861   8.765
 1661W        W 5180   1.282   7.616   9.966
 1662W        W 5181   9.984   8.074   2.243
 1663W        W 5182   8.157   5.336   0.895
 1664W        W 5183   0.946   0.885   9.987
 1665W        W 5184   1.357   4.927  11.952
 1666W        W 5185   4.186   8.565   0.677
 1667W        W 5186   5.212   5.937   0.462
 1668W        W 5187   2.611   6.454  10.063
 1669W        W 5188   0.858   7.215   9.530
 1670W        W 5189   7.960   6.870   2.100
 1671W        W 5190   0.021   2.143   9.403
 1672W        W 5191   1.675   0.015   9.310
 1673W        W 5192   8.865   0.905   2.551
 1674W        W 5193   4.562   5.164   1.757
 1675W        W 5194   7.500   9.430   0.907
 1676W        W 5195   5.551   3.879  11.836
 1677W        W 5196   6.456   5.996   2.221
 1678W        W 5197   7.446   0.306   0.068
 1679W        W 5198   6.296   0.481   9.202
 1680W        W 5199   0.600   9.060   9.969
 1681W        W 5200   7.927   0.207   2.547
 1682W        W 5201   2.585   5.548   3.278
 1683W        W 5202   7.301   1.800   2.868
 1684W        W 5203   6.026   4.495   3.031
 1685W        W 5204   0.915   2.485   9.860
 1686W        W 5205   2.889   9.566   1.454
 1687W        W 5206   5.119   4.962   0.090
 1688W        W 5207   9.632   0.082   3.356
 1689W        W 5208   5.584   2.559   9.559
 1690W        W 5209   7.417   8.865  11.057
 1691W        W 5210   6.241   4.494   3.796
 1692W        W 5211   6.907   8.223  11.719
 1693W        W 5212   6.123   7.647  10.818
 1694W        W 5213   6.403   6.955   8.717
 1695W        W 5214   3.520   7.591   0.593
 1696W        W 5215   8.024   9.542   1.620
 1697W        W 5216   7.199   6.134  10.079
 1698W        W 5217   0.890   3.992   2.974
 1699W        W 5218   4.555   6.616   2.381
 1700W        W 5219   6.675   0.566  10.467
 1701W        W 5220   8.587   9.057   9.855
 1702W        W 5221   4.235   8.732   2.869
 1703W        W 5222   7.882   8.871   0.450
 1704W        W 5223   3.370   9.162   3.171
 1705W        W 5224   9.772   6.700  10.481
 1706W        W 5225   8.654   3.161  11.824
 1707W        W 5226   2.109   1.480   1.931
 1708W        W 5227   7.205   7.090  11.458
 1709W        W 5228   0.082   7.055   3.297
 1710W        W 5229   3.174   6.391   8.506
 1711W        W 5230   0.690   7.936  10.952
 1712W        W 5231   1.217   3.097  11.155
 1713W        W 5232   1.617   1.222   8.739
 1714W        W 5233   9.752   7.433   8.952
 1715W        W 5234   5.939   9.513  11.786
 1716W        W 5235   4.036   7.151  10.661
 1717W        W 5236   3.367   0.432  10.088
 1718W        W 5237   0.844   8.504   1.294
 1719W        W 5238   8.076   0.160   9.973
 1720W        W 5239   9.551   9.240   3.468
 1721W        W 5240   4.873   8.398  11.350
 1722W        W 5241   2.691   8.306  10.398
 1723W        W 5242   6.005   9.271   1.272
 1724W        W 5243   8.114   7.457   2.619
 1725W        W 5244   0.856   4.091   1.147
 1726W        W 5245   2.089   0.779   1.272
 1727W        W 5246   9.823   8.365   3.262
 1728W        W 5247   5.223   8.049   9.584
 1729W        W 5248   8.363   1.749   0.542
 1730W        W 5249   0.471   5.660   0.332
 1731W        W 5250   0.289   7.967   0.739
 1732W        W 5251   6.301   5.912   1.167
 1733W        W 5252   8.685   8.844  10.696
 1734W        W 5253   4.387   9.717   0.573
 1735W        W 5254   5.334   7.495  10.690
 1736W        W 5255   6.563   0.269   2.111
 1737W        W 5256   3.964   5.109  10.965
 1738W        W 5257   1.745   2.656   9.088
 1739W        W 5258   7.608   0.351  10.112
 1740W        W 5259   1.614   8.039  10.485
 1741W        W 5260   4.868   6.153   4.079
 1742W        W 5261   2.133   2.522  11.574
 1743W        W 5262   0.178   7.525   3.485
 1744W        W 5263   1.447   5.351   0.202
 1745W        W 5264   7.119   7.905   3.268
 1746W        W 5265   2.270   7.407  11.560
 1747W        W 5266   5.731   9.645   8.499
 1748W        W 5267   8.665   3.263  10.009
 1749W        W 5268   4.396   7.832  10.003
 1750W        W 5269   4.590   9.537   1.369
 1751W        W 5270   3.012   1.846   9.944
 1752W        W 5271   6.318   5.053   1.443
 1753W        W 5272   4.471   5.132  10.757
 1754W        W 5273   3.430   6.824   0.816
 1755W        W 5274   9.588   1.826  11.533
 1756W        W 5275   4.941   5.488   8.408
 1757W        W 5276   3.153   6.004   1.050
 1758W        W 5277   5.152   0.142   1.675
 1759W        W 5278   1.383   0.214   2.066
 1760W        W 5279   9.074   6.713   2.541
 1761W        W 5280   7.200   0.858   2.188
 1762W        W 5281   7.717   4.558   9.507
 1763W        W 5282   3.779   4.441  10.368
 1764W        W 5283   8.451   2.648   0.517
 1765W        W 5284   1.271   3.348   2.192
 1766W        W 5285   2.792   8.845   1.966
 1767W        W 5286   1.401   9.401  10.860
 1768W        W 5287   3.276   3.238   2.877
 1769W        W 5288   2.853   5.555   8.854
 1770W        W 5289   8.430   4.511   8.329
 1771W        W 5290   1.317   6.161   2.046
 1772W        W 5291   1.997   0.486   9.477
 1773W        W 5292   1.880   9.152  10.659
 1774W        W 5293   0.000   6.516   1.400
 1775W        W 5294   9.103   6.549   3.052
 1776W        W 5295   8.806   3.129  11.328
 1777W        W 5296   5.790   4.077   3.810
 1778W        W 5297   7.250   9.053   8.787
 1779W        W 5298   0.449   5.704   2.664
 1780W        W 5299   7.684   9.865   1.831
 1781W        W 5300   0.665   5.166   2.026
 1782W        W 5301   6.441   9.787   2.868
 1783W        W 5302   7.093   1.414   1.259
 1784W        W 5303   6.842   0.078  10.574
 1785W        W 5304   1.155   3.313  10.649
 1786W        W 5305   5.453   8.904   1.874
 1787W        W 5306   1.347   4.058   1.340
 1788W        W 5307   5.113   1.759   2.353
 1789W        W 5308   7.844   9.775   3.287
 1790W        W 5309   3.257   0.898   9.876
 1791W        W 5310   6.127   0.203   0.663
 1792W        W 5311   9.901   2.718   1.764
 1793W        W 5312   5.975   6.493   3.280
 1794W        W 5313   6.375   9.060   0.184
 1795W        W 5314   4.186   8.039   8.605
 1796W        W 5315   3.109   5.994   9.449
 1797W        W 5316   7.997   1.436   0.348
 1798W        W 5317   7.515   9.848   9.503
 1799W        W 5318   1.705   7.463   0.810
 1800W        W 5319   6.042   3.705  11.840
 1801W        W 5320   5.894   0.602   3.760
 1802W        W 5321   4.645   1.413   9.907
 1803W        W 5322   2.916   1.731  11.191
 1804W        W 5323   7.980   6.965   2.597
 1805W        W 5324   2.985   5.557   9.687
 1806W        W 5325   2.782   3.050   0.591
 1807W        W 5326   4.006   1.874   9.973
 1808W        W 5327   2.716   9.303   8.226
 1809W        W 5328   5.262   6.225   8.783
 1810W        W 5329   8.041   8.889  10.416
 1811W        W 5330   1.337   4.065  10.979
 1812W        W 5331   4.964   4.510   3.610
 1813W        W 5332   8.283   4.431   3.583
 1814W        W 5333   5.716   6.250   8.341
 1815W        W 5334   8.641   0.828  11.653
 1816W        W 5335   1.250   6.524   2.846
 1817W        W 5336   3.603   5.314  10.505
 1818W        W 5337   6.650   8.133   0.525
 1819W        W 5338   6.586   6.512   8.520
 1820W        W 5339   4.495   9.261  10.749
 1821W        W 5340   9.979   8.991   8.623
 1822W        W 5341   8.838   7.391   1.818
 1823W        W 5342   8.435   4.736   9.583
 1824W        W 5343   8.820   5.773  10.954
 1825W        W 5344   3.733   5.560   2.726
 1826W        W 5345   1.237   2.206  11.114
 1827W        W 5346   6.503   2.069   9.181
 1828W        W 5347   0.990   1.732   1.240
 1829W        W 5348   1.482   4.970  11.460
 1830W        W 5349   2.762   3.137   2.512
 1831W        W 5350   9.999   3.869   1.135
 1832W        W 5351   3.400   0.249   1.133
 1833W        W 5352   3.798   1.236   1.250
 1834W        W 5353   9.141   3.679   8.818
 1835W        W 5354   3.698   6.970   1.345
 1836W        W 5355   0.457   1.833   9.381
 1837W        W 5356   4.556   8.727   0.356
 1838W        W 5357   4.693   6.897   9.996
 1839W        W 5358   3.691   0.762  11.836
 1840W        W 5359   0.169   8.042   0.255
 1841W        W 5360   3.990   0.334   2.247
 1842W        W 5361   7.609   9.811   2.793
 1843W        W 5362   5.004   6.077   0.915
 1844W        W 5363   4.804   8.329  10.864
 1845W        W 5364   6.075   1.356  10.768
 1846W        W 5365   6.055   2.201   3.078
 1847W        W 5366   5.950   4.084   8.704
 1848W        W 5367   0.689   3.599  10.612
 1849W        W 5368   4.713   6.894   2.790
 1850W        W 5369   7.553   4.884   9.877
 1851W        W 5370   5.118   6.068  10.290
 1852W        W 5371   7.309   1.150  10.522
 1853W        W 5372   9.794   7.160   1.945
 1854W        W 5373   2.531   5.958  11.676
 1855W        W 5374   6.321   7.834   3.479
 1856W        W 5375   8.653   3.505   8.683
 1857W        W 5376   2.667   4.046   0.377
 1858W        W 5377   8.255   1.464  10.467
 1859W        W 5378   8.888   5.462   9.480
 1860W        W 5379   1.219   3.741   0.463
 1861W        W 5380   8.415   5.223   2.752
 1862W        W 5381   2.756   4.026   8.874
 1863W        W 5382   0.581   0.213   0.050
 1864W        W 5383   6.863   2.865   8.870
 1865W        W 5384   1.324   5.469   9.081
 1866W        W 5385   3.723   4.246   2.511
 1867W        W 5386   0.018   1.970  10.715
 1868W        W 5387   6.082   6.537   8.634
 1869W        W 5388   5.732   8.494   0.664
 1870W        W 5389   9.746   3.241   1.778
 1871W        W 5390   4.035   9.568   1.910
 1872W        W 5391   9.326   5.691  11.003
 1873W        W 5392   2.590   8.534   0.977
 1874W        W 5393   2.427   0.351   9.235
 1875W        W 5394   8.487   6.097   2.492
 1876W        W 5395   6.918   2.120   2.771
 1877W        W 5396   0.652   3.551   0.733
 1878W        W 5397   9.013   5.329  10.797
 1879W        W 5398   5.841   5.136  10.321
 1880W        W 5399   8.906   0.188   0.412
 1881W        W 5400   2.682   3.413   1.049
 1882W        W 5401   1.949   2.601  10.707
 1883W        W 5402   7.496   1.278  10.053
 1884W        W 5403   9.485   3.650   3.634
 1885W        W 5404   6.784   5.542   2.648
 1886W        W 5405   3.305   9.006   0.911
 1887W        W 5406   7.275   5.488  11.318
 1888W        W 5407   3.807   2.513   9.462
 1889W        W 5408   9.885   9.313  11.070
 1890W        W 5409   0.047   3.616  11.853
 1891W        W 5410   6.333   9.689   1.349
 1892W        W 5411   4.689   1.470  10.533
 1893W        W 5412   5.571   4.706   2.884
 1894W        W 5413   1.813   7.829   2.572
 1895W        W 5414   2.391   4.672   2.359
 1896W        W 5415   0.867   6.535  10.960
 1897W        W 5416   9.928   5.229  11.192
 1898W        W 5417   2.219   9.667   9.991
 1899W        W 5418   3.762   2.634   1.050
 1900W        W 5419   2.379   7.025   0.690
 1901W        W 5420   8.530   6.218   0.414
 1902W        W 5421   3.928   6.710   0.920
 1903W        W 5422   0.491   4.072   9.039
 1904W        W 5423   4.217   8.853  10.678
 1905W        W 5424   3.213   0.711   3.178
 1906W        W 5425   0.344   2.071   1.299
 1907W        W 5426   9.464   9.356  10.762
 1908W        W 5427   8.031   2.007   2.188
 1909W        W 5428   6.471   9.308   1.036
 1910W        W 5429   8.508   6.811  11.603
 1911W        W 5430   2.365   8.438   0.430
 1912W        W 5431   6.782   9.792   9.245
 1913W        W 5432   7.488   2.047  10.382
 1914W        W 5433   2.561   6.999  11.312
 1915W        W 5434   4.592   4.731   9.848
 1916W        W 5435   4.609   1.295   2.953
 1917W        W 5436   0.233   0.410   9.102
 1918W        W 5437   9.431   5.851  11.477
 1919W        W 5438   1.354   9.209   1.660
 1920W        W 5439   3.532   9.259  10.307
 1921W        W 5440   4.758   9.498   0.879
 1922W        W 5441   8.584   8.179  11.510
 1923W        W 5442   0.150   3.736   9.800
 1924W        W 5443   8.525   8.546   9.738
 1925W        W 5444   8.786   5.612  11.789
 1926W        W 5445   8.903   2.612   2.003
 1927W        W 5446   4.118   7.587   9.226
 1928W        W 5447   8.488   8.005  10.515
 1929W        W 5448   7.892   5.944   1.580
 1930W        W 5449   3.229   4.188   9.134
 1931W        W 5450   8.145   6.656   8.526
 1932W        W 5451   2.737   5.284   1.224
 1933W        W 5452   5.393   9.761   1.954
 1934W        W 5453   8.034   0.670   2.310
 1935W        W 5454   0.226   5.973   8.610
 1936W        W 5455   4.662   8.523   1.419
 1937W        W 5456   8.575   8.418   9.240
 1938W        W 5457   1.625   6.786   8.706
 1939W        W 5458   2.328   3.240   0.736
 1940W        W 5459   6.660   4.525  11.984
 1941W        W 5460   0.773   2.520   2.486
 1942W        W 5461   5.050   0.841   8.976
 1943W        W 5462   4.622   2.657   3.246
 1944W        W 5463   8.045   7.612   3.091
 1945W        W 5464   8.441   4.179   1.344
 1946W        W 5465   9.994   6.845   0.513
 1947W        W 5466   1.287   6.331   9.557
 1948W        W 5467   6.402   0.989   0.835
 1949W        W 5468   1.567   7.463   2.305
 1950W        W 5469   4.301   3.684   2.254
 1951W        W 5470   1.217   8.506   9.973
 1952W        W 5471   4.778   2.008   9.442
 1953W        W 5472   5.676   9.689  10.061
 1954W        W 5473   1.911   3.933   9.825
 1955W        W 5474   9.106   6.176  10.977
 1956W        W 5475   5.984   4.423   0.372
 1957W        W 5476   8.840   7.772   1.433
 1958W        W 5477   7.379   0.797   9.878
 1959W        W 5478   0.041   9.635   0.464
 1960W        W 5479   5.218   6.584   2.348
 1961W        W 5480   7.114   1.086   1.718
 1962W        W 5481   1.207   7.090   8.630
 1963W        W 5482   4.709   7.972   1.344
 1964W        W 5483   0.703   3.898  11.394
 1965W        W 5484   0.463   2.384  11.445
 1966W        W 5485   5.862   9.395  10.802
 1967W        W 5486   5.566   1.866   0.869
 1968W        W 5487   7.307   7.698   2.771
 1969W        W 5488   4.364   3.179   2.203
 1970W        W 5489   8.884   9.215   0.951
 1971W        W 5490   0.958   5.790   2.759
 1972W        W 5491   1.599   5.019   2.478
 1973W        W 5492   5.028   2.577   4.391
 1974W        W 5493   4.696   6.969   1.199
 1975W        W 5494   2.079   3.504  11.412
 1976W        W 5495   8.312   3.831   3.210
 1977W        W 5496   6.441   8.713   3.626
 1978W        W 5497   1.386   8.104   2.743
 1979W        W 5498   3.514   4.105   8.135
 1980W        W 5499   6.243   5.761   3.669
 1981W        W 5500   8.384   4.528   0.242
 1982W        W 5501   0.039   9.827  10.221
 1983W        W 5502   5.252   3.526   0.756
 1984W        W 5503   5.603   7.893   2.262
 1985W        W 5504   5.779   7.407   0.033
 1986W        W 5505   2.746   8.596   2.875
 1987W        W 5506   2.927   1.806   3.649
 1988W        W 5507   4.467   2.348  10.606
 1989W        W 5508   5.172   9.574   2.922
 1990W        W 5509   6.873   8.977   1.611
 1991W        W 5510   8.461   7.160  10.642
 1992W        W 5511   0.137   4.095   1.749
 1993W        W 5512   9.826   0.998   3.281
 1994W        W 5513   5.067   9.179   2.622
 1995W        W 5514   1.165   8.486  10.489
 1996W        W 5515   9.611   2.389   3.501
 1997W        W 5516   0.888   0.616   0.268
 1998W        W 5517   1.591   9.037   1.250
 1999W        W 5518   5.528   7.309   3.616
 2000W        W 5519   7.483   1.078   1.367
 2001W        W 5520   6.185   0.760   0.022
 2002W        W 5521   7.794   0.367  10.583
 2003W        W 5522   0.498   1.585   1.302
 2004W        W 5523   5.486   5.079  11.301
 2005W        W 5524   2.324   4.428   0.802
 2006W        W 5525   7.657   7.610  10.417
 2007W        W 5526   4.837   9.962   0.630
 2008W        W 5527   7.278   2.122   9.069
 2009W        W 5528   7.332   5.646   3.959
 2010W        W 5529   1.210   2.217   1.314
 2011W        W 5530   4.204   5.249   3.323
 2012W        W 5531   3.457   5.808   7.918
 2013W        W 5532   1.028   7.094   3.511
 2014W        W 5533   0.483   3.506   3.575
 2015W        W 5534   8.914   7.796  11.693
 2016W        W 5535   5.490   4.252  11.479
 2017W        W 5536   2.613   7.931  10.745
 2018W        W 5537   5.583   1.034   3.576
 2019W        W 5538   4.331   4.687   1.784
 2020W        W 5539   4.981   6.842   3.232
 2021W        W 5540   9.426   7.975  11.005
 2022W        W 5541   9.335   8.990  11.144
 2023W        W 5542   6.004   8.834   0.429
 2024W        W 5543   0.400   7.598   0.400
 2025W        W 5544   8.207   2.886   9.602
 2026W        W 5545   6.168   7.939   0.593
 2027W        W 5546   2.739   7.474  11.302
 2028W        W 5547   0.408   2.740   1.892
 2029W        W 5548   6.885   6.279  11.837
 2030W        W 5549   6.818   7.324   9.054
 2031W        W 5550   2.748   9.736   8.986
 2032W        W 5551   6.776   3.561   8.534
 2033W        W 5552   1.756   8.773   9.327
 2034W        W 5553   5.634   3.833   9.930
 2035W        W 5554   5.930   7.593   1.803
 2036W        W 5555   6.299   3.980   3.899
 2037W        W 5556   6.655   7.351   9.532
 2038W        W 5557   2.346   2.768   0.469
 2039W        W 5558   8.005   2.263   9.074
 2040W        W 5559   9.110   8.194   1.645
 2041W        W 5560   0.783   5.174  11.508
 2042W        W 5561   4.965   0.546   2.987
 2043W        W 5562   6.097   7.418   0.436
 2044W        W 5563   6.329   0.853  11.541
 2045W        W 5564   3.032   6.478   0.917
 2046W        W 5565   9.992   2.091   2.124
 2047W        W 5566   8.705   3.819   9.444
 2048W        W 5567   0.844   7.097  11.838
 2049W        W 5568   2.520   3.518   2.250
 2050W        W 5569   0.914   6.993   9.055
 2051W        W 5570   1.330   7.451   9.469
 2052W        W 5571   2.966   7.053   9.221
 2053W        W 5572   2.796   3.845   9.775
 2054W        W 5573   7.171   3.196   3.234
 2055W        W 5574   5.184   7.084  11.464
 2056W        W 5575   7.178   8.715   0.672
 2057W        W 5576   6.647   3.848   2.964
 2058W        W 5577   9.994   9.543   8.811
 2059W        W 5578   0.229   7.223   2.821
 2060W        W 5579   9.698   7.711   2.517
 2061W        W 5580   2.714   3.585   1.774
 2062W        W 5581   9.243   1.802   0.477
 2063W        W 5582   9.337   2.078  10.645
 2064W        W 5583   0.164   6.587   2.135
 2065W        W 5584   3.250   4.194   8.606
 2066W        W 5585   2.881   5.966  11.306
 2067W        W 5586   8.200   5.410   0.337
 2068W        W 5587   4.595   8.505   2.259
 2069W        W 5588   4.177   7.201  11.378
 2070W        W 5589   9.667   9.094   2.991
 2071W        W 5590   5.059   8.332   1.171
 2072W        W 5591   5.230   5.289   8.807
 2073W        W 5592   1.630   8.205   1.034
 2074W        W 5593   2.628   9.036   1.028
 2075W        W 5594   9.334   5.517   2.395
 2076W        W 5595   1.778   1.316   3.529
 2077W        W 5596   0.919   6.804   3.105
 2078W        W 5597   7.129   0.841   3.103
 2079W        W 5598   0.343   2.787   3.079
 2080W        W 5599   7.976   2.154   0.922
 2081W        W 5600   1.554   7.630   1.294
 2082W        W 5601   9.211   0.386   1.352
 2083W        W 5602   6.221   3.668   3.131
 2084W        W 5603   5.181   4.491   2.018
 2085W        W 5604   5.557   3.111   3.165
 2086W        W 5605   4.879   7.405   0.982
 2087W        W 5606   6.471   9.820   3.416
 2088W        W 5607   5.230   7.277   3.209
 2089W        W 5608   3.304   2.976  11.210
 2090W        W 5609   1.231   5.793   8.659
 2091W        W 5610   0.818   1.137   0.809
 2092W        W 5611   5.441   1.383  11.145
 2093W        W 5612   9.292   7.099   1.187
 2094W        W 5613   3.570   3.415   0.253
 2095W        W 5614   2.615   4.342   1.247
 2096W        W 5615   7.753   8.469   2.653
 2097W        W 5616   9.018   2.238  11.529
 2098W        W 5617   0.692   2.528   3.467
 2099W        W 5618   6.429   7.653   1.721
 2100W        W 5619   8.250   1.180   8.551
 2101W        W 5620   0.667   4.160   1.831
 2102W        W 5621   7.449   4.919  11.363
 2103W        W 5622   9.028   1.348  10.121
 2104W        W 5623   3.245   2.473   1.082
 2105W        W 5624   6.010   8.131  10.707
 2106W        W 5625   0.424   1.354   9.219
 2107W        W 5626   2.848   6.441  10.553
 2108W        W 5627   7.113   7.379   3.478
 2109W        W 5628   7.469   1.800   9.940
 2110W        W 5629   4.956   8.434   1.871
 2111W        W 5630   7.911   8.855   2.294
 2112W        W 5631   4.002   3.116   9.007
 2113W        W 5632   9.592   4.844  11.338
 2114W        W 5633   1.810   2.156  10.956
 2115W        W 5634   0.530   1.221  10.096
 2116W        W 5635   0.068   9.318   3.208
 2117W        W 5636   4.092   4.138   0.011
 2118W        W 5637   7.338   2.689   0.401
 2119W        W 5638   9.413   6.935  10.181
 2120W        W 5639   2.173   6.193   3.024
 2121W        W 5640   5.391   7.108   8.548
 2122W        W 5641   7.204   2.102   0.560
 2123W        W 5642   8.252   3.102   0.412
 2124W        W 5643   3.554   4.091   1.525
 2125W        W 5644   9.916   2.198   1.558
 2126W        W 5645   0.853   2.887   1.678
 2127W        W 5646   5.138   3.844  11.499
 2128W        W 5647   2.463   2.753   2.223
 2129W        W 5648   5.086   8.224   0.664
 2130W        W 5649   2.792   1.353   1.395
 2131W        W 5650   6.386   7.521   0.833
 2132W        W 5651   5.715   5.607  11.958
 2133W        W 5652   8.895   2.207  10.879
 2134W        W 5653   1.690   6.577   9.747
 2135W        W 5654   6.423   3.695  10.486
 2136W        W 5655   0.822   5.387   2.461
 2137W        W 5656   0.818   1.261  11.751
 2138W        W 5657   0.322   5.054   3.109
 2139W        W 5658   9.060   5.681   9.058
 2140W        W 5659   5.641   9.850  10.984
 2141W        W 5660   5.227   4.957   0.569
 2142W        W 5661   4.270   7.809   1.594
 2143W        W 5662   2.052   4.860   2.754
 2144W        W 5663   1.769   7.077   2.752
 2145W        W 5664   8.093   8.700   0.888
 2146W        W 5665   8.261   9.098   8.656
 2147W        W 5666   1.879   5.213  11.260
 2148W        W 5667   5.449   8.423   2.109
 2149W        W 5668   3.501   2.373   8.705
 2150W        W 5669   4.768   8.516   9.101
 2151W        W 5670   1.873   9.585  11.073
 2152W        W 5671   8.928   7.167   2.761
 2153W        W 5672   2.796   3.045  10.437
 2154W        W 5673   6.551   4.309   3.146
 2155W        W 5674   9.043   4.852   3.137
 2156W        W 5675   5.858   6.043   4.003
 2157W        W 5676   8.815   7.885   1.922
 2158W        W 5677   0.812   6.091   0.863
 2159W        W 5678   1.248   2.565  10.327
 2160W        W 5679   7.253   9.871   9.009
 2161W        W 5680   0.263   9.270   1.617
 2162W        W 5681   1.565   8.900  10.943
 2163W        W 5682   3.147   5.615   1.382
 2164W        W 5683   3.324   0.424   9.014
 2165W        W 5684   3.317   9.686   3.126
 2166W        W 5685   7.258   1.568   8.671
 2167W        W 5686   2.366   4.875   9.200
 2168W        W 5687   8.544   4.836   8.998
 2169W        W 5688   0.253   8.840   0.175
 2170W        W 5689   9.835   4.143   9.802
 2171W        W 5690   5.902   1.905   0.494
 2172W        W 5691   3.562   0.163   2.458
 2173W        W 5692   4.180   0.212   0.789
 2174W        W 5693   9.371   9.032   1.074
 2175W        W 5694   3.626   9.559   9.897
 2176W        W 5695   1.052   4.737  11.572
 2177W        W 5696   8.003   6.368   1.251
 2178W        W 5697   1.341   4.246  10.501
 2179W        W 5698   9.357   2.681   0.553
 2180W        W 5699   3.856   1.214   0.748
 2181W        W 5700   2.330   5.413   1.587
 2182W        W 5701   0.583   8.161   2.921
 2183W        W 5702   4.124   1.932   8.531
 2184W        W 5703   9.557   0.559   3.069
 2185W        W 5704   0.895   6.383   9.868
 2186W        W 5705   6.159   9.979  11.783
 2187W        W 5706   6.271   6.681  10.183
 2188W        W 5707   9.248   7.100   0.367
 2189W        W 5708   2.235   9.622   0.348
 2190W        W 5709   6.598   3.342   1.720
 2191W        W 5710   8.241   4.821   0.647
 2192W        W 5711   4.532   7.658   9.509
 2193W        W 5712   7.953   1.398   9.232
 2194W        W 5713   7.099   2.612  11.653
 2195W        W 5714   3.415   6.607   3.124
 2196W        W 5715   7.072   5.156   2.783
 2197W        W 5716   7.131   2.623  11.148
 2198W        W 5717   9.843   9.404   8.342
 2199W        W 5718   8.912   4.551   8.733
 2200W        W 5719   6.239   8.277   1.814
 2201W        W 5720   3.517   7.461   2.656
 2202W        W 5721   6.482   3.161   2.231
 2203W        W 5722   6.541   5.015   0.197
 2204W        W 5723   5.957   5.639  10.418
 2205W        W 5724   9.925   0.806   9.879
 2206W        W 5725   2.177   0.626   0.474
 2207W        W 5726   2.592   8.234  11.766
 2208W        W 5727   1.226   6.839   9.524
 2209W        W 5728   2.685   9.082   1.523
 2210W        W 5729   7.525   4.275  10.467
 2211W        W 5730   8.302   1.008   1.385
 2212W        W 5731   6.298   7.403  11.905
 2213W        W 5732   0.938   2.195   0.044
 2214W        W 5733   2.850   4.960   3.626
 2215W        W 5734   5.068   8.515  10.057
 2216W        W 5735   0.270   7.394   8.858
 2217W        W 5736   7.412   2.310   9.940
 2218W        W 5737   9.216   3.773   1.745
 2219W        W 5738   0.109   1.747   1.649
 2220W        W 5739   2.513   7.922   3.362
 2221W        W 5740   9.884   2.137   1.027
 2222W        W 5741   5.510   8.774  10.072
 2223W        W 5742   5.371   4.214   2.875
 2224W        W 5743   1.143   6.937  11.280
 2225W        W 5744   3.765   5.028   0.381
 2226W        W 5745   3.571   3.089  10.349
 2227W        W 5746   8.391   0.903   9.903
 2228W        W 5747   7.610   6.054   1.149
 2229W        W 5748   2.567   6.470  11.516
 2230W        W 5749   8.940   7.936   9.749
 2231W        W 5750   7.169   9.699   1.714
 2232W        W 5751   4.643   9.737  10.779
 2233W        W 5752   4.859   9.881   9.668
 2234W        W 5753   5.482   6.696   3.229
 2235W        W 5754   9.413   7.402   2.194
 2236W        W 5755   0.002   3.004   0.514
 2237W        W 5756   4.564   6.494  10.916
 2238W        W 5757   5.318   6.201  10.721
 2239W        W 5758   3.044   2.268   3.906
 2240W        W 5759   4.506   5.061   1.269
 2241W        W 5760   1.015   5.618   0.901
 2242W        W 5761   9.441   7.045  11.822
 2243W        W 5762   2.241   0.768  11.546
 2244W        W 5763   6.782   7.717   3.681
 2245W        W 5764   4.391   8.204  11.322
 2246W        W 5765   1.643   3.916  10.246
 2247W        W 5766   3.605   9.418  10.789
 2248W        W 5767   0.965   0.876  10.787
 2249W        W 5768   5.869   9.807   9.554
 2250W        W 5769   9.569   8.899   8.957
 2251W        W 5770   7.572   6.776   9.508
 2252W        W 5771   5.535   8.488   1.113
 2253W        W 5772   7.504   2.786   1.108
 2254W        W 5773   7.392   1.857   0.030
 2255W        W 5774   8.858   3.789   0.473
 2256W        W 5775   3.352   5.059   3.764
 2257W        W 5776   0.531   9.479   9.672
 2258W        W 5777   7.370   9.345  10.787
 2259W        W 5778   7.991   3.584   1.767
 2260W        W 5779   8.044   8.207  10.985
 2261W        W 5780   7.836   9.369  10.364
 2262W        W 5781   2.808   0.973  11.460
 2263W        W 5782   0.429   8.859   8.944
 2264W        W 5783   3.607   3.094   0.656
 2265W        W 5784   1.741   5.157   2.019
 2266W        W 5785   6.711   7.143   0.757
 2267W        W 5786   9.836   8.925   2.000
 2268W        W 5787   0.816   9.726   9.277
 2269W        W 5788   2.057   4.236  11.086
 2270W        W 5789   9.451   0.147  10.255
 2271W        W 5790   4.817   4.854   2.066
 2272W        W 5791   5.846   3.182   3.578
 2273W        W 5792   1.080   3.551   8.923
 2274W        W 5793   8.207   8.033   8.616
 2275W        W 5794   2.205   9.144  11.772
 2276W        W 5795   1.171   8.850   2.065
 2277W        W 5796   1.182   8.901   3.102
 2278W        W 5797   9.806   9.274   0.794
 2279W        W 5798   8.627   1.642  11.220
 2280W        W 5799   8.690   5.228   0.149
 2281W        W 5800   5.778   1.552  10.401
 2282W        W 5801   1.019   8.994  10.516
 2283W        W 5802   7.158   4.583   9.666
 2284W        W 5803   1.369   5.318   9.571
 2285W        W 5804   0.991   1.806  10.754
 2286W        W 5805   4.518   4.594   3.383
 2287W        W 5806   2.685   3.782   2.670
 2288W        W 5807   2.314   6.845  11.746
 2289W        W 5808   8.293   8.413   1.302
 2290W        W 5809   4.251   7.613   2.339
 2291W        W 5810   2.829   2.313  11.892
 2292W        W 5811   0.900   3.156   0.935
 2293W        W 5812   6.043   2.325   8.945
 2294W        W 5813   9.278   5.500  11.861
 2295W        W 5814   1.753   0.785  11.746
 2296W        W 5815   0.968   9.286   0.145
 2297W        W 5816   8.964   2.617   3.430
 2298W        W 5817   6.285   1.267   8.598
 2299W        W 5818   5.741   5.575   3.715
 2300W        W 5819   3.546   4.581   8.363
 2301W        W 5820   8.025   9.189   0.828
 2302W        W 5821   2.355   4.430   0.264
 2303W        W 5822   9.087   8.338   2.611
 2304W        W 5823   4.132   6.281  11.127
 2305W        W 5824   5.592   7.970  11.417
 2306W        W 5825   2.690   7.327  10.204
 2307W        W 5826   6.766   0.538   9.935
 2308W        W 5827   7.733   7.839   9.056
 2309W        W 5828   2.455   8.532   9.542
 2310W        W 5829   0.993   6.024   3.438
 2311W        W 5830   7.922   3.775  10.061
 2312W        W 5831   6.794   8.297  10.344
 2313W        W 5832   3.282   7.056  10.063
 2314W        W 5833   0.197   8.978   0.662
 2315W        W 5834   8.294   3.766   9.720
 2316W        W 5835   8.524   4.306   3.145
 2317W        W 5836   8.507   6.656  10.599
 2318W        W 5837   5.290   7.447   9.818
 2319W        W 5838   8.910   7.973   2.909
 2320W        W 5839   4.159   2.515  11.989
 2321W        W 5840   7.847   9.161  10.839
 2322W        W 5841   1.282   4.085   0.848
 2323W        W 5842   3.310   5.914   3.592
 2324W        W 5843   6.056   8.606  10.917
 2325W        W 5844   6.502   2.935   1.027
 2326W        W 5845   8.931   6.722   8.401
 2327W        W 5846   6.663   3.648  11.050
 2328W        W 5847   9.764   3.951   2.366
 2329W        W 5848   8.448   3.149  10.949
 2330W        W 5849   1.375   6.999   2.136
 2331W        W 5850   3.133   3.766   2.953
 2332W        W 5851   2.407   6.211  10.694
 2333W        W 5852   0.273   7.496   0.928
 2334W        W 5853   7.855   6.971   9.881
 2335W        W 5854   9.895   8.574   9.984
 2336W        W 5855   3.246   6.153  10.025
 2337W        W 5856   5.983   8.969  10.161
 2338W        W 5857   3.827   3.827  11.306
 2339W        W 5858   7.393   4.946   9.405
 2340W        W 5859   0.354   0.228   1.332
 2341W        W 5860   3.252   0.317   8.504
 2342W        W 5861   5.475   5.801   8.553
 2343W        W 5862   7.490   1.319   9.045
 2344W        W 5863   5.719   5.407   8.897
 2345W        W 5864   9.412   7.089   2.585
 2346W        W 5865   9.917   3.445   2.422
 2347W        W 5866   7.109   6.922   1.719
 2348W        W 5867   3.698   1.265  10.938
 2349W        W 5868   7.919   6.154  11.838
 2350W        W 5869   4.426   5.328  11.234
 2351W        W 5870   6.939   6.889   9.453
 2352W        W 5871   8.467   7.471   8.796
 2353W        W 5872   4.429   2.280  11.132
 2354W        W 5873   9.535   8.751   0.125
 2355W        W 5874   4.605   9.029   1.399
 2356W        W 5875   2.796   5.372   1.756
 2357W        W 5876   1.537   0.421  11.099
 2358W        W 5877   0.249   4.575   0.523
 2359W        W 5878   3.397   5.822   0.072
 2360W        W 5879   6.087   3.723   2.635
 2361W        W 5880   1.731   8.307   3.449
 2362W        W 5881   1.978   4.893  10.781
 2363W        W 5882   3.289   1.767   2.210
 2364W        W 5883   8.429   9.220  10.420
 2365W        W 5884   4.227   8.503   3.402
 2366W        W 5885   1.875   4.209   1.001
 2367W        W 5886   8.805   1.083   0.880
 2368W        W 5887   1.599   8.885   9.934
 2369W        W 5888   5.859   0.732   3.252
 2370W        W 5889   5.524   5.368  10.628
 2371W        W 5890   7.613   9.720   1.346
 2372W        W 5891   9.413   8.019   9.515
 2373W        W 5892   0.729   5.746  10.451
 2374W        W 5893   2.019   4.225   2.004
 2375W        W 5894   3.802   1.190  10.072
 2376W        W 5895   7.359   5.121  10.298
 2377W        W 5896   7.894   0.698   9.845
 2378W        W 5897   0.621   0.211   9.388
 2379W        W 5898   9.894   8.360   1.330
 2380W        W 5899   9.456   9.869   9.349
 2381W        W 5900   8.119   7.550  11.917
 2382W        W 5901   9.482   4.502   0.922
 2383W        W 5902   0.095   3.520   1.486
 2384W        W 5903   9.872   7.872   9.788
 2385W        W 5904   8.042   5.832   9.083
 2386W        W 5905   0.440   0.162  10.417
 2387W        W 5906   5.655   4.570   9.442
 2388W        W 5907   5.620   3.529  10.806
 2389W        W 5908   9.100   7.542   9.499
 2390W        W 5909   6.714   4.746   3.791
 2391W        W 5910   1.608   1.378   3.053
 2392W        W 5911   2.598   2.272   2.300
 2393W        W 5912   0.088   6.395  10.219
 2394W        W 5913   4.960   3.190   2.011
 2395W        W 5914   8.636   0.740   1.666
 2396W        W 5915   2.058   1.369   9.501
 2397W        W 5916   5.070   4.708   9.683
 2398W        W 5917   7.277   6.570   9.160
 2399W        W 5918   2.987   1.302  10.407
 2400W        W 5919   3.636   4.693  11.576
 2401W        W 5920   3.762   1.537   9.676
 2402W        W 5921   1.971   2.124  11.872
 2403W        W 5922   4.199   4.902   3.688
 2404W        W 5923   8.059   4.095  11.086
 2405W        W 5924   7.492   4.016   2.712
 2406W        W 5925   6.197   2.975  11.380
 2407W        W 5926   9.729   7.531  10.746
 2408W        W 5927   8.751   1.735   1.744
 2409W        W 5928   7.462   5.677   1.454
 2410W        W 5929   2.992   8.259   1.142
 2411W        W 5930   4.503   1.562   8.573
 2412W        W 5931   3.126   9.950   2.173
 2413W        W 5932   0.959   2.902   2.167
 2414W        W 5933   7.086   3.942   3.747
 2415W        W 5934   5.331   1.935   3.824
 2416W        W 5935   6.928   5.592  10.937
 2417W        W 5936   7.100   5.670   3.098
 2418W        W 5937   9.247   4.136   8.600
 2419W        W 5938   7.251   3.735   9.216
 2420W        W 5939   8.570   9.790   9.238
 2421W        W 5940   9.758   5.275   2.516
 2422W        W 5941   5.116   1.002  10.406
 2423W        W 5942   8.967   6.054   3.196
 2424W        W 5943   5.051   9.694   3.474
 2425W        W 5944   1.294   8.375   3.185
 2426W        W 5945   8.533   5.680   9.803
 2427W        W 5946   7.446   7.791   9.554
 2428W        W 5947   9.317   9.295  10.243
 2429W        W 5948   3.696   7.262  11.562
 2430W        W 5949   4.647   3.659   7.931
 2431W        W 5950   4.428   7.960   9.072
 2432W        W 5951   5.858   6.035   2.998
 2433W        W 5952   6.586   9.830   8.744
 2434W        W 5953   1.518   5.782  10.898
 2435W        W 5954   0.880   1.962   9.768
 2436W        W 5955   3.586   5.775  10.278
 2437W        W 5956   2.368   9.333   0.727
 2438W        W 5957   1.100   1.080   2.482
 2439W        W 5958   1.753   3.600   2.810
 2440W        W 5959   1.865   0.822  11.196
 2441W        W 5960   4.661   4.610   9.359
 2442W        W 5961   0.778   9.326   3.348
 2443W        W 5962   6.516   7.135   0.274
 2444W        W 5963   1.406   7.070   0.654
 2445W        W 5964   1.808   7.643  11.773
 2446W        W 5965   2.058   6.998  11.301
 2447W        W 5966   3.764   1.829   1.923
 2448W        W 5967   3.114   7.603   1.840
 2449W        W 5968   2.176   8.392  10.390
 2450W        W 5969   7.481   8.970   8.333
 2451W        W 5970   7.428   9.865  10.023
 2452W        W 5971   1.471   6.639  10.999
 2453W        W 5972   7.707   9.286   2.511
 2454W        W 5973   1.650   9.764   2.231
 2455W        W 5974   8.176   6.611  10.056
 2456W        W 5975   7.633   6.992   0.823
 2457W        W 5976   8.443   5.229   9.469
 2458W        W 5977   6.102   1.013   1.311
 2459W        W 5978   5.882   7.684   0.930
 2460W        W 5979   4.080   4.135   9.361
 2461W        W 5980   7.703   9.385   2.014
 2462W        W 5981   9.363   0.422   0.363
 2463W        W 5982   5.480   3.407   8.549
 2464W        W 5983   1.446   2.184  11.913
 2465W        W 5984   6.912   1.853   0.217
 2466W        W 5985   7.228   4.071   0.722
 2467W        W 5986   6.992   7.984   9.338
 2468W        W 5987   9.409   2.203   1.284
 2469W        W 5988   1.755   3.857  11.244
 2470W        W 5989   3.648   9.766  10.399
 2471W        W 5990   2.208   6.176   2.519
 2472W        W 5991   7.448   8.709   0.216
 2473W        W 5992   1.221   4.624   2.974
 2474W        W 5993   9.352   3.834  11.771
 2475W        W 5994   6.281   0.515   2.472
 2476W        W 5995   4.802   7.720   3.384
 2477W        W 5996   3.710   2.899   0.181
 2478W        W 5997   9.476   1.076  10.347
 2479W        W 5998   7.297   7.072   9.140
 2480W        W 5999   3.521   6.256   9.582
 2481W        W 6000   5.419   6.199   3.261
 2482W        W 6001   1.482   3.903   8.789
 2483W        W 6002   6.511   4.309  11.521
 2484W        W 6003   5.993   0.519   1.488
 2485W        W 6004   6.292   4.367   9.890
 2486W        W 6005   1.884   7.005   9.984
 2487W        W 6006   2.657   5.757   1.420
 2488W        W 6007   3.332   6.967   9.570
 2489W        W 6008   2.688   9.592  10.313
 2490W        W 6009   8.419   8.991   3.122
 2491W        W 6010   9.767   6.963   9.477
 2492W        W 6011   6.043   9.014   3.753
 2493W        W 6012   5.723   8.663   3.543
 2494W        W 6013   4.938   5.890  11.979
 2495W        W 6014   4.568   1.178   1.471
 2496W        W 6015   7.075   4.312   3.336
 2497W        W 6016   3.589   4.257   3.321
 2498W        W 6017   8.803   3.453   1.038
 2499W        W 6018   5.498   8.478   9.662
 2500W        W 6019   2.624   2.240   0.445
 2501W        W 6020   3.159   0.712  11.908
 2502W        W 6021   6.058   6.918   0.421
 2503W        W 6022   8.711   9.122   0.188
 2504W        W 6023   8.460   7.533   2.249
 2505W        W 6024   0.239   6.877  10.348
 2506W        W 6025   1.467   2.857   2.128
 2507W        W 6026   0.035   3.804   3.506
 2508W        W 6027   8.598   1.234   1.894
 2509W        W 6028   9.005   6.047   0.361
 2510W        W 6029   1.113   6.530   9.122
 2511W        W 6030   5.942   3.535   8.722
 2512W        W 6031   4.078   8.931   0.317
 2513W        W 6032   8.359   1.897   1.159
 2514W        W 6033   8.722   8.235  10.091
 2515W        W 6034   8.026   2.359   3.202
 2516W        W 6035   6.903   3.414   9.474
 2517W        W 6036   0.929   6.660   8.656
 2518W        W 6037   7.938   5.011   9.530
 2519W        W 6038   8.153   0.836  11.508
 2520W        W 6039   2.720   3.569   0.573
 2521W        W 6040   0.654   8.837   0.474
 2522W        W 6041   7.361   2.246  10.840
 2523W        W 6042   4.702   3.604   1.953
 2524W        W 6043   7.236   5.991   8.532
 2525W        W 6044   1.179   7.422   0.995
 2526W        W 6045   0.569   0.836  11.969
 2527W        W 6046   1.479   3.382   8.636
 2528W        W 6047   8.995   8.190   1.158
 2529W        W 6048   3.981   3.824   2.636
 2530W        W 6049   7.238   7.528   1.219
 2531W        W 6050   9.468   8.370  11.790
 2532W        W 6051   4.930   8.010   9.043
 2533W        W 6052   4.696   3.656   0.743
 2534W        W 6053   6.314   5.676  10.057
 2535W        W 6054   5.227   1.820  11.361
 2536W        W 6055   0.746   8.092   1.607
 2537W        W 6056   3.407   7.680   9.330
 2538W        W 6057   5.867   2.456   2.713
 2539W        W 6058   7.979   4.407  10.676
 2540W        W 6059   2.721   6.103   0.630
 2541W        W 6060   7.866   9.340   2.984
 2542W        W 6061   4.494   5.248   2.257
 2543W        W 6062   3.101   1.358   1.803
 2544W        W 6063   4.958   0.031   8.602
 2545W        W 6064   7.491   2.937  11.025
 2546W        W 6065   2.338   6.659  11.008
 2547W        W 6066   1.342   7.188  11.674
 2548W        W 6067   9.523   6.935   8.797
 2549W        W 6068   6.465   1.132   2.128
 2550W        W 6069   0.644   7.130  11.346
 2551W        W 6070   2.111   8.775  10.961
 2552W        W 6071   4.471   7.347   2.723
 2553W        W 6072   5.618   4.045  10.413
 2554W        W 6073   8.043   7.322  10.223
 2555W        W 6074   0.610   8.994   0.951
 2556W        W 6075   2.712   3.131   9.245
 2557W        W 6076   5.444   0.693   2.946
 2558W        W 6077   6.033   2.778   1.123
 2559W        W 6078   7.387   3.232   2.202
 2560W        W 6079   9.268   0.849   3.356
 2561W        W 6080   5.450   4.078   9.337
 2562W        W 6081   1.044   4.556   1.021
 2563W        W 6082   6.991   2.082   1.915
 2564W        W 6083   4.221   2.308   0.447
 2565W        W 6084   6.457   5.317   0.598
 2566W        W 6085   6.498   7.990   0.994
 2567W        W 6086   5.993   8.295   0.265
 2568W        W 6087   2.556   1.234   0.887
 2569W        W 6088   6.626   6.486   3.985
 2570W        W 6089   5.859   4.814   8.964
 2571W        W 6090   5.358   0.363   8.744
 2572W        W 6091   8.367   6.330  11.605
 2573W        W 6092   6.467   9.768  10.447
 2574W        W 6093   7.181   5.661   0.520
 2575W        W 6094   0.344   6.953  11.770
 2576W        W 6095   7.075   1.599   1.769
 2577W        W 6096   8.129   1.133   2.114
 2578W        W 6097   5.721   3.072   9.505
 2579W        W 6098   8.868   9.568   2.714
 2580W        W 6099   4.113   3.677   3.086
 2581W        W 6100   9.360   4.014  10.316
 2582W        W 6101   4.128   3.333  11.461
 2583W        W 6102   6.615   7.163   2.442
 2584W        W 6103   1.861   3.096   8.844
 2585W        W 6104   8.176   2.250  10.920
 2586W        W 6105   2.206   7.045   3.030
 2587W        W 6106   7.796   1.222  11.512
 2588W        W 6107   0.404   1.206   2.015
 2589W        W 6108   8.982   1.266  11.138
 2590W        W 6109   3.608   3.183   9.838
 2591W        W 6110   3.587   4.276   2.008
 2592W        W 6111   1.302   6.634  10.076
 2593W        W 6112   2.089   8.905   2.588
 2594W        W 6113   4.340   1.141   0.994
 2595W        W 6114   1.300   2.913   8.983
 2596W        W 6115   7.109   6.543   3.051
 2597W        W 6116   5.477   6.111  11.188
 2598W        W 6117   8.499   5.911   3.341
 2599W        W 6118   7.554   3.419  10.922
 2600W        W 6119   7.078   2.548   0.821
 2601W        W 6120   3.661   2.111   2.352
 2602W        W 6121   5.659   3.613   9.443
 2603W        W 6122   4.306   3.678  10.110
 2604W        W 6123   0.781   7.894   0.531
 2605W        W 6124   6.643   2.120   2.328
 2606W        W 6125   6.538   7.898  11.019
 2607W        W 6126   9.840   4.190  10.305
 2608W        W 6127   9.734   1.190   9.551
 2609W        W 6128   9.431   2.215   0.774
 2610W        W 6129   5.211   9.237   0.815
 2611W        W 6130   1.139   0.186   9.382
 2612W        W 6131   1.177   4.729   1.473
 2613W        W 6132   9.908   8.300   9.492
 2614W        W 6133   9.929   2.632  11.310
 2615W        W 6134   3.814   5.151   3.008
 2616W        W 6135   7.062   6.008   8.045
 2617W        W 6136   9.390   7.914  11.517
 2618W        W 6137   4.664   6.153   3.615
 2619W        W 6138   4.608   2.057   1.391
 2620W        W 6139   7.586   1.746   0.506
 2621W        W 6140   3.019   5.716  11.736
 2622W        W 6141   2.060   7.901   9.128
 2623W        W 6142   6.909   1.425   3.911
 2624W        W 6143   2.547   2.834  11.750
 2625W        W 6144   3.132   3.323   1.281
 2626W        W 6145   1.841   5.910   3.806
 2627W        W 6146   1.577   4.834   9.481
 2628W        W 6147   9.933   1.487   0.459
 2629W        W 6148   1.354   9.785  10.046
 2630W        W 6149   1.347   5.827   9.585
 2631W        W 6150   9.573   3.930   8.996
 2632W        W 6151   0.985   8.476   2.767
 2633W        W 6152   7.864   5.182  10.148
 2634W        W 6153   8.257   6.137   8.375
 2635W        W 6154   7.042   6.533   9.793
 2636W        W 6155   7.448   7.051   3.251
 2637W        W 6156   0.509   7.042   3.687
 2638W        W 6157   9.756   0.638  10.350
 2639W        W 6158   2.632   7.458   1.931
 2640W        W 6159   1.720   6.156   0.196
 2641W        W 6160   2.641   5.511  11.473
 2642W        W 6161   3.175   9.450   9.058
 2643W        W 6162   1.992   5.943  10.879
 2644W        W 6163   9.026   8.370   9.501
 2645W        W 6164   3.030   7.781   0.477
 2646W        W 6165   1.296   8.828   9.537
 2647W        W 6166   9.379   3.969  11.265
 2648W        W 6167   0.264   9.382  10.128
 2649W        W 6168   1.784   3.958  10.735
 2650W        W 6169   0.226   6.606   9.406
 2651W        W 6170   7.646   0.826  10.319
 2652W        W 6171   7.779   5.124   2.041
 2653W        W 6172   5.569   1.152   3.089
 2654W        W 6173   9.933   0.813   9.248
 2655W        W 6174   3.329   2.193   3.039
 2656W        W 6175   7.486   1.675   3.371
 2657W        W 6176   2.687   0.062   2.682
 2658W        W 6177   7.861   5.328   3.362
 2659W        W 6178   8.100   8.068  11.467
 2660W        W 6179   5.351   6.174   1.287
 2661W        W 6180   4.196   7.087   3.192
 2662W        W 6181   0.361   7.686   1.417
 2663W        W 6182   5.176   3.113   3.666
 2664W        W 6183   7.496   3.156   0.726
 2665W        W 6184   2.227   7.391   1.054
 2666W        W 6185   6.743   9.328   9.539
 2667W        W 6186   1.406   1.467   2.567
 2668W        W 6187   3.542   7.821  11.690
 2669W        W 6188   9.870   9.654   3.537
 2670W        W 6189   5.613   8.804   8.797
 2671W        W 6190   4.940   6.497  10.150
 2672W        W 6191   0.532   0.198   1.843
 2673W        W 6192   2.093   8.720   0.055
 2674W        W 6193   9.743   4.943   9.633
 2675W        W 6194   9.880   7.347   9.852
 2676W        W 6195   5.641   2.673   9.068
 2677W        W 6196   7.470   1.620  10.673
 2678W        W 6197   9.252   7.511  10.885
 2679W        W 6198   7.591   5.778   9.352
 2680W        W 6199   7.724   6.538   2.393
 2681W        W 6200   0.835   6.125   1.922
 2682W        W 6201   1.700   1.916   1.040
 2683W        W 6202   2.347   7.555  10.521
 2684W        W 6203   1.015   5.392  10.188
 2685W        W 6204   6.984   7.791  10.301
 2686W        W 6205   0.941   1.777   8.518
 2687W        W 6206   5.895   1.053   0.841
 2688W        W 6207   6.581   9.804   1.805
 2689W        W 6208   2.659   9.808  11.368
 2690W        W 6209   0.934   9.996  10.249
 2691W        W 6210   6.136   6.679   0.894
 2692W        W 6211   9.396   4.388  11.572
 2693W        W 6212   8.090   3.915  10.560
 2694W        W 6213   7.985   3.648   2.788
 2695W        W 6214   0.572   3.752   2.622
 2696W        W 6215   9.278   9.750   9.947
 2697W        W 6216   0.289   1.167  11.710
 2698W        W 6217   6.723   7.020  10.662
 2699W        W 6218   8.947   4.239  10.111
 2700W        W 6219   3.127   2.402  10.582
 2701W        W 6220   4.214   0.650   0.003
 2702W        W 6221   4.363   4.132   2.602
 2703W        W 6222   9.999   9.346  10.558
 2704W        W 6223   2.104   8.582   2.170
 2705W        W 6224   0.536   3.065   9.979
 2706W        W 6225   0.601   4.952   1.553
 2707W        W 6226   5.316   5.272  10.133
 2708W        W 6227   1.192   6.506   3.575
 2709W        W 6228   1.054   5.157   1.692
 2710W        W 6229   3.399   0.312   2.905
 2711W        W 6230   8.866   6.924   1.616
 2712W        W 6231   4.479   9.522  11.784
 2713W        W 6232   0.738   5.342   2.956
 2714W        W 6233   9.641   1.723   0.799
 2715W        W 6234   7.151   7.276   2.505
 2716W        W 6235   8.309   1.911  10.264
 2717W        W 6236   6.197   2.837   2.622
 2718W        W 6237   5.433   9.099   3.028
 2719W        W 6238   6.494   9.449   0.520
 2720W        W 6239   5.667   1.416   1.103
 2721W        W 6240   0.614   2.866   1.240
 2722W        W 6241   2.451   7.023   9.250
 2723W        W 6242   5.506   9.309   8.802
 2724W        W 6243   3.883   1.261  11.836
 2725W        W 6244   7.716   7.145  11.343
 2726W        W 6245   7.288   1.150   9.477
 2727W        W 6246   6.454   5.585  10.577
 2728W        W 6247   6.214   0.813   8.812
 2729W        W 6248   2.770   0.967   3.288
 2730W        W 6249   3.035   8.077  11.997
 2731W        W 6250   2.821   7.444  10.709
 2732W        W 6251   1.111   2.746   1.200
 2733W        W 6252   8.933   4.934   1.375
 2734W        W 6253   2.593   6.002   8.855
 2735W        W 6254   4.078   7.494  10.252
 2736W        W 6255   1.168   8.290   1.896
 2737W        W 6256   6.921   8.501   1.385
 2738W        W 6257   9.582   7.800   8.628
 2739W        W 6258   0.850   0.234   2.283
 2740W        W 6259   6.719   7.243   1.678
 2741W        W 6260   1.055   8.868  11.004
 2742W        W 6261   3.743   0.615   9.256
 2743W        W 6262   5.676   4.464   1.930
 2744W        W 6263   0.078   0.856  11.282
 2745W        W 6264   1.963   3.375  10.921
 2746W        W 6265   0.168   7.748  11.002
 2747W        W 6266   4.482   5.032  10.253
 2748W        W 6267   5.464   9.682  10.517
 2749W        W 6268   9.789   5.415   9.465
 2750W        W 6269   4.670   2.063   8.559
 2751W        W 6270   5.099   0.760   1.421
 2752W        W 6271   3.208   5.541   9.232
 2753W        W 6272   0.616   6.562   0.911
 2754W        W 6273   3.673   1.639   9.170
 2755W        W 6274   9.186   0.344   3.413
 2756W        W 6275   0.781   1.191   0.285
 2757W        W 6276   6.182   4.986  10.711
 2758W        W 6277   0.382   1.462   2.470
 2759W        W 6278   5.506   0.692  10.584
 2760W        W 6279   9.979   6.432   2.946
 2761W        W 6280   9.176   5.562   1.911
 2762W        W 6281   2.818   8.479   0.208
 2763W        W 6282   9.023   6.577   0.205
 2764W        W 6283   0.858   4.128  10.763
 2765W        W 6284   4.954   0.413   0.369
 2766W        W 6285   3.509   5.089   0.806
 2767W        W 6286   4.955   6.920  11.015
 2768W        W 6287   0.232   5.928  10.453
 2769W        W 6288   8.770   3.011   1.718
 2770W        W 6289   7.663   4.265  11.796
 2771W        W 6290   3.075   2.533  11.094
 2772W        W 6291   9.820   8.001  11.827
 2773W        W 6292   6.523   6.503   9.041
 2774W        W 6293   6.133   4.170  10.421
 2775W        W 6294   0.732   8.184  10.482
 2776W        W 6295   2.080   5.550   2.003
 2777W        W 6296   1.509   8.868  10.433
 2778W        W 6297   2.213   7.706   0.056
 2779W        W 6298   9.044   8.755  11.995
 2780W        W 6299   0.871   3.828   3.458
 2781W        W 6300   9.829   7.938   3.541
 2782W        W 6301   1.782   4.222   1.552
 2783W        W 6302   8.347   0.816   0.899
 2784W        W 6303   3.938   5.999   2.564
 2785W        W 6304   4.368   6.024   1.778
 2786W        W 6305   4.567   0.821   8.810
 2787W        W 6306   3.649   5.870   0.981
 2788W        W 6307   0.397   1.362   0.634
 2789W        W 6308   7.556   6.560   1.091
 2790W        W 6309   2.672   6.164   1.128
 2791W        W 6310   0.150   8.959   2.851
 2792W        W 6311   0.573   5.730   8.928
 2793W        W 6312   8.805   1.251   9.669
 2794W        W 6313   2.640   0.197   0.702
 2795W        W 6314   6.700   7.567   1.246
 2796W        W 6315   2.701   6.655   1.295
 2797W        W 6316   6.266   8.758   1.587
 2798W        W 6317   1.775   2.805   1.642
 2799W        W 6318   4.736   2.934   9.437
 2800W        W 6319   0.616   7.547   9.219
 2801W        W 6320   3.385   3.890  10.620
 2802W        W 6321   4.252   5.830  11.397
 2803W        W 6322   6.067   9.367   9.833
 2804W        W 6323   6.229   4.578   1.281
 2805W        W 6324   8.166   4.932   3.533
 2806W        W 6325   7.865   4.377   2.682
 2807W        W 6326   9.293   0.169  11.911
 2808W        W 6327   1.320   5.994   1.090
 2809W        W 6328   4.850   6.146   1.929
 2810W        W 6329   8.878   2.754   0.762
 2811W        W 6330   5.127   6.947   0.853
 2812W        W 6331   8.554   6.948   8.692
 2813W        W 6332   9.922   8.517  10.514
 2814W        W 6333   9.026   6.822  11.341
 2815W        W 6334   6.246   1.970   1.591
 2816W        W 6335   8.134   0.709   1.786
 2817W        W 6336   8.270   0.160  10.448
 2818W        W 6337   8.219   9.266   0.332
 2819W        W 6338   5.760   0.486   2.586
 2820W        W 6339   6.538   6.708   0.570
 2821W        W 6340   4.520   1.876  10.834
 2822W        W 6341   4.495   6.105   0.802
 2823W        W 6342   0.756   4.840   2.934
 2824W        W 6343   2.412   8.849  10.547
 2825W        W 6344   9.786   6.148  10.563
 2826W        W 6345   9.810   4.935   1.367
 2827W        W 6346   9.582   2.723   2.697
 2828W        W 6347   6.885   4.574  10.574
 2829W        W 6348   2.139   2.096   8.628
 2830W        W 6349   1.240   7.704   8.549
 2831W        W 6350   2.210   2.329   9.097
 2832W        W 6351   5.772   6.884  10.343
 2833W        W 6352   9.485   0.542   2.558
 2834W        W 6353   4.145   4.616   9.577
 2835W        W 6354   3.817   1.329   3.439
 2836W        W 6355   2.292   4.860   0.014
 2837W        W 6356   3.663   6.358   2.770
 2838W        W 6357   1.564   4.130   0.431
 2839W        W 6358   2.121   2.654   2.960
 2840W        W 6359   2.375   3.437   3.717
 2841W        W 6360   1.421   8.985   0.761
 2842W        W 6361   2.768   9.245   8.762
 2843W        W 6362   3.346   8.174  11.261
 2844W        W 6363   6.412   9.244   1.584
 2845W        W 6364   2.792   5.942   3.586
 2846W        W 6365   3.783   2.236  11.731
 2847W        W 6366   7.571   2.407   0.764
 2848W        W 6367   5.606   4.480   2.426
 2849W        W 6368   8.585   1.632   9.395
 2850W        W 6369   8.916   2.369   9.208
 2851W        W 6370   8.932   1.332   9.148
 2852W        W 6371   2.189   9.688   1.637
 2853W        W 6372   9.250   1.339   0.781
 2854W        W 6373   5.498   7.373   2.767
 2855W        W 6374   6.556   4.299   2.624
 2856W        W 6375   2.148   0.010   9.566
 2857W        W 6376   2.580   8.010   0.241
 2858W        W 6377   6.478   3.386   2.712
 2859W        W 6378   5.695   5.724   0.451
 2860W        W 6379   3.155   9.520  10.531
 2861W        W 6380   4.681   4.095   8.653
 2862W        W 6381   2.382   4.058   2.333
 2863W        W 6382   0.885   4.527   0.548
 2864W        W 6383   6.410   8.875   2.669
 2865W        W 6384   8.838   8.836   9.455
 2866W        W 6385   0.618   5.586  11.840
 2867W        W 6386   4.039   6.134   8.631
 2868W        W 6387   8.091   7.486   9.183
 2869W        W 6388   6.913   3.363   8.982
 2870W        W 6389   2.884   1.808  11.992
 2871W        W 6390   5.981   6.890   1.325
 2872W        W 6391   6.940   4.099  11.339
 2873W        W 6392   5.398   6.941   9.020
 2874W        W 6393   2.744   9.299  11.191
 2875W        W 6394   5.081   0.533   1.986
 2876W        W 6395   3.762   0.572  11.345
 2877W        W 6396   1.787   8.318   2.449
 2878W        W 6397   7.254   7.650  10.752
 2879W        W 6398   0.855   1.063   1.783
 2880W        W 6399   1.994   4.472   9.542
 2881W        W 6400   3.695   1.062  11.397
 2882W        W 6401   9.578   1.932   2.903
 2883W        W 6402   8.097   1.749   2.662
 2884W        W 6403   0.833   3.478   2.968
 2885W        W 6404   6.868   1.898   8.836
 2886W        W 6405   6.585   1.658  11.872
 2887W        W 6406   2.910   8.744  10.481
 2888W        W 6407   0.654   8.058   9.327
 2889W        W 6408   7.158   4.389  11.896
 2890W        W 6409   8.965   1.453   0.080
 2891W        W 6410   7.549   0.755   0.294
 2892W        W 6411   8.602   7.587   2.734
 2893W        W 6412   5.628   7.861  10.913
 2894W        W 6413   7.892   7.768   3.550
 2895W        W 6414   9.354   5.418   8.682
 2896W        W 6415   9.233   1.171   8.749
 2897W        W 6416   8.951   8.797   2.396
 2898W        W 6417   8.259   9.664  10.222
 2899W        W 6418   8.456   3.183   1.360
 2900W        W 6419   8.572   2.995   3.567
 2901W        W 6420   6.214   6.301   3.710
 2902W        W 6421   1.403   3.135   9.778
 2903W        W 6422   3.944   6.618   3.138
 2904W        W 6423   0.921   3.815   1.565
 2905W        W 6424   1.156   7.913   9.237
 2906W        W 6425   6.932   7.092   1.230
 2907W        W 6426   9.953   5.516   0.532
 2908W        W 6427   6.042   0.915   2.287
 2909W        W 6428   5.228   6.428   2.834
 2910W        W 6429   6.988   9.130   0.967
 2911W        W 6430   5.434   9.351   1.648
 2912W        W 6431   3.800   4.193   8.589
 2913W        W 6432   1.753   1.037   9.215
 2914W        W 6433   6.175   7.494   1.301
 2915W        W 6434   7.028   5.285   9.335
 2916W        W 6435   6.989   1.436  10.809
 2917W        W 6436   9.819   9.890   2.513
 2918W        W 6437   3.963   5.847   1.443
 2919W        W 6438   6.140   3.613  10.895
 2920W        W 6439   1.306   5.927  11.495
 2921W        W 6440   6.491   5.453  11.936
 2922W        W 6441   7.754   8.482  10.287
 2923W        W 6442   3.730   2.343   0.241
 2924W        W 6443   4.889   0.556   3.523
 2925W        W 6444   9.922   6.254   2.459
 2926W        W 6445   3.194   2.224   2.542
 2927W        W 6446   0.274   0.072  10.880
 2928W        W 6447   1.208   2.839   2.601
 2929W        W 6448   0.187   6.903   1.743
 2930W        W 6449   8.581   8.441  11.047
 2931W        W 6450   8.692   4.434   2.681
 2932W        W 6451   9.287   6.064  10.519
 2933W        W 6452   9.744   0.310   9.249
 2934W        W 6453   3.565   3.489   9.394
 2935W        W 6454   8.065   7.231   0.917
 2936W        W 6455   5.574   3.408  11.560
 2937W        W 6456   0.860   5.276   9.692
 2938W        W 6457   4.607   0.025  10.080
 2939W        W 6458   5.659   5.490   9.407
 2940W        W 6459   6.229   6.153   8.324
 2941W        W 6460   6.713   6.422   2.727
 2942W        W 6461   8.570   2.182  11.265
 2943W        W 6462   0.985   0.516   1.878
 2944W        W 6463   0.224   1.225   9.674
 2945W        W 6464   3.072   3.529   2.453
 2946W        W 6465   6.245   6.701   8.184
 2947W        W 6466   3.536   7.644   2.144
 2948W        W 6467   9.404   8.484   0.748
 2949W        W 6468   5.298   4.768   8.774
 2950W        W 6469   8.942   8.904   3.252
 2951W        W 6470   7.995   1.936   0.231
 2952W        W 6471   1.499   5.577  10.017
 2953W        W 6472   6.471   8.137   0.043
 2954W        W 6473   0.901   0.608   0.775
 2955W        W 6474   5.674   9.194   3.463
 2956W        W 6475   6.077   5.731   9.074
 2957W        W 6476   1.818   0.911   9.702
 2958W        W 6477   0.381   6.137   9.696
 2959W        W 6478   5.689   1.225   2.095
 2960W        W 6479   5.401   2.255  10.884
 2961W        W 6480   1.360   2.417   0.869
 2962W        W 6481   5.278   8.978  11.981
 2963W        W 6482   2.697   0.242   2.182
 2964W        W 6483   1.660   5.656   2.276
 2965W        W 6484   9.015   6.512   2.057
 2966W        W 6485   7.037   3.035   0.979
 2967W        W 6486   7.064   9.546  11.189
 2968W        W 6487   6.490   0.219  11.284
 2969W        W 6488   3.743   1.434   0.316
 2970W        W 6489   3.796   5.616   3.232
 2971W        W 6490   8.997   8.621  11.476
 2972W        W 6491   4.450   3.063  11.167
 2973W        W 6492   8.155   5.943   2.944
 2974W        W 6493   0.735   1.156   9.597
 2975W        W 6494   6.991   6.876   2.219
 2976W        W 6495   0.525   9.294   2.049
 2977W        W 6496   2.153   2.041  11.395
 2978W        W 6497   2.630   2.426  11.411
 2979W        W 6498   7.109   4.195  10.843
 2980W        W 6499   7.827   7.114  11.870
 2981W        W 6500   6.000   4.095  11.479
 2982W        W 6501   8.735   1.769   8.920
 2983W        W 6502   1.702   1.805   2.795
 2984W        W 6503   0.248   1.138   0.212
 2985W        W 6504   7.439   3.520   3.519
 2986W        W 6505   1.486   1.246  10.493
 2987W        W 6506   6.661   3.895   8.161
 2988W        W 6507   6.076   8.771   1.073
 2989W        W 6508   8.435   7.683  11.516
 2990W        W 6509   0.246   4.662   1.300
 2991W        W 6510   9.052   1.639   3.551
 2992W        W 6511   4.210   1.128   8.567
 2993W        W 6512   0.473   9.326   2.640
 2994W        W 6513   5.783   1.821   1.807
 2995W        W 6514   7.194   9.471   9.315
 2996W        W 6515   9.777   9.403  10.037
 2997W        W 6516   1.352   5.392  11.176
 2998W        W 6517   2.327   7.173  10.882
 2999W        W 6518   9.666   6.499   0.682
 3000W        W 6519   5.644   9.841   2.798
 3001W        W 6520   4.886   4.335  10.003
 3002W        W 6521   8.384   9.544   9.732
 3003W        W 6522   0.845   3.351   1.910
 3004W        W 6523   0.325   4.828   2.205
 3005W        W 6524   6.608   6.015  11.497
 3006W        W 6525   2.275   7.205   0.096
 3007W        W 6526   3.982   7.674  11.305
 3008W        W 6527   6.043   1.693  11.653
 3009W        W 6528   7.643   6.584  10.384
 3010W        W 6529   7.582   4.214   1.637
 3011W        W 6530   3.312   2.002   9.102
 3012W        W 6531   2.272   5.298   9.498
 3013W        W 6532   9.979   6.256  11.396
 3014W        W 6533   2.142   8.219   0.011
 3015W        W 6534   0.314   9.805   2.612
 3016W        W 6535   9.710   7.381   2.908
 3017W        W 6536   2.521   3.007   8.738
 3018W        W 6537   8.593   6.425   8.701
 3019W        W 6538   9.940   4.877   2.764
 3020W        W 6539   1.287   2.453   0.349
 3021W        W 6540   1.820   4.975   0.219
 3022W        W 6541   3.860   8.062   1.985
 3023W        W 6542   3.226   1.492  10.838
 3024W        W 6543   1.070   5.001   9.288
 3025W        W 6544   7.573   6.733  11.604
 3026W        W 6545   7.388   3.221   9.279
 3027W        W 6546   0.877   5.314   8.892
 3028W        W 6547   2.584   3.671   9.311
 3029W        W 6548   7.286   3.935  11.703
 3030W        W 6549   9.599   1.927   1.854
 3031W        W 6550   0.583   7.188   3.213
 3032W        W 6551   3.078   5.300   0.019
 3033W        W 6552   5.414   7.448   0.884
 3034W        W 6553   4.211   1.816   3.038
 3035W        W 6554   7.453   7.365   1.684
 3036W        W 6555   5.767   2.134   2.318
 3037W        W 6556   1.974   5.290   0.698
 3038W        W 6557   5.779   1.014   9.053
 3039W        W 6558   2.515   2.005   3.436
 3040W        W 6559   5.569   2.754   1.325
 3041W        W 6560   2.262   0.533   2.194
 3042W        W 6561   2.666   7.362   8.916
 3043W        W 6562   4.534   9.953   1.065
 3044W        W 6563   5.153   5.038   2.807
 3045W        W 6564   7.489   5.317   3.026
 3046W        W 6565   2.744   7.823  10.249
 3047W        W 6566   6.267   0.280   8.705
 3048W        W 6567   9.209   9.754   8.455
 3049W        W 6568   0.002   1.718  11.202
 3050W        W 6569   9.930   8.852   3.398
 3051W        W 6570   7.201   4.753   3.052
 3052W        W 6571   5.576   7.875  11.938
 3053W        W 6572   7.726   8.747   9.523
 3054W        W 6573   3.509   9.306   1.961
 3055W        W 6574   8.667   4.970  10.879
 3056W        W 6575   8.767   9.483  10.108
 3057W        W 6576   8.481   4.141  10.278
 3058W        W 6577   0.335   4.616   9.177
 3059W        W 6578   9.070   9.310   0.470
 3060W        W 6579   8.821   5.120   9.873
 3061W        W 6580   1.924   0.387  11.461
 3062W        W 6581   7.510   9.091   9.230
 3063W        W 6582   7.222   0.362  11.358
 3064W        W 6583   2.150   9.937  11.494
 3065W        W 6584   4.627   6.937   0.688
 3066W        W 6585   2.774   6.005  10.304
 3067W        W 6586   6.932   1.736   3.208
 3068W        W 6587   5.281   7.016  10.529
 3069W        W 6588   8.184   9.296   2.312
 3070W        W 6589   0.500   9.977   3.480
 3071W        W 6590   8.349   7.547   1.761
 3072W        W 6591   9.018   9.823  11.455
 3073W        W 6592   4.348   8.246   1.114
 3074W        W 6593   9.128   1.800   2.569
 3075W        W 6594   1.405   7.647  11.478
 3076W        W 6595   8.397   1.095   3.386
 3077W        W 6596   3.222   0.176   3.359
 3078W        W 6597   8.390   9.373   2.770
 3079W        W 6598   7.454   7.921   1.963
 3080W        W 6599   8.172   2.690  10.548
 3081W        W 6600   6.910   1.578  11.452
 3082W        W 6601   2.234   9.874   2.896
 3083W        W 6602   9.339   7.738   9.073
 3084W        W 6603   9.880   3.273   9.399
 3085W        W 6604   8.023   5.499   9.456
 3086W        W 6605   7.924   4.334   1.991
 3087W        W 6606   6.127   2.318   9.476
 3088W        W 6607   9.503   2.290  11.738
 3089W        W 6608   0.965   9.216   0.677
 3090W        W 6609   2.111   2.236   3.249
 3091W        W 6610   2.528   6.306   0.038
 3092W        W 6611   5.589   6.602   9.605
 3093W        W 6612   7.646   0.289  11.598
 3094W        W 6613   8.224   0.204   9.184
 3095W        W 6614   4.268   3.292   8.241
 3096W        W 6615   5.355   9.807   8.797
 3097W        W 6616   0.273   9.120  11.349
 3098W        W 6617   6.355   1.975   1.076
 3099W        W 6618   1.405   4.358   9.228
 3100W        W 6619   2.250   0.330   1.445
 3101W        W 6620   7.064   5.013   8.431
 3102W        W 6621   4.043   9.426  10.511
 3103W        W 6622   3.561   6.060   8.352
 3104W        W 6623   1.366   9.017  11.389
 3105W        W 6624   5.978   1.036   9.900
 3106W        W 6625   1.851   7.880   2.011
 3107W        W 6626   0.170   6.779  11.328
 3108W        W 6627   4.257   7.008  10.237
 3109W        W 6628   7.051   5.192   3.286
 3110W        W 6629   7.143   6.089   1.408
 3111W        W 6630   1.781   8.490  10.701
 3112W        W 6631   7.426   9.409   9.768
 3113W        W 6632   6.127   4.257   1.677
 3114W        W 6633   4.315   9.406   2.334
 3115W        W 6634   7.164   5.910  10.586
 3116W        W 6635   3.375   6.370   1.806
 3117W        W 6636   3.983   2.507   2.288
 3118W        W 6637   0.309   8.159   8.939
 3119W        W 6638   0.732   6.686  10.386
 3120W        W 6639   1.189   4.661   3.522
 3121W        W 6640   0.813   9.971  10.738
 3122W        W 6641   1.056   7.772   1.346
 3123W        W 6642   7.803   0.706  11.861
 3124W        W 6643   9.516   8.971   9.879
 3125W        W 6644   3.297   8.957  11.744
 3126W        W 6645   3.157   2.789  10.185
 3127W        W 6646   9.453   4.535  10.390
 3128W        W 6647   5.224   2.038  10.399
 3129W        W 6648   9.060   5.041   8.902
 3130W        W 6649   4.011   9.830   2.345
 3131W        W 6650   5.673   7.492   1.368
 3132W        W 6651   0.527   5.656   2.137
 3133W        W 6652   4.665   7.889  11.836
 3134W        W 6653   5.076   1.176   9.813
 3135W        W 6654   4.063   9.433  11.525
 3136W        W 6655   7.444   5.152   2.429
 3137W        W 6656   4.627   2.828  10.489
 3138W        W 6657   2.462   6.595   3.161
 3139W        W 6658   0.240   9.755   1.774
 3140W        W 6659   7.785   7.854   2.734
 3141W        W 6660   1.443   2.173  10.089
 3142W        W 6661   8.571   8.606  11.787
 3143W        W 6662   3.542   4.560   0.487
 3144W        W 6663   1.814   6.749   3.171
 3145W        W 6664   8.255   7.945   2.579
 3146W        W 6665   9.205   6.042  11.888
 3147W        W 6666   9.283   0.964   2.879
 3148W        W 6667   0.340   7.806  10.527
 3149W        W 6668   1.875   2.377   0.933
 3150W        W 6669   3.577   2.583  10.355
 3151W        W 6670   6.214   2.691   0.664
 3152W        W 6671   7.647   5.308   9.158
 3153W        W 6672   9.900   7.111   0.052
 3154W        W 6673   7.937   1.628   1.817
 3155W        W 6674   2.936   8.636   9.931
 3156W        W 6675   4.982   1.369  11.359
 3157W        W 6676   4.648   6.530   1.507
 3158W        W 6677   5.651   6.821   0.725
 3159W        W 6678   5.863   0.308   9.440
 3160W        W 6679   2.252   7.919  10.180
 3161W        W 6680   0.034   4.226  10.775
 3162W        W 6681   9.873   3.455   0.281
 3163W        W 6682   8.016   5.767  10.449
 3164W        W 6683   4.629   6.293   9.458
 3165W        W 6684   8.559   0.581  11.222
 3166W        W 6685   8.950   5.743   0.797
 3167W        W 6686   6.048   6.695   9.109
 3168W        W 6687   1.292   3.095  11.672
 3169W        W 6688   4.275   5.539   1.895
 3170W        W 6689   4.118   1.328  11.238
 3171W        W 6690   9.225   4.602   0.478
 3172W        W 6691   4.807   0.910   2.181
 3173W        W 6692   6.869   2.319  10.801
 3174W        W 6693   4.874   1.592   1.380
 3175W        W 6694   5.278   0.230   0.732
 3176W        W 6695   2.110   4.953   3.655
 3177W        W 6696   3.326   6.585  11.747
 3178W        W 6697   4.712   1.760   2.750
 3179W        W 6698   3.605   1.107   9.078
 3180W        W 6699   3.532   4.551   7.854
 3181W        W 6700   2.765   3.762  11.147
 3182W        W 6701   2.678   4.336   9.814
 3183W        W 6702   1.318   2.647  11.359
 3184W        W 6703   3.280   0.798   9.387
 3185W        W 6704   6.109   5.550   4.109
 3186W        W 6705   0.865   6.976   0.371
 3187W        W 6706   1.593   3.036  10.817
 3188W        W 6707   9.220   8.361   0.269
 3189W        W 6708   6.932   5.137   2.302
 3190W        W 6709   5.431   7.114  11.024
 3191W        W 6710   6.005   9.540  11.278
 3192W        W 6711   8.129   2.633   2.436
 3193W        W 6712   5.234   9.984   0.281
 3194W        W 6713   6.956   9.852   2.185
 3195W        W 6714   5.193   5.098  10.897
 3196W        W 6715   3.837   8.907   3.158
 3197W        W 6716   9.377   3.440  11.123
 3198W        W 6717   4.435   7.091   2.282
 3199W        W 6718   0.403   6.424   1.714
 3200W        W 6719   5.362   4.521   3.301
 3201W        W 6720   0.812   1.080   9.082
 3202W        W 6721   5.067   1.471   3.116
 3203W        W 6722   6.598   9.235  11.342
 3204W        W 6723   1.783   4.267  11.536
 3205W        W 6724   8.307   7.073   0.022
 3206W        W 6725   4.509   6.437   9.915
 3207W        W 6726   6.691   3.815   9.684
 3208W        W 6727   8.637   1.083  10.324
 3209W        W 6728   3.363   2.587  11.955
 3210W        W 6729   0.412   9.667  10.570
 3211W        W 6730   1.344   6.002   3.053
 3212W        W 6731   7.351   4.454   9.193
 3213W        W 6732   5.204   1.523  10.417
 3214W        W 6733   3.596   4.978   9.159
 3215W        W 6734   8.593   4.315  11.821
 3216W        W 6735   4.356   4.272   1.454
 3217W        W 6736   9.546   1.861   3.405
 3218W        W 6737   3.073   3.822  10.217
 3219W        W 6738   6.411   6.286  11.074
 3220W        W 6739   5.279   7.748   3.567
 3221W        W 6740   0.431   4.377  10.508
 3222W        W 6741   1.373   0.322   1.573
 3223W        W 6742   1.239   2.409   2.282
 3224W        W 6743   9.961   1.732   9.831
 3225W        W 6744   1.753   7.487   9.786
 3226W        W 6745   2.350   3.386   2.733
 3227W        W 6746   5.220   3.660   3.203
 3228W        W 6747   0.518   2.141  10.068
 3229W        W 6748   1.608   1.016   2.684
 3230W        W 6749   7.542   4.771  11.880
 3231W        W 6750   6.545   7.663   0.331
 3232W        W 6751   6.756   4.756   3.283
 3233W        W 6752   6.868   9.347   3.146
 3234W        W 6753   2.088   9.182   3.012
 3235W        W 6754   0.423   6.383  11.166
 3236W        W 6755   4.223   3.088   3.092
 3237W        W 6756   2.231   5.606  11.174
 3238W        W 6757   5.711   3.573   2.173
 3239W        W 6758   9.002   1.032   0.392
 3240W        W 6759   3.182   7.088  10.558
 3241W        W 6760   4.300   4.637  11.868
 3242W        W 6761   0.695   8.287   0.850
 3243W        W 6762   0.852   7.656  10.494
 3244W        W 6763   0.862   1.556   2.673
 3245W        W 6764   4.303   2.426   8.693
 3246W        W 6765   0.101   0.699   1.416
 3247W        W 6766   0.356   1.852   0.436
 3248W        W 6767   0.189   5.715   3.352
 3249W        W 6768   4.743   1.286   3.487
 3250W        W 6769   9.509   6.643   1.145
 3251W        W 6770   6.945   0.176   1.775
 3252W        W 6771   4.235   1.642   2.544
 3253W        W 6772   5.026   5.899  11.112
 3254W        W 6773   6.661   8.221   9.013
 3255W        W 6774   8.091   9.106   1.849
 3256W        W 6775   4.321   6.239   9.048
 3257W        W 6776   7.114   1.635   9.227
 3258W        W 6777   8.920   3.996  11.047
 3259W        W 6778   2.941   6.668   3.380
 3260W        W 6779   6.051   4.373   9.145
 3261W        W 6780   1.625   3.565   9.630
 3262W        W 6781   9.832   9.520  11.991
 3263W        W 6782   6.882   7.703   0.745
 3264W        W 6783   9.819   6.896   2.869
 3265W        W 6784   2.021   0.846  10.708
 3266W        W 6785   4.150   2.018   2.192
 3267W        W 6786   6.885   7.789   8.830
 3268W        W 6787   9.463   0.795   9.033
 3269W        W 6788   0.632   4.741   9.607
 3270W        W 6789   6.661   6.038   3.674
 3271W        W 6790   8.613   5.753   2.866
 3272W        W 6791   8.507   1.272   2.418
 3273W        W 6792   9.299   2.676   1.061
 3274W        W 6793   5.961   6.170   0.866
 3275W        W 6794   1.978   1.671   1.410
 3276W        W 6795   7.909   9.731   2.353
 3277W        W 6796   7.008   6.994   0.346
 3278W        W 6797   9.344   0.081   2.310
 3279W        W 6798   0.470   0.346   0.523
 3280W        W 6799   3.711   0.741  10.308
 3281W        W 6800   2.390   0.631   3.521
 3282W        W 6801   8.739   4.125   8.494
 3283W        W 6802   6.471   4.627   1.750
 3284W        W 6803   2.499   5.490   8.470
 3285W        W 6804   7.600   2.255   0.262
 3286W        W 6805   0.728   3.995  10.289
 3287W        W 6806   3.697   1.564  11.384
 3288W        W 6807   4.882   7.246   8.600
 3289W        W 6808   1.368   6.335   8.722
 3290W        W 6809   9.569   5.007   0.579
 3291W        W 6810   4.622   2.718  11.900
 3292W        W 6811   8.052   6.514   9.566
 3293W        W 6812   1.782   3.294   1.479
 3294W        W 6813   7.674   9.858  11.871
 3295W        W 6814   7.043   4.863   0.038
 3296W        W 6815   7.594   8.444  11.791
 3297W        W 6816   9.953   0.942   0.570
 3298W        W 6817   6.295   5.330  11.465
 3299W        W 6818   5.192   4.541   9.222
 3300W        W 6819   4.188   3.965   3.515
 3301W        W 6820   4.498   3.167   1.698
 3302W        W 6821   9.952   9.431   2.711
 3303W        W 6822   7.074   8.184   1.755
 3304W        W 6823   7.725   3.070   9.685
 3305W        W 6824   0.838   9.765   0.012
 3306W        W 6825   3.474   3.808   2.541
 3307W        W 6826   5.414   7.874   9.036
 3308W        W 6827   5.875   9.632   1.720
 3309W        W 6828   3.941   2.701   0.574
 3310W        W 6829   5.067   3.334  10.582
 3311W        W 6830   6.568   6.967   4.242
 3312W        W 6831   8.118   8.612   1.824
 3313W        W 6832   3.919   0.287  11.805
 3314W        W 6833   0.329   0.414  11.241
 3315W        W 6834   7.935   1.358   1.261
 3316W        W 6835   0.155   1.715   0.923
 3317W        W 6836   3.506   8.875   3.572
 3318W        W 6837   3.860   6.388   3.780
 3319W        W 6838   6.327   0.166   9.607
 3320W        W 6839   8.068   6.425   0.331
 3321W        W 6840   6.371   4.825   9.060
 3322W        W 6841   0.788   4.854   2.417
 3323W        W 6842   2.944   2.274   3.390
 3324W        W 6843   5.454   1.489   9.682
 3325W        W 6844   6.637   5.588   3.957
 3326W        W 6845   8.412   7.971   3.061
 3327W        W 6846   9.942   9.958  11.267
 3328W        W 6847   2.182   1.025   2.128
 3329W        W 6848   2.410   6.934   9.994
 3330W        W 6849   8.952   3.465   2.938
 3331W        W 6850   7.462   3.737   1.456
 3332W        W 6851   1.073   6.633   1.847
 3333W        W 6852   6.012   2.725   9.791
 3334W        W 6853   8.821   1.497   0.576
 3335W        W 6854   9.060   9.643   2.246
 3336W        W 6855   4.740   7.062  10.496
 3337W        W 6856   3.899   5.878  11.768
 3338W        W 6857   6.113   3.200  10.518
 3339W        W 6858   9.807   8.799   9.474
 3340W        W 6859   9.257   0.867  10.906
 3341W        W 6860   5.568   8.358  11.779
 3342W        W 6861   0.648   8.680  10.694
 3343W        W 6862   7.411   9.139   0.507
 3344W        W 6863   1.164   5.084   1.003
 3345W        W 6864   4.669   1.773   9.003
 3346W        W 6865   2.074   2.640   8.680
 3347W        W 6866   5.626   5.229   0.355
 3348W        W 6867   1.209   6.251   0.070
 3349W        W 6868   5.588   9.373   9.683
 3350W        W 6869   1.747   0.879  10.253
 3351W        W 6870   6.516   2.123   0.071
 3352W        W 6871   2.288   9.939  10.994
 3353W        W 6872   5.797   9.079   0.013
 3354W        W 6873   0.229   1.669   3.902
 3355W        W 6874   3.758   3.756  11.865
 3356W        W 6875   2.168   6.067   2.020
 3357W        W 6876   8.102   7.098   8.864
 3358W        W 6877   4.891   4.041   0.474
 3359W        W 6878   5.149   6.843   0.345
 3360W        W 6879   7.947   5.475   1.369
 3361W        W 6880   6.056   5.626   0.819
 3362W        W 6881   1.015   4.117   9.536
 3363W        W 6882   3.420   0.337   9.534
 3364W        W 6883   6.304   8.640  11.402
 3365W        W 6884   8.439   2.628   9.224
 3366W        W 6885   9.464   0.319   8.795
 3367W        W 6886   7.703   5.090   1.041
 3368W        W 6887   7.979   7.600  11.241
 3369W        W 6888   3.482   6.019   1.450
 3370W        W 6889   0.752   1.688   8.975
 3371W        W 6890   6.861   7.523  11.226
 3372W        W 6891   0.845   9.661   0.944
 3373W        W 6892   4.039   3.058   0.921
 3374W        W 6893   7.832   8.225   9.840
 3375W        W 6894   1.868   7.144  11.764
 3376W        W 6895   0.148   7.848   9.315
 3377W        W 6896   5.370   4.282   9.792
 3378W        W 6897   7.501   5.710   3.465
 3379W        W 6898   8.283   4.173   0.606
 3380W        W 6899   0.957   2.303  11.542
 3381W        W 6900   4.816   6.479   0.671
 3382W        W 6901   4.693   0.863   2.676
 3383W        W 6902   6.350   7.579   9.890
 3384W        W 6903   3.680   0.470   1.748
 3385W        W 6904   9.762   6.752   2.373
 3386W        W 6905   4.734   0.338  11.384
 3387W        W 6906   7.402   8.293  10.951
 3388W        W 6907   3.768   0.062  11.373
 3389W        W 6908   0.542   3.695   1.232
 3390W        W 6909   3.220   5.926   0.553
 3391W        W 6910   7.935   8.162   1.773
 3392W        W 6911   3.929   5.899   9.537
 3393W        W 6912   9.250   5.462   3.251
 3394W        W 6913   8.558   7.446   0.826
 3395W        W 6914   9.648   5.281   0.163
 3396W        W 6915   8.124   0.649  10.295
 3397W        W 6916   2.706   4.412   8.482
 3398W        W 6917   0.479   0.848   0.573
 3399W        W 6918   6.869   6.499   3.535
 3400W        W 6919   9.568   3.368  11.871
 3401W        W 6920   9.228   8.186  10.082
 3402W        W 6921   3.081   4.362   0.373
 3403W        W 6922   4.703   6.689   3.621
 3404W        W 6923   3.656   0.741  10.821
 3405W        W 6924   9.685   1.770   1.308
 3406W        W 6925   9.840   0.251   1.193
 3407W        W 6926   2.634   0.714  11.859
 3408W        W 6927   5.127   6.373   3.672
 3409W        W 6928   8.987   9.958   9.544
 3410W        W 6929   5.709   0.139   1.826
 3411W        W 6930   4.977   9.392  11.916
 3412W        W 6931   0.330   7.987  11.763
 3413W        W 6932   7.753   6.756   9.034
 3414W        W 6933   4.524   7.915  10.895
 3415W        W 6934   8.697   0.320   3.227
 3416W        W 6935   3.056   3.369  11.448
 3417W        W 6936   2.229   5.997   0.924
 3418W        W 6937   9.052   0.759  10.429
 3419W        W 6938   8.390   9.337  11.852
 3420W        W 6939   5.193   1.940   8.512
 3421W        W 6940   0.783   8.078  11.511
 3422W        W 6941   7.952   3.398   1.298
 3423W        W 6942   2.236   4.371   2.770
 3424W        W 6943   8.028   4.667   9.895
 3425W        W 6944   3.779   8.886   0.748
 3426W        W 6945   0.450   4.234  11.069
 3427W        W 6946   4.992   2.069  11.752
 3428W        W 6947   4.952   9.982   2.129
 3429W        W 6948   4.338   8.988   3.276
 3430W        W 6949   0.277   8.795  10.290
 3431W        W 6950   2.561   4.769   2.849
 3432W        W 6951   3.152   2.178   9.564
 3433W        W 6952   6.325   2.997  10.096
 3434W        W 6953   1.458   2.089   3.209
 3435W        W 6954   2.479   2.632   9.519
 3436W        W 6955   6.605   1.779   1.885
 3437W        W 6956   2.876   5.958   0.168
 3438W        W 6957   7.405   2.676   9.577
 3439W        W 6958   3.548   4.541   8.867
 3440W        W 6959   8.498   2.626  10.953
 3441W        W 6960   0.328   5.932   0.745
 3442W        W 6961   1.247   8.055  11.769
 3443W        W 6962   9.274   3.782  10.762
 3444W        W 6963   9.596   1.751  10.912
 3445W        W 6964   1.457   3.042  10.305
 3446W        W 6965   7.249   5.043   8.915
 3447W        W 6966   1.361   9.355  10.337
 3448W        W 6967   6.366   0.962  10.612
 3449W        W 6968   3.114   8.996   9.311
 3450W        W 6969   6.335   1.768   8.743
 3451W        W 6970   3.746   8.571  10.064
 3452W        W 6971   3.797   7.926   2.484
 3453W        W 6972   1.821   1.813   9.590
 3454W        W 6973   8.092   3.070   1.706
 3455W        W 6974   6.030   1.858  10.757
 3456W        W 6975   5.948   3.358  10.019
 3457W        W 6976   5.993   9.516   9.128
 3458W        W 6977   6.014   4.105   1.183
 3459W        W 6978   9.549   5.349   9.994
 3460W        W 6979   6.375   0.164   1.113
 3461W        W 6980   0.474   9.308   0.336
 3462W        W 6981   7.999   3.235   9.278
 3463W        W 6982   1.709   2.703   2.575
 3464W        W 6983   6.904   2.404   9.274
 3465W        W 6984   3.131   9.978   9.233
 3466W        W 6985   3.481   9.419   3.589
 3467W        W 6986   5.252   6.927   2.810
 3468W        W 6987   1.859   3.808  11.755
 3469W        W 6988   8.194   1.440  10.981
 3470W        W 6989   5.118   3.532   8.176
 3471W        W 6990   1.024   2.897   3.632
 3472W        W 6991   8.723   9.330   1.435
 3473W        W 6992   5.280   4.628  11.165
 3474W        W 6993   4.881   7.758   9.862
 3475W        W 6994   7.963   2.238  10.439
 3476W        W 6995   5.990   4.766   1.702
 3477W        W 6996   1.533   4.264   9.720
 3478W        W 6997   6.197   6.353   2.827
 3479W        W 6998   5.459   3.536  10.310
 3480W        W 6999   5.354   2.920   8.731
 3481W        W 7000   7.620   8.438   2.131
 3482W        W 7001   3.637   3.459   8.899
 3483W        W 7002   3.252   4.765   3.352
 3484W        W 7003   4.613   3.713   2.838
 3485W        W 7004   3.466   7.887   0.187
 3486W        W 7005   6.891   4.695   2.654
 3487W        W 7006   2.165   4.639   3.210
 3488W        W 7007   8.451   3.407   1.854
 3489W        W 7008   4.231   7.545   0.254
 3490W        W 7009   0.318   5.429  10.461
 3491W        W 7010   2.299   0.164  10.029
 3492W        W 7011   1.310   2.363   9.086
 3493W        W 7012   7.363   6.143   3.236
 3494W        W 7013   2.731   7.024   0.270
 3495W        W 7014   3.813   5.347   3.665
 3496W        W 7015   2.752   6.905  10.798
 3497W        W 7016   1.741   8.966  11.734
 3498W        W 7017   4.092   8.547  11.671
 3499W        W 7018   5.473   2.900  11.638
 3500W        W 7019   5.466   0.459   0.289
 3501W        W 7020   0.367   4.164   1.315
 3502W        W 7021   9.749   6.125   8.301
 3503W        W 7022   4.454   7.078   8.842
 3504W        W 7023   8.896   9.502  11.882
 3505W        W 7024   6.097   5.132   0.945
 3506W        W 7025   8.996   2.645   2.906
 3507W        W 7026   2.663   3.161   1.495
 3508W        W 7027   5.768   7.121   1.934
 3509W        W 7028   5.195   7.752   3.057
 3510W        W 7029   4.146   7.417   9.743
 3511W        W 7030   3.499   6.841  11.299
 3512W        W 7031   0.875   2.763   0.307
 3513W        W 7032   1.382   1.847   9.284
 3514W        W 7033   4.214   5.566   2.926
 3515W        W 7034   9.366   7.205   9.206
 3516W        W 7035   5.195   0.107   3.200
 3517W        W 7036   6.587   6.751   1.548
 3518W        W 7037   2.143   4.774  10.304
 3519W        W 7038   3.418   0.320  11.657
 3520W        W 7039   3.486   9.456   0.754
 3521W        W 7040   5.525   1.950  11.807
 3522W        W 7041   8.499   6.874  11.093
 3523W        W 7042   8.829   0.049   2.575
 3524W        W 7043   7.317   0.113   1.428
 3525W        W 7044   2.014   8.323   9.393
 3526W        W 7045   1.993   1.393   2.657
 3527W        W 7046   4.446   6.992  10.922
 3528W        W 7047   5.159   1.407   0.463
 3529W        W 7048   9.919   8.445  11.021
 3530W        W 7049   9.970   0.359   2.698
 3531W        W 7050   6.228   6.502  11.940
 3532W        W 7051   2.895   7.748   1.042
 3533W        W 7052   5.603   0.695   2.145
 3534W        W 7053   0.305   6.107   9.176
 3535W        W 7054   1.746   9.501   1.397
 3536W        W 7055   5.040   6.933   8.205
 3537W        W 7056   9.481   8.464   9.224
 3538W        W 7057   6.685   4.434  11.048
 3539W        W 7058   1.009   0.739  11.720
 3540W        W 7059   7.145   6.513   0.378
 3541W        W 7060   8.931   3.606  11.971
 3542W        W 7061   2.377   1.191   9.876
 3543W        W 7062   1.272   8.215   1.409
 3544W        W 7063   9.402   8.591   1.802
 3545W        W 7064   5.529   3.928   8.399
 3546W        W 7065   9.890   0.186  10.532
 3547W        W 7066   8.257   4.727   2.659
 3548W        W 7067   8.943   8.227   0.665
 3549W        W 7068   6.105   0.695   0.514
 3550W        W 7069   5.475   5.038   9.195
 3551W        W 7070   5.874   7.015   8.753
 3552W        W 7071   0.605   7.862  10.089
 3553W        W 7072   6.582   5.650   3.256
 3554W        W 7073   0.358   3.963   0.796
 3555W        W 7074   2.199   1.656  11.756
 3556W        W 7075   5.115   1.584  11.826
 3557W        W 7076   7.812   6.765   3.034
 3558W        W 7077   0.961   1.462   9.934
 3559W        W 7078   0.658   9.829   1.468
 3560W        W 7079   4.354   9.194   9.556
 3561W        W 7080   7.825   3.217  11.307
 3562W        W 7081   6.902   3.755  10.609
 3563W        W 7082   6.942   8.499   0.264
 3564W        W 7083   6.928   1.050   9.925
 3565W        W 7084   1.767   2.624  10.249
 3566W        W 7085   0.921   9.558  11.124
 3567W        W 7086   6.563   8.013   9.988
 3568W        W 7087   6.955   9.712  10.215
 3569W        W 7088   1.784   8.876   1.804
 3570W        W 7089   1.129   5.079   3.239
 3571W        W 7090   9.828   6.029   0.607
 3572W        W 7091   8.609   2.948   3.073
 3573W        W 7092   4.564   7.371  10.047
 3574W        W 7093   4.578   6.996   1.703
 3575W        W 7094   4.490   9.063  10.227
 3576W        W 7095   9.322   7.216   1.692
 3577W        W 7096   8.705   4.429   9.275
 3578W        W 7097   9.796   8.773   1.005
 3579W        W 7098   9.224   0.369   9.272
 3580W        W 7099   1.376   1.177  10.006
 3581W        W 7100   8.058   8.699   9.908
 3582W        W 7101   7.738   6.275   9.237
 3583W        W 7102   4.325   8.372  10.727
 3584W        W 7103   1.760   6.105   0.709
 3585W        W 7104   1.663   0.697   8.851
 3586W        W 7105   4.227   7.870   2.772
 3587W        W 7106   6.569   9.226   3.576
 3588W        W 7107   6.442   0.903  10.104
 3589W        W 7108   4.901   8.254   3.443
 3590W        W 7109   5.280   7.425   2.290
 3591W        W 7110   5.754   7.472   8.926
 3592W        W 7111   1.742   2.047   8.942
 3593W        W 7112   2.789   0.897   9.590
 3594W        W 7113   4.981   7.295   0.495
 3595W        W 7114   9.889   9.755  10.814
 3596W        W 7115   3.214   5.110   9.513
 3597W        W 7116   1.488   9.919   1.263
 3598W        W 7117   0.443   1.755   2.958
 3599W        W 7118   7.151   9.112  11.468
 3600W        W 7119   1.954   0.295   8.998
 3601W        W 7120   7.420   5.229   3.619
 3602W        W 7121   9.595   9.692  10.406
 3603W        W 7122   4.672   0.716   1.693
 3604W        W 7123   6.948   1.322   2.192
 3605W        W 7124   1.778   5.702   1.034
 3606W        W 7125   2.304   1.117   3.423
 3607W        W 7126   6.544   4.896   0.935
 3608W        W 7127   9.532   0.116   2.854
 3609W        W 7128   5.568   8.299   2.599
 3610W        W 7129   1.342   7.610  11.996
 3611W        W 7130   6.655   3.352   0.778
 3612W        W 7131   4.770   1.139   9.348
 3613W        W 7132   2.615   2.170   1.752
 3614W        W 7133   0.686   3.112   3.296
 3615W        W 7134   8.528   8.889   1.152
 3616W        W 7135   6.130   1.207   3.228
 3617W        W 7136   5.216   7.469   4.003
 3618W        W 7137   6.119   4.610  11.531
 3619W        W 7138   2.314   9.833   0.840
 3620W        W 7139   2.400   2.451   0.883
 3621W        W 7140   7.195   2.612   3.490
 3622W        W 7141   5.662   6.600   2.088
 3623W        W 7142   4.764   2.223   3.480
 3624W        W 7143   1.805   0.025   1.689
 3625W        W 7144   6.616   8.305   9.525
 3626W        W 7145   1.320   4.179   2.663
 3627W        W 7146   6.396   3.275   8.775
 3628W        W 7147   3.223   5.533   2.691
 3629W        W 7148   5.389   5.944   3.732
 3630W        W 7149   9.666   5.125   3.138
 3631W        W 7150   5.507   9.058   0.444
 3632W        W 7151   3.618   2.096  10.452
 3633W        W 7152   6.891   7.298   9.980
 3634W        W 7153   2.998   9.404   0.994
 3635W        W 7154   3.318   3.661   9.798
 3636W        W 7155   5.697   9.946   0.990
 3637W        W 7156   8.921   5.959   9.577
 3638W        W 7157   8.596   5.724   0.251
 3639W        W 7158   7.612   3.253   1.735
 3640W        W 7159   5.232   5.854   1.674
 3641W        W 7160   7.738   0.041   9.075
 3642W        W 7161   0.544   9.172  10.487
 3643W        W 7162   1.542   5.075   1.567
 3644W        W 7163   8.328   8.877   2.631
 3645W        W 7164   4.300   0.662   0.526
 3646W        W 7165   5.165   9.336   2.146
 3647W        W 7166   4.707   3.667  11.762
 3648W        W 7167   4.503   1.910   9.863
 3649W        W 7168   8.832   2.162   2.848
 3650W        W 7169   5.446   7.631   8.555
 3651W        W 7170   0.431   1.855  11.429
 3652W        W 7171   1.870   9.071   8.939
 3653W        W 7172   0.421   7.024   0.785
 3654W        W 7173   4.257   3.378   2.669
 3655W        W 7174   8.091   3.717  11.942
 3656W        W 7175   6.778   2.304  11.308
 3657W        W 7176   0.967   2.340  10.704
 3658W        W 7177   2.898   2.741   3.634
 3659W        W 7178   6.151   9.976   2.004
 3660W        W 7179   6.746   4.633   1.330
 3661W        W 7180   6.610   8.852   3.153
 3662W        W 7181   8.124   9.194   9.994
 3663W        W 7182   3.175   7.536  10.253
 3664W        W 7183   9.665   2.814  11.717
 3665W        W 7184   9.660   4.716  10.845
 3666W        W 7185   6.032   9.913   3.150
 3667W        W 7186   1.753   8.049   1.512
 3668W        W 7187   3.579   6.609   9.936
 3669W        W 7188   1.804   1.708   2.281
 3670W        W 7189   0.658   6.026  10.871
 3671W        W 7190   7.068   0.330   3.140
 3672W        W 7191   1.632   7.378   1.785
 3673W        W 7192   4.632   8.786   8.508
 3674W        W 7193   2.262   7.062   2.539
 3675W        W 7194   7.699   7.837  10.887
 3676W        W 7195   1.290   0.433   1.080
 3677W        W 7196   0.568   0.815  11.460
 3678W        W 7197   3.234   4.651   2.024
 3679W        W 7198   7.109   5.276  11.744
 3680W        W 7199   5.136   7.843   1.065
 3681W        W 7200   4.544   0.207  10.555
 3682W        W 7201   4.934   3.106  11.023
 3683W        W 7202   8.408   9.910   1.056
 3684W        W 7203   1.684   4.464  10.828
 3685W        W 7204   8.393   0.296   2.795
 3686W        W 7205   4.014   3.367   1.344
 3687W        W 7206   0.434   1.735  10.917
 3688W        W 7207   5.140   5.720   2.152
 3689W        W 7208   6.760   5.534  11.436
 3690W        W 7209   5.522   2.584   1.814
 3691W        W 7210   0.788   4.362   9.928
 3692W        W 7211   3.003   8.778   1.257
 3693W        W 7212   9.055   9.930   9.011
 3694W        W 7213   2.250   4.443  11.693
 3695W        W 7214   6.267   9.114   9.432
 3696W        W 7215   9.369   5.694   9.574
 3697W        W 7216   8.017   6.264   8.814
 3698W        W 7217   4.289   7.476  10.948
 3699W        W 7218   8.285   6.666   3.223
 3700W        W 7219   7.434   4.052   8.851
 3701W        W 7220   7.830   2.698   9.314
 3702W        W 7221   0.446   4.919  10.520
 3703W        W 7222   3.043   8.418  11.591
 3704W        W 7223   2.229   7.422   9.985
 3705W        W 7224   7.997   7.942   1.304
 3706W        W 7225   2.146   1.947   2.568
 3707W        W 7226   6.211   5.248   9.769
 3708W        W 7227   2.432   0.238   3.199
 3709W        W 7228   0.343   6.419  11.716
 3710W        W 7229   4.701   9.622   3.084
 3711W        W 7230   2.612   0.454   0.275
 3712W        W 7231   3.789   4.708   2.166
 3713W        W 7232   2.291   5.233  10.563
 3714W        W 7233   5.371   1.095   0.850
 3715W        W 7234   9.244   2.016  10.140
 3716W        W 7235   2.271   0.920   9.433
 3717W        W 7236   1.796   8.682   0.897
 3718W        W 7237   7.249   6.828  10.611
 3719W        W 7238   4.098   8.543   2.013
 3720W        W 7239   2.850   4.616  11.031
 3721W        W 7240   4.746   5.673   1.719
 3722W        W 7241   1.648   8.840   2.315
 3723W        W 7242   0.268   8.255  10.230
 3724W        W 7243   6.690   6.662   0.100
 3725W        W 7244   6.585   5.064   9.443
 3726W        W 7245   0.429   2.100  11.891
 3727W        W 7246   7.527   8.922   2.839
 3728W        W 7247   3.672   0.062   9.938
 3729W        W 7248   2.257   6.375   1.302
 3730W        W 7249   5.467   3.635   0.300
 3731W        W 7250   3.585   5.012   1.802
 3732W        W 7251   1.162   4.295   1.746
 3733W        W 7252   5.858   8.414  11.339
 3734W        W 7253   8.733   8.584   2.884
 3735W        W 7254   0.919   7.886   2.080
 3736W        W 7255   3.192   9.973   9.770
 3737W        W 7256   7.432   6.881   2.701
 3738W        W 7257   4.873   5.289   0.411
 3739W        W 7258   2.710   8.395   3.351
 3740W        W 7259   5.472   9.492   0.175
 3741W        W 7260   2.363   4.547   1.819
 3742W        W 7261   3.507   9.303   9.445
 3743W        W 7262   5.637   3.953   2.506
 3744W        W 7263   8.882   9.740   0.659
 3745W        W 7264   3.892   2.620   8.971
 3746W        W 7265   5.987   2.781   1.643
 3747W        W 7266   9.066   0.457   2.846
 3748W        W 7267   1.218   8.187   8.790
 3749W        W 7268   6.750   1.236  10.378
 3750W        W 7269   5.093   8.570   8.695
 3751W        W 7270   9.420   4.644   1.955
 3752W        W 7271   9.768   9.778   0.924
 3753W        W 7272   4.888   0.317   1.262
 3754W        W 7273   0.297   5.531  10.960
 3755W        W 7274   8.130   4.137  11.645
 3756W        W 7275   0.382   4.693  10.068
 3757W        W 7276   2.260   8.427   2.712
 3758W        W 7277   3.965   1.879   0.441
 3759W        W 7278   3.807   2.754  11.713
 3760W        W 7279   1.217   2.103   1.824
 3761W        W 7280   6.372   4.103   9.439
 3762W        W 7281   6.352   6.092   8.816
 3763W        W 7282   6.011   9.423   0.302
 3764W        W 7283   4.892   1.128  11.811
 3765W        W 7284   5.909   5.269   1.791
 3766W        W 7285   2.855   5.978  10.800
 3767W        W 7286   1.306   2.392   2.818
 3768W        W 7287   2.269   0.035   2.406
 3769W        W 7288   7.190   9.143   0.041
 3770W        W 7289   6.903   4.928   0.563
 3771W        W 7290   6.896   5.355   0.846
 3772W        W 7291   9.027   3.872   1.264
 3773W        W 7292   4.161   0.908  11.546
 3774W        W 7293   6.800   8.770  11.402
 3775W        W 7294   6.694   9.040   8.773
 3776W        W 7295   4.611   0.305   8.851
 3777W        W 7296   8.435   8.055   9.638
 3778W        W 7297   8.923   4.407   1.325
 3779W        W 7298   1.796   9.578   2.854
 3780W        W 7299   2.694   9.259  11.711
 3781W        W 7300   2.258   9.511   9.482
 3782W        W 7301   8.003   7.910   0.356
 3783W        W 7302   6.920   4.755   9.182
 3784W        W 7303   0.119   0.108   0.231
 3785W        W 7304   7.674   5.612   1.907
 3786W        W 7305   4.578   0.837   3.206
 3787W        W 7306   4.252   1.866   1.706
 3788W        W 7307   7.206   1.337   3.052
 3789W        W 7308   2.340   9.860   3.536
 3790W        W 7309   6.757   2.915   3.449
 3791W        W 7310   0.060   7.609  11.548
 3792W        W 7311   4.955   1.359   8.896
 3793W        W 7312   7.586   7.096  10.309
 3794W        W 7313   4.802   8.968   0.941
 3795W        W 7314   2.402   0.850  11.067
 3796W        W 7315   5.055   3.111   0.505
 3797W        W 7316   5.666   5.986   9.521
 3798W        W 7317   3.217   9.948  10.784
 3799W        W 7318   1.633   2.401   1.938
 3800W        W 7319   2.229   4.040   1.360
 3801W        W 7320   0.708   8.871   2.296
 3802W        W 7321   2.165   3.145   2.338
 3803W        W 7322   6.083   2.649  11.800
 3804W        W 7323   9.735   4.547   0.446
 3805W        W 7324   1.510   4.523   0.819
 3806W        W 7325   5.190   4.140   2.389
 3807W        W 7326   8.934   7.501   0.471
 3808W        W 7327   3.286   6.609  10.356
 3809W        W 7328   4.534   2.267   1.845
 3810W        W 7329   2.849   1.450   2.789
 3811W        W 7330   5.706   4.458   8.453
 3812W        W 7331   8.364   9.060  11.405
 3813W        W 7332   8.166   1.867  11.257
 3814W        W 7333   0.344   0.711   2.887
 3815W        W 7334   5.777   5.565   2.793
 3816W        W 7335   4.721   4.348  10.974
 3817W        W 7336   1.805   2.283   2.866
 3818W        W 7337   4.412   2.781   0.396
 3819W        W 7338   8.309   3.880   8.662
 3820W        W 7339   1.235   0.645   2.302
 3821W        W 7340   1.983   7.515   2.944
 3822W        W 7341   3.426   4.662   2.523
 3823W        W 7342   7.814   9.509   0.506
 3824W        W 7343   7.620   0.746  11.367
 3825W        W 7344   5.466   8.177   3.093
 3826W        W 7345   1.370   4.427  11.835
 3827W        W 7346   9.527   1.269  10.808
 3828W        W 7347   3.954   7.533   1.915
 3829W        W 7348   6.178   0.323   3.435
 3830W        W 7349   4.650   7.447   1.445
 3831W        W 7350   3.536   3.275  10.850
 3832W        W 7351   7.896   3.969   2.361
 3833W        W 7352   2.423   1.984   0.067
 3834W        W 7353   7.296   6.977   9.892
 3835W        W 7354   3.633   2.031   9.516
 3836W        W 7355   9.269   1.355   1.283
 3837W        W 7356   5.383   9.214  10.726
 3838W        W 7357   3.634   6.389  10.940
 3839W        W 7358   2.248   3.608   0.398
 3840W        W 7359   1.274   0.328  11.512
 3841W        W 7360   3.797   3.262  11.830
 3842W        W 7361   0.384   9.463   0.820
 3843W        W 7362   2.288   3.115   9.579
 3844W        W 7363   4.293   5.946   3.903
 3845W        W 7364   1.378   5.523   2.681
 3846W        W 7365   0.046   1.261  10.951
 3847W        W 7366   6.679   6.676   1.051
 3848W        W 7367   4.556   8.792   1.857
 3849W        W 7368   5.869   4.060  10.867
 3850W        W 7369   1.744   5.686  11.362
 3851W        W 7370   0.877   1.974   2.219
 3852W        W 7371   0.721   7.111   2.718
 3853W        W 7372   6.606   5.188   3.028
 3854W        W 7373   7.764   1.955   3.048
 3855W        W 7374   2.770   5.207   9.269
 3856W        W 7375   7.467   5.225   0.160
 3857W        W 7376   0.367   3.468  10.217
 3858W        W 7377   1.111   7.470   8.990
 3859W        W 7378   0.240   3.891  10.444
 3860W        W 7379   7.424   1.676  11.558
 3861W        W 7380   8.065   2.859   1.226
 3862W        W 7381   8.945   6.977  11.828
 3863W        W 7382   5.480   3.551   3.632
 3864W        W 7383   3.760   4.388   1.173
 3865W        W 7384   2.888   1.732   9.192
 3866W        W 7385   0.181   2.427   3.424
 3867W        W 7386   9.228   5.065   1.774
 3868W        W 7387   3.502   8.742   1.304
 3869W        W 7388   5.635   2.319   3.919
 3870W        W 7389   8.931   8.774   1.902
 3871W        W 7390   1.616   9.087   2.810
 3872W        W 7391   6.682   1.927   0.655
 3873W        W 7392   0.980   2.110  10.261
 3874W        W 7393   3.897   5.487   9.944
 3875W        W 7394   3.220   1.284  11.299
 3876W        W 7395   2.143   5.155   2.360
 3877W        W 7396   3.076   9.261   0.507
 3878W        W 7397   8.271   1.457  11.552
 3879W        W 7398   1.163   7.993   0.878
 3880W        W 7399   6.685   3.822   2.467
 3881W        W 7400   5.636   8.037   9.913
 3882W        W 7401   9.374   1.407  11.772
 3883W        W 7402   4.658   8.111  10.415
 3884W        W 7403   3.711   6.324  11.953
 3885W        W 7404   8.508   7.980   1.083
 3886W        W 7405   0.404   2.851  11.234
 3887W        W 7406   1.836   8.428   0.413
 3888W        W 7407   1.880   3.468  10.069
 3889W        W 7408   8.449   9.483   0.749
 3890W        W 7409   7.002   0.140   0.847
 3891W        W 7410   7.220   8.542   2.663
 3892W        W 7411   8.799   4.078   1.691
 3893W        W 7412   7.871   4.032   3.090
 3894W        W 7413   9.193   3.518  10.165
 3895W        W 7414   4.503   0.408   2.809
 3896W        W 7415   5.543   1.640   3.209
 3897W        W 7416   4.234   4.371   0.944
 3898W        W 7417   2.645   7.652   9.780
 3899W        W 7418   4.394   0.628   2.340
 3900W        W 7419   3.735   3.651   1.707
 3901W        W 7420   4.028   3.643   9.182
 3902W        W 7421   4.736   9.179  11.502
 3903W        W 7422   5.125   8.019  11.599
 3904W        W 7423   3.497   6.964   3.467
 3905W        W 7424   9.841   7.127  11.521
 3906W        W 7425   5.262   9.767   2.461
 3907W        W 7426   9.882   6.394   9.720
 3908W        W 7427   3.276   1.550   0.140
 3909W        W 7428   2.203   7.480   0.539
 3910W        W 7429   1.338   8.447  10.964
 3911W        W 7430   3.810   3.317   8.453
 3912W        W 7431   8.760   8.517   1.454
 3913W        W 7432   7.486   3.093  10.531
 3914W        W 7433   4.318   3.806  10.620
 3915W        W 7434   6.978   8.312   2.269
 3916W        W 7435   2.999   2.310   8.840
 3917W        W 7436   0.450   8.033   2.453
 3918W        W 7437   6.093   8.953   3.242
 3919W        W 7438   7.641   0.747   1.926
 3920W        W 7439   2.760   3.478   8.841
 3921W        W 7440   4.660   9.442   9.868
 3922W        W 7441   8.982   8.683   0.999
 3923W        W 7442   5.182   8.363  10.548
 3924W        W 7443   1.844   7.083   0.349
 3925W        W 7444   9.932   7.850   1.163
 3926W        W 7445   4.128   9.367   9.976
 3927W        W 7446   3.009   5.456   3.603
 3928W        W 7447   4.201   8.944   1.067
 3929W        W 7448   6.366   6.809   2.712
 3930W        W 7449   9.131   3.142  11.997
 3931W        W 7450   3.446   5.938   2.458
 3932W        W 7451   0.141   2.591  11.788
 3933W        W 7452   0.810   6.169   9.373
 3934W        W 7453   3.336   2.614   3.351
 3935W        W 7454   7.133   1.555  10.263
 3936W        W 7455   7.873   9.658   9.892
 3937W        W 7456   5.619   0.383  11.283
 3938W        W 7457   3.781   5.502   1.761
 3939W        W 7458   7.697   3.398  11.808
 3940W        W 7459   4.046   0.172   2.754
 3941W        W 7460   9.607   2.922   9.687
 3942W        W 7461   3.659   7.573   9.922
 3943W        W 7462   2.948   2.656   2.370
 3944W        W 7463   5.639   4.733  11.625
 3945W        W 7464   4.226   4.165  11.107
 3946W        W 7465   7.610   7.991  11.367
 3947W        W 7466   1.985   1.288  10.464
 3948W        W 7467   3.539   9.040   9.013
 3949W        W 7468   5.045   9.317   1.294
 3950W        W 7469   2.925   0.459   9.848
 3951W        W 7470   8.049   4.607  11.847
 3952W        W 7471   2.941   6.998   8.672
 3953W        W 7472   9.534   4.212  10.783
 3954W        W 7473   5.474   0.298  11.776
 3955W        W 7474   9.358   7.010   3.077
 3956W        W 7475   6.522   1.662  10.612
 3957W        W 7476   2.726   4.705   0.574
 3958W        W 7477   3.524   3.187   1.658
 3959W        W 7478   4.691   9.290   3.494
 3960W        W 7479   4.843   5.180   9.918
 3961W        W 7480   1.976   6.196  10.417
 3962W        W 7481   7.262   2.928   1.573
 3963W        W 7482   2.115   6.627   2.740
 3964W        W 7483   0.442   4.124   3.411
 3965W        W 7484   5.410   6.196   9.905
 3966W        W 7485   4.698   9.092   2.265
 3967W        W 7486   0.061   5.075   9.202
 3968W        W 7487   4.434   3.316   9.232
 3969W        W 7488   4.676   7.519   9.009
 3970W        W 7489   5.956   9.126   1.768
 3971W        W 7490   7.623   3.836   0.096
 3972W        W 7491   9.598   5.610   2.884
 3973W        W 7492   6.946   6.414   1.758
 3974W        W 7493   5.423   6.063   0.013
 3975W        W 7494   4.231   9.865   0.103
 3976W        W 7495   9.077   9.967   3.029
 3977W        W 7496   7.764   4.079   0.646
 3978W        W 7497   4.431   1.529   2.052
 3979W        W 7498   6.155   1.221   0.421
 3980W        W 7499   9.286   7.888   0.524
 3981W        W 7500   9.430   8.615   2.318
 3982W        W 7501   0.644   9.352   1.302
 3983W        W 7502   2.821   6.530   0.390
 3984W        W 7503   8.731   4.206   2.204
 3985W        W 7504   3.725   7.831   1.565
 3986W        W 7505   2.522   9.404   1.875
 3987W        W 7506   2.548   2.744   2.730
 3988W        W 7507   5.825   4.503   3.498
 3989W        W 7508   9.766   2.569   2.238
 3990W        W 7509   7.827   5.117   0.537
 3991W        W 7510   5.248   3.841   1.561
 3992W        W 7511   1.369   0.271  10.247
 3993W        W 7512   8.254   8.398   2.792
 3994W        W 7513   4.991   7.361   2.751
 3995W        W 7514   3.812   2.898   3.480
 3996W        W 7515   9.852   5.122  11.720
 3997W        W 7516   5.983   5.432  10.908
 3998W        W 7517   3.902   2.759   9.950
 3999W        W 7518   0.277   2.589   9.230
 4000W        W 7519   6.310   6.081   3.255
 4001W        W 7520   7.088   7.305   2.993
 4002W        W 7521   1.455   6.913   1.636
 4003W        W 7522   2.368   4.610  11.198
 4004W        W 7523   0.374   2.839   0.195
 4005W        W 7524   3.592   3.106   1.169
 4006W        W 7525   8.430   7.568   0.344
 4007W        W 7526   4.970   4.995   9.157
 4008W        W 7527   4.024   4.449   3.508
 4009W        W 7528   1.472   5.620   3.603
 4010W        W 7529   8.492   2.308   2.016
 4011W        W 7530   4.479   7.417   0.671
 4012W        W 7531   5.532   8.037   0.814
 4013W        W 7532   1.950   4.798   0.918
 4014W        W 7533   7.438   8.100   2.455
 4015W        W 7534   4.822   9.045   9.404
 4016W        W 7535   7.601   5.624  10.733
 4017W        W 7536   9.359   4.188   1.494
 4018W        W 7537   4.158   1.706   8.981
 4019W        W 7538   7.001   2.387   8.712
 4020W        W 7539   8.879   2.169   2.320
 4021W        W 7540   7.032   8.007   1.157
 4022W        W 7541   3.109   9.790   0.293
 4023W        W 7542   8.052   4.523   3.135
 4024W        W 7543   3.151   3.420  10.536
 4025W        W 7544   3.137   7.180  11.053
 4026W        W 7545   7.404   6.248  11.797
 4027W        W 7546   0.898   5.646  11.391
 4028W        W 7547   4.276   2.726  11.506
 4029W        W 7548   8.496   8.713  10.224
 4030W        W 7549   6.852   8.805   2.321
 4031W        W 7550   0.238   7.418   1.844
 4032W        W 7551   4.986   9.054   1.748
 4033W        W 7552   3.589   0.276  10.549
 4034W        W 7553   7.064   5.778   9.405
 4035W        W 7554   2.257   6.873   1.178
 4036W        W 7555   7.177   6.488   2.507
 4037W        W 7556   4.359   1.622   1.236
 4038W        W 7557   4.169   8.736   1.529
 4039W        W 7558   1.812   7.459   9.242
 4040W        W 7559   4.221   5.786   0.502
 4041W        W 7560   7.215   0.615   3.545
 4042W        W 7561   5.788   8.597   9.251
 4043W        W 7562   5.081   9.538  11.406
 4044W        W 7563   6.435   6.935  11.764
 4045W        W 7564   1.797   9.387   1.890
 4046W        W 7565   9.427   2.278   9.228
 4047W        W 7566   2.543   4.928   1.517
 4048W        W 7567   8.537   0.435  10.034
 4049W        W 7568   0.840   9.842   2.681
 4050W        W 7569   8.810   2.668  10.053
 4051W        W 7570   5.974   0.030   1.408
 4052W        W 7571   5.444   3.132  11.122
 4053W        W 7572   8.596   5.006   0.981
 4054W        W 7573   5.696   9.999   0.493
 4055W        W 7574   3.045   2.827   8.702
 4056W        W 7575   7.140   0.027   2.692
 4057W        W 7576   0.212   5.084   0.617
 4058W        W 7577   6.549   1.614   2.362
 4059W        W 7578   1.171   3.785  10.511
 4060W        W 7579   2.273   3.345   9.048
 4061W        W 7580   4.037   5.787   9.044
 4062W        W 7581   2.042   8.756   9.736
 4063W        W 7582   6.302   6.467   4.386
 4064W        W 7583   6.657   9.955  11.938
 4065W        W 7584   0.655   0.449  10.814
 4066W        W 7585   7.119   2.365   2.310
 4067W        W 7586   2.635   7.725  11.759
 4068W        W 7587   6.863   0.420  10.958
 4069W        W 7588   6.262   1.736  11.179
 4070W        W 7589   7.011   4.179   2.842
 4071W        W 7590   1.783   4.394  10.320
 4072W        W 7591   7.965   1.139   0.813
 4073W        W 7592   4.085   5.049   9.303
 4074W        W 7593   5.204   1.915   2.851
 4075W        W 7594   0.809   2.173   0.533
 4076W        W 7595   3.916   0.341   1.214
 4077W        W 7596   7.451   3.911  10.106
 4078W        W 7597   6.450   6.276   0.851
 4079W        W 7598   6.451   8.506   9.998
 4080W        W 7599   5.760   5.457   9.917
 4081W        W 7600   0.970   0.259   2.992
 4082W        W 7601   8.619   1.720   2.685
 4083W        W 7602   2.365   6.115  11.202
 4084W        W 7603   4.239   9.912  11.537
 4085W        W 7604   2.426   8.808   3.220
 4086W        W 7605   6.495   4.633   8.243
 4087W        W 7606   6.767   5.917   1.816
 4088W        W 7607   8.005   4.179   0.168
 4089W        W 7608   7.881   6.686   3.551
 4090W        W 7609   9.250   0.873   1.078
 4091W        W 7610   0.837   0.822   3.124
 4092W        W 7611   7.313   8.432   1.076
 4093W        W 7612   9.568   0.911  11.317
 4094W        W 7613   6.955   8.063  10.767
 4095W        W 7614   7.403   2.761   2.039
 4096W        W 7615   6.415   2.567   1.400
 4097W        W 7616   3.317   1.272   2.633
 4098W        W 7617   6.303   2.487  11.349
 4099W        W 7618   7.100   0.565   2.681
 4100W        W 7619   4.226   4.514   9.073
 4101W        W 7620   8.807   0.005  11.912
 4102W        W 7621   3.229   1.760  10.410
 4103W        W 7622   3.690   8.476  11.003
 4104W        W 7623   3.008   5.931   1.774
 4105W        W 7624   3.089   4.986   1.667
 4106W        W 7625   7.525   0.314   3.825
 4107W        W 7626   2.560   3.989  10.218
 4108W        W 7627   6.141   9.710   0.831
 4109W        W 7628   4.100   1.313   2.986
 4110W        W 7629   3.636   3.845   3.017
 4111W        W 7630   9.854   2.896   3.394
 4112W        W 7631   5.382   0.406   9.662
 4113W        W 7632   9.572   5.768   1.620
 4114W        W 7633   7.631   7.526   0.768
 4115W        W 7634   6.795   7.602   2.687
 4116W        W 7635   9.299   6.690   1.610
 4117W        W 7636   1.344   1.192   1.498
 4118W        W 7637   2.332   4.082   8.578
 4119W        W 7638   4.158   0.801   9.509
 4120W        W 7639   3.089   0.279   0.463
 4121W        W 7640   4.449   1.283   8.993
 4122W        W 7641   9.395   6.182   9.701
 4123W        W 7642   8.962   2.312   1.060
 4124W        W 7643   1.288   3.438   0.060
 4125W        W 7644   0.729   3.727   0.241
 4126W        W 7645   4.564   3.362  10.760
 4127W        W 7646   7.234   8.470  11.392
 4128W        W 7647   3.528   3.728   4.014
 4129W        W 7648   6.144   5.741  11.706
 4130W        W 7649   5.398   1.212   0.046
 4131W        W 7650   6.643   4.527   9.538
 4132W        W 7651   0.951   6.952   0.881
 4133W        W 7652   3.678   8.421   3.346
 4134W        W 7653   7.161   3.495   1.822
 4135W        W 7654   6.090   6.705  11.457
 4136W        W 7655   5.107   2.832   3.253
 4137W        W 7656   6.218   7.019  10.586
 4138W        W 7657   8.724   3.948   8.968
 4139W        W 7658   0.686   8.903   2.882
 4140W        W 7659   6.152   4.115   3.407
 4141W        W 7660   5.200   3.637   9.181
 4142W        W 7661   1.144   1.467   0.596
 4143W        W 7662   6.210   1.965   2.629
 4144W        W 7663   8.892   2.889   9.137
 4145W        W 7664   2.831   4.707   0.058
 4146W        W 7665   6.025   4.798  10.003
 4147W        W 7666   1.429   0.367   3.190
 4148W        W 7667   6.063   6.677   1.796
 4149W        W 7668   5.410   6.534  10.309
 4150W        W 7669   8.292   1.274   9.586
 4151W        W 7670   5.641   5.449   1.046
 4152W        W 7671   5.256   6.474   8.315
 4153W        W 7672   7.663   7.320   9.465
 4154W        W 7673   1.632   8.879   0.230
 4155W        W 7674   7.384   6.358  10.808
 4156W        W 7675   8.109   8.414  11.896
 4157W        W 7676   0.710   0.819   2.207
 4158W        W 7677   6.033   6.890   2.316
 4159W        W 7678   8.517   8.923   1.652
 4160W        W 7679   2.186   0.368   2.759
 4161W        W 7680   1.373   7.934   3.674
 4162W        W 7681   5.578   6.601   8.702
 4163W        W 7682   9.331   7.413  10.375
 4164W        W 7683   0.129   6.024  10.936
 4165W        W 7684   2.672   1.512   3.269
 4166W        W 7685   2.931   4.725   2.438
 4167W        W 7686   4.660   5.127   3.571
 4168W        W 7687   4.892   6.060   9.833
 4169W        W 7688   3.193   0.822  10.371
 4170W        W 7689   0.384   3.346   0.224
 4171W        W 7690   9.847   7.005  10.900
 4172W        W 7691   5.309   4.913   2.246
 4173W        W 7692   4.673   1.828  11.346
 4174W        W 7693   5.870   1.309   9.460
 4175W        W 7694   6.377   0.283  10.781
 4176W        W 7695   2.824   1.929   3.001
 4177W        W 7696   7.003   1.059   2.648
 4178W        W 7697   3.834   3.681  10.815
 4179W        W 7698   2.150   8.107   8.644
 4180W        W 7699   5.932   8.269   2.222
 4181W        W 7700   6.961   9.263   8.349
 4182W        W 7701   3.294   6.694   2.185
 4183W        W 7702   9.807   5.624  10.832
 4184W        W 7703   2.844   3.809  11.640
 4185W        W 7704   8.821   1.730  10.402
 4186W        W 7705   9.317   2.586  10.014
 4187W        W 7706   3.735   4.500   9.869
 4188W        W 7707   2.663   5.124   0.285
 4189W        W 7708   6.354   9.650   9.517
 4190W        W 7709   4.526   8.725  11.488
 4191W        W 7710   8.536   8.466   0.831
 4192W        W 7711   5.965   0.437  11.660
 4193W        W 7712   9.732   3.683  10.103
 4194W        W 7713   6.079   1.578   0.839
 4195W        W 7714   9.002   7.839   8.689
 4196W        W 7715   2.289   9.458  11.372
 4197W        W 7716   0.379   4.647   2.677
 4198W        W 7717   0.751   1.954   1.630
 4199W        W 7718   5.913   6.928  11.025
 4200W        W 7719   6.994   2.003  10.043
 4201W        W 7720   8.354   1.498   1.518
 4202W        W 7721   2.129   6.795   9.580
 4203W        W 7722   1.202   0.772   9.058
 4204W        W 7723   2.251   1.784   9.234
 4205W        W 7724   2.490   7.430   2.884
 4206W        W 7725   2.321   6.714   0.285
 4207W        W 7726   0.150   0.440   9.594
 4208W        W 7727   3.624   1.495   2.991
 4209W        W 7728   8.871   9.715   1.153
 4210W        W 7729   4.440   5.943  11.845
 4211W        W 7730   8.818   5.446   2.516
 4212W        W 7731   1.481   2.635   9.835
 4213W        W 7732   9.650   0.584   1.648
 4214W        W 7733   7.939   3.517   3.830
 4215W        W 7734   6.653   8.037   1.986
 4216W        W 7735   0.473   0.206   2.863
 4217W        W 7736   5.593   2.186   9.203
 4218W        W 7737   1.542   3.763   2.366
 4219W        W 7738   5.263   2.393   8.818
 4220W        W 7739   6.470   7.887  10.489
 4221W        W 7740   7.407   7.529  11.214
 4222W        W 7741   3.448   6.968   8.554
 4223W        W 7742   6.757   0.798  11.906
 4224W        W 7743   5.279   5.662  11.634
 4225W        W 7744   3.389   4.142   0.778
 4226W        W 7745   4.252   8.554  10.246
 4227W        W 7746   8.955   0.246  10.516
 4228W        W 7747   4.294   5.412   3.827
 4229W        W 7748   6.043   6.295   9.404
 4230W        W 7749   7.608   5.905   9.851
 4231W        W 7750   1.664   4.687   3.770
 4232W        W 7751   8.207   9.860   1.969
 4233W        W 7752   7.173   4.367   1.359
 4234W        W 7753   5.745   3.613   4.061
 4235W        W 7754   9.988   5.735   2.422
 4236W        W 7755   5.570   3.078  10.505
 4237W        W 7756   6.416   7.632  11.435
 4238W        W 7757   1.078   3.754   2.558
 4239W        W 7758   8.232   8.285  10.135
 4240W        W 7759   0.820   3.332   2.440
 4241W        W 7760   3.839   9.240   8.633
 4242W        W 7761   0.257   2.562   1.425
 4243W        W 7762   8.653   9.296   9.384
 4244W        W 7763   3.121   4.178   1.277
 4245W        W 7764   1.145   1.198   2.965
 4246W        W 7765   9.084   0.985  11.876
 4247W        W 7766   3.222   1.720   3.240
 4248W        W 7767   5.688   0.959   0.380
 4249W        W 7768   8.045   3.558  10.954
 4250W        W 7769   0.874   6.151   8.817
 4251W        W 7770   2.788   7.039   1.631
 4252W        W 7771   4.328   4.771   2.288
 4253W        W 7772   5.942   0.329   0.163
 4254W        W 7773   2.692   5.157   9.769
 4255W        W 7774   0.826   2.432   1.971
 4256W        W 7775   6.237   3.162   9.632
 4257W        W 7776   1.234   1.320  10.916
 4258W        W 7777   3.077   9.548   9.531
 4259W        W 7778   8.810   4.446   3.530
 4260W        W 7779   4.679   7.161  11.376
 4261W        W 7780   8.959   7.748   0.921
 4262W        W 7781   1.271   2.243   9.594
 4263W        W 7782   3.132   3.269  10.051
 4264W        W 7783   1.094   5.748  11.947
 4265W        W 7784   4.165   8.427   0.177
 4266W        W 7785   0.025   9.096   9.126
 4267W        W 7786   6.202   1.678   9.332
 4268W        W 7787   4.668   1.754   3.257
 4269W        W 7788   7.630   0.279  11.068
 4270W        W 7789   0.937   4.337  11.223
 4271W        W 7790   5.013   3.763   1.128
 4272W        W 7791   6.724   6.013   8.462
 4273W        W 7792   4.667   3.097   2.845
 4274W        W 7793   7.835   1.506   2.298
 4275W        W 7794   6.520   4.157   1.183
 4276W        W 7795   2.371   6.676  10.483
 4277W        W 7796   2.137   8.302   0.878
 4278W        W 7797   8.113   8.384   2.284
 4279W        W 7798   1.556   3.271   3.171
 4280W        W 7799   0.887   8.391   0.377
 4281W        W 7800   5.403   1.709   1.435
 4282W        W 7801   9.008   6.114  10.073
 4283W        W 7802   2.967   6.231  11.745
 4284W        W 7803   2.856   9.738  11.824
 4285W        W 7804   4.218   6.714   9.242
 4286W        W 7805   0.906   2.088   9.264
 4287W        W 7806   9.338   1.010   2.389
 4288W        W 7807   8.061   0.014   1.447
 4289W        W 7808   8.382   2.755   0.010
 4290W        W 7809   6.108   8.070   2.649
 4291W        W 7810   4.648   6.635   9.006
 4292W        W 7811   5.979   0.795   9.454
 4293W        W 7812   7.348   9.394  10.277
 4294W        W 7813   1.022   4.217   2.236
 4295W        W 7814   7.352   4.485   2.629
 4296W        W 7815   9.217   9.303   3.033
 4297W        W 7816   1.630   5.519   3.133
 4298W        W 7817   6.902   9.985  11.450
 4299W        W 7818   2.755   9.102  10.143
 4300W        W 7819   4.928   5.874   2.855
 4301W        W 7820   3.733   3.773   3.503
 4302W        W 7821   1.867   0.220   2.170
 4303W        W 7822   5.633   3.069   2.045
 4304W        W 7823   7.820   0.274   9.532
 4305W        W 7824   9.251   1.689   8.858
 4306W        W 7825   1.819   5.226  10.311
 4307W        W 7826   5.220   7.413   8.951
 4308W        W 7827   9.775   7.512   1.537
 4309W        W 7828   3.995   7.416   2.846
 4310W        W 7829   5.500   4.781   9.962
 4311W        W 7830   3.953   0.844   2.214
 4312W        W 7831   7.076   3.999   8.473
 4313W        W 7832   9.969   5.964   9.987
 4314W        W 7833   5.067   9.101   8.638
 4315W        W 7834   3.275   1.664   9.541
 4316W        W 7835   6.789   2.374   0.430
 4317W        W 7836   9.635   9.622   3.086
 4318W        W 7837   5.612   0.854   1.254
 4319W        W 7838   3.460   6.522   1.257
 4320W        W 7839   4.663   0.405   0.805
 4321W        W 7840   1.885   0.525   1.751
 4322W        W 7841   0.728   5.556   8.443
 4323W        W 7842   5.949   7.658  11.625
 4324W        W 7843   1.944   6.910   1.763
 4325W        W 7844   3.697   0.034   3.217
 4326W        W 7845   8.494   6.012  10.219
 4327W        W 7846   9.024   0.244   9.997
 4328W        W 7847   1.693   2.713   0.582
 4329W        W 7848   7.046   7.491   0.265
 4330W        W 7849   4.952   4.015   8.216
 4331W        W 7850   1.398   7.956   2.256
 4332W        W 7851   5.186   6.447   1.675
 4333W        W 7852   9.221   1.789   1.533
 4334W        W 7853   8.499   5.748   9.307
 4335W        W 7854   8.516   4.127  11.320
 4336W        W 7855   2.579   5.593  10.029
 4337W        W 7856   6.529   0.798  11.063
 4338W        W 7857   2.243   9.866   9.079
 4339W        W 7858   6.595   4.162  10.635
 4340W        W 7859   4.745   3.895   2.371
 4341W        W 7860   2.495   1.480   0.153
 4342W        W 7861   0.112   9.525   2.229
 4343W        W 7862   0.546   5.440   0.791
 4344W        W 7863   2.889   0.516   3.537
 4345W        W 7864   8.412   1.569   0.058
 4346W        W 7865   0.325   3.259  10.756
 4347W        W 7866   2.196   4.379   3.657
 4348W        W 7867   9.418   8.857  11.636
 4349W        W 7868   5.475   2.536  10.418
 4350W        W 7869   7.952   0.409   0.298
 4351W        W 7870   2.440   9.506   3.166
 4352W        W 7871   3.605   2.972   9.306
 4353W        W 7872   8.121   9.595  10.715
 4354W        W 7873   9.917   5.740  11.318
 4355W        W 7874   6.893   5.744  11.881
 4356W        W 7875   7.753   4.714  10.321
 4357W        W 7876   0.979   0.209   3.497
 4358W        W 7877   6.641   3.499  11.914
 4359W        W 7878   6.982   5.446  10.435
 4360W        W 7879   8.098   4.711   8.687
 4361W        W 7880   9.907   8.932  11.810
 4362W        W 7881   4.358   1.039   1.940
 4363W        W 7882   3.292   9.719   1.747
 4364W        W 7883   3.327   8.803  10.206
 4365W        W 7884   6.094   3.292   1.882
 4366W        W 7885   7.668   7.326   8.938
 4367W        W 7886   4.304   2.582   0.932
 4368W        W 7887   9.519   3.264   3.304
 4369W        W 7888   7.699   9.540   9.115
 4370W        W 7889   2.122   4.109   3.239
 4371W        W 7890   4.152   4.714   1.287
 4372W        W 7891   6.004   5.712   8.556
 4373W        W 7892   0.692   4.905   3.425
 4374W        W 7893   7.002   4.492   8.318
 4375W        W 7894   0.413   1.118   1.500
 4376W        W 7895   9.759   3.773  10.606
 4377W        W 7896   7.427   7.040   1.279
 4378W        W 7897   3.338   4.682  11.126
 4379W        W 7898   5.422   0.339   1.217
 4380W        W 7899   2.448   4.699  10.709
 4381W        W 7900   4.661   6.680   0.225
 4382W        W 7901   9.489   6.361   2.182
 4383W        W 7902   8.088   0.361  11.341
 4384W        W 7903   7.843   7.983  11.884
 4385W        W 7904   6.615   2.493  11.765
 4386W        W 7905   9.256   7.829   3.274
 4387W        W 7906   9.315   4.686   9.446
 4388W        W 7907   4.723   4.821   0.448
 4389W        W 7908   2.942   5.222   4.058
 4390W        W 7909   2.407   3.052   3.145
 4391W        W 7910   4.424   6.567   1.033
 4392W        W 7911   4.282   1.508   3.469
 4393W        W 7912   7.171   3.799   2.278
 4394W        W 7913   0.030   5.075  10.181
 4395W        W 7914   8.556   7.614   9.331
 4396W        W 7915   5.072   0.776   9.496
 4397W        W 7916   3.613   4.226  11.789
 4398W        W 7917   9.579   4.108   3.399
 4399W        W 7918   2.722   7.211  11.771
 4400W        W 7919   3.210   3.743   8.872
 4401W        W 7920   2.853   3.892   2.162
 4402W        W 7921   1.743   1.258  10.945
 4403W        W 7922   3.079   0.553   0.884
 4404W        W 7923   8.478   1.862  10.780
 4405W        W 7924   0.417   4.545  11.918
 4406W        W 7925   3.040   6.313   1.436
 4407W        W 7926   6.687   0.799   9.098
 4408W        W 7927   8.479   6.224   9.741
 4409W        W 7928   6.115   7.145  10.063
 4410W        W 7929   5.645   5.803   2.331
 4411W        W 7930   5.278   2.969   0.955
 4412W        W 7931   7.873   8.966  11.314
 4413W        W 7932   0.355   8.393   2.105
 4414W        W 7933   0.969   5.490   0.409
 4415W        W 7934   7.576   0.721   9.430
 4416W        W 7935   8.172   3.229   3.063
 4417W        W 7936   0.882   7.009   2.246
 4418W        W 7937   0.331   8.160  11.276
 4419W        W 7938   7.504   4.016   3.445
 4420W        W 7939   8.052   6.884  10.479
 4421W        W 7940   9.778   0.736   1.009
 4422W        W 7941   8.545   6.628   1.865
 4423W        W 7942   8.600   9.735  10.620
 4424W        W 7943   0.349   9.219  11.841
 4425W        W 7944   6.549   5.961   2.798
 4426W        W 7945   3.195   3.232   9.045
 4427W        W 7946   9.072   4.577   2.349
 4428W        W 7947   4.002   4.100   1.753
 4429W        W 7948   2.779   7.418   8.390
 4430W        W 7949   6.408   2.482  10.052
 4431W        W 7950   9.348   0.558   2.066
 4432W        W 7951   4.638   0.701  11.712
 4433W        W 7952   0.839   6.154  11.346
 4434W        W 7953   1.373   3.512  10.114
 4435W        W 7954   6.364   1.335   9.725
 4436W        W 7955   6.487   5.287  11.002
 4437W        W 7956   2.940   7.941   8.689
 4438W        W 7957   7.567   9.367  11.259
 4439W        W 7958   9.387   6.540  11.838
 4440W        W 7959   8.189   6.392   2.152
 4441W        W 7960   7.029   8.418   3.153
 4442W        W 7961   8.268   9.523   3.233
 4443W        W 7962   8.055   6.992   9.383
 4444W        W 7963   4.651   9.984   1.600
 4445W        W 7964   9.771   0.345  10.996
 4446W        W 7965   5.851   6.904   3.590
 4447W        W 7966   5.414   0.547   3.464
 4448W        W 7967   4.558   7.169   0.230
 4449W        W 7968   7.772   1.159   9.653
 4450W        W 7969   4.867   1.318   1.868
 4451W        W 7970   5.436   1.519   8.740
 4452W        W 7971   4.051   5.190   1.045
 4453W        W 7972   9.253   8.791   2.814
 4454W        W 7973   8.093   9.709   0.098
 4455W        W 7974   6.769   7.544  10.721
 4456W        W 7975   2.419   9.465   1.225
 4457W        W 7976   7.422   0.377   0.592
 4458W        W 7977   5.975   2.759   3.134
 4459W        W 7978   8.604   6.584   2.373
 4460W        W 7979   3.957   6.804  11.608
 4461W        W 7980   6.584   0.860   0.382
 4462W        W 7981   3.123   5.167  10.379
 4463W        W 7982   7.498   9.211   3.316
 4464W        W 7983   4.532   5.862  10.995
 4465W        W 7984   4.255   8.113   2.278
 4466W        W 7985   3.073   9.720   3.572
 4467W        W 7986   4.061   7.148  11.987
 4468W        W 7987   0.872   0.650   9.498
 4469W        W 7988   2.547   9.076   2.813
 4470W        W 7989   4.470   7.407  11.791
 4471W        W 7990   7.366   2.805  10.090
 4472W        W 7991   5.204   2.766   2.167
 4473W        W 7992   2.754   9.975   9.995
 4474W        W 7993   8.502   9.777   1.547
 4475W        W 7994   0.923   9.787   3.200
 4476W        W 7995   2.358   9.634  11.853
 4477W        W 7996   1.772   9.700   9.726
 4478W        W 7997   4.544   9.315   1.831
 4479W        W 7998   5.684   4.913  10.855
 4480W        W 7999   2.424   1.200  11.726
 4481W        W 8000   4.741   2.878   2.351
 4482W        W 8001   8.664   6.133   2.006
 4483W        W 8002   0.910   5.188   0.002
 4484W        W 8003   9.020   8.585   9.021
 4485W        W 8004   4.484   2.434   2.311
 4486W        W 8005   2.396   6.962   8.731
 4487W        W 8006   3.992   7.134   9.048
 4488W        W 8007   1.768   0.359   0.337
 4489W        W 8008   3.559   9.820   9.446
 4490W        W 8009   5.172   3.650   2.217
 4491W        W 8010   9.374   4.680   1.444
 4492W        W 8011   6.957   7.757   9.784
 4493W        W 8012   3.683   7.048   2.996
 4494W        W 8013   5.762   3.608   0.736
 4495W        W 8014   4.241   6.444   8.251
 4496W        W 8015   6.065   8.649  11.905
 4497W        W 8016   0.194   9.671   1.255
 4498W        W 8017   7.224   7.333   8.683
 4499W        W 8018   0.477   8.396   0.060
 4500W        W 8019   8.976   3.095   2.163
 4501W        W 8020   2.132   7.841   9.672
 4502W        W 8021   9.153   1.799   2.062
 4503W        W 8022   9.352   5.008   2.322
 4504W        W 8023   9.858   5.587  10.332
 4505W        W 8024   2.417   0.732   3.019
 4506W        W 8025   5.531   6.652  10.807
 4507W        W 8026   7.991   7.574   8.641
 4508W        W 8027   1.820   2.694  11.188
 4509W        W 8028   6.294   3.645   2.181
 4510W        W 8029   1.612   7.944   0.607
 4511W        W 8030   6.023   4.782   2.586
 4512W        W 8031   5.960   2.347   1.369
 4513W        W 8032   2.190   1.990   0.858
 4514W        W 8033   6.169   5.194   8.760
 4515W        W 8034   6.805   6.042   9.739
 4516W        W 8035   4.736   2.641  10.946
 4517W        W 8036   8.433   3.020   0.879
 4518W        W 8037   3.013   8.039   9.176
 4519W        W 8038   9.389   7.197   9.743
 4520W        W 8039   8.589   4.565  10.577
 4521W        W 8040   6.025   6.534  10.635
 4522W        W 8041   1.701   7.976   9.976
 4523W        W 8042   4.612   4.056   1.069
 4524W        W 8043   5.927   1.541   9.914
 4525W        W 8044   8.954   2.315   0.027
 4526W        W 8045   9.350   4.875   9.975
 4527W        W 8046   2.534   6.555   0.813
 4528W        W 8047   3.065   0.095   1.489
 4529W        W 8048   4.179   0.582   1.830
 4530W        W 8049   9.154   9.769   0.219
 4531W        W 8050   2.324   4.047   9.563
 4532W        W 8051   6.651   2.204   9.677
 4533W        W 8052   8.450   2.378   0.954
 4534W        W 8053   0.265   2.344  10.983
 4535W        W 8054   0.505   8.859   1.419
 4536W        W 8055   6.693   8.475   2.741
 4537W        W 8056   8.472   3.336   9.520
 4538W        W 8057   6.710   2.839  11.423
 4539W        W 8058   2.882   7.569   9.335
 4540W        W 8059   9.702   9.013   2.495
 4541W        W 8060   4.418   7.187   9.344
 4542W        W 8061   8.049   9.782   9.422
 4543W        W 8062   3.732   7.300   9.470
 4544W        W 8063   6.460   5.434   1.095
 4545W        W 8064   5.896   3.938   0.272
 4546W        W 8065   9.531   0.872   0.124
 4547W        W 8066   8.448   8.858   2.145
 4548W        W 8067   4.160   9.277   1.478
 4549W        W 8068   9.681   8.169   0.351
 4550W        W 8069   2.119   0.863   2.609
 4551W        W 8070   9.988   6.866   1.024
 4552W        W 8071   6.075   0.484   1.996
 4553W        W 8072   6.209   9.468   8.635
 4554W        W 8073   0.021   4.172   9.285
 4555W        W 8074   0.421   6.172   0.219
 4556W        W 8075   6.164   7.526   3.103
 4557W        W 8076   0.513   1.331   8.686
 4558W        W 8077   3.111   5.652  10.165
 4559W        W 8078   5.558   2.160   3.175
 4560W        W 8079   2.053   9.129   1.077
 4561W        W 8080   0.324   8.277  10.769
 4562W        W 8081   3.351   8.054   1.894
 4563W        W 8082   0.799   0.589   2.652
 4564W        W 8083   4.295   6.517   0.544
 4565W        W 8084   0.672   1.315   3.131
 4566W        W 8085   0.566   0.657   1.643
 4567W        W 8086   7.360   2.762   2.994
 4568W        W 8087   3.431   1.538   3.662
 4569W        W 8088   7.956   2.826  11.669
 4570W        W 8089   7.349   4.408  11.427
 4571W        W 8090   4.235   0.424  11.424
 4572W        W 8091   0.082   2.781   2.641
 4573W        W 8092   3.397   9.945   0.698
 4574W        W 8093   0.017   7.598   0.074
 4575W        W 8094   5.394   6.165   2.064
 4576W        W 8095   3.058   7.228   3.554
 4577W        W 8096   7.178   5.763   1.019
 4578W        W 8097   3.327   5.956  11.038
 4579W        W 8098   4.590   0.310   1.987
 4580W        W 8099   7.581   6.620   0.096
 4581W        W 8100   6.841   0.665   1.834
 4582W        W 8101   2.717   4.914   2.016
 4583W        W 8102   8.296   4.099   9.280
 4584W        W 8103   3.787   0.579   9.807
 4585W        W 8104   3.334   5.055   2.842
 4586W        W 8105   7.029   4.368   8.828
 4587W        W 8106   5.775   7.054   9.319
 4588W        W 8107   5.021   0.367   9.187
 4589W        W 8108   9.959   5.444   1.447
 4590W        W 8109   4.722   7.992   2.377
 4591W        W 8110   6.474   8.913   0.704
 4592W        W 8111   1.976   9.492   8.497
 4593W        W 8112   9.685   0.435   8.331
 4594W        W 8113   3.221   2.887  10.699
 4595W        W 8114   4.451   3.044   1.201
 4596W        W 8115   2.737   4.557   8.977
 4597W        W 8116   2.711   4.219  11.373
 4598W        W 8117   8.861   0.528   0.021
 4599W        W 8118   8.103   4.813   1.134
 4600W        W 8119   2.003   8.863  10.248
 4601W        W 8120   9.763   9.834   1.501
 4602W        W 8121   0.366   6.124   2.187
 4603W        W 8122   0.530   2.114  10.583
 4604W        W 8123   4.490   4.132   3.132
 4605W        W 8124   8.398   7.062   1.482
 4606W        W 8125   4.061   2.275   1.301
 4607W        W 8126   7.520   0.170   3.346
 4608W        W 8127   6.016   2.039   0.020
 4609W        W 8128   3.392   8.698   3.006
 4610W        W 8129   3.698   9.902  10.906
 4611W        W 8130   3.636   6.841  10.664
 4612W        W 8131   7.112   6.499  11.420
 4613W        W 8132   9.074   5.162   0.694
 4614W        W 8133   5.238   7.596  11.186
 4615W        W 8134   1.414   4.503  11.279
 4616W        W 8135   3.724   6.391  11.440
 4617W        W 8136   3.822   5.883   3.662
 4618W        W 8137   6.282   0.824   3.533
 4619W        W 8138   5.697   2.716   0.739
 4620W        W 8139   2.016   1.259  11.407
 4621W        W 8140   3.300   8.536   0.020
 4622W        W 8141   9.517   4.222   9.418
 4623W        W 8142   0.043   5.697   1.890
 4624W        W 8143   2.458   3.360  11.104
 4625W        W 8144   6.841   5.038  10.760
 4626W        W 8145   2.314   7.195   1.564
 4627W        W 8146   4.624   9.166   8.900
 4628W        W 8147   0.395   7.595   9.693
 4629W        W 8148   9.566   6.371  10.145
 4630W        W 8149   6.734   0.265   9.005
 4631W        W 8150   1.656   4.593   3.254
 4632W        W 8151   0.155   6.596   3.539
 4633W        W 8152   5.926   2.454   0.288
 4634W        W 8153   9.557   8.016   1.499
 4635W        W 8154   3.742   2.825  10.764
 4636W        W 8155   4.270   6.143  10.649
 4637W        W 8156   6.854   3.889   8.927
 4638W        W 8157   0.937   7.958   2.596
 4639W        W 8158   1.869   4.138   2.490
 4640W        W 8159   5.974   1.175  11.778
 4641W        W 8160   6.467   3.489  10.014
 4642W        W 8161   3.344   6.471   3.650
 4643W        W 8162   7.567   4.156   1.119
 4644W        W 8163   0.752   6.618   2.647
 4645W        W 8164   8.595   8.446   2.417
 4646W        W 8165   5.782   7.460  11.183
 4647W        W 8166   5.661   9.507   0.662
 4648W        W 8167   0.038   4.880   0.156
 4649W        W 8168   7.914   6.902   0.341
 4650W        W 8169   1.044   1.308   8.678
 4651W        W 8170   3.273   1.701  11.618
 4652W        W 8171   6.525   8.826  10.963
 4653W        W 8172   8.543   4.480   0.927
 4654W        W 8173   3.231   3.333   8.534
 4655W        W 8174   2.082   6.588   2.182
 4656W        W 8175   8.105   2.358  11.440
 4657W        W 8176   5.576   6.769   1.601
 4658W        W 8177   3.200   2.292  10.085
 4659W        W 8178   0.187   0.642   1.978
 4660W        W 8179   5.206   8.103  11.079
 4661W        W 8180   1.819   6.086   9.927
 4662W        W 8181   7.822   9.895  10.379
 4663W        W 8182   6.513   4.867   9.894
 4664W        W 8183   0.881   6.474   0.489
 4665W        W 8184   2.050   7.636   1.506
 4666W        W 8185   4.206   6.270   3.449
 4667W        W 8186   6.363   6.785   3.643
 4668W        W 8187   9.668   6.669  11.305
 4669W        W 8188   6.533   3.094   9.230
 4670W        W 8189   2.029   3.643   2.333
 4671W        W 8190   7.054   0.346   2.243
 4672W        W 8191   4.762   9.886  11.589
 4673W        W 8192   4.469   6.887  11.784
 4674W        W 8193   4.814   7.421  10.926
 4675W        W 8194   0.402   1.986   2.456
 4676W        W 8195   7.454   4.248   2.173
 4677W        W 8196   0.392   6.399  10.640
 4678W        W 8197   9.022   8.159  11.271
 4679W        W 8198   3.866   9.044  10.988
 4680W        W 8199   1.829   4.032   9.323
 4681W        W 8200   0.833   4.024   0.650
 4682W        W 8201   9.230   8.913  10.625
 4683W        W 8202   0.188   7.607   2.346
 4684W        W 8203   0.745   2.988   2.798
 4685W        W 8204   7.582   9.587   3.693
 4686W        W 8205   4.790   2.741   1.837
 4687W        W 8206   8.186   4.888  10.536
 4688W        W 8207   0.370   2.229   1.815
 4689W        W 8208   3.059   6.190   8.980
 4690W        W 8209   3.988   3.753   0.361
 4691W        W 8210   4.018   7.055   8.521
 4692W        W 8211   5.097   9.438   9.587
 4693W        W 8212   0.659   2.588  11.867
 4694W        W 8213   6.080   7.812   0.110
 4695W        W 8214   4.202   3.998   8.851
 4696W        W 8215   0.452   1.991   3.457
 4697W        W 8216   3.345   9.811  11.801
 4698W        W 8217   2.861   5.167   2.649
 4699W        W 8218   3.064   1.257   9.336
 4700W        W 8219   8.902   7.164  10.964
 4701W        W 8220   8.408   0.280   1.766
 4702W        W 8221   4.633   2.467   9.582
 4703W        W 8222   9.356   9.056   2.064
 4704W        W 8223   5.541   2.852   9.995
 4705W        W 8224   9.590   8.202   2.562
 4706W        W 8225   8.966   9.295   1.867
 4707W        W 8226   8.788   1.160   1.396
 4708W        W 8227   9.035   3.105   3.309
 4709W        W 8228   7.553   6.369   2.826
 4710W        W 8229   4.539   9.577  11.250
 4711W        W 8230   9.754   0.417   0.014
 4712W        W 8231   4.714   4.405   2.299
 4713W        W 8232   6.841   3.620   0.382
 4714W        W 8233   4.126   4.777   3.125
 4715W        W 8234   4.686   5.729   1.109
 4716W        W 8235   7.595   8.007   0.955
 4717W        W 8236   6.961   8.987   2.781
 4718W        W 8237   5.852   0.287  10.826
 4719W        W 8238   1.760   0.105   0.797
 4720W        W 8239   3.367   1.460   0.683
 4721W        W 8240   3.994   7.615  11.807
 4722W        W 8241   3.906   8.976   9.384
 4723W        W 8242   2.626   1.627  10.160
 4724W        W 8243   6.218   8.617   9.552
 4725W        W 8244   0.978   3.676  11.020
 4726W        W 8245   1.890   7.463  10.785
 4727W        W 8246   7.946   8.176   3.135
 4728W        W 8247   7.897   1.014   8.894
 4729W        W 8248   8.471   5.926   8.810
 4730W        W 8249   3.362   1.186  11.780
 4731W        W 8250   6.992   1.110   3.521
 4732W        W 8251   6.722   0.733   2.340
 4733W        W 8252   0.928   2.099   3.246
 4734W        W 8253   4.102   4.818  10.557
 4735W        W 8254   8.038   4.909   1.647
 4736W        W 8255   5.475   0.644   9.221
 4737W        W 8256   7.921   0.279   2.020
 4738W        W 8257   2.137   5.120   8.593
 4739W        W 8258   0.726   8.885  11.971
 4740W        W 8259   1.014   4.993  11.094
 4741W        W 8260   3.954   9.365   0.585
 4742W        W 8261   7.122   6.048   0.217
 4743W        W 8262   4.754   9.847   0.109
 4744W        W 8263   3.217   9.931  11.326
 4745W        W 8264   3.327   4.592  11.998
 4746W        W 8265   5.049   2.367   3.051
 4747W        W 8266   6.181   1.910   2.122
 4748W        W 8267   0.009   4.120   3.125
 4749W        W 8268   1.394   7.451   3.405
 4750W        W 8269   9.885   2.045   0.497
 4751W        W 8270   8.080   8.199   0.874
 4752W        W 8271   9.966   3.135  11.436
 4753W        W 8272   4.988   3.257   8.590
 4754W        W 8273   8.284   0.035   3.417
 4755W        W 8274   5.558   3.827   8.900
 4756W        W 8275   0.824   1.712   0.272
 4757W        W 8276   9.449   0.876   0.620
 4758W        W 8277   3.769   6.566   0.433
 4759W        W 8278   4.922   5.630  10.149
 4760W        W 8279   8.469   5.983  11.241
 4761W        W 8280   4.972   4.792  10.204
 4762W        W 8281   9.892   0.277  10.003
 4763W        W 8282   1.295   5.499   1.329
 4764W        W 8283   8.817   7.296   1.257
 4765W        W 8284   1.874   9.349   0.104
 4766W        W 8285   4.856   0.000   2.772
 4767W        W 8286   6.408   2.641   0.205
 4768W        W 8287   0.855   9.065   1.705
 4769W        W 8288   6.305   2.213   0.514
 4770W        W 8289   2.024   9.915   1.230
 4771W        W 8290   9.927   2.159  11.991
 4772W        W 8291   6.677   0.212   2.607
 4773W        W 8292   7.607   5.158   1.551
 4774W        W 8293   1.644   1.159   0.741
 4775W        W 8294   0.972   9.271  11.617
 4776W        W 8295   9.475   5.852  10.087
 4777W        W 8296   1.737   0.646   0.836
 4778W        W 8297   7.083   8.198   3.697
 4779W        W 8298   0.770   3.687   9.334
 4780W        W 8299   5.016   3.452  10.047
 4781W        W 8300   8.381   7.585   3.471
 4782W        W 8301   8.711   0.201   1.365
 4783W        W 8302   5.949   2.317   1.878
 4784W        W 8303   7.260   9.459   2.308
 4785W        W 8304   4.050   6.693   2.278
 4786W        W 8305   0.247   0.946   2.433
 4787W        W 8306   3.124   2.325   0.337
 4788W        W 8307   0.655   3.813   9.819
 4789W        W 8308   6.025   4.629   0.827
 4790W        W 8309   6.810   9.461   1.401
 4791W        W 8310   3.393   7.438   3.177
 4792W        W 8311   8.524   4.841  11.865
 4793W        W 8312   4.060   6.562  10.113
 4794W        W 8313   2.028   2.779   3.440
 4795W        W 8314   0.832   0.493  10.321
 4796W        W 8315   2.270   1.945   2.070
 4797W        W 8316   7.570   3.375  10.067
 4798W        W 8317   8.493   4.123  10.801
 4799W        W 8318   9.879   7.232   2.443
 4800W        W 8319   8.500   8.966   0.653
 4801W        W 8320   7.639   8.996  10.001
 4802W        W 8321   8.508   0.776   2.169
 4803W        W 8322   1.273   1.957   2.557
 4804W        W 8323   8.998   3.598  11.452
 4805W        W 8324   9.860   4.570   1.732
 4806W        W 8325   2.074   4.628   4.074
 4807W        W 8326   0.470   1.732   2.008
 4808W        W 8327   9.082   2.617   1.522
 4809W        W 8328   8.742   1.944   0.805
 4810W        W 8329   6.634   6.315   8.038
 4811W        W 8330   4.695   0.819   0.200
 4812W        W 8331   5.900   0.883  10.886
 4813W        W 8332   3.926   7.956   1.103
 4814W        W 8333   1.631   1.653   0.611
 4815W        W 8334   5.892   7.972   8.889
 4816W        W 8335   0.655   1.077   2.692
 4817W        W 8336   8.988   0.621   0.696
 4818W        W 8337   0.346   9.505   3.586
 4819W        W 8338   6.293   1.139   9.219
 4820W        W 8339   2.545   6.380   2.145
 4821W        W 8340   8.526   4.236   9.749
 4822W        W 8341   2.898   2.424   2.897
 4823W        W 8342   5.180   9.204   3.606
 4824W        W 8343   1.623   6.614   9.221
 4825W        W 8344   5.169   1.567   0.957
 4826W        W 8345   8.356   6.228   9.236
 4827W        W 8346   0.310   3.091   9.145
 4828W        W 8347   7.466   9.978   2.306
 4829W        W 8348   4.873   0.151  10.942
 4830W        W 8349   4.006   7.613   0.716
 4831W        W 8350   5.658   2.019   8.723
 4832W        W 8351   3.552   2.152   1.335
 4833W        W 8352   8.067   6.710   0.799
 4834W        W 8353   5.795   1.926   9.602
 4835W        W 8354   3.693   1.037   9.588
 4836W        W 8355   4.769   8.911  11.936
 4837W        W 8356   3.177   3.364   0.617
 4838W        W 8357   4.776   4.429   1.708
 4839W        W 8358   2.924   4.768   9.975
 4840W        W 8359   5.683   8.813  10.564
 4841W        W 8360   4.928   4.884   1.555
 4842W        W 8361   9.551   1.365   9.110
 4843W        W 8362   2.278   9.457   2.603
 4844W        W 8363   9.375   2.777   8.986
 4845W        W 8364   6.443   3.805  11.528
 4846W        W 8365   9.283   7.716   1.810
 4847W        W 8366   7.517   8.616   3.249
 4848W        W 8367   8.980   2.307   0.529
 4849W        W 8368   6.145   6.214  11.533
 4850W        W 8369   0.686   7.783   1.019
 4851W        W 8370   0.383   7.117   0.256
 4852W        W 8371   6.422   2.035  11.564
 4853W        W 8372   1.255   0.960   1.006
 4854W        W 8373   8.950   0.365   1.800
 4855W        W 8374   5.287   3.031   8.226
 4856W        W 8375   9.359   5.973   8.717
 4857W        W 8376   9.524   9.027   1.575
 4858W        W 8377   1.358   8.789   9.009
 4859W        W 8378   8.020   3.675  11.446
 4860W        W 8379   3.411   6.016  11.594
 4861W        W 8380   3.605   5.491   2.241
 4862W        W 8381   1.025   7.444  11.183
 4863W        W 8382   4.416   9.139   0.660
 4864W        W 8383   0.659   0.004  11.212
 4865W        W 8384   1.617   6.772  11.481
 4866W        W 8385   1.780   0.342   1.255
 4867W        W 8386   3.959   6.797  11.083
 4868W        W 8387   2.280   9.164   9.896
 4869W        W 8388   7.097   7.177  10.958
 4870W        W 8389   1.373   5.825   0.354
 4871W        W 8390   8.160   6.486   2.719
 4872W        W 8391   7.102   2.388  10.349
 4873W        W 8392   1.197   1.706   3.018
 4874W        W 8393   4.015   2.854   1.457
 4875W        W 8394   2.801   2.052  10.387
 4876W        W 8395   2.696   7.271   2.418
 4877W        W 8396   2.821   9.891   3.151
 4878W        W 8397   3.470   1.201   2.160
 4879W        W 8398   5.017   5.283  11.372
 4880W        W 8399   5.016   6.545   1.160
 4881W        W 8400   8.642   9.706   3.570
 4882W        W 8401   0.434   8.952   3.367
 4883W        W 8402   1.690   8.448  10.192
 4884W        W 8403   8.100   1.148  11.921
 4885W        W 8404   0.153   5.303   2.182
 4886W        W 8405   3.691   2.306   9.937
 4887W        W 8406   7.565   4.378  10.973
 4888W        W 8407   6.554   0.484   0.753
 4889W        W 8408   4.075   9.550  11.018
 4890W        W 8409   8.432   2.224   0.230
 4891W        W 8410   4.619   0.934  11.260
 4892W        W 8411   7.686   1.825   9.048
 4893W        W 8412   5.420   5.972   2.772
 4894W        W 8413   5.804   4.335  10.043
 4895W        W 8414   4.383   6.692  11.337
 4896W        W 8415   9.977   7.334   0.543
 4897W        W 8416   6.442   0.365   0.263
 4898W        W 8417   9.059   9.215   9.774
 4899W        W 8418   5.581   1.480  11.628
 4900W        W 8419   9.969   4.392   3.555
 4901W        W 8420   6.985   5.607   3.587
 4902W        W 8421   5.109   2.560  11.755
 4903W        W 8422   1.403   5.512   1.844
 4904W        W 8423   6.923   6.143  11.061
 4905W        W 8424   2.253   4.893   0.518
 4906W        W 8425   5.205   3.776   9.674
 4907W        W 8426   9.787   8.974  10.311
 4908W        W 8427   6.590   6.534  11.489
 4909W        W 8428   2.859   0.232   8.858
 4910W        W 8429   1.864   4.270   0.041
 4911W        W 8430   0.970   0.573  11.193
 4912W        W 8431   2.978   2.667   9.503
 4913W        W 8432   6.968   3.389   1.362
 4914W        W 8433   7.250   8.529  10.362
 4915W        W 8434   8.404   1.945   9.762
 4916W        W 8435   7.273   7.607   9.114
 4917W        W 8436   1.263   8.067   9.712
 4918W        W 8437   1.388   5.059  10.029
 4919W        W 8438   2.201   1.277   9.010
 4920W        W 8439   0.205   2.761   0.947
 4921W        W 8440   0.215   8.054   3.254
 4922W        W 8441   2.014   5.523   3.515
 4923W        W 8442   3.424   9.090  11.255
 4924W        W 8443   9.041   5.592   9.960
 4925W        W 8444   0.933   9.359   2.876
 4926W        W 8445   5.111   6.560   9.185
 4927W        W 8446   9.948   8.566   2.371
 4928W        W 8447   4.395   7.265   3.627
 4929W        W 8448   2.796   8.198   0.666
 4930W        W 8449   5.663   7.629   3.230
 4931W        W 8450   0.771   8.524   3.238
 4932W        W 8451   4.759   1.369   2.435
 4933W        W 8452   3.736   5.083   2.513
 4934W        W 8453   8.968   8.769   0.502
 4935W        W 8454   2.899   5.534   0.461
 4936W        W 8455   8.479   9.426   1.907
 4937W        W 8456   3.763   7.207   0.905
 4938W        W 8457   7.659   8.451   0.677
 4939W        W 8458   4.200   8.070  11.787
 4940W        W 8459   0.460   2.176   9.004
 4941W        W 8460   5.171   6.079   9.405
 4942W        W 8461   1.140   7.421   1.999
 4943W        W 8462   4.146   9.850   9.144
 4944W        W 8463   0.412   6.706   3.079
 4945W        W 8464   7.999   6.063  11.339
 4946W        W 8465   3.534   5.120  11.329
 4947W        W 8466   3.834   0.973   1.745
 4948W        W 8467   8.411   2.523   2.884
 4949W        W 8468   6.255   8.481   3.071
 4950W        W 8469   3.983   8.455   2.514
 4951W        W 8470   2.182   8.666   1.274
 4952W        W 8471   5.613   5.115   2.598
 4953W        W 8472   7.081   7.353   2.023
 4954W        W 8473   1.473   3.305   0.578
 4955W        W 8474   8.492   1.109  11.227
 4956W        W 8475   9.075   3.498   2.448
 4957W        W 8476   9.539   9.505   0.430
 4958W        W 8477   6.644   2.659   2.279
 4959W        W 8478   9.894   8.442   1.861
 4960W        W 8479   4.541   9.803   3.552
 4961W        W 8480   4.639   1.933   2.261
 4962W        W 8481   6.191   7.844   2.160
 4963W        W 8482   3.090   4.324  10.130
 4964W        W 8483   4.621   6.330   8.606
 4965W        W 8484   1.400   5.345  10.610
 4966W        W 8485   1.295   9.768   9.029
 4967W        W 8486   7.150   2.030   9.563
 4968W        W 8487   2.023   5.630  10.044
 4969W        W 8488   4.122   5.591  10.890
 4970W        W 8489   5.343   3.391   1.271
 4971W        W 8490   3.691   8.547   0.378
 4972W        W 8491   7.813   2.141   1.741
 4973W        W 8492   2.383   3.313  10.597
 4974W        W 8493   4.094   3.372   3.482
 4975W        W 8494   2.746   3.831   1.329
 4976W        W 8495   4.963   8.205   2.921
 4977W        W 8496   8.943   2.737  11.702
 4978W        W 8497   6.099   9.026   2.279
 4979W        W 8498   3.252   5.142  10.896
 4980W        W 8499   8.841   4.940   2.650
 4981W        W 8500   5.779   5.456  11.465
 4982W        W 8501   0.764   3.782   2.159
 4983W        W 8502   9.721   1.913  10.278
 4984W        W 8503   6.552   6.511   9.575
 4985W        W 8504   6.355   0.240  10.258
 4986W        W 8505   1.664   7.899   9.464
 4987W        W 8506   1.633   0.281  11.859
 4988W        W 8507   8.970   6.862   9.944
 4989W        W 8508   8.966   8.268  11.839
 4990W        W 8509   3.812   1.140   2.588
 4991W        W 8510   7.450   6.150   4.125
 4992W        W 8511   5.253   4.145   0.813
 4993W        W 8512   0.453   9.634   3.072
 4994W        W 8513   8.657   9.966  10.172
 4995W        W 8514   6.425   7.089   1.177
 4996W        W 8515   1.759   7.574   0.290
 4997W        W 8516   6.271   1.900   9.783
 4998W        W 8517   7.135   2.318   0.070
 4999W        W 8518   0.923   3.402  11.453
 5000W        W 8519   1.372   9.876   3.416
 5001W        W 8520   1.721   5.925   1.812
 5002W        W 8521   1.696   1.753   0.091
 5003W        W 8522   7.607   6.837   1.708
 5004W        W 8523   7.119   0.733  10.302
 5005W        W 8524   8.177   5.873   2.034
 5006W        W 8525   9.808   7.191  10.351
 5007W        W 8526   9.722   6.191   1.084
 5008W        W 8527   6.058   5.107   2.979
 5009W        W 8528   3.773   6.685   1.778
 5010W        W 8529   8.315   3.199  10.455
 5011W        W 8530   5.795   4.506  11.158
 5012W        W 8531   8.031   1.872   9.425
 5013W        W 8532   1.362   7.594  10.469
 5014W        W 8533   1.227   8.713   1.589
 5015W        W 8534   1.457   5.475   0.709
 5016W        W 8535   7.424   8.069  10.504
 5017W        W 8536   3.612   9.571  11.316
 5018W        W 8537   8.753   2.143  10.084
 5019W        W 8538   9.468   6.005   2.560
 5020W        W 8539   0.332   8.421   1.603
 5021W        W 8540   0.783   5.341   1.272
 5022W        W 8541   6.713   1.377   0.390
 5023W        W 8542   5.301   0.245   2.716
 5024W        W 8543   4.633   8.791  10.982
 5025W        W 8544   0.290   2.462   2.303
 5026W        W 8545   2.095   3.586   9.459
 5027W        W 8546   9.391   4.996   1.053
 5028W        W 8547   5.945   6.074   0.057
 5029W        W 8548   0.466   3.693   1.761
 5030W        W 8549   1.835   7.196   1.335
 5031W        W 8550   0.183   7.221   1.349
 5032W        W 8551   1.092   0.221  11.968
 5033W        W 8552   4.203   0.832   2.835
 5034W        W 8553   7.959   7.191   1.676
 5035W        W 8554   6.913   6.052   4.126
 5036W        W 8555   2.476   5.040   3.295
 5037W        W 8556   3.104   4.409   8.157
 5038W        W 8557   9.244   2.249   3.178
 5039W        W 8558   5.167   2.539   0.711
 5040W        W 8559   6.827   6.958   3.798
 5041W        W 8560   0.721   5.289  10.747
 5042W        W 8561   5.119   1.072   2.813
 5043W        W 8562   4.983   6.677   4.061
 5044W        W 8563   0.146   3.473   0.702
 5045W        W 8564   7.999   4.263  10.199
 5046W        W 8565   5.266   7.007   9.504
 5047W        W 8566   8.063   3.450   2.263
 5048W        W 8567   6.451   9.722  11.455
 5049W        W 8568   5.845   9.971   8.877
 5050W        W 8569   9.359   6.891   2.098
 5051W        W 8570   9.229   7.887   2.352
 5052W        W 8571   2.211   6.905   3.502
 5053W        W 8572   4.293   6.545   1.862
 5054W        W 8573   5.381   2.329   2.602
 5055W        W 8574   6.041   5.493   1.366
 5056W        W 8575   7.139   7.573  11.646
 5057W        W 8576   1.000   0.011   1.806
 5058W        W 8577   7.307   6.069   9.046
 5059W        W 8578   8.749   9.403   3.173
 5060W        W 8579   3.876   8.967  11.481
 5061W        W 8580   9.558   7.506   0.295
 5062W        W 8581   1.919   6.444  10.852
 5063W        W 8582   1.310   9.855  10.574
 5064W        W 8583   7.877   9.266   9.548
 5065W        W 8584   8.358   6.314   0.883
 5066W        W 8585   3.216   8.039   2.420
 5067W        W 8586   5.895   1.017  10.394
 5068W        W 8587   1.635   2.778   1.148
 5069W        W 8588   2.693   9.321   9.277
 5070W        W 8589   3.294   4.634   9.673
 5071W        W 8590   5.183   7.851   2.571
 5072W        W 8591   2.289   5.957   3.468
 5073W        W 8592   6.574   9.263  10.398
 5074W        W 8593   6.468   2.418   2.763
 5075W        W 8594   1.308   8.455   2.355
 5076W        W 8595   6.486   5.101   2.531
 5077W        W 8596   0.806   4.430   3.238
 5078W        W 8597   5.803   4.923   2.153
 5079W        W 8598   7.835   2.605   9.893
 5080W        W 8599   6.078   9.457  10.338
 5081W        W 8600   7.870   3.465  10.470
 5082W        W 8601   2.516   2.564   3.306
 5083W        W 8602   9.580   6.759   0.244
 5084W        W 8603   7.749   5.594   2.407
 5085W        W 8604   3.460   0.982   3.509
 5086W        W 8605   9.458   4.363   0.065
 5087W        W 8606   5.712   8.628   3.023
 5088W        W 8607   8.396   7.095   1.988
 5089W        W 8608   8.710   9.262   2.332
 5090W        W 8609   3.553   8.270   2.784
 5091W        W 8610   8.726   2.912   9.613
 5092W        W 8611   3.166   2.952   0.920
 5093W        W 8612   4.814   0.385   9.688
 5094W        W 8613   3.696   7.243  11.033
 5095W        W 8614   4.431   5.495  10.032
 5096W        W 8615   3.539   8.234   1.299
 5097W        W 8616   3.701   5.427   9.440
 5098W        W 8617   1.217   1.931   0.829
 5099W        W 8618   4.258   2.330   9.242
 5100W        W 8619   1.955   1.001   3.076
 5101W        W 8620   9.721   3.592  11.457
 5102W        W 8621   4.554   5.591   0.174
 5103W        W 8622   3.847   8.166  11.416
 5104W        W 8623   8.760   7.060   0.278
 5105W        W 8624   1.115   3.375   3.392
 5106W        W 8625   0.778   0.866   8.592
 5107W        W 8626   9.500   9.419   9.624
 5108W        W 8627   4.045   0.908   3.325
 5109W        W 8628   7.975   8.747   3.040
 5110W        W 8629   7.575   4.376   9.956
 5111W        W 8630   0.506   3.055   0.636
 5112W        W 8631   8.194   6.229   3.602
 5113W        W 8632   0.409   3.341   9.583
 5114W        W 8633   0.903   2.229   8.751
 5115W        W 8634   5.542   8.295   8.713
 5116W        W 8635   1.475   7.500   2.830
 5117W        W 8636   5.827   8.915   9.679
 5118W        W 8637   3.181   4.689   9.181
 5119W        W 8638   8.418   5.719   1.572
 5120W        W 8639   3.991   4.649   2.644
 5121W        W 8640   2.216   6.226   0.450
 5122W        W 8641   6.788   0.588  11.441
 5123W        W 8642   2.917   8.961   0.090
 5124W        W 8643   1.365   0.645   0.084
 5125W        W 8644   9.824   4.865   2.192
 5126W        W 8645   6.295   5.526   2.802
 5127W        W 8646   3.480   0.588   0.301
 5128W        W 8647   2.139   9.190   1.569
 5129W        W 8648   8.637   2.252   1.445
 5130W        W 8649   9.489   5.342  11.420
 5131W        W 8650   4.164   0.849   1.390
 5132W        W 8651   8.459   3.507   0.684
 5133W        W 8652   7.298   0.629   1.561
 5134W        W 8653   9.006   5.891   2.303
 5135W        W 8654   8.580   9.665   0.254
 5136W        W 8655   5.914   3.012   8.796
 5137W        W 8656   0.045   5.475   9.878
 5138W        W 8657   1.039   0.350   9.868
 5139W        W 8658   3.245   6.724   8.126
 5140W        W 8659   8.261   0.641   3.175
 5141W        W 8660   4.472   3.212   0.691
 5142W        W 8661   2.723   5.532  10.989
 5143W        W 8662   1.690   3.173  11.333
 5144W        W 8663   2.138   0.407  11.966
 5145W        W 8664   7.857   2.988   2.151
 5146W        W 8665   5.759   9.818   2.293
 5147W        W 8666   3.515   2.667   1.490
 5148W        W 8667   9.638   9.963   0.238
 5149W        W 8668   8.313   5.106   9.942
 5150W        W 8669   6.171   9.018  10.632
 5151W        W 8670   5.894   6.385  11.104
 5152W        W 8671   0.438   1.559   0.002
 5153W        W 8672   6.179   4.705   0.013
 5154W        W 8673   6.292   4.195   0.726
 5155W        W 8674   9.450   9.310   8.671
 5156W        W 8675   9.421   7.091  11.176
 5157W        W 8676   5.659   1.437   0.579
 5158W        W 8677   4.199   5.065   9.828
 5159W        W 8678   7.709   4.796   9.032
 5160W        W 8679   1.312   7.133   0.167
 5161W        W 8680   2.379   5.254   2.820
 5162W        W 8681   5.402   4.894  10.452
 5163W        W 8682   9.452   5.520   0.690
 5164W        W 8683   2.354   7.887   1.841
 5165W        W 8684   6.764   1.461   8.599
 5166W        W 8685   4.200   6.406   2.730
 5167W        W 8686   6.918   8.742  10.042
 5168W        W 8687   4.240   8.893   2.402
 5169W        W 8688   0.749   6.108  11.839
 5170W        W 8689   9.810   4.628  10.020
 5171W        W 8690   7.665   1.019   2.351
 5172W        W 8691   6.088   2.842   2.131
 5173W        W 8692   7.916   9.421  11.669
 5174W        W 8693   3.754   1.969   2.861
 5175W        W 8694   2.850   5.087  11.266
 5176W        W 8695   3.799   4.126   3.849
 5177W        W 8696   9.010   9.866   1.614
 5178W        W 8697   8.957   8.076  10.763
 5179W        W 8698   8.409   5.207   2.257
 5180W        W 8699   4.477   4.244   9.689
 5181W        W 8700   8.823   3.717   2.056
 5182W        W 8701   5.951   6.943  11.913
 5183W        W 8702   1.073   4.998   0.465
 5184W        W 8703   1.876   7.671  11.263
 5185W        W 8704   3.776   2.963   2.412
 5186W        W 8705   2.978   8.832   3.286
 5187W        W 8706   5.602   7.032   4.038
 5188W        W 8707   5.498   2.625   3.025
 5189W        W 8708   1.788   0.037   2.640
 5190W        W 8709   0.549   3.509   8.913
 5191W        W 8710   8.044   1.187   2.646
 5192W        W 8711   7.655   9.757  10.936
 5193W        W 8712   5.196   3.496   4.062
 5194W        W 8713   3.895   9.883   0.513
 5195W        W 8714   6.966   9.031   9.202
 5196W        W 8715   2.189   3.866   2.791
 5197W        W 8716   7.384   3.613   0.478
 5198W        W 8717   0.006   5.983   1.451
 5199W        W 8718   9.625   1.452   1.689
 5200W        W 8719   6.888   9.853   3.111
 5201W        W 8720   7.855   7.678   1.739
 5202W        W 8721   6.430   7.296  11.006
 5203W        W 8722   1.693   5.394   8.716
 5204W        W 8723   1.821   5.503   1.518
 5205W        W 8724   9.751   8.051   9.062
 5206W        W 8725   1.531   0.179   9.763
 5207W        W 8726   0.701   7.290   1.227
 5208W        W 8727   2.363   4.751   9.806
 5209W        W 8728   2.072   4.060   0.526
 5210W        W 8729   7.247   5.570   8.956
 5211W        W 8730   9.760   0.828  10.842
 5212W        W 8731   8.025   6.124  10.053
 5213W        W 8732   2.203   4.241  10.548
 5214W        W 8733   3.944   5.420  11.405
 5215W        W 8734   1.373   8.419   0.632
 5216W        W 8735   5.533   1.829  10.047
 5217W        W 8736   8.297   2.380  10.056
 5218W        W 8737   9.489   1.442   2.186
 5219W        W 8738   3.757   2.224   0.760
 5220W        W 8739   1.772   1.557   9.110
 5221W        W 8740   3.552   6.253   8.818
 5222W        W 8741   3.031   1.843   8.627
 5223W        W 8742   9.297   6.342  11.396
 5224W        W 8743   0.162   0.630   0.226
 5225W        W 8744   4.574   2.181   3.004
 5226W        W 8745   9.821   9.394   1.803
 5227W        W 8746   8.961   5.112  11.722
 5228W        W 8747   2.154   3.695   0.925
 5229W        W 8748   3.506   1.854   9.992
 5230W        W 8749   4.624   9.552   9.336
 5231W        W 8750   6.297   3.768   1.670
 5232W        W 8751   2.230   8.321   3.226
 5233W        W 8752   7.927   2.263   2.690
 5234W        W 8753   5.294   5.040   1.227
 5235W        W 8754   4.233   5.488   9.542
 5236W        W 8755   4.195   4.580  10.108
 5237W        W 8756   9.351   9.920   1.203
 5238W        W 8757   5.489   2.342   1.046
 5239W        W 8758   2.641   0.477  10.278
 5240W        W 8759   8.502   5.491  11.276
 5241W        W 8760   4.929   7.059  11.906
 5242W        W 8761   6.038   1.716   3.203
 5243W        W 8762   3.965   0.342   0.309
 5244W        W 8763   9.047   5.380   1.151
 5245W        W 8764   1.665   6.187  11.217
 5246W        W 8765   0.412   3.037  11.708
 5247W        W 8766   9.114   9.488   9.290
 5248W        W 8767   3.086   0.369   2.487
 5249W        W 8768   4.917   6.352   3.225
 5250W        W 8769   6.498   3.622   9.221
 5251W        W 8770   1.528   2.923   3.551
 5252W        W 8771   1.678   8.077  10.995
 5253W        W 8772   3.207   5.610  10.678
 5254W        W 8773   8.582   3.362   2.337
 5255W        W 8774   1.406   6.983   1.144
 5256W        W 8775   9.184   4.209   1.997
 5257W        W 8776   1.319   3.110   1.700
 5258W        W 8777   4.158   9.321   9.060
 5259W        W 8778   8.310   7.527   1.265
 5260W        W 8779   3.482   8.184   9.358
 5261W        W 8780   3.057   5.819   8.331
 5262W        W 8781   5.636   6.446   3.681
 5263W        W 8782   6.783   4.011  11.853
 5264W        W 8783   0.683   7.055   1.771
 5265W        W 8784   7.702   5.624   0.431
 5266W        W 8785   2.160   0.911   0.043
 5267W        W 8786   0.053   2.836  10.861
 5268W        W 8787   8.646   9.416   8.863
 5269W        W 8788   5.967   4.033   2.103
 5270W        W 8789   7.625   6.534   0.590
 5271W        W 8790   2.691   7.769   2.562
 5272W        W 8791   5.686   9.340   2.123
 5273W        W 8792   1.314   6.111  10.040
 5274W        W 8793   1.183   6.714  11.827
 5275W        W 8794   3.247   6.673   8.934
 5276W        W 8795   2.706   5.634   2.775
 5277W        W 8796   3.431   7.968   8.887
 5278W        W 8797   8.076   5.654  10.967
 5279W        W 8798   9.358   6.146   9.200
 5280W        W 8799   4.944   1.838   0.234
 5281W        W 8800   7.662   7.318   2.825
 5282W        W 8801   2.693   4.248  11.887
 5283W        W 8802   8.794   3.919   2.652
 5284W        W 8803   4.943   9.222  11.013
 5285W        W 8804   0.274   8.543   3.098
 5286W        W 8805   6.469   4.161   2.125
 5287W        W 8806   4.032   4.355  11.532
 5288W        W 8807   1.416   9.719   1.777
 5289W        W 8808   8.347   3.032   2.634
 5290W        W 8809   3.290   1.855   1.704
 5291W        W 8810   8.418   3.067   8.491
 5292W        W 8811   8.430   4.446   1.846
 5293W        W 8812   7.497   6.429   8.721
 5294W        W 8813   0.741   4.483   1.440
 5295W        W 8814   1.144   8.039  10.211
 5296W        W 8815   2.244   2.933  10.943
 5297W        W 8816   4.280   3.655  11.100
 5298W        W 8817   3.527   0.102   0.175
 5299W        W 8818   5.181   4.120  11.069
 5300W        W 8819   4.518   1.361  11.547
 5301W        W 8820   9.133   2.214   9.683
 5302W        W 8821   1.851   6.253   8.908
 5303W        W 8822   5.471   3.344   9.846
 5304W        W 8823   6.647   2.722  10.958
 5305W        W 8824   6.067   4.970   0.443
 5306W        W 8825   3.194   1.222   3.114
 5307W        W 8826   5.009   8.550   9.543
 5308W        W 8827   0.718   1.680  10.329
 5309W        W 8828   8.867   3.260   0.448
 5310W        W 8829   8.116   9.808   2.824
 5311W        W 8830   9.882   3.393  10.977
 5312W        W 8831   9.991   8.826   1.508
 5313W        W 8832   1.160   8.016  10.731
 5314W        W 8833   0.845   8.399  11.100
 5315W        W 8834   3.659   0.014   1.988
 5316W        W 8835   3.222   2.002  10.884
 5317W        W 8836   4.088   0.894   9.004
 5318W        W 8837   0.055   1.013  10.467
 5319W        W 8838   4.111   5.826  10.285
 5320W        W 8839   9.731   6.992   1.455
 5321W        W 8840   4.316   1.161   0.464
 5322W        W 8841   1.614   7.231  11.244
 5323W        W 8842   8.388   0.265   2.284
 5324W        W 8843   6.132   6.419   0.433
 5325W        W 8844   9.020   2.183   1.774
 5326W        W 8845   8.205   1.948  11.761
 5327W        W 8846   4.987   4.347  11.511
 5328W        W 8847   0.276   2.360   0.312
 5329W        W 8848   2.070   2.056   3.702
 5330W        W 8849   4.778   5.594   9.633
 5331W        W 8850   3.713   9.522   1.527
 5332W        W 8851   9.198   1.887  11.902
 5333W        W 8852   4.004   6.216   4.251
 5334W        W 8853   2.665   7.515   0.217
 5335W        W 8854   1.383   0.846  11.370
 5336W        W 8855   2.685   2.922  11.258
 5337W        W 8856   2.553   8.031   9.427
 5338W        W 8857   2.193   3.463  11.916
 5339W        W 8858   9.140   7.442   0.003
 5340W        W 8859   4.585   3.177  11.668
 5341W        W 8860   3.582   7.406   0.044
 5342W        W 8861   8.133   7.592  10.696
 5343W        W 8862   8.670   6.504  10.133
 5344W        W 8863   3.913   5.664   4.099
 5345W        W 8864   0.997   9.327   9.007
 5346W        W 8865   0.857   2.594  11.121
 5347W        W 8866   4.186   6.337  11.664
 5348W        W 8867   5.097   8.804   2.215
 5349W        W 8868   6.206   4.535   8.671
 5350W        W 8869   1.733   6.664  10.400
 5351W        W 8870   6.771   8.469   0.890
 5352W        W 8871   4.604   8.408  11.881
 5353W        W 8872   8.916   4.624   1.817
 5354W        W 8873   2.344   0.776   1.717
 5355W        W 8874   4.692   5.419   9.051
 5356W        W 8875   8.392   5.822   0.709
 5357W        W 8876   2.439   0.354  11.299
 5358W        W 8877   5.741   6.814   8.271
 5359W        W 8878   7.983   9.081   3.440
 5360W        W 8879   8.963   6.673  10.838
 5361W        W 8880   5.637   2.715  10.863
 5362W        W 8881   6.533   6.547  10.598
 5363W        W 8882   3.353   7.535  10.736
 5364W        W 8883   3.197   4.229   2.348
 5365W        W 8884   7.344   9.692   3.236
 5366W        W 8885   8.537   2.338  11.747
 5367W        W 8886   8.922   1.745   9.804
 5368W        W 8887   3.508   5.036   8.599
 5369W        W 8888   2.266   2.622   9.986
 5370W        W 8889   0.912   7.594   3.504
 5371W        W 8890   8.383   0.805   2.677
 5372W        W 8891   2.966   9.962   1.007
 5373W        W 8892   1.904   0.479   9.988
 5374W        W 8893   1.253   4.641   2.429
 5375W        W 8894   5.997   3.185  11.806
 5376W        W 8895   5.392   6.313   4.117
 5377W        W 8896   5.959   2.267   0.870
 5378W        W 8897   7.515   3.619   3.023
 5379W        W 8898   2.611   2.894   1.047
 5380W        W 8899   1.436   0.760   1.839
 5381W        W 8900   2.510   1.024   0.390
 5382W        W 8901   3.265   1.479   8.910
 5383W        W 8902   1.787   4.724   9.941
 5384W        W 8903   0.038   1.712  11.742
 5385W        W 8904   6.121   6.008  10.757
 5386W        W 8905   8.227   8.567  11.401
 5387W        W 8906   1.465   0.855  10.849
 5388W        W 8907   6.866   9.064   0.419
 5389W        W 8908   0.113   4.817  11.427
 5390W        W 8909   0.435   5.867  11.309
 5391W        W 8910   2.587   1.293   1.931
 5392W        W 8911   6.669   6.373  10.101
 5393W        W 8912   6.738   3.894   0.803
 5394W        W 8913   6.620   5.212   3.546
 5395W        W 8914   6.661   9.847  10.994
 5396W        W 8915   4.510   5.837   8.766
 5397W        W 8916   2.225   5.663   2.495
 5398W        W 8917   7.024   0.714   9.493
 5399W        W 8918   0.328   3.304   2.733
 5400W        W 8919   6.512   2.242   8.691
 5401W        W 8920   6.967   6.262   0.933
 5402W        W 8921   6.174   1.868  10.271
 5403W        W 8922   9.354   9.232   0.016
 5404W        W 8923   6.768   5.860  10.211
 5405W        W 8924   2.185   4.312  10.013
 5406W        W 8925   6.686   5.826   0.826
 5407W        W 8926   8.924   5.990  11.456
 5408W        W 8927   6.493   8.019   2.982
 5409W        W 8928   6.497   0.666   1.249
 5410W        W 8929   2.929   3.250  10.948
 5411W        W 8930   2.314   9.261  10.905
 5412W        W 8931   1.275   6.217   0.632
 5413W        W 8932   7.699   2.698   3.381
 5414W        W 8933   1.673   3.212   2.474
 5415W        W 8934   1.732   1.216   2.230
 5416W        W 8935   5.620   4.481   1.109
 5417W        W 8936   2.056   6.436  11.933
 5418W        W 8937   0.876   8.863   9.195
 5419W        W 8938   8.025   5.619   9.945
 5420W        W 8939   6.942   8.245   8.562
 5421W        W 8940   5.338   1.043  11.558
 5422W        W 8941   5.047   1.707   9.950
 5423W        W 8942   9.461   1.448   2.756
 5424W        W 8943   5.962   0.513  10.393
 5425W        W 8944   8.450   9.737   2.414
 5426W        W 8945   1.222   2.501   3.390
 5427W        W 8946   9.454   6.517  10.827
 5428W        W 8947   6.062   7.961  11.215
 5429W        W 8948   2.282   7.925   2.862
 5430W        W 8949   1.287   1.312   9.130
 5431W        W 8950   5.289   1.984   9.577
 5432W        W 8951   5.710   8.097   9.389
 5433W        W 8952   6.513   1.987   3.051
 5434W        W 8953   1.166   8.951   2.576
 5435W        W 8954   3.410   5.295   3.308
 5436W        W 8955   2.640   6.404   2.687
 5437W        W 8956   9.023   4.178   9.587
 5438W        W 8957   3.384   4.740  10.195
 5439W        W 8958   2.658   9.208   2.328
 5440W        W 8959   2.261   2.166   9.586
 5441W        W 8960   2.716   7.414   0.700
 5442W        W 8961   0.217   1.727   8.900
 5443W        W 8962   5.398   1.478   2.716
 5444W        W 8963   9.200   1.819   1.010
 5445W        W 8964   5.441   1.813   0.296
 5446W        W 8965   6.148   2.326  10.519
 5447W        W 8966   1.531   8.310   9.186
 5448W        W 8967   9.185   6.637   0.686
 5449W        W 8968   0.054   4.783   8.760
 5450W        W 8969   1.892   4.710   9.079
 5451W        W 8970   9.451   2.225   0.257
 5452W        W 8971   0.588   4.660  11.410
 5453W        W 8972   7.775   9.242   1.289
 5454W        W 8973   6.536   1.312  11.009
 5455W        W 8974   0.119   2.876   9.615
 5456W        W 8975   4.772   6.429   8.130
 5457W        W 8976   2.835   6.859  10.272
 5458W        W 8977   3.209   8.756   0.474
 5459W        W 8978   3.573   7.103   2.066
 5460W        W 8979   7.985   4.168   9.702
 5461W        W 8980   2.124   8.333   1.697
 5462W        W 8981   9.335   4.570   3.439
 5463W        W 8982   9.997   3.252   9.927
 5464W        W 8983   2.679   7.163   1.140
 5465W        W 8984   0.041   4.278   0.132
 5466W        W 8985   4.356   5.437  11.731
 5467W        W 8986   8.917   4.622  11.536
 5468W        W 8987   9.604   6.582   3.253
 5469W        W 8988   4.773   3.396   2.448
 5470W        W 8989   2.345   2.806   1.719
 5471W        W 8990   1.886   9.163   0.583
 5472W        W 8991   9.089   1.739  11.410
 5473W        W 8992   5.512   5.941   0.867
 5474W        W 8993   9.843   2.519   0.686
 5475W        W 8994   9.779   5.707   8.582
 5476W        W 8995   9.971   1.074   1.785
 5477W        W 8996   0.360   1.392  10.547
 5478W        W 8997   7.659   7.556  11.662
 5479W        W 8998   2.640   8.503   1.491
 5480W        W 8999   3.955   1.359   2.111
 5481W        W 9000   6.078   8.064  10.204
 5482W        W 9001   1.196   5.166   2.190
 5483W        W 9002   7.087   1.524   9.757
 5484W        W 9003   9.950   4.264   0.807
 5485W        W 9004   1.178   4.027  10.037
 5486W        W 9005   9.898   2.256   2.623
 5487W        W 9006   5.272   5.179   9.637
 5488W        W 9007   6.106   7.960   1.449
 5489W        W 9008   8.125   5.925   0.271
 5490W        W 9009   8.976   0.908   2.037
 5491W        W 9010   4.132   8.849   9.838
 5492W        W 9011   9.523   8.390   3.669
 5493W        W 9012   9.830   1.301  11.983
 5494W        W 9013   2.046   6.496   0.874
 5495W        W 9014   5.578   4.358   8.938
 5496W        W 9015   5.118   0.178  10.040
 5497W        W 9016   9.480   3.588   2.135
 5498W        W 9017   0.887   5.622   1.774
 5499W        W 9018   8.828   7.489   3.171
 5500W        W 9019   5.735   1.819  11.246
 5501W        W 9020   0.758   2.433   1.468
 5502W        W 9021   6.117   5.713   9.577
 5503W        W 9022   5.952   1.472   8.946
 5504W        W 9023   9.846   0.857   2.777
 5505W        W 9024   6.378   3.814   8.757
 5506W        W 9025   9.376   4.393   3.906
 5507W        W 9026   8.897   7.973   9.207
 5508W        W 9027   7.084   0.959   0.303
 5509W        W 9028   3.772   9.457   3.153
 5510W        W 9029   9.941   8.152   8.587
 5511W        W 9030   1.067   7.468   2.502
 5512W        W 9031   5.147   1.924   3.345
 5513W        W 9032   8.471   7.087   3.487
 5514W        W 9033   3.154   4.398  11.550
 5515W        W 9034   4.515   3.838   0.194
 5516W        W 9035   7.466   1.325   1.992
 5517W        W 9036   0.368   5.232   8.802
 5518W        W 9037   7.391   5.693  11.984
 5519W        W 9038   9.028   0.421  11.014
 5520W        W 9039   9.006   5.805   1.462
 5521W        W 9040   3.474   1.928   0.419
 5522W        W 9041   8.341   7.078   0.533
 5523W        W 9042   4.172   7.953  10.459
 5524W        W 9043   0.015   2.219   9.993
 5525W        W 9044   8.165   0.563  10.871
 5526W        W 9045   5.218   8.709   0.759
 5527W        W 9046   7.093   1.641   0.770
 5528W        W 9047   7.862   1.135   1.693
 5529W        W 9048   6.393   4.634  10.361
 5530W        W 9049   6.903   6.276   9.299
 5531W        W 9050   0.177   7.323  10.659
 5532W        W 9051   4.105   7.335   1.455
 5533W        W 9052   9.665   2.855  10.554
 5534W        W 9053   9.737   4.870   3.630
 5535W        W 9054   9.496   5.200  10.915
 5536W        W 9055   5.298   4.467  11.908
 5537W        W 9056   8.380   9.814  11.663
 5538W        W 9057   5.250   9.740   0.832
 5539W        W 9058   0.399   9.932   8.970
 5540W        W 9059   3.772   9.745   8.494
 5541W        W 9060   6.617   4.223   8.556
 5542W        W 9061   1.507   9.386   8.760
 5543W        W 9062   5.986   5.157  11.858
 5544W        W 9063   7.741   1.590  11.158
 5545W        W 9064   7.572   5.378   9.713
 5546W        W 9065   3.466   2.530  11.423
 5547W        W 9066   7.793   8.443   1.222
 5548W        W 9067   6.058   4.255   2.561
 5549W        W 9068   4.097   7.045   1.896
 5550W        W 9069   9.344   3.879   9.822
 5551W        W 9070   5.342   0.288  10.870
 5552W        W 9071   6.645   4.686   2.219
 5553W        W 9072   6.015   8.568   2.607
 5554W        W 9073   2.397   5.736   0.474
 5555W        W 9074   5.799   4.326  11.904
 5556W        W 9075   4.175   0.822  10.063
 5557W        W 9076   3.623   4.651   2.999
 5558W        W 9077   7.328   0.837   9.001
 5559W        W 9078   5.315   8.957   9.599
 5560W        W 9079   1.357   9.886   2.921
 5561W        W 9080   0.124   4.551   9.635
 5562W        W 9081   3.755   6.558   8.438
 5563W        W 9082   2.252   5.193  10.028
 5564W        W 9083   4.374   6.114   1.286
 5565W        W 9084   3.227   7.870   1.417
 5566W        W 9085   6.435   6.340   1.834
 5567W        W 9086   2.444   4.887   1.015
 5568W        W 9087   8.801   5.363   1.620
 5569W        W 9088   7.141   9.726   1.121
 5570W        W 9089   2.377   2.302  10.583
 5571W        W 9090   7.483   8.630   9.038
 5572W        W 9091   2.910   3.142  11.931
 5573W        W 9092   4.396   4.846   0.831
 5574W        W 9093   6.457   0.395  11.763
 5575W        W 9094   3.908   8.511   1.096
 5576W        W 9095   2.501   5.335   3.731
 5577W        W 9096   6.498   8.963   1.995
 5578W        W 9097   1.050   1.168   3.476
 5579W        W 9098   8.680   2.824  10.526
 5580W        W 9099   3.681   4.907   1.280
 5581W        W 9100   7.300   5.207  10.879
 5582W        W 9101   7.421   3.509  11.417
 5583W        W 9102   2.252   3.283   1.840
 5584W        W 9103   3.192   3.726   1.576
 5585W        W 9104   4.370   1.116  11.953
 5586W        W 9105   7.120   7.286  10.427
 5587W        W 9106   0.877   3.476  10.141
 5588W        W 9107   7.982   7.157   3.324
 5589W        W 9108   0.818   2.071   2.749
 5590W        W 9109   4.045   9.392   0.081
 5591W        W 9110   7.639   6.437   9.895
 5592W        W 9111   8.195   5.148  11.021
 5593W        W 9112   4.480   5.367   0.820
 5594W        W 9113   7.896   2.081   9.937
 5595W        W 9114   3.287   5.431   1.838
 5596W        W 9115   4.195   0.452   3.204
 5597W        W 9116   7.688   2.181   3.534
 5598W        W 9117   7.959   0.234   3.076
 5599W        W 9118   7.313   0.298   9.700
 5600W        W 9119   8.841   3.496   1.550
 5601W        W 9120   8.413   1.233   9.066
 5602W        W 9121   4.774   5.735   0.607
 5603W        W 9122   5.784   3.713   1.675
 5604W        W 9123   9.423   3.314  10.623
 5605W        W 9124   6.478   2.589   9.057
 5606W        W 9125   1.439   7.639  10.966
 5607W        W 9126   4.800   4.864  11.123
 5608W        W 9127   4.274   9.024  11.819
 5609W        W 9128   9.401   2.836   1.972
 5610W        W 9129   5.480   5.413   1.535
 5611W        W 9130   2.752   5.692   0.923
 5612W        W 9131   1.141   2.795   9.474
 5613W        W 9132   4.619   4.993  11.582
 5614W        W 9133   5.554   9.365   2.606
 5615W        W 9134   9.013   8.658   9.921
 5616W        W 9135   3.719   1.761  11.929
 5617W        W 9136   6.980   3.901   1.279
 5618W        W 9137   4.662   8.581   3.116
 5619W        W 9138   6.605   1.167   1.254
 5620W        W 9139   5.306   8.369   9.164
 5621W        W 9140   6.084   2.810   9.270
 5622W        W 9141   9.273   6.690   9.256
 5623W        W 9142   3.059   8.431   2.095
 5624W        W 9143   7.085   1.824   2.351
 5625W        W 9144   5.689   7.038  11.485
 5626W        W 9145   5.890   8.655   1.920
 5627W        W 9146   7.601   8.896   0.936
 5628W        W 9147   6.121   8.312   3.591
 5629W        W 9148   5.927   8.481   9.942
 5630W        W 9149   1.745   3.554   9.081
 5631W        W 9150   9.123   1.754   3.071
 5632W        W 9151   1.069   2.028   3.741
 5633W        W 9152   9.048   0.822  11.364
 5634W        W 9153   0.983   3.779  11.809
 5635W        W 9154   7.278   0.372  10.639
 5636W        W 9155   2.331   8.784   1.767
 5637W        W 9156   5.838   6.121   8.816
 5638W        W 9157   1.147   9.803   2.266
 5639W        W 9158   7.288   8.150   8.962
 5640W        W 9159   4.221   7.521   8.719
 5641W        W 9160   9.039   8.938   1.442
 5642W        W 9161   0.292   5.157   1.165
 5643W        W 9162   0.514   9.799  10.073
 5644W        W 9163   5.179   3.563  11.079
 5645W        W 9164   0.855   4.409   2.683
 5646W        W 9165   1.900   2.163  10.433
 5647W        W 9166   7.080   5.100   9.816
 5648W        W 9167   1.384   7.038   3.105
 5649W        W 9168   3.014   4.491   3.727
 5650W        W 9169   5.933   3.668  10.425
 5651W        W 9170   7.386   4.753  10.653
 5652W        W 9171   7.932   3.073  10.786
 5653W        W 9172   1.285   0.875   8.557
 5654W        W 9173   6.715   8.800   9.577
 5655W        W 9174   6.706   7.732  11.844
 5656W        W 9175   3.766   2.354   3.263
 5657W        W 9176   4.020   0.332  10.209
 5658W        W 9177   2.124   2.355   1.790
 5659W        W 9178   1.736   2.257   9.398
 5660W        W 9179   4.644   5.525   3.231
 5661W        W 9180   3.024   0.855   2.256
 5662W        W 9181   6.952   9.094  10.982
 5663W        W 9182   4.908   2.860   1.329
 5664W        W 9183   1.910   6.750   3.880
 5665W        W 9184   3.362   2.518   9.186
 5666W        W 9185   5.023   9.532   0.421
 5667W        W 9186   1.349   1.765   9.802
 5668W        W 9187   4.479   4.946   8.985
 5669W        W 9188   1.643   9.971  11.378
 5670W        W 9189   0.546   4.234   0.297
 5671W        W 9190   7.284   9.312   1.374
 5672W        W 9191   9.777   2.660   9.283
 5673W        W 9192   0.836   5.858   1.319
 5674W        W 9193   1.425   9.333   0.393
 5675W        W 9194   0.139   6.409   0.824
 5676W        W 9195   9.375   8.286   3.024
 5677W        W 9196   3.748   2.922   2.951
 5678W        W 9197   1.104   6.482   1.044
 5679W        W 9198   9.340   8.233   8.774
 5680W        W 9199   3.758   2.784   1.920
 5681W        W 9200   5.439   4.146   0.295
 5682W        W 9201   7.891   8.317   8.955
 5683W        W 9202   9.427   6.682   9.742
 5684W        W 9203   1.736   1.698  10.639
 5685W        W 9204   2.910   4.755   1.179
 5686W        W 9205   0.755   7.563   1.696
 5687W        W 9206   9.557   4.415   2.381
 5688W        W 9207   3.743   4.894   3.443
 5689W        W 9208   8.068   3.723   0.442
 5690W        W 9209   5.194   7.754   0.534
 5691W        W 9210   5.140   7.805   4.399
 5692W        W 9211   5.225   3.832  10.651
 5693W        W 9212   6.233   7.316   2.136
 5694W        W 9213   7.769   0.412   1.534
 5695W        W 9214   0.834   6.151   2.430
 5696W        W 9215   6.816   4.428   0.853
 5697W        W 9216   3.348   4.578   1.501
 5698W        W 9217   9.425   0.137   1.765
 5699W        W 9218   2.747   6.035   9.792
 5700W        W 9219   2.671   4.557   3.330
 5701W        W 9220   9.693   8.871  10.807
 5702W        W 9221   0.893   5.856   9.824
 5703W        W 9222   5.136   5.700  10.640
 5704W        W 9223   5.292   5.693   9.766
 5705W        W 9224   6.682   5.721   0.340
 5706W        W 9225   1.544   4.819  10.467
 5707W        W 9226   6.913   2.576   1.815
 5708W        W 9227   1.113   9.573   1.381
 5709W        W 9228   7.540   0.506   2.376
 5710W        W 9229   1.753   8.552  11.270
 5711W        W 9230   1.383   9.531  11.373
 5712W        W 9231   7.832   0.533   9.038
 5713W        W 9232   1.868   9.571   0.894
 5714W        W 9233   6.034   5.303   2.419
 5715W        W 9234   1.955   0.898   8.481
 5716W        W 9235   1.735   1.738  11.581
 5717W        W 9236   4.258   9.470   3.265
 5718W        W 9237   2.482   1.249  10.448
 5719W        W 9238   3.236   5.140   1.223
 5720W        W 9239   5.910   9.026   2.756
 5721W        W 9240   6.651   6.253   1.360
 5722W        W 9241   1.941   3.096  10.445
 5723W        W 9242   2.245   8.998   9.326
 5724W        W 9243   5.061   9.375   9.071
 5725W        W 9244   6.162   9.855   9.982
 5726W        W 9245   7.113   6.074   2.792
 5727W        W 9246   2.847   4.551   1.645
 5728W        W 9247   5.991   5.008  11.236
 5729W        W 9248   3.240   2.840   1.910
 5730W        W 9249   0.457   6.914   8.727
 5731W        W 9250   7.137   3.987   0.214
 5732W        W 9251   5.122   6.166  11.566
 5733W        W 9252   7.122   8.491   9.414
 5734W        W 9253   9.785   9.833   9.757
 5735W        W 9254   7.583   6.334  11.289
 5736W        W 9255   1.968   0.501   3.214
 5737W        W 9256   8.768   7.593  10.714
 5738W        W 9257   3.260   6.304   0.196
 5739W        W 9258   1.269   6.026   9.128
 5740W        W 9259   5.514   9.382  11.187
 5741W        W 9260   1.556   1.377   9.560
 5742W        W 9261   0.509   6.410   8.561
 5743W        W 9262   9.514   4.001   1.041
 5744W        W 9263   3.302   6.876   1.681
 5745W        W 9264   5.143   3.251   2.910
 5746W        W 9265   5.023   0.470  10.483
 5747W        W 9266   8.454   2.524   3.410
 5748W        W 9267   3.221   6.382  11.296
 5749W        W 9268   3.117   6.208   3.224
 5750W        W 9269   4.913   3.244   9.077
 5751W        W 9270   3.644   3.983   9.549
 5752W        W 9271   7.947   1.004  11.069
 5753W        W 9272   6.962   9.475   8.843
 5754W        W 9273   6.481   0.802   9.590
 5755W        W 9274   8.903   0.825   9.941
 5756W        W 9275   6.156   7.250   9.566
 5757W        W 9276   6.219   1.507   1.334
 5758W        W 9277   8.486   3.991   0.182
 5759W        W 9278   3.532   8.015  10.826
 5760W        W 9279   3.138   7.013   3.061
 5761W        W 9280   1.276   4.202   3.271
 5762W        W 9281   1.698   4.108   2.983
 5763W        W 9282   2.738   5.509  10.490
 5764W        W 9283   1.358   7.822   1.759
 5765W        W 9284   4.647   2.251   0.122
 5766W        W 9285   7.520   1.419   0.968
 5767W        W 9286   3.553   8.378   2.259
 5768W        W 9287   5.410   0.220   2.227
 5769W        W 9288   2.729   8.265   2.477
 5770W        W 9289   7.695   6.937   8.563
 5771W        W 9290   6.808   2.195   3.411
 5772W        W 9291   1.282   8.494  11.476
 5773W        W 9292   2.576   7.604   1.420
 5774W        W 9293   2.738   8.820  10.959
 5775W        W 9294   9.595   5.848   2.108
 5776W        W 9295   5.891   1.417   2.813
 5777W        W 9296   5.897   8.428   1.459
 5778W        W 9297   0.461   6.787   1.329
 5779W        W 9298   3.924   0.167   9.499
 5780W        W 9299   4.294   6.204   2.250
 5781W        W 9300   9.963   6.400   0.243
 5782W        W 9301   4.616   8.293   9.957
 5783W        W 9302   9.038   9.432  11.049
 5784W        W 9303   2.333   3.647   9.898
 5785W        W 9304   3.064   5.695   3.158
 5786W        W 9305   4.715   8.131   9.486
 5787W        W 9306   6.801   5.151   1.320
 5788W        W 9307   4.371   5.945   9.790
 5789W        W 9308   8.353   5.317  11.773
 5790W        W 9309   5.706   8.858  11.571
 5791W        W 9310   2.767   0.940  10.101
 5792W        W 9311   9.126   6.462   8.821
 5793W        W 9312   6.686   6.238   0.405
 5794W        W 9313   6.486   1.564   3.380
 5795W        W 9314   4.216   4.781   0.355
 5796W        W 9315   7.100   8.910   3.281
 5797W        W 9316   6.466   6.029   9.323
 5798W        W 9317   4.815   2.711   3.709
 5799W        W 9318   6.644   8.052   1.487
 5800W        W 9319   0.178   4.678  10.949
 5801W        W 9320   0.302   4.187  10.022
 5802W        W 9321   4.580   1.410  11.036
 5803W        W 9322   3.549   8.576  11.514
 5804W        W 9323   5.609   2.453  11.882
 5805W        W 9324   5.583   6.372   9.164
 5806W        W 9325   5.539   3.853   1.132
 5807W        W 9326   4.850   4.189   2.770
 5808W        W 9327   0.930   0.154   0.456
 5809W        W 9328   4.443   5.926   2.653
 5810W        W 9329   4.491   3.564   1.226
 5811W        W 9330   0.918   9.473  10.065
 5812W        W 9331   9.356   9.686   2.669
 5813W        W 9332   1.423   0.669   9.903
 5814W        W 9333   3.200   9.990  10.279
 5815W        W 9334   9.468   8.449  11.272
 5816W        W 9335   7.051   3.293  10.758
 5817W        W 9336   9.841   6.121   3.361
 5818W        W 9337   8.488   1.756   2.182
 5819W        W 9338   4.209   1.545   0.143
 5820W        W 9339   3.712   7.544   8.915
 5821W        W 9340   1.269   1.676  10.311
 5822W        W 9341   9.254   3.987   2.446
 5823W        W 9342   7.267   5.289   1.194
 5824W        W 9343   5.565   2.772   3.553
 5825W        W 9344   7.131   6.745  11.874
 5826W        W 9345   2.662   9.904   9.475
 5827W        W 9346   4.630   2.606   2.759
 5828W        W 9347   6.976   3.138  11.744
 5829W        W 9348   1.790   3.768   1.287
 5830W        W 9349   0.836   6.254   2.994
 5831W        W 9350   4.125   9.065   1.951
 5832W        W 9351   6.286   9.968   9.132
 5833W        W 9352   9.739   3.764   9.471
 5834W        W 9353   2.554   8.364   1.991
 5835W        W 9354   3.965   8.993  10.273
 5836W        W 9355   4.176   6.913   2.723
 5837W        W 9356   3.117   4.159  11.046
 5838W        W 9357   0.428   3.179   1.639
 5839W        W 9358   1.820   8.117   3.919
 5840W        W 9359   1.021   2.947  10.064
 5841W        W 9360   7.057   3.175  11.241
 5842W        W 9361   0.875   5.984   0.359
 5843W        W 9362   3.150   3.831   0.416
 5844W        W 9363   0.942   1.099  11.272
 5845W        W 9364   0.879   7.025  10.848
 5846W        W 9365   6.719   7.029  11.344
 5847W        W 9366   6.553   3.318  11.432
 5848W        W 9367   3.457   2.581   2.297
 5849W        W 9368   9.094   4.312   3.053
 5850W        W 9369   8.439   7.417  11.076
 5851W        W 9370   8.243   8.855  10.953
 5852W        W 9371   0.190   8.927  10.793
 5853W        W 9372   4.718   3.492  11.283
 5854W        W 9373   3.802   7.069   9.942
 5855W        W 9374   3.783   5.912  11.252
 5856W        W 9375   5.693   5.973  11.609
 5857W        W 9376   1.231   8.854  11.849
 5858W        W 9377   1.267   1.899  11.517
 5859W        W 9378   2.837   7.099   9.748
 5860W        W 9379   4.676   4.071   3.623
 5861W        W 9380   6.085   9.492   2.543
 5862W        W 9381   8.968   4.102  11.557
 5863W        W 9382   3.420   2.702   9.750
 5864W        W 9383   7.911   3.567   3.334
 5865W        W 9384   0.889   7.730   9.641
 5866W        W 9385   4.729   1.959  10.334
 5867W        W 9386   8.636   6.745   2.849
 5868W        W 9387   3.108   0.612   1.405
 5869W        W 9388   4.602   2.865   9.941
 5870W        W 9389   5.083   0.695  10.004
 5871W        W 9390   7.412   6.793  11.101
 5872W        W 9391   4.468   8.248   1.811
 5873W        W 9392   9.887   6.661  11.783
 5874W        W 9393   1.372   1.700   8.785
 5875W        W 9394   4.207   6.624   8.731
 5876W        W 9395   9.102   4.027   3.563
 5877W        W 9396   2.797   2.623   1.848
 5878W        W 9397   0.847   2.537   2.990
 5879W        W 9398   6.027   3.236   2.942
 5880W        W 9399   6.889   6.843   8.898
 5881W        W 9400   9.854   5.942   9.459
 5882W        W 9401   7.397   8.007  10.011
 5883W        W 9402   9.942   2.062   3.724
 5884W        W 9403   0.281   7.421  10.161
 5885W        W 9404   4.622   6.214  11.362
 5886W        W 9405   4.122   3.569   0.847
 5887W        W 9406   3.072   0.422  10.643
 5888W        W 9407   6.780   1.200   9.460
 5889W        W 9408   5.255   2.383   3.523
 5890W        W 9409   5.648   4.771   0.143
 5891W        W 9410   1.825   9.999  10.175
 5892W        W 9411   5.124   4.589   2.583
 5893W        W 9412   7.323   2.656   9.069
 5894W        W 9413   2.865   0.418   2.990
 5895W        W 9414   0.202   9.014   2.352
 5896W        W 9415   7.926   6.893   1.261
 5897W        W 9416   0.844   1.422   2.185
 5898W        W 9417   0.925   8.439  11.842
 5899W        W 9418   7.289   1.181  11.513
 5900W        W 9419   9.140   6.555  10.369
 5901W        W 9420   2.654   9.719   2.293
 5902W        W 9421   2.725   3.109   1.997
 5903W        W 9422   7.152   5.638   9.910
 5904W        W 9423   3.893   4.743   0.813
 5905W        W 9424   2.414   0.608   9.806
 5906W        W 9425   0.423   0.837   9.349
 5907W        W 9426   0.881   1.231   1.298
 5908W        W 9427   3.965   9.515   9.501
 5909W        W 9428   7.523   8.179   0.258
 5910W        W 9429   2.359   5.117  11.064
 5911W        W 9430   0.140   0.636   8.154
 5912W        W 9431   9.864   2.723  10.072
 5913W        W 9432   6.479   5.480   1.667
 5914W        W 9433   5.022   1.571   9.411
 5915W        W 9434   1.335   0.455   0.568
 5916W        W 9435   9.985   1.590   9.347
 5917W        W 9436   0.599   6.535   9.046
 5918W        W 9437   5.118   4.842  11.595
 5919W        W 9438   7.186   4.867   1.495
 5920W        W 9439   6.530   8.583   8.609
 5921W        W 9440   8.139   2.361   9.563
 5922W        W 9441   1.620   7.161  10.386
 5923W        W 9442   6.251   9.458   2.034
 5924W        W 9443   3.096   8.852   8.689
 5925W        W 9444   5.594   8.001   1.312
 5926W        W 9445   5.771   4.120   0.737
 5927W        W 9446   2.775   9.542   2.765
 5928W        W 9447   1.247   5.947   1.598
 5929W        W 9448   1.838   3.288   0.956
 5930W        W 9449   8.552   6.270   2.982
 5931W        W 9450   3.422   5.272   9.970
 5932W        W 9451   8.843   6.140   9.103
 5933W        W 9452   8.134   4.576   9.204
 5934W        W 9453   8.856   2.778   0.236
 5935W        W 9454   6.283   2.055   3.503
 5936W        W 9455   0.530   5.203  10.074
 5937W        W 9456   3.615   8.750   8.598
 5938W        W 9457   5.520   5.361   2.115
 5939W        W 9458   1.723   4.196   3.571
 5940W        W 9459   9.564   6.994   0.750
 5941W        W 9460   1.355   9.477   0.926
 5942W        W 9461   7.669   5.593   0.942
 5943W        W 9462   0.884   3.323   1.405
 5944W        W 9463   9.213   9.663   3.409
 5945W        W 9464   1.235   6.997   2.629
 5946W        W 9465   3.064   4.224   3.268
 5947W        W 9466   3.555   2.953   8.752
 5948W        W 9467   5.282   1.232   1.412
 5949W        W 9468   4.479   0.220   0.358
 5950W        W 9469   2.157   5.673   3.033
 5951W        W 9470   8.965   8.391   3.295
 5952W        W 9471   6.219   9.088  11.676
 5953W        W 9472   7.173   8.667   1.917
 5954W        W 9473   1.391   4.748   1.949
 5955W        W 9474   3.197   7.064  11.916
 5956W        W 9475   5.936   2.254   9.999
 5957W        W 9476   3.072   7.389   1.385
 5958W        W 9477   1.842   6.584   0.430
 5959W        W 9478   4.251   2.242   3.386
 5960W        W 9479   1.074   0.758   1.437
 5961W        W 9480   8.297   0.657  11.988
 5962W        W 9481   4.038   5.080  11.925
 5963W        W 9482   2.670   5.713   9.303
 5964W        W 9483   4.718   4.424   0.746
 5965W        W 9484   5.714   6.284   1.649
 5966W        W 9485   7.514   0.993   2.827
 5967W        W 9486   1.641   7.363   8.731
 5968W        W 9487   1.900   9.116  11.277
 5969W        W 9488   8.478   8.019   0.565
 5970W        W 9489   3.662   6.224   3.334
 5971W        W 9490   6.711   2.848   0.585
 5972W        W 9491   5.672   2.623   2.290
 5973W        W 9492   4.402   2.790   9.062
 5974W        W 9493   6.627   8.249   3.427
 5975W        W 9494   4.136   6.655   0.081
 5976W        W 9495   3.304   5.794   8.771
 5977W        W 9496   2.628   1.806   9.627
 5978W        W 9497   0.355   2.302   2.885
 5979W        W 9498   5.153   1.938   9.047
 5980W        W 9499   1.860   7.605  10.296
 5981W        W 9500   9.983   1.572   2.110
 5982W        W 9501   3.301   9.853   8.743
 5983W        W 9502   5.888   4.124   9.587
 5984W        W 9503   2.028   6.408   3.493
 5985W        W 9504   5.327   1.536   1.901
 5986W        W 9505   4.598   1.764  11.866
 5987W        W 9506   8.587   0.877   9.403
 5988W        W 9507   0.631   9.145  10.988
 5989W        W 9508   2.745   2.174  10.941
 5990W        W 9509   9.161   4.834  10.723
 5991W        W 9510   5.001   7.862  10.675
 5992W        W 9511   9.391   5.554  10.514
 5993W        W 9512   0.714   3.104  10.456
 5994W        W 9513   5.558   1.668   9.218
 5995W        W 9514   3.220   8.654  11.103
 5996W        W 9515   1.512   4.960  10.955
 5997W        W 9516   9.724   6.142  11.834
 5998W        W 9517   4.933   7.247   3.626
 5999W        W 9518   7.972   0.435   3.569
 6000W        W 9519   3.351   4.393  10.631
 6001W        W 9520   4.523   3.054   8.640
 6002W        W 9521   6.420   9.507  11.944
 6003W        W 9522   2.731   2.297   9.823
 6004W        W 9523   3.100   7.550   2.354
 6005W        W 9524   5.097   8.540  11.776
 6006W        W 9525   9.826   8.862  11.302
 6007W        W 9526   7.621   3.985  11.323
 6008W        W 9527   4.464   4.149  10.223
 6009W        W 9528   6.986   8.268   9.866
 6010W        W 9529   9.800   3.407   1.106
 6011W        W 9530   3.717   9.785   2.774
 6012W        W 9531   8.866   3.843  10.462
 6013W        W 9532   0.100   5.231   3.532
 6014W        W 9533   4.914   9.059   3.109
 6015W        W 9534   8.980   0.342  11.528
 6016W        W 9535   2.727   2.892   9.908
 6017W        W 9536   9.072   3.022  10.894
 6018W        W 9537   9.310   2.283   2.668
 6019W        W 9538   1.447   1.007   3.749
 6020W        W 9539   0.336   8.847   1.897
 6021W        W 9540   9.347   2.285   2.165
 6022W        W 9541   3.672   0.695   8.722
 6023W        W 9542   0.416   2.667   8.745
 6024W        W 9543   8.777   0.665   1.175
 6025W        W 9544   6.226   7.150   1.671
 6026W        W 9545   6.471   2.854   1.819
 6027W        W 9546   8.293   0.498   9.590
 6028W        W 9547   7.176   9.983   0.391
 6029W        W 9548   4.929   2.280  11.291
 6030W        W 9549   4.108   5.332  10.432
 6031W        W 9550   5.397   8.246   3.588
 6032W        W 9551   7.952   6.067   2.491
 6033W        W 9552   9.748   6.660   1.849
 6034W        W 9553   7.800   8.618  10.798
 6035W        W 9554   5.656   6.226   0.451
 6036W        W 9555   5.006   1.694  10.907
 6037W        W 9556   7.102   2.856   2.441
 6038W        W 9557   9.792   4.387  11.226
 6039W        W 9558   8.005   5.797   3.449
 6040W        W 9559   6.762   6.419   2.222
 6041W        W 9560   2.632   8.196   9.903
 6042W        W 9561   4.347   5.513   1.405
 6043W        W 9562   4.386   6.445   3.951
 6044W        W 9563   3.780   1.615  10.375
 6045W        W 9564   3.047   7.135   2.051
 6046W        W 9565   2.530   7.853   8.955
 6047W        W 9566   4.685   8.489   0.814
 6048W        W 9567   2.941   1.587   0.950
 6049W        W 9568   4.049   3.230   0.402
 6050W        W 9569   3.521   2.301   1.867
 6051W        W 9570   0.278   8.606   1.039
 6052W        W 9571   1.211   8.001   0.300
 6053W        W 9572   4.514   4.511  11.421
 6054W        W 9573   2.072   2.840   0.880
 6055W        W 9574   0.005   5.933   2.899
 6056W        W 9575   0.903   4.501  10.404
 6057W        W 9576   4.953   4.192   9.514
 6058W        W 9577   3.273   8.864   1.774
 6059W        W 9578   0.361   8.136   1.206
 6060W        W 9579   2.161   5.905   1.503
 6061W        W 9580   0.956   1.581   9.430
 6062W        W 9581   1.393   2.181   8.583
 6063W        W 9582   4.379   8.840   9.212
 6064W        W 9583   5.555   3.111   4.002
 6065W        W 9584   0.827   8.727   9.675
 6066W        W 9585   0.799   8.242   9.817
 6067W        W 9586   8.784   9.044  11.685
 6068W        W 9587   0.396   3.716   3.112
 6069W        W 9588   4.694   3.761   4.033
 6070W        W 9589   5.717   2.546   8.579
 6071W        W 9590   0.540   9.823   0.466
 6072W        W 9591   2.451   1.701   1.638
 6073W        W 9592   6.475   5.601   8.729
 6074W        W 9593   0.031   4.381   2.171
 6075W        W 9594   0.321   8.105   9.726
 6076W        W 9595   6.942   3.051   1.976
 6077W        W 9596   3.066   7.976   9.686
 6078W        W 9597   8.039   0.911   0.357
 6079W        W 9598   7.101   0.227  10.167
 6080W        W 9599   5.606   3.477   2.702
 6081W        W 9600   7.908   2.824   0.731
 6082W        W 9601   2.254   6.300   9.642
 6083W        W 9602   6.727   3.082   9.809
 6084W        W 9603   5.731   3.206   1.542
 6085W        W 9604   0.541   4.372   2.276
 6086W        W 9605   6.522   7.353  10.321
 6087W        W 9606   0.242   5.056   9.682
 6088W        W 9607   9.818   2.621   0.188
 6089W        W 9608   3.712   4.960   9.660
 6090W        W 9609   7.726   2.715   1.599
 6091W        W 9610   3.472   7.899   3.399
 6092W        W 9611   9.105   1.345   1.772
 6093W        W 9612   7.978   7.384   2.142
 6094W        W 9613   9.356   1.073   9.853
 6095W        W 9614   7.948   1.824  10.746
 6096W        W 9615   5.262   2.911   9.308
 6097W        W 9616   3.151   0.402   1.919
 6098W        W 9617   1.479   0.893   3.251
 6099W        W 9618   1.354   9.423   3.166
 6100W        W 9619   5.131   3.741   2.712
 6101W        W 9620   5.703   9.907   0.002
 6102W        W 9621   1.318   1.703   2.120
 6103W        W 9622   6.689   5.486   9.747
 6104W        W 9623   3.827   1.840   3.397
 6105W        W 9624   9.841   5.247   8.764
 6106W        W 9625   2.434   2.241   2.862
 6107W        W 9626   6.648   7.579   2.176
 6108W        W 9627   2.140   8.193  11.164
 6109W        W 9628   5.968   5.856  11.208
 6110W        W 9629   8.069   8.921  11.794
 6111W        W 9630   2.742   9.876   1.821
 6112W        W 9631   0.085   7.348   9.362
 6113W        W 9632   1.911   8.527   8.892
 6114W        W 9633   3.590   1.412   1.689
 6115W        W 9634   0.216   3.830   0.318
 6116W        W 9635   2.600   4.090   3.078
 6117W        W 9636   4.770   4.510   8.352
 6118W        W 9637   1.802   6.685   1.303
 6119W        W 9638   1.503   1.310   0.266
 6120W        W 9639   8.118   2.351   1.375
 6121W        W 9640   6.121   9.033   8.933
 6122W        W 9641   6.748   3.753   1.970
 6123W        W 9642   3.820   5.486   0.681
 6124W        W 9643   5.091   9.666  10.069
 6125W        W 9644   1.499   6.234  10.589
 6126W        W 9645   4.479   8.102   3.185
 6127W        W 9646   0.449   5.073  11.126
 6128W        W 9647   7.910   9.971   3.777
 6129W        W 9648   6.939   3.620  11.513
 6130W        W 9649   6.280   4.163  11.966
 6131W        W 9650   8.048   4.312   1.027
 6132W        W 9651   5.942   1.328  11.265
 6133W        W 9652   4.709   6.359   2.776
 6134W        W 9653   5.674   8.891   1.420
 6135W        W 9654   0.421   6.632   0.430
 6136W        W 9655   1.161   6.555   2.339
 6137W        W 9656   9.598   1.893   2.387
 6138W        W 9657   7.380   6.101   0.689
 6139W        W 9658   4.006   1.090  10.550
 6140W        W 9659   0.905   5.647   9.327
 6141W        W 9660   0.011   2.010   3.170
 6142W        W 9661   0.567   5.149   9.280
 6143W        W 9662   1.733   3.280  11.852
 6144W        W 9663   5.152   5.515   9.277
 6145W        W 9664   6.023   3.654   3.612
 6146W        W 9665   8.813   5.304   3.047
 6147W        W 9666   1.886   4.538   0.478
 6148W        W 9667   2.560   8.748  11.805
 6149W        W 9668   6.564   0.238   3.102
 6150W        W 9669   7.365   3.603  10.488
 6151W        W 9670   9.408   2.752   3.189
 6152W        W 9671   8.902   3.490  10.955
 6153W        W 9672   1.693   8.081  11.505
 6154W        W 9673   7.515   0.330   2.856
 6155W        W 9674   6.484   8.702   9.121
 6156W        W 9675   1.072   9.065   1.201
 6157W        W 9676   9.793   4.338   8.780
 6158W        W 9677   8.040   6.717  11.346
 6159W        W 9678   0.414   5.029  11.813
 6160W        W 9679   1.881   4.655   2.265
 6161W        W 9680   9.933   2.867   8.834
 6162W        W 9681   0.563   0.896  10.478
 6163W        W 9682   4.501   9.770   2.034
 6164W        W 9683   6.255   1.357  10.266
 6165W        W 9684   9.317   2.664   0.041
 6166W        W 9685   1.026   9.875  11.548
 6167W        W 9686   6.441   0.290   1.617
 6168W        W 9687   6.357   5.186  10.265
 6169W        W 9688   9.510   3.592   2.692
 6170W        W 9689   6.447   2.937   3.043
 6171W        W 9690   6.951   1.149   0.787
 6172W        W 9691   6.637   6.052  10.658
 6173W        W 9692   3.043   4.632   2.922
 6174W        W 9693   2.623   9.946   0.229
 6175W        W 9694   1.973   7.836   1.032
 6176W        W 9695   1.214   9.997  11.080
 6177W        W 9696   9.353   7.453   0.782
 6178W        W 9697   3.330   0.773   2.677
 6179W        W 9698   1.872   1.033   1.715
 6180W        W 9699   7.095   3.220  10.240
 6181W        W 9700   8.923   2.625  11.201
 6182W        W 9701   4.381   0.357   1.407
 6183W        W 9702   7.052   4.153  10.337
 6184W        W 9703   5.063   8.352   2.444
 6185W        W 9704   3.530   7.366   1.632
 6186W        W 9705   0.384   6.877  10.861
 6187W        W 9706   4.958   7.327   1.868
 6188W        W 9707   1.756   6.165   9.425
 6189W        W 9708   3.187   6.235   8.016
 6190W        W 9709   0.476   0.922  10.973
 6191W        W 9710   1.937   1.676  11.123
 6192W        W 9711   9.603   9.464   2.282
 6193W        W 9712   9.618   9.391   9.146
 6194W        W 9713   9.293   3.100  11.499
 6195W        W 9714   7.282   5.115   1.929
 6196W        W 9715   3.540   3.580  10.248
 6197W        W 9716   0.785   2.162   1.043
 6198W        W 9717   8.895   5.127   2.136
 6199W        W 9718   7.585   7.240  10.807
 6200W        W 9719   3.424   5.552   3.931
 6201W        W 9720   8.650   5.350   9.015
 6202W        W 9721   4.722   6.365  11.842
 6203W        W 9722   2.047   5.040   1.384
 6204W        W 9723   4.611   9.736   8.863
 6205W        W 9724   7.081   3.649   2.767
 6206W        W 9725   4.606   0.650   9.292
 6207W        W 9726   1.346   1.097  11.832
 6208W        W 9727   7.344   0.611   8.541
 6209W        W 9728   1.870   1.318   9.979
 6210W        W 9729   8.514   9.315  10.928
 6211W        W 9730   2.219   1.743  10.440
 6212W        W 9731   8.520   7.113   9.185
 6213W        W 9732   8.481   3.616  10.708
 6214W        W 9733   2.289   9.368   8.955
 6215W        W 9734   2.660   2.463   1.330
 6216W        W 9735   1.773   3.736   3.321
 6217W        W 9736   4.714   7.771   2.859
 6218W        W 9737   5.162   7.992   1.574
 6219W        W 9738   3.366   3.049  11.730
 6220W        W 9739   5.621   1.026   2.577
 6221W        W 9740   3.756   7.830   2.992
 6222W        W 9741   1.758   6.182   2.296
 6223W        W 9742   7.728   2.100  11.157
 6224W        W 9743   4.569   0.106   9.318
 6225W        W 9744   3.585   3.382  11.375
 6226W        W 9745   8.281   8.095   3.558
 6227W        W 9746   1.515   7.885   3.180
 6228W        W 9747   3.458   7.120   9.076
 6229W        W 9748   0.869   0.300   1.400
 6230W        W 9749   5.769   5.038   9.617
 6231W        W 9750   7.990   8.822   9.069
 6232W        W 9751   5.195   4.292   8.582
 6233W        W 9752   6.220   7.307   9.052
 6234W        W 9753   3.105   2.323   1.555
 6235W        W 9754   7.209   1.459   0.298
 6236W        W 9755   2.899   6.589   1.845
 6237W        W 9756   7.902   0.671   2.796
 6238W        W 9757   4.737   5.656   3.730
 6239W        W 9758   2.198   3.081   1.299
 6240W        W 9759   5.478   3.999   1.991
 6241W        W 9760   8.491   7.536  10.305
 6242W        W 9761   7.531   7.606   3.223
 6243W        W 9762   2.649   6.040   3.088
 6244W        W 9763   4.615   0.874   9.765
 6245W        W 9764   5.226   9.818  11.811
 6246W        W 9765   0.452   7.036   9.234
 6247W        W 9766   6.522   3.616   1.222
 6248W        W 9767   6.262   4.812   3.377
 6249W        W 9768   6.589   4.024  10.140
 6250W        W 9769   5.639   8.852   2.339
 6251W        W 9770   0.720   1.713   0.801
 6252W        W 9771   2.518   0.428  10.782
 6253W        W 9772   4.880   3.275   1.021
 6254W        W 9773   0.905   4.864  10.031
 6255W        W 9774   3.149   8.410   1.592
 6256W        W 9775   0.833   3.135   9.166
 6257W        W 9776   6.143   4.545   2.144
 6258W        W 9777   5.698   0.891   8.580
 6259W        W 9778   9.383   4.380   9.896
 6260W        W 9779   1.897   0.833   3.585
 6261W        W 9780   4.672   8.771   3.570
 6262W        W 9781   9.957   8.458   0.038
 6263W        W 9782   7.608   5.823  11.544
 6264W        W 9783   2.525   1.682   0.626
 6265W        W 9784   6.973   2.899   9.379
 6266W        W 9785   9.438   8.732   3.284
 6267W        W 9786   9.970   4.348   2.676
 6268W        W 9787   1.037   8.325   3.623
 6269W        W 9788   0.449   5.719  10.024
 6270W        W 9789   4.840   7.248   9.645
 6271W        W 9790   9.413   1.354   3.303
 6272W        W 9791   2.548   4.208  10.909
 6273W        W 9792   9.450   6.101   3.049
 6274W        W 9793   4.168   2.315   9.756
 6275W        W 9794   3.530   5.069  11.942
 6276W        W 9795   3.159   6.552   2.674
 6277W        W 9796   3.552   6.069   4.050
 6278W        W 9797   0.372   8.598   9.830
 6279W        W 9798   3.142   9.422  11.523
 6280W        W 9799   4.542   3.639   3.344
 6281W        W 9800   9.226   9.425   1.394
 6282W        W 9801   8.284   1.008  10.680
 6283W        W 9802   0.352   8.705  11.670
 6284W        W 9803   3.280   6.118  10.545
 6285W        W 9804   4.015   5.152   2.088
 6286W        W 9805   7.386   5.916  11.068
 6287W        W 9806   7.863   2.821   0.205
 6288W        W 9807   7.260   9.182   1.870
 6289W        W 9808   1.852   6.952  10.826
 6290W        W 9809   4.224   1.916  10.421
 6291W        W 9810   6.450   3.209   0.313
 6292W        W 9811   8.191   9.915   0.571
 6293W        W 9812   1.740   0.865   0.338
 6294W        W 9813   9.475   1.017   1.895
 6295W        W 9814   5.490   9.602   9.244
 6296W        W 9815   4.554   7.588  10.501
 6297W        W 9816   0.422   7.889   1.962
 6298W        W 9817   5.959   6.149   2.076
 6299W        W 9818   6.621   0.689   2.852
 6300W        W 9819   2.259   9.857  10.478
 6301W        W 9820   3.165   5.513  11.272
 6302W        W 9821   7.637   2.206   9.472
 6303W        W 9822   9.656   4.086   1.892
 6304W        W 9823   3.276   8.361   8.620
 6305W        W 9824   7.281   3.569   8.678
 6306W        W 9825   8.369   5.198   1.387
 6307W        W 9826   8.156   9.756   8.903
 6308W        W 9827   1.361   3.214   1.155
 6309W        W 9828   5.538   7.501   9.385
 6310W        W 9829   7.780   3.323   0.309
 6311W        W 9830   3.164   4.069  11.962
 6312W        W 9831   6.311   5.060   2.032
 6313W        W 9832   8.281   9.360   1.227
 6314W        W 9833   8.269   8.919   9.485
 6315W        W 9834   9.869   1.284   2.508
 6316W        W 9835   7.224   3.134   9.754
 6317W        W 9836   7.943   1.078   3.140
 6318W        W 9837   1.842   9.526  11.622
 6319W        W 9838   2.108   8.298   9.894
 6320W        W 9839   5.047   4.093   9.022
 6321W        W 9840   4.218   1.568   0.746
 6322W        W 9841   2.668   5.122  11.777
 6323W        W 9842   1.660   2.151   0.527
 6324W        W 9843   0.859   4.674   1.936
 6325W        W 9844   7.409   9.478   8.513
 6326W        W 9845   9.350   1.604  10.455
 6327W        W 9846   8.280   0.483   1.302
 6328W        W 9847   1.179   2.639  11.871
 6329W        W 9848   9.060   1.868   9.311
 6330W        W 9849   1.713   2.398   3.517
 6331W        W 9850   2.699   3.485  10.202
 6332W        W 9851   3.474   5.897   1.955
 6333W        W 9852   8.941   7.801  10.273
 6334W        W 9853   6.087   2.143   8.434
 6335W        W 9854   7.254   1.788  11.091
 6336W        W 9855   6.871   9.592   2.655
 6337W        W 9856   5.586   8.392  10.875
 6338W        W 9857   2.906   1.341   0.481
 6339W        W 9858   5.148   9.698  10.925
 6340W        W 9859   0.277   8.553   8.563
 6341W        W 9860   4.301   9.694   2.762
 6342W        W 9861   3.529   9.670   2.318
 6343W        W 9862   0.203   3.820  11.424
 6344W        W 9863   8.865   6.996   2.156
 6345W        W 9864   4.198   1.246   9.759
 6346W        W 9865   7.375   6.602   3.494
 6347W        W 9866   1.271   1.917   0.324
 6348W        W 9867   6.543   9.530   9.973
 6349W        W 9868   4.940   2.200   9.896
 6350W        W 9869   4.829   6.153   9.030
 6351W        W 9870   7.475   0.457   1.094
 6352W        W 9871   8.746   0.808   3.052
 6353W        W 9872   8.078   6.648   1.673
 6354W        W 9873   1.429   9.250   9.280
 6355W        W 9874   1.741   5.750  10.441
 6356W        W 9875   6.832   6.115   3.205
 6357W        W 9876   3.029   5.274   8.477
 6358W        W 9877   6.439   3.183  10.939
 6359W        W 9878   5.493   0.209  10.387
 6360W        W 9879   1.263   3.320   2.748
 6361W        W 9880   5.121   2.022   0.671
 6362W        W 9881   3.251   6.786   0.339
 6363W        W 9882   1.733   3.788   1.855
 6364W        W 9883   0.373   5.678   1.215
 6365W        W 9884   4.615   1.038  10.252
 6366W        W 9885   7.357   5.226   0.686
 6367W        W 9886   1.086   3.644   1.036
 6368W        W 9887   3.426   8.492   0.865
 6369W        W 9888   4.334   2.914   3.569
 6370W        W 9889   2.258   0.836  10.243
 6371W        W 9890   3.103   7.957  10.566
 6372W        W 9891   9.843   8.650   0.505
 6373W        W 9892   2.827   6.702  11.897
 6374W        W 9893   6.125   0.543   9.891
 6375W        W 9894   8.761   0.878  10.864
 6376W        W 9895   8.036   2.538   1.957
 6377W        W 9896   2.537   0.155  11.769
 6378W        W 9897   9.771   2.571   1.253
 6379W        W 9898   2.909   6.931   0.732
 6380W        W 9899   2.290   1.750   3.013
 6381W        W 9900   8.981   3.439   9.645
 6382W        W 9901   0.694   6.480   3.454
 6383W        W 9902   6.057   9.205   0.764
 6384W        W 9903   6.432   9.386  10.882
 6385W        W 9904   5.197   4.005   3.743
 6386W        W 9905   9.973   2.334   8.898
 6387W        W 9906   4.025   8.283   2.987
 6388W        W 9907   0.240   6.737   2.608
 6389W        W 9908   2.179   5.340   0.199
 6390W        W 9909   4.869   6.686  11.482
 6391W        W 9910   0.006   1.372   1.329
 6392W        W 9911   7.986   3.326   0.794
 6393W        W 9912   5.510   1.210  10.114
 6394W        W 9913   8.395   5.969  10.728
 6395W        W 9914   8.590   5.013  11.378
 6396W        W 9915   7.002   6.391  10.486
 6397W        W 9916   8.119   7.712   0.813
 6398W        W 9917   4.798   4.613  11.932
 6399W        W 9918   4.037   1.310   9.292
 6400W        W 9919   7.371   2.363   1.750
 6401W        W 9920   2.445   7.852   0.825
 6402W        W 9921   5.118   2.408   9.330
 6403W        W 9922   8.065   0.881   9.356
 6404W        W 9923   7.154   0.821  11.164
 6405W        W 9924   1.708   0.524   2.758
 6406W        W 9925   0.845   1.647   3.465
 6407W        W 9926   6.578   8.596  11.835
 6408W        W 9927   9.324   8.968   9.397
 6409W        W 9928   3.019   0.206  11.973
 6410W        W 9929   1.594   6.575   1.988
 6411W        W 9930   7.559   1.609   9.491
 6412W        W 9931   1.142   5.076   2.713
 6413W        W 9932   8.662   6.674   0.605
 6414W        W 9933   2.340   2.802  10.453
 6415W        W 9934   9.172   2.904  10.399
 6416W        W 9935   0.974   6.849   1.389
 6417W        W 9936   5.798   0.861  11.412
 6418W        W 9937   3.988   0.750   0.915
 6419W        W 9938   7.383   8.920   2.323
 6420W        W 9939   3.183   9.373   0.021
 6421W        W 9940   1.601   6.299  11.721
 6422W        W 9941   3.084   3.690   9.354
 6423W        W 9942   6.906   6.654  10.973
 6424W        W 9943   2.341   2.477   0.038
 6425W        W 9944   9.798   4.632   9.225
 6426W        W 9945   2.449   8.679  10.054
 6427W        W 9946   4.508   4.361   0.282
 6428W        W 9947   1.316   3.731   3.063
 6429W        W 9948   9.353   2.127  11.158
 6430W        W 9949   5.971   2.943   0.271
 6431W        W 9950   5.647   5.826  10.793
 6432W        W 9951   0.759   3.158  10.984
 6433W        W 9952   2.752   9.673   0.643
 6434W        W 9953   8.439   4.356   8.837
 6435W        W 9954   7.615   6.078  10.383
 6436W        W 9955   0.757   8.617  10.190
 6437W        W 9956   3.293   2.721   2.786
 6438W        W 9957   9.437   0.133  11.379
 6439W        W 9958   2.699   9.429   0.201
 6440W        W 9959   8.221   1.740   8.965
 6441W        W 9960   5.921   3.152  10.988
 6442W        W 9961   9.513   5.777   0.243
 6443W        W 9962   0.040   0.457   3.225
 6444W        W 9963   7.610   1.902   2.495
 6445W        W 9964   8.144   3.208  11.933
 6446W        W 9965   1.624   8.424   9.685
 6447W        W 9966   7.993   1.589   9.837
 6448W        W 9967   1.236   5.802  10.438
 6449W        W 9968   8.414   5.504  10.257
 6450W        W 9969   8.321   5.836  11.754
 6451W        W 9970   9.613   2.392  10.371
 6452W        W 9971   4.677   0.174   3.228
 6453W        W 9972   8.639   5.612   2.046
 6454W        W 9973   8.905   0.460   2.304
 6455W        W 9974   2.881   1.876   1.393
 6456W        W 9975   1.942   3.158   0.399
 6457W        W 9976   3.189   7.463   9.741
 6458W        W 9977   2.092   2.924  11.967
 6459W        W 9978   3.976   4.351   8.145
 6460W        W 9979   5.771   1.937   3.581
 6461W        W 9980   9.556   3.141  10.153
 6462W        W 9981   8.786   1.332  11.615
 6463W        W 9982   0.414   6.201   1.222
 6464W        W 9983   1.268   7.548   0.514
 6465W        W 9984   0.972   6.240  10.510
 6466W        W 9985   8.037   4.432   1.513
 6467W        W 9986   2.407   1.231   2.919
 6468W        W 9987   0.916   1.626  11.248
 6469W        W 9988   0.064   8.218   2.759
 6470W        W 9989   1.550   4.985   0.637
 6471W        W 9990   3.481   9.335   2.711
 6472W        W 9991   7.408   2.307   2.743
 6473W        W 9992   1.521   4.262   2.129
 6474W        W 9993   3.558   7.589   1.150
 6475W        W 9994   9.175   5.055   0.211
 6476W        W 9995   6.905   0.924  10.745
 6477W        W 9996   4.329   9.829   9.679
 6478W        W 9997   3.689   1.779  10.864
 6479W        W 9998   0.739   6.696   9.497
 6480W        W 9999   6.497   9.406   9.071
 6481W        W10000   2.635   5.013  10.285
 6482W        W10001   5.713   5.777   1.806
 6483W        W10002   2.834   8.419   8.850
 6484W        W10003   4.251   7.116   1.011
 6485W        W10004   6.466   2.330   1.891
 6486W        W10005   8.271   7.997   9.129
 6487W        W10006   5.929   2.196  11.545
 6488W        W10007   8.285   4.071   2.769
 6489W        W10008   5.168   7.453   1.405
 6490W        W10009   3.049   5.667   2.226
 6491W        W10010   1.850   7.244   3.361
 6492W        W10011   9.372   9.608   1.843
 6493W        W10012   5.285   6.949   1.979
 6494W        W10013   0.152   5.391   0.049
 6495W        W10014   8.557   0.706   0.426
 6496W        W10015   0.120   5.021   1.758
 6497W        W10016   7.834   1.489   8.702
 6498W        W10017   7.163   8.174   0.654
 6499W        W10018   9.200   6.228   1.211
 6500W        W10019   0.371   8.463   3.605
 6501W        W10020   8.114   7.801  10.032
 6502W        W10021   2.359   7.522   9.341
 6503W        W10022   3.152   5.133   8.946
 6504W        W10023   6.019   7.696   9.335
 6505W        W10024   2.913   8.891  11.437
 6506W        W10025   2.963   5.115   0.787
 6507W        W10026   5.100   0.666   0.921
 6508W        W10027   2.281   3.967   0.018
 6509W        W10028   5.637   4.979   0.840
 6510W        W10029   0.928   9.496  10.598
 6511W        W10030   7.499   1.158   3.419
 6512W        W10031   2.304   4.343   9.146
 6513W        W10032   5.009   9.948  10.487
 6514W        W10033   9.856   7.689  10.278
 6515W        W10034   5.844   1.543   0.109
 6516W        W10035   4.965   2.471  10.336
 6517W        W10036   6.017   3.852   9.151
 6518W        W10037   6.796   1.082  11.428
 6519W        W10038   7.623   3.669   0.945
 6520W        W10039   6.136   0.427   2.943
 6521W        W10040   4.258   8.050   0.646
 6522W        W10041   0.003   3.017   1.369
 6523W        W10042   2.655   0.842   9.102
 6524W        W10043   2.649   5.949   2.387
 6525W        W10044   5.690   7.717   0.440
 6526W        W10045   2.594   5.569   0.012
 6527W        W10046   6.158   9.823  10.867
 6528W        W10047   7.548   8.146   3.451
 6529W        W10048   9.390   4.636   8.912
 6530W        W10049   5.551   6.995   2.414
 6531W        W10050   1.572   7.823   8.956
 6532W        W10051   7.669   5.855   8.753
 6533W        W10052   5.468   9.348  11.689
 6534W        W10053   9.395   7.901  10.500
 6535W        W10054   9.016   4.098   0.080
 6536W        W10055   1.643   8.045   8.496
 6537W        W10056   8.067   8.861   1.383
 6538W        W10057   1.434   3.934  11.975
 6539W        W10058   4.801   4.540   8.875
 6540W        W10059   2.951   8.462   9.453
 6541W        W10060   2.768   4.180   9.348
 6542W        W10061   1.460   2.547  10.824
 6543W        W10062   2.311   5.786   9.652
 6544W        W10063   1.817   4.723  11.775
 6545W        W10064   8.078   2.799  11.176
 6546W        W10065   3.882   0.920   0.306
 6547W        W10066   3.669   3.362   3.203
 6548W        W10067   9.634   7.563   9.456
 6549W        W10068   5.845   6.024   3.493
 6550W        W10069   8.509   6.769   9.645
 6551W        W10070   7.745   6.189   8.357
 6552W        W10071   2.200   0.367   0.929
 6553W        W10072   3.173   9.502  11.032
 6554W        W10073   9.792   0.840   2.244
 6555W        W10074   4.468   0.236  11.847
 6556W        W10075   3.630   9.324  11.781
 6557W        W10076   7.449   3.275   1.231
 6558W        W10077   8.566   3.992   3.617
 6559W        W10078   0.073   9.018   9.850
 6560W        W10079   4.485   5.974   8.265
 6561W        W10080   1.836   9.540   9.187
 6562W        W10081   2.702   2.655   9.058
 6563W        W10082   3.643   7.102   0.438
 6564W        W10083   5.301   5.518   2.616
 6565W        W10084   7.721   5.312  11.145
 6566W        W10085   7.486   7.049   2.175
 6567W        W10086   4.988   6.130   2.420
 6568W        W10087   7.178   3.736  11.043
 6569W        W10088   9.958   3.663   1.956
 6570W        W10089   4.604   0.533  10.165
 6571W        W10090   5.667   2.957   2.675
 6572W        W10091   2.725   2.535  10.275
 6573W        W10092   9.669   9.293  11.546
 6574W        W10093   5.224   5.450   3.589
 6575W        W10094   9.650   7.539  11.248
 6576W        W10095   6.781   5.032   1.817
 6577W        W10096   7.603   2.742   2.532
 6578W        W10097   8.824   0.463   9.591
 6579W        W10098   7.481   7.913   1.451
 6580W        W10099   2.439   8.411  10.827
 6581W        W10100   4.766   3.829  10.885
 6582W        W10101   6.442   1.193  11.990
 6583W        W10102   7.171   9.885  11.887
 6584W        W10103   3.488   5.517   8.380
 6585W        W10104   5.173   0.881   0.434
 6586W        W10105   5.112   8.041   8.574
 6587W        W10106   0.742   0.332  11.586
 6588W        W10107   4.815   6.124  10.686
 6589W        W10108   9.710   5.588   3.434
 6590W        W10109   6.061   0.585   1.001
 6591W        W10110   0.337   7.070   2.229
 6592W        W10111   4.612   3.212   0.187
 6593W        W10112   4.981   5.275   2.337
 6594W        W10113   6.117   9.459   3.480
 6595W        W10114   2.546   5.766   1.925
 6596W        W10115   1.263   2.596   1.669
 6597W        W10116   4.200   3.003  11.960
 6598W        W10117   4.749   5.712  11.494
 6599W        W10118   7.659   4.849   3.344
 6600W        W10119   6.786   2.921   1.437
 6601W        W10120   7.639   4.856   2.814
 6602W        W10121   5.488   8.179   0.335
 6603W        W10122   4.043   4.103   9.902
 6604W        W10123   4.498   9.585  10.324
 6605W        W10124   1.827   9.332  10.106
 6606W        W10125   9.573   6.271   1.564
 6607W        W10126   8.926   7.440   9.028
 6608W        W10127   2.609   4.101   1.729
 6609W        W10128   2.751   4.294   2.634
 6610W        W10129   3.355   3.815   2.052
 6611W        W10130   3.965   0.243   3.623
 6612W        W10131   5.390   5.545  11.119
 6613W        W10132   9.170   2.708   2.422
 6614W        W10133   5.616   3.812  11.247
 6615W        W10134   4.853   0.393   2.435
 6616W        W10135   5.751   1.360   1.591
 6617W        W10136   2.770   5.082  10.766
 6618W        W10137   0.312   8.455   0.543
 6619W        W10138   1.810   1.942   1.821
 6620W        W10139   7.278   2.188  11.403
 6621W        W10140   7.016   4.465   0.385
 6622W        W10141   0.752   6.651  11.494
 6623W        W10142   4.499   5.834   9.289
 6624W        W10143   1.442   9.819  11.836
 6625W        W10144   4.910   1.148   1.090
 6626W        W10145   1.642   5.748  11.884
 6627W        W10146   0.529   2.305   9.563
 6628W        W10147   8.561   0.223  10.861
 6629W        W10148   5.519   9.650   3.265
 6630W        W10149   0.795   7.397  10.016
 6631W        W10150   0.747   1.340  10.845
 6632W        W10151   4.180   2.027   0.006
 6633W        W10152   8.340   5.441   3.202
 6634W        W10153   7.358   1.411   2.513
 6635W        W10154   7.199   4.717   2.221
 6636W        W10155   4.583   4.606  10.496
 6637W        W10156   3.938   7.220   2.380
 6638W        W10157   5.398   8.457   1.600
 6639W        W10158   7.955   8.045  10.490
 6640W        W10159   4.237   3.472   8.742
 6641W        W10160   0.879   6.902   9.945
 6642W        W10161   7.908   6.097   0.720
 6643W        W10162   1.693   9.064   3.309
 6644W        W10163   3.856   7.630  10.718
 6645W        W10164   5.082   6.532   9.681
 6646W        W10165   5.025   1.176  10.879
 6647W        W10166   7.071   7.802   2.297
 6648W        W10167   9.971   8.560   9.012
 6649W        W10168   1.630   3.415   3.691
 6650W        W10169   3.864   7.443   3.356
 6651W        W10170   6.975   8.606   8.935
 6652W        W10171   6.021   8.153  11.747
 6653W        W10172   5.858   4.025   2.972
 6654W        W10173   4.877   5.067   0.914
 6655W        W10174   0.223   3.695   9.279
 6656W        W10175   5.066   8.555   0.277
 6657W        W10176   0.534   7.651  11.365
 6658W        W10177   4.567   9.341   0.235
 6659W        W10178   1.363   7.149  10.819
 6660W        W10179   2.479   9.652   8.562
 6661W        W10180   4.708   1.876   0.928
 6662W        W10181   5.950   3.436   0.285
 6663W        W10182   4.442   4.095   8.194
 6664W        W10183   5.527   0.951   9.652
 6665W        W10184   8.320   6.208   1.646
 6666W        W10185   8.398   3.681   1.379
 6667W        W10186   1.639   6.656   2.493
 6668W        W10187   0.333   2.246   0.804
 6669W        W10188   4.825   5.450  10.943
 6670W        W10189   1.243   0.699   2.836
 6671W        W10190   9.215   9.218   2.522
 6672W        W10191   6.732   2.182   1.482
 6673W        W10192   1.675   8.035   0.081
 6674W        W10193   5.991   3.588   1.219
 6675W        W10194   2.088   7.972  10.690
 6676W        W10195   1.804   1.220   1.233
 6677W        W10196   8.136   8.400   0.422
 6678W        W10197   0.586   5.397   3.439
 6679W        W10198   2.249   5.512   1.107
 6680W        W10199   6.343   4.052  11.085
 6681W        W10200   6.014   7.188   2.739
 6682W        W10201   0.385   0.455   2.410
 6683W        W10202   1.102   8.992  10.022
 6684W        W10203   3.355   9.710   1.211
 6685W        W10204   6.726   0.686   3.356
 6686W        W10205   4.094   9.841  10.135
 6687W        W10206   4.587   6.048  10.244
 6688W        W10207   0.613   8.010   3.569
 6689W        W10208   2.586   4.495  10.275
 6690W        W10209   6.126   5.644   2.071
 6691W        W10210   6.226   2.662   8.558
 6692W        W10211   3.600   4.832  10.674
 6693W        W10212   1.002   7.954   3.138
 6694W        W10213   7.954   5.483   2.870
 6695W        W10214   3.654   6.849   0.008
 6696W        W10215   2.873   1.361   9.803
 6697W        W10216   7.211   4.795   0.974
 6698W        W10217   6.685   1.719   9.531
 6699W        W10218   7.072   3.176   0.442
 6700W        W10219   6.465   6.938   9.289
 6701W        W10220   6.980   0.340  11.833
 6702W        W10221   7.630   5.868   2.905
 6703W        W10222   0.243   0.580  10.232
 6704W        W10223   3.524   4.067  10.058
 6705ION    NA+10224   4.473   0.495  10.976
 6706ION    NA+10225   7.951   4.206   8.835
 6707ION    NA+10226   6.272   8.442   0.714
 6708ION    NA+10227   3.373   1.618   1.246
 6709ION    NA+10228   3.876   6.193   1.801
 6710ION    NA+10229   2.274   5.741  10.496
 6711ION    NA+10230   4.510   6.573  10.412
 6712ION    NA+10231   6.646   5.027  11.701
 6713ION    NA+10232   9.523   3.080   8.557
 6714ION    NA+10233   4.642   8.777   9.800
 6715ION    NA+10234   6.151   3.661   9.616
 6716ION    NA+10235   4.726   7.864   0.746
 6717ION    NA+10236   7.899   5.608  11.950
 6718ION    NA+10237   0.851   3.155  11.954
 6719ION    NA+10238   0.037   9.963   3.041
 6720ION    NA+10239   7.564   8.962  11.733
 6721ION    NA+10240   1.695   7.048   9.516
 6722ION    NA+10241   4.046   2.383  10.298
 6723ION    NA+10242   3.790   0.205   8.891
 6724ION    NA+10243   3.863   8.475   9.561
 6725ION    NA+10244   6.973   1.204   8.988
 6726ION    NA+10245   3.614   5.505  10.991
 6727ION    NA+10246   7.439   4.096   9.565
 6728ION    NA+10247   5.359   9.252  10.148
 6729ION    NA+10248   6.911   9.534  10.684
 6730ION    NA+10249   3.128   0.953   8.937
 6731ION    NA+10250   0.270   5.417  11.510
 6732ION    NA+10251   9.316   3.429   1.302
 6733ION    NA+10252   8.143   1.585   3.164
 6734ION    NA+10253   2.638   5.042   8.776
 6735ION    NA+10254   6.371   0.833   1.721
 6736ION    NA+10255   8.652   1.377  10.768
 6737ION    NA+10256   5.306   8.729   2.678
 6738ION    NA+10257   1.866   4.694   1.752
 6739ION    NA+10258   7.309   9.384   2.825
 6740ION    NA+10259   1.742   9.740   0.432
 6741ION    NA+10260   7.899   7.912   2.222
 6742ION    NA+10261   2.805   6.768   2.331
 6743ION    NA+10262   1.551   6.586   0.851
 6744ION    NA+10263   1.338   8.615   1.111
 6745ION    NA+10264   2.158   5.908   0.033
 6746ION    NA+10265   8.164   4.784   2.133
 6747ION    NA+10266   8.901   9.010  10.255
 6748ION    NA+10267   8.403   7.986  11.977
 6749ION    NA+10268   8.419   8.026   1.608
 6750ION    NA+10269   5.983   6.641   4.020
 6751ION    NA+10270   4.220   9.486   1.008
 6752ION    NA+10271   0.908   3.252   9.660
 6753ION    NA+10272   1.316   0.539   3.686
 6754ION    NA+10273   4.123   5.558   2.397
 6755ION    NA+10274   8.694   2.746   1.233
 6756ION    NA+10275   6.419   8.487   2.277
 6757ION    NA+10276   7.792   4.833  10.962
 6758ION    NA+10277   4.211   5.282   0.403
 6759ION    NA+10278   0.588   4.885   0.295
 6760ION    NA+10279   1.814   0.021   3.154
 6761ION    NA+10280   3.826   4.977  10.164
 6762ION    NA+10281   9.708   7.901   3.016
 6763ION    NA+10282   5.026   5.876   3.363
 6764ION    NA+10283   3.586   9.594   0.242
 6765ION    NA+10284   0.286   0.412   8.604
 6766ION    NA+10285   8.716   7.965   2.396
 6767ION    NA+10286   3.852   6.332   9.208
 6768ION    NA+10287   4.309   0.374   9.764
 6769ION    NA+10288   7.965   7.852   9.522
 6770ION    NA+10289   2.816   1.856   2.480
 6771ION    NA+10290   3.016   2.709  11.594
 6772ION    NA+10291   7.576   2.573  10.470
 6773ION    NA+10292   2.151   5.743   8.819
 6774ION    NA+10293   5.314   4.574   1.519
 6775ION    NA+10294   6.543   6.952   9.834
 6776ION    CL-10295   8.589   4.720   2.253
 6777ION    CL-10296   0.208   1.223   2.914
 6778ION    CL-10297   5.166   8.823   1.297
 6779ION    CL-10298   6.117   0.538  11.181
 6780ION    CL-10299   4.925   4.608   3.054
 6781ION    CL-10300   6.121   3.883  10.000
 6782ION    CL-10301   1.126   3.637   9.697
 6783ION    CL-10302   2.387   5.379   8.977
 6784ION    CL-10303   3.958   5.857   2.094
 6785ION    CL-10304   1.839   1.769   3.290
 6786ION    CL-10305   6.435   8.569   0.320
 6787ION    CL-10306   4.333   8.487   9.580
 6788ION    CL-10307   4.490   1.558   9.438
 6789ION    CL-10308   2.600   5.379   2.259
 6790ION    CL-10309   0.905   4.672   0.063
 6791ION    CL-10310   7.027   1.017   8.560
 6792ION    CL-10311   7.767   4.119   9.244
 6793ION    CL-10312   4.722   7.709   0.324
 6794ION    CL-10313   2.167   8.513  11.573
 6795ION    CL-10314   4.128   6.639  10.632
 6796ION    CL-10315   2.181   9.107   2.124
 6797ION    CL-10316   7.722   9.193   0.083
 6798ION    CL-10317   9.199   2.688   9.503
 6799ION    CL-10318   5.081   4.248   1.304
 6800ION    CL-10319   1.406   0.006   0.312
 6801ION    CL-10320   9.012   3.069   1.283
 6802ION    CL-10321   3.265   3.608   3.475
 6803ION    CL-10322   5.805   7.449   2.351
 6804ION    CL-10323   3.209   4.933   0.381
 6805ION    CL-10324   0.235   0.529   0.929
 6806ION    CL-10325   6.200   2.393   2.327
 6807ION    CL-10326   4.845   4.996   8.622
 6808ION    CL-10327   9.046   1.239  10.619
 6809ION    CL-10328   7.507   4.321   0.283
 6810ION    CL-10329   7.762   5.148  10.648
 6811ION    CL-10330   5.625   6.674   0.221
 6812ION    CL-10331   0.996   8.696   0.826
 6813ION    CL-10332   0.821   8.357   2.288
 6814ION    CL-10333   6.631   1.495   9.076
 6815ION    CL-10334   1.315   4.544  10.095
 6816ION    CL-10335   0.095   7.724   2.871
 6817ION    CL-10336   4.339   4.689  10.981
 6818ION    CL-10337   4.383   0.068  11.074
 6819ION    CL-10338   3.436   8.632   9.614
 6820ION    CL-10339   3.151   7.289   0.387
 6821ION    CL-10340   2.026   6.020  11.620
 6822ION    CL-10341   2.474   1.584   2.383
 6823ION    CL-10342   5.473   4.933   1.748
 6824ION    CL-10343   8.342   7.980   2.074
 6825ION    CL-10344   7.080   4.115   9.837
 6826ION    CL-10345   9.907   0.656   8.746
 6827ION    CL-10346   5.184   8.630   3.098
 6828ION    CL-10347   5.737   3.178   1.034
 6829ION    CL-10348   6.694   3.389   3.197
 6830ION    CL-10349   7.519   9.957   0.870
 6831ION    CL-10350   8.911   9.312  10.582
 6832ION    CL-10351   8.475   9.210   3.568
 6833ION    CL-10352   3.748   6.707   9.432
 6834ION    CL-10353   0.082   3.820   2.722
 6835ION    CL-10354   6.364   7.803   8.950
 6836ION    CL-10355   4.584   3.348   9.743
 6837ION    CL-10356   4.984   9.046   9.980
 6838ION    CL-10357   5.674   0.266   3.076
 6839ION    CL-10358   5.729   3.585   3.187
 6840ION    CL-10359   5.035   7.627   9.373
 6841ION    CL-10360   9.566   5.669   9.103
 6842ION    CL-10361   9.854   2.517   3.062
 6843ION    CL-10362   2.702   4.678  11.557
 6844ION    CL-10363   7.776   2.545  10.865
 6845ION    CL-10364   1.684   8.553   1.406
 6846ION    CL-10365   9.625   3.724   1.469
  10.00000  10.00000  12.00000
