Protein in INSANE! Membrane UpperLeaflet>POPC=1.0 LowerLeaflet>POPC=1.0
10365
    1AU     AUC    1   5.025   5.058   5.921
    1AU     AUC    2   5.201   4.831   5.677
    1AU     AUC    3   5.335   5.055   5.854
    1AU     AUC    4   4.715   5.067   5.934
    1AU     AUC    5   4.872   5.301   6.131
    1AU     AUC    6   4.871   5.316   5.808
    1AU     AUC    7   5.148   5.163   5.701
    1AU     AUC    8   4.887   4.968   6.197
    1AU     AUC    9   5.202   4.838   6.039
    1AU     AUC   10   5.161   5.159   6.194
    1AU     AUC   11   5.113   5.291   6.013
    1AU     AUC   12   4.917   4.797   5.897
    1AU     AUC   13   4.905   4.991   5.647
    1AU     AUC   14   5.362   4.578   5.448
    1AU     AUC   15   5.522   4.811   5.556
    1AU     AUC   16   5.642   5.034   5.794
    1AU     AUC   17   4.385   5.095   5.938
    1AU     AUC   18   4.531   5.326   6.138
    1AU     AUC   19   4.718   5.556   6.381
    1AU     AUC   20   4.751   5.572   5.711
    1AU     AUC   21   4.949   5.446   5.508
    1AU     AUC   22   5.263   5.324   5.358
    1AU     AUC   23   4.752   4.891   6.452
    1AU     AUC   24   5.119   4.747   6.356
    1AU     AUC   25   5.415   4.719   6.147
    1AU     AUC   26   5.363   5.353   6.426
    1AU     AUC   27   5.298   5.481   6.240
    1AU     AUC   28   5.322   5.528   5.999
    1AU     AUC   29   4.818   4.507   5.880
    1AU     AUC   30   4.784   4.670   5.590
    1AU     AUC   31   4.764   4.901   5.350
    1AU     AUC   32   5.511   5.160   6.160
    1AU     AUC   33   5.538   5.310   5.948
    1AU     AUC   34   5.107   4.499   5.672
    1AU     AUC   35   5.085   4.731   5.375
    1AU     AUC   36   5.000   5.412   6.461
    1AU     AUC   37   5.041   5.595   6.305
    1AU     AUC   38   4.575   4.773   5.903
    1AU     AUC   39   4.545   5.015   5.632
    1AU     AUC   40   5.345   4.950   5.377
    1AU     AUC   41   5.503   5.203   5.559
    1AU     AUC   42   4.557   5.347   5.790
    1AU     AUC   43   4.762   5.578   6.068
    1AU     AUC   44   5.362   4.555   5.795
    1AU     AUC   45   5.561   4.870   5.940
    1AU     AUC   46   4.514   4.976   6.209
    1AU     AUC   47   4.692   5.230   6.384
    1AU     AUC   48   5.069   5.619   5.892
    1AU     AUC   49   5.278   5.462   5.656
    1AU     AUC   50   5.064   5.086   6.458
    1AU     AUC   51   5.386   5.041   6.310
    1AU     AUC   52   4.699   5.245   5.491
    1AU     AUC   53   4.995   5.090   5.356
    1AU     AUC   54   4.795   4.692   6.197
    1AU     AUC   55   5.105   4.535   6.050
    1AU    AUSL   56   5.782   4.951   6.319
    1AU    AUSL   57   5.699   5.342   6.443
    1AU     AUL   58   5.800   5.011   6.738
    1AU       S   59   6.208   5.217   6.576
    1AU     LIG   60   6.192   5.095   7.033
    1AU     LIG   61   6.003   5.109   7.477
    1AU     LIG   62   5.822   4.809   7.789
    1AU       S   63   6.272   4.912   6.053
    1AU     LIG   64   6.715   5.263   6.184
    1AU     LIG   65   6.821   5.794   6.154
    1AU     LIG   66   6.439   6.122   6.363
    1AU    AUSL   67   5.402   5.916   6.052
    1AU    AUSL   68   5.147   5.775   6.327
    1AU     AUL   69   5.148   6.169   6.211
    1AU       S   70   6.067   5.503   5.743
    1AU     LIG   71   6.185   5.149   5.145
    1AU     LIG   72   6.197   5.127   4.696
    1AU     LIG   73   5.860   5.106   4.389
    1AU       S   74   5.129   5.585   7.073
    1AU     LIG   75   4.672   5.630   7.516
    1AU     LIG   76   4.204   5.693   7.778
    1AU     LIG   77   3.695   5.534   7.688
    1AU    AUSL   78   5.640   5.528   6.058
    1AU    AUSL   79   5.705   5.277   5.731
    1AU     AUL   80   5.898   4.942   6.327
    1AU       S   81   6.222   4.848   5.993
    1AU     LIG   82   5.927   3.947   5.580
    1AU     LIG   83   5.632   3.941   5.265
    1AU     LIG   84   5.420   4.054   4.901
    1AU       S   85   5.365   5.753   5.078
    1AU     LIG   86   5.051   6.171   5.403
    1AU     LIG   87   5.342   6.414   5.528
    1AU     LIG   88   5.585   6.219   5.192
    1AU    AUSL   89   5.249   4.468   5.307
    1AU    AUSL   90   5.009   4.783   5.150
    1AU     AUL   91   5.133   4.454   4.950
    1AU       S   92   6.118   4.528   5.399
    1AU     LIG   93   6.436   5.238   5.794
    1AU     LIG   94   6.453   5.618   6.397
    1AU     LIG   95   6.047   5.866   6.526
    1AU       S   96   5.740   4.488   6.282
    1AU     LIG   97   4.784   4.692   6.951
    1AU     LIG   98   4.092   5.281   6.963
    1AU     LIG   99   3.934   5.713   6.682
    1AU    AUSL  100   4.956   4.431   5.649
    1AU    AUSL  101   5.243   4.131   5.566
    1AU     AUL  102   5.124   4.125   5.311
    1AU       S  103   5.100   3.703   6.003
    1AU     LIG  104   5.213   4.146   6.719
    1AU     LIG  105   5.273   4.406   7.213
    1AU     LIG  106   5.650   4.389   7.470
    1AU       S  107   5.796   4.187   5.924
    1AU     LIG  108   5.606   4.056   6.488
    1AU     LIG  109   5.177   3.737   6.934
    1AU     LIG  110   4.721   3.669   6.937
    1AU    AUSL  111   4.803   4.443   5.259
    1AU    AUSL  112   4.538   4.440   5.649
    1AU     AUL  113   4.693   4.185   5.477
    1AU       S  114   4.131   4.308   6.146
    1AU     LIG  115   3.886   4.483   6.741
    1AU     LIG  116   3.314   4.819   7.021
    1AU     LIG  117   3.243   5.123   7.388
    1AU       S  118   5.966   4.337   5.360
    1AU     LIG  119   6.478   4.880   5.424
    1AU     LIG  120   6.805   5.426   5.573
    1AU     LIG  121   6.673   5.920   5.691
    1AU    AUSL  122   5.000   5.791   6.709
    1AU    AUSL  123   5.566   5.772   6.382
    1AU     AUL  124   5.382   6.014   6.579
    1AU       S  125   5.031   5.526   7.125
    1AU     LIG  126   4.982   5.207   7.592
    1AU     LIG  127   4.863   4.689   7.590
    1AU     LIG  128   4.558   4.237   7.578
    1AU       S  129   5.336   4.993   6.995
    1AU     LIG  130   5.635   4.411   6.855
    1AU     LIG  131   5.629   3.926   6.989
    1AU     LIG  132   5.543   3.420   7.062
    1AU    AUSL  133   5.348   5.575   6.673
    1AU    AUSL  134   4.688   5.803   6.405
    1AU     AUL  135   4.941   5.995   6.661
    1AU       S  136   4.535   5.953   6.904
    1AU     LIG  137   4.652   6.373   6.550
    1AU     LIG  138   4.387   6.493   6.152
    1AU     LIG  139   4.183   6.751   5.822
    1AU       S  140   4.890   5.414   7.140
    1AU     LIG  141   4.394   4.522   6.791
    1AU     LIG  142   4.359   3.959   6.535
    1AU     LIG  143   4.625   3.472   6.484
    1AU    AUSL  144   4.374   4.832   5.742
    1AU    AUSL  145   4.523   4.557   6.050
    1AU     AUL  146   4.286   4.402   5.719
    1AU       S  147   4.182   4.452   6.340
    1AU     LIG  148   4.658   4.162   6.861
    1AU     LIG  149   4.905   4.067   7.232
    1AU     LIG  150   5.323   3.947   7.421
    1AU       S  151   3.833   4.824   6.229
    1AU     LIG  152   4.212   4.862   6.994
    1AU     LIG  153   4.490   5.135   7.350
    1AU     LIG  154   4.559   5.258   7.847
    1AU    AUSL  155   4.598   4.793   5.399
    1AU    AUSL  156   4.146   5.184   5.687
    1AU     AUL  157   4.123   4.862   5.405
    1AU       S  158   3.955   5.179   5.673
    1AU     LIG  159   3.416   4.729   5.985
    1AU     LIG  160   3.172   4.446   6.401
    1AU     LIG  161   3.317   4.320   6.848
    1AU       S  162   4.109   4.472   6.173
    1AU     LIG  163   3.781   4.912   6.861
    1AU     LIG  164   3.807   5.005   7.373
    1AU     LIG  165   4.078   5.131   7.758
    1AU    AUSL  166   5.495   5.289   5.065
    1AU    AUSL  167   5.437   4.869   5.137
    1AU     AUL  168   5.728   5.125   4.894
    1AU       S  169   6.086   5.012   5.606
    1AU     LIG  170   6.365   5.507   5.383
    1AU     LIG  171   6.673   5.276   5.103
    1AU     LIG  172   6.593   4.837   4.927
    1AU       S  173   5.424   4.911   4.647
    1AU     LIG  174   5.401   5.315   4.566
    1AU     LIG  175   5.776   5.583   4.629
    1AU     LIG  176   5.828   6.044   4.749
    1AU    AUSL  177   5.644   4.532   5.175
    1AU    AUSL  178   5.767   4.735   5.546
    1AU     AUL  179   5.898   4.749   5.102
    1AU       S  180   5.574   4.568   4.800
    1AU     LIG  181   5.885   4.206   4.867
    1AU     LIG  182   6.147   3.866   5.064
    1AU     LIG  183   6.567   3.863   5.271
    1AU       S  184   6.314   4.199   5.625
    1AU     LIG  185   6.345   4.355   5.026
    1AU     LIG  186   6.075   4.623   4.649
    1AU     LIG  187   5.703   4.618   4.321
    1AU    AUSL  188   5.746   5.101   5.353
    1AU    AUSL  189   5.547   5.513   5.422
    1AU     AUL  190   5.832   5.421   5.312
    1AU       S  191   5.514   5.748   5.008
    1AU     LIG  192   5.211   5.772   4.560
    1AU     LIG  193   4.742   5.630   4.301
    1AU     LIG  194   4.398   5.288   4.286
    1AU       S  195   5.331   4.787   4.722
    1AU     LIG  196   4.442   4.769   4.928
    1AU     LIG  197   3.877   4.457   5.273
    1AU     LIG  198   3.754   4.248   5.696
    1AU    AUSL  199   4.540   5.811   5.925
    1AU    AUSL  200   4.664   5.559   6.719
    1AU     AUL  201   4.338   6.019   6.490
    1AU       S  202   5.032   4.981   7.195
    1AU     LIG  203   4.484   4.640   7.310
    1AU     LIG  204   4.115   4.344   7.221
    1AU     LIG  205   3.729   4.053   7.083
    1AU       S  206   3.822   5.803   6.007
    1AU     LIG  207   3.370   5.154   6.281
    1AU     LIG  208   3.446   4.806   6.567
    1AU     LIG  209   3.657   4.543   7.163
    1AU    AUSL  210   4.405   5.390   5.931
    1AU    AUSL  211   4.397   5.548   5.534
    1AU     AUL  212   4.238   5.645   5.743
    1AU       S  213   3.818   5.578   5.849
    1AU     LIG  214   3.603   5.290   5.365
    1AU     LIG  215   3.684   4.866   5.068
    1AU     LIG  216   3.544   4.399   4.917
    1AU       S  217   4.060   5.508   5.345
    1AU     LIG  218   3.878   5.677   4.956
    1AU     LIG  219   3.666   5.956   4.694
    1AU     LIG  220   3.232   5.884   4.659
    1AU    AUSL  221   4.309   5.683   6.236
    1AU    AUSL  222   4.126   5.257   6.196
    1AU     AUL  223   4.145   5.556   6.177
    1AU       S  224   3.758   5.405   6.278
    1AU     LIG  225   3.904   5.908   5.542
    1AU     LIG  226   4.245   5.992   5.023
    1AU     LIG  227   4.700   6.178   4.845
    1AU       S  228   4.087   6.004   6.009
    1AU     LIG  229   4.091   6.364   5.551
    1AU     LIG  230   4.489   6.448   5.220
    1AU     LIG  231   4.963   6.541   5.064
    1AU    AUSL  232   5.552   4.579   5.924
    1AU    AUSL  233   5.799   4.913   5.914
    1AU     AUL  234   5.898   4.623   5.757
    1AU       S  235   6.237   4.368   5.867
    1AU     LIG  236   6.656   4.444   5.420
    1AU     LIG  237   6.954   4.863   5.318
    1AU     LIG  238   7.215   5.172   5.504
    1AU       S  239   6.260   5.188   6.410
    1AU     LIG  240   6.573   4.886   6.514
    1AU     LIG  241   6.905   4.795   6.238
    1AU     LIG  242   6.818   4.946   5.796
    1AU    AUSL  243   5.590   4.357   5.570
    1AU    AUSL  244   5.333   4.242   5.991
    1AU     AUL  245   5.430   4.111   5.728
    1AU       S  246   6.221   4.257   5.773
    1AU     LIG  247   6.704   4.476   5.916
    1AU     LIG  248   7.229   4.704   5.846
    1AU     LIG  249   7.225   5.170   6.011
    1AU       S  250   4.978   3.654   5.949
    1AU     LIG  251   4.387   3.674   6.112
    1AU     LIG  252   3.929   3.859   6.095
    1AU     LIG  253   3.480   3.954   6.261
    1AU    AUSL  254   4.293   5.047   6.543
    1AU    AUSL  255   4.272   4.880   6.139
    1AU     AUL  256   4.142   4.889   6.513
    1AU       S  257   3.786   4.932   6.182
    1AU     LIG  258   3.408   5.512   6.574
    1AU     LIG  259   2.970   5.521   6.412
    1AU     LIG  260   2.900   5.505   5.960
    1AU       S  261   3.796   5.277   6.495
    1AU     LIG  262   3.524   5.211   5.841
    1AU     LIG  263   3.445   5.790   5.626
    1AU     LIG  264   3.521   6.146   5.323
    1AU    AUSL  265   4.521   5.362   6.384
    1AU    AUSL  266   4.667   5.099   6.706
    1AU     AUL  267   4.303   5.399   6.591
    1AU       S  268   4.440   5.565   7.093
    1AU     LIG  269   4.063   5.470   7.377
    1AU     LIG  270   3.605   5.385   7.105
    1AU     LIG  271   3.133   5.286   6.913
    1AU       S  272   3.847   5.233   6.543
    1AU     LIG  273   3.654   4.434   6.344
    1AU     LIG  274   3.878   4.028   6.587
    1AU     LIG  275   4.208   3.900   6.994
    1AU    AUSL  276   5.284   5.575   5.795
    1AU    AUSL  277   4.990   5.837   5.941
    1AU     AUL  278   5.746   5.878   5.853
    1AU       S  279   5.242   5.108   7.006
    1AU     LIG  280   5.756   4.765   7.144
    1AU     LIG  281   6.108   4.641   6.730
    1AU     LIG  282   6.376   4.478   6.325
    1AU       S  283   4.547   4.153   5.959
    1AU     LIG  284   5.506   3.813   6.096
    1AU     LIG  285   5.903   3.573   5.947
    1AU     LIG  286   6.309   3.630   5.670
    1AU    AUSL  287   4.789   5.754   5.575
    1AU    AUSL  288   5.038   5.435   5.027
    1AU     AUL  289   4.774   5.847   5.197
    1AU       S  290   4.322   4.506   5.282
    1AU     LIG  291   4.105   4.409   4.841
    1AU     LIG  292   3.821   4.610   4.549
    1AU     LIG  293   3.363   4.510   4.440
    1AU       S  294   4.868   5.450   4.749
    1AU     LIG  295   4.830   4.777   4.684
    1AU     LIG  296   4.601   4.319   4.829
    1AU     LIG  297   4.313   4.048   5.174
    1AU    AUSL  298   5.124   5.557   5.417
    1AU    AUSL  299   5.384   5.899   5.601
    1AU     AUL  300   5.538   5.776   5.477
    1AU       S  301   5.186   5.880   5.041
    1AU     LIG  302   4.354   5.598   4.716
    1AU     LIG  303   4.073   5.218   4.795
    1AU     LIG  304   3.588   5.288   4.824
    1AU       S  305   3.989   4.696   5.773
    1AU     LIG  306   3.637   4.798   5.561
    1AU     LIG  307   3.178   4.928   5.602
    1AU     LIG  308   2.982   5.006   6.028
    1AU    AUSL  309   5.378   5.154   6.601
    1AU    AUSL  310   5.943   5.256   6.089
    1AU     AUL  311   5.824   5.431   6.540
    1AU       S  312   5.646   5.376   6.968
    1AU     LIG  313   5.394   5.457   7.457
    1AU     LIG  314   5.133   5.811   7.548
    1AU     LIG  315   4.826   6.152   7.430
    1AU       S  316   6.134   5.350   6.197
    1AU     LIG  317   6.236   5.828   6.022
    1AU     LIG  318   6.163   5.987   5.597
    1AU     LIG  319   5.857   6.322   5.601
    1AU    AUSL  320   5.046   4.890   6.627
    1AU    AUSL  321   5.016   5.335   6.681
    1AU     AUL  322   4.856   5.129   6.827
    1AU       S  323   5.578   5.394   7.011
    1AU     LIG  324   5.827   5.653   7.370
    1AU     LIG  325   5.662   6.080   7.410
    1AU     LIG  326   5.580   6.390   7.060
    1AU       S  327   4.697   5.844   7.065
    1AU     LIG  328   5.212   6.046   7.090
    1AU     LIG  329   5.681   5.878   6.940
    1AU     LIG  330   6.089   5.591   6.944
    1AU    AUSL  331   5.467   4.754   6.544
    1AU    AUSL  332   4.893   4.496   6.563
    1AU     AUL  333   5.206   4.610   6.786
    1AU       S  334   4.867   3.948   6.502
    1AU     LIG  335   5.441   3.606   6.557
    1AU     LIG  336   5.915   3.501   6.727
    1AU     LIG  337   6.371   3.505   6.886
    1AU       S  338   5.707   5.229   7.111
    1AU     LIG  339   5.455   4.968   7.476
    1AU     LIG  340   5.316   4.623   7.761
    1AU     LIG  341   5.032   4.229   7.773
    1AU    AUSL  342   4.741   5.099   5.065
    1AU    AUSL  343   5.175   5.140   5.293
    1AU     AUL  344   5.082   5.095   4.923
    1AU       S  345   4.710   5.255   4.688
    1AU     LIG  346   5.044   4.943   4.308
    1AU     LIG  347   5.024   4.381   4.459
    1AU     LIG  348   4.940   3.971   4.799
    1AU       S  349   5.907   4.543   6.170
    1AU     LIG  350   6.067   4.174   6.553
    1AU     LIG  351   6.126   3.935   6.975
    1AU     LIG  352   6.004   3.548   7.251
    1AU    AUSL  353   4.732   5.435   5.319
    1AU    AUSL  354   4.410   5.162   5.332
    1AU     AUL  355   4.500   5.435   5.121
    1AU       S  356   4.780   5.688   4.772
    1AU     LIG  357   4.396   6.019   4.502
    1AU     LIG  358   4.245   6.413   4.713
    1AU     LIG  359   4.452   6.809   4.841
    1AU       S  360   4.075   5.347   5.271
    1AU     LIG  361   4.388   6.001   5.465
    1AU     LIG  362   4.617   6.341   5.703
    1AU     LIG  363   4.701   6.813   5.773
    1AU    AUSL  364   4.895   4.400   6.153
    1AU    AUSL  365   4.566   4.738   6.428
    1AU     AUL  366   4.614   4.345   6.397
    1AU       S  367   3.826   4.955   6.113
    1AU     LIG  368   3.370   5.574   6.064
    1AU     LIG  369   3.148   5.440   5.542
    1AU     LIG  370   3.368   5.675   5.131
    1AU       S  371   4.771   3.920   6.291
    1AU     LIG  372   4.557   3.761   5.683
    1AU     LIG  373   4.373   3.545   5.303
    1AU     LIG  374   4.371   3.682   4.844
    1AU    AUSL  375   5.273   4.444   6.349
    1AU    AUSL  376   4.952   4.097   5.881
    1AU     AUL  377   5.177   4.133   6.214
    1AU       S  378   5.014   3.810   6.467
    1AU     LIG  379   5.125   3.325   6.299
    1AU     LIG  380   5.344   3.147   5.888
    1AU     LIG  381   5.473   2.893   5.472
    1AU       S  382   4.992   3.866   5.841
    1AU     LIG  383   5.427   3.623   5.634
    1AU     LIG  384   5.836   3.442   5.431
    1AU     LIG  385   5.924   3.310   4.977
    2POPC   NC3  386   3.505   1.394   8.128
    2POPC   PO4  387   3.082   0.802   8.216
    2POPC   GL1  388   3.276   0.862   7.784
    2POPC   GL2  389   3.580   1.062   7.714
    2POPC   C1A  390   3.146   0.906   7.326
    2POPC   D2A  391   3.138   0.923   6.847
    2POPC   C3A  392   3.363   1.013   6.437
    2POPC   C4A  393   3.303   0.929   5.965
    2POPC   C1B  394   3.508   1.263   7.298
    2POPC   C2B  395   3.454   1.339   6.844
    2POPC   C3B  396   3.675   1.428   6.444
    2POPC   C4B  397   3.735   1.192   6.081
    3POPC   NC3  398   7.282   0.336   8.140
    3POPC   PO4  399   7.838   9.914   8.004
    3POPC   GL1  400   7.545   0.148   7.729
    3POPC   GL2  401   7.440   0.513   7.697
    3POPC   C1A  402   7.429   0.151   7.310
    3POPC   D2A  403   7.535   0.410   6.951
    3POPC   C3A  404   7.337   0.367   6.556
    3POPC   C4A  405   7.376   0.083   6.188
    3POPC   C1B  406   7.246   0.628   7.324
    3POPC   C2B  407   7.237   0.804   6.936
    3POPC   C3B  408   7.105   0.846   6.499
    3POPC   C4B  409   7.234   0.705   6.096
    4POPC   NC3  410   1.082   1.437   8.151
    4POPC   PO4  411   0.708   0.818   8.086
    4POPC   GL1  412   0.853   1.126   7.783
    4POPC   GL2  413   1.192   1.043   7.834
    4POPC   C1A  414   1.121   1.289   7.393
    4POPC   D2A  415   1.373   1.371   6.990
    4POPC   C3A  416   1.215   1.314   6.554
    4POPC   C4A  417   1.032   1.474   6.147
    4POPC   C1B  418   1.313   0.816   7.483
    4POPC   C2B  419   1.263   0.840   7.057
    4POPC   C3B  420   1.478   0.769   6.685
    4POPC   C4B  421   1.382   0.917   6.298
    5POPC   NC3  422   0.679   5.141   8.065
    5POPC   PO4  423   0.109   4.656   7.928
    5POPC   GL1  424   0.477   4.794   7.617
    5POPC   GL2  425   0.685   5.101   7.575
    5POPC   C1A  426   0.600   4.887   7.141
    5POPC   D2A  427   0.429   5.020   6.717
    5POPC   C3A  428   0.685   4.976   6.325
    5POPC   C4A  429   0.829   4.872   5.923
    5POPC   C1B  430   0.411   5.351   7.331
    5POPC   C2B  431   0.105   5.364   7.005
    5POPC   C3B  432   0.031   5.350   6.585
    5POPC   C4B  433   0.192   5.106   6.247
    6POPC   NC3  434   6.286   7.566   8.612
    6POPC   PO4  435   5.738   7.731   8.187
    6POPC   GL1  436   5.640   8.037   7.769
    6POPC   GL2  437   5.605   8.411   7.816
    6POPC   C1A  438   5.716   8.080   7.281
    6POPC   D2A  439   5.523   8.013   6.848
    6POPC   C3A  440   5.824   7.900   6.529
    6POPC   C4A  441   6.280   7.806   6.557
    6POPC   C1B  442   5.414   8.492   7.403
    6POPC   C2B  443   5.613   8.483   6.970
    6POPC   C3B  444   5.653   8.374   6.488
    6POPC   C4B  445   5.628   8.431   5.987
    7POPC   NC3  446   0.332   8.150   8.232
    7POPC   PO4  447   0.866   7.705   8.168
    7POPC   GL1  448   0.488   7.873   7.841
    7POPC   GL2  449   0.392   8.271   7.744
    7POPC   C1A  450   0.214   7.895   7.449
    7POPC   D2A  451   0.379   7.860   7.020
    7POPC   C3A  452   0.134   7.924   6.625
    7POPC   C4A  453   0.194   7.742   6.208
    7POPC   C1B  454   0.458   8.322   7.269
    7POPC   C2B  455   0.442   8.314   6.791
    7POPC   C3B  456   0.546   8.146   6.380
    7POPC   C4B  457   0.823   8.300   6.022
    8POPC   NC3  458   8.582   6.435   8.148
    8POPC   PO4  459   9.245   6.312   8.357
    8POPC   GL1  460   9.095   6.453   7.939
    8POPC   GL2  461   8.912   6.753   7.831
    8POPC   C1A  462   8.977   6.356   7.498
    8POPC   D2A  463   8.734   6.466   7.132
    8POPC   C3A  464   8.908   6.534   6.740
    8POPC   C4A  465   8.999   6.405   6.314
    8POPC   C1B  466   8.937   6.890   7.345
    8POPC   C2B  467   9.109   7.006   6.899
    8POPC   C3B  468   8.915   6.963   6.462
    8POPC   C4B  469   8.709   6.780   6.093
    9POPC   NC3  470   2.555   6.258   8.078
    9POPC   PO4  471   2.646   6.894   8.068
    9POPC   GL1  472   2.494   6.642   7.709
    9POPC   GL2  473   2.755   6.417   7.631
    9POPC   C1A  474   2.421   6.739   7.272
    9POPC   D2A  475   2.564   6.625   6.868
    9POPC   C3A  476   2.400   6.797   6.525
    9POPC   C4A  477   2.612   6.809   6.128
    9POPC   C1B  478   2.919   6.636   7.247
    9POPC   C2B  479   3.045   6.831   6.824
    9POPC   C3B  480   3.063   6.761   6.365
    9POPC   C4B  481   2.954   6.457   6.028
   10POPC   NC3  482   7.516   9.580   7.996
   10POPC   PO4  483   6.948   9.920   8.158
   10POPC   GL1  484   7.132   9.827   7.730
   10POPC   GL2  485   7.180   9.466   7.634
   10POPC   C1A  486   7.046   9.800   7.277
   10POPC   D2A  487   7.233   9.926   6.884
   10POPC   C3A  488   6.995   9.959   6.528
   10POPC   C4A  489   6.821   9.963   6.121
   10POPC   C1B  490   7.508   9.605   7.316
   10POPC   C2B  491   7.525   9.477   6.876
   10POPC   C3B  492   7.446   9.590   6.435
   10POPC   C4B  493   7.674   9.679   6.011
   11POPC   NC3  494   8.089   4.852   8.040
   11POPC   PO4  495   8.030   4.190   8.338
   11POPC   GL1  496   8.197   4.338   7.895
   11POPC   GL2  497   8.502   4.443   7.778
   11POPC   C1A  498   8.250   4.153   7.444
   11POPC   D2A  499   8.213   4.017   6.975
   11POPC   C3A  500   8.142   4.141   6.509
   11POPC   C4A  501   7.826   4.164   6.198
   11POPC   C1B  502   8.639   4.541   7.341
   11POPC   C2B  503   8.589   4.372   6.915
   11POPC   C3B  504   8.561   4.468   6.470
   11POPC   C4B  505   8.257   4.477   6.121
   12POPC   NC3  506   3.337   2.045   8.242
   12POPC   PO4  507   3.785   2.551   8.139
   12POPC   GL1  508   3.569   2.236   7.826
   12POPC   GL2  509   3.443   1.885   7.780
   12POPC   C1A  510   3.556   2.192   7.353
   12POPC   D2A  511   3.276   2.226   6.956
   12POPC   C3A  512   3.438   2.260   6.519
   12POPC   C4A  513   3.334   2.099   6.065
   12POPC   C1B  514   3.743   1.662   7.528
   12POPC   C2B  515   3.827   1.655   7.091
   12POPC   C3B  516   3.589   1.828   6.758
   12POPC   C4B  517   3.279   1.769   6.465
   13POPC   NC3  518   9.243   5.955   8.076
   13POPC   PO4  519   9.514   5.371   8.153
   13POPC   GL1  520   9.271   5.509   7.836
   13POPC   GL2  521   9.499   5.722   7.661
   13POPC   C1A  522   9.005   5.544   7.480
   13POPC   D2A  523   9.119   5.353   7.087
   13POPC   C3A  524   9.082   5.653   6.750
   13POPC   C4A  525   9.151   5.887   6.355
   13POPC   C1B  526   9.299   5.889   7.265
   13POPC   C2B  527   8.868   5.959   7.107
   13POPC   C3B  528   8.740   6.049   6.667
   13POPC   C4B  529   8.626   6.046   6.240
   14POPC   NC3  530   2.017   4.397   8.328
   14POPC   PO4  531   1.438   4.252   8.009
   14POPC   GL1  532   1.716   4.343   7.705
   14POPC   GL2  533   1.941   4.569   7.838
   14POPC   C1A  534   1.717   4.369   7.265
   14POPC   D2A  535   1.685   4.096   6.893
   14POPC   C3A  536   1.768   4.321   6.524
   14POPC   C4A  537   1.917   4.176   6.093
   14POPC   C1B  538   2.187   4.360   7.499
   14POPC   C2B  539   2.170   4.141   7.081
   14POPC   C3B  540   2.230   4.151   6.622
   14POPC   C4B  541   2.203   4.564   6.388
   15POPC   NC3  542   4.332   9.062   8.169
   15POPC   PO4  543   3.884   8.484   8.200
   15POPC   GL1  544   3.880   8.783   7.768
   15POPC   GL2  545   4.057   9.110   7.730
   15POPC   C1A  546   3.768   8.986   7.328
   15POPC   D2A  547   3.913   8.826   6.914
   15POPC   C3A  548   4.114   9.049   6.543
   15POPC   C4A  549   4.162   9.222   6.064
   15POPC   C1B  550   4.259   8.895   7.352
   15POPC   C2B  551   4.487   8.660   7.069
   15POPC   C3B  552   4.548   8.814   6.660
   15POPC   C4B  553   4.467   8.830   6.213
   16POPC   NC3  554   0.329   1.165   7.943
   16POPC   PO4  555   0.670   1.679   8.075
   16POPC   GL1  556   0.451   1.623   7.668
   16POPC   GL2  557   0.148   1.418   7.555
   16POPC   C1A  558   0.623   1.398   7.284
   16POPC   D2A  559   0.890   1.203   6.937
   16POPC   C3A  560   0.713   1.218   6.507
   16POPC   C4A  561   0.406   1.519   6.385
   16POPC   C1B  562   0.244   1.034   7.302
   16POPC   C2B  563   0.373   1.123   6.889
   16POPC   C3B  564   0.210   1.047   6.482
   16POPC   C4B  565   0.157   0.965   6.039
   17POPC   NC3  566   7.960   5.794   8.092
   17POPC   PO4  567   8.641   5.906   8.077
   17POPC   GL1  568   8.353   5.836   7.772
   17POPC   GL2  569   8.176   6.191   7.823
   17POPC   C1A  570   8.498   5.670   7.371
   17POPC   D2A  571   8.627   5.492   6.964
   17POPC   C3A  572   8.300   5.434   6.649
   17POPC   C4A  573   8.246   5.655   6.235
   17POPC   C1B  574   8.419   6.192   7.420
   17POPC   C2B  575   8.356   6.017   6.992
   17POPC   C3B  576   8.214   6.070   6.539
   17POPC   C4B  577   7.975   6.074   6.099
   18POPC   NC3  578   5.774   0.426   8.366
   18POPC   PO4  579   6.266   9.965   8.331
   18POPC   GL1  580   6.068   0.336   7.960
   18POPC   GL2  581   5.735   0.524   7.872
   18POPC   C1A  582   5.978   0.374   7.462
   18POPC   D2A  583   6.050   0.030   7.158
   18POPC   C3A  584   6.041   0.065   6.702
   18POPC   C4A  585   5.914   0.047   6.295
   18POPC   C1B  586   5.563   0.675   7.449
   18POPC   C2B  587   5.766   0.795   7.034
   18POPC   C3B  588   5.780   0.544   6.608
   18POPC   C4B  589   5.945   0.550   6.192
   19POPC   NC3  590   9.559   6.592   8.146
   19POPC   PO4  591   0.226   6.251   8.173
   19POPC   GL1  592   9.971   6.505   7.806
   19POPC   GL2  593   9.791   6.789   7.749
   19POPC   C1A  594   9.814   6.534   7.303
   19POPC   D2A  595   9.874   6.424   6.828
   19POPC   C3A  596   9.882   6.603   6.383
   19POPC   C4A  597   9.951   6.388   5.925
   19POPC   C1B  598   9.396   6.756   7.513
   19POPC   C2B  599   9.286   6.553   7.105
   19POPC   C3B  600   9.410   6.629   6.650
   19POPC   C4B  601   9.383   6.903   6.283
   20POPC   NC3  602   9.616   0.914   8.505
   20POPC   PO4  603   9.952   1.408   8.086
   20POPC   GL1  604   9.664   1.332   7.734
   20POPC   GL2  605   9.312   1.283   7.835
   20POPC   C1A  606   9.730   1.207   7.302
   20POPC   D2A  607   9.862   0.958   6.944
   20POPC   C3A  608   9.706   1.078   6.532
   20POPC   C4A  609   9.679   0.825   6.156
   20POPC   C1B  610   9.218   1.157   7.404
   20POPC   C2B  611   9.335   1.141   6.938
   20POPC   C3B  612   9.389   1.479   6.592
   20POPC   C4B  613   9.492   1.520   6.130
   21POPC   NC3  614   1.937   8.063   8.077
   21POPC   PO4  615   2.360   7.562   8.116
   21POPC   GL1  616   2.183   7.797   7.700
   21POPC   GL2  617   1.857   8.050   7.586
   21POPC   C1A  618   2.253   7.976   7.286
   21POPC   D2A  619   2.011   7.948   6.899
   21POPC   C3A  620   2.287   7.920   6.533
   21POPC   C4A  621   2.466   8.053   6.128
   21POPC   C1B  622   1.485   8.318   7.416
   21POPC   C2B  623   1.339   8.287   6.971
   21POPC   C3B  624   1.628   8.177   6.621
   21POPC   C4B  625   1.952   8.206   6.304
   22POPC   NC3  626   4.168   1.499   8.178
   22POPC   PO4  627   4.706   1.133   8.441
   22POPC   GL1  628   4.621   1.346   8.002
   22POPC   GL2  629   4.316   1.176   7.824
   22POPC   C1A  630   4.676   1.307   7.499
   22POPC   D2A  631   4.415   1.043   7.160
   22POPC   C3A  632   4.433   0.911   6.680
   22POPC   C4A  633   4.607   0.924   6.228
   22POPC   C1B  634   4.024   1.234   7.472
   22POPC   C2B  635   3.929   1.159   7.011
   22POPC   C3B  636   3.921   0.993   6.587
   22POPC   C4B  637   4.195   1.225   6.286
   23POPC   NC3  638   7.792   7.045   8.089
   23POPC   PO4  639   8.348   7.524   8.164
   23POPC   GL1  640   8.088   7.345   7.837
   23POPC   GL2  641   8.156   7.530   7.599
   23POPC   C1A  642   7.950   7.123   7.413
   23POPC   D2A  643   8.107   7.044   6.976
   23POPC   C3A  644   7.908   7.068   6.559
   23POPC   C4A  645   7.696   7.025   6.160
   23POPC   C1B  646   8.246   7.505   7.183
   23POPC   C2B  647   8.434   7.662   6.833
   23POPC   C3B  648   8.326   7.675   6.415
   23POPC   C4B  649   8.244   7.422   6.048
   24POPC   NC3  650   9.235   3.525   8.021
   24POPC   PO4  651   8.743   3.976   8.002
   24POPC   GL1  652   8.885   3.686   7.691
   24POPC   GL2  653   8.818   3.298   7.795
   24POPC   C1A  654   9.178   3.754   7.348
   24POPC   D2A  655   9.391   3.583   6.987
   24POPC   C3A  656   9.140   3.659   6.608
   24POPC   C4A  657   8.817   3.528   6.315
   24POPC   C1B  658   9.083   3.275   7.423
   24POPC   C2B  659   8.959   3.316   6.984
   24POPC   C3B  660   9.031   3.138   6.561
   24POPC   C4B  661   8.810   3.022   6.160
   25POPC   NC3  662   0.185   1.806   8.150
   25POPC   PO4  663   0.449   2.233   8.474
   25POPC   GL1  664   0.400   2.161   7.884
   25POPC   GL2  665   0.683   2.096   7.680
   25POPC   C1A  666   0.212   2.087   7.446
   25POPC   D2A  667   9.967   2.173   7.037
   25POPC   C3A  668   0.127   1.975   6.645
   25POPC   C4A  669   0.168   1.969   6.187
   25POPC   C1B  670   0.685   2.138   7.226
   25POPC   C2B  671   0.614   2.109   6.784
   25POPC   C3B  672   0.640   1.979   6.378
   25POPC   C4B  673   0.606   1.747   5.974
   26POPC   NC3  674   9.878   4.388   8.231
   26POPC   PO4  675   9.361   4.736   7.920
   26POPC   GL1  676   9.681   4.549   7.687
   26POPC   GL2  677   9.834   4.203   7.760
   26POPC   C1A  678   9.679   4.646   7.270
   26POPC   D2A  679   9.445   4.568   6.888
   26POPC   C3A  680   9.556   4.506   6.450
   26POPC   C4A  681   9.518   4.651   6.016
   26POPC   C1B  682   9.935   4.215   7.333
   26POPC   C2B  683   9.931   4.378   6.909
   26POPC   C3B  684   0.026   4.209   6.529
   26POPC   C4B  685   9.957   3.863   6.263
   27POPC   NC3  686   7.293   0.974   8.116
   27POPC   PO4  687   7.717   1.426   7.820
   27POPC   GL1  688   7.272   1.352   7.688
   27POPC   GL2  689   7.169   1.015   7.633
   27POPC   C1A  690   7.145   1.294   7.221
   27POPC   D2A  691   7.336   1.275   6.785
   27POPC   C3A  692   7.024   1.353   6.451
   27POPC   C4A  693   6.973   1.141   6.031
   27POPC   C1B  694   7.560   1.016   7.356
   27POPC   C2B  695   7.756   0.941   6.967
   27POPC   C3B  696   7.611   0.859   6.564
   27POPC   C4B  697   7.447   1.157   6.257
   28POPC   NC3  698   9.300   4.976   8.304
   28POPC   PO4  699   8.616   4.941   8.063
   28POPC   GL1  700   8.896   4.796   7.690
   28POPC   GL2  701   9.105   5.069   7.629
   28POPC   C1A  702   9.081   4.788   7.199
   28POPC   D2A  703   8.971   4.676   6.726
   28POPC   C3A  704   9.111   4.836   6.302
   28POPC   C4A  705   9.062   4.780   5.833
   28POPC   C1B  706   8.729   5.133   7.362
   28POPC   C2B  707   8.621   4.961   6.971
   28POPC   C3B  708   8.750   5.139   6.563
   28POPC   C4B  709   8.732   5.557   6.370
   29POPC   NC3  710   6.004   8.908   8.443
   29POPC   PO4  711   5.431   9.201   8.280
   29POPC   GL1  712   5.701   9.281   7.916
   29POPC   GL2  713   5.895   8.972   7.876
   29POPC   C1A  714   5.774   9.259   7.451
   29POPC   D2A  715   5.964   9.146   7.036
   29POPC   C3A  716   5.746   9.206   6.636
   29POPC   C4A  717   5.427   9.189   6.294
   29POPC   C1B  718   5.863   8.752   7.466
   29POPC   C2B  719   6.096   8.658   7.101
   29POPC   C3B  720   5.963   8.726   6.686
   29POPC   C4B  721   5.761   8.815   6.290
   30POPC   NC3  722   5.034   8.880   8.200
   30POPC   PO4  723   4.440   8.698   7.922
   30POPC   GL1  724   4.850   8.776   7.722
   30POPC   GL2  725   4.934   9.160   7.758
   30POPC   C1A  726   4.965   8.849   7.283
   30POPC   D2A  727   4.831   9.246   7.141
   30POPC   C3A  728   4.762   9.293   6.729
   30POPC   C4A  729   4.957   9.014   6.451
   30POPC   C1B  730   5.350   9.000   7.583
   30POPC   C2B  731   5.490   8.941   7.125
   30POPC   C3B  732   5.397   8.828   6.673
   30POPC   C4B  733   5.261   8.655   6.266
   31POPC   NC3  734   5.987   9.701   8.072
   31POPC   PO4  735   5.424   0.047   8.312
   31POPC   GL1  736   5.650   0.019   7.867
   31POPC   GL2  737   5.810   9.757   7.597
   31POPC   C1A  738   5.498   0.145   7.451
   31POPC   D2A  739   5.627   0.296   7.030
   31POPC   C3A  740   5.497   0.093   6.615
   31POPC   C4A  741   5.554   9.682   6.376
   31POPC   C1B  742   6.156   9.553   7.288
   31POPC   C2B  743   6.266   9.589   6.855
   31POPC   C3B  744   6.045   9.571   6.443
   31POPC   C4B  745   5.913   9.268   6.126
   32POPC   NC3  746   7.157   2.441   8.213
   32POPC   PO4  747   7.218   3.123   8.219
   32POPC   GL1  748   7.292   2.800   7.887
   32POPC   GL2  749   7.529   2.868   7.646
   32POPC   C1A  750   7.120   2.586   7.513
   32POPC   D2A  751   7.319   2.689   7.126
   32POPC   C3A  752   7.209   2.661   6.683
   32POPC   C4A  753   7.235   2.954   6.325
   32POPC   C1B  754   7.800   2.733   7.325
   32POPC   C2B  755   7.773   2.585   6.907
   32POPC   C3B  756   7.670   2.751   6.509
   32POPC   C4B  757   7.663   2.851   6.064
   33POPC   NC3  758   8.975   9.255   8.390
   33POPC   PO4  759   9.218   8.557   8.314
   33POPC   GL1  760   9.058   8.784   7.922
   33POPC   GL2  761   8.715   8.802   8.037
   33POPC   C1A  762   9.091   8.902   7.427
   33POPC   D2A  763   9.180   8.749   7.000
   33POPC   C3A  764   9.149   8.998   6.639
   33POPC   C4A  765   8.953   8.958   6.272
   33POPC   C1B  766   8.591   8.871   7.595
   33POPC   C2B  767   8.682   8.862   7.121
   33POPC   C3B  768   8.700   8.719   6.669
   33POPC   C4B  769   8.460   8.668   6.257
   34POPC   NC3  770   5.084   0.355   8.180
   34POPC   PO4  771   4.667   0.851   7.969
   34POPC   GL1  772   4.912   0.549   7.720
   34POPC   GL2  773   4.795   0.197   7.672
   34POPC   C1A  774   5.090   0.476   7.293
   34POPC   D2A  775   5.287   0.658   6.917
   34POPC   C3A  776   5.197   0.562   6.477
   34POPC   C4A  777   5.080   0.585   6.023
   34POPC   C1B  778   4.739   0.104   7.210
   34POPC   C2B  779   5.016   0.209   6.818
   34POPC   C3B  780   5.040   0.095   6.332
   34POPC   C4B  781   4.878   0.139   5.866
   35POPC   NC3  782   0.327   6.758   8.254
   35POPC   PO4  783   0.875   6.607   8.119
   35POPC   GL1  784   0.789   6.454   7.732
   35POPC   GL2  785   0.475   6.499   7.797
   35POPC   C1A  786   0.773   6.605   7.312
   35POPC   D2A  787   0.778   6.921   6.974
   35POPC   C3A  788   0.785   6.697   6.595
   35POPC   C4A  789   0.665   6.798   6.181
   35POPC   C1B  790   0.297   6.467   7.408
   35POPC   C2B  791   0.426   6.437   6.967
   35POPC   C3B  792   0.334   6.461   6.542
   35POPC   C4B  793   0.175   6.135   6.288
   36POPC   NC3  794   7.605   8.620   7.955
   36POPC   PO4  795   7.829   9.244   8.069
   36POPC   GL1  796   7.550   9.109   7.753
   36POPC   GL2  797   7.225   8.994   7.887
   36POPC   C1A  798   7.635   9.100   7.299
   36POPC   D2A  799   7.842   9.066   6.901
   36POPC   C3A  800   7.626   9.050   6.512
   36POPC   C4A  801   7.528   9.195   6.072
   36POPC   C1B  802   7.263   8.797   7.458
   36POPC   C2B  803   7.313   8.744   7.024
   36POPC   C3B  804   7.035   8.698   6.667
   36POPC   C4B  805   7.211   8.845   6.296
   37POPC   NC3  806   2.014   8.724   8.188
   37POPC   PO4  807   2.326   8.227   7.889
   37POPC   GL1  808   2.009   8.525   7.720
   37POPC   GL2  809   2.043   8.915   7.713
   37POPC   C1A  810   1.911   8.623   7.299
   37POPC   D2A  811   2.045   8.909   6.980
   37POPC   C3A  812   2.012   8.714   6.567
   37POPC   C4A  813   1.639   8.632   6.312
   37POPC   C1B  814   2.203   9.239   7.391
   37POPC   C2B  815   2.409   9.276   6.959
   37POPC   C3B  816   2.234   9.195   6.545
   37POPC   C4B  817   1.895   9.112   6.245
   38POPC   NC3  818   0.709   6.189   8.169
   38POPC   PO4  819   0.482   5.582   7.990
   38POPC   GL1  820   0.508   5.972   7.763
   38POPC   GL2  821   0.853   5.927   7.703
   38POPC   C1A  822   0.554   6.046   7.322
   38POPC   D2A  823   0.461   5.766   6.975
   38POPC   C3A  824   0.558   5.968   6.587
   38POPC   C4A  825   0.734   6.267   6.285
   38POPC   C1B  826   0.840   5.621   7.327
   38POPC   C2B  827   0.756   5.345   6.945
   38POPC   C3B  828   0.635   5.451   6.510
   38POPC   C4B  829   0.305   5.640   6.250
   39POPC   NC3  830   2.124   7.158   8.142
   39POPC   PO4  831   1.541   7.656   8.129
   39POPC   GL1  832   1.734   7.577   7.728
   39POPC   GL2  833   1.987   7.324   7.688
   39POPC   C1A  834   1.881   7.618   7.284
   39POPC   D2A  835   1.801   7.408   6.883
   39POPC   C3A  836   1.834   7.665   6.520
   39POPC   C4A  837   2.077   7.665   6.115
   39POPC   C1B  838   2.213   7.190   7.349
   39POPC   C2B  839   2.164   7.050   6.921
   39POPC   C3B  840   2.208   7.289   6.528
   39POPC   C4B  841   2.236   7.158   6.098
   40POPC   NC3  842   6.565   0.176   8.019
   40POPC   PO4  843   7.000   0.648   7.950
   40POPC   GL1  844   6.966   0.312   7.650
   40POPC   GL2  845   6.657   0.448   7.591
   40POPC   C1A  846   6.928   0.280   7.169
   40POPC   D2A  847   6.771   0.572   6.858
   40POPC   C3A  848   6.825   0.434   6.425
   40POPC   C4A  849   6.696   0.685   6.088
   40POPC   C1B  850   6.438   0.381   7.244
   40POPC   C2B  851   6.175   0.490   6.946
   40POPC   C3B  852   6.329   0.560   6.549
   40POPC   C4B  853   6.373   0.289   6.233
   41POPC   NC3  854   8.933   7.371   8.181
   41POPC   PO4  855   8.461   6.877   8.216
   41POPC   GL1  856   8.605   7.176   7.842
   41POPC   GL2  857   9.012   7.244   7.697
   41POPC   C1A  858   8.646   7.504   7.505
   41POPC   D2A  859   8.778   7.360   7.110
   41POPC   C3A  860   8.852   7.428   6.674
   41POPC   C4A  861   8.744   7.440   6.235
   41POPC   C1B  862   9.202   7.527   7.336
   41POPC   C2B  863   9.329   7.576   6.861
   41POPC   C3B  864   9.206   7.674   6.391
   41POPC   C4B  865   9.294   7.752   5.918
   42POPC   NC3  866   2.440   3.703   8.201
   42POPC   PO4  867   1.833   3.982   8.384
   42POPC   GL1  868   1.806   3.873   7.914
   42POPC   GL2  869   1.858   3.500   7.808
   42POPC   C1A  870   1.770   3.886   7.450
   42POPC   D2A  871   2.036   3.649   7.156
   42POPC   C3A  872   1.957   3.683   6.696
   42POPC   C4A  873   1.662   3.820   6.373
   42POPC   C1B  874   1.654   3.380   7.387
   42POPC   C2B  875   1.542   3.147   7.000
   42POPC   C3B  876   1.701   3.118   6.565
   42POPC   C4B  877   1.957   3.329   6.283
   43POPC   NC3  878   1.028   3.088   8.108
   43POPC   PO4  879   0.724   2.523   7.990
   43POPC   GL1  880   0.939   2.771   7.705
   43POPC   GL2  881   1.302   2.777   7.783
   43POPC   C1A  882   0.877   2.749   7.286
   43POPC   D2A  883   0.786   2.563   6.922
   43POPC   C3A  884   0.893   2.782   6.572
   43POPC   C4A  885   1.029   2.671   6.144
   43POPC   C1B  886   1.487   2.738   7.365
   43POPC   C2B  887   1.288   2.695   6.968
   43POPC   C3B  888   1.400   2.703   6.566
   43POPC   C4B  889   1.487   2.870   6.172
   44POPC   NC3  890   9.406   1.872   7.918
   44POPC   PO4  891   9.958   2.261   8.076
   44POPC   GL1  892   9.769   2.179   7.691
   44POPC   GL2  893   9.878   1.824   7.721
   44POPC   C1A  894   9.525   2.253   7.290
   44POPC   D2A  895   9.513   2.468   6.867
   44POPC   C3A  896   9.841   2.390   6.508
   44POPC   C4A  897   9.773   2.265   6.007
   44POPC   C1B  898   9.826   1.724   7.270
   44POPC   C2B  899   9.931   1.467   6.873
   44POPC   C3B  900   9.901   1.553   6.430
   44POPC   C4B  901   9.671   1.930   6.363
   45POPC   NC3  902   0.308   2.570   8.205
   45POPC   PO4  903   0.515   3.201   8.141
   45POPC   GL1  904   0.377   2.934   7.766
   45POPC   GL2  905   0.140   2.620   7.714
   45POPC   C1A  906   0.231   3.036   7.330
   45POPC   D2A  907   0.508   2.989   6.961
   45POPC   C3A  908   0.499   3.091   6.523
   45POPC   C4A  909   0.551   2.821   6.171
   45POPC   C1B  910   0.380   2.553   7.301
   45POPC   C2B  911   0.280   2.527   6.842
   45POPC   C3B  912   0.355   2.413   6.411
   45POPC   C4B  913   0.203   2.512   5.982
   46POPC   NC3  914   8.187   7.178   8.406
   46POPC   PO4  915   7.920   6.599   8.079
   46POPC   GL1  916   8.176   6.850   7.782
   46POPC   GL2  917   8.428   6.645   7.702
   46POPC   C1A  918   8.444   7.034   7.376
   46POPC   D2A  919   8.604   6.930   6.920
   46POPC   C3A  920   8.425   7.120   6.534
   46POPC   C4A  921   8.228   6.930   6.152
   46POPC   C1B  922   8.143   6.624   7.325
   46POPC   C2B  923   8.288   6.529   6.913
   46POPC   C3B  924   8.444   6.574   6.513
   46POPC   C4B  925   8.044   6.520   6.380
   47POPC   NC3  926   4.989   1.494   8.376
   47POPC   PO4  927   4.493   1.845   8.132
   47POPC   GL1  928   4.789   1.790   7.815
   47POPC   GL2  929   5.093   1.856   7.997
   47POPC   C1A  930   4.783   1.816   7.363
   47POPC   D2A  931   5.038   1.856   6.967
   47POPC   C3A  932   4.764   1.984   6.633
   47POPC   C4A  933   4.837   2.340   6.407
   47POPC   C1B  934   5.271   1.939   7.558
   47POPC   C2B  935   5.481   2.094   7.165
   47POPC   C3B  936   5.420   2.149   6.708
   47POPC   C4B  937   5.197   1.930   6.369
   48POPC   NC3  938   2.638   4.568   7.986
   48POPC   PO4  939   2.747   5.214   8.088
   48POPC   GL1  940   2.626   5.158   7.661
   48POPC   GL2  941   2.514   4.807   7.534
   48POPC   C1A  942   2.717   5.172   7.215
   48POPC   D2A  943   2.558   5.123   6.792
   48POPC   C3A  944   2.572   4.944   6.363
   48POPC   C4A  945   2.529   4.962   5.853
   48POPC   C1B  946   2.445   4.675   7.070
   48POPC   C2B  947   2.650   4.513   6.635
   48POPC   C3B  948   2.765   4.549   6.141
   48POPC   C4B  949   3.046   4.446   5.791
   49POPC   NC3  950   4.296   2.278   8.137
   49POPC   PO4  951   3.756   1.784   8.201
   49POPC   GL1  952   4.032   1.931   7.851
   49POPC   GL2  953   4.273   1.673   7.698
   49POPC   C1A  954   4.072   2.026   7.382
   49POPC   D2A  955   3.909   2.154   6.966
   49POPC   C3A  956   3.988   2.086   6.510
   49POPC   C4A  957   4.335   2.200   6.233
   49POPC   C1B  958   4.321   1.588   7.245
   49POPC   C2B  959   4.310   1.792   6.837
   49POPC   C3B  960   4.391   1.710   6.381
   49POPC   C4B  961   4.173   1.713   5.960
   50POPC   NC3  962   6.370   7.304   8.009
   50POPC   PO4  963   6.844   7.104   8.447
   50POPC   GL1  964   6.804   7.157   7.818
   50POPC   GL2  965   7.045   7.382   7.665
   50POPC   C1A  966   6.607   7.338   7.380
   50POPC   D2A  967   6.404   7.405   6.930
   50POPC   C3A  968   6.586   7.396   6.494
   50POPC   C4A  969   6.687   7.171   6.098
   50POPC   C1B  970   7.061   7.473   7.241
   50POPC   C2B  971   7.007   7.304   6.866
   50POPC   C3B  972   7.067   7.527   6.488
   50POPC   C4B  973   6.840   7.647   6.076
   51POPC   NC3  974   9.706   2.647   8.064
   51POPC   PO4  975   9.177   3.099   8.208
   51POPC   GL1  976   9.368   2.953   7.747
   51POPC   GL2  977   9.602   2.670   7.593
   51POPC   C1A  978   9.307   2.859   7.256
   51POPC   D2A  979   9.451   3.082   6.910
   51POPC   C3A  980   9.517   2.866   6.552
   51POPC   C4A  981   9.303   2.922   6.164
   51POPC   C1B  982   9.864   2.664   7.231
   51POPC   C2B  983   9.965   2.937   6.878
   51POPC   C3B  984   0.051   2.860   6.450
   51POPC   C4B  985   9.772   2.740   6.126
   52POPC   NC3  986   6.672   1.870   8.331
   52POPC   PO4  987   7.108   1.401   8.193
   52POPC   GL1  988   6.830   1.594   7.922
   52POPC   GL2  989   6.799   1.976   7.843
   52POPC   C1A  990   6.797   1.582   7.489
   52POPC   D2A  991   6.577   1.385   7.171
   52POPC   C3A  992   6.612   1.533   6.720
   52POPC   C4A  993   6.797   1.820   6.383
   52POPC   C1B  994   6.497   2.023   7.475
   52POPC   C2B  995   6.362   1.860   7.041
   52POPC   C3B  996   6.311   1.983   6.584
   52POPC   C4B  997   6.481   2.292   6.260
   53POPC   NC3  998   0.230   3.503   7.928
   53POPC   PO4  999   9.880   3.028   8.267
   53POPC   GL1 1000   9.870   3.085   7.803
   53POPC   GL2 1001   9.698   3.414   7.778
   53POPC   C1A 1002   9.741   3.167   7.345
   53POPC   D2A 1003   9.988   3.437   7.043
   53POPC   C3A 1004   9.784   3.474   6.638
   53POPC   C4A 1005   9.720   3.225   6.262
   53POPC   C1B 1006   9.716   3.723   7.399
   53POPC   C2B 1007   9.773   3.905   6.960
   53POPC   C3B 1008   9.557   3.973   6.564
   53POPC   C4B 1009   9.497   3.665   6.234
   54POPC   NC3 1010   6.994   8.773   8.459
   54POPC   PO4 1011   6.423   9.092   8.352
   54POPC   GL1 1012   6.469   8.999   7.895
   54POPC   GL2 1013   6.765   8.743   7.879
   54POPC   C1A 1014   6.321   9.071   7.432
   54POPC   D2A 1015   6.506   9.117   6.986
   54POPC   C3A 1016   6.267   9.128   6.618
   54POPC   C4A 1017   6.262   8.849   6.286
   54POPC   C1B 1018   6.852   9.073   7.545
   54POPC   C2B 1019   7.125   9.241   7.163
   54POPC   C3B 1020   7.118   9.196   6.686
   54POPC   C4B 1021   6.739   9.014   6.417
   55POPC   NC3 1022   9.647   0.344   7.826
   55POPC   PO4 1023   9.256   0.734   8.234
   55POPC   GL1 1024   9.509   0.822   7.787
   55POPC   GL2 1025   9.882   0.824   7.688
   55POPC   C1A 1026   9.488   0.745   7.306
   55POPC   D2A 1027   9.583   0.530   6.902
   55POPC   C3A 1028   9.364   0.709   6.554
   55POPC   C4A 1029   9.201   0.628   6.142
   55POPC   C1B 1030   9.953   0.545   7.291
   55POPC   C2B 1031   9.999   0.219   6.943
   55POPC   C3B 1032   9.947   0.404   6.535
   55POPC   C4B 1033   9.589   0.312   6.315
   56POPC   NC3 1034   0.087   5.809   8.052
   56POPC   PO4 1035   9.571   6.187   7.843
   56POPC   GL1 1036   9.958   6.048   7.589
   56POPC   GL2 1037   0.135   5.734   7.522
   56POPC   C1A 1038   0.075   6.078   7.145
   56POPC   D2A 1039   0.011   5.874   6.743
   56POPC   C3A 1040   9.695   6.075   6.491
   56POPC   C4A 1041   9.705   5.971   6.067
   56POPC   C1B 1042   9.776   5.671   7.238
   56POPC   C2B 1043   9.589   5.557   6.834
   56POPC   C3B 1044   9.616   5.583   6.384
   56POPC   C4B 1045   9.357   5.611   5.971
   57POPC   NC3 1046   8.149   9.571   8.123
   57POPC   PO4 1047   8.636   0.009   7.990
   57POPC   GL1 1048   8.276   9.840   7.681
   57POPC   GL2 1049   8.260   9.435   7.639
   57POPC   C1A 1050   7.922   9.971   7.358
   57POPC   D2A 1051   7.741   9.949   6.916
   57POPC   C3A 1052   7.844   9.929   6.450
   57POPC   C4A 1053   8.161   9.844   6.128
   57POPC   C1B 1054   8.013   9.470   7.233
   57POPC   C2B 1055   8.042   9.545   6.773
   57POPC   C3B 1056   7.944   9.427   6.353
   57POPC   C4B 1057   8.095   9.387   5.898
   58POPC   NC3 1058   3.728   7.584   8.125
   58POPC   PO4 1059   3.511   6.961   8.045
   58POPC   GL1 1060   3.672   7.310   7.640
   58POPC   GL2 1061   3.494   7.616   7.435
   58POPC   C1A 1062   3.852   7.435   7.164
   58POPC   D2A 1063   3.612   7.541   6.765
   58POPC   C3A 1064   3.351   7.225   6.592
   58POPC   C4A 1065   3.471   7.052   6.213
   58POPC   C1B 1066   3.176   7.606   7.122
   58POPC   C2B 1067   3.105   7.682   6.691
   58POPC   C3B 1068   3.352   7.679   6.329
   58POPC   C4B 1069   3.743   7.633   6.240
   59POPC   NC3 1070   8.813   2.241   7.871
   59POPC   PO4 1071   8.992   1.653   7.950
   59POPC   GL1 1072   8.994   1.595   7.533
   59POPC   GL2 1073   8.728   1.825   7.514
   59POPC   C1A 1074   9.315   1.623   7.178
   59POPC   D2A 1075   9.483   1.936   6.861
   59POPC   C3A 1076   9.185   1.966   6.491
   59POPC   C4A 1077   9.024   1.663   6.215
   59POPC   C1B 1078   9.040   2.055   7.275
   59POPC   C2B 1079   9.006   2.238   6.881
   59POPC   C3B 1080   8.679   2.076   6.609
   59POPC   C4B 1081   8.552   1.735   6.352
   60POPC   NC3 1082   6.700   1.145   8.225
   60POPC   PO4 1083   6.090   0.791   8.273
   60POPC   GL1 1084   6.347   0.769   7.869
   60POPC   GL2 1085   6.645   0.974   7.734
   60POPC   C1A 1086   6.262   0.815   7.409
   60POPC   D2A 1087   6.361   0.951   6.982
   60POPC   C3A 1088   6.069   0.982   6.632
   60POPC   C4A 1089   6.222   0.976   6.195
   60POPC   C1B 1090   6.789   0.890   7.291
   60POPC   C2B 1091   6.835   1.081   6.867
   60POPC   C3B 1092   6.617   1.037   6.498
   60POPC   C4B 1093   6.549   1.386   6.209
   61POPC   NC3 1094   1.060   4.057   7.863
   61POPC   PO4 1095   0.925   4.688   7.934
   61POPC   GL1 1096   0.871   4.453   7.572
   61POPC   GL2 1097   1.230   4.391   7.515
   61POPC   C1A 1098   0.870   4.440   7.096
   61POPC   D2A 1099   0.883   4.718   6.737
   61POPC   C3A 1100   0.909   4.507   6.339
   61POPC   C4A 1101   1.045   4.407   5.905
   61POPC   C1B 1102   1.254   4.110   7.167
   61POPC   C2B 1103   1.191   4.196   6.698
   61POPC   C3B 1104   1.361   4.243   6.261
   61POPC   C4B 1105   1.369   3.974   5.905
   62POPC   NC3 1106   7.622   3.325   8.257
   62POPC   PO4 1107   7.164   3.800   8.025
   62POPC   GL1 1108   7.442   3.510   7.819
   62POPC   GL2 1109   7.214   3.275   7.719
   62POPC   C1A 1110   7.679   3.324   7.469
   62POPC   D2A 1111   7.591   3.115   7.055
   62POPC   C3A 1112   7.633   3.270   6.616
   62POPC   C4A 1113   7.644   3.334   6.187
   62POPC   C1B 1114   7.211   3.452   7.310
   62POPC   C2B 1115   7.268   3.484   6.887
   62POPC   C3B 1116   7.160   3.440   6.464
   62POPC   C4B 1117   7.165   3.358   6.027
   63POPC   NC3 1118   1.915   2.859   8.217
   63POPC   PO4 1119   2.492   3.237   8.277
   63POPC   GL1 1120   2.272   3.101   7.847
   63POPC   GL2 1121   2.162   2.752   7.758
   63POPC   C1A 1122   2.102   3.115   7.374
   63POPC   D2A 1123   2.052   3.203   6.915
   63POPC   C3A 1124   2.211   2.955   6.549
   63POPC   C4A 1125   2.190   2.901   6.091
   63POPC   C1B 1126   2.008   2.608   7.336
   63POPC   C2B 1127   1.862   2.707   6.887
   63POPC   C3B 1128   1.881   2.595   6.426
   63POPC   C4B 1129   1.866   2.522   5.976
   64POPC   NC3 1130   8.082   7.850   7.966
   64POPC   PO4 1131   8.274   8.418   8.290
   64POPC   GL1 1132   8.402   8.440   7.826
   64POPC   GL2 1133   8.369   8.107   7.647
   64POPC   C1A 1134   8.389   8.478   7.330
   64POPC   D2A 1135   8.423   8.147   7.020
   64POPC   C3A 1136   8.385   8.299   6.629
   64POPC   C4A 1137   8.396   8.154   6.240
   64POPC   C1B 1138   8.017   8.074   7.312
   64POPC   C2B 1139   7.960   7.848   6.894
   64POPC   C3B 1140   7.906   7.995   6.476
   64POPC   C4B 1141   8.002   7.888   6.064
   65POPC   NC3 1142   4.262   9.791   8.183
   65POPC   PO4 1143   4.764   9.297   8.260
   65POPC   GL1 1144   4.480   9.443   7.866
   65POPC   GL2 1145   4.428   9.819   7.714
   65POPC   C1A 1146   4.426   9.378   7.423
   65POPC   D2A 1147   4.437   9.638   7.027
   65POPC   C3A 1148   4.335   9.505   6.558
   65POPC   C4A 1149   4.612   9.349   6.234
   65POPC   C1B 1150   4.045   9.704   7.495
   65POPC   C2B 1151   3.936   9.819   7.063
   65POPC   C3B 1152   4.149   9.967   6.649
   65POPC   C4B 1153   4.035   9.900   6.181
   66POPC   NC3 1154   2.051   1.228   8.107
   66POPC   PO4 1155   1.554   0.823   8.114
   66POPC   GL1 1156   1.754   0.957   7.751
   66POPC   GL2 1157   2.117   0.977   7.640
   66POPC   C1A 1158   1.668   1.168   7.379
   66POPC   D2A 1159   1.769   1.036   6.987
   66POPC   C3A 1160   1.722   1.210   6.579
   66POPC   C4A 1161   1.968   1.106   6.232
   66POPC   C1B 1162   2.181   1.216   7.255
   66POPC   C2B 1163   2.141   1.381   6.839
   66POPC   C3B 1164   2.029   1.613   6.460
   66POPC   C4B 1165   1.946   1.628   6.001
   67POPC   NC3 1166   7.372   4.218   7.988
   67POPC   PO4 1167   7.643   4.785   7.892
   67POPC   GL1 1168   7.763   4.404   7.629
   67POPC   GL2 1169   7.817   4.031   7.752
   67POPC   C1A 1170   7.787   4.225   7.210
   67POPC   D2A 1171   7.705   4.091   6.780
   67POPC   C3A 1172   7.465   4.341   6.497
   67POPC   C4A 1173   7.166   4.312   6.161
   67POPC   C1B 1174   7.543   3.839   7.443
   67POPC   C2B 1175   7.294   3.956   7.089
   67POPC   C3B 1176   7.206   3.929   6.639
   67POPC   C4B 1177   7.514   3.799   6.357
   68POPC   NC3 1178   2.083   5.381   8.164
   68POPC   PO4 1179   2.275   4.763   8.204
   68POPC   GL1 1180   2.148   5.035   7.810
   68POPC   GL2 1181   1.806   5.062   7.706
   68POPC   C1A 1182   2.195   5.177   7.347
   68POPC   D2A 1183   2.143   5.430   6.941
   68POPC   C3A 1184   2.133   5.202   6.539
   68POPC   C4A 1185   2.120   5.014   6.125
   68POPC   C1B 1186   1.670   4.952   7.276
   68POPC   C2B 1187   1.709   5.104   6.838
   68POPC   C3B 1188   1.673   5.036   6.374
   68POPC   C4B 1189   1.760   4.659   6.127
   69POPC   NC3 1190   7.924   2.825   7.968
   69POPC   PO4 1191   8.471   2.505   7.994
   69POPC   GL1 1192   8.374   2.765   7.667
   69POPC   GL2 1193   8.241   3.088   7.650
   69POPC   C1A 1194   8.297   2.692   7.236
   69POPC   D2A 1195   8.435   2.489   6.866
   69POPC   C3A 1196   8.142   2.563   6.549
   69POPC   C4A 1197   7.952   2.484   6.165
   69POPC   C1B 1198   8.107   3.184   7.232
   69POPC   C2B 1199   8.038   3.029   6.809
   69POPC   C3B 1200   8.047   3.058   6.368
   69POPC   C4B 1201   8.308   2.848   6.105
   70POPC   NC3 1202   1.149   7.324   8.192
   70POPC   PO4 1203   1.700   6.800   8.195
   70POPC   GL1 1204   1.544   7.108   7.797
   70POPC   GL2 1205   1.264   7.383   7.710
   70POPC   C1A 1206   1.531   7.260   7.316
   70POPC   D2A 1207   1.284   7.170   6.940
   70POPC   C3A 1208   1.423   7.285   6.525
   70POPC   C4A 1209   1.738   7.284   6.204
   70POPC   C1B 1210   1.024   7.481   7.301
   70POPC   C2B 1211   0.936   7.505   6.844
   70POPC   C3B 1212   0.882   7.211   6.482
   70POPC   C4B 1213   0.926   7.255   6.010
   71POPC   NC3 1214   0.664   9.657   8.210
   71POPC   PO4 1215   1.264   9.258   8.150
   71POPC   GL1 1216   1.302   9.414   7.728
   71POPC   GL2 1217   1.003   9.623   7.758
   71POPC   C1A 1218   1.250   9.334   7.266
   71POPC   D2A 1219   0.953   9.096   6.972
   71POPC   C3A 1220   0.935   9.237   6.518
   71POPC   C4A 1221   0.907   9.339   6.062
   71POPC   C1B 1222   1.277   9.846   7.460
   71POPC   C2B 1223   1.355   9.913   7.021
   71POPC   C3B 1224   1.106   9.883   6.646
   71POPC   C4B 1225   0.880   9.837   6.280
   72POPC   NC3 1226   6.722   6.796   8.146
   72POPC   PO4 1227   6.195   6.948   7.765
   72POPC   GL1 1228   6.557   6.845   7.485
   72POPC   GL2 1229   6.824   6.652   7.638
   72POPC   C1A 1230   6.626   6.947   7.026
   72POPC   D2A 1231   6.772   6.931   6.603
   72POPC   C3A 1232   6.502   6.727   6.285
   72POPC   C4A 1233   6.331   6.869   5.870
   72POPC   C1B 1234   6.803   6.489   7.173
   72POPC   C2B 1235   6.690   6.419   6.699
   72POPC   C3B 1236   6.838   6.325   6.211
   72POPC   C4B 1237   6.727   6.512   5.815
   73POPC   NC3 1238   7.577   6.358   7.868
   73POPC   PO4 1239   7.161   6.849   8.002
   73POPC   GL1 1240   7.272   6.916   7.642
   73POPC   GL2 1241   7.620   6.832   7.673
   73POPC   C1A 1242   7.085   6.924   7.240
   73POPC   D2A 1243   7.238   6.649   6.916
   73POPC   C3A 1244   7.123   6.574   6.520
   73POPC   C4A 1245   7.001   6.787   6.170
   73POPC   C1B 1246   7.623   6.729   7.264
   73POPC   C2B 1247   7.790   6.656   6.870
   73POPC   C3B 1248   7.596   6.659   6.493
   73POPC   C4B 1249   7.522   6.302   6.219
   74POPC   NC3 1250   6.202   2.684   8.073
   74POPC   PO4 1251   6.700   2.320   8.226
   74POPC   GL1 1252   6.705   2.582   7.843
   74POPC   GL2 1253   6.811   2.930   7.887
   74POPC   C1A 1254   6.521   2.611   7.412
   74POPC   D2A 1255   6.414   2.379   6.993
   74POPC   C3A 1256   6.205   2.560   6.591
   74POPC   C4A 1257   5.958   2.657   6.180
   74POPC   C1B 1258   6.892   3.021   7.423
   74POPC   C2B 1259   6.818   2.763   7.039
   74POPC   C3B 1260   6.705   2.645   6.629
   74POPC   C4B 1261   6.898   2.595   6.218
   75POPC   NC3 1262   3.545   0.535   8.158
   75POPC   PO4 1263   3.907   1.090   8.141
   75POPC   GL1 1264   4.006   0.763   7.792
   75POPC   GL2 1265   3.721   0.553   7.688
   75POPC   C1A 1266   3.993   0.745   7.318
   75POPC   D2A 1267   3.592   0.778   7.072
   75POPC   C3A 1268   3.566   0.596   6.655
   75POPC   C4A 1269   3.697   0.693   6.219
   75POPC   C1B 1270   3.357   0.445   7.444
   75POPC   C2B 1271   3.202   0.426   7.029
   75POPC   C3B 1272   3.178   0.254   6.634
   75POPC   C4B 1273   3.172   0.554   6.282
   76POPC   NC3 1274   2.493   2.044   8.261
   76POPC   PO4 1275   3.019   2.440   8.364
   76POPC   GL1 1276   3.056   2.352   7.897
   76POPC   GL2 1277   2.862   2.034   7.868
   76POPC   C1A 1278   3.033   2.227   7.424
   76POPC   D2A 1279   2.743   2.100   7.060
   76POPC   C3A 1280   2.870   2.072   6.640
   76POPC   C4A 1281   2.802   2.227   6.241
   76POPC   C1B 1282   2.695   1.829   7.484
   76POPC   C2B 1283   2.516   1.636   7.094
   76POPC   C3B 1284   2.557   1.618   6.622
   76POPC   C4B 1285   2.834   1.708   6.252
   77POPC   NC3 1286   1.409   4.698   7.911
   77POPC   PO4 1287   1.478   5.266   8.029
   77POPC   GL1 1288   1.167   5.110   7.748
   77POPC   GL2 1289   1.066   5.441   7.726
   77POPC   C1A 1290   1.094   4.850   7.325
   77POPC   D2A 1291   1.348   4.606   7.000
   77POPC   C3A 1292   1.358   4.685   6.543
   77POPC   C4A 1293   1.292   4.834   6.094
   77POPC   C1B 1294   1.291   5.306   7.308
   77POPC   C2B 1295   1.207   5.102   6.895
   77POPC   C3B 1296   1.139   5.188   6.465
   77POPC   C4B 1297   1.342   5.405   6.129
   78POPC   NC3 1298   8.061   0.915   8.181
   78POPC   PO4 1299   8.039   1.568   8.242
   78POPC   GL1 1300   8.195   1.264   7.841
   78POPC   GL2 1301   8.468   1.423   7.701
   78POPC   C1A 1302   8.119   1.090   7.373
   78POPC   D2A 1303   8.284   1.136   6.925
   78POPC   C3A 1304   8.136   0.869   6.555
   78POPC   C4A 1305   7.908   0.963   6.141
   78POPC   C1B 1306   8.257   1.576   7.321
   78POPC   C2B 1307   7.875   1.460   7.038
   78POPC   C3B 1308   7.854   1.323   6.597
   78POPC   C4B 1309   8.227   1.321   6.325
   79POPC   NC3 1310   1.927   0.560   8.054
   79POPC   PO4 1311   1.947   9.915   8.089
   79POPC   GL1 1312   1.651   0.056   7.757
   79POPC   GL2 1313   1.596   0.443   7.684
   79POPC   C1A 1314   1.750   0.115   7.318
   79POPC   D2A 1315   2.139   0.219   7.058
   79POPC   C3A 1316   2.081   0.170   6.608
   79POPC   C4A 1317   2.080   0.217   6.173
   79POPC   C1B 1318   1.879   0.650   7.328
   79POPC   C2B 1319   2.197   0.771   6.946
   79POPC   C3B 1320   2.068   0.699   6.518
   79POPC   C4B 1321   1.713   0.539   6.267
   80POPC   NC3 1322   5.164   9.589   8.345
   80POPC   PO4 1323   4.658   0.066   8.184
   80POPC   GL1 1324   4.877   9.752   7.945
   80POPC   GL2 1325   5.160   9.903   7.893
   80POPC   C1A 1326   4.868   9.659   7.471
   80POPC   D2A 1327   4.990   9.713   6.997
   80POPC   C3A 1328   4.719   9.829   6.651
   80POPC   C4A 1329   4.565   9.882   6.241
   80POPC   C1B 1330   5.329   9.542   7.671
   80POPC   C2B 1331   5.316   9.399   7.237
   80POPC   C3B 1332   5.266   9.343   6.764
   80POPC   C4B 1333   5.061   9.550   6.371
   81POPC   NC3 1334   1.059   8.830   8.136
   81POPC   PO4 1335   1.595   8.387   8.112
   81POPC   GL1 1336   1.553   8.834   7.870
   81POPC   GL2 1337   1.221   8.916   7.671
   81POPC   C1A 1338   1.638   9.038   7.438
   81POPC   D2A 1339   1.382   8.798   7.110
   81POPC   C3A 1340   1.272   8.813   6.645
   81POPC   C4A 1341   1.344   9.048   6.222
   81POPC   C1B 1342   1.019   8.601   7.421
   81POPC   C2B 1343   0.870   8.546   7.010
   81POPC   C3B 1344   0.733   8.745   6.650
   81POPC   C4B 1345   0.928   8.743   6.264
   82POPC   NC3 1346   9.517   8.906   8.223
   82POPC   PO4 1347   9.970   8.453   8.171
   82POPC   GL1 1348   9.832   8.678   7.827
   82POPC   GL2 1349   9.512   8.531   7.849
   82POPC   C1A 1350   9.995   8.847   7.404
   82POPC   D2A 1351   9.987   9.178   7.044
   82POPC   C3A 1352   9.844   9.003   6.626
   82POPC   C4A 1353   9.851   8.740   6.180
   82POPC   C1B 1354   9.515   8.622   7.401
   82POPC   C2B 1355   9.680   8.661   6.985
   82POPC   C3B 1356   9.490   8.654   6.530
   82POPC   C4B 1357   9.471   9.078   6.233
   83POPC   NC3 1358   2.511   5.601   7.982
   83POPC   PO4 1359   1.954   5.713   8.438
   83POPC   GL1 1360   1.819   5.701   7.894
   83POPC   GL2 1361   2.100   5.572   7.682
   83POPC   C1A 1362   1.800   5.981   7.525
   83POPC   D2A 1363   2.062   5.979   7.136
   83POPC   C3A 1364   2.015   5.886   6.696
   83POPC   C4A 1365   1.733   5.996   6.385
   83POPC   C1B 1366   1.780   5.487   7.377
   83POPC   C2B 1367   1.667   5.624   6.968
   83POPC   C3B 1368   1.710   5.511   6.525
   83POPC   C4B 1369   2.001   5.547   6.191
   84POPC   NC3 1370   7.542   5.232   7.898
   84POPC   PO4 1371   7.590   5.896   7.852
   84POPC   GL1 1372   7.836   5.507   7.564
   84POPC   GL2 1373   7.861   5.090   7.540
   84POPC   C1A 1374   7.759   5.321   7.097
   84POPC   D2A 1375   7.802   5.189   6.615
   84POPC   C3A 1376   7.758   5.542   6.302
   84POPC   C4A 1377   7.562   5.763   5.941
   84POPC   C1B 1378   7.685   4.805   7.222
   84POPC   C2B 1379   7.563   4.742   6.802
   84POPC   C3B 1380   7.422   4.839   6.366
   84POPC   C4B 1381   7.703   5.071   6.118
   85POPC   NC3 1382   1.275   6.659   8.315
   85POPC   PO4 1383   0.752   7.079   8.341
   85POPC   GL1 1384   0.948   7.005   7.844
   85POPC   GL2 1385   1.232   6.727   7.802
   85POPC   C1A 1386   1.117   6.969   7.388
   85POPC   D2A 1387   1.243   6.657   7.047
   85POPC   C3A 1388   1.283   6.777   6.591
   85POPC   C4A 1389   1.128   6.601   6.191
   85POPC   C1B 1390   1.565   6.509   7.580
   85POPC   C2B 1391   1.632   6.331   7.175
   85POPC   C3B 1392   1.616   6.380   6.742
   85POPC   C4B 1393   1.609   6.501   6.311
   86POPC   NC3 1394   0.318   8.731   8.046
   86POPC   PO4 1395   0.302   9.348   8.109
   86POPC   GL1 1396   0.721   9.194   7.907
   86POPC   GL2 1397   0.709   8.852   7.742
   86POPC   C1A 1398   0.789   9.261   7.452
   86POPC   D2A 1399   0.498   9.314   7.084
   86POPC   C3A 1400   0.421   9.167   6.669
   86POPC   C4A 1401   0.534   9.051   6.248
   86POPC   C1B 1402   0.537   8.834   7.305
   86POPC   C2B 1403   0.251   8.753   6.948
   86POPC   C3B 1404   0.248   8.710   6.497
   86POPC   C4B 1405   0.406   8.565   6.116
   87POPC   NC3 1406   0.469   7.434   8.250
   87POPC   PO4 1407   9.935   7.027   8.246
   87POPC   GL1 1408   0.092   7.182   7.844
   87POPC   GL2 1409   9.996   7.521   7.777
   87POPC   C1A 1410   0.140   6.961   7.406
   87POPC   D2A 1411   0.117   6.860   6.948
   87POPC   C3A 1412   0.361   7.008   6.584
   87POPC   C4A 1413   0.412   7.260   6.217
   87POPC   C1B 1414   0.349   7.417   7.449
   87POPC   C2B 1415   0.438   7.338   6.987
   87POPC   C3B 1416   0.512   7.584   6.594
   87POPC   C4B 1417   0.825   7.712   6.300
   88POPC   NC3 1418   8.226   0.283   7.981
   88POPC   PO4 1419   7.667   0.653   8.155
   88POPC   GL1 1420   7.845   0.804   7.740
   88POPC   GL2 1421   8.184   0.685   7.663
   88POPC   C1A 1422   7.819   0.561   7.343
   88POPC   D2A 1423   8.067   0.537   6.958
   88POPC   C3A 1424   7.890   0.409   6.593
   88POPC   C4A 1425   7.697   0.500   6.205
   88POPC   C1B 1426   8.300   0.334   7.356
   88POPC   C2B 1427   8.263   0.029   6.984
   88POPC   C3B 1428   8.340   0.078   6.543
   88POPC   C4B 1429   8.207   0.367   6.198
   89POPC   NC3 1430   5.045   1.020   8.144
   89POPC   PO4 1431   5.447   1.558   8.218
   89POPC   GL1 1432   5.407   1.501   7.762
   89POPC   GL2 1433   5.101   1.369   7.796
   89POPC   C1A 1434   5.162   1.484   7.318
   89POPC   D2A 1435   4.778   1.421   7.005
   89POPC   C3A 1436   4.914   1.489   6.578
   89POPC   C4A 1437   5.340   1.436   6.427
   89POPC   C1B 1438   5.129   1.001   7.504
   89POPC   C2B 1439   4.924   0.948   7.138
   89POPC   C3B 1440   4.946   0.981   6.691
   89POPC   C4B 1441   5.093   1.034   6.278
   90POPC   NC3 1442   5.317   7.923   8.146
   90POPC   PO4 1443   4.872   8.422   8.247
   90POPC   GL1 1444   4.771   8.270   7.827
   90POPC   GL2 1445   5.123   8.234   7.780
   90POPC   C1A 1446   4.849   8.352   7.379
   90POPC   D2A 1447   5.120   8.322   7.022
   90POPC   C3A 1448   4.963   8.533   6.699
   90POPC   C4A 1449   4.715   8.398   6.357
   90POPC   C1B 1450   5.233   7.978   7.422
   90POPC   C2B 1451   5.080   7.812   7.023
   90POPC   C3B 1452   4.933   7.964   6.652
   90POPC   C4B 1453   5.204   8.174   6.439
   91POPC   NC3 1454   9.672   7.452   8.250
   91POPC   PO4 1455   9.233   7.032   8.120
   91POPC   GL1 1456   9.523   7.210   7.836
   91POPC   GL2 1457   9.454   7.542   7.783
   91POPC   C1A 1458   9.688   7.211   7.430
   91POPC   D2A 1459   9.615   6.954   7.064
   91POPC   C3A 1460   9.601   7.148   6.666
   91POPC   C4A 1461   9.869   7.122   6.282
   91POPC   C1B 1462   9.695   7.735   7.411
   91POPC   C2B 1463   9.969   7.551   7.094
   91POPC   C3B 1464   0.019   7.440   6.649
   91POPC   C4B 1465   9.713   7.613   6.312
   92POPC   NC3 1466   7.896   1.843   7.901
   92POPC   PO4 1467   7.646   2.451   7.985
   92POPC   GL1 1468   8.014   2.391   7.654
   92POPC   GL2 1469   8.400   2.258   7.543
   92POPC   C1A 1470   8.024   2.257   7.215
   92POPC   D2A 1471   7.864   1.993   6.915
   92POPC   C3A 1472   7.743   2.203   6.540
   92POPC   C4A 1473   7.728   2.013   6.143
   92POPC   C1B 1474   8.491   2.026   7.118
   92POPC   C2B 1475   8.304   1.691   6.821
   92POPC   C3B 1476   8.053   1.786   6.473
   92POPC   C4B 1477   8.265   2.129   6.272
   93POPC   NC3 1478   1.261   8.034   8.130
   93POPC   PO4 1479   0.707   8.491   8.123
   93POPC   GL1 1480   0.908   8.218   7.754
   93POPC   GL2 1481   1.030   7.851   7.712
   93POPC   C1A 1482   0.956   8.100   7.284
   93POPC   D2A 1483   0.859   8.014   6.845
   93POPC   C3A 1484   1.008   8.308   6.557
   93POPC   C4A 1485   1.291   8.269   6.250
   93POPC   C1B 1486   1.394   7.810   7.414
   93POPC   C2B 1487   1.403   7.739   6.953
   93POPC   C3B 1488   1.306   7.796   6.498
   93POPC   C4B 1489   1.596   7.878   6.132
   94POPC   NC3 1490   0.789   2.120   8.191
   94POPC   PO4 1491   1.377   1.799   8.242
   94POPC   GL1 1492   1.126   1.894   7.865
   94POPC   GL2 1493   1.153   2.264   7.828
   94POPC   C1A 1494   1.049   1.814   7.399
   94POPC   D2A 1495   0.918   1.707   6.949
   94POPC   C3A 1496   1.119   1.818   6.534
   94POPC   C4A 1497   1.041   2.003   6.088
   94POPC   C1B 1498   1.152   2.331   7.378
   94POPC   C2B 1499   1.125   2.184   6.940
   94POPC   C3B 1500   1.078   2.312   6.510
   94POPC   C4B 1501   1.422   2.348   6.182
   95POPC   NC3 1502   8.304   3.878   8.114
   95POPC   PO4 1503   8.058   3.251   8.110
   95POPC   GL1 1504   8.029   3.552   7.792
   95POPC   GL2 1505   8.381   3.582   7.720
   95POPC   C1A 1506   8.034   3.693   7.360
   95POPC   D2A 1507   7.758   3.619   7.027
   95POPC   C3A 1508   7.956   3.665   6.665
   95POPC   C4A 1509   8.036   3.659   6.282
   95POPC   C1B 1510   8.557   3.530   7.325
   95POPC   C2B 1511   8.362   3.540   6.947
   95POPC   C3B 1512   8.390   3.388   6.554
   95POPC   C4B 1513   8.384   3.353   6.108
   96POPC   NC3 1514   8.208   8.880   8.176
   96POPC   PO4 1515   7.900   8.274   7.931
   96POPC   GL1 1516   7.965   8.586   7.601
   96POPC   GL2 1517   8.033   8.924   7.702
   96POPC   C1A 1518   7.805   8.602   7.194
   96POPC   D2A 1519   7.918   8.353   6.851
   96POPC   C3A 1520   7.949   8.538   6.435
   96POPC   C4A 1521   7.655   8.696   6.108
   96POPC   C1B 1522   8.179   8.960   7.291
   96POPC   C2B 1523   8.239   8.750   6.896
   96POPC   C3B 1524   8.231   9.020   6.549
   96POPC   C4B 1525   8.053   8.974   6.174
   97POPC   NC3 1526   3.447   8.173   8.211
   97POPC   PO4 1527   3.335   7.599   7.896
   97POPC   GL1 1528   3.667   7.953   7.795
   97POPC   GL2 1529   3.597   8.308   7.746
   97POPC   C1A 1530   3.866   7.991   7.420
   97POPC   D2A 1531   3.663   7.945   7.043
   97POPC   C3A 1532   3.844   8.038   6.649
   97POPC   C4A 1533   3.693   8.134   6.269
   97POPC   C1B 1534   3.361   8.122   7.414
   97POPC   C2B 1535   3.175   8.099   7.013
   97POPC   C3B 1536   3.296   8.166   6.592
   97POPC   C4B 1537   3.246   8.350   6.183
   98POPC   NC3 1538   2.310   9.636   8.072
   98POPC   PO4 1539   2.940   9.966   8.144
   98POPC   GL1 1540   2.956   9.579   7.841
   98POPC   GL2 1541   2.620   9.474   7.699
   98POPC   C1A 1542   3.075   9.594   7.395
   98POPC   D2A 1543   2.816   9.610   7.001
   98POPC   C3A 1544   2.804   9.814   6.586
   98POPC   C4A 1545   2.459   9.899   6.277
   98POPC   C1B 1546   2.731   9.201   7.354
   98POPC   C2B 1547   2.921   9.107   6.947
   98POPC   C3B 1548   2.921   9.321   6.567
   98POPC   C4B 1549   2.601   9.414   6.260
   99POPC   NC3 1550   3.292   9.660   8.222
   99POPC   PO4 1551   3.956   9.380   8.158
   99POPC   GL1 1552   3.773   9.742   7.940
   99POPC   GL2 1553   3.511   9.544   7.784
   99POPC   C1A 1554   3.605   9.984   7.540
   99POPC   D2A 1555   3.410   9.950   7.101
   99POPC   C3A 1556   3.649   0.076   6.705
   99POPC   C4A 1557   3.569   0.212   6.271
   99POPC   C1B 1558   3.590   9.490   7.343
   99POPC   C2B 1559   3.330   9.451   6.958
   99POPC   C3B 1560   3.300   9.690   6.597
   99POPC   C4B 1561   3.542   9.713   6.233
  100POPC   NC3 1562   8.892   4.463   8.079
  100POPC   PO4 1563   9.466   4.539   8.402
  100POPC   GL1 1564   9.335   4.237   7.925
  100POPC   GL2 1565   9.011   4.252   7.653
  100POPC   C1A 1566   9.429   4.201   7.405
  100POPC   D2A 1567   9.254   4.083   6.965
  100POPC   C3A 1568   9.041   4.187   6.551
  100POPC   C4A 1569   9.080   4.368   6.120
  100POPC   C1B 1570   8.749   4.041   7.334
  100POPC   C2B 1571   8.786   3.837   6.952
  100POPC   C3B 1572   8.580   3.897   6.575
  100POPC   C4B 1573   8.639   4.071   6.160
  101POPC   NC3 1574   7.564   1.528   8.240
  101POPC   PO4 1575   7.131   2.002   8.371
  101POPC   GL1 1576   7.293   1.854   7.933
  101POPC   GL2 1577   7.278   2.177   7.769
  101POPC   C1A 1578   7.274   1.795   7.434
  101POPC   D2A 1579   7.165   1.741   6.965
  101POPC   C3A 1580   7.495   1.738   6.624
  101POPC   C4A 1581   7.325   1.687   6.216
  101POPC   C1B 1582   7.516   2.266   7.361
  101POPC   C2B 1583   7.389   2.209   6.922
  101POPC   C3B 1584   7.213   2.160   6.500
  101POPC   C4B 1585   7.382   2.425   6.205
  102POPC   NC3 1586   1.144   0.617   8.130
  102POPC   PO4 1587   0.953   0.024   8.089
  102POPC   GL1 1588   1.097   0.267   7.740
  102POPC   GL2 1589   0.902   0.573   7.675
  102POPC   C1A 1590   1.231   0.342   7.309
  102POPC   D2A 1591   1.064   0.346   6.888
  102POPC   C3A 1592   1.307   0.335   6.508
  102POPC   C4A 1593   1.312   0.084   6.155
  102POPC   C1B 1594   0.811   0.875   7.347
  102POPC   C2B 1595   0.747   0.734   6.933
  102POPC   C3B 1596   0.977   0.782   6.597
  102POPC   C4B 1597   0.896   0.818   6.187
  103POPC   NC3 1598   1.786   2.061   8.247
  103POPC   PO4 1599   2.285   1.625   8.178
  103POPC   GL1 1600   2.310   1.936   7.798
  103POPC   GL2 1601   2.072   2.222   7.776
  103POPC   C1A 1602   2.237   2.029   7.334
  103POPC   D2A 1603   2.029   2.004   6.920
  103POPC   C3A 1604   2.316   2.064   6.591
  103POPC   C4A 1605   2.371   1.885   6.193
  103POPC   C1B 1606   1.671   2.274   7.550
  103POPC   C2B 1607   1.606   2.304   7.096
  103POPC   C3B 1608   1.599   2.208   6.646
  103POPC   C4B 1609   1.890   2.095   6.286
  104POPC   NC3 1610   7.761   8.058   8.320
  104POPC   PO4 1611   7.192   8.480   8.169
  104POPC   GL1 1612   7.315   8.150   7.838
  104POPC   GL2 1613   7.530   8.307   7.563
  104POPC   C1A 1614   7.319   7.867   7.450
  104POPC   D2A 1615   7.535   8.065   7.069
  104POPC   C3A 1616   7.387   7.945   6.607
  104POPC   C4A 1617   7.300   7.835   6.174
  104POPC   C1B 1618   7.126   8.322   7.354
  104POPC   C2B 1619   7.110   8.265   6.910
  104POPC   C3B 1620   7.455   8.437   6.608
  104POPC   C4B 1621   7.169   8.331   6.299
  105POPC   NC3 1622   3.111   7.199   8.019
  105POPC   PO4 1623   3.123   7.846   8.301
  105POPC   GL1 1624   2.833   7.597   7.864
  105POPC   GL2 1625   3.006   7.423   7.570
  105POPC   C1A 1626   2.542   7.573   7.442
  105POPC   D2A 1627   2.329   7.547   7.007
  105POPC   C3A 1628   2.612   7.581   6.672
  105POPC   C4A 1629   2.581   7.550   6.228
  105POPC   C1B 1630   2.756   7.118   7.370
  105POPC   C2B 1631   2.649   7.133   6.943
  105POPC   C3B 1632   2.765   7.143   6.504
  105POPC   C4B 1633   3.028   7.299   6.193
  106POPC   NC3 1634   3.150   5.425   8.036
  106POPC   PO4 1635   2.838   5.914   8.013
  106POPC   GL1 1636   2.642   5.912   7.616
  106POPC   GL2 1637   2.349   6.051   7.600
  106POPC   C1A 1638   2.453   5.658   7.289
  106POPC   D2A 1639   2.652   5.618   6.889
  106POPC   C3A 1640   2.438   5.651   6.505
  106POPC   C4A 1641   2.473   5.386   6.169
  106POPC   C1B 1642   2.506   6.226   7.222
  106POPC   C2B 1643   2.451   6.133   6.799
  106POPC   C3B 1644   2.588   6.300   6.404
  106POPC   C4B 1645   2.807   5.978   6.185
  107POPC   NC3 1646   0.523   4.515   8.091
  107POPC   PO4 1647   0.225   3.927   8.164
  107POPC   GL1 1648   0.526   4.077   7.821
  107POPC   GL2 1649   0.342   4.286   7.654
  107POPC   C1A 1650   0.692   4.037   7.350
  107POPC   D2A 1651   0.825   3.915   6.962
  107POPC   C3A 1652   0.663   4.101   6.613
  107POPC   C4A 1653   0.425   4.028   6.254
  107POPC   C1B 1654   0.380   4.436   7.256
  107POPC   C2B 1655   0.426   4.493   6.829
  107POPC   C3B 1656   0.346   4.602   6.429
  107POPC   C4B 1657   0.006   4.588   6.150
  108POPC   NC3 1658   7.135   7.297   8.158
  108POPC   PO4 1659   7.744   7.575   8.208
  108POPC   GL1 1660   7.654   7.658   7.777
  108POPC   GL2 1661   7.560   7.343   7.726
  108POPC   C1A 1662   7.749   7.635   7.315
  108POPC   D2A 1663   7.469   7.577   6.932
  108POPC   C3A 1664   7.599   7.485   6.474
  108POPC   C4A 1665   7.663   7.509   6.001
  108POPC   C1B 1666   7.479   7.220   7.307
  108POPC   C2B 1667   7.503   7.080   6.887
  108POPC   C3B 1668   7.287   7.060   6.509
  108POPC   C4B 1669   7.217   7.232   6.112
  109POPC   NC3 1670   6.589   9.633   8.299
  109POPC   PO4 1671   6.267   9.913   7.791
  109POPC   GL1 1672   6.623   9.898   7.579
  109POPC   GL2 1673   6.686   9.572   7.759
  109POPC   C1A 1674   6.562   9.917   7.134
  109POPC   D2A 1675   6.551   0.124   6.766
  109POPC   C3A 1676   6.462   9.848   6.455
  109POPC   C4A 1677   6.304   9.816   6.029
  109POPC   C1B 1678   6.669   9.466   7.301
  109POPC   C2B 1679   6.813   9.576   6.848
  109POPC   C3B 1680   6.825   9.503   6.379
  109POPC   C4B 1681   6.433   9.360   6.201
  110POPC   NC3 1682   3.851   2.989   7.992
  110POPC   PO4 1683   4.411   2.725   8.097
  110POPC   GL1 1684   4.314   2.547   7.682
  110POPC   GL2 1685   3.996   2.445   7.665
  110POPC   C1A 1686   4.377   2.402   7.225
  110POPC   D2A 1687   4.378   2.317   6.756
  110POPC   C3A 1688   4.454   2.666   6.438
  110POPC   C4A 1689   4.858   2.872   6.268
  110POPC   C1B 1690   3.896   2.586   7.220
  110POPC   C2B 1691   3.939   2.600   6.719
  110POPC   C3B 1692   3.992   2.857   6.313
  110POPC   C4B 1693   3.964   3.272   6.055
  111POPC   NC3 1694   1.583   9.623   8.115
  111POPC   PO4 1695   2.193   9.191   8.119
  111POPC   GL1 1696   1.918   9.428   7.777
  111POPC   GL2 1697   2.091   9.730   7.623
  111POPC   C1A 1698   1.711   9.567   7.350
  111POPC   D2A 1699   1.855   9.780   6.935
  111POPC   C3A 1700   1.626   9.903   6.527
  111POPC   C4A 1701   1.739   9.850   6.050
  111POPC   C1B 1702   2.338   9.731   7.231
  111POPC   C2B 1703   2.337   9.751   6.773
  111POPC   C3B 1704   2.054   9.649   6.415
  111POPC   C4B 1705   2.166   9.523   5.985
  112POPC   NC3 1706   9.513   8.181   8.269
  112POPC   PO4 1707   0.050   7.750   8.261
  112POPC   GL1 1708   9.942   8.028   7.895
  112POPC   GL2 1709   9.606   8.019   7.819
  112POPC   C1A 1710   9.898   8.286   7.491
  112POPC   D2A 1711   9.907   8.132   7.054
  112POPC   C3A 1712   9.913   8.372   6.648
  112POPC   C4A 1713   9.917   8.211   6.215
  112POPC   C1B 1714   9.356   8.139   7.480
  112POPC   C2B 1715   9.367   8.141   7.041
  112POPC   C3B 1716   9.517   8.038   6.625
  112POPC   C4B 1717   9.350   8.164   6.228
  113POPC   NC3 1718   0.034   9.687   7.970
  113POPC   PO4 1719   0.441   0.038   8.375
  113POPC   GL1 1720   0.468   9.933   7.842
  113POPC   GL2 1721   0.480   9.607   7.702
  113POPC   C1A 1722   0.756   9.968   7.453
  113POPC   D2A 1723   0.887   9.682   7.109
  113POPC   C3A 1724   0.651   9.641   6.709
  113POPC   C4A 1725   0.453   9.569   6.299
  113POPC   C1B 1726   0.177   9.584   7.356
  113POPC   C2B 1727   0.202   9.730   6.936
  113POPC   C3B 1728   0.027   9.500   6.608
  113POPC   C4B 1729   0.073   9.225   6.240
  114POPC   NC3 1730   3.659   8.994   8.156
  114POPC   PO4 1731   3.162   8.542   8.180
  114POPC   GL1 1732   3.326   8.724   7.800
  114POPC   GL2 1733   3.432   9.049   7.711
  114POPC   C1A 1734   3.426   8.620   7.358
  114POPC   D2A 1735   3.563   8.435   6.957
  114POPC   C3A 1736   3.621   8.604   6.524
  114POPC   C4A 1737   3.454   8.802   6.123
  114POPC   C1B 1738   3.258   9.103   7.333
  114POPC   C2B 1739   3.398   8.933   6.934
  114POPC   C3B 1740   3.396   9.122   6.533
  114POPC   C4B 1741   3.720   9.238   6.280
  115POPC   NC3 1742   3.412   2.687   8.361
  115POPC   PO4 1743   3.470   3.267   8.073
  115POPC   GL1 1744   3.321   2.841   7.861
  115POPC   GL2 1745   3.538   2.693   7.586
  115POPC   C1A 1746   3.048   2.738   7.469
  115POPC   D2A 1747   2.860   2.599   7.054
  115POPC   C3A 1748   3.025   2.570   6.624
  115POPC   C4A 1749   3.182   2.571   6.193
  115POPC   C1B 1750   3.404   2.710   7.094
  115POPC   C2B 1751   3.473   2.793   6.610
  115POPC   C3B 1752   3.518   2.969   6.182
  115POPC   C4B 1753   3.726   2.898   5.800
  116POPC   NC3 1754   3.210   3.641   8.110
  116POPC   PO4 1755   2.686   4.093   8.065
  116POPC   GL1 1756   2.806   3.705   7.793
  116POPC   GL2 1757   2.749   3.354   7.878
  116POPC   C1A 1758   2.947   3.381   7.430
  116POPC   D2A 1759   2.952   3.132   7.048
  116POPC   C3A 1760   2.940   3.433   6.654
  116POPC   C4A 1761   3.091   3.561   6.213
  116POPC   C1B 1762   2.445   3.466   7.519
  116POPC   C2B 1763   2.502   3.422   7.058
  116POPC   C3B 1764   2.410   3.430   6.596
  116POPC   C4B 1765   2.575   3.258   6.203
  117POPC   NC3 1766   5.694   1.975   8.150
  117POPC   PO4 1767   6.275   1.542   8.133
  117POPC   GL1 1768   5.921   1.627   7.824
  117POPC   GL2 1769   5.991   1.995   7.731
  117POPC   C1A 1770   5.742   1.685   7.370
  117POPC   D2A 1771   5.854   1.832   6.914
  117POPC   C3A 1772   5.704   1.759   6.501
  117POPC   C4A 1773   5.848   1.755   6.083
  117POPC   C1B 1774   6.017   2.141   7.301
  117POPC   C2B 1775   5.887   2.331   6.914
  117POPC   C3B 1776   5.868   2.225   6.466
  117POPC   C4B 1777   5.597   2.189   6.147
  118POPC   NC3 1778   2.697   2.810   8.324
  118POPC   PO4 1779   2.145   2.400   8.240
  118POPC   GL1 1780   2.526   2.436   7.925
  118POPC   GL2 1781   2.689   2.758   7.827
  118POPC   C1A 1782   2.544   2.436   7.444
  118POPC   D2A 1783   2.338   2.416   7.001
  118POPC   C3A 1784   2.525   2.525   6.610
  118POPC   C4A 1785   2.674   2.728   6.199
  118POPC   C1B 1786   2.588   2.966   7.434
  118POPC   C2B 1787   2.464   2.914   7.006
  118POPC   C3B 1788   2.708   2.990   6.631
  118POPC   C4B 1789   3.040   3.055   6.312
  119POPC   NC3 1790   2.727   1.105   8.072
  119POPC   PO4 1791   3.108   1.660   8.124
  119POPC   GL1 1792   2.910   1.453   7.744
  119POPC   GL2 1793   2.507   1.403   7.724
  119POPC   C1A 1794   2.990   1.429   7.287
  119POPC   D2A 1795   3.009   1.633   6.890
  119POPC   C3A 1796   2.977   1.326   6.559
  119POPC   C4A 1797   2.873   1.043   6.220
  119POPC   C1B 1798   2.639   1.078   7.407
  119POPC   C2B 1799   2.637   1.157   6.934
  119POPC   C3B 1800   2.439   1.121   6.516
  119POPC   C4B 1801   2.390   1.381   6.157
  120POPC   NC3 1802   1.524   5.629   8.286
  120POPC   PO4 1803   1.218   6.195   8.291
  120POPC   GL1 1804   1.241   6.221   7.872
  120POPC   GL2 1805   1.356   5.893   7.813
  120POPC   C1A 1806   1.145   6.270   7.413
  120POPC   D2A 1807   1.211   6.124   6.971
  120POPC   C3A 1808   1.177   6.234   6.536
  120POPC   C4A 1809   1.334   6.117   6.114
  120POPC   C1B 1810   1.338   5.800   7.361
  120POPC   C2B 1811   1.174   5.627   6.940
  120POPC   C3B 1812   1.251   5.719   6.537
  120POPC   C4B 1813   0.949   5.799   6.269
  121POPC   NC3 1814   4.517   7.374   8.292
  121POPC   PO4 1815   5.135   7.484   8.147
  121POPC   GL1 1816   4.884   7.761   7.854
  121POPC   GL2 1817   4.545   7.624   7.829
  121POPC   C1A 1818   4.738   7.832   7.391
  121POPC   D2A 1819   4.605   7.638   6.947
  121POPC   C3A 1820   4.649   7.564   6.473
  121POPC   C4A 1821   4.706   7.428   6.022
  121POPC   C1B 1822   4.254   7.658   7.449
  121POPC   C2B 1823   4.158   7.833   7.028
  121POPC   C3B 1824   4.115   7.592   6.648
  121POPC   C4B 1825   3.910   7.217   6.472
  122POPC   NC3 1826   1.668   6.298   8.195
  122POPC   PO4 1827   2.208   5.949   8.065
  122POPC   GL1 1828   2.050   6.373   7.853
  122POPC   GL2 1829   1.993   6.773   7.769
  122POPC   C1A 1830   2.065   6.416   7.413
  122POPC   D2A 1831   2.069   6.532   6.964
  122POPC   C3A 1832   2.081   6.376   6.545
  122POPC   C4A 1833   2.184   6.521   6.159
  122POPC   C1B 1834   1.833   6.856   7.323
  122POPC   C2B 1835   1.694   6.878   6.888
  122POPC   C3B 1836   1.893   6.878   6.468
  122POPC   C4B 1837   1.840   6.823   5.976
  123POPC   NC3 1838   4.400   8.323   8.178
  123POPC   PO4 1839   4.177   7.685   8.224
  123POPC   GL1 1840   4.200   7.997   7.828
  123POPC   GL2 1841   4.098   8.325   7.772
  123POPC   C1A 1842   4.364   8.170   7.390
  123POPC   D2A 1843   4.587   8.166   6.977
  123POPC   C3A 1844   4.411   8.009   6.593
  123POPC   C4A 1845   4.547   7.962   6.150
  123POPC   C1B 1846   3.936   8.485   7.374
  123POPC   C2B 1847   4.061   8.334   7.012
  123POPC   C3B 1848   4.177   8.475   6.653
  123POPC   C4B 1849   4.169   8.341   6.295
  124POPC   NC3 1850   0.619   0.342   8.062
  124POPC   PO4 1851   9.980   0.132   8.055
  124POPC   GL1 1852   0.179   0.341   7.715
  124POPC   GL2 1853   0.384   0.668   7.712
  124POPC   C1A 1854   0.271   0.083   7.352
  124POPC   D2A 1855   0.573   0.124   6.980
  124POPC   C3A 1856   0.386   0.077   6.575
  124POPC   C4A 1857   0.026   9.941   6.346
  124POPC   C1B 1858   0.449   0.541   7.292
  124POPC   C2B 1859   0.264   0.632   6.873
  124POPC   C3B 1860   0.465   0.598   6.474
  124POPC   C4B 1861   0.813   0.331   6.391
  125POPC   NC3 1862   5.929   1.218   8.175
  125POPC   PO4 1863   5.410   0.723   8.217
  125POPC   GL1 1864   5.543   1.018   7.854
  125POPC   GL2 1865   5.897   0.991   7.728
  125POPC   C1A 1866   5.586   1.184   7.381
  125POPC   D2A 1867   5.361   1.186   6.958
  125POPC   C3A 1868   5.523   0.983   6.590
  125POPC   C4A 1869   5.533   0.821   6.170
  125POPC   C1B 1870   6.101   1.301   7.428
  125POPC   C2B 1871   6.112   1.402   6.969
  125POPC   C3B 1872   6.132   1.476   6.515
  125POPC   C4B 1873   5.813   1.274   6.262
  126POPC   NC3 1874   4.295   0.789   8.232
  126POPC   PO4 1875   3.816   0.269   8.440
  126POPC   GL1 1876   4.043   0.248   8.004
  126POPC   GL2 1877   4.377   0.401   7.893
  126POPC   C1A 1878   4.066   0.220   7.528
  126POPC   D2A 1879   3.795   0.307   7.154
  126POPC   C3A 1880   4.047   0.487   6.804
  126POPC   C4A 1881   4.110   0.391   6.352
  126POPC   C1B 1882   4.466   0.546   7.438
  126POPC   C2B 1883   4.615   0.559   7.013
  126POPC   C3B 1884   4.543   0.327   6.649
  126POPC   C4B 1885   4.640   0.407   6.248
  127POPC   NC3 1886   9.756   4.962   8.011
  127POPC   PO4 1887   0.382   4.902   8.319
  127POPC   GL1 1888   0.206   5.159   7.869
  127POPC   GL2 1889   9.893   5.395   7.802
  127POPC   C1A 1890   0.023   5.053   7.425
  127POPC   D2A 1891   0.104   4.833   7.059
  127POPC   C3A 1892   9.911   4.838   6.659
  127POPC   C4A 1893   9.678   5.041   6.343
  127POPC   C1B 1894   9.562   5.260   7.460
  127POPC   C2B 1895   9.615   5.093   7.047
  127POPC   C3B 1896   9.332   5.059   6.718
  127POPC   C4B 1897   9.201   5.325   6.390
  128POPC   NC3 1898   9.715   9.928   8.374
  128POPC   PO4 1899   9.366   9.353   8.180
  128POPC   GL1 1900   9.579   9.501   7.846
  128POPC   GL2 1901   9.827   9.218   7.850
  128POPC   C1A 1902   9.680   9.740   7.447
  128POPC   D2A 1903   9.718   9.627   7.030
  128POPC   C3A 1904   9.640   9.910   6.688
  128POPC   C4A 1905   9.314   9.831   6.395
  128POPC   C1B 1906   9.575   9.139   7.470
  128POPC   C2B 1907   9.472   9.166   7.022
  128POPC   C3B 1908   9.484   9.404   6.629
  128POPC   C4B 1909   9.690   9.558   6.231
  129POPC   NC3 1910   2.685   7.986   8.124
  129POPC   PO4 1911   2.394   8.527   8.374
  129POPC   GL1 1912   2.734   8.480   7.846
  129POPC   GL2 1913   3.030   8.236   7.796
  129POPC   C1A 1914   2.659   8.343   7.327
  129POPC   D2A 1915   2.377   8.303   6.917
  129POPC   C3A 1916   2.426   8.430   6.472
  129POPC   C4A 1917   2.768   8.506   6.193
  129POPC   C1B 1918   2.904   7.926   7.471
  129POPC   C2B 1919   2.712   7.899   7.057
  129POPC   C3B 1920   2.776   8.091   6.647
  129POPC   C4B 1921   2.936   7.943   6.261
  130POPC   NC3 1922   9.034   9.707   7.956
  130POPC   PO4 1923   8.531   9.279   8.238
  130POPC   GL1 1924   8.758   9.285   7.843
  130POPC   GL2 1925   9.122   9.262   7.750
  130POPC   C1A 1926   8.744   9.322   7.391
  130POPC   D2A 1927   8.960   9.288   6.995
  130POPC   C3A 1928   8.692   9.245   6.629
  130POPC   C4A 1929   8.441   9.543   6.407
  130POPC   C1B 1930   9.240   9.509   7.359
  130POPC   C2B 1931   9.196   9.770   6.968
  130POPC   C3B 1932   8.879   9.741   6.630
  130POPC   C4B 1933   8.933   9.501   6.228
  131POPC   NC3 1934   8.755   2.849   8.123
  131POPC   PO4 1935   9.262   2.327   7.911
  131POPC   GL1 1936   9.103   2.505   7.555
  131POPC   GL2 1937   8.899   2.787   7.647
  131POPC   C1A 1938   8.790   2.523   7.242
  131POPC   D2A 1939   8.922   2.777   6.912
  131POPC   C3A 1940   9.065   2.616   6.534
  131POPC   C4A 1941   9.384   2.408   6.302
  131POPC   C1B 1942   8.662   3.026   7.347
  131POPC   C2B 1943   8.517   3.064   6.950
  131POPC   C3B 1944   8.539   2.896   6.565
  131POPC   C4B 1945   8.603   2.507   6.350
  132POPC   NC3 1946   2.763   8.762   8.245
  132POPC   PO4 1947   3.232   9.216   8.154
  132POPC   GL1 1948   2.925   9.040   7.816
  132POPC   GL2 1949   2.557   8.974   7.818
  132POPC   C1A 1950   2.933   8.745   7.451
  132POPC   D2A 1951   3.023   8.575   7.012
  132POPC   C3A 1952   3.104   8.697   6.565
  132POPC   C4A 1953   2.991   8.981   6.196
  132POPC   C1B 1954   2.420   8.777   7.423
  132POPC   C2B 1955   2.545   8.773   6.995
  132POPC   C3B 1956   2.629   8.890   6.559
  132POPC   C4B 1957   2.485   8.937   6.110
  133POPC   NC3 1958   2.810   0.411   8.143
  133POPC   PO4 1959   2.317   0.844   8.082
  133POPC   GL1 1960   2.458   0.592   7.781
  133POPC   GL2 1961   2.819   0.642   7.669
  133POPC   C1A 1962   2.411   0.584   7.358
  133POPC   D2A 1963   2.744   0.687   7.080
  133POPC   C3A 1964   2.725   0.707   6.635
  133POPC   C4A 1965   2.505   0.681   6.247
  133POPC   C1B 1966   2.825   0.266   7.348
  133POPC   C2B 1967   2.688   0.221   6.867
  133POPC   C3B 1968   2.761   0.271   6.368
  133POPC   C4B 1969   3.000   0.156   5.964
  134POPC   NC3 1970   5.802   3.083   8.315
  134POPC   PO4 1971   5.805   2.440   8.110
  134POPC   GL1 1972   5.816   2.791   7.789
  134POPC   GL2 1973   6.063   2.555   7.608
  134POPC   C1A 1974   5.933   3.000   7.383
  134POPC   D2A 1975   6.104   2.785   7.033
  134POPC   C3A 1976   6.323   3.035   6.708
  134POPC   C4A 1977   6.288   3.373   6.382
  134POPC   C1B 1978   5.696   2.530   7.369
  134POPC   C2B 1979   5.595   2.766   7.025
  134POPC   C3B 1980   5.663   2.686   6.606
  134POPC   C4B 1981   5.311   2.553   6.375
  135POPC   NC3 1982   8.629   5.427   8.040
  135POPC   PO4 1983   7.971   5.322   8.053
  135POPC   GL1 1984   8.295   5.265   7.707
  135POPC   GL2 1985   8.355   4.906   7.612
  135POPC   C1A 1986   8.250   5.246   7.246
  135POPC   D2A 1987   8.107   4.980   6.952
  135POPC   C3A 1988   8.291   4.906   6.567
  135POPC   C4A 1989   8.187   5.146   6.226
  135POPC   C1B 1990   8.143   4.627   7.312
  135POPC   C2B 1991   8.041   4.501   6.852
  135POPC   C3B 1992   7.888   4.640   6.419
  135POPC   C4B 1993   7.732   4.603   5.967
  136POPC   NC3 1994   6.811   8.228   8.053
  136POPC   PO4 1995   6.737   7.595   8.070
  136POPC   GL1 1996   6.840   7.866   7.676
  136POPC   GL2 1997   6.609   8.170   7.586
  136POPC   C1A 1998   6.833   7.923   7.216
  136POPC   D2A 1999   6.766   7.759   6.828
  136POPC   C3A 2000   6.791   7.986   6.446
  136POPC   C4A 2001   6.456   7.996   6.119
  136POPC   C1B 2002   6.255   8.072   7.265
  136POPC   C2B 2003   6.033   8.204   6.863
  136POPC   C3B 2004   6.164   8.310   6.435
  136POPC   C4B 2005   6.589   8.460   6.452
  137POPC   NC3 2006   8.878   0.418   8.130
  137POPC   PO4 2007   9.414   9.977   8.024
  137POPC   GL1 2008   9.156   0.227   7.703
  137POPC   GL2 2009   8.794   0.350   7.638
  137POPC   C1A 2010   9.264   0.273   7.251
  137POPC   D2A 2011   9.072   0.452   6.874
  137POPC   C3A 2012   9.058   0.262   6.463
  137POPC   C4A 2013   9.217   0.135   6.023
  137POPC   C1B 2014   8.762   0.195   7.214
  137POPC   C2B 2015   8.565   0.428   6.880
  137POPC   C3B 2016   8.605   0.526   6.460
  137POPC   C4B 2017   8.734   0.454   6.028
  138POPC   NC3 2018   5.548   7.303   8.153
  138POPC   PO4 2019   6.099   7.209   8.373
  138POPC   GL1 2020   5.925   7.378   7.844
  138POPC   GL2 2021   6.036   7.714   7.768
  138POPC   C1A 2022   6.093   7.453   7.357
  138POPC   D2A 2023   5.984   7.704   6.987
  138POPC   C3A 2024   5.947   7.413   6.615
  138POPC   C4A 2025   6.185   7.183   6.272
  138POPC   C1B 2026   5.631   7.616   7.479
  138POPC   C2B 2027   5.508   7.534   7.013
  138POPC   C3B 2028   5.383   7.627   6.544
  138POPC   C4B 2029   5.446   7.446   6.101
  139POPC   NC3 2030   0.404   3.559   8.419
  139POPC   PO4 2031   0.989   3.674   8.103
  139POPC   GL1 2032   0.854   3.417   7.767
  139POPC   GL2 2033   0.615   3.628   7.626
  139POPC   C1A 2034   0.697   3.207   7.407
  139POPC   D2A 2035   0.532   3.488   7.087
  139POPC   C3A 2036   0.758   3.487   6.703
  139POPC   C4A 2037   0.664   3.575   6.297
  139POPC   C1B 2038   0.247   3.816   7.376
  139POPC   C2B 2039   0.287   3.990   6.977
  139POPC   C3B 2040   0.278   3.711   6.641
  139POPC   C4B 2041   0.185   3.416   6.302
  140POPC   NC3 2042   8.733   8.289   8.298
  140POPC   PO4 2043   9.253   7.758   8.234
  140POPC   GL1 2044   9.072   7.901   7.849
  140POPC   GL2 2045   9.085   8.251   7.911
  140POPC   C1A 2046   8.865   7.957   7.421
  140POPC   D2A 2047   8.913   7.854   6.975
  140POPC   C3A 2048   8.767   7.946   6.547
  140POPC   C4A 2049   8.855   7.937   6.097
  140POPC   C1B 2050   8.889   8.447   7.547
  140POPC   C2B 2051   8.873   8.367   7.091
  140POPC   C3B 2052   9.068   8.352   6.665
  140POPC   C4B 2053   8.893   8.421   6.251
  141POPC   NC3 2054   6.884   3.415   8.084
  141POPC   PO4 2055   6.221   3.141   8.148
  141POPC   GL1 2056   6.339   3.023   7.696
  141POPC   GL2 2057   6.548   3.315   7.679
  141POPC   C1A 2058   6.445   3.108   7.215
  141POPC   D2A 2059   6.805   3.237   6.879
  141POPC   C3A 2060   6.746   3.128   6.428
  141POPC   C4A 2061   6.445   2.832   6.232
  141POPC   C1B 2062   6.709   3.535   7.320
  141POPC   C2B 2063   6.826   3.746   6.941
  141POPC   C3B 2064   6.710   3.672   6.505
  141POPC   C4B 2065   6.676   3.533   6.065
  142POPC   NC3 2066   1.444   3.760   8.257
  142POPC   PO4 2067   1.508   3.086   8.183
  142POPC   GL1 2068   1.367   3.305   7.802
  142POPC   GL2 2069   1.352   3.656   7.730
  142POPC   C1A 2070   1.199   3.147   7.414
  142POPC   D2A 2071   1.008   3.151   6.999
  142POPC   C3A 2072   1.197   3.199   6.599
  142POPC   C4A 2073   0.985   3.173   6.228
  142POPC   C1B 2074   1.093   3.635   7.333
  142POPC   C2B 2075   1.253   3.628   6.893
  142POPC   C3B 2076   1.150   3.725   6.449
  142POPC   C4B 2077   0.923   4.009   6.186
  143POPC   NC3 2078   8.792   1.259   8.056
  143POPC   PO4 2079   8.468   0.686   8.081
  143POPC   GL1 2080   8.655   0.888   7.717
  143POPC   GL2 2081   8.999   0.825   7.764
  143POPC   C1A 2082   8.696   1.167   7.344
  143POPC   D2A 2083   8.746   1.513   7.055
  143POPC   C3A 2084   8.675   1.341   6.627
  143POPC   C4A 2085   8.703   1.285   6.148
  143POPC   C1B 2086   8.953   0.714   7.309
  143POPC   C2B 2087   8.803   0.897   6.900
  143POPC   C3B 2088   8.907   0.922   6.455
  143POPC   C4B 2089   9.224   1.119   6.233
  144POPC   NC3 2090   1.959   3.813   3.776
  144POPC   PO4 2091   1.990   3.086   3.867
  144POPC   GL1 2092   2.003   3.415   4.163
  144POPC   GL2 2093   1.668   3.580   4.192
  144POPC   C1A 2094   2.284   3.414   4.532
  144POPC   D2A 2095   2.410   3.528   4.971
  144POPC   C3A 2096   2.353   3.276   5.366
  144POPC   C4A 2097   2.250   3.350   5.828
  144POPC   C1B 2098   1.841   3.617   4.654
  144POPC   C2B 2099   1.932   3.375   5.034
  144POPC   C3B 2100   1.883   3.437   5.491
  144POPC   C4B 2101   1.806   3.677   5.891
  145POPC   NC3 2102   2.547   2.071   4.036
  145POPC   PO4 2103   2.537   1.479   3.737
  145POPC   GL1 2104   2.397   1.564   4.173
  145POPC   GL2 2105   2.709   1.710   4.345
  145POPC   C1A 2106   2.327   1.694   4.636
  145POPC   D2A 2107   2.705   1.591   4.906
  145POPC   C3A 2108   2.702   1.595   5.368
  145POPC   C4A 2109   2.342   1.616   5.671
  145POPC   C1B 2110   2.939   1.966   4.646
  145POPC   C2B 2111   3.090   1.919   5.076
  145POPC   C3B 2112   2.906   2.069   5.444
  145POPC   C4B 2113   2.693   1.966   5.815
  146POPC   NC3 2114   7.329   7.037   3.816
  146POPC   PO4 2115   7.678   6.618   4.032
  146POPC   GL1 2116   7.406   6.711   4.357
  146POPC   GL2 2117   7.101   6.914   4.262
  146POPC   C1A 2118   7.466   6.646   4.817
  146POPC   D2A 2119   7.579   6.912   5.173
  146POPC   C3A 2120   7.619   6.692   5.506
  146POPC   C4A 2121   7.406   6.679   5.909
  146POPC   C1B 2122   6.997   6.860   4.710
  146POPC   C2B 2123   7.082   6.789   5.177
  146POPC   C3B 2124   7.153   6.469   5.520
  146POPC   C4B 2125   7.149   6.147   5.865
  147POPC   NC3 2126   5.666   9.230   4.011
  147POPC   PO4 2127   5.386   8.638   3.933
  147POPC   GL1 2128   5.669   8.772   4.294
  147POPC   GL2 2129   5.982   8.873   4.399
  147POPC   C1A 2130   5.675   8.937   4.761
  147POPC   D2A 2131   5.888   8.962   5.143
  147POPC   C3A 2132   5.658   8.760   5.457
  147POPC   C4A 2133   5.470   8.897   5.857
  147POPC   C1B 2134   6.121   8.631   4.711
  147POPC   C2B 2135   6.282   8.665   5.079
  147POPC   C3B 2136   6.260   8.714   5.497
  147POPC   C4B 2137   5.995   8.848   5.833
  148POPC   NC3 2138   0.988   5.121   3.824
  148POPC   PO4 2139   1.577   5.378   4.006
  148POPC   GL1 2140   1.160   5.312   4.273
  148POPC   GL2 2141   1.200   4.968   4.306
  148POPC   C1A 2142   0.920   5.197   4.706
  148POPC   D2A 2143   0.930   4.991   5.121
  148POPC   C3A 2144   1.004   5.173   5.549
  148POPC   C4A 2145   0.851   5.372   5.978
  148POPC   C1B 2146   1.400   5.112   4.716
  148POPC   C2B 2147   1.429   5.054   5.172
  148POPC   C3B 2148   1.486   5.022   5.618
  148POPC   C4B 2149   1.738   5.226   5.884
  149POPC   NC3 2150   6.502   8.111   3.909
  149POPC   PO4 2151   6.133   8.618   4.017
  149POPC   GL1 2152   6.328   8.317   4.363
  149POPC   GL2 2153   6.438   7.942   4.393
  149POPC   C1A 2154   6.501   8.258   4.807
  149POPC   D2A 2155   6.303   8.188   5.225
  149POPC   C3A 2156   6.455   8.230   5.617
  149POPC   C4A 2157   6.346   8.476   5.960
  149POPC   C1B 2158   6.785   7.858   4.732
  149POPC   C2B 2159   6.793   8.012   5.154
  149POPC   C3B 2160   6.841   7.884   5.584
  149POPC   C4B 2161   6.874   8.173   5.925
  150POPC   NC3 2162   8.990   2.457   3.911
  150POPC   PO4 2163   8.923   3.105   3.890
  150POPC   GL1 2164   8.976   3.048   4.309
  150POPC   GL2 2165   9.017   2.689   4.363
  150POPC   C1A 2166   8.745   3.181   4.655
  150POPC   D2A 2167   8.491   3.008   4.984
  150POPC   C3A 2168   8.709   3.080   5.338
  150POPC   C4A 2169   8.564   3.089   5.726
  150POPC   C1B 2170   9.088   2.820   4.796
  150POPC   C2B 2171   8.929   2.636   5.180
  150POPC   C3B 2172   8.905   2.705   5.644
  150POPC   C4B 2173   8.981   2.544   6.027
  151POPC   NC3 2174   8.042   2.197   3.961
  151POPC   PO4 2175   8.674   2.161   4.108
  151POPC   GL1 2176   8.486   1.850   4.389
  151POPC   GL2 2177   8.130   1.917   4.379
  151POPC   C1A 2178   8.475   1.729   4.829
  151POPC   D2A 2179   8.580   1.758   5.275
  151POPC   C3A 2180   8.237   1.706   5.559
  151POPC   C4A 2181   8.221   1.703   5.978
  151POPC   C1B 2182   8.031   2.207   4.697
  151POPC   C2B 2183   8.141   2.038   5.089
  151POPC   C3B 2184   8.281   2.188   5.446
  151POPC   C4B 2185   8.081   2.155   5.801
  152POPC   NC3 2186   8.823   4.155   3.997
  152POPC   PO4 2187   9.011   4.787   3.845
  152POPC   GL1 2188   9.019   4.535   4.264
  152POPC   GL2 2189   9.088   4.186   4.404
  152POPC   C1A 2190   9.172   4.562   4.718
  152POPC   D2A 2191   9.315   4.570   5.153
  152POPC   C3A 2192   8.940   4.516   5.426
  152POPC   C4A 2193   8.652   4.444   5.799
  152POPC   C1B 2194   8.913   4.038   4.801
  152POPC   C2B 2195   8.807   4.030   5.239
  152POPC   C3B 2196   8.945   4.040   5.677
  152POPC   C4B 2197   9.087   3.878   6.084
  153POPC   NC3 2198   7.317   7.762   4.179
  153POPC   PO4 2199   7.633   7.330   3.656
  153POPC   GL1 2200   7.536   7.220   4.226
  153POPC   GL2 2201   7.614   7.546   4.528
  153POPC   C1A 2202   7.433   7.122   4.660
  153POPC   D2A 2203   7.500   7.382   5.013
  153POPC   C3A 2204   7.228   7.267   5.328
  153POPC   C4A 2205   7.472   7.139   5.681
  153POPC   C1B 2206   7.280   7.775   4.795
  153POPC   C2B 2207   7.250   7.808   5.211
  153POPC   C3B 2208   7.526   7.655   5.487
  153POPC   C4B 2209   7.206   7.560   5.747
  154POPC   NC3 2210   1.228   3.533   3.884
  154POPC   PO4 2211   0.628   3.706   3.813
  154POPC   GL1 2212   0.896   3.740   4.234
  154POPC   GL2 2213   1.179   3.512   4.373
  154POPC   C1A 2214   0.866   3.677   4.719
  154POPC   D2A 2215   0.995   3.423   5.096
  154POPC   C3A 2216   0.922   3.642   5.471
  154POPC   C4A 2217   0.981   3.594   5.909
  154POPC   C1B 2218   1.364   3.530   4.772
  154POPC   C2B 2219   1.485   3.563   5.197
  154POPC   C3B 2220   1.402   3.536   5.640
  154POPC   C4B 2221   1.428   3.418   6.124
  155POPC   NC3 2222   0.210   4.891   4.170
  155POPC   PO4 2223   0.801   4.630   3.844
  155POPC   GL1 2224   0.760   4.696   4.256
  155POPC   GL2 2225   0.684   5.009   4.317
  155POPC   C1A 2226   0.723   4.720   4.717
  155POPC   D2A 2227   0.420   4.917   5.033
  155POPC   C3A 2228   0.526   5.028   5.451
  155POPC   C4A 2229   0.339   4.854   5.822
  155POPC   C1B 2230   0.412   5.245   4.652
  155POPC   C2B 2231   0.106   5.346   5.011
  155POPC   C3B 2232   0.175   5.516   5.431
  155POPC   C4B 2233   0.365   5.377   5.813
  156POPC   NC3 2234   9.062   8.131   3.736
  156POPC   PO4 2235   8.599   7.772   3.863
  156POPC   GL1 2236   8.744   7.881   4.260
  156POPC   GL2 2237   9.088   7.863   4.228
  156POPC   C1A 2238   8.525   7.996   4.668
  156POPC   D2A 2239   8.410   8.302   5.022
  156POPC   C3A 2240   8.715   8.306   5.385
  156POPC   C4A 2241   8.560   8.336   5.805
  156POPC   C1B 2242   9.080   8.166   4.561
  156POPC   C2B 2243   9.318   8.319   4.920
  156POPC   C3B 2244   9.254   8.344   5.363
  156POPC   C4B 2245   9.071   8.280   5.776
  157POPC   NC3 2246   7.582   2.648   3.891
  157POPC   PO4 2247   7.007   2.270   3.881
  157POPC   GL1 2248   7.192   2.411   4.281
  157POPC   GL2 2249   7.249   2.739   4.262
  157POPC   C1A 2250   7.109   2.563   4.719
  157POPC   D2A 2251   7.002   2.467   5.132
  157POPC   C3A 2252   7.296   2.549   5.432
  157POPC   C4A 2253   7.234   2.756   5.834
  157POPC   C1B 2254   7.609   2.586   4.557
  157POPC   C2B 2255   7.637   2.444   4.985
  157POPC   C3B 2256   7.774   2.270   5.380
  157POPC   C4B 2257   7.630   2.394   5.776
  158POPC   NC3 2258   5.028   0.556   4.063
  158POPC   PO4 2259   5.175   9.947   3.940
  158POPC   GL1 2260   5.250   0.172   4.396
  158POPC   GL2 2261   5.309   0.557   4.506
  158POPC   C1A 2262   5.178   0.245   4.872
  158POPC   D2A 2263   5.344   0.512   5.232
  158POPC   C3A 2264   5.355   0.291   5.661
  158POPC   C4A 2265   5.502   0.305   6.118
  158POPC   C1B 2266   4.959   0.755   4.716
  158POPC   C2B 2267   4.832   0.617   5.098
  158POPC   C3B 2268   4.912   0.549   5.521
  158POPC   C4B 2269   4.610   0.624   5.799
  159POPC   NC3 2270   1.360   6.750   4.005
  159POPC   PO4 2271   0.887   6.247   3.896
  159POPC   GL1 2272   1.032   6.412   4.248
  159POPC   GL2 2273   1.366   6.332   4.401
  159POPC   C1A 2274   0.858   6.565   4.630
  159POPC   D2A 2275   0.966   6.845   4.982
  159POPC   C3A 2276   1.137   6.647   5.359
  159POPC   C4A 2277   0.941   6.768   5.751
  159POPC   C1B 2278   1.370   6.719   4.675
  159POPC   C2B 2279   1.484   6.943   5.073
  159POPC   C3B 2280   1.636   6.853   5.498
  159POPC   C4B 2281   1.433   6.522   5.772
  160POPC   NC3 2282   0.608   5.846   3.804
  160POPC   PO4 2283   0.508   5.152   3.868
  160POPC   GL1 2284   0.648   5.479   4.166
  160POPC   GL2 2285   0.372   5.669   4.240
  160POPC   C1A 2286   0.710   5.644   4.628
  160POPC   D2A 2287   0.632   5.421   5.079
  160POPC   C3A 2288   0.752   5.610   5.483
  160POPC   C4A 2289   0.643   5.847   5.880
  160POPC   C1B 2290   0.183   5.723   4.654
  160POPC   C2B 2291   0.345   5.834   5.048
  160POPC   C3B 2292   0.422   5.996   5.451
  160POPC   C4B 2293   0.147   5.908   5.815
  161POPC   NC3 2294   0.563   7.594   3.868
  161POPC   PO4 2295   0.075   7.088   3.841
  161POPC   GL1 2296   0.213   7.365   4.163
  161POPC   GL2 2297   0.515   7.162   4.213
  161POPC   C1A 2298   0.268   7.524   4.593
  161POPC   D2A 2299   0.168   7.714   5.023
  161POPC   C3A 2300   0.325   7.568   5.448
  161POPC   C4A 2301   0.559   7.602   5.861
  161POPC   C1B 2302   0.693   7.230   4.650
  161POPC   C2B 2303   0.668   7.500   5.036
  161POPC   C3B 2304   0.783   7.367   5.476
  161POPC   C4B 2305   0.521   7.085   5.738
  162POPC   NC3 2306   4.060   3.638   3.900
  162POPC   PO4 2307   4.264   4.140   4.035
  162POPC   GL1 2308   4.199   3.782   4.361
  162POPC   GL2 2309   4.337   3.420   4.305
  162POPC   C1A 2310   3.946   3.482   4.635
  162POPC   D2A 2311   3.985   3.281   5.058
  162POPC   C3A 2312   3.728   3.283   5.447
  162POPC   C4A 2313   3.440   3.339   5.828
  162POPC   C1B 2314   4.380   3.191   4.738
  162POPC   C2B 2315   4.366   2.963   5.148
  162POPC   C3B 2316   4.197   3.014   5.586
  162POPC   C4B 2317   4.407   2.989   6.011
  163POPC   NC3 2318   8.107   7.029   3.851
  163POPC   PO4 2319   7.745   7.619   4.063
  163POPC   GL1 2320   8.091   7.352   4.240
  163POPC   GL2 2321   8.422   7.490   4.289
  163POPC   C1A 2322   8.341   7.097   4.591
  163POPC   D2A 2323   8.412   7.015   5.046
  163POPC   C3A 2324   8.083   6.923   5.351
  163POPC   C4A 2325   7.971   7.103   5.736
  163POPC   C1B 2326   8.142   7.566   4.681
  163POPC   C2B 2327   8.039   7.356   5.063
  163POPC   C3B 2328   8.300   7.390   5.436
  163POPC   C4B 2329   8.011   7.624   5.638
  164POPC   NC3 2330   8.150   7.794   3.966
  164POPC   PO4 2331   7.529   8.136   3.937
  164POPC   GL1 2332   7.721   8.050   4.332
  164POPC   GL2 2333   8.008   8.225   4.223
  164POPC   C1A 2334   7.981   8.048   4.726
  164POPC   D2A 2335   7.993   7.871   5.153
  164POPC   C3A 2336   8.272   8.042   5.467
  164POPC   C4A 2337   8.444   7.841   5.822
  164POPC   C1B 2338   7.833   8.506   4.537
  164POPC   C2B 2339   7.912   8.511   4.993
  164POPC   C3B 2340   8.032   8.508   5.450
  164POPC   C4B 2341   8.061   8.410   5.932
  165POPC   NC3 2342   6.379   0.526   3.897
  165POPC   PO4 2343   6.078   1.048   4.079
  165POPC   GL1 2344   6.368   0.815   4.331
  165POPC   GL2 2345   6.654   0.566   4.328
  165POPC   C1A 2346   6.513   0.841   4.743
  165POPC   D2A 2347   6.418   0.583   5.072
  165POPC   C3A 2348   6.295   0.774   5.423
  165POPC   C4A 2349   6.264   0.630   5.814
  165POPC   C1B 2350   6.619   0.302   4.687
  165POPC   C2B 2351   6.628   0.092   5.095
  165POPC   C3B 2352   6.672   0.328   5.434
  165POPC   C4B 2353   6.534   0.200   5.779
  166POPC   NC3 2354   3.163   8.731   3.987
  166POPC   PO4 2355   3.794   8.963   4.015
  166POPC   GL1 2356   3.450   8.928   4.364
  166POPC   GL2 2357   3.376   9.251   4.532
  166POPC   C1A 2358   3.291   8.851   4.814
  166POPC   D2A 2359   3.407   9.185   5.108
  166POPC   C3A 2360   3.286   9.187   5.558
  166POPC   C4A 2361   3.327   9.313   5.982
  166POPC   C1B 2362   3.782   9.134   4.711
  166POPC   C2B 2363   3.821   8.894   5.072
  166POPC   C3B 2364   3.707   8.764   5.466
  166POPC   C4B 2365   3.737   9.053   5.789
  167POPC   NC3 2366   7.172   9.291   3.825
  167POPC   PO4 2367   6.966   9.918   3.912
  167POPC   GL1 2368   7.087   9.638   4.267
  167POPC   GL2 2369   7.448   9.525   4.184
  167POPC   C1A 2370   7.144   9.425   4.713
  167POPC   D2A 2371   7.328   9.310   5.127
  167POPC   C3A 2372   7.137   9.453   5.537
  167POPC   C4A 2373   7.173   9.603   5.996
  167POPC   C1B 2374   7.474   9.791   4.546
  167POPC   C2B 2375   7.556   9.812   4.985
  167POPC   C3B 2376   7.577   9.692   5.396
  167POPC   C4B 2377   7.386   9.952   5.694
  168POPC   NC3 2378   8.995   7.485   3.900
  168POPC   PO4 2379   8.557   7.088   3.953
  168POPC   GL1 2380   8.815   7.058   4.319
  168POPC   GL2 2381   8.930   7.383   4.376
  168POPC   C1A 2382   8.820   7.148   4.788
  168POPC   D2A 2383   8.800   7.365   5.203
  168POPC   C3A 2384   8.827   7.060   5.560
  168POPC   C4A 2385   9.063   7.145   5.960
  168POPC   C1B 2386   8.941   7.682   4.705
  168POPC   C2B 2387   8.944   7.981   5.046
  168POPC   C3B 2388   8.995   7.866   5.480
  168POPC   C4B 2389   8.837   7.541   5.735
  169POPC   NC3 2390   3.907   8.066   4.051
  169POPC   PO4 2391   3.247   7.856   3.854
  169POPC   GL1 2392   3.425   8.096   4.238
  169POPC   GL2 2393   3.613   8.452   4.225
  169POPC   C1A 2394   3.400   8.199   4.685
  169POPC   D2A 2395   3.223   8.185   5.103
  169POPC   C3A 2396   3.446   8.080   5.472
  169POPC   C4A 2397   3.381   7.946   5.894
  169POPC   C1B 2398   3.712   8.596   4.656
  169POPC   C2B 2399   3.787   8.381   5.060
  169POPC   C3B 2400   3.919   8.272   5.485
  169POPC   C4B 2401   3.745   8.423   5.865
  170POPC   NC3 2402   7.263   0.932   3.927
  170POPC   PO4 2403   7.388   1.571   3.905
  170POPC   GL1 2404   7.359   1.248   4.294
  170POPC   GL2 2405   7.681   1.218   4.420
  170POPC   C1A 2406   7.404   1.032   4.779
  170POPC   D2A 2407   7.487   1.223   5.226
  170POPC   C3A 2408   7.301   0.952   5.567
  170POPC   C4A 2409   6.898   0.746   5.622
  170POPC   C1B 2410   7.349   1.525   4.696
  170POPC   C2B 2411   7.100   1.544   5.064
  170POPC   C3B 2412   7.214   1.622   5.466
  170POPC   C4B 2413   7.370   1.404   5.793
  171POPC   NC3 2414   2.274   6.257   3.919
  171POPC   PO4 2415   1.626   6.377   3.982
  171POPC   GL1 2416   1.916   6.154   4.300
  171POPC   GL2 2417   1.886   5.778   4.306
  171POPC   C1A 2418   2.121   6.050   4.730
  171POPC   D2A 2419   1.948   6.000   5.190
  171POPC   C3A 2420   2.097   5.954   5.654
  171POPC   C4A 2421   2.211   6.006   6.169
  171POPC   C1B 2422   1.635   5.920   4.693
  171POPC   C2B 2423   1.413   5.970   5.096
  171POPC   C3B 2424   1.540   6.032   5.546
  171POPC   C4B 2425   1.657   5.758   5.896
  172POPC   NC3 2426   0.794   4.140   3.861
  172POPC   PO4 2427   1.461   3.881   3.700
  172POPC   GL1 2428   1.328   4.004   4.128
  172POPC   GL2 2429   1.188   4.356   4.119
  172POPC   C1A 2430   1.262   4.009   4.600
  172POPC   D2A 2431   1.142   3.918   5.077
  172POPC   C3A 2432   1.062   4.143   5.462
  172POPC   C4A 2433   0.686   4.032   5.726
  172POPC   C1B 2434   1.175   4.518   4.547
  172POPC   C2B 2435   1.211   4.562   4.993
  172POPC   C3B 2436   1.193   4.642   5.441
  172POPC   C4B 2437   1.509   4.465   5.732
  173POPC   NC3 2438   2.143   7.342   3.812
  173POPC   PO4 2439   2.425   6.678   3.803
  173POPC   GL1 2440   2.203   6.626   4.272
  173POPC   GL2 2441   1.804   6.661   4.367
  173POPC   C1A 2442   2.112   6.811   4.720
  173POPC   D2A 2443   1.985   7.029   5.114
  173POPC   C3A 2444   2.299   7.102   5.426
  173POPC   C4A 2445   2.301   6.780   5.732
  173POPC   C1B 2446   1.772   6.418   4.746
  173POPC   C2B 2447   1.667   6.442   5.179
  173POPC   C3B 2448   1.910   6.428   5.559
  173POPC   C4B 2449   1.821   6.245   5.945
  174POPC   NC3 2450   7.141   4.595   3.978
  174POPC   PO4 2451   7.516   4.050   3.960
  174POPC   GL1 2452   7.523   4.164   4.379
  174POPC   GL2 2453   7.704   3.934   4.502
  174POPC   C1A 2454   7.462   4.243   4.851
  174POPC   D2A 2455   7.440   4.039   5.267
  174POPC   C3A 2456   7.057   3.839   5.445
  174POPC   C4A 2457   7.152   3.843   5.936
  174POPC   C1B 2458   7.944   4.279   4.690
  174POPC   C2B 2459   7.916   4.349   5.141
  174POPC   C3B 2460   7.628   4.464   5.474
  174POPC   C4B 2461   7.520   4.176   5.783
  175POPC   NC3 2462   4.152   7.360   4.166
  175POPC   PO4 2463   3.947   6.802   4.182
  175POPC   GL1 2464   3.942   7.041   4.591
  175POPC   GL2 2465   3.907   7.414   4.626
  175POPC   C1A 2466   4.039   7.047   5.039
  175POPC   D2A 2467   4.341   6.934   5.361
  175POPC   C3A 2468   4.359   7.195   5.738
  175POPC   C4A 2469   4.345   7.074   6.191
  175POPC   C1B 2470   4.104   7.558   4.951
  175POPC   C2B 2471   4.305   7.479   5.322
  175POPC   C3B 2472   4.354   7.690   5.717
  175POPC   C4B 2473   4.231   7.577   6.148
  176POPC   NC3 2474   8.664   4.925   4.120
  176POPC   PO4 2475   8.247   5.372   3.725
  176POPC   GL1 2476   8.220   5.181   4.142
  176POPC   GL2 2477   8.118   4.823   4.052
  176POPC   C1A 2478   8.347   5.209   4.610
  176POPC   D2A 2479   8.151   5.221   5.025
  176POPC   C3A 2480   8.297   5.279   5.452
  176POPC   C4A 2481   8.455   5.383   5.861
  176POPC   C1B 2482   8.154   4.732   4.501
  176POPC   C2B 2483   8.222   4.700   4.924
  176POPC   C3B 2484   8.053   4.813   5.339
  176POPC   C4B 2485   8.145   4.885   5.794
  177POPC   NC3 2486   0.331   4.755   3.708
  177POPC   PO4 2487   0.276   4.123   3.993
  177POPC   GL1 2488   0.414   4.322   4.400
  177POPC   GL2 2489   0.757   4.204   4.384
  177POPC   C1A 2490   0.369   4.402   4.895
  177POPC   D2A 2491   0.724   4.534   5.186
  177POPC   C3A 2492   0.691   4.542   5.580
  177POPC   C4A 2493   0.536   4.434   5.992
  177POPC   C1B 2494   0.830   4.202   4.808
  177POPC   C2B 2495   0.633   4.046   5.195
  177POPC   C3B 2496   0.298   4.274   5.447
  177POPC   C4B 2497   0.112   4.146   5.861
  178POPC   NC3 2498   8.677   9.776   4.083
  178POPC   PO4 2499   9.274   9.452   3.863
  178POPC   GL1 2500   9.105   9.605   4.263
  178POPC   GL2 2501   9.123   9.967   4.332
  178POPC   C1A 2502   8.993   9.554   4.683
  178POPC   D2A 2503   9.149   9.377   5.050
  178POPC   C3A 2504   8.966   9.494   5.466
  178POPC   C4A 2505   9.031   9.213   5.821
  178POPC   C1B 2506   8.868   0.043   4.734
  178POPC   C2B 2507   8.959   9.954   5.205
  178POPC   C3B 2508   8.893   9.970   5.692
  178POPC   C4B 2509   8.730   9.979   6.179
  179POPC   NC3 2510   3.500   7.471   3.692
  179POPC   PO4 2511   4.073   7.692   3.813
  179POPC   GL1 2512   3.680   7.614   4.147
  179POPC   GL2 2513   3.641   7.272   4.239
  179POPC   C1A 2514   3.474   7.688   4.585
  179POPC   D2A 2515   3.197   7.656   4.991
  179POPC   C3A 2516   3.371   7.575   5.434
  179POPC   C4A 2517   3.422   7.388   5.838
  179POPC   C1B 2518   3.442   7.185   4.647
  179POPC   C2B 2519   3.623   7.343   5.061
  179POPC   C3B 2520   3.852   7.253   5.488
  179POPC   C4B 2521   3.905   7.245   5.951
  180POPC   NC3 2522   9.961   2.688   3.856
  180POPC   PO4 2523   0.103   3.271   4.242
  180POPC   GL1 2524   9.762   3.074   4.344
  180POPC   GL2 2525   9.484   2.868   4.293
  180POPC   C1A 2526   9.685   2.948   4.746
  180POPC   D2A 2527   9.618   3.124   5.093
  180POPC   C3A 2528   9.812   2.895   5.423
  180POPC   C4A 2529   9.617   3.096   5.782
  180POPC   C1B 2530   9.461   2.509   4.638
  180POPC   C2B 2531   9.460   2.569   5.077
  180POPC   C3B 2532   9.321   2.849   5.413
  180POPC   C4B 2533   9.421   2.603   5.783
  181POPC   NC3 2534   0.993   1.247   4.015
  181POPC   PO4 2535   0.857   0.698   3.646
  181POPC   GL1 2536   1.176   0.790   4.117
  181POPC   GL2 2537   1.441   0.980   4.278
  181POPC   C1A 2538   1.063   0.950   4.602
  181POPC   D2A 2539   1.024   1.279   4.930
  181POPC   C3A 2540   1.149   1.162   5.365
  181POPC   C4A 2541   1.165   1.073   5.826
  181POPC   C1B 2542   1.504   1.248   4.702
  181POPC   C2B 2543   1.530   1.459   5.149
  181POPC   C3B 2544   1.578   1.332   5.606
  181POPC   C4B 2545   1.535   1.334   6.072
  182POPC   NC3 2546   2.175   1.681   3.513
  182POPC   PO4 2547   1.905   1.769   4.103
  182POPC   GL1 2548   1.881   1.974   4.458
  182POPC   GL2 2549   1.831   2.270   4.253
  182POPC   C1A 2550   1.886   1.796   4.890
  182POPC   D2A 2551   2.276   1.789   5.146
  182POPC   C3A 2552   2.363   2.091   5.440
  182POPC   C4A 2553   2.108   2.080   5.811
  182POPC   C1B 2554   1.895   2.458   4.665
  182POPC   C2B 2555   2.026   2.272   5.080
  182POPC   C3B 2556   1.835   1.972   5.389
  182POPC   C4B 2557   1.593   2.121   5.755
  183POPC   NC3 2558   7.748   1.255   3.916
  183POPC   PO4 2559   8.363   1.561   3.683
  183POPC   GL1 2560   8.165   1.463   4.150
  183POPC   GL2 2561   8.421   1.331   4.359
  183POPC   C1A 2562   8.056   1.461   4.663
  183POPC   D2A 2563   8.163   1.438   5.142
  183POPC   C3A 2564   7.896   1.329   5.582
  183POPC   C4A 2565   7.791   1.478   6.063
  183POPC   C1B 2566   8.501   1.173   4.807
  183POPC   C2B 2567   8.479   1.045   5.256
  183POPC   C3B 2568   8.420   1.165   5.715
  183POPC   C4B 2569   8.410   0.864   6.099
  184POPC   NC3 2570   8.254   8.987   3.894
  184POPC   PO4 2571   7.590   9.089   3.827
  184POPC   GL1 2572   7.876   9.225   4.143
  184POPC   GL2 2573   7.964   8.922   4.292
  184POPC   C1A 2574   8.025   9.334   4.588
  184POPC   D2A 2575   7.827   9.373   4.992
  184POPC   C3A 2576   8.010   9.277   5.395
  184POPC   C4A 2577   7.842   8.972   5.703
  184POPC   C1B 2578   8.199   8.846   4.661
  184POPC   C2B 2579   8.240   8.915   5.087
  184POPC   C3B 2580   8.475   8.745   5.414
  184POPC   C4B 2581   8.319   8.806   5.786
  185POPC   NC3 2582   8.136   9.529   3.706
  185POPC   PO4 2583   8.367   0.149   3.939
  185POPC   GL1 2584   8.228   9.864   4.265
  185POPC   GL2 2585   7.928   9.722   4.224
  185POPC   C1A 2586   8.441   9.696   4.674
  185POPC   D2A 2587   8.630   9.602   5.059
  185POPC   C3A 2588   8.502   9.763   5.439
  185POPC   C4A 2589   8.548   9.636   5.872
  185POPC   C1B 2590   7.963   9.840   4.693
  185POPC   C2B 2591   8.068   9.783   5.156
  185POPC   C3B 2592   8.018   9.814   5.619
  185POPC   C4B 2593   7.844   0.136   5.891
  186POPC   NC3 2594   5.010   2.163   3.933
  186POPC   PO4 2595   5.165   1.455   4.051
  186POPC   GL1 2596   5.131   1.739   4.402
  186POPC   GL2 2597   5.208   2.090   4.392
  186POPC   C1A 2598   4.999   1.808   4.841
  186POPC   D2A 2599   5.216   1.864   5.258
  186POPC   C3A 2600   4.944   1.968   5.633
  186POPC   C4A 2601   4.753   1.946   6.072
  186POPC   C1B 2602   5.006   2.311   4.757
  186POPC   C2B 2603   4.892   2.310   5.199
  186POPC   C3B 2604   5.063   2.471   5.593
  186POPC   C4B 2605   5.127   2.281   5.990
  187POPC   NC3 2606   3.410   2.881   3.836
  187POPC   PO4 2607   4.054   3.170   3.947
  187POPC   GL1 2608   3.861   3.075   4.322
  187POPC   GL2 2609   3.707   2.754   4.324
  187POPC   C1A 2610   3.640   3.058   4.737
  187POPC   D2A 2611   3.316   2.875   5.007
  187POPC   C3A 2612   3.356   2.933   5.435
  187POPC   C4A 2613   3.143   2.895   5.811
  187POPC   C1B 2614   3.602   2.528   4.743
  187POPC   C2B 2615   3.507   2.438   5.223
  187POPC   C3B 2616   3.450   2.475   5.703
  187POPC   C4B 2617   3.688   2.480   6.125
  188POPC   NC3 2618   2.839   8.059   3.738
  188POPC   PO4 2619   2.218   7.835   3.858
  188POPC   GL1 2620   2.490   8.010   4.232
  188POPC   GL2 2621   2.864   7.985   4.241
  188POPC   C1A 2622   2.402   8.127   4.684
  188POPC   D2A 2623   2.192   8.029   5.085
  188POPC   C3A 2624   2.432   8.109   5.462
  188POPC   C4A 2625   2.477   8.438   5.781
  188POPC   C1B 2626   2.893   8.272   4.593
  188POPC   C2B 2627   2.860   8.527   4.966
  188POPC   C3B 2628   2.842   8.398   5.404
  188POPC   C4B 2629   2.908   8.176   5.809
  189POPC   NC3 2630   9.371   5.098   3.900
  189POPC   PO4 2631   9.984   5.290   4.174
  189POPC   GL1 2632   9.622   5.049   4.353
  189POPC   GL2 2633   9.503   4.725   4.247
  189POPC   C1A 2634   9.446   4.989   4.773
  189POPC   D2A 2635   9.606   5.106   5.140
  189POPC   C3A 2636   9.479   4.904   5.537
  189POPC   C4A 2637   9.402   5.129   5.939
  189POPC   C1B 2638   9.753   4.630   4.656
  189POPC   C2B 2639   9.944   4.702   5.084
  189POPC   C3B 2640   0.015   4.996   5.431
  189POPC   C4B 2641   9.873   5.003   5.858
  190POPC   NC3 2642   8.729   1.272   3.723
  190POPC   PO4 2643   9.330   1.434   3.905
  190POPC   GL1 2644   8.929   1.338   4.186
  190POPC   GL2 2645   8.735   0.988   4.175
  190POPC   C1A 2646   8.862   1.474   4.605
  190POPC   D2A 2647   9.007   1.543   5.035
  190POPC   C3A 2648   8.874   1.344   5.415
  190POPC   C4A 2649   9.124   1.368   5.796
  190POPC   C1B 2650   8.928   0.951   4.550
  190POPC   C2B 2651   9.024   1.013   4.984
  190POPC   C3B 2652   8.948   0.850   5.399
  190POPC   C4B 2653   8.867   0.915   5.849
  191POPC   NC3 2654   0.784   2.686   4.175
  191POPC   PO4 2655   1.396   2.413   3.992
  191POPC   GL1 2656   1.281   2.854   4.206
  191POPC   GL2 2657   1.461   3.121   4.063
  191POPC   C1A 2658   1.111   3.069   4.633
  191POPC   D2A 2659   0.929   2.925   5.052
  191POPC   C3A 2660   1.178   2.698   5.356
  191POPC   C4A 2661   1.515   2.671   5.669
  191POPC   C1B 2662   1.612   3.168   4.491
  191POPC   C2B 2663   1.546   3.060   4.939
  191POPC   C3B 2664   1.511   3.095   5.392
  191POPC   C4B 2665   1.216   3.081   5.771
  192POPC   NC3 2666   1.904   9.755   3.779
  192POPC   PO4 2667   1.333   9.678   4.086
  192POPC   GL1 2668   1.773   9.635   4.242
  192POPC   GL2 2669   2.104   9.795   4.254
  192POPC   C1A 2670   1.836   9.483   4.637
  192POPC   D2A 2671   1.772   9.358   5.050
  192POPC   C3A 2672   1.893   9.530   5.480
  192POPC   C4A 2673   1.673   9.373   5.859
  192POPC   C1B 2674   2.249   9.753   4.674
  192POPC   C2B 2675   2.386   9.961   4.994
  192POPC   C3B 2676   2.231   0.140   5.352
  192POPC   C4B 2677   2.121   9.968   5.729
  193POPC   NC3 2678   7.919   6.233   4.045
  193POPC   PO4 2679   8.327   6.617   3.755
  193POPC   GL1 2680   8.266   6.712   4.230
  193POPC   GL2 2681   7.941   6.888   4.356
  193POPC   C1A 2682   8.279   6.586   4.699
  193POPC   D2A 2683   8.466   6.537   5.162
  193POPC   C3A 2684   8.451   6.683   5.634
  193POPC   C4A 2685   8.351   6.414   6.005
  193POPC   C1B 2686   7.913   6.916   4.804
  193POPC   C2B 2687   7.929   6.529   5.084
  193POPC   C3B 2688   8.057   6.402   5.510
  193POPC   C4B 2689   7.907   6.608   5.906
  194POPC   NC3 2690   7.800   5.355   3.857
  194POPC   PO4 2691   7.556   4.763   3.953
  194POPC   GL1 2692   7.669   4.660   4.376
  194POPC   GL2 2693   7.338   4.638   4.469
  194POPC   C1A 2694   7.704   4.717   4.843
  194POPC   D2A 2695   7.484   4.864   5.215
  194POPC   C3A 2696   7.685   5.029   5.615
  194POPC   C4A 2697   7.941   5.404   5.815
  194POPC   C1B 2698   7.147   4.669   4.870
  194POPC   C2B 2699   7.158   4.431   5.246
  194POPC   C3B 2700   7.059   4.278   5.644
  194POPC   C4B 2701   6.703   3.974   5.787
  195POPC   NC3 2702   3.532   1.902   4.002
  195POPC   PO4 2703   3.702   2.507   3.866
  195POPC   GL1 2704   3.751   2.247   4.296
  195POPC   GL2 2705   3.373   2.279   4.326
  195POPC   C1A 2706   3.895   1.848   4.587
  195POPC   D2A 2707   4.062   1.711   5.020
  195POPC   C3A 2708   3.838   1.639   5.482
  195POPC   C4A 2709   3.653   1.694   5.942
  195POPC   C1B 2710   3.444   2.032   4.701
  195POPC   C2B 2711   3.611   1.956   5.102
  195POPC   C3B 2712   3.449   1.992   5.521
  195POPC   C4B 2713   3.158   1.737   5.739
  196POPC   NC3 2714   4.713   1.402   3.999
  196POPC   PO4 2715   4.005   1.556   3.926
  196POPC   GL1 2716   3.918   1.383   4.338
  196POPC   GL2 2717   4.212   1.182   4.294
  196POPC   C1A 2718   4.035   1.252   4.776
  196POPC   D2A 2719   4.049   1.193   5.232
  196POPC   C3A 2720   4.329   1.507   5.400
  196POPC   C4A 2721   4.607   1.574   5.726
  196POPC   C1B 2722   4.504   1.023   4.622
  196POPC   C2B 2723   4.563   1.064   5.071
  196POPC   C3B 2724   4.500   1.043   5.509
  196POPC   C4B 2725   4.144   1.212   5.766
  197POPC   NC3 2726   7.406   7.729   3.714
  197POPC   PO4 2727   6.894   7.973   4.093
  197POPC   GL1 2728   7.103   8.149   4.430
  197POPC   GL2 2729   7.342   8.420   4.365
  197POPC   C1A 2730   7.021   8.359   4.796
  197POPC   D2A 2731   7.241   8.563   5.120
  197POPC   C3A 2732   7.125   8.297   5.436
  197POPC   C4A 2733   7.307   8.054   5.714
  197POPC   C1B 2734   7.502   8.228   4.787
  197POPC   C2B 2735   7.597   8.180   5.237
  197POPC   C3B 2736   7.788   8.098   5.642
  197POPC   C4B 2737   7.621   8.206   6.092
  198POPC   NC3 2738   8.923   3.482   3.630
  198POPC   PO4 2739   9.341   3.861   4.025
  198POPC   GL1 2740   9.144   3.675   4.341
  198POPC   GL2 2741   8.867   3.548   4.152
  198POPC   C1A 2742   9.103   3.549   4.759
  198POPC   D2A 2743   9.116   3.255   5.091
  198POPC   C3A 2744   9.073   3.425   5.517
  198POPC   C4A 2745   9.170   3.373   5.958
  198POPC   C1B 2746   8.655   3.688   4.513
  198POPC   C2B 2747   8.623   3.599   4.950
  198POPC   C3B 2748   8.587   3.565   5.384
  198POPC   C4B 2749   8.689   3.630   5.823
  199POPC   NC3 2750   1.766   9.086   3.826
  199POPC   PO4 2751   2.326   9.469   3.919
  199POPC   GL1 2752   2.138   9.264   4.270
  199POPC   GL2 2753   2.143   8.893   4.272
  199POPC   C1A 2754   2.271   9.210   4.697
  199POPC   D2A 2755   2.130   8.933   5.028
  199POPC   C3A 2756   1.935   9.024   5.400
  199POPC   C4A 2757   2.112   9.057   5.784
  199POPC   C1B 2758   1.828   8.945   4.618
  199POPC   C2B 2759   1.591   8.831   5.016
  199POPC   C3B 2760   1.518   8.711   5.463
  199POPC   C4B 2761   1.657   8.859   5.848
  200POPC   NC3 2762   7.928   0.400   4.111
  200POPC   PO4 2763   7.674   0.839   3.732
  200POPC   GL1 2764   8.050   0.895   4.107
  200POPC   GL2 2765   8.346   0.634   4.256
  200POPC   C1A 2766   8.095   0.949   4.569
  200POPC   D2A 2767   7.913   1.019   4.990
  200POPC   C3A 2768   7.970   0.692   5.336
  200POPC   C4A 2769   8.020   0.601   5.784
  200POPC   C1B 2770   8.308   0.238   4.596
  200POPC   C2B 2771   8.429   0.122   5.012
  200POPC   C3B 2772   8.227   0.226   5.401
  200POPC   C4B 2773   8.400   0.145   5.789
  201POPC   NC3 2774   8.930   9.255   3.615
  201POPC   PO4 2775   8.404   9.401   4.056
  201POPC   GL1 2776   8.688   9.296   4.340
  201POPC   GL2 2777   8.968   9.129   4.148
  201POPC   C1A 2778   8.599   9.183   4.769
  201POPC   D2A 2779   8.736   9.117   5.200
  201POPC   C3A 2780   8.528   9.226   5.590
  201POPC   C4A 2781   8.537   9.164   6.073
  201POPC   C1B 2782   9.093   9.053   4.607
  201POPC   C2B 2783   9.089   8.802   5.013
  201POPC   C3B 2784   9.073   8.816   5.476
  201POPC   C4B 2785   8.821   8.755   5.834
  202POPC   NC3 2786   7.365   3.621   3.964
  202POPC   PO4 2787   7.612   3.082   3.732
  202POPC   GL1 2788   7.478   3.181   4.202
  202POPC   GL2 2789   7.391   3.473   4.428
  202POPC   C1A 2790   7.360   3.028   4.659
  202POPC   D2A 2791   7.354   3.029   5.108
  202POPC   C3A 2792   7.701   3.274   5.341
  202POPC   C4A 2793   7.510   3.169   5.709
  202POPC   C1B 2794   7.314   3.739   4.773
  202POPC   C2B 2795   7.355   3.559   5.148
  202POPC   C3B 2796   7.486   3.653   5.591
  202POPC   C4B 2797   7.737   3.741   5.898
  203POPC   NC3 2798   5.582   0.050   3.523
  203POPC   PO4 2799   5.496   0.512   4.061
  203POPC   GL1 2800   5.875   0.595   4.304
  203POPC   GL2 2801   5.854   0.901   4.504
  203POPC   C1A 2802   6.135   0.485   4.655
  203POPC   D2A 2803   6.154   0.134   4.948
  203POPC   C3A 2804   6.176   0.222   5.402
  203POPC   C4A 2805   6.007   0.185   5.820
  203POPC   C1B 2806   5.689   0.670   4.825
  203POPC   C2B 2807   5.887   0.540   5.150
  203POPC   C3B 2808   5.776   0.561   5.564
  203POPC   C4B 2809   5.397   0.816   5.667
  204POPC   NC3 2810   4.422   7.952   3.700
  204POPC   PO4 2811   4.124   7.776   4.329
  204POPC   GL1 2812   3.865   8.006   4.580
  204POPC   GL2 2813   4.066   8.282   4.480
  204POPC   C1A 2814   3.671   7.890   5.003
  204POPC   D2A 2815   3.860   7.741   5.349
  204POPC   C3A 2816   3.818   7.736   5.744
  204POPC   C4A 2817   4.061   8.025   5.937
  204POPC   C1B 2818   4.501   8.290   4.648
  204POPC   C2B 2819   4.547   8.326   5.097
  204POPC   C3B 2820   4.431   8.183   5.521
  204POPC   C4B 2821   4.462   8.393   5.897
  205POPC   NC3 2822   5.749   8.334   3.977
  205POPC   PO4 2823   6.145   7.795   3.945
  205POPC   GL1 2824   5.921   7.958   4.344
  205POPC   GL2 2825   5.801   8.315   4.460
  205POPC   C1A 2826   6.049   8.092   4.793
  205POPC   D2A 2827   5.846   8.404   5.086
  205POPC   C3A 2828   5.917   8.318   5.544
  205POPC   C4A 2829   5.999   8.093   5.937
  205POPC   C1B 2830   5.548   8.058   4.774
  205POPC   C2B 2831   5.433   8.156   5.227
  205POPC   C3B 2832   5.496   8.034   5.665
  205POPC   C4B 2833   5.528   7.950   6.116
  206POPC   NC3 2834   9.617   9.197   4.023
  206POPC   PO4 2835   0.008   8.696   3.900
  206POPC   GL1 2836   9.988   8.974   4.267
  206POPC   GL2 2837   9.691   8.828   4.381
  206POPC   C1A 2838   9.989   9.115   4.699
  206POPC   D2A 2839   0.203   9.212   5.078
  206POPC   C3A 2840   0.040   9.340   5.473
  206POPC   C4A 2841   9.782   9.261   5.834
  206POPC   C1B 2842   9.555   8.858   4.806
  206POPC   C2B 2843   9.551   8.818   5.252
  206POPC   C3B 2844   9.573   8.806   5.701
  206POPC   C4B 2845   9.303   8.653   6.036
  207POPC   NC3 2846   2.872   1.347   4.035
  207POPC   PO4 2847   2.311   0.977   3.933
  207POPC   GL1 2848   2.657   0.957   4.287
  207POPC   GL2 2849   2.797   1.239   4.514
  207POPC   C1A 2850   2.601   0.853   4.769
  207POPC   D2A 2851   2.709   1.117   5.093
  207POPC   C3A 2852   2.473   1.131   5.446
  207POPC   C4A 2853   2.511   0.992   5.851
  207POPC   C1B 2854   3.132   1.236   4.816
  207POPC   C2B 2855   3.193   1.081   5.225
  207POPC   C3B 2856   2.982   1.153   5.614
  207POPC   C4B 2857   2.781   1.422   5.849
  208POPC   NC3 2858   6.389   9.026   4.138
  208POPC   PO4 2859   6.924   8.907   3.737
  208POPC   GL1 2860   6.812   8.791   4.278
  208POPC   GL2 2861   6.722   9.135   4.544
  208POPC   C1A 2862   6.668   8.713   4.756
  208POPC   D2A 2863   6.730   8.509   5.199
  208POPC   C3A 2864   6.769   8.639   5.619
  208POPC   C4A 2865   6.809   8.657   6.061
  208POPC   C1B 2866   6.341   9.120   4.801
  208POPC   C2B 2867   6.401   9.140   5.216
  208POPC   C3B 2868   6.662   9.144   5.527
  208POPC   C4B 2869   6.498   8.995   5.872
  209POPC   NC3 2870   2.973   5.821   4.053
  209POPC   PO4 2871   2.322   5.767   3.928
  209POPC   GL1 2872   2.396   5.913   4.302
  209POPC   GL2 2873   2.646   6.154   4.294
  209POPC   C1A 2874   2.594   5.840   4.689
  209POPC   D2A 2875   2.529   6.074   5.050
  209POPC   C3A 2876   2.574   5.855   5.426
  209POPC   C4A 2877   2.512   5.773   5.841
  209POPC   C1B 2878   2.902   6.247   4.736
  209POPC   C2B 2879   3.021   6.069   5.179
  209POPC   C3B 2880   2.989   6.059   5.664
  209POPC   C4B 2881   3.287   6.066   6.028
  210POPC   NC3 2882   1.222   7.483   3.880
  210POPC   PO4 2883   0.919   6.900   3.979
  210POPC   GL1 2884   1.053   7.192   4.273
  210POPC   GL2 2885   0.874   7.528   4.275
  210POPC   C1A 2886   1.215   7.206   4.689
  210POPC   D2A 2887   1.137   7.319   5.123
  210POPC   C3A 2888   1.228   7.133   5.536
  210POPC   C4A 2889   1.366   6.994   5.973
  210POPC   C1B 2890   0.996   7.680   4.679
  210POPC   C2B 2891   1.193   7.822   5.069
  210POPC   C3B 2892   1.248   7.683   5.483
  210POPC   C4B 2893   1.422   7.485   5.854
  211POPC   NC3 2894   2.096   7.659   4.275
  211POPC   PO4 2895   1.660   7.317   3.881
  211POPC   GL1 2896   1.826   7.192   4.266
  211POPC   GL2 2897   2.159   7.134   4.318
  211POPC   C1A 2898   1.743   7.166   4.675
  211POPC   D2A 2899   1.577   7.474   4.937
  211POPC   C3A 2900   1.655   7.380   5.364
  211POPC   C4A 2901   1.900   7.281   5.720
  211POPC   C1B 2902   2.274   7.288   4.754
  211POPC   C2B 2903   2.067   7.536   5.044
  211POPC   C3B 2904   2.151   7.647   5.450
  211POPC   C4B 2905   2.463   7.687   5.754
  212POPC   NC3 2906   9.493   1.871   3.913
  212POPC   PO4 2907   9.595   2.465   4.032
  212POPC   GL1 2908   9.693   2.129   4.355
  212POPC   GL2 2909   9.871   1.805   4.278
  212POPC   C1A 2910   9.691   2.064   4.816
  212POPC   D2A 2911   9.816   2.095   5.250
  212POPC   C3A 2912   9.489   2.134   5.562
  212POPC   C4A 2913   9.307   2.009   5.964
  212POPC   C1B 2914   9.714   1.578   4.659
  212POPC   C2B 2915   9.521   1.657   5.104
  212POPC   C3B 2916   9.563   1.618   5.547
  212POPC   C4B 2917   9.805   1.794   5.869
  213POPC   NC3 2918   2.040   5.377   3.972
  213POPC   PO4 2919   2.398   4.812   4.069
  213POPC   GL1 2920   2.089   5.025   4.361
  213POPC   GL2 2921   1.729   4.960   4.342
  213POPC   C1A 2922   1.858   5.362   4.641
  213POPC   D2A 2923   1.646   5.513   5.033
  213POPC   C3A 2924   1.852   5.536   5.455
  213POPC   C4A 2925   2.201   5.383   5.730
  213POPC   C1B 2926   1.797   4.839   4.818
  213POPC   C2B 2927   1.709   4.631   5.250
  213POPC   C3B 2928   1.933   4.766   5.651
  213POPC   C4B 2929   2.248   4.542   5.890
  214POPC   NC3 2930   1.324   8.459   4.069
  214POPC   PO4 2931   0.931   7.899   3.928
  214POPC   GL1 2932   1.052   8.085   4.330
  214POPC   GL2 2933   1.436   8.076   4.386
  214POPC   C1A 2934   0.975   8.181   4.786
  214POPC   D2A 2935   0.715   8.006   5.163
  214POPC   C3A 2936   0.863   8.046   5.576
  214POPC   C4A 2937   1.127   7.902   5.929
  214POPC   C1B 2938   1.442   8.391   4.734
  214POPC   C2B 2939   1.298   8.344   5.152
  214POPC   C3B 2940   1.379   8.202   5.560
  214POPC   C4B 2941   1.656   8.337   5.885
  215POPC   NC3 2942   5.123   8.648   3.548
  215POPC   PO4 2943   4.792   9.026   4.008
  215POPC   GL1 2944   4.886   8.895   4.391
  215POPC   GL2 2945   5.186   8.828   4.386
  215POPC   C1A 2946   4.854   8.684   4.771
  215POPC   D2A 2947   4.690   8.824   5.132
  215POPC   C3A 2948   4.729   8.622   5.516
  215POPC   C4A 2949   4.873   8.690   5.937
  215POPC   C1B 2950   5.196   9.099   4.746
  215POPC   C2B 2951   5.061   9.199   5.150
  215POPC   C3B 2952   5.056   9.027   5.559
  215POPC   C4B 2953   5.030   9.159   5.986
  216POPC   NC3 2954   2.874   6.671   3.854
  216POPC   PO4 2955   3.316   7.113   3.926
  216POPC   GL1 2956   3.134   6.877   4.323
  216POPC   GL2 2957   2.868   6.593   4.372
  216POPC   C1A 2958   3.079   6.761   4.791
  216POPC   D2A 2959   2.712   6.622   5.097
  216POPC   C3A 2960   2.801   6.712   5.572
  216POPC   C4A 2961   3.119   6.920   5.851
  216POPC   C1B 2962   2.455   6.441   4.660
  216POPC   C2B 2963   2.202   6.459   5.071
  216POPC   C3B 2964   2.407   6.354   5.456
  216POPC   C4B 2965   2.517   6.286   5.860
  217POPC   NC3 2966   2.858   3.753   3.425
  217POPC   PO4 2967   2.845   4.065   4.029
  217POPC   GL1 2968   2.853   4.276   4.414
  217POPC   GL2 2969   2.628   4.547   4.463
  217POPC   C1A 2970   3.054   4.245   4.841
  217POPC   D2A 2971   2.975   4.194   5.323
  217POPC   C3A 2972   3.064   3.916   5.703
  217POPC   C4A 2973   2.977   4.058   6.139
  217POPC   C1B 2974   2.548   4.313   4.851
  217POPC   C2B 2975   2.464   4.131   5.274
  217POPC   C3B 2976   2.605   4.186   5.718
  217POPC   C4B 2977   2.462   4.164   6.157
  218POPC   NC3 2978   3.075   7.516   4.127
  218POPC   PO4 2979   2.479   7.489   4.112
  218POPC   GL1 2980   2.671   7.333   4.400
  218POPC   GL2 2981   2.632   6.997   4.202
  218POPC   C1A 2982   2.707   7.630   4.756
  218POPC   D2A 2983   2.741   7.994   5.046
  218POPC   C3A 2984   2.931   7.852   5.423
  218POPC   C4A 2985   2.970   7.647   5.829
  218POPC   C1B 2986   2.615   6.923   4.665
  218POPC   C2B 2987   2.807   7.161   5.018
  218POPC   C3B 2988   2.940   7.251   5.457
  218POPC   C4B 2989   2.672   7.208   5.821
  219POPC   NC3 2990   2.470   4.361   4.017
  219POPC   PO4 2991   1.874   4.034   4.163
  219POPC   GL1 2992   2.178   4.199   4.443
  219POPC   GL2 2993   2.128   4.528   4.587
  219POPC   C1A 2994   2.132   4.029   4.865
  219POPC   D2A 2995   2.047   3.832   5.250
  219POPC   C3A 2996   2.229   3.844   5.691
  219POPC   C4A 2997   2.202   3.749   6.196
  219POPC   C1B 2998   1.708   4.345   4.713
  219POPC   C2B 2999   1.622   4.009   4.985
  219POPC   C3B 3000   1.598   4.011   5.438
  219POPC   C4B 3001   1.953   4.250   5.584
  220POPC   NC3 3002   5.617   9.970   4.085
  220POPC   PO4 3003   6.273   0.086   3.885
  220POPC   GL1 3004   6.061   0.107   4.322
  220POPC   GL2 3005   5.948   9.793   4.437
  220POPC   C1A 3006   5.715   0.174   4.689
  220POPC   D2A 3007   5.602   0.078   5.134
  220POPC   C3A 3008   5.806   9.849   5.472
  220POPC   C4A 3009   5.815   9.714   5.906
  220POPC   C1B 3010   5.904   9.696   4.871
  220POPC   C2B 3011   6.014   9.459   5.228
  220POPC   C3B 3012   5.753   9.268   5.556
  220POPC   C4B 3013   5.425   9.401   5.810
  221POPC   NC3 3014   9.810   3.997   3.967
  221POPC   PO4 3015   9.901   4.678   3.889
  221POPC   GL1 3016   9.918   4.401   4.246
  221POPC   GL2 3017   9.585   4.224   4.351
  221POPC   C1A 3018   9.976   4.184   4.657
  221POPC   D2A 3019   9.727   4.240   5.019
  221POPC   C3A 3020   9.802   4.127   5.433
  221POPC   C4A 3021   9.865   4.534   5.645
  221POPC   C1B 3022   9.421   3.973   4.728
  221POPC   C2B 3023   9.314   4.033   5.225
  221POPC   C3B 3024   9.375   4.309   5.640
  221POPC   C4B 3025   9.590   4.156   6.046
  222POPC   NC3 3026   9.342   3.302   4.056
  222POPC   PO4 3027   9.918   3.375   3.773
  222POPC   GL1 3028   9.723   3.576   4.210
  222POPC   GL2 3029   9.961   3.750   4.424
  222POPC   C1A 3030   9.602   3.476   4.659
  222POPC   D2A 3031   9.703   3.682   5.059
  222POPC   C3A 3032   9.582   3.516   5.431
  222POPC   C4A 3033   9.418   3.791   5.718
  222POPC   C1B 3034   0.106   3.506   4.809
  222POPC   C2B 3035   0.104   3.254   5.153
  222POPC   C3B 3036   0.044   3.317   5.567
  222POPC   C4B 3037   9.855   3.555   5.877
  223POPC   NC3 3038   1.226   0.144   4.054
  223POPC   PO4 3039   0.717   0.636   4.153
  223POPC   GL1 3040   1.089   0.421   4.468
  223POPC   GL2 3041   1.459   0.441   4.397
  223POPC   C1A 3042   1.381   0.257   4.858
  223POPC   D2A 3043   1.184   0.216   5.231
  223POPC   C3A 3044   1.273   0.143   5.644
  223POPC   C4A 3045   0.895   0.223   5.902
  223POPC   C1B 3046   1.492   0.722   4.714
  223POPC   C2B 3047   1.261   0.738   5.085
  223POPC   C3B 3048   1.315   0.659   5.528
  223POPC   C4B 3049   1.275   0.552   5.971
  224POPC   NC3 3050   8.031   3.039   3.538
  224POPC   PO4 3051   8.498   3.505   3.791
  224POPC   GL1 3052   8.264   3.510   4.231
  224POPC   GL2 3053   7.900   3.509   4.312
  224POPC   C1A 3054   8.252   3.333   4.663
  224POPC   D2A 3055   8.156   3.442   5.103
  224POPC   C3A 3056   8.174   3.105   5.403
  224POPC   C4A 3057   8.000   3.144   5.835
  224POPC   C1B 3058   7.769   3.494   4.763
  224POPC   C2B 3059   7.813   3.841   5.015
  224POPC   C3B 3060   7.924   3.910   5.444
  224POPC   C4B 3061   8.158   3.574   5.651
  225POPC   NC3 3062   6.567   9.680   3.971
  225POPC   PO4 3063   6.047   9.337   4.233
  225POPC   GL1 3064   6.404   9.526   4.432
  225POPC   GL2 3065   6.537   9.890   4.419
  225POPC   C1A 3066   6.459   9.641   4.856
  225POPC   D2A 3067   6.657   9.590   5.234
  225POPC   C3A 3068   6.364   9.751   5.508
  225POPC   C4A 3069   6.208   9.398   5.727
  225POPC   C1B 3070   6.921   9.879   4.717
  225POPC   C2B 3071   7.089   9.846   5.169
  225POPC   C3B 3072   6.889   9.887   5.583
  225POPC   C4B 3073   6.704   9.552   5.827
  226POPC   NC3 3074   9.956   5.819   3.987
  226POPC   PO4 3075   9.415   5.535   3.718
  226POPC   GL1 3076   9.521   5.528   4.167
  226POPC   GL2 3077   9.531   5.837   4.294
  226POPC   C1A 3078   9.600   5.474   4.667
  226POPC   D2A 3079   9.651   5.639   5.121
  226POPC   C3A 3080   9.681   5.394   5.553
  226POPC   C4A 3081   9.879   5.489   5.964
  226POPC   C1B 3082   9.573   5.984   4.716
  226POPC   C2B 3083   9.924   6.100   4.938
  226POPC   C3B 3084   9.931   6.016   5.361
  226POPC   C4B 3085   9.584   5.885   5.588
  227POPC   NC3 3086   9.015   5.739   3.863
  227POPC   PO4 3087   9.273   6.370   3.794
  227POPC   GL1 3088   9.133   6.132   4.199
  227POPC   GL2 3089   8.997   5.803   4.354
  227POPC   C1A 3090   9.105   6.184   4.662
  227POPC   D2A 3091   9.155   5.869   5.017
  227POPC   C3A 3092   9.063   6.018   5.457
  227POPC   C4A 3093   9.228   6.092   5.886
  227POPC   C1B 3094   8.746   5.548   4.655
  227POPC   C2B 3095   8.651   5.433   5.072
  227POPC   C3B 3096   8.705   5.627   5.480
  227POPC   C4B 3097   8.859   5.744   5.893
  228POPC   NC3 3098   8.462   3.103   4.027
  228POPC   PO4 3099   8.052   2.628   3.766
  228POPC   GL1 3100   8.009   2.698   4.194
  228POPC   GL2 3101   7.964   3.039   4.102
  228POPC   C1A 3102   8.187   2.704   4.644
  228POPC   D2A 3103   8.144   2.569   5.095
  228POPC   C3A 3104   8.458   2.649   5.404
  228POPC   C4A 3105   8.490   2.471   5.843
  228POPC   C1B 3106   7.843   3.052   4.524
  228POPC   C2B 3107   7.856   2.980   4.959
  228POPC   C3B 3108   7.759   2.783   5.381
  228POPC   C4B 3109   8.043   2.662   5.689
  229POPC   NC3 3110   5.928   2.882   3.932
  229POPC   PO4 3111   5.244   3.000   4.073
  229POPC   GL1 3112   5.626   2.904   4.339
  229POPC   GL2 3113   5.744   2.552   4.377
  229POPC   C1A 3114   6.036   2.971   4.581
  229POPC   D2A 3115   6.244   2.880   4.973
  229POPC   C3A 3116   6.004   2.933   5.368
  229POPC   C4A 3117   5.852   3.015   5.799
  229POPC   C1B 3118   5.915   2.388   4.782
  229POPC   C2B 3119   5.979   2.431   5.222
  229POPC   C3B 3120   5.824   2.507   5.628
  229POPC   C4B 3121   5.499   2.630   5.907
  230POPC   NC3 3122   1.316   6.063   3.886
  230POPC   PO4 3123   0.990   5.588   3.758
  230POPC   GL1 3124   1.004   5.832   4.200
  230POPC   GL2 3125   1.355   5.793   4.301
  230POPC   C1A 3126   1.025   6.049   4.629
  230POPC   D2A 3127   0.854   5.919   5.042
  230POPC   C3A 3128   1.019   6.076   5.422
  230POPC   C4A 3129   0.964   6.261   5.817
  230POPC   C1B 3130   1.237   5.599   4.694
  230POPC   C2B 3131   1.140   5.479   5.103
  230POPC   C3B 3132   1.338   5.549   5.483
  230POPC   C4B 3133   1.150   5.759   5.804
  231POPC   NC3 3134   4.939   8.545   4.037
  231POPC   PO4 3135   5.429   7.995   3.993
  231POPC   GL1 3136   5.318   8.315   4.325
  231POPC   GL2 3137   4.997   8.302   4.472
  231POPC   C1A 3138   5.378   8.530   4.754
  231POPC   D2A 3139   5.195   8.676   5.171
  231POPC   C3A 3140   5.246   8.503   5.602
  231POPC   C4A 3141   5.113   8.248   5.950
  231POPC   C1B 3142   5.015   8.217   4.928
  231POPC   C2B 3143   4.939   8.155   5.391
  231POPC   C3B 3144   4.846   7.871   5.743
  231POPC   C4B 3145   5.036   7.779   6.169
  232POPC   NC3 3146   7.146   1.885   3.645
  232POPC   PO4 3147   7.596   2.145   4.048
  232POPC   GL1 3148   7.589   2.067   4.432
  232POPC   GL2 3149   7.663   1.719   4.351
  232POPC   C1A 3150   7.296   2.078   4.794
  232POPC   D2A 3151   7.333   2.057   5.238
  232POPC   C3A 3152   6.975   2.127   5.517
  232POPC   C4A 3153   6.885   2.134   5.981
  232POPC   C1B 3154   7.740   1.814   4.832
  232POPC   C2B 3155   7.746   1.713   5.255
  232POPC   C3B 3156   7.705   1.818   5.661
  232POPC   C4B 3157   7.341   1.984   5.818
  233POPC   NC3 3158   0.470   0.909   3.868
  233POPC   PO4 3159   0.680   1.584   3.901
  233POPC   GL1 3160   0.532   1.270   4.247
  233POPC   GL2 3161   0.187   1.166   4.240
  233POPC   C1A 3162   0.560   1.029   4.672
  233POPC   D2A 3163   0.749   0.861   5.089
  233POPC   C3A 3164   0.730   0.917   5.574
  233POPC   C4A 3165   0.629   1.187   5.969
  233POPC   C1B 3166   0.214   1.390   4.649
  233POPC   C2B 3167   0.460   1.347   5.062
  233POPC   C3B 3168   0.402   1.313   5.521
  233POPC   C4B 3169   0.188   1.466   5.921
  234POPC   NC3 3170   3.061   3.670   3.917
  234POPC   PO4 3171   2.454   3.931   3.599
  234POPC   GL1 3172   2.380   3.848   4.097
  234POPC   GL2 3173   2.615   3.586   4.172
  234POPC   C1A 3174   2.536   3.872   4.586
  234POPC   D2A 3175   2.810   3.823   4.998
  234POPC   C3A 3176   2.668   3.686   5.451
  234POPC   C4A 3177   2.644   3.718   5.944
  234POPC   C1B 3178   2.808   3.438   4.578
  234POPC   C2B 3179   3.016   3.331   4.982
  234POPC   C3B 3180   3.136   3.429   5.409
  234POPC   C4B 3181   2.919   3.341   5.788
  235POPC   NC3 3182   0.430   3.212   3.934
  235POPC   PO4 3183   0.440   2.528   3.872
  235POPC   GL1 3184   0.247   2.795   4.261
  235POPC   GL2 3185   9.951   2.598   4.409
  235POPC   C1A 3186   0.207   2.915   4.752
  235POPC   D2A 3187   0.434   2.860   5.161
  235POPC   C3A 3188   0.297   2.849   5.596
  235POPC   C4A 3189   0.133   3.045   5.971
  235POPC   C1B 3190   9.962   2.487   4.881
  235POPC   C2B 3191   0.295   2.324   5.191
  235POPC   C3B 3192   0.684   2.474   5.409
  235POPC   C4B 3193   0.798   2.795   5.701
  236POPC   NC3 3194   1.874   1.301   4.058
  236POPC   PO4 3195   1.673   0.613   3.987
  236POPC   GL1 3196   1.920   0.829   4.313
  236POPC   GL2 3197   2.234   0.723   4.407
  236POPC   C1A 3198   1.935   0.941   4.765
  236POPC   D2A 3199   1.708   0.986   5.132
  236POPC   C3A 3200   1.821   0.791   5.494
  236POPC   C4A 3201   1.653   0.878   5.876
  236POPC   C1B 3202   2.296   1.191   4.545
  236POPC   C2B 3203   2.246   1.310   4.971
  236POPC   C3B 3204   2.018   1.374   5.340
  236POPC   C4B 3205   2.052   1.186   5.747
  237POPC   NC3 3206   2.695   9.791   3.916
  237POPC   PO4 3207   3.085   9.200   4.093
  237POPC   GL1 3208   2.878   9.379   4.481
  237POPC   GL2 3209   2.589   9.561   4.372
  237POPC   C1A 3210   2.678   9.513   4.899
  237POPC   D2A 3211   2.306   9.441   5.161
  237POPC   C3A 3212   2.466   9.333   5.567
  237POPC   C4A 3213   2.837   9.310   5.815
  237POPC   C1B 3214   2.827   9.891   4.595
  237POPC   C2B 3215   2.900   9.993   5.040
  237POPC   C3B 3216   2.668   9.772   5.380
  237POPC   C4B 3217   2.613   9.781   5.817
  238POPC   NC3 3218   7.838   4.379   3.982
  238POPC   PO4 3219   8.519   4.496   3.921
  238POPC   GL1 3220   8.293   4.308   4.244
  238POPC   GL2 3221   8.111   3.996   4.200
  238POPC   C1A 3222   8.464   4.276   4.652
  238POPC   D2A 3223   8.692   4.474   4.977
  238POPC   C3A 3224   8.426   4.464   5.342
  238POPC   C4A 3225   8.090   4.385   5.647
  238POPC   C1B 3226   8.188   3.837   4.657
  238POPC   C2B 3227   8.312   3.995   5.094
  238POPC   C3B 3228   8.423   4.010   5.565
  238POPC   C4B 3229   8.208   3.983   5.939
  239POPC   NC3 3230   9.579   6.673   3.932
  239POPC   PO4 3231   9.950   6.201   4.242
  239POPC   GL1 3232   9.696   6.532   4.415
  239POPC   GL2 3233   9.879   6.872   4.300
  239POPC   C1A 3234   9.545   6.487   4.851
  239POPC   D2A 3235   9.484   6.228   5.210
  239POPC   C3A 3236   9.536   6.408   5.635
  239POPC   C4A 3237   9.490   6.414   6.151
  239POPC   C1B 3238   9.699   6.960   4.702
  239POPC   C2B 3239   9.665   6.919   5.133
  239POPC   C3B 3240   9.800   6.994   5.540
  239POPC   C4B 3241   9.694   6.818   5.905
  240POPC   NC3 3242   5.613   0.970   4.067
  240POPC   PO4 3243   5.934   1.446   3.671
  240POPC   GL1 3244   5.827   1.460   4.180
  240POPC   GL2 3245   5.538   1.385   4.353
  240POPC   C1A 3246   5.934   1.378   4.656
  240POPC   D2A 3247   6.069   1.033   4.971
  240POPC   C3A 3248   5.852   1.030   5.378
  240POPC   C4A 3249   5.872   0.990   5.824
  240POPC   C1B 3250   5.451   1.539   4.777
  240POPC   C2B 3251   5.690   1.461   5.148
  240POPC   C3B 3252   5.686   1.480   5.615
  240POPC   C4B 3253   5.428   1.266   5.934
  241POPC   NC3 3254   2.133   0.545   3.922
  241POPC   PO4 3255   1.701   0.167   3.568
  241POPC   GL1 3256   1.730   0.121   4.082
  241POPC   GL2 3257   1.958   0.299   4.308
  241POPC   C1A 3258   1.699   9.989   4.567
  241POPC   D2A 3259   1.848   9.934   5.009
  241POPC   C3A 3260   1.710   0.274   5.314
  241POPC   C4A 3261   1.732   0.349   5.780
  241POPC   C1B 3262   1.911   0.418   4.757
  241POPC   C2B 3263   2.130   0.611   5.113
  241POPC   C3B 3264   2.324   0.626   5.529
  241POPC   C4B 3265   2.112   0.677   5.937
  242POPC   NC3 3266   6.385   3.251   3.384
  242POPC   PO4 3267   6.180   3.301   3.992
  242POPC   GL1 3268   6.523   3.235   4.326
  242POPC   GL2 3269   6.929   3.188   4.286
  242POPC   C1A 3270   6.459   3.309   4.782
  242POPC   D2A 3271   6.358   3.382   5.212
  242POPC   C3A 3272   6.457   3.103   5.511
  242POPC   C4A 3273   6.310   3.185   5.910
  242POPC   C1B 3274   6.971   3.336   4.736
  242POPC   C2B 3275   6.863   3.434   5.168
  242POPC   C3B 3276   6.864   3.391   5.612
  242POPC   C4B 3277   6.799   3.033   5.920
  243POPC   NC3 3278   3.470   0.408   3.777
  243POPC   PO4 3279   3.184   1.013   3.920
  243POPC   GL1 3280   3.457   0.726   4.217
  243POPC   GL2 3281   3.647   0.378   4.237
  243POPC   C1A 3282   3.472   0.551   4.674
  243POPC   D2A 3283   3.399   0.164   4.963
  243POPC   C3A 3284   3.244   0.239   5.408
  243POPC   C4A 3285   3.383   0.459   5.804
  243POPC   C1B 3286   3.872   0.260   4.631
  243POPC   C2B 3287   3.817   0.461   5.048
  243POPC   C3B 3288   3.773   0.298   5.458
  243POPC   C4B 3289   3.885   0.342   5.884
  244POPC   NC3 3290   8.726   1.742   3.946
  244POPC   PO4 3291   9.191   2.122   3.686
  244POPC   GL1 3292   9.190   2.143   4.230
  244POPC   GL2 3293   9.114   1.809   4.274
  244POPC   C1A 3294   8.990   2.281   4.690
  244POPC   D2A 3295   8.655   2.221   5.061
  244POPC   C3A 3296   8.788   2.205   5.535
  244POPC   C4A 3297   8.769   2.089   6.034
  244POPC   C1B 3298   9.253   1.842   4.690
  244POPC   C2B 3299   9.181   2.040   5.125
  244POPC   C3B 3300   9.079   1.801   5.518
  244POPC   C4B 3301   8.702   1.659   5.782
  245POPC   NC3 3302   0.320   9.872   3.998
  245POPC   PO4 3303   0.729   9.371   3.855
  245POPC   GL1 3304   0.619   9.485   4.268
  245POPC   GL2 3305   0.325   9.359   4.388
  245POPC   C1A 3306   0.662   9.531   4.739
  245POPC   D2A 3307   0.528   9.574   5.168
  245POPC   C3A 3308   0.792   9.385   5.490
  245POPC   C4A 3309   0.469   9.311   5.805
  245POPC   C1B 3310   0.155   9.606   4.745
  245POPC   C2B 3311   0.062   9.798   5.135
  245POPC   C3B 3312   0.258   9.804   5.543
  245POPC   C4B 3313   0.115   9.657   5.929
  246POPC   NC3 3314   7.303   8.709   3.886
  246POPC   PO4 3315   6.791   9.275   4.088
  246POPC   GL1 3316   7.182   9.117   4.312
  246POPC   GL2 3317   7.463   8.938   4.316
  246POPC   C1A 3318   7.155   8.894   4.723
  246POPC   D2A 3319   6.924   8.984   5.111
  246POPC   C3A 3320   7.160   8.944   5.506
  246POPC   C4A 3321   7.006   9.117   5.923
  246POPC   C1B 3322   7.670   8.950   4.747
  246POPC   C2B 3323   7.656   8.894   5.217
  246POPC   C3B 3324   7.544   8.583   5.556
  246POPC   C4B 3325   7.245   8.554   5.854
  247POPC   NC3 3326   5.687   7.613   3.988
  247POPC   PO4 3327   6.120   7.080   3.976
  247POPC   GL1 3328   6.062   7.431   4.304
  247POPC   GL2 3329   5.756   7.311   4.416
  247POPC   C1A 3330   5.941   7.606   4.771
  247POPC   D2A 3331   5.886   7.864   5.216
  247POPC   C3A 3332   5.892   7.675   5.658
  247POPC   C4A 3333   5.935   7.621   6.130
  247POPC   C1B 3334   6.100   7.115   4.692
  247POPC   C2B 3335   6.341   7.231   5.084
  247POPC   C3B 3336   6.222   7.244   5.521
  247POPC   C4B 3337   5.894   7.190   5.849
  248POPC   NC3 3338   2.741   0.920   3.779
  248POPC   PO4 3339   2.595   0.244   3.870
  248POPC   GL1 3340   2.937   0.544   4.110
  248POPC   GL2 3341   3.135   0.305   4.331
  248POPC   C1A 3342   3.057   0.790   4.536
  248POPC   D2A 3343   3.084   0.624   4.995
  248POPC   C3A 3344   2.857   0.722   5.393
  248POPC   C4A 3345   2.882   0.647   5.849
  248POPC   C1B 3346   2.755   0.388   4.622
  248POPC   C2B 3347   2.608   0.415   5.072
  248POPC   C3B 3348   2.713   0.256   5.508
  248POPC   C4B 3349   2.502   0.290   5.903
  249POPC   NC3 3350   8.798   6.704   3.858
  249POPC   PO4 3351   8.666   6.072   3.964
  249POPC   GL1 3352   8.741   6.447   4.290
  249POPC   GL2 3353   9.105   6.630   4.279
  249POPC   C1A 3354   8.777   6.581   4.726
  249POPC   D2A 3355   9.063   6.500   5.068
  249POPC   C3A 3356   8.908   6.520   5.460
  249POPC   C4A 3357   8.794   6.307   5.835
  249POPC   C1B 3358   9.208   6.830   4.679
  249POPC   C2B 3359   9.172   7.008   5.126
  249POPC   C3B 3360   9.305   6.874   5.535
  249POPC   C4B 3361   9.158   6.657   5.883
  250POPC   NC3 3362   4.820   9.529   3.909
  250POPC   PO4 3363   5.542   9.613   3.779
  250POPC   GL1 3364   5.344   9.564   4.242
  250POPC   GL2 3365   5.031   9.381   4.343
  250POPC   C1A 3366   5.389   9.688   4.703
  250POPC   D2A 3367   5.474   9.550   5.157
  250POPC   C3A 3368   5.263   9.790   5.502
  250POPC   C4A 3369   5.312   9.866   5.962
  250POPC   C1B 3370   4.774   9.395   4.737
  250POPC   C2B 3371   4.842   9.683   5.079
  250POPC   C3B 3372   4.716   9.778   5.491
  250POPC   C4B 3373   4.868   9.624   5.882
  251POPC   NC3 3374   7.178   1.917   4.155
  251POPC   PO4 3375   6.522   1.842   3.867
  251POPC   GL1 3376   6.606   1.773   4.262
  251POPC   GL2 3377   6.277   1.675   4.348
  251POPC   C1A 3378   6.813   1.711   4.666
  251POPC   D2A 3379   6.819   1.970   5.050
  251POPC   C3A 3380   6.688   1.718   5.435
  251POPC   C4A 3381   6.888   1.629   5.870
  251POPC   C1B 3382   6.396   2.016   4.682
  251POPC   C2B 3383   6.328   2.064   5.173
  251POPC   C3B 3384   6.463   2.149   5.625
  251POPC   C4B 3385   6.430   1.846   5.993
  252POPC   NC3 3386   1.568   1.999   3.848
  252POPC   PO4 3387   1.419   1.414   4.041
  252POPC   GL1 3388   1.450   1.675   4.396
  252POPC   GL2 3389   1.381   2.010   4.331
  252POPC   C1A 3390   1.262   1.755   4.832
  252POPC   D2A 3391   1.044   1.678   5.266
  252POPC   C3A 3392   1.254   1.724   5.711
  252POPC   C4A 3393   1.489   1.818   6.153
  252POPC   C1B 3394   1.101   2.200   4.622
  252POPC   C2B 3395   0.935   2.144   5.040
  252POPC   C3B 3396   1.212   2.165   5.388
  252POPC   C4B 3397   1.123   2.368   5.752
  253POPC   NC3 3398   0.228   3.649   4.007
  253POPC   PO4 3399   0.875   3.265   4.041
  253POPC   GL1 3400   0.643   3.244   4.398
  253POPC   GL2 3401   0.471   3.559   4.432
  253POPC   C1A 3402   0.576   3.261   4.827
  253POPC   D2A 3403   0.510   3.559   5.130
  253POPC   C3A 3404   0.545   3.298   5.475
  253POPC   C4A 3405   0.607   3.235   5.898
  253POPC   C1B 3406   0.407   3.906   4.705
  253POPC   C2B 3407   0.151   3.945   5.075
  253POPC   C3B 3408   0.193   3.781   5.483
  253POPC   C4B 3409   0.356   3.670   5.884
  254POPC   NC3 3410   3.915   9.750   3.545
  254POPC   PO4 3411   4.355   9.426   3.815
  254POPC   GL1 3412   4.468   9.363   4.263
  254POPC   GL2 3413   4.587   9.698   4.372
  254POPC   C1A 3414   4.230   9.448   4.665
  254POPC   D2A 3415   4.325   9.610   5.108
  254POPC   C3A 3416   4.078   9.381   5.464
  254POPC   C4A 3417   3.822   9.549   5.826
  254POPC   C1B 3418   4.284   9.950   4.672
  254POPC   C2B 3419   4.064   0.032   5.089
  254POPC   C3B 3420   4.094   9.897   5.534
  254POPC   C4B 3421   4.350   9.640   5.833
  255POPC   NC3 3422   2.623   9.138   4.099
  255POPC   PO4 3423   2.713   8.492   3.896
  255POPC   GL1 3424   2.647   8.641   4.305
  255POPC   GL2 3425   2.920   8.841   4.437
  255POPC   C1A 3426   2.410   8.648   4.684
  255POPC   D2A 3427   2.369   8.502   5.131
  255POPC   C3A 3428   2.475   8.819   5.436
  255POPC   C4A 3429   2.845   8.812   5.723
  255POPC   C1B 3430   2.742   9.014   4.814
  255POPC   C2B 3431   2.896   9.058   5.220
  255POPC   C3B 3432   3.206   8.742   5.323
  255POPC   C4B 3433   3.279   8.521   5.698
  256POPC   NC3 3434   0.321   9.100   3.898
  256POPC   PO4 3435   0.963   8.750   4.041
  256POPC   GL1 3436   0.656   8.951   4.255
  256POPC   GL2 3437   0.415   8.706   4.220
  256POPC   C1A 3438   0.511   8.989   4.670
  256POPC   D2A 3439   0.709   9.105   5.034
  256POPC   C3A 3440   0.544   8.951   5.407
  256POPC   C4A 3441   0.715   8.858   5.814
  256POPC   C1B 3442   0.131   8.626   4.595
  256POPC   C2B 3443   0.227   8.717   5.025
  256POPC   C3B 3444   0.042   8.817   5.414
  256POPC   C4B 3445   0.174   8.923   5.826
  257POPC   NC3 3446   6.356   1.346   3.856
  257POPC   PO4 3447   6.784   0.775   3.882
  257POPC   GL1 3448   6.857   1.052   4.239
  257POPC   GL2 3449   6.601   1.262   4.287
  257POPC   C1A 3450   6.930   1.191   4.685
  257POPC   D2A 3451   7.004   1.033   5.127
  257POPC   C3A 3452   6.860   1.241   5.508
  257POPC   C4A 3453   6.526   1.085   5.783
  257POPC   C1B 3454   6.442   1.341   4.683
  257POPC   C2B 3455   6.536   1.300   5.103
  257POPC   C3B 3456   6.247   1.380   5.448
  257POPC   C4B 3457   6.149   1.415   5.883
  258POPC   NC3 3458   5.163   1.430   3.596
  258POPC   PO4 3459   4.774   0.917   3.889
  258POPC   GL1 3460   5.110   1.004   4.262
  258POPC   GL2 3461   4.946   1.244   4.453
  258POPC   C1A 3462   5.376   1.038   4.665
  258POPC   D2A 3463   5.410   1.016   5.109
  258POPC   C3A 3464   5.030   1.024   5.352
  258POPC   C4A 3465   4.926   1.034   5.797
  258POPC   C1B 3466   4.982   1.284   4.881
  258POPC   C2B 3467   4.840   1.497   5.249
  258POPC   C3B 3468   5.098   1.481   5.608
  258POPC   C4B 3469   4.982   1.491   6.063
  259POPC   NC3 3470   6.422   7.427   3.935
  259POPC   PO4 3471   7.065   7.404   3.946
  259POPC   GL1 3472   7.052   7.398   4.395
  259POPC   GL2 3473   6.750   7.534   4.335
  259POPC   C1A 3474   6.980   7.360   4.842
  259POPC   D2A 3475   6.778   7.520   5.205
  259POPC   C3A 3476   6.761   7.333   5.602
  259POPC   C4A 3477   6.994   6.956   5.697
  259POPC   C1B 3478   6.452   7.489   4.646
  259POPC   C2B 3479   6.364   7.740   5.012
  259POPC   C3B 3480   6.369   7.734   5.471
  259POPC   C4B 3481   6.373   7.538   5.901
  260POPC   NC3 3482   6.031   1.820   3.902
  260POPC   PO4 3483   6.032   2.390   3.985
  260POPC   GL1 3484   5.969   2.077   4.374
  260POPC   GL2 3485   5.669   1.872   4.440
  260POPC   C1A 3486   5.949   1.864   4.843
  260POPC   D2A 3487   5.767   1.948   5.247
  260POPC   C3A 3488   5.998   1.926   5.618
  260POPC   C4A 3489   6.073   2.211   5.967
  260POPC   C1B 3490   5.474   2.075   4.828
  260POPC   C2B 3491   5.439   2.336   5.225
  260POPC   C3B 3492   5.476   2.138   5.638
  260POPC   C4B 3493   5.367   1.794   5.907
  261POPC   NC3 3494   0.695   8.326   3.988
  261POPC   PO4 3495   0.204   7.885   3.880
  261POPC   GL1 3496   0.467   7.911   4.247
  261POPC   GL2 3497   0.310   8.220   4.326
  261POPC   C1A 3498   0.521   7.950   4.696
  261POPC   D2A 3499   0.271   8.212   4.991
  261POPC   C3A 3500   0.189   8.058   5.430
  261POPC   C4A 3501   0.385   8.073   5.868
  261POPC   C1B 3502   0.599   8.470   4.644
  261POPC   C2B 3503   0.693   8.520   5.104
  261POPC   C3B 3504   0.483   8.465   5.536
  261POPC   C4B 3505   0.063   8.441   5.770
  262POPC   NC3 3506   9.904   8.245   3.916
  262POPC   PO4 3507   9.386   7.810   3.792
  262POPC   GL1 3508   9.592   7.934   4.194
  262POPC   GL2 3509   9.925   7.826   4.288
  262POPC   C1A 3510   9.470   7.833   4.649
  262POPC   D2A 3511   9.681   7.938   5.050
  262POPC   C3A 3512   9.522   7.899   5.471
  262POPC   C4A 3513   9.815   7.838   5.845
  262POPC   C1B 3514   9.882   8.158   4.608
  262POPC   C2B 3515   9.810   8.437   4.959
  262POPC   C3B 3516   9.765   8.360   5.377
  262POPC   C4B 3517   9.582   8.295   5.794
  263POPC   NC3 3518   9.623   0.633   4.060
  263POPC   PO4 3519   0.035   0.134   3.722
  263POPC   GL1 3520   9.899   0.204   4.189
  263POPC   GL2 3521   9.589   0.188   4.377
  263POPC   C1A 3522   0.004   0.167   4.668
  263POPC   D2A 3523   9.799   0.245   5.107
  263POPC   C3A 3524   9.977   0.252   5.550
  263POPC   C4A 3525   0.034   0.433   6.009
  263POPC   C1B 3526   9.667   0.540   4.692
  263POPC   C2B 3527   9.456   0.684   5.056
  263POPC   C3B 3528   9.689   0.695   5.434
  263POPC   C4B 3529   9.580   0.459   5.808
  264POPC   NC3 3530   4.278   8.988   3.939
  264POPC   PO4 3531   4.554   8.374   3.822
  264POPC   GL1 3532   4.459   8.636   4.261
  264POPC   GL2 3533   4.106   8.770   4.375
  264POPC   C1A 3534   4.468   8.992   4.629
  264POPC   D2A 3535   4.286   9.114   5.041
  264POPC   C3A 3536   4.585   9.262   5.374
  264POPC   C4A 3537   4.575   9.102   5.777
  264POPC   C1B 3538   4.193   8.636   4.844
  264POPC   C2B 3539   4.224   8.663   5.315
  264POPC   C3B 3540   4.166   8.777   5.749
  264POPC   C4B 3541   3.956   8.769   6.161
  265POPC   NC3 3542   8.365   5.808   3.758
  265POPC   PO4 3543   7.772   5.805   3.941
  265POPC   GL1 3544   8.115   5.690   4.264
  265POPC   GL2 3545   8.484   5.678   4.248
  265POPC   C1A 3546   8.243   5.692   4.751
  265POPC   D2A 3547   8.266   5.747   5.234
  265POPC   C3A 3548   7.934   5.890   5.560
  265POPC   C4A 3549   7.627   6.220   5.713
  265POPC   C1B 3550   8.594   6.036   4.596
  265POPC   C2B 3551   8.701   6.099   5.037
  265POPC   C3B 3552   8.526   6.129   5.455
  265POPC   C4B 3553   8.379   5.910   5.808
  266POPC   NC3 3554   8.743   0.448   3.758
  266POPC   PO4 3555   9.329   0.305   3.952
  266POPC   GL1 3556   9.042   0.514   4.201
  266POPC   GL2 3557   8.742   0.311   4.275
  266POPC   C1A 3558   9.175   0.485   4.612
  266POPC   D2A 3559   9.338   0.179   4.899
  266POPC   C3A 3560   9.347   0.264   5.361
  266POPC   C4A 3561   9.103   0.469   5.671
  266POPC   C1B 3562   8.687   0.537   4.684
  266POPC   C2B 3563   8.924   0.461   5.059
  266POPC   C3B 3564   8.708   0.357   5.402
  266POPC   C4B 3565   8.487   0.652   5.618
  267POPC   NC3 3566   6.512   2.333   3.879
  267POPC   PO4 3567   6.252   2.860   3.596
  267POPC   GL1 3568   6.389   2.787   4.093
  267POPC   GL2 3569   6.733   2.694   4.198
  267POPC   C1A 3570   6.332   2.556   4.524
  267POPC   D2A 3571   6.549   2.455   4.912
  267POPC   C3A 3572   6.458   2.600   5.337
  267POPC   C4A 3573   6.289   2.669   5.766
  267POPC   C1B 3574   6.710   2.875   4.627
  267POPC   C2B 3575   6.754   2.951   5.049
  267POPC   C3B 3576   6.920   2.896   5.435
  267POPC   C4B 3577   6.789   2.559   5.716
  268POPC   NC3 3578   1.085   9.238   4.112
  268POPC   PO4 3579   1.561   9.452   3.655
  268POPC   GL1 3580   1.553   9.204   4.238
  268POPC   GL2 3581   1.386   8.873   4.345
  268POPC   C1A 3582   1.405   9.221   4.696
  268POPC   D2A 3583   1.204   9.301   5.064
  268POPC   C3A 3584   1.429   9.222   5.417
  268POPC   C4A 3585   1.188   9.075   5.728
  268POPC   C1B 3586   1.096   8.798   4.728
  268POPC   C2B 3587   1.095   8.821   5.190
  268POPC   C3B 3588   1.006   8.565   5.525
  268POPC   C4B 3589   1.222   8.598   5.888
  269POPC   NC3 3590   1.767   2.698   3.993
  269POPC   PO4 3591   2.385   2.461   3.853
  269POPC   GL1 3592   2.288   2.525   4.314
  269POPC   GL2 3593   2.202   2.867   4.269
  269POPC   C1A 3594   2.373   2.562   4.818
  269POPC   D2A 3595   2.499   2.614   5.296
  269POPC   C3A 3596   2.332   2.525   5.727
  269POPC   C4A 3597   2.308   2.387   6.172
  269POPC   C1B 3598   2.051   2.973   4.687
  269POPC   C2B 3599   2.059   2.867   5.131
  269POPC   C3B 3600   2.023   2.920   5.580
  269POPC   C4B 3601   1.760   3.130   5.858
  270POPC   NC3 3602   0.538   6.631   3.932
  270POPC   PO4 3603   0.235   6.106   3.735
  270POPC   GL1 3604   0.457   6.184   4.180
  270POPC   GL2 3605   0.326   6.518   4.382
  270POPC   C1A 3606   0.521   6.128   4.643
  270POPC   D2A 3607   0.435   6.346   5.045
  270POPC   C3A 3608   0.646   6.451   5.447
  270POPC   C4A 3609   0.463   6.357   5.874
  270POPC   C1B 3610   0.058   6.582   4.778
  270POPC   C2B 3611   9.966   6.521   5.238
  270POPC   C3B 3612   0.197   6.686   5.593
  270POPC   C4B 3613   0.192   6.822   6.033
  271POPC   NC3 3614   9.785   7.453   3.868
  271POPC   PO4 3615   9.245   7.013   3.950
  271POPC   GL1 3616   9.392   7.129   4.312
  271POPC   GL2 3617   9.421   7.461   4.229
  271POPC   C1A 3618   9.310   7.326   4.732
  271POPC   D2A 3619   9.276   7.590   5.107
  271POPC   C3A 3620   9.290   7.394   5.516
  271POPC   C4A 3621   9.548   7.307   5.897
  271POPC   C1B 3622   9.766   7.427   4.534
  271POPC   C2B 3623   9.751   7.414   4.996
  271POPC   C3B 3624   9.816   7.490   5.449
  271POPC   C4B 3625   0.059   7.357   5.848
  272POPC   NC3 3626   7.012   0.369   3.963
  272POPC   PO4 3627   7.557   0.666   4.212
  272POPC   GL1 3628   7.167   0.662   4.363
  272POPC   GL2 3629   7.107   0.284   4.452
  272POPC   C1A 3630   6.993   0.678   4.749
  272POPC   D2A 3631   7.056   0.323   4.984
  272POPC   C3A 3632   7.176   0.317   5.400
  272POPC   C4A 3633   7.042   0.313   5.844
  272POPC   C1B 3634   7.503   0.271   4.716
  272POPC   C2B 3635   7.867   0.245   4.995
  272POPC   C3B 3636   7.720   0.210   5.403
  272POPC   C4B 3637   7.521   0.493   5.721
  273POPC   NC3 3638   9.604   9.951   3.863
  273POPC   PO4 3639   0.011   9.447   4.014
  273POPC   GL1 3640   9.897   9.717   4.335
  273POPC   GL2 3641   9.590   9.663   4.290
  273POPC   C1A 3642   9.674   9.810   4.773
  273POPC   D2A 3643   9.469   9.768   5.186
  273POPC   C3A 3644   9.734   9.767   5.550
  273POPC   C4A 3645   9.720   9.987   5.939
  273POPC   C1B 3646   9.519   9.355   4.644
  273POPC   C2B 3647   9.674   9.301   5.079
  273POPC   C3B 3648   9.443   9.316   5.479
  273POPC   C4B 3649   9.327   9.631   5.847
  274POPC   NC3 3650   0.571   2.051   3.903
  274POPC   PO4 3651   0.517   2.416   4.431
  274POPC   GL1 3652   0.686   1.982   4.409
  274POPC   GL2 3653   0.412   1.772   4.331
  274POPC   C1A 3654   0.716   1.725   4.792
  274POPC   D2A 3655   0.529   1.836   5.215
  274POPC   C3A 3656   0.768   2.009   5.582
  274POPC   C4A 3657   0.661   2.310   5.952
  274POPC   C1B 3658   0.184   1.893   4.719
  274POPC   C2B 3659   0.031   1.645   5.064
  274POPC   C3B 3660   0.094   1.715   5.471
  274POPC   C4B 3661   0.254   2.079   5.689
  275POPC   NC3 3662   9.531   1.061   3.712
  275POPC   PO4 3663   8.943   0.871   3.743
  275POPC   GL1 3664   9.268   0.979   4.151
  275POPC   GL2 3665   9.644   1.138   4.195
  275POPC   C1A 3666   9.333   1.239   4.575
  275POPC   D2A 3667   9.556   1.179   4.969
  275POPC   C3A 3668   9.370   1.165   5.369
  275POPC   C4A 3669   9.356   0.919   5.749
  275POPC   C1B 3670   9.851   1.014   4.585
  275POPC   C2B 3671   0.049   1.029   5.007
  275POPC   C3B 3672   9.903   1.225   5.390
  275POPC   C4B 3673   9.755   1.219   5.817
  276POPC   NC3 3674   3.648   1.168   3.950
  276POPC   PO4 3675   3.133   1.713   4.083
  276POPC   GL1 3676   3.419   1.569   4.399
  276POPC   GL2 3677   3.307   1.251   4.341
  276POPC   C1A 3678   3.574   1.506   4.846
  276POPC   D2A 3679   3.368   1.542   5.274
  276POPC   C3A 3680   3.460   1.314   5.660
  276POPC   C4A 3681   3.253   1.402   6.107
  276POPC   C1B 3682   3.595   1.048   4.591
  276POPC   C2B 3683   3.640   0.944   4.996
  276POPC   C3B 3684   3.513   0.729   5.371
  276POPC   C4B 3685   3.740   0.832   5.724
  277POPC   NC3 3686   2.413   2.922   3.772
  277POPC   PO4 3687   3.055   3.193   3.907
  277POPC   GL1 3688   2.699   3.075   4.159
  277POPC   GL2 3689   2.730   2.718   4.143
  277POPC   C1A 3690   2.576   2.980   4.588
  277POPC   D2A 3691   2.803   2.859   4.951
  277POPC   C3A 3692   2.816   3.029   5.372
  277POPC   C4A 3693   2.585   2.961   5.749
  277POPC   C1B 3694   2.797   2.479   4.532
  277POPC   C2B 3695   2.859   2.363   4.981
  277POPC   C3B 3696   3.016   2.554   5.366
  277POPC   C4B 3697   2.854   2.474   5.783
  278POPC   NC3 3698   0.500   0.402   3.809
  278POPC   PO4 3699   9.958   0.894   3.847
  278POPC   GL1 3700   0.172   0.641   4.216
  278POPC   GL2 3701   0.378   0.295   4.301
  278POPC   C1A 3702   0.206   0.643   4.685
  278POPC   D2A 3703   0.228   0.525   5.149
  278POPC   C3A 3704   0.230   0.733   5.572
  278POPC   C4A 3705   0.512   0.614   5.945
  278POPC   C1B 3706   0.475   0.016   4.664
  278POPC   C2B 3707   0.518   0.084   5.132
  278POPC   C3B 3708   0.488   0.253   5.583
  278POPC   C4B 3709   0.417   0.110   6.053
  279POPC   NC3 3710   4.108   2.718   3.953
  279POPC   PO4 3711   4.567   2.284   3.939
  279POPC   GL1 3712   4.503   2.588   4.296
  279POPC   GL2 3713   4.340   2.890   4.354
  279POPC   C1A 3714   4.540   2.568   4.769
  279POPC   D2A 3715   4.361   2.452   5.181
  279POPC   C3A 3716   4.529   2.605   5.549
  279POPC   C4A 3717   4.664   2.505   5.961
  279POPC   C1B 3718   4.070   2.764   4.708
  279POPC   C2B 3719   3.882   2.773   5.123
  279POPC   C3B 3720   3.952   2.565   5.504
  279POPC   C4B 3721   4.148   2.559   5.910
  280POPC   NC3 3722   4.268   1.946   3.850
  280POPC   PO4 3723   4.874   1.767   3.727
  280POPC   GL1 3724   4.673   1.851   4.183
  280POPC   GL2 3725   4.697   2.131   4.404
  280POPC   C1A 3726   4.437   1.733   4.575
  280POPC   D2A 3727   4.512   2.042   4.904
  280POPC   C3A 3728   4.535   1.959   5.326
  280POPC   C4A 3729   4.409   2.118   5.722
  280POPC   C1B 3730   4.231   2.231   4.520
  280POPC   C2B 3731   3.992   2.244   4.913
  280POPC   C3B 3732   4.030   2.095   5.358
  280POPC   C4B 3733   3.880   2.127   5.793
  281POPC   NC3 3734   3.556   9.350   4.074
  281POPC   PO4 3735   3.537   9.947   3.714
  281POPC   GL1 3736   3.541   9.869   4.188
  281POPC   GL2 3737   3.243   9.717   4.331
  281POPC   C1A 3738   3.739   9.729   4.613
  281POPC   D2A 3739   3.800   9.553   5.039
  281POPC   C3A 3740   3.588   9.796   5.376
  281POPC   C4A 3741   3.537   9.977   5.796
  281POPC   C1B 3742   3.248   9.654   4.812
  281POPC   C2B 3743   3.116   9.574   5.246
  281POPC   C3B 3744   3.116   9.719   5.678
  281POPC   C4B 3745   3.023   9.684   6.145
  282POPC   NC3 3746   8.627   4.856   3.597
  282POPC   PO4 3747   8.933   5.309   4.033
  282POPC   GL1 3748   9.144   5.311   4.420
  282POPC   GL2 3749   9.091   5.000   4.430
  282POPC   C1A 3750   9.147   5.361   4.890
  282POPC   D2A 3751   9.090   5.049   5.210
  282POPC   C3A 3752   9.061   5.265   5.588
  282POPC   C4A 3753   8.911   5.244   6.000
  282POPC   C1B 3754   8.792   4.981   4.784
  282POPC   C2B 3755   8.587   4.936   5.197
  282POPC   C3B 3756   8.631   4.939   5.641
  282POPC   C4B 3757   8.603   4.861   6.115
  283POPC   NC3 3758   3.539   6.687   4.042
  283POPC   PO4 3759   3.069   6.270   4.020
  283POPC   GL1 3760   3.347   6.365   4.412
  283POPC   GL2 3761   3.562   6.672   4.541
  283POPC   C1A 3762   3.376   6.345   4.879
  283POPC   D2A 3763   3.189   6.549   5.254
  283POPC   C3A 3764   3.322   6.467   5.674
  283POPC   C4A 3765   3.451   6.537   6.118
  283POPC   C1B 3766   3.559   6.825   4.988
  283POPC   C2B 3767   3.416   6.986   5.409
  283POPC   C3B 3768   3.654   6.852   5.779
  283POPC   C4B 3769   3.892   6.772   6.215
  284POPC   NC3 3770   1.114   9.578   3.681
  284POPC   PO4 3771   0.781   0.062   3.945
  284POPC   GL1 3772   0.902   9.904   4.367
  284POPC   GL2 3773   1.097   9.593   4.511
  284POPC   C1A 3774   0.957   9.997   4.792
  284POPC   D2A 3775   0.983   9.751   5.127
  284POPC   C3A 3776   0.848   9.898   5.486
  284POPC   C4A 3777   0.684   9.754   5.834
  284POPC   C1B 3778   1.402   9.716   4.854
  284POPC   C2B 3779   1.447   9.748   5.326
  284POPC   C3B 3780   1.232   9.630   5.748
  284POPC   C4B 3781   1.330   9.572   6.221
  285POPC   NC3 3782   4.377   0.816   3.676
  285POPC   PO4 3783   3.793   0.744   3.802
  285POPC   GL1 3784   4.024   0.717   4.209
  285POPC   GL2 3785   4.410   0.699   4.221
  285POPC   C1A 3786   4.059   0.744   4.681
  285POPC   D2A 3787   4.306   0.614   5.082
  285POPC   C3A 3788   4.164   0.644   5.529
  285POPC   C4A 3789   4.167   0.761   6.004
  285POPC   C1B 3790   4.525   0.463   4.632
  285POPC   C2B 3791   4.591   0.171   5.014
  285POPC   C3B 3792   4.486   0.241   5.447
  285POPC   C4B 3793   4.359   0.180   5.880
  286POPC   NC3 3794   2.276   8.288   3.853
  286POPC   PO4 3795   1.729   8.672   4.008
  286POPC   GL1 3796   1.805   8.475   4.382
  286POPC   GL2 3797   1.992   8.166   4.387
  286POPC   C1A 3798   1.949   8.469   4.818
  286POPC   D2A 3799   1.821   8.371   5.232
  286POPC   C3A 3800   2.024   8.557   5.585
  286POPC   C4A 3801   2.084   8.619   6.049
  286POPC   C1B 3802   1.773   7.981   4.781
  286POPC   C2B 3803   1.676   7.883   5.220
  286POPC   C3B 3804   1.737   7.847   5.646
  286POPC   C4B 3805   2.075   8.076   5.815
  287W        W 3806   8.777   1.885   0.248
  288W        W 3807   4.527   0.983  10.745
  289W        W 3808   8.973   1.378   2.274
  290W        W 3809   0.028   7.994   1.657
  291W        W 3810   8.850   3.421   9.146
  292W        W 3811   7.157   7.368   9.533
  293W        W 3812   0.718   0.157   0.938
  294W        W 3813   3.487   7.657  11.165
  295W        W 3814   1.667   8.384   1.940
  296W        W 3815   8.621   1.639   3.247
  297W        W 3816   6.920   2.021  11.727
  298W        W 3817   2.168   0.761   8.953
  299W        W 3818   7.965   3.966   3.677
  300W        W 3819   4.541   3.650   8.942
  301W        W 3820   1.238   0.993   9.538
  302W        W 3821   5.712   6.378   2.442
  303W        W 3822   6.743   9.072  11.822
  304W        W 3823   8.679   2.640   2.485
  305W        W 3824   6.215   8.244   9.224
  306W        W 3825   4.513   6.768   9.568
  307W        W 3826   3.914   6.679   3.652
  308W        W 3827   5.103   4.657   0.950
  309W        W 3828   0.440   8.536   2.577
  310W        W 3829   7.294   6.012   1.938
  311W        W 3830   8.093   6.345  10.506
  312W        W 3831   4.495   1.866   0.439
  313W        W 3832   6.141   2.692  10.928
  314W        W 3833   2.743   3.254   3.518
  315W        W 3834   6.476   3.000  11.856
  316W        W 3835   7.021   6.921   2.777
  317W        W 3836   8.259   2.034   3.523
  318W        W 3837   5.512   0.541   1.655
  319W        W 3838   4.921   5.212  10.484
  320W        W 3839   2.767   4.714   9.497
  321W        W 3840   5.440   2.273  11.424
  322W        W 3841   2.274   9.326  10.387
  323W        W 3842   9.283   8.898   3.747
  324W        W 3843   3.651   0.559   3.316
  325W        W 3844   6.370   8.396   1.259
  326W        W 3845   8.753   4.503  11.064
  327W        W 3846   4.559   4.168  11.807
  328W        W 3847   9.546   0.694   9.556
  329W        W 3848   5.226   6.608  11.824
  330W        W 3849   8.769   2.110   3.374
  331W        W 3850   6.951   9.237   9.996
  332W        W 3851   3.363   4.583   0.958
  333W        W 3852   9.278   5.191   9.592
  334W        W 3853   5.806   7.942   3.614
  335W        W 3854   2.676   6.946   3.346
  336W        W 3855   2.666   6.708   9.563
  337W        W 3856   5.229   1.150   2.260
  338W        W 3857   1.406   2.089  10.605
  339W        W 3858   4.581   5.085   9.505
  340W        W 3859   0.470   5.929   1.672
  341W        W 3860   8.333   8.510   8.792
  342W        W 3861   6.901   2.790   0.123
  343W        W 3862   3.559   9.097   0.325
  344W        W 3863   4.045   1.833   9.432
  345W        W 3864   1.611   5.183   3.496
  346W        W 3865   0.371   3.429   2.112
  347W        W 3866   9.456   6.274   0.271
  348W        W 3867   3.081   4.761   8.670
  349W        W 3868   3.378   4.256   2.844
  350W        W 3869   2.930   0.387  11.510
  351W        W 3870   5.369   9.888   9.678
  352W        W 3871   8.027   2.396   0.481
  353W        W 3872   4.644   7.792   8.563
  354W        W 3873   4.718   0.915   0.692
  355W        W 3874   9.921   3.320  10.457
  356W        W 3875   9.380   0.619  10.042
  357W        W 3876   5.087   3.317   9.550
  358W        W 3877   7.341   3.627   9.706
  359W        W 3878   0.875   7.475   0.184
  360W        W 3879   3.072   4.143   1.755
  361W        W 3880   8.970   7.393   9.974
  362W        W 3881   0.367   0.876   8.855
  363W        W 3882   3.559   2.387  10.910
  364W        W 3883   4.719   5.107   3.020
  365W        W 3884   9.399   8.539   1.304
  366W        W 3885   1.419   3.567  11.545
  367W        W 3886   4.896   7.121   9.139
  368W        W 3887   0.121   1.067   8.442
  369W        W 3888   4.754   7.830   1.834
  370W        W 3889   9.493   9.645  11.209
  371W        W 3890   6.027   3.280   2.419
  372W        W 3891   5.521   1.757  10.788
  373W        W 3892   5.488   9.866   1.465
  374W        W 3893   2.260   3.967  11.458
  375W        W 3894   4.525   5.066   0.066
  376W        W 3895   2.649   2.206   9.264
  377W        W 3896   2.589   1.055   2.415
  378W        W 3897   5.969   8.193   1.020
  379W        W 3898   2.200   7.933  11.583
  380W        W 3899   4.597   6.144   0.295
  381W        W 3900   8.433   0.205   0.212
  382W        W 3901   3.671   3.399   2.701
  383W        W 3902   2.329   8.096   1.304
  384W        W 3903   3.955   6.365   1.318
  385W        W 3904   7.127   4.681  11.049
  386W        W 3905   9.652   2.395   9.679
  387W        W 3906   4.224   0.003   8.651
  388W        W 3907   6.873   1.517   2.728
  389W        W 3908   4.726   2.700   8.516
  390W        W 3909   3.585   8.106   9.791
  391W        W 3910   9.321   7.590   1.291
  392W        W 3911   1.176   7.310   1.487
  393W        W 3912   4.093   2.789   8.513
  394W        W 3913   2.431   1.553  11.311
  395W        W 3914   8.732   4.835   0.477
  396W        W 3915   2.520   2.477   8.706
  397W        W 3916   0.591   9.594  11.547
  398W        W 3917   7.925   9.877  11.394
  399W        W 3918   1.865   2.987   9.912
  400W        W 3919   5.242   2.683  11.201
  401W        W 3920   0.394   8.654  11.156
  402W        W 3921   4.995   5.552   8.789
  403W        W 3922   2.717   8.107   3.006
  404W        W 3923   0.381   3.233   1.095
  405W        W 3924   3.852   4.615  11.074
  406W        W 3925   1.669   0.484  10.595
  407W        W 3926   6.682   4.718   8.698
  408W        W 3927   4.816   2.416   1.104
  409W        W 3928   7.946   5.194   2.495
  410W        W 3929   4.101   6.140   0.187
  411W        W 3930   8.479   2.103   9.252
  412W        W 3931   5.979   7.425   3.593
  413W        W 3932   5.572   7.329  10.219
  414W        W 3933   2.777   6.661   9.002
  415W        W 3934   8.032   2.389  11.955
  416W        W 3935   3.201   3.118   9.561
  417W        W 3936   5.073   4.501   0.365
  418W        W 3937   8.794   1.632   1.227
  419W        W 3938   0.325   4.557   3.195
  420W        W 3939   1.911   5.369   2.705
  421W        W 3940   2.897   2.570   0.693
  422W        W 3941   3.668   3.941   9.053
  423W        W 3942   0.337   5.565   9.479
  424W        W 3943   4.183   2.784   2.661
  425W        W 3944   1.797   2.539   0.174
  426W        W 3945   5.488   0.113   9.200
  427W        W 3946   1.911   4.237   8.826
  428W        W 3947   2.794   7.658   3.239
  429W        W 3948   3.195   8.606   9.079
  430W        W 3949   6.540   5.147   8.426
  431W        W 3950   9.361   2.846   3.759
  432W        W 3951   9.796   7.780   0.661
  433W        W 3952   3.066   2.227   2.042
  434W        W 3953   0.467   7.472  11.852
  435W        W 3954   8.344   0.698   8.974
  436W        W 3955   4.951   3.560   0.335
  437W        W 3956   8.818   8.984  11.171
  438W        W 3957   4.235   9.968   3.178
  439W        W 3958   6.102   7.578   2.572
  440W        W 3959   3.586   3.637   1.206
  441W        W 3960   2.095   7.424   1.944
  442W        W 3961   6.185   1.477   1.839
  443W        W 3962   8.120   7.385   9.730
  444W        W 3963   9.711   2.944   0.932
  445W        W 3964   2.883   0.935   2.799
  446W        W 3965   8.040   5.568  11.457
  447W        W 3966   7.156   6.743   0.840
  448W        W 3967   9.199   7.391  11.505
  449W        W 3968   7.953   1.647   0.843
  450W        W 3969   6.884   9.541   0.179
  451W        W 3970   0.722   6.606   0.002
  452W        W 3971   4.233   2.056   0.908
  453W        W 3972   8.473   1.264   2.926
  454W        W 3973   2.227   8.108   2.269
  455W        W 3974   1.792   4.912   8.224
  456W        W 3975   9.842   3.500   3.232
  457W        W 3976   6.480   8.348  10.753
  458W        W 3977   4.006   6.172   0.839
  459W        W 3978   4.064   5.187   1.522
  460W        W 3979   8.505   4.632  10.085
  461W        W 3980   8.343   3.610   9.104
  462W        W 3981   3.309   1.993   0.882
  463W        W 3982   5.465   7.483  11.615
  464W        W 3983   0.845   4.499   9.224
  465W        W 3984   6.945   1.280  11.883
  466W        W 3985   0.524   4.398   0.914
  467W        W 3986   9.547   1.889   9.551
  468W        W 3987   8.914   7.070  10.431
  469W        W 3988   0.008   1.219   8.928
  470W        W 3989   5.177   3.517  11.899
  471W        W 3990   9.049   9.096   8.962
  472W        W 3991   3.208   7.380  11.502
  473W        W 3992   1.369   1.386  11.430
  474W        W 3993   1.774   6.041   3.308
  475W        W 3994   4.451   4.552   2.778
  476W        W 3995   9.407   7.704   9.933
  477W        W 3996   9.838   6.058   8.903
  478W        W 3997   6.623   2.140  10.377
  479W        W 3998   7.104   7.960  11.273
  480W        W 3999   7.550   2.580  11.867
  481W        W 4000   6.679   4.351   3.662
  482W        W 4001   7.255   5.645   2.586
  483W        W 4002   4.139   5.680   1.011
  484W        W 4003   0.534   2.719  10.752
  485W        W 4004   6.125   3.182   0.745
  486W        W 4005   8.599   1.092   0.075
  487W        W 4006   6.464   6.848   2.036
  488W        W 4007   6.662   9.745   0.925
  489W        W 4008   8.576   0.594  10.509
  490W        W 4009   0.751   8.413   8.934
  491W        W 4010   1.635   1.477   1.798
  492W        W 4011   5.425   6.614  11.326
  493W        W 4012   5.248   2.963   1.701
  494W        W 4013   6.670   0.022   9.945
  495W        W 4014   3.988   7.968   0.220
  496W        W 4015   4.142   1.675  11.646
  497W        W 4016   7.318   0.353   9.195
  498W        W 4017   6.946   4.177   9.348
  499W        W 4018   3.883   1.800   1.429
  500W        W 4019   2.292   4.616   8.717
  501W        W 4020   2.921   4.142  10.592
  502W        W 4021   5.456   5.194  11.806
  503W        W 4022   2.890   1.138   0.016
  504W        W 4023   9.528   5.105   9.153
  505W        W 4024   4.907   4.199  10.515
  506W        W 4025   4.148   1.535  10.758
  507W        W 4026   2.595   3.960   0.907
  508W        W 4027   3.757   8.815  11.945
  509W        W 4028   6.268   6.193   9.773
  510W        W 4029   9.711   4.527   3.106
  511W        W 4030   4.759   4.884   2.562
  512W        W 4031   2.983   0.787   0.427
  513W        W 4032   4.906   3.616   3.529
  514W        W 4033   8.340   3.936   1.830
  515W        W 4034   1.574   5.093   2.976
  516W        W 4035   2.970   1.372   2.286
  517W        W 4036   9.142   0.835   1.572
  518W        W 4037   2.454   5.301   0.695
  519W        W 4038   3.154   7.551   8.850
  520W        W 4039   3.324   2.090  11.911
  521W        W 4040   8.903   6.379   1.566
  522W        W 4041   0.447   5.431   1.644
  523W        W 4042   8.449   9.809  11.131
  524W        W 4043   3.212   0.982  10.873
  525W        W 4044   6.903   2.494   3.040
  526W        W 4045   4.549   5.587  10.541
  527W        W 4046   3.731   5.412   8.928
  528W        W 4047   1.348   1.623   3.552
  529W        W 4048   0.319   9.704   0.004
  530W        W 4049   5.080   2.964  10.208
  531W        W 4050   5.784   2.560   3.549
  532W        W 4051   9.538   9.803   8.851
  533W        W 4052   9.226   3.759   9.328
  534W        W 4053   7.341   7.218  11.926
  535W        W 4054   2.356   7.387   3.348
  536W        W 4055   1.230   6.442  11.397
  537W        W 4056   0.543   0.283   9.913
  538W        W 4057   1.267   5.369  11.670
  539W        W 4058   5.589   8.641   0.184
  540W        W 4059   4.140   3.922   8.381
  541W        W 4060   1.417   3.552   1.533
  542W        W 4061   1.535   8.474   3.590
  543W        W 4062   2.555   5.315   4.075
  544W        W 4063   2.693   2.674  10.802
  545W        W 4064   8.446   2.645   1.652
  546W        W 4065   6.143   6.363   1.343
  547W        W 4066   6.722   5.749   1.351
  548W        W 4067   4.970   9.599   1.720
  549W        W 4068   8.060   0.182  11.854
  550W        W 4069   7.970   9.675   0.988
  551W        W 4070   1.464   3.516  11.013
  552W        W 4071   1.727   3.291   1.957
  553W        W 4072   7.615   2.308   1.279
  554W        W 4073   7.101   5.562   2.108
  555W        W 4074   9.675   5.328   1.931
  556W        W 4075   1.677   2.739  11.710
  557W        W 4076   8.514   1.490  10.015
  558W        W 4077   3.675   8.849   2.125
  559W        W 4078   5.044   8.066   0.122
  560W        W 4079   7.623   4.654   1.284
  561W        W 4080   2.409   7.022   2.036
  562W        W 4081   7.030   0.646   0.797
  563W        W 4082   5.936   9.964  10.429
  564W        W 4083   8.138   5.108   9.091
  565W        W 4084   5.844   7.547   9.836
  566W        W 4085   0.943   9.527   1.875
  567W        W 4086   2.000   3.077   2.864
  568W        W 4087   9.494   3.413   9.724
  569W        W 4088   6.575   8.852   1.194
  570W        W 4089   7.782   6.201   2.045
  571W        W 4090   5.070   6.974   1.432
  572W        W 4091   0.468   0.785   9.840
  573W        W 4092   4.516   3.383   3.788
  574W        W 4093   1.375   6.044   2.549
  575W        W 4094   6.996   4.513   1.811
  576W        W 4095   9.587   2.970  11.052
  577W        W 4096   1.134   4.635   9.637
  578W        W 4097   0.339   9.593  11.083
  579W        W 4098   6.551   4.345   9.047
  580W        W 4099   4.354   1.119   2.429
  581W        W 4100   9.482   2.945   1.454
  582W        W 4101   9.737   9.381   1.278
  583W        W 4102   9.624   6.097  11.053
  584W        W 4103   0.264   0.508  11.745
  585W        W 4104   6.939   5.099  11.259
  586W        W 4105   4.959   2.341   2.118
  587W        W 4106   1.372   6.447   1.430
  588W        W 4107   5.755   0.187   9.957
  589W        W 4108   6.065   0.902   2.820
  590W        W 4109   5.089   3.207  11.509
  591W        W 4110   8.198   7.210  11.514
  592W        W 4111   1.699   4.542   2.704
  593W        W 4112   3.695   6.409   2.210
  594W        W 4113   2.260   2.426  11.069
  595W        W 4114   9.003   4.709   0.906
  596W        W 4115   6.559   5.126   4.284
  597W        W 4116   1.203   5.291   8.501
  598W        W 4117   3.602   7.299  10.379
  599W        W 4118   2.843   0.907   1.722
  600W        W 4119   8.405   2.162   2.521
  601W        W 4120   2.244   8.815   0.714
  602W        W 4121   9.944   6.182   1.913
  603W        W 4122   5.775   5.920   1.281
  604W        W 4123   7.078   3.778   3.222
  605W        W 4124   4.601   3.270   3.295
  606W        W 4125   4.252   2.713   1.883
  607W        W 4126   9.992   4.646  10.477
  608W        W 4127   3.262   5.551   0.809
  609W        W 4128   4.172   0.530   8.662
  610W        W 4129   0.348   4.119   2.932
  611W        W 4130   0.834   4.271  11.731
  612W        W 4131   1.667   2.253  11.447
  613W        W 4132   1.201   8.033  11.234
  614W        W 4133   3.962   0.337  10.941
  615W        W 4134   5.719   7.850   2.768
  616W        W 4135   0.196   0.068   2.169
  617W        W 4136   1.269   1.245   2.057
  618W        W 4137   2.136   3.738  10.410
  619W        W 4138   8.440   2.914   2.102
  620W        W 4139   5.515   5.698   3.166
  621W        W 4140   8.286   8.471  10.618
  622W        W 4141   6.448   2.523   3.283
  623W        W 4142   9.925   5.734   1.008
  624W        W 4143   6.742   1.848  11.037
  625W        W 4144   5.334   2.030   1.977
  626W        W 4145   5.899   5.942  10.013
  627W        W 4146   7.574   8.254   9.388
  628W        W 4147   2.245   6.058   9.211
  629W        W 4148   7.281   0.743  11.796
  630W        W 4149   4.915   4.025   1.993
  631W        W 4150   3.818   5.522   0.121
  632W        W 4151   7.879   4.996   2.949
  633W        W 4152   7.162   0.002  10.986
  634W        W 4153   6.083   6.909   3.130
  635W        W 4154   5.036   7.461  10.268
  636W        W 4155   0.764   7.402   0.683
  637W        W 4156   9.430   9.974  10.801
  638W        W 4157   8.001   1.155  10.139
  639W        W 4158   5.240   6.783   3.704
  640W        W 4159   4.745   3.842   9.880
  641W        W 4160   5.250   5.490   0.705
  642W        W 4161   7.433   1.222  11.024
  643W        W 4162   2.094   7.981   0.461
  644W        W 4163   9.870   1.501  10.526
  645W        W 4164   5.387   1.009   1.798
  646W        W 4165   2.917   8.306  10.930
  647W        W 4166   6.115   8.543  10.415
  648W        W 4167   0.021   9.423   9.541
  649W        W 4168   9.344   6.077   0.734
  650W        W 4169   7.017   0.909   1.237
  651W        W 4170   4.646   4.601   1.203
  652W        W 4171   8.360   2.027   3.021
  653W        W 4172   9.468   8.483   9.730
  654W        W 4173   1.751   3.656   0.262
  655W        W 4174   7.189   3.518  11.988
  656W        W 4175   6.947   0.443   0.335
  657W        W 4176   4.224   3.504  11.959
  658W        W 4177   9.322   3.566   0.301
  659W        W 4178   8.767   6.621   9.185
  660W        W 4179   3.663   5.418   1.256
  661W        W 4180   2.926   9.402   3.223
  662W        W 4181   9.709   1.873   9.035
  663W        W 4182   2.327   7.653  11.054
  664W        W 4183   6.988   5.168   3.978
  665W        W 4184   5.541   9.467   1.149
  666W        W 4185   9.232   3.286   1.799
  667W        W 4186   4.481   6.149   3.153
  668W        W 4187   0.372   7.092   9.759
  669W        W 4188   1.999   6.362   1.718
  670W        W 4189   2.043   0.402  10.967
  671W        W 4190   2.697   0.401   1.172
  672W        W 4191   3.830   2.925  11.227
  673W        W 4192   5.707   9.107   9.237
  674W        W 4193   5.498   7.213   0.424
  675W        W 4194   8.050   6.653  11.867
  676W        W 4195   6.056   7.584  10.326
  677W        W 4196   7.632   6.109   0.270
  678W        W 4197   2.995   1.328   3.548
  679W        W 4198   6.624   1.488   0.894
  680W        W 4199   3.625   3.333   3.733
  681W        W 4200   9.469   5.326   1.426
  682W        W 4201   3.606   0.766   1.277
  683W        W 4202   4.990   2.360   1.593
  684W        W 4203   5.638   7.151   3.171
  685W        W 4204   9.885   0.853  11.765
  686W        W 4205   5.184   7.514   0.069
  687W        W 4206   6.543   5.509   9.221
  688W        W 4207   2.332   9.094   0.265
  689W        W 4208   2.179   5.522  11.670
  690W        W 4209   8.813   9.066   2.811
  691W        W 4210   6.781   4.471  10.041
  692W        W 4211   4.045   9.225   2.807
  693W        W 4212   8.350   8.495   3.297
  694W        W 4213   2.315   7.613   2.357
  695W        W 4214   6.396   2.210  10.945
  696W        W 4215   4.264   1.419  10.244
  697W        W 4216   6.391   1.564   2.895
  698W        W 4217   4.607   0.745   1.170
  699W        W 4218   4.163   9.805   1.414
  700W        W 4219   5.419   7.066  11.919
  701W        W 4220   5.150   2.783  10.692
  702W        W 4221   0.087   9.564  11.544
  703W        W 4222   7.961   5.081   0.005
  704W        W 4223   4.302   5.107   2.709
  705W        W 4224   4.474   6.663   3.152
  706W        W 4225   3.905   3.927  10.365
  707W        W 4226   3.982   4.599   4.046
  708W        W 4227   0.881   9.891   9.745
  709W        W 4228   9.432   1.338   0.319
  710W        W 4229   9.802   3.826   0.651
  711W        W 4230   2.745   0.054  10.517
  712W        W 4231   3.161   4.920   8.192
  713W        W 4232   9.979   6.977   9.013
  714W        W 4233   2.438   8.361   9.025
  715W        W 4234   8.824   7.853   3.395
  716W        W 4235   4.232   3.843  11.582
  717W        W 4236   9.365   7.008  10.673
  718W        W 4237   5.708   6.479   1.096
  719W        W 4238   3.389   5.377   0.356
  720W        W 4239   5.610   7.822  10.390
  721W        W 4240   8.968   7.441   2.349
  722W        W 4241   8.630   4.805   3.082
  723W        W 4242   9.848   1.540   3.096
  724W        W 4243   2.834   1.466  11.629
  725W        W 4244   7.690   3.131   3.174
  726W        W 4245   5.091   5.443   3.088
  727W        W 4246   4.455   0.067   2.419
  728W        W 4247   9.439   0.219   9.721
  729W        W 4248   9.754   2.365  10.894
  730W        W 4249   7.628   5.298  11.662
  731W        W 4250   3.127   6.935   1.206
  732W        W 4251   8.860   6.250   0.826
  733W        W 4252   5.105   2.028   1.206
  734W        W 4253   4.206   5.744   3.411
  735W        W 4254   6.660   1.179   3.112
  736W        W 4255   3.827   4.600   0.050
  737W        W 4256   8.390   3.855   2.341
  738W        W 4257   8.142   5.893   1.163
  739W        W 4258   4.477   2.589   1.441
  740W        W 4259   7.183   7.251   0.774
  741W        W 4260   3.859   3.638   9.845
  742W        W 4261   8.949   4.617   0.043
  743W        W 4262   3.612   7.859  10.286
  744W        W 4263   4.033   8.248   1.524
  745W        W 4264   9.045   8.323   2.147
  746W        W 4265   7.532   8.941  10.503
  747W        W 4266   9.065   4.199   0.870
  748W        W 4267   0.292   2.909   3.544
  749W        W 4268   4.798   2.775  11.436
  750W        W 4269   1.751   0.679   2.278
  751W        W 4270   7.817   1.229  10.634
  752W        W 4271   2.815   3.345   3.017
  753W        W 4272   4.099   0.850  11.041
  754W        W 4273   2.781   8.028   1.638
  755W        W 4274   3.685   4.490   9.351
  756W        W 4275   7.512   4.448   3.079
  757W        W 4276   7.877   4.654   0.303
  758W        W 4277   9.817   7.672   1.995
  759W        W 4278   8.369   4.577  11.458
  760W        W 4279   1.508   0.557   9.398
  761W        W 4280   5.139   2.727   2.718
  762W        W 4281   8.700   6.118  11.956
  763W        W 4282   0.073   5.617   9.032
  764W        W 4283   8.969   7.035   9.451
  765W        W 4284   3.288   9.229   1.403
  766W        W 4285   0.438   6.623   9.932
  767W        W 4286   4.603   5.750   2.236
  768W        W 4287   7.889   1.860   1.337
  769W        W 4288   3.224   3.550  11.907
  770W        W 4289   7.094   6.443   8.317
  771W        W 4290   2.327   2.115  10.123
  772W        W 4291   6.971   6.354   8.800
  773W        W 4292   5.038   9.862   9.217
  774W        W 4293   2.318   1.914  10.922
  775W        W 4294   8.806   6.242  10.570
  776W        W 4295   7.355   3.172   2.696
  777W        W 4296   5.184   3.936  10.159
  778W        W 4297   2.624   7.993  11.285
  779W        W 4298   5.892   2.254  11.026
  780W        W 4299   9.172   9.311  11.510
  781W        W 4300   7.172   6.552   3.915
  782W        W 4301   8.487   7.938  11.043
  783W        W 4302   9.939   1.294  10.071
  784W        W 4303   1.631   3.757   0.793
  785W        W 4304   1.084   8.850   3.554
  786W        W 4305   2.034   3.312   3.372
  787W        W 4306   9.531   8.131   2.011
  788W        W 4307   9.398   4.846  11.816
  789W        W 4308   3.073   3.746   0.924
  790W        W 4309   2.254   3.797   1.800
  791W        W 4310   8.336   8.788   0.208
  792W        W 4311   5.140   8.714  10.937
  793W        W 4312   6.199   9.873   0.278
  794W        W 4313   5.902   1.629   8.470
  795W        W 4314   2.774   4.396   2.120
  796W        W 4315   2.790   2.097   0.935
  797W        W 4316   0.355   6.177   3.238
  798W        W 4317   6.659   9.257   2.357
  799W        W 4318   9.604   7.529  11.778
  800W        W 4319   4.188   8.880   8.823
  801W        W 4320   2.918   0.431   9.362
  802W        W 4321   8.724   6.416  11.219
  803W        W 4322   2.736   3.671  10.656
  804W        W 4323   5.416   0.854  11.070
  805W        W 4324   5.625   1.704   2.255
  806W        W 4325   5.171   8.854  10.445
  807W        W 4326   1.403   0.271   8.951
  808W        W 4327   5.933   8.112   3.145
  809W        W 4328   6.970   2.560   9.808
  810W        W 4329   3.468   4.556   3.927
  811W        W 4330   3.743   1.376   8.634
  812W        W 4331   9.905   6.842   9.976
  813W        W 4332   3.866   8.036   9.084
  814W        W 4333   6.820   2.788  10.228
  815W        W 4334   1.745   5.678   9.583
  816W        W 4335   8.857   0.841   8.960
  817W        W 4336   0.480   1.650   9.840
  818W        W 4337   3.310   8.466  10.637
  819W        W 4338   4.736   7.535   2.317
  820W        W 4339   3.836   9.794  11.829
  821W        W 4340   2.698   3.609   0.074
  822W        W 4341   5.059   6.365   0.234
  823W        W 4342   3.514   0.600   2.205
  824W        W 4343   5.213   5.704   1.196
  825W        W 4344   8.250   4.351   2.346
  826W        W 4345   6.682   8.511   1.821
  827W        W 4346   3.409   9.372   8.613
  828W        W 4347   7.248   1.972   1.445
  829W        W 4348   3.748   9.015   1.627
  830W        W 4349   8.951   9.920  10.950
  831W        W 4350   3.163   8.262   3.216
  832W        W 4351   0.009   1.793   2.668
  833W        W 4352   6.829   5.884   8.947
  834W        W 4353   0.329   0.029  11.607
  835W        W 4354   4.876   1.864   1.805
  836W        W 4355   6.583   8.758  10.445
  837W        W 4356   1.170   0.380  10.723
  838W        W 4357   6.422   2.752  10.522
  839W        W 4358   2.757   9.218  10.650
  840W        W 4359   6.265   3.673   0.736
  841W        W 4360   0.458   1.351  11.276
  842W        W 4361   4.554   9.210   2.790
  843W        W 4362   6.393   9.302   2.778
  844W        W 4363   5.871   4.615  10.491
  845W        W 4364   9.643   1.756   0.115
  846W        W 4365   6.100   9.056  11.166
  847W        W 4366   2.219   3.852   9.005
  848W        W 4367   7.631   2.565  11.353
  849W        W 4368   2.742   6.898   2.807
  850W        W 4369   1.368   3.836   9.290
  851W        W 4370   0.858   2.883  11.512
  852W        W 4371   2.132   0.981   0.833
  853W        W 4372   6.248   5.917   1.656
  854W        W 4373   0.629   2.815   9.543
  855W        W 4374   4.253   2.833   9.538
  856W        W 4375   9.643   0.559   3.571
  857W        W 4376   7.954   7.395   0.399
  858W        W 4377   9.436   8.620  10.243
  859W        W 4378   5.253   5.521   0.171
  860W        W 4379   2.769   3.368   9.699
  861W        W 4380   8.655   3.416   3.215
  862W        W 4381   8.298   1.969   1.688
  863W        W 4382   4.053   8.528   3.898
  864W        W 4383   8.304   3.223  11.443
  865W        W 4384   9.547   3.056   0.275
  866W        W 4385   3.952   2.406  11.270
  867W        W 4386   8.067   5.991   9.577
  868W        W 4387   3.791   4.155   4.276
  869W        W 4388   7.392   4.791   0.398
  870W        W 4389   5.203   2.274   0.181
  871W        W 4390   4.088   7.961   9.547
  872W        W 4391   7.805   1.631  10.297
  873W        W 4392   0.963   9.236   9.552
  874W        W 4393   4.910   5.925   8.427
  875W        W 4394   9.495   1.550   9.963
  876W        W 4395   6.596   2.417   0.936
  877W        W 4396   7.103   6.573   1.335
  878W        W 4397   7.603   3.788   1.957
  879W        W 4398   9.095   9.766  10.438
  880W        W 4399   9.922   4.767   0.904
  881W        W 4400   2.126   9.661   2.105
  882W        W 4401   0.406   4.591   1.783
  883W        W 4402   7.252   2.145   3.216
  884W        W 4403   2.182   3.014  11.444
  885W        W 4404   7.819   3.680   9.497
  886W        W 4405   1.329   9.462   2.623
  887W        W 4406   6.373   5.983   4.143
  888W        W 4407   8.633   5.058  10.379
  889W        W 4408   9.033   4.308  10.638
  890W        W 4409   4.495   7.676  11.368
  891W        W 4410   6.476   1.143   2.633
  892W        W 4411   7.970   0.197   0.981
  893W        W 4412   8.375   3.648  10.210
  894W        W 4413   8.980   4.709  10.273
  895W        W 4414   3.190   6.690  10.869
  896W        W 4415   6.404   7.144   3.480
  897W        W 4416   9.299   2.570  10.820
  898W        W 4417   9.954   9.837   9.238
  899W        W 4418   0.681   4.641  10.875
  900W        W 4419   4.203   4.298  10.612
  901W        W 4420   4.764   2.311   8.989
  902W        W 4421   0.225   3.921   2.245
  903W        W 4422   7.102   2.784  10.667
  904W        W 4423   1.788   6.165   1.244
  905W        W 4424   0.155   5.380   8.345
  906W        W 4425   2.470   3.158   0.193
  907W        W 4426   4.809   6.659   1.968
  908W        W 4427   1.506   8.607   2.799
  909W        W 4428   5.113   0.961   3.307
  910W        W 4429   0.771   7.960   0.021
  911W        W 4430   9.320   7.544   2.718
  912W        W 4431   6.539   7.091   2.968
  913W        W 4432   5.026   4.025  11.978
  914W        W 4433   3.042   7.404   2.880
  915W        W 4434   6.912   2.974   2.833
  916W        W 4435   7.565   1.201   0.503
  917W        W 4436   7.699   9.981   0.366
  918W        W 4437   3.198   7.885   2.846
  919W        W 4438   4.190   6.801   1.433
  920W        W 4439   6.058   3.345   9.198
  921W        W 4440   2.576   8.725   2.401
  922W        W 4441   0.940   7.598  11.677
  923W        W 4442   5.124   8.864   9.120
  924W        W 4443   1.008   5.674  10.897
  925W        W 4444   4.398   4.100   1.961
  926W        W 4445   6.109   5.233   9.307
  927W        W 4446   3.823   9.855   1.018
  928W        W 4447   5.601   0.625   0.776
  929W        W 4448   0.599   7.438  10.901
  930W        W 4449   6.670   9.952   0.466
  931W        W 4450   6.699   0.232   3.596
  932W        W 4451   6.167   4.176   8.269
  933W        W 4452   6.457   4.600   0.481
  934W        W 4453   0.538   3.520  11.765
  935W        W 4454   2.597   0.713   0.775
  936W        W 4455   1.997   2.658   9.557
  937W        W 4456   0.174   0.562  10.734
  938W        W 4457   3.416   2.155   3.554
  939W        W 4458   5.723   2.080  10.430
  940W        W 4459   9.996   2.159  11.484
  941W        W 4460   9.689   1.435   8.595
  942W        W 4461   3.274   3.650  11.021
  943W        W 4462   1.232   3.799   1.986
  944W        W 4463   4.751   2.826   0.818
  945W        W 4464   5.016   9.835   1.252
  946W        W 4465   3.997   3.408  10.402
  947W        W 4466   2.583   3.340  11.596
  948W        W 4467   0.106   6.506   8.873
  949W        W 4468   3.315   1.396  10.041
  950W        W 4469   5.299   6.451   0.760
  951W        W 4470   9.415   2.582  11.333
  952W        W 4471   9.678   6.993   3.540
  953W        W 4472   1.707   2.181   2.428
  954W        W 4473   3.318   3.061   2.406
  955W        W 4474   5.721   1.871   2.716
  956W        W 4475   0.325   0.951   3.370
  957W        W 4476   4.730   5.488   2.680
  958W        W 4477   4.364   7.679   1.102
  959W        W 4478   6.151   7.202  11.433
  960W        W 4479   8.645   2.399   9.647
  961W        W 4480   1.403   9.328   9.810
  962W        W 4481   4.939   9.361  10.490
  963W        W 4482   5.894   0.917   1.780
  964W        W 4483   6.615   3.860   3.457
  965W        W 4484   2.752   0.861  10.631
  966W        W 4485   1.873   6.966   0.851
  967W        W 4486   3.160   7.073   2.529
  968W        W 4487   9.804   4.364   1.304
  969W        W 4488   8.504   4.695   1.408
  970W        W 4489   2.258   1.335  10.894
  971W        W 4490   5.795   5.039   1.347
  972W        W 4491   7.546   6.296   1.596
  973W        W 4492   0.641   5.776   3.136
  974W        W 4493   2.885   0.651  11.078
  975W        W 4494   4.108   1.378   1.618
  976W        W 4495   7.331   6.178   9.564
  977W        W 4496   9.038   6.241   2.649
  978W        W 4497   0.549   7.658   3.157
  979W        W 4498   9.778   0.344   2.189
  980W        W 4499   1.948   9.902  11.989
  981W        W 4500   2.226   5.065   1.855
  982W        W 4501   9.280   7.312   3.538
  983W        W 4502   5.718   6.706   2.827
  984W        W 4503   1.709   2.308   1.448
  985W        W 4504   1.660   5.196   1.070
  986W        W 4505   7.437   2.994  11.549
  987W        W 4506   9.423   5.757   1.128
  988W        W 4507   0.795   7.873   8.845
  989W        W 4508   1.769   5.246  11.767
  990W        W 4509   3.267   8.244   0.439
  991W        W 4510   3.030   7.817  11.020
  992W        W 4511   9.567   5.037  10.429
  993W        W 4512   1.838   8.216   2.946
  994W        W 4513   6.093   1.474   2.347
  995W        W 4514   3.336   3.851  11.495
  996W        W 4515   8.848   3.310  10.485
  997W        W 4516   2.909   2.845   3.151
  998W        W 4517   3.081   9.469   2.379
  999W        W 4518   2.773   1.241  10.999
 1000W        W 4519   1.312   3.307   9.306
 1001W        W 4520   7.004   7.974   0.192
 1002W        W 4521   2.396   8.953  11.346
 1003W        W 4522   3.094   6.584   9.850
 1004W        W 4523   6.674   1.299   1.731
 1005W        W 4524   6.974   4.226   2.243
 1006W        W 4525   9.892   8.267   0.826
 1007W        W 4526   5.039   3.690   8.701
 1008W        W 4527   2.092   1.777   0.399
 1009W        W 4528   4.214   8.414   9.026
 1010W        W 4529   7.867   1.746   3.778
 1011W        W 4530   0.624   0.766   1.175
 1012W        W 4531   6.040   8.546   8.837
 1013W        W 4532   3.115   8.559   2.600
 1014W        W 4533   3.004   1.850   0.496
 1015W        W 4534   9.340   7.918   0.017
 1016W        W 4535   9.937   8.430  11.537
 1017W        W 4536   5.674   8.049   1.809
 1018W        W 4537   1.276   4.047  11.488
 1019W        W 4538   9.104   5.215  10.287
 1020W        W 4539   1.215   0.248   2.591
 1021W        W 4540   2.394   6.680   1.677
 1022W        W 4541   4.122   1.850  11.178
 1023W        W 4542   4.005   7.999   3.401
 1024W        W 4543   8.401   1.198   0.531
 1025W        W 4544   9.839   4.579  11.771
 1026W        W 4545   5.669   0.768  11.906
 1027W        W 4546   3.958   4.890   8.819
 1028W        W 4547   6.557   4.715   2.838
 1029W        W 4548   6.242   5.204   3.879
 1030W        W 4549   8.959   6.479   9.643
 1031W        W 4550   9.065   8.573  10.960
 1032W        W 4551   2.763   2.704   0.209
 1033W        W 4552   9.393   4.733   2.777
 1034W        W 4553   8.626   6.080   1.258
 1035W        W 4554   3.027   6.868  11.420
 1036W        W 4555   7.951   2.768   2.925
 1037W        W 4556   2.155   4.539   1.306
 1038W        W 4557   5.545   3.199   0.073
 1039W        W 4558   5.546   2.265   0.547
 1040W        W 4559   9.816   5.257   0.964
 1041W        W 4560   1.129   5.562   3.214
 1042W        W 4561   6.043   3.479  11.383
 1043W        W 4562   2.246   2.834   9.135
 1044W        W 4563   5.490   4.416  10.766
 1045W        W 4564   4.602   8.293   8.668
 1046W        W 4565   0.766   8.568   1.795
 1047W        W 4566   8.733   9.954   2.024
 1048W        W 4567   1.243   9.992   0.823
 1049W        W 4568   3.567   2.039  11.306
 1050W        W 4569   5.612   5.197   3.130
 1051W        W 4570   4.150   8.635  11.151
 1052W        W 4571   6.794   9.386   1.890
 1053W        W 4572   3.443   2.589   0.616
 1054W        W 4573   0.212   4.317  11.500
 1055W        W 4574   5.178   7.975   2.091
 1056W        W 4575   7.519   7.545   2.300
 1057W        W 4576   7.859   0.624   0.739
 1058W        W 4577   4.210   4.264   2.420
 1059W        W 4578   4.254   3.675   1.691
 1060W        W 4579   4.130   9.911  10.638
 1061W        W 4580   7.882   2.974  10.238
 1062W        W 4581   3.178   9.071   9.815
 1063W        W 4582   6.903   6.950   3.296
 1064W        W 4583   8.261   6.399  11.002
 1065W        W 4584   9.378   4.081   0.497
 1066W        W 4585   5.322   4.415  10.287
 1067W        W 4586   7.065   9.530   0.654
 1068W        W 4587   3.819   9.277   2.358
 1069W        W 4588   3.582   1.856   8.678
 1070W        W 4589   9.831   3.896  11.089
 1071W        W 4590   4.877   5.373  11.861
 1072W        W 4591   6.972   8.604  10.793
 1073W        W 4592   9.699   3.890   0.139
 1074W        W 4593   4.219   2.685  10.903
 1075W        W 4594   1.225   6.697  10.569
 1076W        W 4595   0.968   3.258   0.435
 1077W        W 4596   1.714   8.474  11.802
 1078W        W 4597   1.301   9.717   9.523
 1079W        W 4598   5.612   8.979   0.968
 1080W        W 4599   0.179   7.274  11.174
 1081W        W 4600   0.219   5.913  11.736
 1082W        W 4601   7.618   4.689   1.805
 1083W        W 4602   9.775   5.625  11.789
 1084W        W 4603   4.501   2.257  11.642
 1085W        W 4604   8.267   4.645  10.986
 1086W        W 4605   3.516   6.016   2.904
 1087W        W 4606   4.009   6.810   9.639
 1088W        W 4607   5.178   0.573  11.453
 1089W        W 4608   1.027   1.579   1.754
 1090W        W 4609   5.290   1.209   9.254
 1091W        W 4610   6.769   8.332  11.176
 1092W        W 4611   1.886   2.268   9.906
 1093W        W 4612   8.893   5.728  10.453
 1094W        W 4613   7.118   3.541   0.892
 1095W        W 4614   9.461   8.390  10.701
 1096W        W 4615   8.033   5.003  11.475
 1097W        W 4616   5.591   0.694  10.069
 1098W        W 4617   2.407   3.619   3.186
 1099W        W 4618   7.638   3.902  10.800
 1100W        W 4619   6.148   4.730   9.532
 1101W        W 4620   9.314   9.508   0.891
 1102W        W 4621   4.715   8.644  10.485
 1103W        W 4622   7.013   8.025   2.730
 1104W        W 4623   9.784   7.353   1.039
 1105W        W 4624   6.970   5.314   0.234
 1106W        W 4625   0.668   6.571   2.145
 1107W        W 4626   3.703   2.464   2.709
 1108W        W 4627   7.526   1.553   1.519
 1109W        W 4628   1.908   9.603   3.294
 1110W        W 4629   3.647   8.502   1.743
 1111W        W 4630   3.782   4.159  10.840
 1112W        W 4631   3.601   8.895   2.644
 1113W        W 4632   6.474   6.594   3.194
 1114W        W 4633   8.894   6.484  11.696
 1115W        W 4634   0.405   8.504   9.327
 1116W        W 4635   3.175   9.884   2.690
 1117W        W 4636   0.546   0.472   3.315
 1118W        W 4637   1.135   8.851   0.341
 1119W        W 4638   8.494   5.451  10.712
 1120W        W 4639   6.041   5.564   3.193
 1121W        W 4640   3.714   9.582   8.998
 1122W        W 4641   0.826   8.792  11.458
 1123W        W 4642   4.195   0.623  10.565
 1124W        W 4643   2.045   6.494  11.400
 1125W        W 4644   1.041   4.953  10.548
 1126W        W 4645   6.453   8.135  11.514
 1127W        W 4646   3.784   5.946  10.749
 1128W        W 4647   9.801   4.064  11.661
 1129W        W 4648   0.612   7.588   2.669
 1130W        W 4649   3.178   7.337   0.895
 1131W        W 4650   0.060   5.382   2.901
 1132W        W 4651   1.462   2.951   0.186
 1133W        W 4652   3.696   5.965   0.466
 1134W        W 4653   8.546   8.916   9.039
 1135W        W 4654   9.749   6.458   9.234
 1136W        W 4655   9.117   5.745   2.818
 1137W        W 4656   8.484   2.747  11.470
 1138W        W 4657   6.849   4.969  10.244
 1139W        W 4658   1.637   3.491  10.537
 1140W        W 4659   8.624   3.950   0.927
 1141W        W 4660   7.402   9.457  11.730
 1142W        W 4661   0.360   2.597   9.962
 1143W        W 4662   5.507   7.064   1.149
 1144W        W 4663   8.913   1.225   3.263
 1145W        W 4664   9.933   0.118   8.798
 1146W        W 4665   4.889   3.415   1.542
 1147W        W 4666   4.712   2.971   4.009
 1148W        W 4667   3.044   6.287   2.238
 1149W        W 4668   7.974   3.950   1.426
 1150W        W 4669   3.135   3.375   2.030
 1151W        W 4670   0.610   9.773   2.198
 1152W        W 4671   1.347   9.324   2.146
 1153W        W 4672   1.176   4.558  10.840
 1154W        W 4673   2.031   9.133   3.419
 1155W        W 4674   4.768   3.724  10.386
 1156W        W 4675   2.134   7.109  10.413
 1157W        W 4676   6.232   6.481   2.333
 1158W        W 4677   1.109   7.151  10.359
 1159W        W 4678   6.886   9.524  11.669
 1160W        W 4679   8.542   7.643   9.839
 1161W        W 4680   2.720   7.889   2.149
 1162W        W 4681   6.172   3.241   1.348
 1163W        W 4682   3.018   9.324   1.886
 1164W        W 4683   4.916   2.197  10.793
 1165W        W 4684   8.947   6.683   1.131
 1166W        W 4685   1.186   6.155  10.974
 1167W        W 4686   6.505   2.663   9.570
 1168W        W 4687   1.841   5.271   9.239
 1169W        W 4688   3.214   5.174   2.403
 1170W        W 4689   6.840   7.206  11.864
 1171W        W 4690   7.411   9.863  11.410
 1172W        W 4691   0.572   6.200  10.194
 1173W        W 4692   6.075   0.025   2.648
 1174W        W 4693   9.224   3.663   0.816
 1175W        W 4694   7.542   7.646   0.181
 1176W        W 4695   3.005   2.860   1.409
 1177W        W 4696   0.769   2.630   0.836
 1178W        W 4697   3.837   6.641   8.757
 1179W        W 4698   5.511   4.561   0.612
 1180W        W 4699   3.851   4.039   0.846
 1181W        W 4700   4.618   8.218   0.390
 1182W        W 4701   9.849   9.125   0.295
 1183W        W 4702   1.953   8.746   3.029
 1184W        W 4703   8.855   3.918   3.177
 1185W        W 4704   7.685   1.465   2.892
 1186W        W 4705   4.664   3.986  11.349
 1187W        W 4706   4.884   2.202   2.591
 1188W        W 4707   3.650   3.453   2.189
 1189W        W 4708   3.235   3.149   3.423
 1190W        W 4709   9.781   1.486   3.613
 1191W        W 4710   0.395   9.452   9.160
 1192W        W 4711   2.604   0.565   2.562
 1193W        W 4712   3.114   7.577  11.960
 1194W        W 4713   2.584   6.192   1.649
 1195W        W 4714   7.230   8.970   9.657
 1196W        W 4715   5.634   8.336  10.341
 1197W        W 4716   6.903   4.640  11.514
 1198W        W 4717   8.487   3.491   0.173
 1199W        W 4718   4.472   8.316   2.737
 1200W        W 4719   3.722   8.263  11.902
 1201W        W 4720   7.107   8.692  11.825
 1202W        W 4721   7.757   9.156   8.758
 1203W        W 4722   2.104   6.539  10.059
 1204W        W 4723   3.756   8.123   0.646
 1205W        W 4724   1.640   4.664   1.279
 1206W        W 4725   1.842   1.663   8.584
 1207W        W 4726   5.144   3.204   2.521
 1208W        W 4727   3.582   6.420   7.918
 1209W        W 4728   5.168   7.993  10.160
 1210W        W 4729   9.609   3.362   0.671
 1211W        W 4730   8.184   5.382   1.879
 1212W        W 4731   1.264   0.776  10.382
 1213W        W 4732   8.748   6.544   3.371
 1214W        W 4733   8.781   3.797   9.938
 1215W        W 4734   9.454   8.004   0.983
 1216W        W 4735   6.454   6.038  11.999
 1217W        W 4736   4.130   4.895  11.425
 1218W        W 4737   0.410   6.193   2.710
 1219W        W 4738   3.586   4.050   0.266
 1220W        W 4739   0.798   2.576   9.122
 1221W        W 4740   8.642   7.427  11.917
 1222W        W 4741   8.391   1.378   1.005
 1223W        W 4742   6.022   0.051  11.292
 1224W        W 4743   2.713   9.679  10.849
 1225W        W 4744   9.127   4.217   9.091
 1226W        W 4745   9.263   7.386   8.613
 1227W        W 4746   6.334   1.695   0.324
 1228W        W 4747   6.633   1.659  10.051
 1229W        W 4748   1.045   4.164   0.205
 1230W        W 4749   2.696   0.398   1.686
 1231W        W 4750   1.845   1.291  11.904
 1232W        W 4751   8.541   7.075   2.507
 1233W        W 4752   1.439   1.822   1.500
 1234W        W 4753   8.549   5.001   1.815
 1235W        W 4754   0.476   2.952   2.294
 1236W        W 4755   9.836   8.009  11.285
 1237W        W 4756   3.512   6.301   0.859
 1238W        W 4757   4.982   0.266  11.850
 1239W        W 4758   7.862   4.512  11.367
 1240W        W 4759   4.146   7.003   0.477
 1241W        W 4760   9.037   2.406  10.416
 1242W        W 4761   6.447   9.752   2.417
 1243W        W 4762   7.501   1.919   0.972
 1244W        W 4763   0.144   2.432  10.462
 1245W        W 4764   2.203   2.411   2.534
 1246W        W 4765   5.834   6.465  10.007
 1247W        W 4766   7.337   8.812   1.409
 1248W        W 4767   2.719   1.661  10.702
 1249W        W 4768   0.720   2.576  10.318
 1250W        W 4769   9.071   1.705  10.894
 1251W        W 4770   4.953   7.038   2.334
 1252W        W 4771   5.725   6.477  11.744
 1253W        W 4772   9.067   5.541   0.322
 1254W        W 4773   6.985   7.694   1.628
 1255W        W 4774   4.641   6.884   8.365
 1256W        W 4775   5.545   3.289   9.075
 1257W        W 4776   8.866   4.958   9.374
 1258W        W 4777   7.418   0.289   1.927
 1259W        W 4778   5.620   8.883  11.064
 1260W        W 4779   3.029   6.073   2.717
 1261W        W 4780   1.654   6.750  11.994
 1262W        W 4781   7.574   3.603   2.488
 1263W        W 4782   2.023   7.734   3.156
 1264W        W 4783   9.213   6.775   3.506
 1265W        W 4784   3.198   8.979   2.279
 1266W        W 4785   8.663   8.396   0.265
 1267W        W 4786   2.607   0.891   1.257
 1268W        W 4787   4.790   8.745   2.691
 1269W        W 4788   4.013   8.026  10.954
 1270W        W 4789   2.700   6.258   9.314
 1271W        W 4790   5.478   5.853   9.116
 1272W        W 4791   0.432   9.012   9.460
 1273W        W 4792   9.102   0.895   9.409
 1274W        W 4793   7.602   6.268   3.648
 1275W        W 4794   3.868   3.946   2.111
 1276W        W 4795   0.414   5.100   2.635
 1277W        W 4796   8.968   8.498  10.436
 1278W        W 4797   9.843   0.430  11.484
 1279W        W 4798   2.737   1.306   8.900
 1280W        W 4799   2.700   8.792   9.173
 1281W        W 4800   8.668   9.455  11.413
 1282W        W 4801   8.721   0.335   9.106
 1283W        W 4802   5.587   3.178   0.578
 1284W        W 4803   8.050   7.096  10.968
 1285W        W 4804   6.214   4.482  10.867
 1286W        W 4805   9.718   8.166  10.200
 1287W        W 4806   3.039   9.060   2.768
 1288W        W 4807   1.447   1.758  11.065
 1289W        W 4808   0.408   3.371  11.283
 1290W        W 4809   9.717   1.237   0.919
 1291W        W 4810   6.944   0.414   1.280
 1292W        W 4811   2.033   5.194   3.183
 1293W        W 4812   2.146   2.283   0.456
 1294W        W 4813   4.355   9.432   8.562
 1295W        W 4814   0.271   1.514   3.412
 1296W        W 4815   1.816   5.210   9.772
 1297W        W 4816   9.993   5.117  10.710
 1298W        W 4817   7.004   2.079   1.014
 1299W        W 4818   2.256   6.554   9.139
 1300W        W 4819   3.901   4.266   2.908
 1301W        W 4820   3.813   2.108   9.064
 1302W        W 4821   0.616   7.189  10.443
 1303W        W 4822   7.493   7.153   0.383
 1304W        W 4823   8.132   3.297   9.914
 1305W        W 4824   0.233   2.927  10.362
 1306W        W 4825   5.241   0.678   2.471
 1307W        W 4826   8.959   0.170   0.930
 1308W        W 4827   3.713   8.550   9.061
 1309W        W 4828   7.151   4.004   1.755
 1310W        W 4829   2.815   1.767   1.972
 1311W        W 4830   8.307   7.132   2.953
 1312W        W 4831   7.330   9.852  10.534
 1313W        W 4832   3.801   0.609   2.665
 1314W        W 4833   9.398   0.610  11.691
 1315W        W 4834   3.148   4.914  11.620
 1316W        W 4835   4.750   3.112   8.158
 1317W        W 4836   3.265   4.132   3.717
 1318W        W 4837   6.985   3.678  10.084
 1319W        W 4838   6.442   9.014   9.967
 1320W        W 4839   9.964   6.508  10.924
 1321W        W 4840   5.090   2.679   9.780
 1322W        W 4841   7.861   8.570   3.530
 1323W        W 4842   6.931   3.319   2.437
 1324W        W 4843   3.883   7.161   3.789
 1325W        W 4844   1.785   9.625  10.530
 1326W        W 4845   6.675   1.682   1.380
 1327W        W 4846   2.175   7.430   8.860
 1328W        W 4847   4.948   9.038   0.432
 1329W        W 4848   9.849   0.392   0.586
 1330W        W 4849   8.892   7.665  11.201
 1331W        W 4850   5.630   9.820  11.509
 1332W        W 4851   5.059   3.026  11.990
 1333W        W 4852   7.578   0.674   3.243
 1334W        W 4853   3.992   3.222   1.860
 1335W        W 4854   7.396   3.051   0.057
 1336W        W 4855   0.732   0.557   9.013
 1337W        W 4856   2.558   1.352   9.385
 1338W        W 4857   9.263   1.457   9.516
 1339W        W 4858   0.821   1.804  11.750
 1340W        W 4859   7.043   9.784   9.699
 1341W        W 4860   0.271   9.923   9.638
 1342W        W 4861   6.168   8.095   9.704
 1343W        W 4862   3.225   9.039  10.758
 1344W        W 4863   1.575   0.777   1.371
 1345W        W 4864   8.468   3.570   2.770
 1346W        W 4865   1.393   7.051   9.115
 1347W        W 4866   0.674   7.455   2.178
 1348W        W 4867   8.493   3.632  11.212
 1349W        W 4868   3.499   5.524  11.672
 1350W        W 4869   2.300   3.170  10.098
 1351W        W 4870   0.849   6.360   1.442
 1352W        W 4871   3.474   5.746   9.771
 1353W        W 4872   8.962   1.355   2.782
 1354W        W 4873   2.605   8.489  11.314
 1355W        W 4874   1.809   9.310   2.413
 1356W        W 4875   4.489   2.383  10.101
 1357W        W 4876   7.860   3.201   2.672
 1358W        W 4877   2.258   3.793  10.921
 1359W        W 4878   1.415   9.322  11.863
 1360W        W 4879   7.348   7.995  11.814
 1361W        W 4880   4.717   1.385   0.206
 1362W        W 4881   7.530   8.384   1.630
 1363W        W 4882   4.158   2.920  10.414
 1364W        W 4883   5.645   4.200   1.562
 1365W        W 4884   3.679   0.384   0.739
 1366W        W 4885   1.718   0.025  10.843
 1367W        W 4886   9.037   6.960   8.894
 1368W        W 4887   1.013   4.062   9.010
 1369W        W 4888   9.421   0.405   0.889
 1370W        W 4889   6.596   8.000   2.472
 1371W        W 4890   2.137   0.372  10.456
 1372W        W 4891   5.218   8.986  11.411
 1373W        W 4892   2.889   3.837   8.453
 1374W        W 4893   1.878   5.429  10.791
 1375W        W 4894   2.304   3.544   1.349
 1376W        W 4895   4.344   4.004   0.644
 1377W        W 4896   4.007   6.043   3.056
 1378W        W 4897   9.096   4.992  11.214
 1379W        W 4898   1.946   6.989   9.066
 1380W        W 4899   6.616   5.550   2.288
 1381W        W 4900   8.538   3.780  11.701
 1382W        W 4901   7.041   1.910  10.598
 1383W        W 4902   5.791   2.654  11.344
 1384W        W 4903   7.450   8.124   2.951
 1385W        W 4904   6.274   6.165  10.297
 1386W        W 4905   6.480   5.783  11.076
 1387W        W 4906   3.081   2.163  11.447
 1388W        W 4907   4.350   7.614   3.197
 1389W        W 4908   7.696   4.620   0.780
 1390W        W 4909   6.683   4.147   1.624
 1391W        W 4910   4.021   2.258   1.817
 1392W        W 4911   4.749   9.582   2.466
 1393W        W 4912   0.975   1.224  10.397
 1394W        W 4913   4.442   7.434   1.911
 1395W        W 4914   4.931   8.028   3.881
 1396W        W 4915   9.408   9.698  11.760
 1397W        W 4916   4.687   2.321   0.634
 1398W        W 4917   5.338   3.450   1.826
 1399W        W 4918   1.220   0.961   0.498
 1400W        W 4919   8.273   5.627   2.511
 1401W        W 4920   0.021   0.222   1.701
 1402W        W 4921   3.624   6.882   2.500
 1403W        W 4922   1.345   4.574   0.337
 1404W        W 4923   2.974   4.681  10.534
 1405W        W 4924   8.718   7.242  11.447
 1406W        W 4925   0.732   2.103  11.103
 1407W        W 4926   1.135   3.014   3.092
 1408W        W 4927   1.061   8.396   9.356
 1409W        W 4928   1.898   7.081   2.266
 1410W        W 4929   4.563   4.125   9.175
 1411W        W 4930   5.975   7.184   0.896
 1412W        W 4931   9.227   5.217   2.775
 1413W        W 4932   4.196   6.339   9.542
 1414W        W 4933   2.473   1.692   1.131
 1415W        W 4934   4.302   3.736   9.597
 1416W        W 4935   5.938   9.456   3.008
 1417W        W 4936   8.481   6.581   1.341
 1418W        W 4937   1.378   7.138   9.918
 1419W        W 4938   3.126   9.524  10.039
 1420W        W 4939   4.196   0.402   9.158
 1421W        W 4940   3.259   1.138   1.352
 1422W        W 4941   3.153   6.531   9.339
 1423W        W 4942   8.912   4.633   9.767
 1424W        W 4943   2.181   0.119   0.426
 1425W        W 4944   3.277   1.768   2.727
 1426W        W 4945   0.406   4.000  11.855
 1427W        W 4946   5.470   5.774  10.278
 1428W        W 4947   8.857   7.917   0.211
 1429W        W 4948   2.564   9.940   1.298
 1430W        W 4949   5.532   4.011   3.353
 1431W        W 4950   3.486   0.877   0.759
 1432W        W 4951   0.161   3.112   3.096
 1433W        W 4952   5.536   1.208  10.682
 1434W        W 4953   7.773   7.490   1.263
 1435W        W 4954   4.702   3.916   1.552
 1436W        W 4955   4.032   8.180  10.012
 1437W        W 4956   8.613   5.377   0.635
 1438W        W 4957   5.038   4.657  10.707
 1439W        W 4958   9.763   8.635   2.832
 1440W        W 4959   9.002   5.482  11.353
 1441W        W 4960   9.986   3.081  11.970
 1442W        W 4961   2.278   1.245   1.442
 1443W        W 4962   6.917   6.844  10.213
 1444W        W 4963   7.657   8.852   1.821
 1445W        W 4964   2.054   1.271   0.396
 1446W        W 4965   1.639   2.690   3.122
 1447W        W 4966   5.845   0.465   8.942
 1448W        W 4967   7.866   0.790   1.223
 1449W        W 4968   1.862   5.704   0.391
 1450W        W 4969   1.758   9.862   8.799
 1451W        W 4970   2.237   2.104   1.365
 1452W        W 4971   4.944   2.788   8.971
 1453W        W 4972   2.222   1.688   9.873
 1454W        W 4973   9.369   3.231   3.000
 1455W        W 4974   2.668   9.479   9.802
 1456W        W 4975   6.950   5.998   2.329
 1457W        W 4976   6.400   6.781  11.024
 1458W        W 4977   8.365   2.865  10.086
 1459W        W 4978   0.160   9.135   1.133
 1460W        W 4979   8.183   9.303   9.138
 1461W        W 4980   3.700   1.626   2.444
 1462W        W 4981   3.686   9.064   9.835
 1463W        W 4982   2.019   8.635   3.553
 1464W        W 4983   3.926   9.221   3.595
 1465W        W 4984   6.059   5.999   2.534
 1466W        W 4985   7.461   6.088   2.427
 1467W        W 4986   5.699   7.028   9.804
 1468W        W 4987   1.775   1.786  10.129
 1469W        W 4988   9.772   9.870   2.001
 1470W        W 4989   7.836   1.603  11.871
 1471W        W 4990   8.584   5.588   1.117
 1472W        W 4991   4.908   2.667   0.320
 1473W        W 4992   2.579   1.959   8.814
 1474W        W 4993   6.251   5.905   0.464
 1475W        W 4994   8.459   3.119   9.012
 1476W        W 4995   6.094   5.455   0.250
 1477W        W 4996   9.356   3.752   3.137
 1478W        W 4997   3.016   1.058   0.905
 1479W        W 4998   8.584   8.385   1.924
 1480W        W 4999   8.486   0.047   9.673
 1481W        W 5000   9.448   1.427  11.255
 1482W        W 5001   6.823   0.251   9.511
 1483W        W 5002   7.036   4.857   3.563
 1484W        W 5003   1.426   1.501   1.076
 1485W        W 5004   8.497   0.326  11.659
 1486W        W 5005   2.313   6.053  10.091
 1487W        W 5006   5.794   7.290  10.676
 1488W        W 5007   2.718   8.864   0.548
 1489W        W 5008   6.638   4.126   0.349
 1490W        W 5009   3.789   4.753   1.688
 1491W        W 5010   6.934   3.440   3.608
 1492W        W 5011   3.178   4.184   9.668
 1493W        W 5012   0.889   9.346   2.370
 1494W        W 5013   7.395   6.547   2.066
 1495W        W 5014   9.301   3.181   9.310
 1496W        W 5015   7.126   6.096   3.689
 1497W        W 5016   2.205   4.980  11.527
 1498W        W 5017   6.473   4.849  11.227
 1499W        W 5018   9.435   8.975   0.577
 1500W        W 5019   5.007   6.804   8.720
 1501W        W 5020   1.225   2.876   0.681
 1502W        W 5021   7.118   2.501   1.331
 1503W        W 5022   1.048   7.401   3.015
 1504W        W 5023   8.114   3.816   0.952
 1505W        W 5024   7.567   0.763  10.830
 1506W        W 5025   8.559   9.861   3.010
 1507W        W 5026   7.748   4.701   2.333
 1508W        W 5027   9.405   0.458  10.664
 1509W        W 5028   9.999   3.024   2.152
 1510W        W 5029   8.528   2.312  10.518
 1511W        W 5030   3.030   5.061   3.293
 1512W        W 5031   4.851   6.048   1.420
 1513W        W 5032   4.030   3.908   1.302
 1514W        W 5033   3.629   3.704   8.498
 1515W        W 5034   3.682   0.010   1.504
 1516W        W 5035   8.472   7.025  10.131
 1517W        W 5036   5.091   5.242   1.842
 1518W        W 5037   3.340   0.875   1.789
 1519W        W 5038   9.483   2.410   1.705
 1520W        W 5039   8.282   6.679   9.060
 1521W        W 5040   8.910   3.091   2.670
 1522W        W 5041   1.703   6.312   2.844
 1523W        W 5042   4.951   0.666  10.975
 1524W        W 5043   8.937   7.094   0.793
 1525W        W 5044   3.997   4.327   0.462
 1526W        W 5045   1.579   6.914   3.553
 1527W        W 5046   9.219   6.075   1.849
 1528W        W 5047   1.317   6.656   0.362
 1529W        W 5048   7.459   0.896   0.888
 1530W        W 5049   9.815   3.241   2.763
 1531W        W 5050   4.076   3.207  10.868
 1532W        W 5051   5.403   2.282   9.983
 1533W        W 5052   8.102   8.405   9.422
 1534W        W 5053   7.676   2.335   2.214
 1535W        W 5054   7.525   1.115   8.554
 1536W        W 5055   6.111   6.709   9.666
 1537W        W 5056   7.423   8.546   9.880
 1538W        W 5057   9.253   4.489  11.106
 1539W        W 5058   3.337   7.970   0.885
 1540W        W 5059   4.269   2.590   3.144
 1541W        W 5060   0.217   1.778  10.264
 1542W        W 5061   9.204   3.133   0.812
 1543W        W 5062   3.495   1.210  10.493
 1544W        W 5063   5.941   2.743  10.317
 1545W        W 5064   4.285   4.430   8.571
 1546W        W 5065   7.403   9.568   0.231
 1547W        W 5066   4.988   6.590  10.580
 1548W        W 5067   7.804   6.340   3.152
 1549W        W 5068   1.736   5.777   9.078
 1550W        W 5069   6.397   1.367  11.502
 1551W        W 5070   0.018   5.869   0.179
 1552W        W 5071   1.850   9.203   9.591
 1553W        W 5072   5.374   8.500  11.336
 1554W        W 5073   1.865   4.696  11.252
 1555W        W 5074   4.715   1.426   0.710
 1556W        W 5075   9.709   7.474   3.346
 1557W        W 5076   5.503   2.245   1.559
 1558W        W 5077   6.949   5.514   8.535
 1559W        W 5078   9.613   6.466   8.696
 1560W        W 5079   1.346   8.445   0.122
 1561W        W 5080   6.575   7.848   9.461
 1562W        W 5081   8.491   6.976   1.026
 1563W        W 5082   9.443   4.172   2.815
 1564W        W 5083   5.040   6.405  11.065
 1565W        W 5084   5.871   1.894   1.252
 1566W        W 5085   4.619   3.536   8.455
 1567W        W 5086   8.097   9.434  11.202
 1568W        W 5087   4.006   3.274   9.509
 1569W        W 5088   9.877   1.310  11.473
 1570W        W 5089   0.240   1.057   0.992
 1571W        W 5090   6.357   3.730   0.231
 1572W        W 5091   2.621   1.944  11.578
 1573W        W 5092   7.711   2.101  11.682
 1574W        W 5093   5.204   7.021   9.986
 1575W        W 5094   3.776   1.727   0.921
 1576W        W 5095   4.167   3.196   9.971
 1577W        W 5096   0.301   3.743  10.926
 1578W        W 5097   8.519   6.605   0.085
 1579W        W 5098   1.240   1.592  11.931
 1580W        W 5099   9.484   3.149   2.358
 1581W        W 5100   2.841   0.147  11.043
 1582W        W 5101   7.555   1.168  11.979
 1583W        W 5102   2.904   4.357   0.820
 1584W        W 5103   0.899   0.088   8.914
 1585W        W 5104   7.034   5.466   1.612
 1586W        W 5105   8.875   7.045   3.267
 1587W        W 5106   8.064   0.060  10.906
 1588W        W 5107   7.228   4.631  10.191
 1589W        W 5108   4.767   3.701   9.394
 1590W        W 5109   6.749   5.181   8.899
 1591W        W 5110   5.431   7.582   1.848
 1592W        W 5111   5.756   6.190  10.435
 1593W        W 5112   7.821   6.627  10.868
 1594W        W 5113   7.477   1.872   1.975
 1595W        W 5114   9.139   3.044   9.890
 1596W        W 5115   1.120   5.700   2.232
 1597W        W 5116   2.131   2.595   1.375
 1598W        W 5117   8.775   4.316   0.479
 1599W        W 5118   8.080   2.799   8.880
 1600W        W 5119   3.585   3.644   0.693
 1601W        W 5120   3.379   0.356  11.071
 1602W        W 5121   9.672   8.571   8.584
 1603W        W 5122   0.217   0.014   0.830
 1604W        W 5123   7.028   9.028  10.475
 1605W        W 5124   4.957   4.020   3.236
 1606W        W 5125   7.128   5.962  11.501
 1607W        W 5126   3.277   0.764  11.403
 1608W        W 5127   5.200   0.058  11.342
 1609W        W 5128   3.823   8.344  10.481
 1610W        W 5129   1.819   3.128   9.384
 1611W        W 5130   9.862   8.033  10.696
 1612W        W 5131   7.401   7.480   9.991
 1613W        W 5132   4.909   5.358   1.385
 1614W        W 5133   7.536   5.588  10.236
 1615W        W 5134   4.951   7.524  11.599
 1616W        W 5135   5.162   0.725  11.955
 1617W        W 5136   9.032   3.156   8.724
 1618W        W 5137   3.064   7.873  11.525
 1619W        W 5138   4.027   2.181  10.808
 1620W        W 5139   9.348   9.963   0.654
 1621W        W 5140   9.522   6.473   2.726
 1622W        W 5141   2.298   0.106   1.900
 1623W        W 5142   8.704   1.844  11.729
 1624W        W 5143   3.910   3.544   8.103
 1625W        W 5144   8.490   0.328   0.767
 1626W        W 5145   6.634   3.227  10.466
 1627W        W 5146   7.830   6.098  10.874
 1628W        W 5147   3.220   2.931   0.309
 1629W        W 5148   2.774   6.423  11.032
 1630W        W 5149   3.640   0.981   3.011
 1631W        W 5150   7.734   8.480  11.299
 1632W        W 5151   3.668   8.826  10.621
 1633W        W 5152   9.840   9.985  11.766
 1634W        W 5153   4.586   3.268  10.257
 1635W        W 5154   1.055   9.671   0.468
 1636W        W 5155   6.586   7.553   3.234
 1637W        W 5156   1.058   2.829  10.710
 1638W        W 5157   5.434   2.741   0.293
 1639W        W 5158   3.277   8.287  10.153
 1640W        W 5159   3.559   4.261  11.279
 1641W        W 5160   0.667   4.903   0.910
 1642W        W 5161   3.550   5.890   9.202
 1643W        W 5162   4.105   0.076   1.831
 1644W        W 5163   1.855   5.862   2.700
 1645W        W 5164   0.412   9.311   8.633
 1646W        W 5165   4.183   2.263   2.719
 1647W        W 5166   3.755   6.346  10.417
 1648W        W 5167   3.820   6.091   9.975
 1649W        W 5168   2.066   1.485   0.874
 1650W        W 5169   9.621   1.005   1.402
 1651W        W 5170   4.619   7.188   3.182
 1652W        W 5171   2.695   8.965   9.658
 1653W        W 5172   6.772   9.958   1.367
 1654W        W 5173   5.160   4.979   3.311
 1655W        W 5174   3.368   1.083   0.292
 1656W        W 5175   4.321   9.114  11.249
 1657W        W 5176   3.761   9.201   1.120
 1658W        W 5177   0.495   4.203   9.526
 1659W        W 5178   1.964   2.705   2.172
 1660W        W 5179   2.350   8.861   8.793
 1661W        W 5180   1.297   7.627   9.963
 1662W        W 5181   9.995   8.075   2.233
 1663W        W 5182   8.149   5.367   0.882
 1664W        W 5183   0.946   0.887   9.988
 1665W        W 5184   1.353   4.915  11.955
 1666W        W 5185   4.170   8.501   0.660
 1667W        W 5186   5.225   5.948   0.445
 1668W        W 5187   2.618   6.448  10.029
 1669W        W 5188   0.885   7.207   9.529
 1670W        W 5189   7.869   6.767   2.107
 1671W        W 5190   0.020   2.125   9.406
 1672W        W 5191   1.679   0.012   9.310
 1673W        W 5192   8.866   0.913   2.552
 1674W        W 5193   4.549   5.167   1.748
 1675W        W 5194   7.508   9.417   0.924
 1676W        W 5195   5.527   3.894  11.852
 1677W        W 5196   6.458   6.034   2.233
 1678W        W 5197   7.441   0.304   0.064
 1679W        W 5198   6.301   0.489   9.211
 1680W        W 5199   0.603   9.059   9.963
 1681W        W 5200   7.945   0.213   2.555
 1682W        W 5201   2.756   5.515   3.198
 1683W        W 5202   7.285   1.785   2.862
 1684W        W 5203   6.127   4.632   3.084
 1685W        W 5204   0.908   2.482   9.861
 1686W        W 5205   2.897   9.577   1.449
 1687W        W 5206   5.102   4.964   0.086
 1688W        W 5207   9.625   0.089   3.363
 1689W        W 5208   5.591   2.534   9.587
 1690W        W 5209   7.417   8.863  11.055
 1691W        W 5210   6.183   4.760   4.147
 1692W        W 5211   6.906   8.212  11.724
 1693W        W 5212   6.132   7.642  10.823
 1694W        W 5213   6.390   6.936   8.735
 1695W        W 5214   3.521   7.585   0.591
 1696W        W 5215   8.038   9.542   1.622
 1697W        W 5216   7.243   6.131  10.084
 1698W        W 5217   0.823   3.931   2.978
 1699W        W 5218   4.567   6.603   2.392
 1700W        W 5219   6.670   0.568  10.477
 1701W        W 5220   8.586   9.061   9.854
 1702W        W 5221   4.262   8.749   2.898
 1703W        W 5222   7.882   8.867   0.456
 1704W        W 5223   3.364   9.168   3.169
 1705W        W 5224   9.760   6.690  10.478
 1706W        W 5225   8.652   3.160  11.818
 1707W        W 5226   2.115   1.461   1.915
 1708W        W 5227   7.205   7.089  11.465
 1709W        W 5228   0.112   7.073   3.279
 1710W        W 5229   2.985   6.378   8.606
 1711W        W 5230   0.687   7.934  10.949
 1712W        W 5231   1.218   3.087  11.157
 1713W        W 5232   1.617   1.220   8.748
 1714W        W 5233   9.777   7.465   8.960
 1715W        W 5234   5.942   9.507  11.787
 1716W        W 5235   4.055   7.156  10.615
 1717W        W 5236   3.371   0.443  10.085
 1718W        W 5237   0.835   8.490   1.275
 1719W        W 5238   8.074   0.154   9.971
 1720W        W 5239   9.556   9.250   3.469
 1721W        W 5240   4.879   8.395  11.362
 1722W        W 5241   2.682   8.299  10.379
 1723W        W 5242   5.989   9.258   1.275
 1724W        W 5243   8.164   7.485   2.621
 1725W        W 5244   0.881   4.094   1.156
 1726W        W 5245   2.082   0.766   1.284
 1727W        W 5246   9.866   8.374   3.263
 1728W        W 5247   5.225   8.027   9.575
 1729W        W 5248   8.357   1.738   0.553
 1730W        W 5249   0.475   5.645   0.332
 1731W        W 5250   0.291   7.966   0.727
 1732W        W 5251   6.280   5.899   1.156
 1733W        W 5252   8.686   8.845  10.696
 1734W        W 5253   4.390   9.705   0.574
 1735W        W 5254   5.333   7.487  10.680
 1736W        W 5255   6.560   0.236   2.126
 1737W        W 5256   3.959   5.105  10.967
 1738W        W 5257   1.730   2.673   9.118
 1739W        W 5258   7.610   0.348  10.104
 1740W        W 5259   1.613   8.037  10.482
 1741W        W 5260   4.675   6.126   4.109
 1742W        W 5261   2.137   2.526  11.570
 1743W        W 5262   0.195   7.522   3.513
 1744W        W 5263   1.441   5.358   0.170
 1745W        W 5264   7.083   7.843   3.232
 1746W        W 5265   2.274   7.409  11.560
 1747W        W 5266   5.692   9.625   8.465
 1748W        W 5267   8.667   3.269  10.006
 1749W        W 5268   4.365   7.807   9.975
 1750W        W 5269   4.597   9.527   1.364
 1751W        W 5270   3.016   1.848   9.955
 1752W        W 5271   6.328   5.077   1.493
 1753W        W 5272   4.467   5.119  10.768
 1754W        W 5273   3.394   6.787   0.795
 1755W        W 5274   9.595   1.824  11.546
 1756W        W 5275   4.618   5.473   8.446
 1757W        W 5276   3.148   5.960   1.077
 1758W        W 5277   5.136   0.156   1.699
 1759W        W 5278   1.373   0.214   2.097
 1760W        W 5279   9.112   6.721   2.508
 1761W        W 5280   7.193   0.822   2.184
 1762W        W 5281   7.714   4.565   9.503
 1763W        W 5282   3.764   4.428  10.381
 1764W        W 5283   8.445   2.667   0.528
 1765W        W 5284   1.269   3.308   2.201
 1766W        W 5285   2.787   8.873   1.963
 1767W        W 5286   1.403   9.398  10.859
 1768W        W 5287   3.270   3.170   2.913
 1769W        W 5288   2.811   5.583   8.880
 1770W        W 5289   8.433   4.519   8.323
 1771W        W 5290   1.338   6.126   2.055
 1772W        W 5291   1.997   0.487   9.477
 1773W        W 5292   1.883   9.148  10.658
 1774W        W 5293   0.008   6.515   1.404
 1775W        W 5294   9.128   6.627   3.017
 1776W        W 5295   8.807   3.125  11.325
 1777W        W 5296   5.775   4.193   3.782
 1778W        W 5297   7.249   9.063   8.788
 1779W        W 5298   0.444   5.654   2.654
 1780W        W 5299   7.705   9.888   1.815
 1781W        W 5300   0.644   5.133   2.012
 1782W        W 5301   6.411   9.773   2.943
 1783W        W 5302   7.086   1.423   1.249
 1784W        W 5303   6.843   0.079  10.575
 1785W        W 5304   1.153   3.308  10.652
 1786W        W 5305   5.470   8.911   1.880
 1787W        W 5306   1.386   3.994   1.272
 1788W        W 5307   5.092   1.740   2.333
 1789W        W 5308   7.847   9.780   3.274
 1790W        W 5309   3.249   0.914   9.874
 1791W        W 5310   6.136   0.195   0.667
 1792W        W 5311   9.885   2.695   1.774
 1793W        W 5312   5.941   6.446   3.314
 1794W        W 5313   6.394   9.049   0.183
 1795W        W 5314   4.153   8.030   8.623
 1796W        W 5315   3.137   6.049   9.536
 1797W        W 5316   7.984   1.433   0.347
 1798W        W 5317   7.531   9.848   9.503
 1799W        W 5318   1.709   7.449   0.802
 1800W        W 5319   6.007   3.711  11.841
 1801W        W 5320   5.886   0.637   3.772
 1802W        W 5321   4.641   1.373   9.869
 1803W        W 5322   2.911   1.726  11.192
 1804W        W 5323   8.025   6.997   2.524
 1805W        W 5324   2.965   5.577   9.726
 1806W        W 5325   2.786   3.060   0.567
 1807W        W 5326   4.019   1.799   9.949
 1808W        W 5327   2.712   9.292   8.220
 1809W        W 5328   5.289   6.128   8.729
 1810W        W 5329   8.045   8.893  10.420
 1811W        W 5330   1.332   4.056  10.980
 1812W        W 5331   5.218   4.436   3.385
 1813W        W 5332   8.176   4.420   3.560
 1814W        W 5333   5.677   6.273   8.358
 1815W        W 5334   8.639   0.828  11.653
 1816W        W 5335   1.247   6.507   2.814
 1817W        W 5336   3.588   5.311  10.501
 1818W        W 5337   6.650   8.119   0.529
 1819W        W 5338   6.566   6.491   8.538
 1820W        W 5339   4.482   9.262  10.769
 1821W        W 5340   9.991   8.978   8.615
 1822W        W 5341   8.845   7.392   1.802
 1823W        W 5342   8.432   4.742   9.580
 1824W        W 5343   8.809   5.773  10.960
 1825W        W 5344   3.687   5.562   2.736
 1826W        W 5345   1.234   2.204  11.118
 1827W        W 5346   6.497   2.089   9.202
 1828W        W 5347   1.001   1.722   1.235
 1829W        W 5348   1.475   4.963  11.458
 1830W        W 5349   2.804   3.145   2.471
 1831W        W 5350   9.981   3.881   1.173
 1832W        W 5351   3.417   0.250   1.146
 1833W        W 5352   3.794   1.254   1.236
 1834W        W 5353   9.148   3.673   8.813
 1835W        W 5354   3.741   7.054   1.428
 1836W        W 5355   0.453   1.820   9.370
 1837W        W 5356   4.549   8.726   0.377
 1838W        W 5357   4.721   6.857  10.033
 1839W        W 5358   3.691   0.762  11.847
 1840W        W 5359   0.158   8.044   0.249
 1841W        W 5360   3.973   0.342   2.243
 1842W        W 5361   7.604   9.793   2.763
 1843W        W 5362   4.997   6.071   0.904
 1844W        W 5363   4.787   8.322  10.879
 1845W        W 5364   6.081   1.360  10.778
 1846W        W 5365   6.006   2.325   3.156
 1847W        W 5366   5.971   4.101   8.731
 1848W        W 5367   0.686   3.590  10.620
 1849W        W 5368   4.729   6.898   2.773
 1850W        W 5369   7.545   4.882   9.877
 1851W        W 5370   5.068   6.128  10.263
 1852W        W 5371   7.315   1.148  10.529
 1853W        W 5372   9.796   7.161   1.920
 1854W        W 5373   2.525   5.975  11.661
 1855W        W 5374   6.306   7.925   3.462
 1856W        W 5375   8.653   3.507   8.670
 1857W        W 5376   2.630   4.044   0.395
 1858W        W 5377   8.260   1.461  10.467
 1859W        W 5378   8.881   5.473   9.487
 1860W        W 5379   1.201   3.734   0.459
 1861W        W 5380   8.373   5.222   2.828
 1862W        W 5381   2.753   4.030   8.895
 1863W        W 5382   0.580   0.220   0.049
 1864W        W 5383   6.889   2.891   8.853
 1865W        W 5384   1.314   5.493   9.086
 1866W        W 5385   3.706   4.287   2.451
 1867W        W 5386   0.028   1.971  10.701
 1868W        W 5387   6.054   6.512   8.691
 1869W        W 5388   5.728   8.507   0.666
 1870W        W 5389   9.748   3.254   1.760
 1871W        W 5390   4.004   9.556   1.906
 1872W        W 5391   9.318   5.689  11.007
 1873W        W 5392   2.581   8.515   0.968
 1874W        W 5393   2.430   0.344   9.245
 1875W        W 5394   8.546   6.054   2.440
 1876W        W 5395   6.868   2.052   2.768
 1877W        W 5396   0.636   3.530   0.704
 1878W        W 5397   9.005   5.331  10.794
 1879W        W 5398   5.860   5.134  10.355
 1880W        W 5399   8.905   0.186   0.410
 1881W        W 5400   2.684   3.404   1.041
 1882W        W 5401   1.947   2.605  10.709
 1883W        W 5402   7.480   1.260  10.045
 1884W        W 5403   9.583   3.823   3.568
 1885W        W 5404   6.798   5.623   2.789
 1886W        W 5405   3.304   8.999   0.904
 1887W        W 5406   7.281   5.487  11.322
 1888W        W 5407   3.845   2.490   9.455
 1889W        W 5408   9.882   9.310  11.065
 1890W        W 5409   0.045   3.607  11.851
 1891W        W 5410   6.320   9.685   1.332
 1892W        W 5411   4.698   1.475  10.529
 1893W        W 5412   5.478   4.683   2.975
 1894W        W 5413   1.817   7.833   2.566
 1895W        W 5414   2.392   4.630   2.379
 1896W        W 5415   0.854   6.535  10.945
 1897W        W 5416   9.924   5.229  11.191
 1898W        W 5417   2.225   9.668   9.992
 1899W        W 5418   3.746   2.631   1.040
 1900W        W 5419   2.371   7.026   0.680
 1901W        W 5420   8.528   6.221   0.425
 1902W        W 5421   3.900   6.684   0.905
 1903W        W 5422   0.495   4.094   9.031
 1904W        W 5423   4.222   8.848  10.666
 1905W        W 5424   3.196   0.742   3.173
 1906W        W 5425   0.299   2.023   1.279
 1907W        W 5426   9.461   9.362  10.755
 1908W        W 5427   8.049   1.981   2.190
 1909W        W 5428   6.449   9.302   1.024
 1910W        W 5429   8.503   6.814  11.611
 1911W        W 5430   2.371   8.433   0.421
 1912W        W 5431   6.788   9.811   9.246
 1913W        W 5432   7.502   2.045  10.386
 1914W        W 5433   2.563   7.003  11.309
 1915W        W 5434   4.591   4.715   9.866
 1916W        W 5435   4.637   1.260   2.964
 1917W        W 5436   0.232   0.417   9.105
 1918W        W 5437   9.430   5.854  11.477
 1919W        W 5438   1.351   9.208   1.651
 1920W        W 5439   3.557   9.271  10.298
 1921W        W 5440   4.769   9.504   0.878
 1922W        W 5441   8.577   8.182  11.516
 1923W        W 5442   0.143   3.722   9.808
 1924W        W 5443   8.524   8.559   9.736
 1925W        W 5444   8.792   5.618  11.801
 1926W        W 5445   8.883   2.601   2.004
 1927W        W 5446   4.059   7.571   9.199
 1928W        W 5447   8.484   8.004  10.512
 1929W        W 5448   7.896   5.910   1.624
 1930W        W 5449   3.240   4.218   9.138
 1931W        W 5450   8.116   6.694   8.558
 1932W        W 5451   2.658   5.269   1.161
 1933W        W 5452   5.382   9.766   1.960
 1934W        W 5453   8.032   0.675   2.324
 1935W        W 5454   0.241   5.907   8.576
 1936W        W 5455   4.635   8.493   1.433
 1937W        W 5456   8.580   8.428   9.235
 1938W        W 5457   1.616   6.795   8.714
 1939W        W 5458   2.333   3.247   0.710
 1940W        W 5459   6.651   4.522  11.980
 1941W        W 5460   0.789   2.295   2.551
 1942W        W 5461   5.035   0.857   8.979
 1943W        W 5462   4.752   2.759   3.257
 1944W        W 5463   8.134   7.692   3.099
 1945W        W 5464   8.435   4.189   1.341
 1946W        W 5465   9.987   6.845   0.509
 1947W        W 5466   1.317   6.313   9.567
 1948W        W 5467   6.406   0.992   0.837
 1949W        W 5468   1.583   7.480   2.273
 1950W        W 5469   4.205   3.575   2.195
 1951W        W 5470   1.224   8.504   9.964
 1952W        W 5471   4.749   2.014   9.433
 1953W        W 5472   5.675   9.688  10.061
 1954W        W 5473   1.908   3.930   9.816
 1955W        W 5474   9.104   6.171  10.971
 1956W        W 5475   5.953   4.436   0.374
 1957W        W 5476   8.863   7.788   1.447
 1958W        W 5477   7.368   0.775   9.881
 1959W        W 5478   0.042   9.631   0.460
 1960W        W 5479   5.129   6.544   2.358
 1961W        W 5480   7.127   1.076   1.726
 1962W        W 5481   1.194   7.085   8.636
 1963W        W 5482   4.717   7.975   1.337
 1964W        W 5483   0.696   3.887  11.390
 1965W        W 5484   0.462   2.390  11.445
 1966W        W 5485   5.856   9.391  10.803
 1967W        W 5486   5.559   1.863   0.862
 1968W        W 5487   7.343   7.653   2.764
 1969W        W 5488   4.325   3.068   2.226
 1970W        W 5489   8.885   9.217   0.943
 1971W        W 5490   0.969   5.762   2.746
 1972W        W 5491   1.633   5.011   2.486
 1973W        W 5492   5.015   2.564   4.248
 1974W        W 5493   4.635   6.983   1.190
 1975W        W 5494   2.082   3.501  11.400
 1976W        W 5495   8.340   3.808   3.203
 1977W        W 5496   6.414   8.891   3.623
 1978W        W 5497   1.392   8.110   2.729
 1979W        W 5498   3.503   4.081   8.183
 1980W        W 5499   6.261   5.683   3.663
 1981W        W 5500   8.381   4.523   0.235
 1982W        W 5501   0.045   9.833  10.207
 1983W        W 5502   5.255   3.533   0.778
 1984W        W 5503   5.624   7.836   2.278
 1985W        W 5504   5.766   7.408   0.035
 1986W        W 5505   2.685   8.607   2.895
 1987W        W 5506   2.954   1.833   3.620
 1988W        W 5507   4.479   2.353  10.608
 1989W        W 5508   5.173   9.531   2.946
 1990W        W 5509   6.859   8.966   1.597
 1991W        W 5510   8.452   7.158  10.648
 1992W        W 5511   0.173   4.144   1.776
 1993W        W 5512   9.806   1.008   3.274
 1994W        W 5513   5.055   9.179   2.604
 1995W        W 5514   1.168   8.486  10.482
 1996W        W 5515   9.647   2.375   3.516
 1997W        W 5516   0.890   0.622   0.277
 1998W        W 5517   1.590   9.055   1.230
 1999W        W 5518   5.462   7.319   3.617
 2000W        W 5519   7.478   1.079   1.360
 2001W        W 5520   6.187   0.759   0.024
 2002W        W 5521   7.790   0.365  10.578
 2003W        W 5522   0.490   1.555   1.240
 2004W        W 5523   5.485   5.074  11.307
 2005W        W 5524   2.333   4.394   0.771
 2006W        W 5525   7.652   7.616  10.423
 2007W        W 5526   4.833   9.961   0.624
 2008W        W 5527   7.273   2.111   9.075
 2009W        W 5528   7.260   5.653   3.982
 2010W        W 5529   1.210   2.226   1.298
 2011W        W 5530   4.328   5.241   3.296
 2012W        W 5531   3.354   5.918   7.920
 2013W        W 5532   1.066   7.061   3.514
 2014W        W 5533   0.329   3.412   3.494
 2015W        W 5534   8.912   7.792  11.693
 2016W        W 5535   5.496   4.252  11.476
 2017W        W 5536   2.608   7.937  10.744
 2018W        W 5537   5.572   1.086   3.572
 2019W        W 5538   4.309   4.694   1.787
 2020W        W 5539   4.973   6.821   3.243
 2021W        W 5540   9.418   7.974  11.002
 2022W        W 5541   9.337   8.998  11.139
 2023W        W 5542   6.018   8.818   0.411
 2024W        W 5543   0.406   7.609   0.383
 2025W        W 5544   8.210   2.874   9.609
 2026W        W 5545   6.160   7.936   0.596
 2027W        W 5546   2.749   7.481  11.300
 2028W        W 5547   0.389   2.705   1.860
 2029W        W 5548   6.893   6.272  11.848
 2030W        W 5549   6.828   7.331   9.058
 2031W        W 5550   2.738   9.726   8.979
 2032W        W 5551   6.761   3.546   8.559
 2033W        W 5552   1.762   8.771   9.321
 2034W        W 5553   5.646   3.824   9.950
 2035W        W 5554   5.944   7.584   1.809
 2036W        W 5555   6.283   4.080   3.845
 2037W        W 5556   6.650   7.355   9.535
 2038W        W 5557   2.286   2.775   0.470
 2039W        W 5558   8.009   2.261   9.073
 2040W        W 5559   9.116   8.203   1.666
 2041W        W 5560   0.776   5.168  11.503
 2042W        W 5561   4.994   0.515   2.972
 2043W        W 5562   6.093   7.402   0.429
 2044W        W 5563   6.331   0.853  11.543
 2045W        W 5564   3.023   6.440   0.898
 2046W        W 5565   9.921   2.209   2.122
 2047W        W 5566   8.706   3.821   9.432
 2048W        W 5567   0.842   7.097  11.829
 2049W        W 5568   2.539   3.556   2.284
 2050W        W 5569   0.892   6.990   9.046
 2051W        W 5570   1.350   7.465   9.466
 2052W        W 5571   2.964   7.063   9.292
 2053W        W 5572   2.803   3.855   9.775
 2054W        W 5573   7.188   3.181   3.211
 2055W        W 5574   5.180   7.084  11.443
 2056W        W 5575   7.188   8.703   0.687
 2057W        W 5576   6.662   3.852   2.916
 2058W        W 5577   9.995   9.556   8.812
 2059W        W 5578   0.264   7.208   2.786
 2060W        W 5579   9.737   7.720   2.496
 2061W        W 5580   2.766   3.705   1.856
 2062W        W 5581   9.224   1.801   0.466
 2063W        W 5582   9.337   2.075  10.641
 2064W        W 5583   0.171   6.576   2.131
 2065W        W 5584   3.213   4.233   8.615
 2066W        W 5585   2.872   5.974  11.286
 2067W        W 5586   8.205   5.407   0.327
 2068W        W 5587   4.571   8.539   2.284
 2069W        W 5588   4.178   7.197  11.393
 2070W        W 5589   9.669   9.113   2.981
 2071W        W 5590   5.057   8.346   1.180
 2072W        W 5591   5.313   5.153   8.763
 2073W        W 5592   1.635   8.214   1.029
 2074W        W 5593   2.613   9.014   1.032
 2075W        W 5594   9.357   5.487   2.374
 2076W        W 5595   1.787   1.363   3.557
 2077W        W 5596   0.932   6.766   3.112
 2078W        W 5597   7.068   0.838   3.107
 2079W        W 5598   0.410   2.665   3.044
 2080W        W 5599   7.982   2.147   0.919
 2081W        W 5600   1.553   7.641   1.277
 2082W        W 5601   9.197   0.389   1.347
 2083W        W 5602   6.254   3.683   3.151
 2084W        W 5603   5.152   4.460   2.052
 2085W        W 5604   5.549   3.151   3.158
 2086W        W 5605   4.895   7.399   0.999
 2087W        W 5606   6.445   9.800   3.475
 2088W        W 5607   5.137   7.307   3.234
 2089W        W 5608   3.294   2.972  11.214
 2090W        W 5609   1.200   5.795   8.666
 2091W        W 5610   0.818   1.140   0.819
 2092W        W 5611   5.443   1.384  11.143
 2093W        W 5612   9.279   7.089   1.188
 2094W        W 5613   3.581   3.418   0.244
 2095W        W 5614   2.638   4.386   1.247
 2096W        W 5615   7.739   8.460   2.663
 2097W        W 5616   9.019   2.233  11.527
 2098W        W 5617   0.718   2.643   3.465
 2099W        W 5618   6.441   7.640   1.730
 2100W        W 5619   8.266   1.220   8.570
 2101W        W 5620   0.710   4.181   1.759
 2102W        W 5621   7.445   4.928  11.365
 2103W        W 5622   9.028   1.365  10.127
 2104W        W 5623   3.213   2.468   1.075
 2105W        W 5624   6.012   8.126  10.705
 2106W        W 5625   0.420   1.341   9.201
 2107W        W 5626   2.856   6.431  10.532
 2108W        W 5627   7.142   7.375   3.458
 2109W        W 5628   7.476   1.790   9.945
 2110W        W 5629   4.940   8.404   1.899
 2111W        W 5630   7.901   8.855   2.304
 2112W        W 5631   4.028   3.091   8.984
 2113W        W 5632   9.587   4.844  11.340
 2114W        W 5633   1.811   2.154  10.958
 2115W        W 5634   0.516   1.223  10.096
 2116W        W 5635   0.061   9.354   3.195
 2117W        W 5636   4.086   4.126   0.002
 2118W        W 5637   7.349   2.685   0.398
 2119W        W 5638   9.421   6.943  10.173
 2120W        W 5639   2.163   6.174   2.996
 2121W        W 5640   5.413   7.117   8.615
 2122W        W 5641   7.217   2.110   0.544
 2123W        W 5642   8.249   3.113   0.410
 2124W        W 5643   3.531   4.052   1.521
 2125W        W 5644   9.898   2.179   1.555
 2126W        W 5645   0.869   2.883   1.742
 2127W        W 5646   5.139   3.830  11.505
 2128W        W 5647   2.473   2.765   2.279
 2129W        W 5648   5.079   8.231   0.668
 2130W        W 5649   2.785   1.356   1.389
 2131W        W 5650   6.375   7.522   0.829
 2132W        W 5651   5.701   5.613  11.957
 2133W        W 5652   8.897   2.206  10.876
 2134W        W 5653   1.715   6.579   9.734
 2135W        W 5654   6.415   3.687  10.496
 2136W        W 5655   0.824   5.345   2.442
 2137W        W 5656   0.827   1.266  11.749
 2138W        W 5657   0.360   5.076   3.158
 2139W        W 5658   9.061   5.663   9.056
 2140W        W 5659   5.636   9.854  10.990
 2141W        W 5660   5.222   4.975   0.563
 2142W        W 5661   4.275   7.811   1.600
 2143W        W 5662   2.077   4.858   2.797
 2144W        W 5663   1.789   6.990   2.754
 2145W        W 5664   8.105   8.707   0.891
 2146W        W 5665   8.259   9.097   8.653
 2147W        W 5666   1.863   5.206  11.236
 2148W        W 5667   5.460   8.436   2.105
 2149W        W 5668   3.482   2.367   8.749
 2150W        W 5669   4.766   8.473   9.106
 2151W        W 5670   1.878   9.594  11.072
 2152W        W 5671   8.981   7.141   2.769
 2153W        W 5672   2.808   3.045  10.455
 2154W        W 5673   6.625   4.303   3.150
 2155W        W 5674   9.129   4.907   3.207
 2156W        W 5675   5.890   5.821   3.996
 2157W        W 5676   8.834   7.881   1.944
 2158W        W 5677   0.793   6.101   0.853
 2159W        W 5678   1.247   2.559  10.324
 2160W        W 5679   7.260   9.882   9.000
 2161W        W 5680   0.247   9.267   1.607
 2162W        W 5681   1.562   8.898  10.938
 2163W        W 5682   3.256   5.658   1.488
 2164W        W 5683   3.328   0.403   9.034
 2165W        W 5684   3.340   9.720   3.142
 2166W        W 5685   7.264   1.580   8.679
 2167W        W 5686   2.355   4.870   9.225
 2168W        W 5687   8.549   4.817   8.995
 2169W        W 5688   0.248   8.842   0.169
 2170W        W 5689   9.832   4.137   9.801
 2171W        W 5690   5.908   1.902   0.501
 2172W        W 5691   3.571   0.159   2.486
 2173W        W 5692   4.178   0.223   0.800
 2174W        W 5693   9.372   9.038   1.078
 2175W        W 5694   3.616   9.577   9.884
 2176W        W 5695   1.046   4.730  11.574
 2177W        W 5696   8.003   6.375   1.277
 2178W        W 5697   1.341   4.233  10.502
 2179W        W 5698   9.365   2.674   0.551
 2180W        W 5699   3.863   1.229   0.738
 2181W        W 5700   2.346   5.418   1.530
 2182W        W 5701   0.580   8.133   2.919
 2183W        W 5702   4.133   1.944   8.501
 2184W        W 5703   9.563   0.566   3.072
 2185W        W 5704   0.920   6.378   9.878
 2186W        W 5705   6.152   9.977  11.784
 2187W        W 5706   6.246   6.683  10.192
 2188W        W 5707   9.247   7.102   0.375
 2189W        W 5708   2.235   9.617   0.342
 2190W        W 5709   6.547   3.305   1.670
 2191W        W 5710   8.233   4.795   0.643
 2192W        W 5711   4.498   7.632   9.490
 2193W        W 5712   7.957   1.398   9.229
 2194W        W 5713   7.095   2.619  11.658
 2195W        W 5714   3.416   6.506   3.102
 2196W        W 5715   7.020   5.156   2.736
 2197W        W 5716   7.129   2.625  11.154
 2198W        W 5717   9.840   9.400   8.350
 2199W        W 5718   8.913   4.541   8.728
 2200W        W 5719   6.245   8.252   1.815
 2201W        W 5720   3.534   7.437   2.627
 2202W        W 5721   6.496   3.282   2.176
 2203W        W 5722   6.542   5.012   0.191
 2204W        W 5723   5.960   5.637  10.425
 2205W        W 5724   9.918   0.814   9.889
 2206W        W 5725   2.172   0.631   0.477
 2207W        W 5726   2.597   8.237  11.765
 2208W        W 5727   1.235   6.814   9.556
 2209W        W 5728   2.691   9.104   1.519
 2210W        W 5729   7.527   4.279  10.466
 2211W        W 5730   8.297   1.004   1.379
 2212W        W 5731   6.289   7.401  11.910
 2213W        W 5732   0.943   2.199   0.059
 2214W        W 5733   2.699   4.977   3.694
 2215W        W 5734   5.086   8.507  10.067
 2216W        W 5735   0.285   7.391   8.869
 2217W        W 5736   7.418   2.304   9.943
 2218W        W 5737   9.197   3.790   1.746
 2219W        W 5738   0.084   1.722   1.644
 2220W        W 5739   2.424   7.961   3.417
 2221W        W 5740   9.868   2.130   1.018
 2222W        W 5741   5.512   8.778  10.069
 2223W        W 5742   5.326   4.177   2.904
 2224W        W 5743   1.141   6.933  11.274
 2225W        W 5744   3.744   4.998   0.381
 2226W        W 5745   3.569   3.088  10.350
 2227W        W 5746   8.387   0.907   9.908
 2228W        W 5747   7.613   6.053   1.161
 2229W        W 5748   2.569   6.484  11.492
 2230W        W 5749   8.955   7.920   9.746
 2231W        W 5750   7.212   9.685   1.755
 2232W        W 5751   4.640   9.735  10.776
 2233W        W 5752   4.851   9.874   9.686
 2234W        W 5753   5.473   6.684   3.272
 2235W        W 5754   9.445   7.400   2.205
 2236W        W 5755   0.001   2.990   0.508
 2237W        W 5756   4.560   6.511  10.900
 2238W        W 5757   5.314   6.185  10.694
 2239W        W 5758   3.023   2.277   3.895
 2240W        W 5759   4.495   5.102   1.241
 2241W        W 5760   1.030   5.647   0.884
 2242W        W 5761   9.441   7.048  11.834
 2243W        W 5762   2.240   0.778  11.544
 2244W        W 5763   6.785   7.730   3.661
 2245W        W 5764   4.393   8.211  11.304
 2246W        W 5765   1.643   3.909  10.239
 2247W        W 5766   3.602   9.412  10.792
 2248W        W 5767   0.961   0.878  10.786
 2249W        W 5768   5.866   9.813   9.560
 2250W        W 5769   9.573   8.906   8.954
 2251W        W 5770   7.595   6.754   9.509
 2252W        W 5771   5.542   8.478   1.122
 2253W        W 5772   7.503   2.787   1.097
 2254W        W 5773   7.386   1.866   0.015
 2255W        W 5774   8.865   3.791   0.475
 2256W        W 5775   3.712   5.020   3.905
 2257W        W 5776   0.532   9.483   9.670
 2258W        W 5777   7.369   9.344  10.789
 2259W        W 5778   8.007   3.565   1.773
 2260W        W 5779   8.057   8.212  10.994
 2261W        W 5780   7.834   9.371  10.368
 2262W        W 5781   2.799   0.980  11.456
 2263W        W 5782   0.431   8.864   8.940
 2264W        W 5783   3.614   3.094   0.652
 2265W        W 5784   1.738   5.130   2.013
 2266W        W 5785   6.697   7.143   0.766
 2267W        W 5786   9.855   8.935   1.996
 2268W        W 5787   0.818   9.727   9.277
 2269W        W 5788   2.046   4.234  11.073
 2270W        W 5789   9.439   0.152  10.259
 2271W        W 5790   4.811   4.845   2.052
 2272W        W 5791   5.907   3.248   3.517
 2273W        W 5792   1.079   3.555   8.928
 2274W        W 5793   8.220   8.008   8.596
 2275W        W 5794   2.203   9.148  11.769
 2276W        W 5795   1.233   8.841   2.033
 2277W        W 5796   1.114   8.902   3.042
 2278W        W 5797   9.799   9.269   0.792
 2279W        W 5798   8.630   1.646  11.222
 2280W        W 5799   8.687   5.232   0.151
 2281W        W 5800   5.798   1.555  10.409
 2282W        W 5801   1.022   8.994  10.515
 2283W        W 5802   7.149   4.592   9.662
 2284W        W 5803   1.369   5.312   9.559
 2285W        W 5804   0.994   1.806  10.760
 2286W        W 5805   4.639   4.821   3.435
 2287W        W 5806   2.710   3.775   2.743
 2288W        W 5807   2.318   6.843  11.746
 2289W        W 5808   8.299   8.405   1.326
 2290W        W 5809   4.227   7.665   2.309
 2291W        W 5810   2.823   2.320  11.884
 2292W        W 5811   0.886   3.146   0.935
 2293W        W 5812   6.067   2.337   8.964
 2294W        W 5813   9.281   5.497  11.856
 2295W        W 5814   1.752   0.785  11.751
 2296W        W 5815   0.972   9.291   0.134
 2297W        W 5816   8.937   2.595   3.423
 2298W        W 5817   6.291   1.266   8.569
 2299W        W 5818   5.816   5.424   3.631
 2300W        W 5819   3.524   4.591   8.362
 2301W        W 5820   8.005   9.189   0.837
 2302W        W 5821   2.341   4.428   0.237
 2303W        W 5822   9.079   8.352   2.640
 2304W        W 5823   4.136   6.260  11.125
 2305W        W 5824   5.589   7.964  11.411
 2306W        W 5825   2.684   7.293  10.281
 2307W        W 5826   6.767   0.538   9.944
 2308W        W 5827   7.744   7.840   9.089
 2309W        W 5828   2.469   8.522   9.548
 2310W        W 5829   0.993   6.011   3.455
 2311W        W 5830   7.908   3.744  10.022
 2312W        W 5831   6.797   8.301  10.348
 2313W        W 5832   3.279   7.039  10.058
 2314W        W 5833   0.194   8.980   0.654
 2315W        W 5834   8.296   3.760   9.706
 2316W        W 5835   8.531   4.298   3.181
 2317W        W 5836   8.498   6.655  10.602
 2318W        W 5837   5.328   7.578   9.844
 2319W        W 5838   9.022   7.927   2.884
 2320W        W 5839   4.168   2.515  11.993
 2321W        W 5840   7.846   9.161  10.843
 2322W        W 5841   1.247   4.105   0.805
 2323W        W 5842   3.310   5.957   3.695
 2324W        W 5843   6.053   8.604  10.919
 2325W        W 5844   6.502   2.943   1.063
 2326W        W 5845   8.930   6.732   8.409
 2327W        W 5846   6.665   3.638  11.043
 2328W        W 5847   9.734   3.979   2.369
 2329W        W 5848   8.451   3.147  10.944
 2330W        W 5849   1.422   6.996   2.116
 2331W        W 5850   3.155   3.737   3.003
 2332W        W 5851   2.405   6.204  10.676
 2333W        W 5852   0.275   7.503   0.928
 2334W        W 5853   7.866   6.953   9.898
 2335W        W 5854   9.895   8.574   9.980
 2336W        W 5855   3.294   6.151  10.045
 2337W        W 5856   5.973   8.978  10.168
 2338W        W 5857   3.825   3.837  11.292
 2339W        W 5858   7.395   4.955   9.404
 2340W        W 5859   0.362   0.237   1.318
 2341W        W 5860   3.229   0.356   8.521
 2342W        W 5861   5.475   5.669   8.619
 2343W        W 5862   7.492   1.319   9.049
 2344W        W 5863   5.730   5.377   8.960
 2345W        W 5864   9.458   7.067   2.594
 2346W        W 5865   9.917   3.485   2.336
 2347W        W 5866   7.121   6.924   1.707
 2348W        W 5867   3.704   1.265  10.944
 2349W        W 5868   7.919   6.154  11.857
 2350W        W 5869   4.423   5.327  11.236
 2351W        W 5870   6.948   6.901   9.486
 2352W        W 5871   8.456   7.495   8.804
 2353W        W 5872   4.436   2.272  11.137
 2354W        W 5873   9.526   8.751   0.124
 2355W        W 5874   4.609   9.013   1.394
 2356W        W 5875   2.837   5.258   1.631
 2357W        W 5876   1.538   0.424  11.102
 2358W        W 5877   0.246   4.570   0.524
 2359W        W 5878   3.369   5.813   0.090
 2360W        W 5879   6.020   3.725   2.692
 2361W        W 5880   1.902   8.126   3.462
 2362W        W 5881   1.965   4.899  10.783
 2363W        W 5882   3.273   1.774   2.207
 2364W        W 5883   8.433   9.223  10.418
 2365W        W 5884   4.237   8.486   3.416
 2366W        W 5885   1.894   4.178   0.983
 2367W        W 5886   8.794   1.077   0.871
 2368W        W 5887   1.603   8.881   9.927
 2369W        W 5888   5.868   0.757   3.273
 2370W        W 5889   5.519   5.381  10.628
 2371W        W 5890   7.619   9.717   1.346
 2372W        W 5891   9.413   8.024   9.500
 2373W        W 5892   0.712   5.741  10.453
 2374W        W 5893   2.048   4.228   1.949
 2375W        W 5894   3.786   1.188  10.077
 2376W        W 5895   7.349   5.122  10.302
 2377W        W 5896   7.893   0.706   9.852
 2378W        W 5897   0.618   0.208   9.388
 2379W        W 5898   9.889   8.359   1.320
 2380W        W 5899   9.455   9.875   9.348
 2381W        W 5900   8.117   7.547  11.921
 2382W        W 5901   9.480   4.508   0.919
 2383W        W 5902   0.124   3.496   1.462
 2384W        W 5903   9.878   7.875   9.789
 2385W        W 5904   8.031   5.847   9.092
 2386W        W 5905   0.442   0.165  10.417
 2387W        W 5906   5.640   4.579   9.454
 2388W        W 5907   5.613   3.510  10.809
 2389W        W 5908   9.110   7.538   9.476
 2390W        W 5909   6.620   4.816   3.871
 2391W        W 5910   1.668   1.380   3.064
 2392W        W 5911   2.603   2.282   2.233
 2393W        W 5912   0.082   6.390  10.208
 2394W        W 5913   4.939   3.193   2.032
 2395W        W 5914   8.635   0.749   1.668
 2396W        W 5915   2.061   1.372   9.498
 2397W        W 5916   5.066   4.706   9.676
 2398W        W 5917   7.291   6.568   9.158
 2399W        W 5918   2.986   1.298  10.436
 2400W        W 5919   3.644   4.695  11.569
 2401W        W 5920   3.704   1.519   9.671
 2402W        W 5921   1.965   2.144  11.875
 2403W        W 5922   4.223   4.977   3.742
 2404W        W 5923   8.055   4.098  11.080
 2405W        W 5924   7.564   4.004   2.835
 2406W        W 5925   6.187   2.973  11.394
 2407W        W 5926   9.732   7.532  10.750
 2408W        W 5927   8.751   1.732   1.728
 2409W        W 5928   7.478   5.661   1.456
 2410W        W 5929   3.004   8.271   1.133
 2411W        W 5930   4.501   1.579   8.564
 2412W        W 5931   3.116   9.949   2.175
 2413W        W 5932   0.968   2.861   2.237
 2414W        W 5933   7.062   3.956   3.709
 2415W        W 5934   5.526   1.690   3.815
 2416W        W 5935   6.944   5.588  10.925
 2417W        W 5936   7.195   5.698   3.106
 2418W        W 5937   9.238   4.136   8.601
 2419W        W 5938   7.241   3.745   9.220
 2420W        W 5939   8.579   9.792   9.235
 2421W        W 5940   9.730   5.179   2.560
 2422W        W 5941   5.152   1.003  10.392
 2423W        W 5942   9.020   6.129   3.168
 2424W        W 5943   5.075   9.665   3.485
 2425W        W 5944   1.293   8.342   3.175
 2426W        W 5945   8.513   5.732   9.761
 2427W        W 5946   7.492   7.772   9.557
 2428W        W 5947   9.318   9.300  10.238
 2429W        W 5948   3.697   7.253  11.576
 2430W        W 5949   4.422   3.681   8.015
 2431W        W 5950   4.386   7.952   9.086
 2432W        W 5951   5.877   6.025   3.001
 2433W        W 5952   6.590   9.855   8.755
 2434W        W 5953   1.508   5.779  10.900
 2435W        W 5954   0.880   1.957   9.776
 2436W        W 5955   3.599   5.778  10.303
 2437W        W 5956   2.387   9.321   0.713
 2438W        W 5957   1.107   1.083   2.513
 2439W        W 5958   1.796   3.554   2.801
 2440W        W 5959   1.866   0.825  11.195
 2441W        W 5960   4.657   4.604   9.364
 2442W        W 5961   0.813   9.268   3.359
 2443W        W 5962   6.518   7.130   0.274
 2444W        W 5963   1.405   7.063   0.645
 2445W        W 5964   1.812   7.643  11.769
 2446W        W 5965   2.059   7.000  11.305
 2447W        W 5966   3.771   1.813   1.940
 2448W        W 5967   3.080   7.668   1.867
 2449W        W 5968   2.169   8.395  10.387
 2450W        W 5969   7.469   8.975   8.332
 2451W        W 5970   7.434   9.866  10.028
 2452W        W 5971   1.472   6.635  10.998
 2453W        W 5972   7.669   9.316   2.484
 2454W        W 5973   1.631   9.756   2.262
 2455W        W 5974   8.186   6.589  10.055
 2456W        W 5975   7.638   6.985   0.826
 2457W        W 5976   8.438   5.243   9.498
 2458W        W 5977   6.100   1.011   1.314
 2459W        W 5978   5.888   7.690   0.953
 2460W        W 5979   4.078   4.132   9.372
 2461W        W 5980   7.678   9.403   1.981
 2462W        W 5981   9.361   0.423   0.364
 2463W        W 5982   5.459   3.397   8.579
 2464W        W 5983   1.452   2.209  11.921
 2465W        W 5984   6.916   1.849   0.218
 2466W        W 5985   7.225   4.061   0.716
 2467W        W 5986   7.063   8.028   9.383
 2468W        W 5987   9.412   2.195   1.271
 2469W        W 5988   1.752   3.851  11.241
 2470W        W 5989   3.645   9.767  10.407
 2471W        W 5990   2.246   6.133   2.494
 2472W        W 5991   7.451   8.705   0.222
 2473W        W 5992   1.253   4.597   2.956
 2474W        W 5993   9.351   3.837  11.771
 2475W        W 5994   6.279   0.483   2.489
 2476W        W 5995   4.789   7.644   3.493
 2477W        W 5996   3.713   2.900   0.176
 2478W        W 5997   9.491   1.099  10.320
 2479W        W 5998   7.292   7.066   9.153
 2480W        W 5999   3.577   6.294   9.571
 2481W        W 6000   5.436   6.181   3.268
 2482W        W 6001   1.489   3.908   8.788
 2483W        W 6002   6.516   4.302  11.520
 2484W        W 6003   6.013   0.531   1.494
 2485W        W 6004   6.290   4.361   9.901
 2486W        W 6005   1.891   7.008   9.982
 2487W        W 6006   2.743   5.734   1.428
 2488W        W 6007   3.383   6.927   9.580
 2489W        W 6008   2.691   9.596  10.311
 2490W        W 6009   8.421   8.987   3.131
 2491W        W 6010   9.773   6.938   9.480
 2492W        W 6011   6.230   9.364   3.765
 2493W        W 6012   5.628   8.768   3.492
 2494W        W 6013   4.933   5.891  11.986
 2495W        W 6014   4.545   1.179   1.457
 2496W        W 6015   7.115   4.359   3.400
 2497W        W 6016   3.589   4.229   3.320
 2498W        W 6017   8.803   3.458   1.026
 2499W        W 6018   5.481   8.459   9.678
 2500W        W 6019   2.647   2.221   0.435
 2501W        W 6020   3.160   0.710  11.911
 2502W        W 6021   6.065   6.897   0.408
 2503W        W 6022   8.706   9.122   0.190
 2504W        W 6023   8.492   7.501   2.249
 2505W        W 6024   0.235   6.866  10.371
 2506W        W 6025   1.469   2.828   2.122
 2507W        W 6026   0.091   3.852   3.554
 2508W        W 6027   8.592   1.240   1.897
 2509W        W 6028   9.004   6.051   0.362
 2510W        W 6029   1.105   6.533   9.143
 2511W        W 6030   5.925   3.534   8.735
 2512W        W 6031   4.081   8.931   0.327
 2513W        W 6032   8.358   1.883   1.144
 2514W        W 6033   8.721   8.231  10.073
 2515W        W 6034   8.005   2.345   3.202
 2516W        W 6035   6.905   3.431   9.506
 2517W        W 6036   0.912   6.650   8.659
 2518W        W 6037   7.939   5.017   9.557
 2519W        W 6038   8.152   0.833  11.510
 2520W        W 6039   2.717   3.573   0.575
 2521W        W 6040   0.649   8.832   0.467
 2522W        W 6041   7.359   2.265  10.833
 2523W        W 6042   4.661   3.602   1.970
 2524W        W 6043   7.212   5.969   8.563
 2525W        W 6044   1.180   7.421   0.986
 2526W        W 6045   0.575   0.837  11.968
 2527W        W 6046   1.480   3.389   8.638
 2528W        W 6047   9.018   8.196   1.169
 2529W        W 6048   3.981   3.823   2.595
 2530W        W 6049   7.233   7.542   1.181
 2531W        W 6050   9.462   8.371  11.788
 2532W        W 6051   4.891   7.973   9.016
 2533W        W 6052   4.700   3.671   0.757
 2534W        W 6053   6.340   5.685  10.075
 2535W        W 6054   5.221   1.817  11.363
 2536W        W 6055   0.733   8.083   1.588
 2537W        W 6056   3.500   7.675   9.280
 2538W        W 6057   5.916   2.333   2.677
 2539W        W 6058   7.992   4.406  10.658
 2540W        W 6059   2.679   6.104   0.624
 2541W        W 6060   7.819   9.342   2.980
 2542W        W 6061   4.512   5.245   2.256
 2543W        W 6062   3.103   1.368   1.797
 2544W        W 6063   4.968   0.041   8.590
 2545W        W 6064   7.485   2.939  11.021
 2546W        W 6065   2.335   6.665  11.000
 2547W        W 6066   1.337   7.190  11.667
 2548W        W 6067   9.537   6.970   8.735
 2549W        W 6068   6.458   1.148   2.141
 2550W        W 6069   0.639   7.123  11.335
 2551W        W 6070   2.107   8.769  10.967
 2552W        W 6071   4.422   7.375   2.714
 2553W        W 6072   5.615   4.039  10.443
 2554W        W 6073   8.034   7.320  10.240
 2555W        W 6074   0.610   9.000   0.941
 2556W        W 6075   2.708   3.165   9.246
 2557W        W 6076   5.472   0.673   2.945
 2558W        W 6077   6.019   2.811   1.123
 2559W        W 6078   7.387   3.250   2.180
 2560W        W 6079   9.250   0.843   3.355
 2561W        W 6080   5.461   4.094   9.322
 2562W        W 6081   1.070   4.559   0.994
 2563W        W 6082   6.994   2.089   1.881
 2564W        W 6083   4.219   2.304   0.455
 2565W        W 6084   6.448   5.315   0.591
 2566W        W 6085   6.488   7.986   0.997
 2567W        W 6086   5.992   8.297   0.268
 2568W        W 6087   2.551   1.257   0.866
 2569W        W 6088   6.344   6.689   3.681
 2570W        W 6089   5.874   4.843   9.029
 2571W        W 6090   5.374   0.350   8.741
 2572W        W 6091   8.376   6.332  11.614
 2573W        W 6092   6.466   9.774  10.444
 2574W        W 6093   7.197   5.652   0.536
 2575W        W 6094   0.343   6.954  11.767
 2576W        W 6095   7.081   1.598   1.766
 2577W        W 6096   8.121   1.131   2.115
 2578W        W 6097   5.738   3.066   9.510
 2579W        W 6098   8.868   9.563   2.719
 2580W        W 6099   4.082   3.614   3.056
 2581W        W 6100   9.353   4.015  10.314
 2582W        W 6101   4.131   3.315  11.452
 2583W        W 6102   6.626   7.096   2.458
 2584W        W 6103   1.855   3.092   8.850
 2585W        W 6104   8.177   2.259  10.919
 2586W        W 6105   2.260   6.959   3.018
 2587W        W 6106   7.797   1.226  11.510
 2588W        W 6107   0.397   1.153   2.027
 2589W        W 6108   8.986   1.267  11.145
 2590W        W 6109   3.630   3.180   9.848
 2591W        W 6110   3.514   4.342   1.959
 2592W        W 6111   1.328   6.648  10.067
 2593W        W 6112   2.122   8.930   2.570
 2594W        W 6113   4.335   1.140   0.988
 2595W        W 6114   1.290   2.912   8.973
 2596W        W 6115   6.956   6.500   3.051
 2597W        W 6116   5.464   6.108  11.176
 2598W        W 6117   8.547   6.059   3.359
 2599W        W 6118   7.557   3.419  10.917
 2600W        W 6119   7.090   2.548   0.819
 2601W        W 6120   3.638   2.119   2.325
 2602W        W 6121   5.659   3.612   9.466
 2603W        W 6122   4.311   3.678  10.104
 2604W        W 6123   0.788   7.895   0.530
 2605W        W 6124   6.666   2.126   2.310
 2606W        W 6125   6.539   7.897  11.026
 2607W        W 6126   9.834   4.186  10.303
 2608W        W 6127   9.726   1.206   9.585
 2609W        W 6128   9.426   2.208   0.762
 2610W        W 6129   5.225   9.256   0.801
 2611W        W 6130   1.139   0.184   9.382
 2612W        W 6131   1.167   4.766   1.438
 2613W        W 6132   9.912   8.302   9.486
 2614W        W 6133   9.940   2.630  11.311
 2615W        W 6134   3.894   5.152   3.028
 2616W        W 6135   7.110   6.002   8.059
 2617W        W 6136   9.383   7.917  11.512
 2618W        W 6137   4.612   6.030   3.619
 2619W        W 6138   4.573   2.064   1.390
 2620W        W 6139   7.588   1.746   0.488
 2621W        W 6140   3.015   5.732  11.725
 2622W        W 6141   2.082   7.897   9.119
 2623W        W 6142   6.885   1.477   3.908
 2624W        W 6143   2.552   2.832  11.747
 2625W        W 6144   3.162   3.329   1.205
 2626W        W 6145   1.849   5.953   3.821
 2627W        W 6146   1.582   4.833   9.479
 2628W        W 6147   9.945   1.484   0.451
 2629W        W 6148   1.359   9.784  10.045
 2630W        W 6149   1.255   5.813   9.605
 2631W        W 6150   9.570   3.947   8.990
 2632W        W 6151   0.973   8.474   2.753
 2633W        W 6152   7.846   5.185  10.148
 2634W        W 6153   8.174   6.201   8.353
 2635W        W 6154   7.076   6.536   9.810
 2636W        W 6155   7.416   7.083   3.139
 2637W        W 6156   0.558   7.113   3.680
 2638W        W 6157   9.754   0.644  10.364
 2639W        W 6158   2.620   7.458   1.880
 2640W        W 6159   1.708   6.166   0.193
 2641W        W 6160   2.641   5.532  11.452
 2642W        W 6161   3.188   9.475   9.047
 2643W        W 6162   1.982   5.942  10.868
 2644W        W 6163   9.017   8.367   9.510
 2645W        W 6164   3.039   7.777   0.472
 2646W        W 6165   1.300   8.820   9.532
 2647W        W 6166   9.373   3.967  11.264
 2648W        W 6167   0.267   9.384  10.124
 2649W        W 6168   1.774   3.951  10.731
 2650W        W 6169   0.219   6.611   9.418
 2651W        W 6170   7.641   0.820  10.319
 2652W        W 6171   7.781   5.115   2.026
 2653W        W 6172   5.567   1.147   3.068
 2654W        W 6173   9.937   0.832   9.262
 2655W        W 6174   3.341   2.215   3.026
 2656W        W 6175   7.516   1.676   3.366
 2657W        W 6176   2.678   0.064   2.677
 2658W        W 6177   7.779   5.310   3.348
 2659W        W 6178   8.092   8.066  11.476
 2660W        W 6179   5.326   6.207   1.265
 2661W        W 6180   4.112   7.031   3.295
 2662W        W 6181   0.355   7.684   1.418
 2663W        W 6182   5.010   3.124   3.584
 2664W        W 6183   7.496   3.162   0.729
 2665W        W 6184   2.216   7.384   1.037
 2666W        W 6185   6.757   9.357   9.538
 2667W        W 6186   1.408   1.482   2.521
 2668W        W 6187   3.549   7.792  11.665
 2669W        W 6188   9.863   9.662   3.551
 2670W        W 6189   5.561   8.790   8.841
 2671W        W 6190   5.061   6.490   9.896
 2672W        W 6191   0.534   0.196   1.823
 2673W        W 6192   2.088   8.719   0.052
 2674W        W 6193   9.738   4.955   9.638
 2675W        W 6194   9.871   7.349   9.859
 2676W        W 6195   5.664   2.659   9.102
 2677W        W 6196   7.476   1.619  10.681
 2678W        W 6197   9.250   7.511  10.865
 2679W        W 6198   7.576   5.763   9.354
 2680W        W 6199   7.722   6.519   2.522
 2681W        W 6200   0.856   6.146   1.911
 2682W        W 6201   1.658   1.974   1.056
 2683W        W 6202   2.330   7.559  10.534
 2684W        W 6203   1.002   5.364  10.223
 2685W        W 6204   6.989   7.796  10.311
 2686W        W 6205   0.927   1.765   8.515
 2687W        W 6206   5.898   1.049   0.844
 2688W        W 6207   6.538   9.812   1.792
 2689W        W 6208   2.666   9.805  11.369
 2690W        W 6209   0.941   9.996  10.250
 2691W        W 6210   6.145   6.681   0.894
 2692W        W 6211   9.393   4.384  11.575
 2693W        W 6212   8.089   3.910  10.563
 2694W        W 6213   7.973   3.684   2.814
 2695W        W 6214   0.538   3.761   2.596
 2696W        W 6215   9.269   9.757   9.948
 2697W        W 6216   0.291   1.169  11.711
 2698W        W 6217   6.731   7.030  10.658
 2699W        W 6218   8.936   4.241  10.110
 2700W        W 6219   3.147   2.381  10.556
 2701W        W 6220   4.220   0.654   0.015
 2702W        W 6221   4.348   4.038   2.882
 2703W        W 6222   9.997   9.350  10.553
 2704W        W 6223   2.114   8.604   2.167
 2705W        W 6224   0.532   3.067   9.973
 2706W        W 6225   0.613   4.971   1.520
 2707W        W 6226   5.320   5.286  10.157
 2708W        W 6227   1.215   6.510   3.564
 2709W        W 6228   1.055   5.171   1.699
 2710W        W 6229   3.398   0.343   2.909
 2711W        W 6230   8.867   6.922   1.585
 2712W        W 6231   4.483   9.516  11.774
 2713W        W 6232   0.773   5.316   2.942
 2714W        W 6233   9.625   1.712   0.768
 2715W        W 6234   7.070   7.340   2.488
 2716W        W 6235   8.313   1.907  10.261
 2717W        W 6236   6.071   2.815   2.655
 2718W        W 6237   5.504   9.079   3.086
 2719W        W 6238   6.501   9.439   0.517
 2720W        W 6239   5.695   1.430   1.107
 2721W        W 6240   0.625   2.848   1.288
 2722W        W 6241   2.448   7.026   9.204
 2723W        W 6242   5.512   9.305   8.811
 2724W        W 6243   3.884   1.260  11.833
 2725W        W 6244   7.714   7.141  11.353
 2726W        W 6245   7.295   1.155   9.490
 2727W        W 6246   6.466   5.612  10.580
 2728W        W 6247   6.177   0.834   8.821
 2729W        W 6248   2.747   1.001   3.275
 2730W        W 6249   3.043   8.075  11.993
 2731W        W 6250   2.786   7.437  10.769
 2732W        W 6251   1.126   2.767   1.215
 2733W        W 6252   8.933   4.950   1.361
 2734W        W 6253   2.606   6.062   8.833
 2735W        W 6254   4.058   7.487  10.228
 2736W        W 6255   1.174   8.296   1.886
 2737W        W 6256   6.906   8.493   1.370
 2738W        W 6257   9.588   7.797   8.617
 2739W        W 6258   0.818   0.242   2.270
 2740W        W 6259   6.712   7.230   1.652
 2741W        W 6260   1.052   8.868  11.003
 2742W        W 6261   3.746   0.612   9.265
 2743W        W 6262   5.643   4.479   1.989
 2744W        W 6263   0.080   0.864  11.291
 2745W        W 6264   1.963   3.375  10.916
 2746W        W 6265   0.170   7.748  11.000
 2747W        W 6266   4.478   5.024  10.267
 2748W        W 6267   5.465   9.682  10.520
 2749W        W 6268   9.797   5.433   9.477
 2750W        W 6269   4.750   2.038   8.542
 2751W        W 6270   5.099   0.784   1.438
 2752W        W 6271   3.146   5.604   9.271
 2753W        W 6272   0.594   6.578   0.890
 2754W        W 6273   3.637   1.625   9.170
 2755W        W 6274   9.175   0.338   3.413
 2756W        W 6275   0.794   1.195   0.284
 2757W        W 6276   6.202   4.973  10.732
 2758W        W 6277   0.377   1.462   2.472
 2759W        W 6278   5.514   0.691  10.588
 2760W        W 6279   9.988   6.394   2.956
 2761W        W 6280   9.194   5.565   1.897
 2762W        W 6281   2.825   8.476   0.204
 2763W        W 6282   9.018   6.570   0.198
 2764W        W 6283   0.852   4.107  10.768
 2765W        W 6284   4.941   0.411   0.346
 2766W        W 6285   3.464   5.077   0.798
 2767W        W 6286   4.946   6.914  10.986
 2768W        W 6287   0.229   5.933  10.443
 2769W        W 6288   8.789   3.006   1.706
 2770W        W 6289   7.661   4.261  11.787
 2771W        W 6290   3.085   2.525  11.082
 2772W        W 6291   9.815   8.002  11.821
 2773W        W 6292   6.512   6.493   9.053
 2774W        W 6293   6.135   4.157  10.448
 2775W        W 6294   0.731   8.186  10.482
 2776W        W 6295   2.045   5.531   1.940
 2777W        W 6296   1.511   8.868  10.427
 2778W        W 6297   2.220   7.706   0.049
 2779W        W 6298   9.036   8.752  11.999
 2780W        W 6299   0.790   3.579   3.363
 2781W        W 6300   9.812   7.922   3.537
 2782W        W 6301   1.783   4.218   1.512
 2783W        W 6302   8.340   0.812   0.895
 2784W        W 6303   3.948   5.992   2.574
 2785W        W 6304   4.377   6.023   1.774
 2786W        W 6305   4.551   0.827   8.817
 2787W        W 6306   3.650   5.839   0.988
 2788W        W 6307   0.416   1.374   0.618
 2789W        W 6308   7.562   6.572   1.129
 2790W        W 6309   2.669   6.142   1.130
 2791W        W 6310   0.160   8.980   2.852
 2792W        W 6311   0.574   5.738   8.946
 2793W        W 6312   8.817   1.245   9.672
 2794W        W 6313   2.617   0.197   0.704
 2795W        W 6314   6.699   7.552   1.229
 2796W        W 6315   2.714   6.646   1.282
 2797W        W 6316   6.233   8.762   1.572
 2798W        W 6317   1.778   2.789   1.702
 2799W        W 6318   4.773   2.937   9.440
 2800W        W 6319   0.629   7.539   9.225
 2801W        W 6320   3.407   3.902  10.592
 2802W        W 6321   4.250   5.820  11.393
 2803W        W 6322   6.069   9.368   9.833
 2804W        W 6323   6.241   4.631   1.270
 2805W        W 6324   8.236   5.056   3.315
 2806W        W 6325   7.878   4.404   2.716
 2807W        W 6326   9.291   0.171  11.914
 2808W        W 6327   1.308   6.036   1.086
 2809W        W 6328   4.840   6.135   1.963
 2810W        W 6329   8.888   2.751   0.755
 2811W        W 6330   5.109   6.935   0.856
 2812W        W 6331   8.563   6.969   8.710
 2813W        W 6332   9.923   8.518  10.511
 2814W        W 6333   9.020   6.823  11.338
 2815W        W 6334   6.262   1.979   1.571
 2816W        W 6335   8.135   0.710   1.787
 2817W        W 6336   8.272   0.164  10.444
 2818W        W 6337   8.211   9.264   0.333
 2819W        W 6338   5.766   0.463   2.571
 2820W        W 6339   6.546   6.703   0.571
 2821W        W 6340   4.518   1.879  10.823
 2822W        W 6341   4.494   6.086   0.794
 2823W        W 6342   0.754   4.810   2.907
 2824W        W 6343   2.402   8.854  10.550
 2825W        W 6344   9.786   6.155  10.563
 2826W        W 6345   9.816   4.945   1.378
 2827W        W 6346   9.539   2.795   2.757
 2828W        W 6347   6.887   4.573  10.575
 2829W        W 6348   2.126   2.097   8.645
 2830W        W 6349   1.239   7.698   8.560
 2831W        W 6350   2.162   2.324   9.114
 2832W        W 6351   5.776   6.870  10.363
 2833W        W 6352   9.471   0.548   2.560
 2834W        W 6353   4.148   4.613   9.591
 2835W        W 6354   3.828   1.362   3.449
 2836W        W 6355   2.289   4.862  11.998
 2837W        W 6356   3.736   6.439   2.714
 2838W        W 6357   1.561   4.121   0.420
 2839W        W 6358   2.164   2.624   2.989
 2840W        W 6359   2.341   3.451   3.757
 2841W        W 6360   1.418   8.988   0.746
 2842W        W 6361   2.783   9.189   8.787
 2843W        W 6362   3.359   8.166  11.241
 2844W        W 6363   6.402   9.241   1.572
 2845W        W 6364   2.745   6.235   3.592
 2846W        W 6365   3.793   2.239  11.732
 2847W        W 6366   7.580   2.403   0.759
 2848W        W 6367   5.672   4.537   2.506
 2849W        W 6368   8.597   1.632   9.395
 2850W        W 6369   8.919   2.375   9.209
 2851W        W 6370   8.938   1.327   9.149
 2852W        W 6371   2.221   9.705   1.607
 2853W        W 6372   9.236   1.334   0.782
 2854W        W 6373   5.406   7.469   2.816
 2855W        W 6374   6.625   4.266   2.611
 2856W        W 6375   2.146   0.013   9.576
 2857W        W 6376   2.587   8.006   0.237
 2858W        W 6377   6.470   3.398   2.684
 2859W        W 6378   5.715   5.752   0.446
 2860W        W 6379   3.160   9.514  10.531
 2861W        W 6380   4.636   4.053   8.647
 2862W        W 6381   2.405   4.073   2.309
 2863W        W 6382   0.859   4.517   0.547
 2864W        W 6383   6.443   8.842   2.598
 2865W        W 6384   8.842   8.840   9.451
 2866W        W 6385   0.615   5.578  11.842
 2867W        W 6386   4.039   6.157   8.677
 2868W        W 6387   8.114   7.493   9.214
 2869W        W 6388   6.921   3.377   9.011
 2870W        W 6389   2.883   1.824  11.998
 2871W        W 6390   5.955   6.889   1.323
 2872W        W 6391   6.945   4.095  11.337
 2873W        W 6392   5.367   6.882   9.097
 2874W        W 6393   2.746   9.299  11.191
 2875W        W 6394   5.090   0.607   1.951
 2876W        W 6395   3.759   0.570  11.354
 2877W        W 6396   1.782   8.321   2.440
 2878W        W 6397   7.251   7.656  10.765
 2879W        W 6398   0.868   1.069   1.803
 2880W        W 6399   2.004   4.478   9.556
 2881W        W 6400   3.691   1.059  11.400
 2882W        W 6401   9.551   1.913   2.895
 2883W        W 6402   8.096   1.750   2.669
 2884W        W 6403   0.832   3.428   2.885
 2885W        W 6404   6.860   1.901   8.846
 2886W        W 6405   6.585   1.658  11.872
 2887W        W 6406   2.897   8.735  10.492
 2888W        W 6407   0.656   8.053   9.325
 2889W        W 6408   7.152   4.382  11.886
 2890W        W 6409   8.974   1.453   0.079
 2891W        W 6410   7.543   0.747   0.296
 2892W        W 6411   8.650   7.558   2.780
 2893W        W 6412   5.627   7.856  10.904
 2894W        W 6413   7.874   7.810   3.549
 2895W        W 6414   9.352   5.408   8.683
 2896W        W 6415   9.225   1.160   8.739
 2897W        W 6416   8.931   8.788   2.414
 2898W        W 6417   8.261   9.667  10.225
 2899W        W 6418   8.468   3.184   1.355
 2900W        W 6419   8.547   3.035   3.540
 2901W        W 6420   6.141   6.233   3.759
 2902W        W 6421   1.397   3.126   9.774
 2903W        W 6422   3.965   6.542   3.161
 2904W        W 6423   0.968   3.789   1.549
 2905W        W 6424   1.159   7.911   9.234
 2906W        W 6425   6.943   7.077   1.221
 2907W        W 6426   9.958   5.511   0.530
 2908W        W 6427   6.055   0.903   2.301
 2909W        W 6428   5.255   6.462   2.859
 2910W        W 6429   6.987   9.120   0.979
 2911W        W 6430   5.444   9.356   1.644
 2912W        W 6431   3.761   4.201   8.618
 2913W        W 6432   1.758   1.038   9.222
 2914W        W 6433   6.189   7.474   1.309
 2915W        W 6434   7.023   5.285   9.322
 2916W        W 6435   6.996   1.443  10.805
 2917W        W 6436   9.795   9.922   2.503
 2918W        W 6437   3.954   5.799   1.480
 2919W        W 6438   6.127   3.616  10.906
 2920W        W 6439   1.302   5.926  11.488
 2921W        W 6440   6.495   5.455  11.935
 2922W        W 6441   7.755   8.488  10.287
 2923W        W 6442   3.737   2.349   0.237
 2924W        W 6443   4.900   0.544   3.536
 2925W        W 6444   9.941   6.232   2.459
 2926W        W 6445   3.189   2.222   2.531
 2927W        W 6446   0.274   0.071  10.878
 2928W        W 6447   1.286   2.870   2.625
 2929W        W 6448   0.193   6.896   1.741
 2930W        W 6449   8.583   8.452  11.058
 2931W        W 6450   8.607   4.471   2.691
 2932W        W 6451   9.292   6.073  10.512
 2933W        W 6452   9.742   0.321   9.251
 2934W        W 6453   3.564   3.501   9.399
 2935W        W 6454   8.060   7.240   0.916
 2936W        W 6455   5.574   3.424  11.596
 2937W        W 6456   0.887   5.212   9.705
 2938W        W 6457   4.593   0.028  10.087
 2939W        W 6458   5.670   5.508   9.447
 2940W        W 6459   6.204   6.157   8.342
 2941W        W 6460   6.615   6.615   2.695
 2942W        W 6461   8.572   2.184  11.262
 2943W        W 6462   0.993   0.523   1.881
 2944W        W 6463   0.228   1.217   9.656
 2945W        W 6464   3.121   3.513   2.546
 2946W        W 6465   6.222   6.718   8.239
 2947W        W 6466   3.536   7.644   2.124
 2948W        W 6467   9.405   8.476   0.754
 2949W        W 6468   5.208   4.641   8.696
 2950W        W 6469   8.964   8.876   3.266
 2951W        W 6470   8.011   1.936   0.230
 2952W        W 6471   1.463   5.568  10.025
 2953W        W 6472   6.467   8.129   0.046
 2954W        W 6473   0.903   0.618   0.785
 2955W        W 6474   5.812   9.249   3.497
 2956W        W 6475   6.082   5.722   9.092
 2957W        W 6476   1.829   0.910   9.708
 2958W        W 6477   0.365   6.164   9.695
 2959W        W 6478   5.711   1.236   2.115
 2960W        W 6479   5.402   2.260  10.890
 2961W        W 6480   1.393   2.444   0.884
 2962W        W 6481   5.272   9.002   0.023
 2963W        W 6482   2.698   0.246   2.180
 2964W        W 6483   1.664   5.671   2.256
 2965W        W 6484   9.033   6.498   2.055
 2966W        W 6485   7.039   3.023   0.983
 2967W        W 6486   7.062   9.544  11.189
 2968W        W 6487   6.493   0.220  11.285
 2969W        W 6488   3.741   1.432   0.301
 2970W        W 6489   3.714   5.646   3.225
 2971W        W 6490   8.989   8.616  11.476
 2972W        W 6491   4.462   3.054  11.163
 2973W        W 6492   8.166   6.011   3.010
 2974W        W 6493   0.736   1.154   9.593
 2975W        W 6494   7.034   6.892   2.221
 2976W        W 6495   0.509   9.301   2.038
 2977W        W 6496   2.150   2.040  11.402
 2978W        W 6497   2.632   2.427  11.403
 2979W        W 6498   7.119   4.196  10.843
 2980W        W 6499   7.824   7.111  11.885
 2981W        W 6500   5.999   4.100  11.472
 2982W        W 6501   8.740   1.764   8.920
 2983W        W 6502   1.709   1.790   2.776
 2984W        W 6503   0.249   1.134   0.210
 2985W        W 6504   7.444   3.505   3.495
 2986W        W 6505   1.483   1.245  10.498
 2987W        W 6506   6.637   3.878   8.178
 2988W        W 6507   6.055   8.746   1.062
 2989W        W 6508   8.432   7.684  11.520
 2990W        W 6509   0.244   4.652   1.294
 2991W        W 6510   9.045   1.651   3.552
 2992W        W 6511   4.198   1.155   8.570
 2993W        W 6512   0.440   9.377   2.613
 2994W        W 6513   5.797   1.859   1.784
 2995W        W 6514   7.204   9.487   9.311
 2996W        W 6515   9.780   9.404  10.033
 2997W        W 6516   1.339   5.382  11.168
 2998W        W 6517   2.322   7.176  10.886
 2999W        W 6518   9.661   6.495   0.677
 3000W        W 6519   5.624   9.817   2.822
 3001W        W 6520   4.901   4.323   9.992
 3002W        W 6521   8.392   9.548   9.736
 3003W        W 6522   0.869   3.394   1.892
 3004W        W 6523   0.315   4.811   2.226
 3005W        W 6524   6.609   6.009  11.510
 3006W        W 6525   2.279   7.206   0.092
 3007W        W 6526   3.966   7.667  11.324
 3008W        W 6527   6.044   1.692  11.657
 3009W        W 6528   7.629   6.573  10.374
 3010W        W 6529   7.584   4.226   1.595
 3011W        W 6530   3.304   1.995   9.089
 3012W        W 6531   2.287   5.314   9.528
 3013W        W 6532   9.972   6.257  11.395
 3014W        W 6533   2.145   8.218   0.005
 3015W        W 6534   0.285   9.853   2.609
 3016W        W 6535   9.774   7.371   2.871
 3017W        W 6536   2.558   3.012   8.770
 3018W        W 6537   8.577   6.448   8.692
 3019W        W 6538   0.007   4.844   2.839
 3020W        W 6539   1.297   2.461   0.365
 3021W        W 6540   1.812   4.987   0.209
 3022W        W 6541   3.895   8.036   1.984
 3023W        W 6542   3.235   1.496  10.850
 3024W        W 6543   1.083   4.993   9.267
 3025W        W 6544   7.574   6.726  11.615
 3026W        W 6545   7.387   3.237   9.283
 3027W        W 6546   0.871   5.315   8.902
 3028W        W 6547   2.592   3.679   9.316
 3029W        W 6548   7.285   3.928  11.700
 3030W        W 6549   9.596   1.915   1.866
 3031W        W 6550   0.618   7.160   3.184
 3032W        W 6551   3.060   5.293  11.984
 3033W        W 6552   5.421   7.475   0.871
 3034W        W 6553   4.211   1.810   3.006
 3035W        W 6554   7.436   7.426   1.654
 3036W        W 6555   5.753   2.189   2.225
 3037W        W 6556   1.940   5.272   0.645
 3038W        W 6557   5.737   1.034   9.065
 3039W        W 6558   2.523   2.062   3.499
 3040W        W 6559   5.566   2.746   1.356
 3041W        W 6560   2.253   0.521   2.193
 3042W        W 6561   2.683   7.374   8.930
 3043W        W 6562   4.535   9.952   1.063
 3044W        W 6563   5.180   5.053   2.782
 3045W        W 6564   7.494   5.331   2.907
 3046W        W 6565   2.718   7.796  10.257
 3047W        W 6566   6.280   0.307   8.717
 3048W        W 6567   9.203   9.755   8.462
 3049W        W 6568   0.002   1.725  11.206
 3050W        W 6569   9.992   8.870   3.382
 3051W        W 6570   7.020   4.736   3.069
 3052W        W 6571   5.561   7.867  11.940
 3053W        W 6572   7.728   8.746   9.523
 3054W        W 6573   3.515   9.315   1.954
 3055W        W 6574   8.661   4.974  10.881
 3056W        W 6575   8.774   9.486  10.108
 3057W        W 6576   8.469   4.146  10.277
 3058W        W 6577   0.339   4.628   9.189
 3059W        W 6578   9.071   9.310   0.463
 3060W        W 6579   8.808   5.123   9.876
 3061W        W 6580   1.927   0.391  11.463
 3062W        W 6581   7.510   9.093   9.232
 3063W        W 6582   7.221   0.360  11.359
 3064W        W 6583   2.153   9.941  11.491
 3065W        W 6584   4.613   6.925   0.687
 3066W        W 6585   2.787   5.998  10.269
 3067W        W 6586   6.882   1.728   3.204
 3068W        W 6587   5.275   7.009  10.511
 3069W        W 6588   8.168   9.303   2.319
 3070W        W 6589   0.503   9.993   3.481
 3071W        W 6590   8.341   7.509   1.782
 3072W        W 6591   9.016   9.822  11.456
 3073W        W 6592   4.341   8.221   1.098
 3074W        W 6593   9.126   1.805   2.570
 3075W        W 6594   1.407   7.649  11.475
 3076W        W 6595   8.368   1.124   3.396
 3077W        W 6596   3.240   0.194   3.358
 3078W        W 6597   8.399   9.369   2.766
 3079W        W 6598   7.479   7.942   1.951
 3080W        W 6599   8.180   2.692  10.554
 3081W        W 6600   6.910   1.583  11.445
 3082W        W 6601   2.262   9.840   2.950
 3083W        W 6602   9.341   7.736   9.058
 3084W        W 6603   9.896   3.281   9.408
 3085W        W 6604   8.014   5.501   9.449
 3086W        W 6605   7.946   4.275   1.959
 3087W        W 6606   6.089   2.328   9.484
 3088W        W 6607   9.501   2.290  11.739
 3089W        W 6608   0.960   9.217   0.661
 3090W        W 6609   2.095   2.282   3.345
 3091W        W 6610   2.519   6.331   0.014
 3092W        W 6611   5.498   6.591   9.618
 3093W        W 6612   7.647   0.288  11.595
 3094W        W 6613   8.228   0.205   9.188
 3095W        W 6614   4.257   3.207   8.265
 3096W        W 6615   5.348   9.799   8.803
 3097W        W 6616   0.271   9.122  11.345
 3098W        W 6617   6.360   1.965   1.058
 3099W        W 6618   1.401   4.369   9.235
 3100W        W 6619   2.250   0.316   1.447
 3101W        W 6620   7.036   4.994   8.447
 3102W        W 6621   4.040   9.403  10.510
 3103W        W 6622   3.691   6.060   8.295
 3104W        W 6623   1.368   9.019  11.384
 3105W        W 6624   5.977   1.043   9.893
 3106W        W 6625   1.837   7.874   1.997
 3107W        W 6626   0.162   6.779  11.330
 3108W        W 6627   4.225   6.980  10.157
 3109W        W 6628   7.042   5.240   3.229
 3110W        W 6629   7.125   6.054   1.445
 3111W        W 6630   1.777   8.489  10.699
 3112W        W 6631   7.423   9.421   9.772
 3113W        W 6632   6.167   4.253   1.631
 3114W        W 6633   4.297   9.407   2.325
 3115W        W 6634   7.179   5.906  10.573
 3116W        W 6635   3.370   6.369   1.815
 3117W        W 6636   3.974   2.509   2.271
 3118W        W 6637   0.305   8.154   8.946
 3119W        W 6638   0.734   6.689  10.401
 3120W        W 6639   1.195   4.577   3.491
 3121W        W 6640   0.814   9.972  10.738
 3122W        W 6641   1.060   7.773   1.340
 3123W        W 6642   7.803   0.702  11.864
 3124W        W 6643   9.518   8.973   9.875
 3125W        W 6644   3.307   8.959  11.732
 3126W        W 6645   3.150   2.793  10.159
 3127W        W 6646   9.452   4.534  10.392
 3128W        W 6647   5.227   2.035  10.427
 3129W        W 6648   9.067   5.026   8.902
 3130W        W 6649   4.008   9.841   2.324
 3131W        W 6650   5.691   7.477   1.382
 3132W        W 6651   0.546   5.639   2.127
 3133W        W 6652   4.670   7.878  11.835
 3134W        W 6653   5.092   1.171   9.839
 3135W        W 6654   4.057   9.441  11.529
 3136W        W 6655   7.425   5.209   2.387
 3137W        W 6656   4.655   2.836  10.502
 3138W        W 6657   2.389   6.513   3.298
 3139W        W 6658   0.244   9.749   1.772
 3140W        W 6659   7.808   7.839   2.746
 3141W        W 6660   1.441   2.166  10.090
 3142W        W 6661   8.567   8.611  11.792
 3143W        W 6662   3.526   4.529   0.467
 3144W        W 6663   1.836   6.687   3.155
 3145W        W 6664   8.269   7.973   2.604
 3146W        W 6665   9.202   6.041  11.886
 3147W        W 6666   9.280   0.960   2.880
 3148W        W 6667   0.338   7.810  10.523
 3149W        W 6668   1.901   2.411   0.951
 3150W        W 6669   3.569   2.583  10.314
 3151W        W 6670   6.218   2.683   0.683
 3152W        W 6671   7.654   5.304   9.141
 3153W        W 6672   9.902   7.111   0.053
 3154W        W 6673   7.935   1.624   1.819
 3155W        W 6674   2.936   8.624   9.978
 3156W        W 6675   4.986   1.359  11.349
 3157W        W 6676   4.605   6.488   1.521
 3158W        W 6677   5.653   6.816   0.714
 3159W        W 6678   5.860   0.321   9.460
 3160W        W 6679   2.235   7.924  10.191
 3161W        W 6680   0.027   4.220  10.774
 3162W        W 6681   9.879   3.448   0.283
 3163W        W 6682   8.045   5.717  10.443
 3164W        W 6683   4.746   6.322   9.427
 3165W        W 6684   8.552   0.586  11.220
 3166W        W 6685   8.950   5.743   0.785
 3167W        W 6686   6.053   6.727   9.161
 3168W        W 6687   1.294   3.087  11.673
 3169W        W 6688   4.262   5.544   1.897
 3170W        W 6689   4.126   1.320  11.241
 3171W        W 6690   9.224   4.591   0.469
 3172W        W 6691   4.766   0.907   2.181
 3173W        W 6692   6.865   2.322  10.801
 3174W        W 6693   4.860   1.591   1.375
 3175W        W 6694   5.249   0.255   0.725
 3176W        W 6695   2.136   4.951   3.632
 3177W        W 6696   3.338   6.598  11.721
 3178W        W 6697   4.675   1.743   2.725
 3179W        W 6698   3.592   1.102   9.084
 3180W        W 6699   3.013   4.794   7.717
 3181W        W 6700   2.771   3.765  11.147
 3182W        W 6701   2.673   4.333   9.832
 3183W        W 6702   1.316   2.641  11.368
 3184W        W 6703   3.276   0.794   9.389
 3185W        W 6704   6.204   5.512   4.286
 3186W        W 6705   0.863   6.974   0.363
 3187W        W 6706   1.593   3.032  10.820
 3188W        W 6707   9.212   8.359   0.273
 3189W        W 6708   6.910   5.097   2.252
 3190W        W 6709   5.431   7.101  11.006
 3191W        W 6710   6.006   9.539  11.278
 3192W        W 6711   8.147   2.632   2.427
 3193W        W 6712   5.235   9.985   0.283
 3194W        W 6713   6.894   9.809   2.192
 3195W        W 6714   5.200   5.096  10.899
 3196W        W 6715   3.818   8.908   3.154
 3197W        W 6716   9.375   3.438  11.121
 3198W        W 6717   4.451   7.086   2.290
 3199W        W 6718   0.416   6.427   1.712
 3200W        W 6719   5.737   4.490   3.371
 3201W        W 6720   0.819   1.083   9.074
 3202W        W 6721   5.111   1.441   3.093
 3203W        W 6722   6.598   9.235  11.344
 3204W        W 6723   1.784   4.261  11.529
 3205W        W 6724   8.306   7.074   0.032
 3206W        W 6725   4.565   6.384   9.900
 3207W        W 6726   6.683   3.838   9.694
 3208W        W 6727   8.643   1.084  10.327
 3209W        W 6728   3.377   2.588  11.941
 3210W        W 6729   0.411   9.668  10.569
 3211W        W 6730   1.324   6.014   3.056
 3212W        W 6731   7.344   4.466   9.186
 3213W        W 6732   5.210   1.520  10.428
 3214W        W 6733   3.597   4.984   9.180
 3215W        W 6734   8.590   4.313  11.818
 3216W        W 6735   4.352   4.282   1.454
 3217W        W 6736   9.521   1.861   3.394
 3218W        W 6737   3.069   3.803  10.222
 3219W        W 6738   6.402   6.285  11.093
 3220W        W 6739   5.285   7.808   3.536
 3221W        W 6740   0.424   4.369  10.505
 3222W        W 6741   1.384   0.334   1.596
 3223W        W 6742   1.228   2.384   2.276
 3224W        W 6743   9.967   1.737   9.813
 3225W        W 6744   1.769   7.485   9.790
 3226W        W 6745   2.393   3.356   2.733
 3227W        W 6746   5.250   3.612   3.135
 3228W        W 6747   0.515   2.136  10.073
 3229W        W 6748   1.607   1.034   2.683
 3230W        W 6749   7.540   4.768  11.873
 3231W        W 6750   6.538   7.655   0.334
 3232W        W 6751   6.578   4.767   3.352
 3233W        W 6752   6.844   9.317   3.105
 3234W        W 6753   2.058   9.257   2.941
 3235W        W 6754   0.416   6.383  11.165
 3236W        W 6755   4.155   3.082   3.086
 3237W        W 6756   2.218   5.607  11.163
 3238W        W 6757   5.706   3.608   2.186
 3239W        W 6758   9.008   1.027   0.387
 3240W        W 6759   3.150   7.104  10.540
 3241W        W 6760   4.296   4.631  11.863
 3242W        W 6761   0.685   8.290   0.835
 3243W        W 6762   0.850   7.655  10.494
 3244W        W 6763   0.880   1.552   2.712
 3245W        W 6764   4.351   2.374   8.682
 3246W        W 6765   0.112   0.704   1.408
 3247W        W 6766   0.357   1.861   0.424
 3248W        W 6767   0.247   5.669   3.451
 3249W        W 6768   4.688   1.242   3.484
 3250W        W 6769   9.510   6.639   1.141
 3251W        W 6770   6.946   0.140   1.796
 3252W        W 6771   4.210   1.588   2.547
 3253W        W 6772   5.015   5.898  11.109
 3254W        W 6773   6.703   8.213   9.054
 3255W        W 6774   8.086   9.106   1.860
 3256W        W 6775   4.373   6.254   9.058
 3257W        W 6776   7.114   1.625   9.227
 3258W        W 6777   8.916   3.995  11.046
 3259W        W 6778   2.893   6.502   3.128
 3260W        W 6779   6.042   4.381   9.165
 3261W        W 6780   1.627   3.556   9.629
 3262W        W 6781   9.831   9.519  11.989
 3263W        W 6782   6.881   7.689   0.746
 3264W        W 6783   9.841   6.872   2.884
 3265W        W 6784   2.028   0.848  10.706
 3266W        W 6785   4.129   2.008   2.260
 3267W        W 6786   6.885   7.790   8.814
 3268W        W 6787   9.472   0.795   9.032
 3269W        W 6788   0.628   4.733   9.623
 3270W        W 6789   6.620   6.038   3.699
 3271W        W 6790   8.613   5.780   2.883
 3272W        W 6791   8.498   1.280   2.421
 3273W        W 6792   9.306   2.673   1.058
 3274W        W 6793   5.964   6.126   0.833
 3275W        W 6794   1.962   1.666   1.362
 3276W        W 6795   7.898   9.753   2.324
 3277W        W 6796   7.001   6.976   0.360
 3278W        W 6797   9.325   0.082   2.296
 3279W        W 6798   0.478   0.348   0.525
 3280W        W 6799   3.733   0.727  10.305
 3281W        W 6800   2.387   0.683   3.509
 3282W        W 6801   8.731   4.121   8.478
 3283W        W 6802   6.482   4.621   1.752
 3284W        W 6803   2.485   5.471   8.491
 3285W        W 6804   7.610   2.253   0.250
 3286W        W 6805   0.722   3.981  10.290
 3287W        W 6806   3.705   1.561  11.389
 3288W        W 6807   4.927   7.314   8.620
 3289W        W 6808   1.370   6.350   8.746
 3290W        W 6809   9.568   4.999   0.575
 3291W        W 6810   4.630   2.719  11.908
 3292W        W 6811   8.071   6.516   9.557
 3293W        W 6812   1.840   3.231   1.436
 3294W        W 6813   7.673   9.855  11.865
 3295W        W 6814   7.034   4.857   0.025
 3296W        W 6815   7.597   8.441  11.794
 3297W        W 6816   9.955   0.939   0.569
 3298W        W 6817   6.300   5.369  11.438
 3299W        W 6818   5.180   4.562   9.203
 3300W        W 6819   4.105   4.133   3.340
 3301W        W 6820   4.479   3.166   1.721
 3302W        W 6821   9.930   9.471   2.712
 3303W        W 6822   7.083   8.175   1.728
 3304W        W 6823   7.728   3.068   9.681
 3305W        W 6824   0.833   9.768   0.010
 3306W        W 6825   3.473   3.855   2.519
 3307W        W 6826   5.391   7.895   9.031
 3308W        W 6827   5.882   9.639   1.736
 3309W        W 6828   3.943   2.702   0.572
 3310W        W 6829   5.065   3.322  10.583
 3311W        W 6830   6.581   7.047   4.256
 3312W        W 6831   8.132   8.610   1.817
 3313W        W 6832   3.927   0.291  11.812
 3314W        W 6833   0.325   0.417  11.238
 3315W        W 6834   7.930   1.355   1.259
 3316W        W 6835   0.128   1.701   0.898
 3317W        W 6836   3.493   8.903   3.590
 3318W        W 6837   3.727   6.263   3.866
 3319W        W 6838   6.321   0.170   9.613
 3320W        W 6839   8.064   6.417   0.339
 3321W        W 6840   6.388   4.825   9.096
 3322W        W 6841   0.800   4.802   2.389
 3323W        W 6842   2.960   2.321   3.361
 3324W        W 6843   5.452   1.493   9.670
 3325W        W 6844   6.649   5.563   3.979
 3326W        W 6845   8.549   8.074   3.013
 3327W        W 6846   9.946   9.957  11.270
 3328W        W 6847   2.187   1.015   2.128
 3329W        W 6848   2.417   6.938   9.993
 3330W        W 6849   8.989   3.554   2.855
 3331W        W 6850   7.499   3.747   1.429
 3332W        W 6851   1.071   6.641   1.828
 3333W        W 6852   6.022   2.741   9.792
 3334W        W 6853   8.811   1.486   0.563
 3335W        W 6854   9.055   9.629   2.253
 3336W        W 6855   4.730   7.069  10.512
 3337W        W 6856   3.903   5.878  11.766
 3338W        W 6857   6.111   3.198  10.522
 3339W        W 6858   9.810   8.802   9.469
 3340W        W 6859   9.262   0.868  10.914
 3341W        W 6860   5.560   8.350  11.781
 3342W        W 6861   0.648   8.681  10.689
 3343W        W 6862   7.419   9.133   0.518
 3344W        W 6863   1.160   5.094   0.992
 3345W        W 6864   4.594   1.820   8.995
 3346W        W 6865   2.023   2.620   8.694
 3347W        W 6866   5.629   5.248   0.385
 3348W        W 6867   1.196   6.251   0.063
 3349W        W 6868   5.590   9.365   9.689
 3350W        W 6869   1.746   0.882  10.252
 3351W        W 6870   6.517   2.119   0.079
 3352W        W 6871   2.300   9.952  10.993
 3353W        W 6872   5.795   9.072   0.009
 3354W        W 6873   0.172   1.567   3.925
 3355W        W 6874   3.751   3.749  11.843
 3356W        W 6875   2.236   5.994   1.992
 3357W        W 6876   8.106   7.109   8.889
 3358W        W 6877   4.896   4.040   0.469
 3359W        W 6878   5.120   6.855   0.331
 3360W        W 6879   7.962   5.464   1.366
 3361W        W 6880   6.052   5.594   0.808
 3362W        W 6881   1.024   4.125   9.542
 3363W        W 6882   3.426   0.340   9.553
 3364W        W 6883   6.307   8.635  11.400
 3365W        W 6884   8.440   2.629   9.223
 3366W        W 6885   9.456   0.320   8.802
 3367W        W 6886   7.714   5.095   1.025
 3368W        W 6887   7.971   7.599  11.245
 3369W        W 6888   3.529   6.091   1.413
 3370W        W 6889   0.767   1.670   8.979
 3371W        W 6890   6.857   7.515  11.234
 3372W        W 6891   0.843   9.659   0.940
 3373W        W 6892   4.049   3.054   0.921
 3374W        W 6893   7.832   8.244   9.832
 3375W        W 6894   1.868   7.143  11.767
 3376W        W 6895   0.142   7.839   9.316
 3377W        W 6896   5.380   4.276   9.793
 3378W        W 6897   7.474   5.758   3.521
 3379W        W 6898   8.282   4.173   0.603
 3380W        W 6899   0.954   2.306  11.550
 3381W        W 6900   4.799   6.469   0.662
 3382W        W 6901   4.710   0.831   2.677
 3383W        W 6902   6.348   7.583   9.875
 3384W        W 6903   3.672   0.483   1.706
 3385W        W 6904   9.773   6.735   2.376
 3386W        W 6905   4.736   0.343  11.384
 3387W        W 6906   7.397   8.299  10.949
 3388W        W 6907   3.769   0.060  11.381
 3389W        W 6908   0.592   3.673   1.205
 3390W        W 6909   3.185   6.003   0.565
 3391W        W 6910   7.949   8.158   1.811
 3392W        W 6911   3.927   5.894   9.526
 3393W        W 6912   9.266   5.462   3.233
 3394W        W 6913   8.546   7.471   0.836
 3395W        W 6914   9.645   5.281   0.163
 3396W        W 6915   8.124   0.657  10.305
 3397W        W 6916   2.730   4.417   8.487
 3398W        W 6917   0.487   0.853   0.567
 3399W        W 6918   6.828   6.491   3.544
 3400W        W 6919   9.563   3.368  11.876
 3401W        W 6920   9.227   8.187  10.079
 3402W        W 6921   3.050   4.353   0.338
 3403W        W 6922   4.677   6.585   3.621
 3404W        W 6923   3.654   0.740  10.815
 3405W        W 6924   9.677   1.748   1.279
 3406W        W 6925   9.851   0.243   1.172
 3407W        W 6926   2.638   0.702  11.849
 3408W        W 6927   5.092   6.276   3.725
 3409W        W 6928   8.986   9.964   9.546
 3410W        W 6929   5.718   0.139   1.859
 3411W        W 6930   4.973   9.399  11.914
 3412W        W 6931   0.327   7.986  11.760
 3413W        W 6932   7.773   6.739   9.029
 3414W        W 6933   4.515   7.905  10.900
 3415W        W 6934   8.684   0.314   3.239
 3416W        W 6935   3.064   3.384  11.433
 3417W        W 6936   2.220   5.981   0.914
 3418W        W 6937   9.062   0.762  10.431
 3419W        W 6938   8.389   9.336  11.853
 3420W        W 6939   5.266   1.916   8.548
 3421W        W 6940   0.778   8.079  11.509
 3422W        W 6941   7.950   3.403   1.298
 3423W        W 6942   2.208   4.352   2.784
 3424W        W 6943   8.032   4.642   9.892
 3425W        W 6944   3.782   8.869   0.743
 3426W        W 6945   0.445   4.222  11.064
 3427W        W 6946   4.996   2.073  11.757
 3428W        W 6947   4.923   9.946   2.133
 3429W        W 6948   4.292   8.992   3.330
 3430W        W 6949   0.279   8.796  10.285
 3431W        W 6950   2.579   4.716   2.857
 3432W        W 6951   3.085   2.147   9.526
 3433W        W 6952   6.332   3.003  10.103
 3434W        W 6953   1.388   2.151   3.239
 3435W        W 6954   2.501   2.634   9.541
 3436W        W 6955   6.611   1.778   1.884
 3437W        W 6956   2.861   5.988   0.156
 3438W        W 6957   7.404   2.670   9.582
 3439W        W 6958   3.531   4.578   8.870
 3440W        W 6959   8.514   2.624  10.949
 3441W        W 6960   0.323   5.918   0.732
 3442W        W 6961   1.245   8.055  11.766
 3443W        W 6962   9.265   3.780  10.758
 3444W        W 6963   9.609   1.751  10.898
 3445W        W 6964   1.450   3.038  10.308
 3446W        W 6965   7.254   5.040   8.914
 3447W        W 6966   1.363   9.355  10.336
 3448W        W 6967   6.373   0.975  10.613
 3449W        W 6968   3.113   9.039   9.318
 3450W        W 6969   6.331   1.774   8.743
 3451W        W 6970   3.712   8.575  10.016
 3452W        W 6971   3.756   7.926   2.487
 3453W        W 6972   1.824   1.816   9.593
 3454W        W 6973   8.115   3.042   1.698
 3455W        W 6974   6.063   1.864  10.732
 3456W        W 6975   5.960   3.362  10.022
 3457W        W 6976   5.998   9.527   9.132
 3458W        W 6977   5.979   4.194   1.165
 3459W        W 6978   9.550   5.347   9.998
 3460W        W 6979   6.376   0.164   1.120
 3461W        W 6980   0.481   9.308   0.332
 3462W        W 6981   8.011   3.217   9.273
 3463W        W 6982   1.762   2.675   2.628
 3464W        W 6983   6.911   2.391   9.308
 3465W        W 6984   3.108   9.971   9.244
 3466W        W 6985   3.465   9.446   3.581
 3467W        W 6986   5.259   6.976   2.844
 3468W        W 6987   1.856   3.797  11.751
 3469W        W 6988   8.197   1.442  10.979
 3470W        W 6989   5.114   3.479   8.211
 3471W        W 6990   1.047   3.087   3.595
 3472W        W 6991   8.731   9.329   1.429
 3473W        W 6992   5.267   4.623  11.168
 3474W        W 6993   4.849   7.736   9.848
 3475W        W 6994   7.976   2.240  10.438
 3476W        W 6995   5.978   4.738   1.697
 3477W        W 6996   1.537   4.273   9.723
 3478W        W 6997   6.149   6.421   2.838
 3479W        W 6998   5.456   3.529  10.317
 3480W        W 6999   5.396   2.908   8.753
 3481W        W 7000   7.601   8.442   2.139
 3482W        W 7001   3.647   3.421   8.912
 3483W        W 7002   3.285   4.624   3.439
 3484W        W 7003   4.560   3.584   2.902
 3485W        W 7004   3.487   7.881   0.173
 3486W        W 7005   6.980   4.650   2.583
 3487W        W 7006   2.264   4.575   3.257
 3488W        W 7007   8.463   3.384   1.845
 3489W        W 7008   4.197   7.517   0.291
 3490W        W 7009   0.302   5.429  10.451
 3491W        W 7010   2.308   0.165  10.036
 3492W        W 7011   1.303   2.365   9.091
 3493W        W 7012   7.328   6.183   3.231
 3494W        W 7013   2.727   7.014   0.267
 3495W        W 7014   3.921   5.340   3.571
 3496W        W 7015   2.740   6.905  10.775
 3497W        W 7016   1.742   8.964  11.727
 3498W        W 7017   4.081   8.550  11.654
 3499W        W 7018   5.490   2.909  11.659
 3500W        W 7019   5.463   0.463   0.291
 3501W        W 7020   0.391   4.135   1.327
 3502W        W 7021   9.743   6.130   8.326
 3503W        W 7022   4.478   7.071   8.808
 3504W        W 7023   8.894   9.502  11.883
 3505W        W 7024   6.100   5.103   0.956
 3506W        W 7025   9.035   2.656   2.909
 3507W        W 7026   2.769   3.315   1.531
 3508W        W 7027   5.706   7.107   1.766
 3509W        W 7028   5.061   7.778   3.079
 3510W        W 7029   4.185   7.325   9.745
 3511W        W 7030   3.513   6.842  11.273
 3512W        W 7031   0.863   2.742   0.325
 3513W        W 7032   1.380   1.845   9.291
 3514W        W 7033   4.176   5.576   2.908
 3515W        W 7034   9.392   7.201   9.188
 3516W        W 7035   5.198   0.019   3.146
 3517W        W 7036   6.626   6.738   1.555
 3518W        W 7037   2.133   4.760  10.313
 3519W        W 7038   3.424   0.319  11.670
 3520W        W 7039   3.478   9.457   0.762
 3521W        W 7040   5.525   1.945  11.815
 3522W        W 7041   8.499   6.874  11.099
 3523W        W 7042   8.840   0.041   2.566
 3524W        W 7043   7.320   0.104   1.452
 3525W        W 7044   2.037   8.325   9.375
 3526W        W 7045   2.014   1.359   2.611
 3527W        W 7046   4.429   7.003  10.934
 3528W        W 7047   5.167   1.402   0.466
 3529W        W 7048   9.915   8.445  11.018
 3530W        W 7049   9.947   0.379   2.725
 3531W        W 7050   6.213   6.514  11.950
 3532W        W 7051   2.900   7.762   1.027
 3533W        W 7052   5.614   0.686   2.134
 3534W        W 7053   0.288   6.113   9.175
 3535W        W 7054   1.745   9.516   1.404
 3536W        W 7055   5.135   6.962   8.226
 3537W        W 7056   9.486   8.468   9.218
 3538W        W 7057   6.695   4.436  11.054
 3539W        W 7058   1.013   0.744  11.718
 3540W        W 7059   7.158   6.500   0.384
 3541W        W 7060   8.933   3.610  11.970
 3542W        W 7061   2.380   1.186   9.869
 3543W        W 7062   1.273   8.219   1.397
 3544W        W 7063   9.407   8.598   1.827
 3545W        W 7064   5.688   3.854   8.371
 3546W        W 7065   9.887   0.182  10.526
 3547W        W 7066   8.227   4.788   2.610
 3548W        W 7067   8.945   8.218   0.673
 3549W        W 7068   6.104   0.688   0.516
 3550W        W 7069   5.454   5.024   9.235
 3551W        W 7070   5.867   6.981   8.776
 3552W        W 7071   0.609   7.865  10.088
 3553W        W 7072   6.550   5.635   3.243
 3554W        W 7073   0.329   3.923   0.816
 3555W        W 7074   2.193   1.655  11.764
 3556W        W 7075   5.113   1.584  11.825
 3557W        W 7076   7.878   6.833   2.990
 3558W        W 7077   0.958   1.455   9.938
 3559W        W 7078   0.662   9.835   1.460
 3560W        W 7079   4.333   9.212   9.540
 3561W        W 7080   7.825   3.210  11.300
 3562W        W 7081   6.900   3.743  10.593
 3563W        W 7082   6.958   8.484   0.272
 3564W        W 7083   6.925   1.044   9.917
 3565W        W 7084   1.762   2.624  10.253
 3566W        W 7085   0.920   9.562  11.121
 3567W        W 7086   6.584   8.003   9.995
 3568W        W 7087   6.957   9.712  10.210
 3569W        W 7088   1.794   8.872   1.810
 3570W        W 7089   1.147   5.051   3.238
 3571W        W 7090   9.822   6.019   0.601
 3572W        W 7091   8.622   2.920   3.060
 3573W        W 7092   4.574   7.347  10.072
 3574W        W 7093   4.590   7.007   1.693
 3575W        W 7094   4.493   9.062  10.242
 3576W        W 7095   9.326   7.216   1.688
 3577W        W 7096   8.693   4.415   9.278
 3578W        W 7097   9.793   8.772   1.001
 3579W        W 7098   9.221   0.375   9.274
 3580W        W 7099   1.380   1.180  10.008
 3581W        W 7100   8.060   8.707   9.912
 3582W        W 7101   7.736   6.266   9.264
 3583W        W 7102   4.305   8.364  10.726
 3584W        W 7103   1.753   6.106   0.701
 3585W        W 7104   1.671   0.693   8.868
 3586W        W 7105   4.168   7.860   2.787
 3587W        W 7106   6.728   9.373   3.591
 3588W        W 7107   6.435   0.901  10.106
 3589W        W 7108   4.958   8.190   3.398
 3590W        W 7109   5.243   7.461   2.321
 3591W        W 7110   5.780   7.477   8.826
 3592W        W 7111   1.728   2.052   8.955
 3593W        W 7112   2.785   0.900   9.591
 3594W        W 7113   4.983   7.307   0.512
 3595W        W 7114   9.887   9.755  10.816
 3596W        W 7115   3.232   5.159   9.519
 3597W        W 7116   1.477   9.931   1.270
 3598W        W 7117   0.427   1.700   2.946
 3599W        W 7118   7.156   9.109  11.466
 3600W        W 7119   1.963   0.293   8.999
 3601W        W 7120   7.347   5.269   3.633
 3602W        W 7121   9.601   9.698  10.399
 3603W        W 7122   4.657   0.717   1.680
 3604W        W 7123   6.954   1.303   2.184
 3605W        W 7124   1.711   5.708   1.009
 3606W        W 7125   2.285   1.183   3.411
 3607W        W 7126   6.551   4.884   0.915
 3608W        W 7127   9.509   0.122   2.863
 3609W        W 7128   5.559   8.297   2.589
 3610W        W 7129   1.346   7.609  11.991
 3611W        W 7130   6.656   3.346   0.796
 3612W        W 7131   4.748   1.138   9.351
 3613W        W 7132   2.617   2.167   1.728
 3614W        W 7133   0.653   3.099   3.231
 3615W        W 7134   8.546   8.886   1.160
 3616W        W 7135   6.103   1.244   3.226
 3617W        W 7136   5.114   7.058   4.121
 3618W        W 7137   6.129   4.610  11.534
 3619W        W 7138   2.300   9.817   0.819
 3620W        W 7139   2.412   2.444   0.869
 3621W        W 7140   7.186   2.577   3.495
 3622W        W 7141   5.576   6.597   2.005
 3623W        W 7142   4.780   2.220   3.473
 3624W        W 7143   1.817   0.015   1.668
 3625W        W 7144   6.636   8.336   9.547
 3626W        W 7145   1.371   4.170   2.569
 3627W        W 7146   6.379   3.249   8.778
 3628W        W 7147   3.184   5.604   2.885
 3629W        W 7148   5.425   5.892   3.771
 3630W        W 7149   9.626   5.108   3.092
 3631W        W 7150   5.557   9.056   0.470
 3632W        W 7151   3.625   2.101  10.464
 3633W        W 7152   6.906   7.296   9.974
 3634W        W 7153   2.986   9.390   0.996
 3635W        W 7154   3.301   3.678   9.787
 3636W        W 7155   5.723   9.949   1.006
 3637W        W 7156   8.922   5.979   9.545
 3638W        W 7157   8.598   5.730   0.260
 3639W        W 7158   7.640   3.226   1.728
 3640W        W 7159   5.266   5.887   1.671
 3641W        W 7160   7.747   0.042   9.075
 3642W        W 7161   0.546   9.173  10.482
 3643W        W 7162   1.545   5.090   1.551
 3644W        W 7163   8.337   8.883   2.634
 3645W        W 7164   4.307   0.662   0.531
 3646W        W 7165   5.138   9.340   2.130
 3647W        W 7166   4.702   3.663  11.765
 3648W        W 7167   4.517   1.868   9.881
 3649W        W 7168   8.829   2.187   2.847
 3650W        W 7169   5.365   7.638   8.574
 3651W        W 7170   0.434   1.856  11.435
 3652W        W 7171   1.879   9.067   8.932
 3653W        W 7172   0.411   7.038   0.766
 3654W        W 7173   4.176   3.326   2.638
 3655W        W 7174   8.090   3.715  11.937
 3656W        W 7175   6.777   2.303  11.312
 3657W        W 7176   0.968   2.336  10.707
 3658W        W 7177   2.917   2.755   3.660
 3659W        W 7178   6.137   9.956   2.072
 3660W        W 7179   6.749   4.625   1.326
 3661W        W 7180   6.571   8.875   3.103
 3662W        W 7181   8.126   9.202   9.996
 3663W        W 7182   3.161   7.536  10.187
 3664W        W 7183   9.664   2.805  11.713
 3665W        W 7184   9.655   4.715  10.847
 3666W        W 7185   6.009   9.910   3.231
 3667W        W 7186   1.764   8.062   1.505
 3668W        W 7187   3.617   6.621   9.958
 3669W        W 7188   1.834   1.700   2.266
 3670W        W 7189   0.652   6.040  10.859
 3671W        W 7190   7.069   0.310   3.149
 3672W        W 7191   1.626   7.387   1.756
 3673W        W 7192   4.627   8.811   8.523
 3674W        W 7193   2.318   7.014   2.528
 3675W        W 7194   7.696   7.849  10.895
 3676W        W 7195   1.288   0.435   1.092
 3677W        W 7196   0.570   0.817  11.456
 3678W        W 7197   3.187   4.719   2.048
 3679W        W 7198   7.112   5.271  11.743
 3680W        W 7199   5.141   7.855   1.067
 3681W        W 7200   4.537   0.208  10.559
 3682W        W 7201   4.953   3.098  11.032
 3683W        W 7202   8.420   9.908   1.052
 3684W        W 7203   1.679   4.462  10.819
 3685W        W 7204   8.417   0.306   2.792
 3686W        W 7205   4.024   3.364   1.350
 3687W        W 7206   0.433   1.735  10.923
 3688W        W 7207   5.148   5.692   2.127
 3689W        W 7208   6.777   5.539  11.432
 3690W        W 7209   5.611   2.645   1.880
 3691W        W 7210   0.785   4.353   9.933
 3692W        W 7211   3.001   8.784   1.263
 3693W        W 7212   9.057   9.937   9.011
 3694W        W 7213   2.252   4.437  11.690
 3695W        W 7214   6.277   9.128   9.426
 3696W        W 7215   9.358   5.693   9.575
 3697W        W 7216   8.009   6.288   8.835
 3698W        W 7217   4.255   7.479  10.952
 3699W        W 7218   8.267   6.554   3.205
 3700W        W 7219   7.420   4.052   8.845
 3701W        W 7220   7.831   2.692   9.317
 3702W        W 7221   0.443   4.919  10.519
 3703W        W 7222   3.049   8.409  11.575
 3704W        W 7223   2.251   7.428  10.007
 3705W        W 7224   7.996   7.963   1.324
 3706W        W 7225   2.174   1.910   2.575
 3707W        W 7226   6.209   5.250   9.810
 3708W        W 7227   2.454   0.254   3.229
 3709W        W 7228   0.338   6.419  11.716
 3710W        W 7229   4.703   9.648   3.075
 3711W        W 7230   2.607   0.458   0.276
 3712W        W 7231   3.876   4.650   2.167
 3713W        W 7232   2.286   5.228  10.564
 3714W        W 7233   5.377   1.106   0.861
 3715W        W 7234   9.247   2.003  10.134
 3716W        W 7235   2.272   0.920   9.424
 3717W        W 7236   1.795   8.691   0.892
 3718W        W 7237   7.253   6.830  10.616
 3719W        W 7238   4.081   8.552   2.031
 3720W        W 7239   2.844   4.619  11.039
 3721W        W 7240   4.776   5.660   1.767
 3722W        W 7241   1.667   8.828   2.330
 3723W        W 7242   0.269   8.257  10.225
 3724W        W 7243   6.684   6.654   0.096
 3725W        W 7244   6.594   5.070   9.482
 3726W        W 7245   0.428   2.101  11.899
 3727W        W 7246   7.524   8.932   2.797
 3728W        W 7247   3.680   0.075   9.961
 3729W        W 7248   2.264   6.373   1.294
 3730W        W 7249   5.465   3.644   0.316
 3731W        W 7250   3.565   5.048   2.054
 3732W        W 7251   1.205   4.289   1.657
 3733W        W 7252   5.861   8.408  11.342
 3734W        W 7253   8.703   8.585   2.906
 3735W        W 7254   0.922   7.884   2.058
 3736W        W 7255   3.211   9.957   9.773
 3737W        W 7256   7.478   6.977   2.547
 3738W        W 7257   4.861   5.292   0.403
 3739W        W 7258   2.707   8.433   3.398
 3740W        W 7259   5.466   9.475   0.183
 3741W        W 7260   2.373   4.591   1.856
 3742W        W 7261   3.528   9.307   9.422
 3743W        W 7262   5.651   4.029   2.482
 3744W        W 7263   8.876   9.737   0.657
 3745W        W 7264   3.941   2.587   8.962
 3746W        W 7265   6.038   2.827   1.633
 3747W        W 7266   9.061   0.448   2.853
 3748W        W 7267   1.219   8.183   8.792
 3749W        W 7268   6.754   1.236  10.366
 3750W        W 7269   5.082   8.584   8.694
 3751W        W 7270   9.441   4.643   1.916
 3752W        W 7271   9.771   9.773   0.913
 3753W        W 7272   4.888   0.331   1.277
 3754W        W 7273   0.291   5.529  10.952
 3755W        W 7274   8.127   4.133  11.638
 3756W        W 7275   0.371   4.685  10.073
 3757W        W 7276   2.230   8.446   2.665
 3758W        W 7277   3.970   1.868   0.449
 3759W        W 7278   3.816   2.756  11.704
 3760W        W 7279   1.131   2.124   1.799
 3761W        W 7280   6.359   4.107   9.444
 3762W        W 7281   6.349   6.077   8.828
 3763W        W 7282   6.022   9.404   0.301
 3764W        W 7283   4.896   1.128  11.807
 3765W        W 7284   5.935   5.265   1.812
 3766W        W 7285   2.856   5.978  10.776
 3767W        W 7286   1.361   2.389   2.786
 3768W        W 7287   2.243   0.021   2.428
 3769W        W 7288   7.193   9.136   0.052
 3770W        W 7289   6.905   4.915   0.550
 3771W        W 7290   6.894   5.346   0.828
 3772W        W 7291   9.028   3.873   1.258
 3773W        W 7292   4.152   0.900  11.554
 3774W        W 7293   6.803   8.769  11.401
 3775W        W 7294   6.700   9.055   8.780
 3776W        W 7295   4.611   0.308   8.852
 3777W        W 7296   8.480   8.078   9.599
 3778W        W 7297   8.922   4.415   1.309
 3779W        W 7298   1.779   9.649   2.793
 3780W        W 7299   2.693   9.261  11.713
 3781W        W 7300   2.253   9.510   9.490
 3782W        W 7301   7.999   7.905   0.371
 3783W        W 7302   6.913   4.760   9.183
 3784W        W 7303   0.121   0.107   0.239
 3785W        W 7304   7.612   5.591   1.950
 3786W        W 7305   4.588   0.784   3.191
 3787W        W 7306   4.302   1.822   1.779
 3788W        W 7307   7.189   1.331   3.070
 3789W        W 7308   2.343   9.859   3.530
 3790W        W 7309   6.783   2.907   3.370
 3791W        W 7310   0.055   7.611  11.543
 3792W        W 7311   4.946   1.425   8.909
 3793W        W 7312   7.582   7.091  10.311
 3794W        W 7313   4.821   8.977   0.938
 3795W        W 7314   2.405   0.860  11.065
 3796W        W 7315   5.075   3.103   0.524
 3797W        W 7316   5.731   6.019   9.536
 3798W        W 7317   3.217   9.949  10.780
 3799W        W 7318   1.627   2.345   1.956
 3800W        W 7319   2.260   4.040   1.314
 3801W        W 7320   0.746   8.863   2.226
 3802W        W 7321   2.179   3.168   2.301
 3803W        W 7322   6.082   2.649  11.810
 3804W        W 7323   9.736   4.533   0.456
 3805W        W 7324   1.542   4.494   0.817
 3806W        W 7325   5.153   4.094   2.425
 3807W        W 7326   8.924   7.497   0.478
 3808W        W 7327   3.305   6.610  10.362
 3809W        W 7328   4.533   2.275   1.849
 3810W        W 7329   2.856   1.459   2.780
 3811W        W 7330   5.708   4.416   8.426
 3812W        W 7331   8.366   9.053  11.410
 3813W        W 7332   8.166   1.871  11.250
 3814W        W 7333   0.330   0.714   2.905
 3815W        W 7334   5.780   5.567   2.745
 3816W        W 7335   4.742   4.346  10.986
 3817W        W 7336   1.841   2.243   2.921
 3818W        W 7337   4.416   2.782   0.404
 3819W        W 7338   8.298   3.879   8.653
 3820W        W 7339   1.229   0.657   2.308
 3821W        W 7340   2.052   7.417   2.749
 3822W        W 7341   3.456   4.733   2.533
 3823W        W 7342   7.813   9.518   0.515
 3824W        W 7343   7.622   0.747  11.368
 3825W        W 7344   5.418   8.138   3.068
 3826W        W 7345   1.366   4.417  11.837
 3827W        W 7346   9.534   1.263  10.800
 3828W        W 7347   3.945   7.505   1.885
 3829W        W 7348   6.187   0.360   3.454
 3830W        W 7349   4.678   7.464   1.455
 3831W        W 7350   3.549   3.243  10.861
 3832W        W 7351   7.871   4.001   2.391
 3833W        W 7352   2.414   1.989   0.063
 3834W        W 7353   7.318   6.987   9.873
 3835W        W 7354   3.588   2.042   9.528
 3836W        W 7355   9.269   1.353   1.284
 3837W        W 7356   5.378   9.215  10.728
 3838W        W 7357   3.614   6.399  10.916
 3839W        W 7358   2.258   3.614   0.369
 3840W        W 7359   1.273   0.330  11.514
 3841W        W 7360   3.800   3.257  11.821
 3842W        W 7361   0.382   9.465   0.816
 3843W        W 7362   2.305   3.125   9.583
 3844W        W 7363   4.196   5.951   3.973
 3845W        W 7364   1.396   5.492   2.656
 3846W        W 7365   0.043   1.268  10.959
 3847W        W 7366   6.686   6.663   1.052
 3848W        W 7367   4.562   8.785   1.854
 3849W        W 7368   5.870   4.076  10.897
 3850W        W 7369   1.733   5.673  11.362
 3851W        W 7370   0.870   1.908   2.188
 3852W        W 7371   0.763   7.101   2.693
 3853W        W 7372   6.574   5.180   3.043
 3854W        W 7373   7.742   1.958   3.020
 3855W        W 7374   2.770   5.205   9.287
 3856W        W 7375   7.479   5.225   0.154
 3857W        W 7376   0.369   3.461  10.227
 3858W        W 7377   1.110   7.462   8.999
 3859W        W 7378   0.231   3.886  10.441
 3860W        W 7379   7.425   1.673  11.549
 3861W        W 7380   8.095   2.862   1.200
 3862W        W 7381   8.946   6.979  11.825
 3863W        W 7382   5.456   3.523   3.581
 3864W        W 7383   3.778   4.388   1.228
 3865W        W 7384   2.876   1.730   9.166
 3866W        W 7385   0.171   2.421   3.451
 3867W        W 7386   9.221   5.065   1.772
 3868W        W 7387   3.501   8.744   1.300
 3869W        W 7388   5.583   2.127   4.023
 3870W        W 7389   8.934   8.769   1.915
 3871W        W 7390   1.596   9.095   2.836
 3872W        W 7391   6.688   1.920   0.655
 3873W        W 7392   0.980   2.107  10.264
 3874W        W 7393   3.906   5.495   9.952
 3875W        W 7394   3.214   1.279  11.303
 3876W        W 7395   2.160   5.103   2.346
 3877W        W 7396   3.076   9.257   0.506
 3878W        W 7397   8.267   1.460  11.547
 3879W        W 7398   1.160   8.014   0.881
 3880W        W 7399   6.695   3.788   2.413
 3881W        W 7400   5.645   8.020   9.909
 3882W        W 7401   9.378   1.401  11.765
 3883W        W 7402   4.639   8.113  10.428
 3884W        W 7403   3.723   6.338  11.924
 3885W        W 7404   8.518   7.981   1.098
 3886W        W 7405   0.404   2.853  11.226
 3887W        W 7406   1.839   8.430   0.410
 3888W        W 7407   1.879   3.467  10.067
 3889W        W 7408   8.436   9.484   0.750
 3890W        W 7409   6.999   0.138   0.847
 3891W        W 7410   7.229   8.521   2.677
 3892W        W 7411   8.800   4.096   1.676
 3893W        W 7412   7.944   4.129   3.168
 3894W        W 7413   9.189   3.520  10.157
 3895W        W 7414   4.508   0.389   2.817
 3896W        W 7415   5.580   1.589   3.304
 3897W        W 7416   4.221   4.375   0.955
 3898W        W 7417   2.663   7.647   9.772
 3899W        W 7418   4.383   0.604   2.353
 3900W        W 7419   3.746   3.646   1.709
 3901W        W 7420   4.056   3.626   9.163
 3902W        W 7421   4.750   9.168  11.508
 3903W        W 7422   5.134   8.029  11.618
 3904W        W 7423   3.515   6.956   3.472
 3905W        W 7424   9.833   7.129  11.521
 3906W        W 7425   5.243   9.732   2.474
 3907W        W 7426   9.876   6.401   9.727
 3908W        W 7427   3.271   1.551   0.130
 3909W        W 7428   2.208   7.486   0.530
 3910W        W 7429   1.333   8.447  10.961
 3911W        W 7430   3.770   3.183   8.475
 3912W        W 7431   8.767   8.519   1.466
 3913W        W 7432   7.487   3.088  10.526
 3914W        W 7433   4.318   3.792  10.616
 3915W        W 7434   7.012   8.305   2.256
 3916W        W 7435   2.981   2.309   8.864
 3917W        W 7436   0.456   8.028   2.443
 3918W        W 7437   6.066   8.884   3.242
 3919W        W 7438   7.647   0.741   1.935
 3920W        W 7439   2.767   3.499   8.843
 3921W        W 7440   4.659   9.421   9.868
 3922W        W 7441   8.993   8.684   1.005
 3923W        W 7442   5.168   8.335  10.555
 3924W        W 7443   1.850   7.087   0.349
 3925W        W 7444   9.928   7.849   1.154
 3926W        W 7445   4.123   9.354   9.976
 3927W        W 7446   3.207   5.004   3.782
 3928W        W 7447   4.210   8.931   1.060
 3929W        W 7448   6.197   6.896   2.634
 3930W        W 7449   9.124   3.141   0.003
 3931W        W 7450   3.462   6.008   2.401
 3932W        W 7451   0.138   2.585  11.792
 3933W        W 7452   0.819   6.156   9.385
 3934W        W 7453   3.372   2.655   3.340
 3935W        W 7454   7.141   1.552  10.273
 3936W        W 7455   7.878   9.660   9.893
 3937W        W 7456   5.624   0.376  11.288
 3938W        W 7457   3.718   5.451   1.775
 3939W        W 7458   7.693   3.395  11.805
 3940W        W 7459   4.051   0.175   2.736
 3941W        W 7460   9.614   2.928   9.685
 3942W        W 7461   3.761   7.627   9.816
 3943W        W 7462   2.962   2.664   2.337
 3944W        W 7463   5.648   4.738  11.637
 3945W        W 7464   4.245   4.154  11.098
 3946W        W 7465   7.602   7.993  11.377
 3947W        W 7466   1.982   1.290  10.463
 3948W        W 7467   3.521   9.037   8.991
 3949W        W 7468   5.056   9.322   1.284
 3950W        W 7469   2.922   0.471   9.864
 3951W        W 7470   8.049   4.602  11.839
 3952W        W 7471   3.033   7.056   8.773
 3953W        W 7472   9.526   4.210  10.785
 3954W        W 7473   5.488   0.288  11.785
 3955W        W 7474   9.397   7.072   3.101
 3956W        W 7475   6.537   1.665  10.593
 3957W        W 7476   2.715   4.706   0.520
 3958W        W 7477   3.491   3.206   1.658
 3959W        W 7478   4.710   9.293   3.468
 3960W        W 7479   4.841   5.171   9.945
 3961W        W 7480   1.967   6.196  10.411
 3962W        W 7481   7.264   2.931   1.576
 3963W        W 7482   2.115   6.584   2.694
 3964W        W 7483   0.537   4.035   3.412
 3965W        W 7484   5.444   6.156   9.938
 3966W        W 7485   4.678   9.078   2.275
 3967W        W 7486   0.062   5.094   9.202
 3968W        W 7487   4.433   3.262   9.251
 3969W        W 7488   4.633   7.522   9.004
 3970W        W 7489   5.949   9.135   1.793
 3971W        W 7490   7.622   3.832   0.092
 3972W        W 7491   9.596   5.582   2.840
 3973W        W 7492   6.972   6.409   1.794
 3974W        W 7493   5.419   6.091  11.998
 3975W        W 7494   4.246   9.855   0.098
 3976W        W 7495   9.057   9.958   3.032
 3977W        W 7496   7.766   4.087   0.634
 3978W        W 7497   4.535   1.473   2.083
 3979W        W 7498   6.153   1.206   0.412
 3980W        W 7499   9.284   7.878   0.517
 3981W        W 7500   9.425   8.641   2.348
 3982W        W 7501   0.641   9.354   1.304
 3983W        W 7502   2.822   6.516   0.380
 3984W        W 7503   8.721   4.211   2.198
 3985W        W 7504   3.725   7.833   1.561
 3986W        W 7505   2.526   9.417   1.879
 3987W        W 7506   2.557   2.842   2.770
 3988W        W 7507   6.187   4.593   3.640
 3989W        W 7508   9.705   2.636   2.300
 3990W        W 7509   7.835   5.110   0.525
 3991W        W 7510   5.220   3.873   1.583
 3992W        W 7511   1.379   0.270  10.249
 3993W        W 7512   8.225   8.424   2.804
 3994W        W 7513   4.923   7.371   2.763
 3995W        W 7514   3.836   2.898   3.498
 3996W        W 7515   9.848   5.120  11.719
 3997W        W 7516   5.989   5.425  10.912
 3998W        W 7517   3.967   2.735   9.954
 3999W        W 7518   0.275   2.570   9.238
 4000W        W 7519   6.311   6.088   3.272
 4001W        W 7520   6.990   7.376   2.988
 4002W        W 7521   1.458   6.917   1.620
 4003W        W 7522   2.352   4.607  11.195
 4004W        W 7523   0.371   2.840   0.185
 4005W        W 7524   3.610   3.103   1.172
 4006W        W 7525   8.426   7.572   0.344
 4007W        W 7526   4.952   5.020   9.150
 4008W        W 7527   4.291   4.482   3.648
 4009W        W 7528   1.466   5.689   3.576
 4010W        W 7529   8.465   2.304   2.037
 4011W        W 7530   4.484   7.408   0.692
 4012W        W 7531   5.535   8.042   0.812
 4013W        W 7532   1.960   4.795   0.900
 4014W        W 7533   7.457   8.070   2.450
 4015W        W 7534   4.814   9.053   9.477
 4016W        W 7535   7.615   5.628  10.733
 4017W        W 7536   9.351   4.194   1.493
 4018W        W 7537   4.094   1.676   8.927
 4019W        W 7538   6.997   2.392   8.724
 4020W        W 7539   8.880   2.182   2.323
 4021W        W 7540   7.008   8.007   1.154
 4022W        W 7541   3.110   9.787   0.295
 4023W        W 7542   8.152   4.600   3.084
 4024W        W 7543   3.181   3.412  10.541
 4025W        W 7544   3.188   7.196  11.035
 4026W        W 7545   7.407   6.250  11.814
 4027W        W 7546   0.892   5.644  11.401
 4028W        W 7547   4.286   2.725  11.506
 4029W        W 7548   8.499   8.713  10.224
 4030W        W 7549   6.855   8.781   2.273
 4031W        W 7550   0.258   7.399   1.844
 4032W        W 7551   5.000   9.043   1.729
 4033W        W 7552   3.594   0.274  10.548
 4034W        W 7553   7.039   5.780   9.399
 4035W        W 7554   2.262   6.865   1.164
 4036W        W 7555   7.158   6.497   2.521
 4037W        W 7556   4.348   1.624   1.240
 4038W        W 7557   4.165   8.736   1.534
 4039W        W 7558   1.842   7.461   9.260
 4040W        W 7559   4.195   5.771   0.518
 4041W        W 7560   7.163   0.616   3.547
 4042W        W 7561   5.785   8.591   9.280
 4043W        W 7562   5.082   9.537  11.408
 4044W        W 7563   6.430   6.938  11.767
 4045W        W 7564   1.779   9.379   1.893
 4046W        W 7565   9.434   2.285   9.224
 4047W        W 7566   2.514   4.889   1.469
 4048W        W 7567   8.524   0.433  10.035
 4049W        W 7568   0.807   9.876   2.691
 4050W        W 7569   8.826   2.662  10.045
 4051W        W 7570   5.985   0.041   1.437
 4052W        W 7571   5.463   3.134  11.166
 4053W        W 7572   8.590   5.002   0.968
 4054W        W 7573   5.682   0.033   0.512
 4055W        W 7574   3.049   2.833   8.716
 4056W        W 7575   7.145   0.009   2.710
 4057W        W 7576   0.221   5.080   0.627
 4058W        W 7577   6.566   1.623   2.359
 4059W        W 7578   1.166   3.775  10.507
 4060W        W 7579   2.265   3.341   9.050
 4061W        W 7580   4.078   5.793   9.056
 4062W        W 7581   2.049   8.753   9.731
 4063W        W 7582   6.660   6.468   4.031
 4064W        W 7583   6.654   9.951  11.940
 4065W        W 7584   0.656   0.450  10.817
 4066W        W 7585   7.170   2.321   2.291
 4067W        W 7586   2.643   7.728  11.756
 4068W        W 7587   6.859   0.422  10.959
 4069W        W 7588   6.252   1.743  11.178
 4070W        W 7589   7.067   4.206   2.901
 4071W        W 7590   1.772   4.388  10.308
 4072W        W 7591   7.954   1.131   0.813
 4073W        W 7592   4.084   5.051   9.318
 4074W        W 7593   5.178   1.872   2.837
 4075W        W 7594   0.793   2.191   0.546
 4076W        W 7595   3.914   0.359   1.223
 4077W        W 7596   7.457   3.914  10.112
 4078W        W 7597   6.446   6.268   0.858
 4079W        W 7598   6.441   8.492  10.011
 4080W        W 7599   5.759   5.462   9.955
 4081W        W 7600   0.942   0.255   3.031
 4082W        W 7601   8.625   1.723   2.706
 4083W        W 7602   2.357   6.120  11.187
 4084W        W 7603   4.243   9.914  11.542
 4085W        W 7604   2.417   8.851   3.267
 4086W        W 7605   6.466   4.621   8.247
 4087W        W 7606   6.776   5.922   1.836
 4088W        W 7607   8.005   4.175   0.161
 4089W        W 7608   7.853   6.724   3.516
 4090W        W 7609   9.238   0.874   1.077
 4091W        W 7610   0.848   0.823   3.133
 4092W        W 7611   7.322   8.406   1.091
 4093W        W 7612   9.565   0.925  11.330
 4094W        W 7613   6.951   8.066  10.770
 4095W        W 7614   7.476   2.777   2.021
 4096W        W 7615   6.406   2.554   1.412
 4097W        W 7616   3.341   1.278   2.618
 4098W        W 7617   6.302   2.487  11.362
 4099W        W 7618   7.103   0.549   2.691
 4100W        W 7619   4.214   4.520   9.080
 4101W        W 7620   8.805   0.005  11.912
 4102W        W 7621   3.224   1.769  10.424
 4103W        W 7622   3.701   8.470  10.995
 4104W        W 7623   2.973   5.933   1.862
 4105W        W 7624   3.289   5.012   1.630
 4106W        W 7625   7.504   0.345   3.825
 4107W        W 7626   2.568   3.971  10.232
 4108W        W 7627   6.149   9.696   0.815
 4109W        W 7628   4.130   1.310   3.019
 4110W        W 7629   3.641   3.833   3.002
 4111W        W 7630   9.795   2.995   3.457
 4112W        W 7631   5.378   0.409   9.667
 4113W        W 7632   9.583   5.774   1.609
 4114W        W 7633   7.616   7.515   0.764
 4115W        W 7634   6.597   7.556   2.720
 4116W        W 7635   9.308   6.698   1.610
 4117W        W 7636   1.338   1.206   1.511
 4118W        W 7637   2.354   4.079   8.558
 4119W        W 7638   4.171   0.837   9.502
 4120W        W 7639   3.073   0.266   0.475
 4121W        W 7640   4.444   1.300   8.987
 4122W        W 7641   9.402   6.183   9.684
 4123W        W 7642   8.969   2.310   1.043
 4124W        W 7643   1.281   3.431   0.057
 4125W        W 7644   0.726   3.724   0.229
 4126W        W 7645   4.574   3.354  10.761
 4127W        W 7646   7.232   8.460  11.397
 4128W        W 7647   3.566   3.790   3.963
 4129W        W 7648   6.135   5.740  11.725
 4130W        W 7649   5.400   1.210   0.047
 4131W        W 7650   6.630   4.535   9.539
 4132W        W 7651   0.940   6.966   0.872
 4133W        W 7652   3.693   8.443   3.382
 4134W        W 7653   7.198   3.488   1.750
 4135W        W 7654   6.094   6.703  11.453
 4136W        W 7655   5.256   2.749   3.286
 4137W        W 7656   6.226   7.033  10.587
 4138W        W 7657   8.724   3.941   8.953
 4139W        W 7658   0.691   8.942   2.740
 4140W        W 7659   6.164   4.162   3.352
 4141W        W 7660   5.220   3.666   9.187
 4142W        W 7661   1.151   1.480   0.630
 4143W        W 7662   6.247   1.960   2.609
 4144W        W 7663   8.895   2.892   9.139
 4145W        W 7664   2.841   4.743   0.025
 4146W        W 7665   6.005   4.788  10.022
 4147W        W 7666   1.402   0.372   3.202
 4148W        W 7667   6.024   6.641   1.765
 4149W        W 7668   5.397   6.542  10.284
 4150W        W 7669   8.300   1.279   9.586
 4151W        W 7670   5.635   5.454   1.057
 4152W        W 7671   5.133   6.449   8.361
 4153W        W 7672   7.653   7.280   9.528
 4154W        W 7673   1.628   8.879   0.225
 4155W        W 7674   7.377   6.355  10.806
 4156W        W 7675   8.109   8.413  11.901
 4157W        W 7676   0.713   0.801   2.224
 4158W        W 7677   5.941   6.883   2.203
 4159W        W 7678   8.525   8.934   1.663
 4160W        W 7679   2.175   0.338   2.802
 4161W        W 7680   1.360   7.924   3.612
 4162W        W 7681   5.502   6.601   8.704
 4163W        W 7682   9.330   7.416  10.357
 4164W        W 7683   0.125   6.024  10.930
 4165W        W 7684   2.635   1.558   3.242
 4166W        W 7685   2.906   4.767   2.468
 4167W        W 7686   4.803   5.330   3.510
 4168W        W 7687   4.874   6.001   9.806
 4169W        W 7688   3.201   0.825  10.372
 4170W        W 7689   0.384   3.342   0.227
 4171W        W 7690   9.844   7.005  10.891
 4172W        W 7691   5.334   4.884   2.245
 4173W        W 7692   4.676   1.830  11.343
 4174W        W 7693   5.893   1.346   9.451
 4175W        W 7694   6.374   0.273  10.779
 4176W        W 7695   2.875   1.951   3.002
 4177W        W 7696   6.986   1.036   2.634
 4178W        W 7697   3.827   3.661  10.811
 4179W        W 7698   2.169   8.110   8.629
 4180W        W 7699   5.925   8.229   2.221
 4181W        W 7700   6.972   9.272   8.343
 4182W        W 7701   3.285   6.729   2.161
 4183W        W 7702   9.799   5.621  10.835
 4184W        W 7703   2.833   3.814  11.642
 4185W        W 7704   8.832   1.747  10.417
 4186W        W 7705   9.336   2.592  10.016
 4187W        W 7706   3.725   4.493   9.873
 4188W        W 7707   2.652   5.145   0.266
 4189W        W 7708   6.354   9.661   9.518
 4190W        W 7709   4.530   8.715  11.507
 4191W        W 7710   8.546   8.468   0.840
 4192W        W 7711   5.970   0.438  11.658
 4193W        W 7712   9.726   3.675  10.109
 4194W        W 7713   6.117   1.553   0.815
 4195W        W 7714   8.991   7.842   8.678
 4196W        W 7715   2.291   9.462  11.369
 4197W        W 7716   0.394   4.555   2.661
 4198W        W 7717   0.702   1.930   1.578
 4199W        W 7718   5.915   6.926  11.018
 4200W        W 7719   7.012   1.997  10.057
 4201W        W 7720   8.352   1.494   1.511
 4202W        W 7721   2.145   6.820   9.569
 4203W        W 7722   1.206   0.773   9.059
 4204W        W 7723   2.259   1.790   9.230
 4205W        W 7724   2.536   7.363   2.875
 4206W        W 7725   2.304   6.714   0.282
 4207W        W 7726   0.147   0.445   9.600
 4208W        W 7727   3.656   1.497   2.970
 4209W        W 7728   8.882   9.716   1.152
 4210W        W 7729   4.439   5.941  11.840
 4211W        W 7730   8.799   5.461   2.541
 4212W        W 7731   1.484   2.627   9.830
 4213W        W 7732   9.705   0.613   1.721
 4214W        W 7733   7.941   3.473   3.813
 4215W        W 7734   6.677   8.019   1.986
 4216W        W 7735   0.449   0.212   2.903
 4217W        W 7736   5.582   2.176   9.224
 4218W        W 7737   1.549   3.716   2.380
 4219W        W 7738   5.282   2.383   8.841
 4220W        W 7739   6.474   7.892  10.494
 4221W        W 7740   7.411   7.527  11.221
 4222W        W 7741   3.541   7.042   8.579
 4223W        W 7742   6.753   0.797  11.904
 4224W        W 7743   5.272   5.667  11.636
 4225W        W 7744   3.359   4.122   0.737
 4226W        W 7745   4.296   8.553  10.216
 4227W        W 7746   8.954   0.246  10.518
 4228W        W 7747   4.405   5.493   3.801
 4229W        W 7748   6.092   6.232   9.253
 4230W        W 7749   7.635   5.889   9.846
 4231W        W 7750   1.665   4.693   3.708
 4232W        W 7751   8.221   9.868   1.962
 4233W        W 7752   7.169   4.357   1.326
 4234W        W 7753   5.658   3.327   4.008
 4235W        W 7754   9.941   5.699   2.465
 4236W        W 7755   5.560   3.064  10.489
 4237W        W 7756   6.411   7.628  11.438
 4238W        W 7757   1.052   3.777   2.522
 4239W        W 7758   8.231   8.285  10.136
 4240W        W 7759   0.795   3.344   2.393
 4241W        W 7760   3.887   9.240   8.642
 4242W        W 7761   0.261   2.512   1.409
 4243W        W 7762   8.647   9.296   9.378
 4244W        W 7763   3.122   4.160   1.231
 4245W        W 7764   1.175   1.204   2.997
 4246W        W 7765   9.084   0.984  11.871
 4247W        W 7766   3.285   1.743   3.239
 4248W        W 7767   5.687   0.955   0.382
 4249W        W 7768   8.046   3.557  10.950
 4250W        W 7769   0.877   6.157   8.842
 4251W        W 7770   2.786   7.030   1.629
 4252W        W 7771   4.347   4.759   2.302
 4253W        W 7772   5.940   0.327   0.161
 4254W        W 7773   2.699   5.153   9.793
 4255W        W 7774   0.765   2.412   2.045
 4256W        W 7775   6.250   3.171   9.637
 4257W        W 7776   1.239   1.323  10.926
 4258W        W 7777   3.089   9.531   9.533
 4259W        W 7778   8.897   4.414   3.517
 4260W        W 7779   4.676   7.146  11.377
 4261W        W 7780   8.965   7.750   0.930
 4262W        W 7781   1.261   2.238   9.598
 4263W        W 7782   3.148   3.277  10.051
 4264W        W 7783   1.092   5.746  11.940
 4265W        W 7784   4.170   8.446   0.148
 4266W        W 7785   0.027   9.101   9.119
 4267W        W 7786   6.031   1.874   9.219
 4268W        W 7787   4.706   1.717   3.240
 4269W        W 7788   7.628   0.277  11.067
 4270W        W 7789   0.929   4.326  11.226
 4271W        W 7790   5.005   3.778   1.146
 4272W        W 7791   6.713   6.001   8.457
 4273W        W 7792   4.594   3.078   2.820
 4274W        W 7793   7.834   1.500   2.311
 4275W        W 7794   6.489   4.175   1.167
 4276W        W 7795   2.387   6.670  10.467
 4277W        W 7796   2.126   8.305   0.863
 4278W        W 7797   8.101   8.375   2.282
 4279W        W 7798   1.600   3.208   3.137
 4280W        W 7799   0.887   8.388   0.369
 4281W        W 7800   5.425   1.744   1.445
 4282W        W 7801   9.019   6.134  10.061
 4283W        W 7802   2.962   6.246  11.723
 4284W        W 7803   2.860   9.739  11.828
 4285W        W 7804   4.179   6.712   9.157
 4286W        W 7805   0.900   2.080   9.266
 4287W        W 7806   9.342   1.028   2.393
 4288W        W 7807   8.083   0.011   1.447
 4289W        W 7808   8.381   2.756   0.011
 4290W        W 7809   6.149   8.099   2.668
 4291W        W 7810   4.669   6.679   9.078
 4292W        W 7811   5.978   0.808   9.443
 4293W        W 7812   7.344   9.392  10.279
 4294W        W 7813   1.043   4.248   2.164
 4295W        W 7814   7.396   4.372   2.551
 4296W        W 7815   9.213   9.304   3.049
 4297W        W 7816   1.651   5.585   3.099
 4298W        W 7817   6.902   9.982  11.451
 4299W        W 7818   2.757   9.101  10.151
 4300W        W 7819   4.995   5.925   2.920
 4301W        W 7820   3.794   3.766   3.484
 4302W        W 7821   1.867   0.193   2.139
 4303W        W 7822   5.594   3.115   2.122
 4304W        W 7823   7.816   0.280   9.535
 4305W        W 7824   9.256   1.668   8.875
 4306W        W 7825   1.800   5.224  10.310
 4307W        W 7826   5.304   7.389   9.019
 4308W        W 7827   9.784   7.512   1.525
 4309W        W 7828   3.958   7.380   2.902
 4310W        W 7829   5.485   4.776   9.964
 4311W        W 7830   3.955   0.855   2.222
 4312W        W 7831   7.050   3.986   8.481
 4313W        W 7832   9.955   5.958   9.968
 4314W        W 7833   5.061   9.114   8.652
 4315W        W 7834   3.239   1.663   9.536
 4316W        W 7835   6.791   2.375   0.437
 4317W        W 7836   9.619   9.634   3.099
 4318W        W 7837   5.608   0.865   1.266
 4319W        W 7838   3.498   6.594   1.294
 4320W        W 7839   4.678   0.404   0.803
 4321W        W 7840   1.875   0.527   1.749
 4322W        W 7841   0.681   5.537   8.466
 4323W        W 7842   5.943   7.655  11.626
 4324W        W 7843   1.942   6.926   1.774
 4325W        W 7844   3.728   0.067   3.192
 4326W        W 7845   8.523   6.018  10.209
 4327W        W 7846   9.018   0.266  10.000
 4328W        W 7847   1.727   2.784   0.627
 4329W        W 7848   7.040   7.473   0.278
 4330W        W 7849   4.884   3.932   8.221
 4331W        W 7850   1.393   7.963   2.246
 4332W        W 7851   5.146   6.423   1.683
 4333W        W 7852   9.224   1.792   1.531
 4334W        W 7853   8.504   5.742   9.260
 4335W        W 7854   8.513   4.124  11.316
 4336W        W 7855   2.530   5.597  10.005
 4337W        W 7856   6.526   0.805  11.064
 4338W        W 7857   2.239   9.863   9.090
 4339W        W 7858   6.604   4.155  10.649
 4340W        W 7859   4.594   3.896   2.417
 4341W        W 7860   2.504   1.488   0.164
 4342W        W 7861   0.104   9.537   2.231
 4343W        W 7862   0.573   5.423   0.789
 4344W        W 7863   2.863   0.504   3.497
 4345W        W 7864   8.402   1.567   0.059
 4346W        W 7865   0.322   3.245  10.763
 4347W        W 7866   2.059   4.320   3.677
 4348W        W 7867   9.409   8.859  11.633
 4349W        W 7868   5.480   2.526  10.415
 4350W        W 7869   7.952   0.407   0.293
 4351W        W 7870   2.423   9.437   3.241
 4352W        W 7871   3.645   2.960   9.336
 4353W        W 7872   8.124   9.591  10.719
 4354W        W 7873   9.916   5.742  11.315
 4355W        W 7874   6.899   5.741  11.882
 4356W        W 7875   7.757   4.710  10.312
 4357W        W 7876   1.014   0.186   3.524
 4358W        W 7877   6.657   3.487  11.916
 4359W        W 7878   6.963   5.456  10.406
 4360W        W 7879   8.111   4.721   8.691
 4361W        W 7880   9.899   8.931  11.808
 4362W        W 7881   4.341   1.036   1.917
 4363W        W 7882   3.300   9.732   1.741
 4364W        W 7883   3.328   8.824  10.241
 4365W        W 7884   6.064   3.325   1.894
 4366W        W 7885   7.677   7.331   9.011
 4367W        W 7886   4.303   2.585   0.933
 4368W        W 7887   9.422   3.341   3.535
 4369W        W 7888   7.701   9.541   9.106
 4370W        W 7889   2.110   4.061   3.243
 4371W        W 7890   4.138   4.741   1.294
 4372W        W 7891   5.999   5.661   8.577
 4373W        W 7892   0.729   4.855   3.412
 4374W        W 7893   6.973   4.473   8.314
 4375W        W 7894   0.414   1.127   1.510
 4376W        W 7895   9.751   3.772  10.609
 4377W        W 7896   7.442   7.075   1.277
 4378W        W 7897   3.334   4.688  11.133
 4379W        W 7898   5.414   0.335   1.206
 4380W        W 7899   2.440   4.708  10.715
 4381W        W 7900   4.635   6.678   0.225
 4382W        W 7901   9.503   6.349   2.185
 4383W        W 7902   8.087   0.360  11.336
 4384W        W 7903   7.843   7.981  11.899
 4385W        W 7904   6.616   2.491  11.777
 4386W        W 7905   9.332   7.887   3.301
 4387W        W 7906   9.314   4.694   9.448
 4388W        W 7907   4.716   4.824   0.455
 4389W        W 7908   2.896   4.898   4.184
 4390W        W 7909   2.415   3.052   3.198
 4391W        W 7910   4.405   6.542   1.036
 4392W        W 7911   4.281   1.586   3.475
 4393W        W 7912   7.163   3.739   2.206
 4394W        W 7913   0.023   5.062  10.187
 4395W        W 7914   8.586   7.624   9.341
 4396W        W 7915   5.072   0.787   9.497
 4397W        W 7916   3.618   4.224  11.775
 4398W        W 7917   9.363   4.248   3.333
 4399W        W 7918   2.727   7.214  11.768
 4400W        W 7919   3.233   3.755   8.835
 4401W        W 7920   2.918   3.913   2.287
 4402W        W 7921   1.749   1.257  10.944
 4403W        W 7922   3.096   0.550   0.886
 4404W        W 7923   8.476   1.866  10.783
 4405W        W 7924   0.406   4.542  11.908
 4406W        W 7925   3.056   6.304   1.429
 4407W        W 7926   6.685   0.803   9.094
 4408W        W 7927   8.491   6.254   9.743
 4409W        W 7928   6.107   7.153  10.080
 4410W        W 7929   5.659   5.795   2.295
 4411W        W 7930   5.294   2.985   0.983
 4412W        W 7931   7.873   8.966  11.320
 4413W        W 7932   0.359   8.389   2.087
 4414W        W 7933   0.973   5.481   0.401
 4415W        W 7934   7.583   0.730   9.437
 4416W        W 7935   8.192   3.238   3.083
 4417W        W 7936   0.922   7.005   2.220
 4418W        W 7937   0.328   8.161  11.274
 4419W        W 7938   7.505   4.006   3.397
 4420W        W 7939   8.045   6.873  10.473
 4421W        W 7940   9.779   0.737   1.008
 4422W        W 7941   8.575   6.616   1.871
 4423W        W 7942   8.602   9.738  10.620
 4424W        W 7943   0.342   9.221  11.839
 4425W        W 7944   6.555   6.090   2.765
 4426W        W 7945   3.188   3.256   9.066
 4427W        W 7946   9.051   4.516   2.441
 4428W        W 7947   3.950   4.264   1.728
 4429W        W 7948   2.788   7.358   8.397
 4430W        W 7949   6.402   2.491  10.061
 4431W        W 7950   9.339   0.570   2.071
 4432W        W 7951   4.636   0.706  11.712
 4433W        W 7952   0.836   6.152  11.336
 4434W        W 7953   1.372   3.504  10.109
 4435W        W 7954   6.375   1.328   9.733
 4436W        W 7955   6.507   5.294  10.988
 4437W        W 7956   2.873   8.116   8.633
 4438W        W 7957   7.569   9.369  11.261
 4439W        W 7958   9.385   6.541  11.831
 4440W        W 7959   8.230   6.396   2.169
 4441W        W 7960   7.014   8.351   3.142
 4442W        W 7961   8.252   9.505   3.219
 4443W        W 7962   8.059   6.999   9.395
 4444W        W 7963   4.652   9.977   1.590
 4445W        W 7964   9.775   0.334  10.994
 4446W        W 7965   5.617   6.391   3.708
 4447W        W 7966   5.430   0.564   3.487
 4448W        W 7967   4.572   7.178   0.237
 4449W        W 7968   7.782   1.170   9.657
 4450W        W 7969   4.912   1.219   1.799
 4451W        W 7970   5.466   1.447   8.737
 4452W        W 7971   4.029   5.170   0.994
 4453W        W 7972   9.261   8.794   2.833
 4454W        W 7973   8.089   9.707   0.099
 4455W        W 7974   6.767   7.545  10.726
 4456W        W 7975   2.436   9.463   1.207
 4457W        W 7976   7.421   0.370   0.596
 4458W        W 7977   5.981   2.838   3.176
 4459W        W 7978   8.646   6.566   2.405
 4460W        W 7979   3.949   6.793  11.601
 4461W        W 7980   6.583   0.855   0.381
 4462W        W 7981   3.112   5.151  10.372
 4463W        W 7982   7.445   9.196   3.324
 4464W        W 7983   4.525   5.850  10.988
 4465W        W 7984   4.213   8.162   2.341
 4466W        W 7985   3.067   9.763   3.582
 4467W        W 7986   4.066   7.140  11.971
 4468W        W 7987   0.876   0.645   9.502
 4469W        W 7988   2.535   9.098   2.835
 4470W        W 7989   4.479   7.398  11.796
 4471W        W 7990   7.359   2.802  10.090
 4472W        W 7991   5.211   2.779   2.188
 4473W        W 7992   2.761   9.973   9.983
 4474W        W 7993   8.520   9.774   1.550
 4475W        W 7994   0.916   9.770   3.229
 4476W        W 7995   2.361   9.637  11.850
 4477W        W 7996   1.775   9.696   9.725
 4478W        W 7997   4.558   9.305   1.831
 4479W        W 7998   5.701   4.943  10.857
 4480W        W 7999   2.425   1.203  11.742
 4481W        W 8000   4.757   2.864   2.381
 4482W        W 8001   8.701   6.099   1.953
 4483W        W 8002   0.907   5.178  11.998
 4484W        W 8003   9.025   8.581   9.021
 4485W        W 8004   4.475   2.444   2.323
 4486W        W 8005   2.510   6.971   8.657
 4487W        W 8006   3.944   7.113   8.961
 4488W        W 8007   1.764   0.374   0.332
 4489W        W 8008   3.552   9.828   9.417
 4490W        W 8009   5.132   3.627   2.239
 4491W        W 8010   9.369   4.685   1.420
 4492W        W 8011   6.987   7.759   9.798
 4493W        W 8012   3.698   6.936   2.988
 4494W        W 8013   5.759   3.631   0.744
 4495W        W 8014   3.994   6.504   8.281
 4496W        W 8015   6.065   8.641  11.900
 4497W        W 8016   0.194   9.677   1.252
 4498W        W 8017   7.255   7.314   8.692
 4499W        W 8018   0.473   8.397   0.056
 4500W        W 8019   8.952   3.069   2.167
 4501W        W 8020   2.149   7.830   9.676
 4502W        W 8021   9.140   1.803   2.063
 4503W        W 8022   9.327   4.955   2.316
 4504W        W 8023   9.846   5.608  10.334
 4505W        W 8024   2.430   0.719   3.010
 4506W        W 8025   5.531   6.634  10.796
 4507W        W 8026   7.964   7.573   8.672
 4508W        W 8027   1.816   2.691  11.194
 4509W        W 8028   6.232   3.708   2.220
 4510W        W 8029   1.610   7.942   0.609
 4511W        W 8030   6.133   4.760   2.557
 4512W        W 8031   5.941   2.377   1.353
 4513W        W 8032   2.150   1.984   0.868
 4514W        W 8033   6.191   5.195   8.803
 4515W        W 8034   6.825   6.070   9.751
 4516W        W 8035   4.736   2.641  10.960
 4517W        W 8036   8.476   3.058   0.865
 4518W        W 8037   2.980   8.081   9.134
 4519W        W 8038   9.391   7.197   9.732
 4520W        W 8039   8.586   4.567  10.577
 4521W        W 8040   6.051   6.541  10.667
 4522W        W 8041   1.712   7.974   9.975
 4523W        W 8042   4.606   4.065   1.080
 4524W        W 8043   5.920   1.544   9.918
 4525W        W 8044   8.954   2.310   0.021
 4526W        W 8045   9.350   4.875   9.977
 4527W        W 8046   2.531   6.557   0.808
 4528W        W 8047   3.059   0.096   1.472
 4529W        W 8048   4.166   0.577   1.830
 4530W        W 8049   9.154   9.769   0.218
 4531W        W 8050   2.329   4.051   9.569
 4532W        W 8051   6.649   2.179   9.721
 4533W        W 8052   8.458   2.356   0.933
 4534W        W 8053   0.267   2.337  10.983
 4535W        W 8054   0.517   8.864   1.410
 4536W        W 8055   6.722   8.448   2.715
 4537W        W 8056   8.477   3.328   9.509
 4538W        W 8057   6.699   2.834  11.429
 4539W        W 8058   2.929   7.595   9.327
 4540W        W 8059   9.737   9.032   2.487
 4541W        W 8060   4.370   7.170   9.293
 4542W        W 8061   8.055   9.777   9.420
 4543W        W 8062   3.773   7.235   9.445
 4544W        W 8063   6.454   5.419   1.092
 4545W        W 8064   5.900   3.943   0.289
 4546W        W 8065   9.526   0.873   0.124
 4547W        W 8066   8.448   8.841   2.151
 4548W        W 8067   4.166   9.269   1.480
 4549W        W 8068   9.673   8.172   0.348
 4550W        W 8069   2.133   0.836   2.603
 4551W        W 8070   9.997   6.850   1.019
 4552W        W 8071   6.096   0.477   2.001
 4553W        W 8072   6.190   9.520   8.632
 4554W        W 8073   0.017   4.185   9.273
 4555W        W 8074   0.425   6.170   0.225
 4556W        W 8075   6.105   7.426   3.075
 4557W        W 8076   0.531   1.331   8.667
 4558W        W 8077   3.138   5.644  10.186
 4559W        W 8078   5.536   2.152   3.089
 4560W        W 8079   2.068   9.124   1.074
 4561W        W 8080   0.323   8.279  10.768
 4562W        W 8081   3.383   8.073   1.878
 4563W        W 8082   0.791   0.576   2.673
 4564W        W 8083   4.272   6.498   0.546
 4565W        W 8084   0.665   1.297   3.149
 4566W        W 8085   0.567   0.672   1.665
 4567W        W 8086   7.366   2.743   2.997
 4568W        W 8087   3.422   1.538   3.682
 4569W        W 8088   7.962   2.823  11.660
 4570W        W 8089   7.349   4.411  11.419
 4571W        W 8090   4.236   0.421  11.424
 4572W        W 8091   0.084   2.819   2.643
 4573W        W 8092   3.419   9.950   0.686
 4574W        W 8093   0.016   7.599   0.066
 4575W        W 8094   5.364   6.156   2.095
 4576W        W 8095   3.076   7.278   3.466
 4577W        W 8096   7.154   5.754   1.040
 4578W        W 8097   3.327   5.955  11.041
 4579W        W 8098   4.583   0.305   1.972
 4580W        W 8099   7.590   6.619   0.115
 4581W        W 8100   6.856   0.638   1.806
 4582W        W 8101   2.712   4.934   2.013
 4583W        W 8102   8.287   4.085   9.268
 4584W        W 8103   3.817   0.575   9.807
 4585W        W 8104   3.401   5.128   2.885
 4586W        W 8105   7.014   4.367   8.827
 4587W        W 8106   5.760   7.140   9.271
 4588W        W 8107   5.031   0.367   9.176
 4589W        W 8108   9.965   5.451   1.452
 4590W        W 8109   4.701   8.041   2.296
 4591W        W 8110   6.463   8.910   0.697
 4592W        W 8111   1.967   9.497   8.484
 4593W        W 8112   9.680   0.434   8.344
 4594W        W 8113   3.234   2.867  10.693
 4595W        W 8114   4.456   3.054   1.213
 4596W        W 8115   2.732   4.552   8.989
 4597W        W 8116   2.687   4.222  11.380
 4598W        W 8117   8.861   0.529   0.021
 4599W        W 8118   8.113   4.826   1.130
 4600W        W 8119   2.001   8.865  10.242
 4601W        W 8120   9.757   9.833   1.494
 4602W        W 8121   0.388   6.117   2.180
 4603W        W 8122   0.534   2.108  10.585
 4604W        W 8123   4.561   4.346   3.232
 4605W        W 8124   8.390   7.073   1.515
 4606W        W 8125   4.054   2.309   1.313
 4607W        W 8126   7.537   0.171   3.358
 4608W        W 8127   6.017   2.040   0.025
 4609W        W 8128   3.362   8.687   3.042
 4610W        W 8129   3.696   9.897  10.913
 4611W        W 8130   3.633   6.869  10.677
 4612W        W 8131   7.096   6.523  11.436
 4613W        W 8132   9.067   5.170   0.690
 4614W        W 8133   5.244   7.587  11.171
 4615W        W 8134   1.406   4.494  11.282
 4616W        W 8135   3.724   6.387  11.411
 4617W        W 8136   3.793   5.802   3.704
 4618W        W 8137   6.263   0.925   3.589
 4619W        W 8138   5.694   2.713   0.749
 4620W        W 8139   2.011   1.259  11.420
 4621W        W 8140   3.304   8.536   0.008
 4622W        W 8141   9.515   4.230   9.418
 4623W        W 8142   0.067   5.685   1.905
 4624W        W 8143   2.467   3.361  11.097
 4625W        W 8144   6.862   5.046  10.744
 4626W        W 8145   2.313   7.198   1.538
 4627W        W 8146   4.635   9.135   8.957
 4628W        W 8147   0.403   7.598   9.690
 4629W        W 8148   9.558   6.360  10.140
 4630W        W 8149   6.745   0.283   9.007
 4631W        W 8150   1.773   4.697   3.204
 4632W        W 8151   0.119   6.591   3.508
 4633W        W 8152   5.930   2.451   0.302
 4634W        W 8153   9.550   8.016   1.488
 4635W        W 8154   3.764   2.803  10.727
 4636W        W 8155   4.267   6.152  10.647
 4637W        W 8156   6.838   3.894   8.938
 4638W        W 8157   0.945   7.961   2.578
 4639W        W 8158   1.891   4.134   2.421
 4640W        W 8159   5.974   1.174  11.780
 4641W        W 8160   6.487   3.488  10.016
 4642W        W 8161   3.297   6.483   3.603
 4643W        W 8162   7.575   4.150   1.097
 4644W        W 8163   0.754   6.599   2.648
 4645W        W 8164   8.584   8.418   2.436
 4646W        W 8165   5.776   7.455  11.179
 4647W        W 8166   5.674   9.531   0.654
 4648W        W 8167   0.031   4.880   0.162
 4649W        W 8168   7.930   6.898   0.353
 4650W        W 8169   1.063   1.299   8.669
 4651W        W 8170   3.274   1.698  11.607
 4652W        W 8171   6.523   8.827  10.964
 4653W        W 8172   8.546   4.480   0.926
 4654W        W 8173   3.255   3.310   8.551
 4655W        W 8174   2.080   6.614   2.170
 4656W        W 8175   8.106   2.359  11.436
 4657W        W 8176   5.510   6.714   1.507
 4658W        W 8177   3.225   2.302  10.030
 4659W        W 8178   0.186   0.625   1.993
 4660W        W 8179   5.200   8.096  11.077
 4661W        W 8180   1.840   6.096   9.911
 4662W        W 8181   7.824   9.893  10.385
 4663W        W 8182   6.490   4.850   9.917
 4664W        W 8183   0.867   6.466   0.478
 4665W        W 8184   2.035   7.632   1.477
 4666W        W 8185   4.138   6.232   3.534
 4667W        W 8186   5.839   6.892   3.579
 4668W        W 8187   9.660   6.673  11.314
 4669W        W 8188   6.546   3.102   9.239
 4670W        W 8189   2.039   3.661   2.259
 4671W        W 8190   7.048   0.300   2.269
 4672W        W 8191   4.764   9.888  11.586
 4673W        W 8192   4.462   6.873  11.782
 4674W        W 8193   4.791   7.425  10.943
 4675W        W 8194   0.382   1.969   2.349
 4676W        W 8195   7.454   4.264   2.076
 4677W        W 8196   0.375   6.407  10.635
 4678W        W 8197   9.009   8.156  11.264
 4679W        W 8198   3.894   9.066  10.992
 4680W        W 8199   1.842   4.046   9.312
 4681W        W 8200   0.793   4.009   0.654
 4682W        W 8201   9.232   8.913  10.621
 4683W        W 8202   0.213   7.598   2.334
 4684W        W 8203   0.745   2.938   2.731
 4685W        W 8204   7.598   9.574   3.675
 4686W        W 8205   4.770   2.748   1.857
 4687W        W 8206   8.184   4.889  10.530
 4688W        W 8207   0.343   2.177   1.838
 4689W        W 8208   3.087   6.080   9.025
 4690W        W 8209   3.992   3.750   0.363
 4691W        W 8210   4.090   7.020   8.465
 4692W        W 8211   5.105   9.442   9.604
 4693W        W 8212   0.656   2.582  11.873
 4694W        W 8213   6.071   7.810   0.115
 4695W        W 8214   4.165   4.025   8.874
 4696W        W 8215   0.458   2.010   3.370
 4697W        W 8216   3.348   9.809  11.802
 4698W        W 8217   2.892   5.163   2.816
 4699W        W 8218   3.060   1.251   9.320
 4700W        W 8219   8.897   7.169  10.965
 4701W        W 8220   8.417   0.288   1.769
 4702W        W 8221   4.627   2.479   9.559
 4703W        W 8222   9.370   9.069   2.062
 4704W        W 8223   5.545   2.837   9.998
 4705W        W 8224   9.591   8.205   2.552
 4706W        W 8225   8.964   9.287   1.869
 4707W        W 8226   8.785   1.159   1.393
 4708W        W 8227   9.025   3.081   3.341
 4709W        W 8228   7.429   6.606   2.931
 4710W        W 8229   4.550   9.573  11.249
 4711W        W 8230   9.755   0.419   0.017
 4712W        W 8231   4.713   4.397   2.314
 4713W        W 8232   6.833   3.615   0.391
 4714W        W 8233   4.172   4.724   3.177
 4715W        W 8234   4.708   5.695   1.063
 4716W        W 8235   7.618   7.997   0.949
 4717W        W 8236   6.961   8.983   2.727
 4718W        W 8237   5.848   0.290  10.825
 4719W        W 8238   1.750   0.118   0.789
 4720W        W 8239   3.382   1.475   0.679
 4721W        W 8240   4.005   7.618  11.824
 4722W        W 8241   3.913   8.959   9.339
 4723W        W 8242   2.631   1.617  10.163
 4724W        W 8243   6.227   8.633   9.563
 4725W        W 8244   0.981   3.664  11.024
 4726W        W 8245   1.881   7.459  10.787
 4727W        W 8246   7.932   8.183   3.149
 4728W        W 8247   7.904   1.016   8.886
 4729W        W 8248   8.421   5.957   8.768
 4730W        W 8249   3.363   1.184  11.780
 4731W        W 8250   6.943   1.120   3.536
 4732W        W 8251   6.706   0.714   2.321
 4733W        W 8252   0.941   2.177   3.516
 4734W        W 8253   4.100   4.804  10.567
 4735W        W 8254   8.060   4.939   1.630
 4736W        W 8255   5.468   0.641   9.222
 4737W        W 8256   7.929   0.284   2.032
 4738W        W 8257   2.129   5.102   8.608
 4739W        W 8258   0.723   8.890  11.966
 4740W        W 8259   1.000   4.981  11.091
 4741W        W 8260   3.948   9.361   0.596
 4742W        W 8261   7.122   6.033   0.230
 4743W        W 8262   4.760   9.854   0.104
 4744W        W 8263   3.215   9.936  11.330
 4745W        W 8264   3.326   4.586  11.983
 4746W        W 8265   5.063   2.341   3.056
 4747W        W 8266   6.189   1.936   2.106
 4748W        W 8267   9.823   4.018   3.136
 4749W        W 8268   1.416   7.422   3.404
 4750W        W 8269   9.885   2.044   0.496
 4751W        W 8270   8.095   8.209   0.888
 4752W        W 8271   9.963   3.134  11.435
 4753W        W 8272   4.980   3.171   8.603
 4754W        W 8273   8.279   0.020   3.432
 4755W        W 8274   5.540   3.858   8.863
 4756W        W 8275   0.836   1.720   0.286
 4757W        W 8276   9.450   0.874   0.623
 4758W        W 8277   3.732   6.524   0.428
 4759W        W 8278   4.933   5.632  10.159
 4760W        W 8279   8.451   5.978  11.245
 4761W        W 8280   4.979   4.777  10.208
 4762W        W 8281   9.875   0.286  10.004
 4763W        W 8282   1.302   5.515   1.315
 4764W        W 8283   8.814   7.318   1.258
 4765W        W 8284   1.872   9.349   0.099
 4766W        W 8285   4.863   0.002   2.744
 4767W        W 8286   6.407   2.641   0.219
 4768W        W 8287   0.854   9.063   1.723
 4769W        W 8288   6.312   2.210   0.525
 4770W        W 8289   2.018   9.919   1.208
 4771W        W 8290   9.924   2.156  11.994
 4772W        W 8291   6.672   0.175   2.626
 4773W        W 8292   7.614   5.146   1.529
 4774W        W 8293   1.653   1.170   0.742
 4775W        W 8294   0.972   9.271  11.607
 4776W        W 8295   9.458   5.847  10.077
 4777W        W 8296   1.728   0.660   0.845
 4778W        W 8297   7.033   8.201   3.653
 4779W        W 8298   0.773   3.701   9.330
 4780W        W 8299   5.023   3.446  10.045
 4781W        W 8300   8.539   7.454   3.292
 4782W        W 8301   8.706   0.205   1.362
 4783W        W 8302   6.023   2.355   1.840
 4784W        W 8303   7.172   9.389   2.323
 4785W        W 8304   4.075   6.715   2.332
 4786W        W 8305   0.236   0.935   2.452
 4787W        W 8306   3.134   2.324   0.314
 4788W        W 8307   0.650   3.803   9.817
 4789W        W 8308   5.985   4.609   0.841
 4790W        W 8309   6.800   9.454   1.369
 4791W        W 8310   3.478   7.366   3.142
 4792W        W 8311   8.518   4.843  11.864
 4793W        W 8312   4.107   6.496  10.065
 4794W        W 8313   2.033   2.786   3.456
 4795W        W 8314   0.837   0.491  10.323
 4796W        W 8315   2.299   1.912   2.074
 4797W        W 8316   7.564   3.352  10.074
 4798W        W 8317   8.491   4.124  10.798
 4799W        W 8318   9.908   7.216   2.408
 4800W        W 8319   8.497   8.973   0.660
 4801W        W 8320   7.643   9.009  10.002
 4802W        W 8321   8.503   0.779   2.171
 4803W        W 8322   1.211   1.951   2.582
 4804W        W 8323   8.996   3.595  11.452
 4805W        W 8324   9.905   4.589   1.738
 4806W        W 8325   1.955   4.555   4.114
 4807W        W 8326   0.487   1.652   1.947
 4808W        W 8327   9.067   2.611   1.511
 4809W        W 8328   8.750   1.934   0.794
 4810W        W 8329   6.646   6.305   8.045
 4811W        W 8330   4.698   0.833   0.200
 4812W        W 8331   5.905   0.886  10.888
 4813W        W 8332   3.914   7.943   1.096
 4814W        W 8333   1.643   1.674   0.636
 4815W        W 8334   5.896   7.963   8.933
 4816W        W 8335   0.650   1.075   2.697
 4817W        W 8336   8.986   0.619   0.695
 4818W        W 8337   0.346   9.520   3.579
 4819W        W 8338   6.303   1.134   9.227
 4820W        W 8339   2.527   6.397   2.122
 4821W        W 8340   8.515   4.234   9.745
 4822W        W 8341   2.755   2.380   2.730
 4823W        W 8342   5.264   9.174   3.554
 4824W        W 8343   1.619   6.602   9.215
 4825W        W 8344   5.164   1.572   0.959
 4826W        W 8345   8.367   6.227   9.235
 4827W        W 8346   0.304   3.067   9.137
 4828W        W 8347   7.402   9.877   2.258
 4829W        W 8348   4.870   0.149  10.946
 4830W        W 8349   3.990   7.536   0.769
 4831W        W 8350   5.722   1.972   8.788
 4832W        W 8351   3.546   2.167   1.321
 4833W        W 8352   8.083   6.718   0.806
 4834W        W 8353   5.749   1.950   9.649
 4835W        W 8354   3.692   1.022   9.591
 4836W        W 8355   4.759   8.919  11.955
 4837W        W 8356   3.183   3.362   0.591
 4838W        W 8357   4.759   4.426   1.723
 4839W        W 8358   2.923   4.752   9.988
 4840W        W 8359   5.683   8.811  10.564
 4841W        W 8360   4.896   4.876   1.535
 4842W        W 8361   9.549   1.322   9.114
 4843W        W 8362   2.275   9.493   2.558
 4844W        W 8363   9.374   2.784   8.972
 4845W        W 8364   6.428   3.797  11.545
 4846W        W 8365   9.297   7.710   1.814
 4847W        W 8366   7.495   8.584   3.162
 4848W        W 8367   8.976   2.304   0.519
 4849W        W 8368   6.146   6.213  11.551
 4850W        W 8369   0.687   7.789   1.018
 4851W        W 8370   0.386   7.128   0.246
 4852W        W 8371   6.422   2.034  11.568
 4853W        W 8372   1.266   0.979   1.016
 4854W        W 8373   8.949   0.373   1.803
 4855W        W 8374   5.291   2.975   8.247
 4856W        W 8375   9.362   5.955   8.702
 4857W        W 8376   9.533   9.022   1.574
 4858W        W 8377   1.359   8.785   9.007
 4859W        W 8378   8.013   3.670  11.442
 4860W        W 8379   3.414   6.036  11.612
 4861W        W 8380   3.582   5.525   2.256
 4862W        W 8381   1.027   7.436  11.187
 4863W        W 8382   4.425   9.152   0.664
 4864W        W 8383   0.659   0.007  11.211
 4865W        W 8384   1.614   6.772  11.482
 4866W        W 8385   1.776   0.346   1.255
 4867W        W 8386   3.972   6.764  11.061
 4868W        W 8387   2.282   9.162   9.898
 4869W        W 8388   7.101   7.177  10.963
 4870W        W 8389   1.371   5.822   0.350
 4871W        W 8390   8.210   6.541   2.689
 4872W        W 8391   7.113   2.388  10.353
 4873W        W 8392   1.263   1.702   3.039
 4874W        W 8393   4.011   2.848   1.437
 4875W        W 8394   2.789   2.053  10.381
 4876W        W 8395   2.707   7.291   2.384
 4877W        W 8396   2.831   9.911   3.146
 4878W        W 8397   3.513   1.191   2.151
 4879W        W 8398   5.022   5.281  11.383
 4880W        W 8399   4.949   6.539   1.154
 4881W        W 8400   8.656   9.713   3.575
 4882W        W 8401   0.529   8.848   3.499
 4883W        W 8402   1.691   8.445  10.188
 4884W        W 8403   8.103   1.149  11.919
 4885W        W 8404   0.153   5.296   2.232
 4886W        W 8405   3.757   2.276   9.951
 4887W        W 8406   7.578   4.379  10.967
 4888W        W 8407   6.554   0.482   0.754
 4889W        W 8408   4.082   9.556  11.021
 4890W        W 8409   8.446   2.249   0.237
 4891W        W 8410   4.596   0.936  11.257
 4892W        W 8411   7.690   1.829   9.048
 4893W        W 8412   5.461   6.021   2.717
 4894W        W 8413   5.803   4.322  10.071
 4895W        W 8414   4.384   6.682  11.335
 4896W        W 8415   9.990   7.336   0.537
 4897W        W 8416   6.440   0.359   0.264
 4898W        W 8417   9.058   9.213   9.771
 4899W        W 8418   5.580   1.479  11.630
 4900W        W 8419   9.830   4.309   3.558
 4901W        W 8420   6.958   5.634   3.564
 4902W        W 8421   5.122   2.564  11.759
 4903W        W 8422   1.421   5.519   1.830
 4904W        W 8423   6.918   6.154  11.089
 4905W        W 8424   2.245   4.887   0.493
 4906W        W 8425   5.218   3.787   9.680
 4907W        W 8426   9.789   8.974  10.307
 4908W        W 8427   6.582   6.525  11.513
 4909W        W 8428   2.846   0.242   8.881
 4910W        W 8429   1.866   4.250   0.027
 4911W        W 8430   0.978   0.577  11.192
 4912W        W 8431   3.006   2.642   9.631
 4913W        W 8432   6.928   3.364   1.338
 4914W        W 8433   7.250   8.535  10.369
 4915W        W 8434   8.410   1.943   9.759
 4916W        W 8435   7.269   7.629   9.112
 4917W        W 8436   1.275   8.069   9.704
 4918W        W 8437   1.365   5.047  10.008
 4919W        W 8438   2.196   1.278   9.005
 4920W        W 8439   0.221   2.749   0.951
 4921W        W 8440   0.213   8.018   3.254
 4922W        W 8441   1.962   5.583   3.504
 4923W        W 8442   3.428   9.098  11.239
 4924W        W 8443   9.004   5.612   9.962
 4925W        W 8444   0.893   9.395   2.877
 4926W        W 8445   5.120   6.444   9.083
 4927W        W 8446   9.948   8.566   2.360
 4928W        W 8447   4.378   7.324   3.637
 4929W        W 8448   2.810   8.195   0.658
 4930W        W 8449   5.651   7.654   3.229
 4931W        W 8450   0.796   8.484   3.238
 4932W        W 8451   4.822   1.323   2.492
 4933W        W 8452   3.800   5.126   2.499
 4934W        W 8453   8.956   8.765   0.507
 4935W        W 8454   2.904   5.559   0.426
 4936W        W 8455   8.479   9.425   1.916
 4937W        W 8456   3.685   7.165   0.944
 4938W        W 8457   7.665   8.449   0.688
 4939W        W 8458   4.213   8.077  11.771
 4940W        W 8459   0.459   2.167   8.997
 4941W        W 8460   5.238   6.153   9.479
 4942W        W 8461   1.154   7.415   1.985
 4943W        W 8462   4.157   9.865   9.145
 4944W        W 8463   0.420   6.678   3.080
 4945W        W 8464   7.992   6.107  11.356
 4946W        W 8465   3.524   5.127  11.331
 4947W        W 8466   3.829   0.977   1.751
 4948W        W 8467   8.389   2.514   2.885
 4949W        W 8468   6.269   8.477   2.998
 4950W        W 8469   3.940   8.523   2.551
 4951W        W 8470   2.177   8.652   1.269
 4952W        W 8471   5.654   5.057   2.621
 4953W        W 8472   7.069   7.356   1.992
 4954W        W 8473   1.475   3.310   0.567
 4955W        W 8474   8.491   1.110  11.227
 4956W        W 8475   9.088   3.497   2.371
 4957W        W 8476   9.538   9.508   0.430
 4958W        W 8477   6.557   2.853   2.446
 4959W        W 8478   9.898   8.449   1.852
 4960W        W 8479   4.562   9.804   3.549
 4961W        W 8480   4.624   1.945   2.244
 4962W        W 8481   6.221   7.837   2.154
 4963W        W 8482   3.080   4.309  10.155
 4964W        W 8483   4.780   6.304   8.740
 4965W        W 8484   1.385   5.340  10.617
 4966W        W 8485   1.296   9.766   9.028
 4967W        W 8486   7.157   2.013   9.572
 4968W        W 8487   1.998   5.625  10.044
 4969W        W 8488   4.116   5.583  10.890
 4970W        W 8489   5.332   3.419   1.302
 4971W        W 8490   3.695   8.540   0.365
 4972W        W 8491   7.837   2.155   1.744
 4973W        W 8492   2.377   3.314  10.594
 4974W        W 8493   4.106   3.357   3.487
 4975W        W 8494   2.758   3.818   1.362
 4976W        W 8495   4.948   8.246   2.888
 4977W        W 8496   8.941   2.735  11.704
 4978W        W 8497   6.098   9.050   2.291
 4979W        W 8498   3.249   5.134  10.893
 4980W        W 8499   8.813   4.953   2.630
 4981W        W 8500   5.769   5.467  11.460
 4982W        W 8501   0.731   3.831   2.133
 4983W        W 8502   9.725   1.907  10.269
 4984W        W 8503   6.585   6.531   9.574
 4985W        W 8504   6.354   0.248  10.251
 4986W        W 8505   1.686   7.906   9.465
 4987W        W 8506   1.634   0.279  11.857
 4988W        W 8507   8.971   6.887   9.945
 4989W        W 8508   8.960   8.265  11.842
 4990W        W 8509   3.858   1.170   2.597
 4991W        W 8510   7.412   6.149   4.123
 4992W        W 8511   5.222   4.167   0.830
 4993W        W 8512   0.451   9.663   3.059
 4994W        W 8513   8.662   9.968  10.167
 4995W        W 8514   6.422   7.060   1.193
 4996W        W 8515   1.764   7.577   0.287
 4997W        W 8516   6.247   1.871   9.707
 4998W        W 8517   7.134   2.323   0.071
 4999W        W 8518   0.921   3.390  11.455
 5000W        W 8519   1.397   9.846   3.378
 5001W        W 8520   1.745   5.929   1.781
 5002W        W 8521   1.703   1.765   0.089
 5003W        W 8522   7.606   6.781   1.648
 5004W        W 8523   7.111   0.738  10.308
 5005W        W 8524   8.195   5.880   2.061
 5006W        W 8525   9.810   7.188  10.361
 5007W        W 8526   9.736   6.192   1.079
 5008W        W 8527   6.084   5.142   2.890
 5009W        W 8528   3.772   6.681   1.766
 5010W        W 8529   8.316   3.201  10.450
 5011W        W 8530   5.790   4.534  11.165
 5012W        W 8531   8.035   1.868   9.425
 5013W        W 8532   1.360   7.591  10.468
 5014W        W 8533   1.203   8.717   1.560
 5015W        W 8534   1.437   5.440   0.675
 5016W        W 8535   7.416   8.072  10.504
 5017W        W 8536   3.608   9.574  11.321
 5018W        W 8537   8.757   2.141  10.081
 5019W        W 8538   9.483   5.987   2.550
 5020W        W 8539   0.329   8.425   1.583
 5021W        W 8540   0.801   5.360   1.261
 5022W        W 8541   6.725   1.368   0.391
 5023W        W 8542   5.327   0.219   2.696
 5024W        W 8543   4.629   8.792  10.997
 5025W        W 8544   0.312   2.470   2.339
 5026W        W 8545   2.098   3.596   9.455
 5027W        W 8546   9.388   5.008   1.045
 5028W        W 8547   5.937   6.079   0.061
 5029W        W 8548   0.481   3.728   1.710
 5030W        W 8549   1.829   7.189   1.321
 5031W        W 8550   0.188   7.214   1.343
 5032W        W 8551   1.091   0.219  11.967
 5033W        W 8552   4.216   0.839   2.832
 5034W        W 8553   7.917   7.174   1.698
 5035W        W 8554   6.900   6.006   4.138
 5036W        W 8555   2.515   5.044   3.227
 5037W        W 8556   3.104   4.403   8.128
 5038W        W 8557   9.251   2.254   3.179
 5039W        W 8558   5.173   2.555   0.730
 5040W        W 8559   6.806   6.957   3.801
 5041W        W 8560   0.717   5.295  10.736
 5042W        W 8561   5.142   1.042   2.796
 5043W        W 8562   4.899   6.588   4.088
 5044W        W 8563   0.133   3.444   0.717
 5045W        W 8564   7.977   4.227  10.187
 5046W        W 8565   5.297   7.187   9.505
 5047W        W 8566   8.051   3.495   2.292
 5048W        W 8567   6.450   9.722  11.459
 5049W        W 8568   5.850   9.957   8.832
 5050W        W 8569   9.371   6.896   2.096
 5051W        W 8570   9.237   7.881   2.340
 5052W        W 8571   2.132   6.938   3.492
 5053W        W 8572   4.272   6.538   1.894
 5054W        W 8573   5.390   2.271   2.591
 5055W        W 8574   6.042   5.500   1.382
 5056W        W 8575   7.136   7.579  11.648
 5057W        W 8576   1.004   0.018   1.809
 5058W        W 8577   7.308   6.069   9.056
 5059W        W 8578   8.743   9.411   3.176
 5060W        W 8579   3.865   8.976  11.480
 5061W        W 8580   9.563   7.499   0.293
 5062W        W 8581   1.919   6.441  10.851
 5063W        W 8582   1.313   9.853  10.575
 5064W        W 8583   7.874   9.270   9.551
 5065W        W 8584   8.351   6.311   0.898
 5066W        W 8585   3.176   8.068   2.371
 5067W        W 8586   5.905   1.015  10.391
 5068W        W 8587   1.652   2.792   1.195
 5069W        W 8588   2.687   9.322   9.290
 5070W        W 8589   3.300   4.675   9.670
 5071W        W 8590   5.199   7.897   2.600
 5072W        W 8591   2.275   6.004   3.468
 5073W        W 8592   6.574   9.265  10.404
 5074W        W 8593   6.444   2.448   2.768
 5075W        W 8594   1.305   8.460   2.355
 5076W        W 8595   6.502   5.125   2.545
 5077W        W 8596   0.817   4.397   3.182
 5078W        W 8597   5.833   4.913   2.162
 5079W        W 8598   7.836   2.602   9.893
 5080W        W 8599   6.079   9.460  10.341
 5081W        W 8600   7.871   3.465  10.463
 5082W        W 8601   2.517   2.577   3.364
 5083W        W 8602   9.576   6.758   0.242
 5084W        W 8603   7.746   5.651   2.446
 5085W        W 8604   3.460   1.021   3.495
 5086W        W 8605   9.468   4.353   0.064
 5087W        W 8606   5.722   8.577   3.005
 5088W        W 8607   8.328   7.029   2.036
 5089W        W 8608   8.703   9.250   2.342
 5090W        W 8609   3.525   8.284   2.777
 5091W        W 8610   8.728   2.908   9.614
 5092W        W 8611   3.183   2.941   0.893
 5093W        W 8612   4.836   0.377   9.677
 5094W        W 8613   3.766   7.240  11.048
 5095W        W 8614   4.438   5.488  10.043
 5096W        W 8615   3.539   8.236   1.302
 5097W        W 8616   3.706   5.426   9.446
 5098W        W 8617   1.194   1.968   0.828
 5099W        W 8618   4.299   2.233   9.200
 5100W        W 8619   1.978   0.976   3.067
 5101W        W 8620   9.714   3.589  11.459
 5102W        W 8621   4.522   5.587   0.177
 5103W        W 8622   3.851   8.161  11.409
 5104W        W 8623   8.763   7.046   0.279
 5105W        W 8624   1.275   3.503   3.370
 5106W        W 8625   0.796   0.855   8.589
 5107W        W 8626   9.494   9.426   9.626
 5108W        W 8627   4.024   0.917   3.336
 5109W        W 8628   7.957   8.787   3.039
 5110W        W 8629   7.568   4.376   9.946
 5111W        W 8630   0.507   3.035   0.626
 5112W        W 8631   8.101   6.221   3.559
 5113W        W 8632   0.410   3.335   9.567
 5114W        W 8633   0.906   2.216   8.752
 5115W        W 8634   5.549   8.287   8.721
 5116W        W 8635   1.528   7.437   2.808
 5117W        W 8636   5.831   8.917   9.685
 5118W        W 8637   3.162   4.728   9.187
 5119W        W 8638   8.423   5.723   1.588
 5120W        W 8639   3.977   4.697   2.672
 5121W        W 8640   2.199   6.225   0.434
 5122W        W 8641   6.789   0.591  11.441
 5123W        W 8642   2.923   8.958   0.083
 5124W        W 8643   1.363   0.637   0.088
 5125W        W 8644   9.819   4.877   2.163
 5126W        W 8645   6.301   5.596   2.745
 5127W        W 8646   3.465   0.585   0.312
 5128W        W 8647   2.140   9.208   1.568
 5129W        W 8648   8.646   2.228   1.420
 5130W        W 8649   9.487   5.345  11.416
 5131W        W 8650   4.149   0.845   1.387
 5132W        W 8651   8.455   3.535   0.676
 5133W        W 8652   7.318   0.628   1.554
 5134W        W 8653   9.029   5.873   2.293
 5135W        W 8654   8.575   9.665   0.253
 5136W        W 8655   5.908   3.014   8.819
 5137W        W 8656   0.049   5.463   9.899
 5138W        W 8657   1.046   0.348   9.872
 5139W        W 8658   3.074   6.814   8.343
 5140W        W 8659   8.262   0.659   3.176
 5141W        W 8660   4.476   3.227   0.697
 5142W        W 8661   2.701   5.539  10.962
 5143W        W 8662   1.693   3.167  11.339
 5144W        W 8663   2.139   0.399  11.962
 5145W        W 8664   7.897   3.026   2.175
 5146W        W 8665   5.703   9.897   2.325
 5147W        W 8666   3.485   2.686   1.472
 5148W        W 8667   9.639   9.965   0.239
 5149W        W 8668   8.300   5.090   9.962
 5150W        W 8669   6.169   9.018  10.636
 5151W        W 8670   5.885   6.376  11.119
 5152W        W 8671   0.453   1.553   0.012
 5153W        W 8672   6.167   4.710   0.018
 5154W        W 8673   6.259   4.179   0.705
 5155W        W 8674   9.440   9.318   8.677
 5156W        W 8675   9.414   7.091  11.165
 5157W        W 8676   5.670   1.434   0.582
 5158W        W 8677   4.198   5.064   9.846
 5159W        W 8678   7.713   4.790   9.028
 5160W        W 8679   1.310   7.131   0.160
 5161W        W 8680   2.398   5.252   2.781
 5162W        W 8681   5.412   4.890  10.458
 5163W        W 8682   9.454   5.519   0.680
 5164W        W 8683   2.326   7.878   1.814
 5165W        W 8684   6.771   1.469   8.591
 5166W        W 8685   4.246   6.400   2.745
 5167W        W 8686   6.912   8.733  10.041
 5168W        W 8687   4.221   8.912   2.424
 5169W        W 8688   0.739   6.099  11.830
 5170W        W 8689   9.806   4.624  10.018
 5171W        W 8690   7.652   1.013   2.360
 5172W        W 8691   6.042   2.861   2.136
 5173W        W 8692   7.914   9.417  11.671
 5174W        W 8693   3.757   1.975   2.824
 5175W        W 8694   2.844   5.098  11.258
 5176W        W 8695   3.823   4.194   3.767
 5177W        W 8696   9.027   9.894   1.601
 5178W        W 8697   8.956   8.080  10.755
 5179W        W 8698   8.424   5.186   2.308
 5180W        W 8699   4.486   4.234   9.685
 5181W        W 8700   8.791   3.730   2.034
 5182W        W 8701   5.942   6.952  11.904
 5183W        W 8702   1.055   4.987   0.473
 5184W        W 8703   1.876   7.673  11.259
 5185W        W 8704   3.825   3.001   2.372
 5186W        W 8705   2.938   8.881   3.261
 5187W        W 8706   5.611   7.049   4.009
 5188W        W 8707   5.596   2.636   2.926
 5189W        W 8708   1.720   0.119   2.614
 5190W        W 8709   0.540   3.501   8.925
 5191W        W 8710   8.035   1.177   2.660
 5192W        W 8711   7.655   9.756  10.933
 5193W        W 8712   5.107   3.486   3.974
 5194W        W 8713   3.910   9.886   0.508
 5195W        W 8714   6.976   9.043   9.209
 5196W        W 8715   2.207   3.845   2.745
 5197W        W 8716   7.376   3.604   0.467
 5198W        W 8717   0.019   5.981   1.451
 5199W        W 8718   9.621   1.449   1.675
 5200W        W 8719   6.866   9.832   3.170
 5201W        W 8720   7.868   7.676   1.746
 5202W        W 8721   6.435   7.290  11.016
 5203W        W 8722   1.694   5.380   8.731
 5204W        W 8723   1.821   5.513   1.473
 5205W        W 8724   9.753   8.050   9.057
 5206W        W 8725   1.536   0.178   9.762
 5207W        W 8726   0.699   7.294   1.219
 5208W        W 8727   2.367   4.745   9.833
 5209W        W 8728   2.064   4.059   0.486
 5210W        W 8729   7.248   5.572   8.953
 5211W        W 8730   9.767   0.824  10.863
 5212W        W 8731   8.047   6.098  10.066
 5213W        W 8732   2.185   4.245  10.557
 5214W        W 8733   3.939   5.411  11.407
 5215W        W 8734   1.375   8.423   0.623
 5216W        W 8735   5.502   1.790  10.073
 5217W        W 8736   8.301   2.377  10.052
 5218W        W 8737   9.498   1.462   2.176
 5219W        W 8738   3.768   2.219   0.755
 5220W        W 8739   1.771   1.562   9.113
 5221W        W 8740   3.519   6.176   8.770
 5222W        W 8741   3.049   1.860   8.625
 5223W        W 8742   9.288   6.343  11.390
 5224W        W 8743   0.168   0.627   0.226
 5225W        W 8744   4.587   2.154   3.013
 5226W        W 8745   9.810   9.402   1.803
 5227W        W 8746   8.960   5.109  11.726
 5228W        W 8747   2.154   3.718   0.874
 5229W        W 8748   3.513   1.853  10.008
 5230W        W 8749   4.633   9.555   9.342
 5231W        W 8750   6.271   3.757   1.682
 5232W        W 8751   2.269   8.362   3.162
 5233W        W 8752   7.924   2.270   2.680
 5234W        W 8753   5.295   5.028   1.254
 5235W        W 8754   4.243   5.484   9.547
 5236W        W 8755   4.185   4.570  10.119
 5237W        W 8756   9.358   9.932   1.188
 5238W        W 8757   5.490   2.334   1.060
 5239W        W 8758   2.635   0.487  10.284
 5240W        W 8759   8.500   5.483  11.256
 5241W        W 8760   4.917   7.064  11.881
 5242W        W 8761   6.009   1.802   3.147
 5243W        W 8762   3.956   0.355   0.318
 5244W        W 8763   9.051   5.395   1.146
 5245W        W 8764   1.663   6.182  11.214
 5246W        W 8765   0.408   3.030  11.702
 5247W        W 8766   9.110   9.492   9.288
 5248W        W 8767   3.090   0.369   2.481
 5249W        W 8768   4.941   6.323   3.254
 5250W        W 8769   6.498   3.626   9.243
 5251W        W 8770   1.557   2.939   3.583
 5252W        W 8771   1.673   8.078  10.995
 5253W        W 8772   3.188   5.599  10.692
 5254W        W 8773   8.582   3.369   2.332
 5255W        W 8774   1.405   6.972   1.131
 5256W        W 8775   9.174   4.237   1.985
 5257W        W 8776   1.335   3.085   1.678
 5258W        W 8777   4.179   9.349   9.066
 5259W        W 8778   8.304   7.537   1.282
 5260W        W 8779   3.435   8.203   9.322
 5261W        W 8780   3.181   5.953   8.402
 5262W        W 8781   5.421   6.586   4.143
 5263W        W 8782   6.779   4.004  11.852
 5264W        W 8783   0.687   7.048   1.763
 5265W        W 8784   7.713   5.617   0.433
 5266W        W 8785   2.161   0.900   0.042
 5267W        W 8786   0.050   2.819  10.854
 5268W        W 8787   8.640   9.415   8.860
 5269W        W 8788   5.933   4.055   2.029
 5270W        W 8789   7.634   6.521   0.616
 5271W        W 8790   2.737   7.757   2.643
 5272W        W 8791   5.663   9.371   2.140
 5273W        W 8792   1.362   6.131  10.076
 5274W        W 8793   1.185   6.716  11.820
 5275W        W 8794   3.326   6.654   8.877
 5276W        W 8795   2.680   5.677   2.724
 5277W        W 8796   3.414   7.980   8.847
 5278W        W 8797   8.087   5.663  10.966
 5279W        W 8798   9.339   6.135   9.185
 5280W        W 8799   4.950   1.837   0.239
 5281W        W 8800   7.744   7.322   2.831
 5282W        W 8801   2.709   4.267  11.898
 5283W        W 8802   8.778   3.992   2.673
 5284W        W 8803   4.940   9.218  11.016
 5285W        W 8804   0.311   8.550   3.093
 5286W        W 8805   6.477   4.144   2.091
 5287W        W 8806   4.037   4.348  11.517
 5288W        W 8807   1.416   9.726   1.788
 5289W        W 8808   8.358   3.039   2.638
 5290W        W 8809   3.303   1.867   1.705
 5291W        W 8810   8.414   3.069   8.479
 5292W        W 8811   8.433   4.435   1.832
 5293W        W 8812   7.502   6.417   8.717
 5294W        W 8813   0.735   4.514   1.382
 5295W        W 8814   1.140   8.042  10.205
 5296W        W 8815   2.245   2.934  10.945
 5297W        W 8816   4.278   3.643  11.095
 5298W        W 8817   3.527   0.103   0.176
 5299W        W 8818   5.192   4.106  11.074
 5300W        W 8819   4.526   1.368  11.545
 5301W        W 8820   9.137   2.224   9.687
 5302W        W 8821   1.865   6.251   8.895
 5303W        W 8822   5.480   3.329   9.858
 5304W        W 8823   6.654   2.732  10.959
 5305W        W 8824   6.059   4.961   0.457
 5306W        W 8825   3.200   1.250   3.099
 5307W        W 8826   4.992   8.531   9.554
 5308W        W 8827   0.719   1.678  10.331
 5309W        W 8828   8.845   3.249   0.461
 5310W        W 8829   8.105   9.790   2.805
 5311W        W 8830   9.881   3.393  10.979
 5312W        W 8831   9.996   8.823   1.496
 5313W        W 8832   1.158   8.016  10.727
 5314W        W 8833   0.839   8.398  11.096
 5315W        W 8834   3.603   0.071   1.995
 5316W        W 8835   3.226   2.007  10.900
 5317W        W 8836   4.073   0.900   8.998
 5318W        W 8837   0.058   1.012  10.485
 5319W        W 8838   4.107   5.808  10.319
 5320W        W 8839   9.733   6.988   1.443
 5321W        W 8840   4.319   1.160   0.461
 5322W        W 8841   1.616   7.232  11.244
 5323W        W 8842   8.398   0.265   2.283
 5324W        W 8843   6.150   6.398   0.439
 5325W        W 8844   9.009   2.181   1.772
 5326W        W 8845   8.205   1.945  11.754
 5327W        W 8846   4.992   4.334  11.516
 5328W        W 8847   0.268   2.368   0.317
 5329W        W 8848   2.059   2.104   3.792
 5330W        W 8849   4.785   5.547   9.621
 5331W        W 8850   3.711   9.515   1.503
 5332W        W 8851   9.200   1.884  11.906
 5333W        W 8852   3.894   6.298   4.337
 5334W        W 8853   2.674   7.510   0.210
 5335W        W 8854   1.388   0.854  11.378
 5336W        W 8855   2.691   2.925  11.258
 5337W        W 8856   2.550   8.022   9.412
 5338W        W 8857   2.198   3.453  11.897
 5339W        W 8858   9.137   7.444   0.012
 5340W        W 8859   4.585   3.175  11.670
 5341W        W 8860   3.594   7.396   0.060
 5342W        W 8861   8.127   7.598  10.699
 5343W        W 8862   8.684   6.521  10.139
 5344W        W 8863   3.943   5.480   4.073
 5345W        W 8864   0.997   9.326   9.008
 5346W        W 8865   0.859   2.594  11.120
 5347W        W 8866   4.184   6.330  11.655
 5348W        W 8867   5.100   8.819   2.210
 5349W        W 8868   6.185   4.563   8.690
 5350W        W 8869   1.741   6.663  10.401
 5351W        W 8870   6.765   8.470   0.879
 5352W        W 8871   4.639   8.399  11.903
 5353W        W 8872   8.915   4.634   1.790
 5354W        W 8873   2.345   0.772   1.716
 5355W        W 8874   4.625   5.445   9.137
 5356W        W 8875   8.384   5.827   0.717
 5357W        W 8876   2.444   0.364  11.303
 5358W        W 8877   5.719   6.828   8.296
 5359W        W 8878   7.963   9.114   3.447
 5360W        W 8879   8.956   6.679  10.838
 5361W        W 8880   5.639   2.721  10.861
 5362W        W 8881   6.550   6.561  10.582
 5363W        W 8882   3.311   7.564  10.687
 5364W        W 8883   3.209   4.311   2.366
 5365W        W 8884   7.350   9.705   3.223
 5366W        W 8885   8.535   2.336  11.746
 5367W        W 8886   8.926   1.749   9.796
 5368W        W 8887   3.499   5.062   8.605
 5369W        W 8888   2.264   2.620   9.998
 5370W        W 8889   0.914   7.563   3.491
 5371W        W 8890   8.383   0.807   2.679
 5372W        W 8891   2.989   9.998   0.976
 5373W        W 8892   1.906   0.476   9.991
 5374W        W 8893   1.289   4.641   2.394
 5375W        W 8894   5.994   3.186  11.824
 5376W        W 8895   5.185   6.119   4.195
 5377W        W 8896   5.956   2.264   0.867
 5378W        W 8897   7.499   3.550   3.000
 5379W        W 8898   2.659   2.886   1.016
 5380W        W 8899   1.433   0.800   1.860
 5381W        W 8900   2.520   1.018   0.378
 5382W        W 8901   3.252   1.463   8.882
 5383W        W 8902   1.779   4.733   9.945
 5384W        W 8903   0.049   1.711  11.754
 5385W        W 8904   6.137   6.011  10.753
 5386W        W 8905   8.222   8.565  11.407
 5387W        W 8906   1.459   0.858  10.856
 5388W        W 8907   6.877   9.058   0.439
 5389W        W 8908   0.110   4.817  11.424
 5390W        W 8909   0.434   5.866  11.298
 5391W        W 8910   2.592   1.295   1.926
 5392W        W 8911   6.660   6.415  10.081
 5393W        W 8912   6.731   3.895   0.808
 5394W        W 8913   6.646   5.234   3.566
 5395W        W 8914   6.656   9.846  10.994
 5396W        W 8915   4.542   5.840   8.814
 5397W        W 8916   2.259   5.622   2.406
 5398W        W 8917   7.029   0.718   9.483
 5399W        W 8918   0.324   3.300   2.641
 5400W        W 8919   6.512   2.246   8.696
 5401W        W 8920   6.959   6.238   0.952
 5402W        W 8921   6.183   1.884  10.226
 5403W        W 8922   9.357   9.235   0.012
 5404W        W 8923   6.783   5.906  10.222
 5405W        W 8924   2.188   4.297  10.025
 5406W        W 8925   6.673   5.813   0.831
 5407W        W 8926   8.914   5.990  11.456
 5408W        W 8927   6.576   8.035   3.017
 5409W        W 8928   6.503   0.664   1.250
 5410W        W 8929   2.938   3.242  10.941
 5411W        W 8930   2.314   9.256  10.907
 5412W        W 8931   1.267   6.217   0.618
 5413W        W 8932   7.683   2.676   3.393
 5414W        W 8933   1.694   3.169   2.458
 5415W        W 8934   1.734   1.193   2.213
 5416W        W 8935   5.558   4.493   1.127
 5417W        W 8936   2.043   6.437  11.921
 5418W        W 8937   0.877   8.859   9.191
 5419W        W 8938   8.048   5.595   9.941
 5420W        W 8939   6.917   8.260   8.571
 5421W        W 8940   5.342   1.041  11.558
 5422W        W 8941   5.018   1.698   9.968
 5423W        W 8942   9.463   1.435   2.731
 5424W        W 8943   5.949   0.505  10.380
 5425W        W 8944   8.454   9.734   2.408
 5426W        W 8945   1.219   2.604   3.420
 5427W        W 8946   9.448   6.529  10.845
 5428W        W 8947   6.060   7.956  11.216
 5429W        W 8948   2.281   7.946   2.773
 5430W        W 8949   1.287   1.317   9.133
 5431W        W 8950   5.256   1.976   9.579
 5432W        W 8951   5.729   8.094   9.403
 5433W        W 8952   6.459   2.038   3.073
 5434W        W 8953   1.186   8.950   2.534
 5435W        W 8954   3.531   5.085   3.389
 5436W        W 8955   2.644   6.410   2.656
 5437W        W 8956   9.019   4.176   9.591
 5438W        W 8957   3.379   4.725  10.206
 5439W        W 8958   2.651   9.215   2.339
 5440W        W 8959   2.259   2.164   9.598
 5441W        W 8960   2.707   7.416   0.698
 5442W        W 8961   0.219   1.716   8.889
 5443W        W 8962   5.404   1.455   2.652
 5444W        W 8963   9.202   1.813   1.007
 5445W        W 8964   5.446   1.815   0.309
 5446W        W 8965   6.152   2.326  10.514
 5447W        W 8966   1.542   8.309   9.179
 5448W        W 8967   9.181   6.639   0.675
 5449W        W 8968   0.086   4.788   8.759
 5450W        W 8969   1.892   4.691   9.080
 5451W        W 8970   9.448   2.221   0.252
 5452W        W 8971   0.583   4.658  11.402
 5453W        W 8972   7.768   9.230   1.321
 5454W        W 8973   6.544   1.324  11.007
 5455W        W 8974   0.122   2.870   9.614
 5456W        W 8975   4.618   6.384   8.260
 5457W        W 8976   2.852   6.832  10.238
 5458W        W 8977   3.212   8.749   0.467
 5459W        W 8978   3.612   7.113   2.043
 5460W        W 8979   7.975   4.159   9.685
 5461W        W 8980   2.130   8.340   1.717
 5462W        W 8981   9.483   4.729   3.546
 5463W        W 8982   0.006   3.240   9.935
 5464W        W 8983   2.671   7.164   1.137
 5465W        W 8984   0.035   4.270   0.130
 5466W        W 8985   4.347   5.431  11.730
 5467W        W 8986   8.915   4.621  11.534
 5468W        W 8987   9.605   6.565   3.249
 5469W        W 8988   4.671   3.393   2.431
 5470W        W 8989   2.299   2.816   1.807
 5471W        W 8990   1.891   9.161   0.577
 5472W        W 8991   9.090   1.729  11.422
 5473W        W 8992   5.499   5.949   0.861
 5474W        W 8993   9.848   2.516   0.687
 5475W        W 8994   9.775   5.679   8.542
 5476W        W 8995   9.967   1.068   1.780
 5477W        W 8996   0.364   1.389  10.554
 5478W        W 8997   7.658   7.557  11.671
 5479W        W 8998   2.636   8.493   1.483
 5480W        W 8999   4.003   1.373   2.115
 5481W        W 9000   6.086   8.073  10.201
 5482W        W 9001   1.227   5.151   2.185
 5483W        W 9002   7.081   1.523   9.766
 5484W        W 9003   9.960   4.269   0.831
 5485W        W 9004   1.176   4.019  10.038
 5486W        W 9005   9.859   2.306   2.673
 5487W        W 9006   5.264   5.183   9.668
 5488W        W 9007   6.106   7.941   1.443
 5489W        W 9008   8.127   5.921   0.276
 5490W        W 9009   8.971   0.917   2.041
 5491W        W 9010   4.134   8.843   9.805
 5492W        W 9011   9.495   8.332   3.596
 5493W        W 9012   9.830   1.299  11.986
 5494W        W 9013   2.047   6.482   0.871
 5495W        W 9014   5.586   4.388   8.929
 5496W        W 9015   5.114   0.174  10.047
 5497W        W 9016   9.496   3.617   2.100
 5498W        W 9017   0.905   5.644   1.760
 5499W        W 9018   9.048   7.490   3.132
 5500W        W 9019   5.729   1.819  11.257
 5501W        W 9020   0.779   2.428   1.530
 5502W        W 9021   6.147   5.707   9.595
 5503W        W 9022   5.976   1.453   8.941
 5504W        W 9023   9.812   0.890   2.765
 5505W        W 9024   6.366   3.793   8.776
 5506W        W 9025   9.346   4.352   3.873
 5507W        W 9026   8.910   7.987   9.193
 5508W        W 9027   7.082   0.957   0.287
 5509W        W 9028   3.772   9.454   3.159
 5510W        W 9029   9.947   8.148   8.585
 5511W        W 9030   1.100   7.472   2.492
 5512W        W 9031   5.177   1.891   3.346
 5513W        W 9032   8.408   6.987   3.436
 5514W        W 9033   3.140   4.398  11.542
 5515W        W 9034   4.514   3.830   0.206
 5516W        W 9035   7.472   1.334   1.995
 5517W        W 9036   0.366   5.249   8.801
 5518W        W 9037   7.398   5.694  11.982
 5519W        W 9038   9.019   0.426  11.013
 5520W        W 9039   9.018   5.818   1.456
 5521W        W 9040   3.485   1.933   0.393
 5522W        W 9041   8.354   7.091   0.545
 5523W        W 9042   4.153   7.939  10.458
 5524W        W 9043   0.016   2.219   9.990
 5525W        W 9044   8.159   0.563  10.865
 5526W        W 9045   5.233   8.713   0.748
 5527W        W 9046   7.113   1.648   0.739
 5528W        W 9047   7.856   1.130   1.691
 5529W        W 9048   6.395   4.616  10.377
 5530W        W 9049   6.913   6.283   9.298
 5531W        W 9050   0.181   7.326  10.659
 5532W        W 9051   4.185   7.319   1.459
 5533W        W 9052   9.663   2.857  10.548
 5534W        W 9053   9.837   5.232   3.692
 5535W        W 9054   9.489   5.200  10.916
 5536W        W 9055   5.299   4.463  11.909
 5537W        W 9056   8.378   9.813  11.664
 5538W        W 9057   5.262   9.763   0.817
 5539W        W 9058   0.397   9.940   8.961
 5540W        W 9059   3.782   9.745   8.492
 5541W        W 9060   6.587   4.214   8.565
 5542W        W 9061   1.510   9.382   8.765
 5543W        W 9062   5.993   5.158  11.818
 5544W        W 9063   7.742   1.592  11.152
 5545W        W 9064   7.570   5.375   9.719
 5546W        W 9065   3.471   2.528  11.419
 5547W        W 9066   7.803   8.459   1.221
 5548W        W 9067   6.131   4.203   2.511
 5549W        W 9068   4.112   7.029   1.905
 5550W        W 9069   9.349   3.880   9.818
 5551W        W 9070   5.337   0.299  10.880
 5552W        W 9071   6.620   4.650   2.242
 5553W        W 9072   6.003   8.581   2.558
 5554W        W 9073   2.386   5.735   0.447
 5555W        W 9074   5.797   4.326  11.905
 5556W        W 9075   4.189   0.855  10.065
 5557W        W 9076   3.625   4.686   3.047
 5558W        W 9077   7.324   0.842   9.018
 5559W        W 9078   5.316   8.944   9.594
 5560W        W 9079   1.314   9.877   2.897
 5561W        W 9080   0.122   4.542   9.639
 5562W        W 9081   3.481   6.528   8.402
 5563W        W 9082   2.237   5.185  10.041
 5564W        W 9083   4.361   6.068   1.273
 5565W        W 9084   3.215   7.883   1.421
 5566W        W 9085   6.436   6.353   1.838
 5567W        W 9086   2.475   4.840   0.963
 5568W        W 9087   8.816   5.381   1.618
 5569W        W 9088   7.150   9.730   1.124
 5570W        W 9089   2.376   2.307  10.588
 5571W        W 9090   7.486   8.634   9.036
 5572W        W 9091   2.916   3.137  11.942
 5573W        W 9092   4.381   4.843   0.825
 5574W        W 9093   6.459   0.392  11.764
 5575W        W 9094   3.911   8.509   1.098
 5576W        W 9095   2.422   5.404   3.575
 5577W        W 9096   6.477   8.950   1.981
 5578W        W 9097   1.029   1.180   3.498
 5579W        W 9098   8.683   2.824  10.517
 5580W        W 9099   3.636   4.911   1.243
 5581W        W 9100   7.315   5.199  10.893
 5582W        W 9101   7.419   3.503  11.409
 5583W        W 9102   2.216   3.307   1.806
 5584W        W 9103   3.206   3.657   1.582
 5585W        W 9104   4.373   1.120  11.946
 5586W        W 9105   7.126   7.296  10.431
 5587W        W 9106   0.876   3.473  10.142
 5588W        W 9107   7.968   7.236   3.306
 5589W        W 9108   0.851   2.016   2.999
 5590W        W 9109   4.044   9.391   0.091
 5591W        W 9110   7.670   6.414   9.887
 5592W        W 9111   8.193   5.154  11.002
 5593W        W 9112   4.471   5.364   0.768
 5594W        W 9113   7.898   2.080   9.940
 5595W        W 9114   3.194   5.424   1.942
 5596W        W 9115   4.141   0.459   3.171
 5597W        W 9116   7.656   2.173   3.544
 5598W        W 9117   7.983   0.234   3.074
 5599W        W 9118   7.303   0.283   9.698
 5600W        W 9119   8.846   3.493   1.541
 5601W        W 9120   8.421   1.236   9.072
 5602W        W 9121   4.786   5.749   0.568
 5603W        W 9122   5.747   3.708   1.661
 5604W        W 9123   9.419   3.315  10.620
 5605W        W 9124   6.518   2.604   9.054
 5606W        W 9125   1.434   7.640  10.964
 5607W        W 9126   4.796   4.873  11.121
 5608W        W 9127   4.264   9.025  11.818
 5609W        W 9128   9.375   2.830   1.953
 5610W        W 9129   5.478   5.413   1.549
 5611W        W 9130   2.742   5.685   0.896
 5612W        W 9131   1.143   2.786   9.467
 5613W        W 9132   4.621   4.993  11.584
 5614W        W 9133   5.543   9.329   2.637
 5615W        W 9134   9.014   8.663   9.919
 5616W        W 9135   3.716   1.760  11.918
 5617W        W 9136   6.986   3.880   1.270
 5618W        W 9137   4.684   8.585   3.159
 5619W        W 9138   6.587   1.167   1.272
 5620W        W 9139   5.303   8.380   9.170
 5621W        W 9140   6.112   2.816   9.268
 5622W        W 9141   9.294   6.683   9.254
 5623W        W 9142   3.090   8.485   2.091
 5624W        W 9143   7.079   1.799   2.322
 5625W        W 9144   5.681   7.028  11.474
 5626W        W 9145   5.924   8.657   1.965
 5627W        W 9146   7.599   8.886   0.960
 5628W        W 9147   6.044   8.429   3.534
 5629W        W 9148   5.920   8.483   9.941
 5630W        W 9149   1.750   3.557   9.079
 5631W        W 9150   9.086   1.771   3.070
 5632W        W 9151   1.083   1.881   3.932
 5633W        W 9152   9.045   0.820  11.366
 5634W        W 9153   0.981   3.772  11.800
 5635W        W 9154   7.276   0.377  10.643
 5636W        W 9155   2.337   8.794   1.754
 5637W        W 9156   5.818   6.076   8.811
 5638W        W 9157   1.124   9.805   2.284
 5639W        W 9158   7.289   8.155   8.944
 5640W        W 9159   4.209   7.503   8.708
 5641W        W 9160   9.045   8.939   1.453
 5642W        W 9161   0.286   5.164   1.166
 5643W        W 9162   0.523   9.799  10.076
 5644W        W 9163   5.180   3.554  11.084
 5645W        W 9164   0.877   4.342   2.653
 5646W        W 9165   1.899   2.165  10.440
 5647W        W 9166   7.082   5.122   9.810
 5648W        W 9167   1.393   6.997   3.092
 5649W        W 9168   2.939   4.531   3.823
 5650W        W 9169   5.927   3.663  10.431
 5651W        W 9170   7.394   4.752  10.648
 5652W        W 9171   7.931   3.074  10.782
 5653W        W 9172   1.305   0.860   8.558
 5654W        W 9173   6.714   8.837   9.583
 5655W        W 9174   6.700   7.724  11.848
 5656W        W 9175   3.799   2.380   3.217
 5657W        W 9176   4.088   0.327  10.178
 5658W        W 9177   2.139   2.344   1.836
 5659W        W 9178   1.724   2.265   9.413
 5660W        W 9179   4.628   5.655   3.155
 5661W        W 9180   3.036   0.844   2.227
 5662W        W 9181   6.951   9.095  10.981
 5663W        W 9182   4.916   2.862   1.339
 5664W        W 9183   1.912   6.837   3.920
 5665W        W 9184   3.350   2.517   9.238
 5666W        W 9185   5.016   9.535   0.416
 5667W        W 9186   1.351   1.758   9.806
 5668W        W 9187   4.464   4.961   8.997
 5669W        W 9188   1.644   9.975  11.381
 5670W        W 9189   0.539   4.231   0.283
 5671W        W 9190   7.278   9.313   1.386
 5672W        W 9191   9.777   2.679   9.271
 5673W        W 9192   0.847   5.873   1.308
 5674W        W 9193   1.428   9.337   0.383
 5675W        W 9194   0.138   6.396   0.789
 5676W        W 9195   9.416   8.308   3.024
 5677W        W 9196   3.699   2.891   2.968
 5678W        W 9197   1.076   6.498   1.008
 5679W        W 9198   9.337   8.223   8.776
 5680W        W 9199   3.742   2.784   1.897
 5681W        W 9200   5.435   4.154   0.303
 5682W        W 9201   7.883   8.307   8.948
 5683W        W 9202   9.425   6.681   9.748
 5684W        W 9203   1.735   1.699  10.644
 5685W        W 9204   2.951   4.792   1.178
 5686W        W 9205   0.758   7.555   1.686
 5687W        W 9206   9.547   4.450   2.371
 5688W        W 9207   3.810   4.664   3.539
 5689W        W 9208   8.056   3.722   0.437
 5690W        W 9209   5.193   7.767   0.519
 5691W        W 9210   5.130   7.544   3.940
 5692W        W 9211   5.216   3.818  10.656
 5693W        W 9212   6.230   7.296   2.165
 5694W        W 9213   7.774   0.394   1.546
 5695W        W 9214   0.859   6.140   2.426
 5696W        W 9215   6.817   4.421   0.846
 5697W        W 9216   3.356   4.532   1.491
 5698W        W 9217   9.441   0.165   1.756
 5699W        W 9218   2.693   6.020   9.761
 5700W        W 9219   2.771   4.598   3.336
 5701W        W 9220   9.694   8.873  10.803
 5702W        W 9221   0.940   5.852  10.001
 5703W        W 9222   5.115   5.706  10.636
 5704W        W 9223   5.298   5.690   9.769
 5705W        W 9224   6.699   5.716   0.343
 5706W        W 9225   1.534   4.815  10.460
 5707W        W 9226   6.962   2.604   1.884
 5708W        W 9227   1.113   9.577   1.383
 5709W        W 9228   7.542   0.493   2.389
 5710W        W 9229   1.747   8.553  11.271
 5711W        W 9230   1.384   9.535  11.369
 5712W        W 9231   7.830   0.538   9.042
 5713W        W 9232   1.853   9.558   0.896
 5714W        W 9233   6.045   5.297   2.399
 5715W        W 9234   1.939   0.891   8.477
 5716W        W 9235   1.732   1.731  11.582
 5717W        W 9236   4.265   9.476   3.258
 5718W        W 9237   2.480   1.241  10.449
 5719W        W 9238   3.173   5.248   1.201
 5720W        W 9239   5.934   9.020   2.772
 5721W        W 9240   6.647   6.250   1.375
 5722W        W 9241   1.934   3.090  10.447
 5723W        W 9242   2.254   8.995   9.328
 5724W        W 9243   5.067   9.374   9.093
 5725W        W 9244   6.161   9.857   9.985
 5726W        W 9245   7.090   6.081   2.798
 5727W        W 9246   2.879   4.602   1.655
 5728W        W 9247   5.989   5.019  11.263
 5729W        W 9248   3.219   2.853   1.910
 5730W        W 9249   0.447   6.905   8.738
 5731W        W 9250   7.131   3.979   0.210
 5732W        W 9251   5.113   6.170  11.557
 5733W        W 9252   7.123   8.533   9.424
 5734W        W 9253   9.778   9.839   9.757
 5735W        W 9254   7.546   6.324  11.297
 5736W        W 9255   1.980   0.498   3.271
 5737W        W 9256   8.761   7.597  10.717
 5738W        W 9257   3.265   6.312   0.152
 5739W        W 9258   1.287   6.026   9.139
 5740W        W 9259   5.516   9.383  11.190
 5741W        W 9260   1.560   1.376   9.561
 5742W        W 9261   0.493   6.382   8.582
 5743W        W 9262   9.511   4.007   1.042
 5744W        W 9263   3.303   6.891   1.676
 5745W        W 9264   5.046   3.154   3.037
 5746W        W 9265   5.015   0.477  10.490
 5747W        W 9266   8.426   2.544   3.405
 5748W        W 9267   3.216   6.388  11.281
 5749W        W 9268   3.134   6.048   3.234
 5750W        W 9269   4.905   3.291   9.076
 5751W        W 9270   3.635   4.007   9.565
 5752W        W 9271   7.954   1.005  11.073
 5753W        W 9272   6.965   9.492   8.837
 5754W        W 9273   6.488   0.800   9.594
 5755W        W 9274   8.892   0.809   9.947
 5756W        W 9275   6.158   7.211   9.573
 5757W        W 9276   6.195   1.511   1.323
 5758W        W 9277   8.488   3.988   0.182
 5759W        W 9278   3.528   8.024  10.784
 5760W        W 9279   3.175   6.948   3.067
 5761W        W 9280   1.070   4.021   3.421
 5762W        W 9281   1.753   4.073   2.898
 5763W        W 9282   2.727   5.501  10.458
 5764W        W 9283   1.363   7.830   1.748
 5765W        W 9284   4.650   2.252   0.128
 5766W        W 9285   7.512   1.407   0.964
 5767W        W 9286   3.574   8.366   2.250
 5768W        W 9287   5.342   0.239   2.192
 5769W        W 9288   2.692   8.247   2.508
 5770W        W 9289   7.684   7.004   8.595
 5771W        W 9290   6.771   2.171   3.447
 5772W        W 9291   1.276   8.493  11.472
 5773W        W 9292   2.550   7.628   1.380
 5774W        W 9293   2.735   8.825  10.964
 5775W        W 9294   9.609   5.836   2.098
 5776W        W 9295   5.902   1.406   2.798
 5777W        W 9296   5.885   8.397   1.489
 5778W        W 9297   0.467   6.781   1.327
 5779W        W 9298   3.927   0.154   9.513
 5780W        W 9299   4.311   6.182   2.263
 5781W        W 9300   9.962   6.396   0.244
 5782W        W 9301   4.685   8.225   9.951
 5783W        W 9302   9.036   9.437  11.048
 5784W        W 9303   2.340   3.645   9.893
 5785W        W 9304   3.243   5.530   3.395
 5786W        W 9305   4.712   8.094   9.470
 5787W        W 9306   6.808   5.130   1.287
 5788W        W 9307   4.306   5.935   9.847
 5789W        W 9308   8.359   5.323  11.765
 5790W        W 9309   5.713   8.856  11.564
 5791W        W 9310   2.769   0.949  10.106
 5792W        W 9311   9.117   6.460   8.824
 5793W        W 9312   6.690   6.233   0.414
 5794W        W 9313   6.417   1.614   3.416
 5795W        W 9314   4.207   4.769   0.353
 5796W        W 9315   7.067   8.861   3.233
 5797W        W 9316   6.514   5.989   9.352
 5798W        W 9317   4.968   2.635   3.728
 5799W        W 9318   6.631   8.046   1.490
 5800W        W 9319   0.174   4.670  10.949
 5801W        W 9320   0.299   4.178  10.018
 5802W        W 9321   4.583   1.414  11.031
 5803W        W 9322   3.554   8.570  11.511
 5804W        W 9323   5.614   2.448  11.891
 5805W        W 9324   5.618   6.395   9.160
 5806W        W 9325   5.520   3.893   1.155
 5807W        W 9326   4.817   4.196   2.782
 5808W        W 9327   0.934   0.157   0.453
 5809W        W 9328   4.479   5.937   2.695
 5810W        W 9329   4.486   3.575   1.225
 5811W        W 9330   0.924   9.471  10.060
 5812W        W 9331   9.352   9.687   2.673
 5813W        W 9332   1.426   0.671   9.903
 5814W        W 9333   3.200   9.995  10.278
 5815W        W 9334   9.463   8.446  11.271
 5816W        W 9335   7.058   3.288  10.760
 5817W        W 9336   9.861   6.121   3.402
 5818W        W 9337   8.543   1.769   2.193
 5819W        W 9338   4.213   1.544   0.147
 5820W        W 9339   3.691   7.536   8.805
 5821W        W 9340   1.271   1.674  10.314
 5822W        W 9341   9.213   3.985   2.405
 5823W        W 9342   7.272   5.278   1.178
 5824W        W 9343   5.467   2.589   3.945
 5825W        W 9344   7.139   6.746  11.896
 5826W        W 9345   2.646   9.883   9.469
 5827W        W 9346   4.642   2.588   2.789
 5828W        W 9347   6.976   3.128  11.744
 5829W        W 9348   1.833   3.736   1.288
 5830W        W 9349   0.840   6.238   3.006
 5831W        W 9350   4.127   9.063   1.957
 5832W        W 9351   6.271   9.980   9.133
 5833W        W 9352   9.742   3.770   9.459
 5834W        W 9353   2.580   8.377   1.995
 5835W        W 9354   3.967   8.962  10.254
 5836W        W 9355   4.190   6.917   2.787
 5837W        W 9356   3.105   4.154  11.075
 5838W        W 9357   0.455   3.177   1.656
 5839W        W 9358   1.741   8.143   3.946
 5840W        W 9359   1.016   2.943  10.063
 5841W        W 9360   7.047   3.166  11.242
 5842W        W 9361   0.874   5.973   0.357
 5843W        W 9362   3.125   3.823   0.383
 5844W        W 9363   0.942   1.100  11.271
 5845W        W 9364   0.884   7.024  10.837
 5846W        W 9365   6.722   7.011  11.347
 5847W        W 9366   6.547   3.314  11.436
 5848W        W 9367   3.461   2.591   2.280
 5849W        W 9368   9.016   4.424   2.991
 5850W        W 9369   8.433   7.422  11.079
 5851W        W 9370   8.243   8.857  10.955
 5852W        W 9371   0.191   8.931  10.787
 5853W        W 9372   4.718   3.484  11.283
 5854W        W 9373   3.762   7.122   9.943
 5855W        W 9374   3.774   5.897  11.266
 5856W        W 9375   5.691   5.977  11.598
 5857W        W 9376   1.228   8.854  11.842
 5858W        W 9377   1.268   1.909  11.530
 5859W        W 9378   2.851   7.150   9.794
 5860W        W 9379   4.678   4.115   3.676
 5861W        W 9380   6.007   9.516   2.502
 5862W        W 9381   8.964   4.099  11.556
 5863W        W 9382   3.487   2.687   9.772
 5864W        W 9383   7.902   3.595   3.317
 5865W        W 9384   0.900   7.729   9.641
 5866W        W 9385   4.734   1.969  10.342
 5867W        W 9386   8.652   6.770   2.897
 5868W        W 9387   3.117   0.611   1.402
 5869W        W 9388   4.609   2.857   9.944
 5870W        W 9389   5.071   0.687  10.008
 5871W        W 9390   7.410   6.791  11.109
 5872W        W 9391   4.443   8.240   1.857
 5873W        W 9392   9.885   6.662  11.787
 5874W        W 9393   1.361   1.709   8.789
 5875W        W 9394   4.344   6.587   8.668
 5876W        W 9395   9.082   3.951   3.614
 5877W        W 9396   2.770   2.633   1.846
 5878W        W 9397   0.919   2.533   3.003
 5879W        W 9398   6.042   3.263   2.933
 5880W        W 9399   6.883   6.840   8.917
 5881W        W 9400   9.843   5.963   9.437
 5882W        W 9401   7.424   7.997  10.011
 5883W        W 9402   9.971   1.984   3.678
 5884W        W 9403   0.279   7.430  10.159
 5885W        W 9404   4.623   6.209  11.346
 5886W        W 9405   4.101   3.575   0.860
 5887W        W 9406   3.073   0.425  10.645
 5888W        W 9407   6.788   1.199   9.452
 5889W        W 9408   5.321   2.319   3.545
 5890W        W 9409   5.624   4.787   0.155
 5891W        W 9410   1.831   9.993  10.173
 5892W        W 9411   5.156   4.563   2.579
 5893W        W 9412   7.326   2.638   9.074
 5894W        W 9413   2.879   0.415   2.976
 5895W        W 9414   0.247   8.985   2.355
 5896W        W 9415   7.946   6.902   1.265
 5897W        W 9416   0.817   1.383   2.226
 5898W        W 9417   0.920   8.440  11.839
 5899W        W 9418   7.291   1.175  11.516
 5900W        W 9419   9.151   6.571  10.375
 5901W        W 9420   2.643   9.731   2.280
 5902W        W 9421   2.671   3.136   1.986
 5903W        W 9422   7.151   5.655   9.897
 5904W        W 9423   3.866   4.715   0.809
 5905W        W 9424   2.411   0.606   9.800
 5906W        W 9425   0.431   0.831   9.345
 5907W        W 9426   0.878   1.228   1.311
 5908W        W 9427   3.963   9.544   9.503
 5909W        W 9428   7.523   8.178   0.269
 5910W        W 9429   2.357   5.118  11.063
 5911W        W 9430   0.129   0.634   8.155
 5912W        W 9431   9.865   2.721  10.071
 5913W        W 9432   6.513   5.471   1.766
 5914W        W 9433   4.988   1.567   9.452
 5915W        W 9434   1.335   0.458   0.576
 5916W        W 9435   9.982   1.572   9.335
 5917W        W 9436   0.591   6.532   9.061
 5918W        W 9437   5.118   4.835  11.597
 5919W        W 9438   7.196   4.854   1.486
 5920W        W 9439   6.514   8.608   8.614
 5921W        W 9440   8.139   2.355   9.562
 5922W        W 9441   1.621   7.155  10.386
 5923W        W 9442   6.277   9.450   2.038
 5924W        W 9443   3.187   8.910   8.576
 5925W        W 9444   5.598   7.981   1.309
 5926W        W 9445   5.732   4.132   0.737
 5927W        W 9446   2.749   9.558   2.767
 5928W        W 9447   1.265   5.967   1.586
 5929W        W 9448   1.853   3.297   0.918
 5930W        W 9449   8.598   6.282   2.902
 5931W        W 9450   3.436   5.264   9.986
 5932W        W 9451   8.828   6.116   9.053
 5933W        W 9452   8.135   4.565   9.204
 5934W        W 9453   8.850   2.771   0.235
 5935W        W 9454   6.246   2.099   3.528
 5936W        W 9455   0.522   5.207  10.066
 5937W        W 9456   3.703   8.757   8.601
 5938W        W 9457   5.530   5.337   2.125
 5939W        W 9458   1.602   4.241   3.366
 5940W        W 9459   9.564   6.989   0.755
 5941W        W 9460   1.343   9.476   0.919
 5942W        W 9461   7.648   5.596   0.940
 5943W        W 9462   0.925   3.290   1.405
 5944W        W 9463   9.207   9.677   3.419
 5945W        W 9464   1.271   6.989   2.604
 5946W        W 9465   3.074   4.191   3.245
 5947W        W 9466   3.541   2.901   8.836
 5948W        W 9467   5.285   1.268   1.382
 5949W        W 9468   4.466   0.215   0.365
 5950W        W 9469   2.231   5.663   3.050
 5951W        W 9470   8.969   8.329   3.259
 5952W        W 9471   6.224   9.082  11.679
 5953W        W 9472   7.174   8.651   1.888
 5954W        W 9473   1.406   4.735   1.904
 5955W        W 9474   3.209   7.073  11.898
 5956W        W 9475   5.925   2.285  10.003
 5957W        W 9476   3.029   7.414   1.400
 5958W        W 9477   1.823   6.590   0.442
 5959W        W 9478   4.245   2.144   3.392
 5960W        W 9479   1.072   0.767   1.443
 5961W        W 9480   8.297   0.658  11.989
 5962W        W 9481   4.026   5.070  11.914
 5963W        W 9482   2.630   5.717   9.336
 5964W        W 9483   4.702   4.415   0.740
 5965W        W 9484   5.671   6.255   1.640
 5966W        W 9485   7.476   0.977   2.831
 5967W        W 9486   1.638   7.342   8.766
 5968W        W 9487   1.897   9.122  11.271
 5969W        W 9488   8.477   8.014   0.579
 5970W        W 9489   3.646   6.163   3.377
 5971W        W 9490   6.704   2.847   0.607
 5972W        W 9491   5.653   2.661   2.395
 5973W        W 9492   4.438   2.729   9.070
 5974W        W 9493   6.572   8.401   3.433
 5975W        W 9494   4.124   6.639   0.080
 5976W        W 9495   3.310   5.668   8.798
 5977W        W 9496   2.645   1.810   9.614
 5978W        W 9497   0.354   2.200   2.828
 5979W        W 9498   5.119   1.923   9.061
 5980W        W 9499   1.855   7.598  10.296
 5981W        W 9500   9.993   1.677   2.143
 5982W        W 9501   3.353   9.906   8.774
 5983W        W 9502   5.881   4.131   9.607
 5984W        W 9503   1.951   6.443   3.582
 5985W        W 9504   5.317   1.519   1.888
 5986W        W 9505   4.602   1.767  11.870
 5987W        W 9506   8.585   0.878   9.406
 5988W        W 9507   0.630   9.149  10.984
 5989W        W 9508   2.746   2.172  10.940
 5990W        W 9509   9.154   4.833  10.726
 5991W        W 9510   4.988   7.848  10.674
 5992W        W 9511   9.385   5.557  10.518
 5993W        W 9512   0.711   3.100  10.454
 5994W        W 9513   5.550   1.664   9.201
 5995W        W 9514   3.224   8.654  11.116
 5996W        W 9515   1.494   4.945  10.951
 5997W        W 9516   9.723   6.140  11.835
 5998W        W 9517   4.879   7.149   3.653
 5999W        W 9518   7.965   0.444   3.560
 6000W        W 9519   3.355   4.397  10.690
 6001W        W 9520   4.485   3.120   8.734
 6002W        W 9521   6.424   9.500  11.946
 6003W        W 9522   2.715   2.274   9.848
 6004W        W 9523   3.115   7.570   2.377
 6005W        W 9524   5.110   8.584  11.770
 6006W        W 9525   9.823   8.861  11.301
 6007W        W 9526   7.617   3.983  11.316
 6008W        W 9527   4.478   4.146  10.215
 6009W        W 9528   7.010   8.261   9.877
 6010W        W 9529   9.787   3.401   1.123
 6011W        W 9530   3.755   9.771   2.770
 6012W        W 9531   8.860   3.845  10.453
 6013W        W 9532   9.958   4.856   3.386
 6014W        W 9533   4.960   9.061   3.098
 6015W        W 9534   8.981   0.339  11.528
 6016W        W 9535   2.706   2.924   9.937
 6017W        W 9536   9.069   3.018  10.889
 6018W        W 9537   9.321   2.294   2.667
 6019W        W 9538   1.449   1.030   3.744
 6020W        W 9539   0.344   8.846   1.882
 6021W        W 9540   9.348   2.287   2.160
 6022W        W 9541   3.656   0.686   8.734
 6023W        W 9542   0.413   2.665   8.753
 6024W        W 9543   8.767   0.667   1.173
 6025W        W 9544   6.214   7.132   1.686
 6026W        W 9545   6.489   2.830   1.902
 6027W        W 9546   8.285   0.503   9.592
 6028W        W 9547   7.171   9.978   0.392
 6029W        W 9548   4.933   2.283  11.299
 6030W        W 9549   4.098   5.314  10.441
 6031W        W 9550   5.464   8.289   3.546
 6032W        W 9551   8.006   6.084   2.525
 6033W        W 9552   9.754   6.656   1.849
 6034W        W 9553   7.803   8.615  10.798
 6035W        W 9554   5.647   6.256   0.451
 6036W        W 9555   5.013   1.697  10.902
 6037W        W 9556   7.099   2.828   2.372
 6038W        W 9557   9.785   4.386  11.226
 6039W        W 9558   7.963   5.766   3.428
 6040W        W 9559   6.742   6.462   2.236
 6041W        W 9560   2.638   8.173   9.892
 6042W        W 9561   4.407   5.567   1.428
 6043W        W 9562   4.287   6.463   3.970
 6044W        W 9563   3.787   1.612  10.384
 6045W        W 9564   3.071   7.182   2.028
 6046W        W 9565   2.549   7.854   8.926
 6047W        W 9566   4.677   8.499   0.835
 6048W        W 9567   2.953   1.590   0.949
 6049W        W 9568   4.056   3.228   0.403
 6050W        W 9569   3.524   2.314   1.842
 6051W        W 9570   0.278   8.609   1.034
 6052W        W 9571   1.214   7.999   0.295
 6053W        W 9572   4.525   4.509  11.426
 6054W        W 9573   2.122   2.867   0.952
 6055W        W 9574   0.027   5.888   2.947
 6056W        W 9575   0.901   4.477  10.414
 6057W        W 9576   4.964   4.190   9.494
 6058W        W 9577   3.270   8.874   1.772
 6059W        W 9578   0.353   8.133   1.194
 6060W        W 9579   2.186   5.896   1.464
 6061W        W 9580   0.961   1.581   9.440
 6062W        W 9581   1.397   2.191   8.585
 6063W        W 9582   4.413   8.793   9.290
 6064W        W 9583   5.504   2.993   3.643
 6065W        W 9584   0.829   8.724   9.670
 6066W        W 9585   0.806   8.239   9.809
 6067W        W 9586   8.788   9.045  11.686
 6068W        W 9587   0.378   3.622   3.058
 6069W        W 9588   4.656   3.780   4.066
 6070W        W 9589   5.742   2.538   8.609
 6071W        W 9590   0.543   9.824   0.464
 6072W        W 9591   2.445   1.700   1.626
 6073W        W 9592   6.482   5.598   8.716
 6074W        W 9593   0.026   4.393   2.200
 6075W        W 9594   0.325   8.107   9.721
 6076W        W 9595   6.935   3.108   1.957
 6077W        W 9596   3.089   7.956   9.672
 6078W        W 9597   8.026   0.910   0.352
 6079W        W 9598   7.104   0.228  10.170
 6080W        W 9599   5.504   3.578   2.675
 6081W        W 9600   7.902   2.828   0.718
 6082W        W 9601   2.279   6.330   9.635
 6083W        W 9602   6.730   3.061   9.804
 6084W        W 9603   5.696   3.190   1.581
 6085W        W 9604   0.545   4.336   2.222
 6086W        W 9605   6.531   7.365  10.311
 6087W        W 9606   0.236   5.046   9.681
 6088W        W 9607   9.810   2.618   0.189
 6089W        W 9608   3.723   4.963   9.673
 6090W        W 9609   7.734   2.719   1.560
 6091W        W 9610   3.283   7.785   3.346
 6092W        W 9611   9.097   1.350   1.772
 6093W        W 9612   7.975   7.372   2.162
 6094W        W 9613   9.318   1.072   9.839
 6095W        W 9614   7.953   1.828  10.742
 6096W        W 9615   5.284   2.906   9.331
 6097W        W 9616   3.162   0.388   1.902
 6098W        W 9617   1.504   0.884   3.254
 6099W        W 9618   1.320   9.383   3.179
 6100W        W 9619   5.002   3.709   2.716
 6101W        W 9620   5.706   9.891   0.026
 6102W        W 9621   1.371   1.799   2.101
 6103W        W 9622   6.680   5.535   9.717
 6104W        W 9623   3.796   1.861   3.342
 6105W        W 9624   9.835   5.231   8.758
 6106W        W 9625   2.390   2.129   2.979
 6107W        W 9626   6.652   7.549   2.204
 6108W        W 9627   2.138   8.201  11.163
 6109W        W 9628   5.991   5.856  11.212
 6110W        W 9629   8.072   8.920  11.801
 6111W        W 9630   2.746   9.885   1.809
 6112W        W 9631   0.079   7.341   9.379
 6113W        W 9632   1.947   8.522   8.894
 6114W        W 9633   3.591   1.418   1.680
 6115W        W 9634   0.219   3.824   0.322
 6116W        W 9635   2.587   4.136   3.107
 6117W        W 9636   4.845   4.445   8.377
 6118W        W 9637   1.820   6.674   1.323
 6119W        W 9638   1.504   1.336   0.284
 6120W        W 9639   8.133   2.356   1.366
 6121W        W 9640   6.161   9.060   8.916
 6122W        W 9641   6.739   3.708   1.910
 6123W        W 9642   3.785   5.472   0.661
 6124W        W 9643   5.081   9.662  10.084
 6125W        W 9644   1.498   6.231  10.588
 6126W        W 9645   4.498   8.095   3.193
 6127W        W 9646   0.445   5.070  11.113
 6128W        W 9647   7.888   9.986   3.777
 6129W        W 9648   6.936   3.615  11.507
 6130W        W 9649   6.274   4.164  11.961
 6131W        W 9650   8.047   4.327   1.020
 6132W        W 9651   5.941   1.329  11.270
 6133W        W 9652   4.761   6.375   2.787
 6134W        W 9653   5.704   8.863   1.444
 6135W        W 9654   0.415   6.644   0.404
 6136W        W 9655   1.162   6.544   2.313
 6137W        W 9656   9.595   1.911   2.391
 6138W        W 9657   7.377   6.093   0.708
 6139W        W 9658   4.005   1.092  10.554
 6140W        W 9659   0.863   5.594   9.351
 6141W        W 9660   9.972   2.050   3.152
 6142W        W 9661   0.573   5.129   9.286
 6143W        W 9662   1.730   3.280  11.858
 6144W        W 9663   5.163   5.484   9.269
 6145W        W 9664   5.960   3.745   3.600
 6146W        W 9665   8.809   5.310   3.059
 6147W        W 9666   1.877   4.541   0.448
 6148W        W 9667   2.554   8.750  11.810
 6149W        W 9668   6.555   0.237   3.114
 6150W        W 9669   7.365   3.597  10.483
 6151W        W 9670   9.403   2.750   3.251
 6152W        W 9671   8.899   3.487  10.955
 6153W        W 9672   1.694   8.081  11.504
 6154W        W 9673   7.525   0.311   2.867
 6155W        W 9674   6.495   8.706   9.129
 6156W        W 9675   1.068   9.074   1.187
 6157W        W 9676   9.804   4.353   8.777
 6158W        W 9677   8.037   6.712  11.350
 6159W        W 9678   0.407   5.027  11.809
 6160W        W 9679   1.888   4.642   2.233
 6161W        W 9680   9.923   2.855   8.804
 6162W        W 9681   0.563   0.892  10.471
 6163W        W 9682   4.467   9.766   2.012
 6164W        W 9683   6.259   1.364  10.263
 6165W        W 9684   9.314   2.665   0.042
 6166W        W 9685   1.025   9.876  11.547
 6167W        W 9686   6.460   0.303   1.624
 6168W        W 9687   6.377   5.190  10.296
 6169W        W 9688   9.498   3.626   2.657
 6170W        W 9689   6.441   2.943   2.977
 6171W        W 9690   7.016   1.155   0.774
 6172W        W 9691   6.650   6.074  10.675
 6173W        W 9692   3.103   4.680   2.940
 6174W        W 9693   2.622   9.948   0.233
 6175W        W 9694   1.968   7.836   1.006
 6176W        W 9695   1.216  10.000  11.080
 6177W        W 9696   9.352   7.448   0.782
 6178W        W 9697   3.332   0.779   2.654
 6179W        W 9698   1.878   1.036   1.713
 6180W        W 9699   7.088   3.216  10.241
 6181W        W 9700   8.935   2.623  11.203
 6182W        W 9701   4.378   0.352   1.411
 6183W        W 9702   7.057   4.150  10.338
 6184W        W 9703   5.062   8.368   2.419
 6185W        W 9704   3.463   7.408   1.659
 6186W        W 9705   0.390   6.879  10.873
 6187W        W 9706   4.956   7.357   1.880
 6188W        W 9707   1.793   6.167   9.413
 6189W        W 9708   3.082   6.367   8.079
 6190W        W 9709   0.467   0.928  10.966
 6191W        W 9710   1.941   1.674  11.128
 6192W        W 9711   9.596   9.479   2.283
 6193W        W 9712   9.621   9.398   9.150
 6194W        W 9713   9.294   3.093  11.499
 6195W        W 9714   7.286   5.138   1.900
 6196W        W 9715   3.544   3.574  10.228
 6197W        W 9716   0.755   2.167   1.082
 6198W        W 9717   8.905   5.165   2.144
 6199W        W 9718   7.586   7.245  10.809
 6200W        W 9719   3.442   5.469   3.868
 6201W        W 9720   8.657   5.317   9.031
 6202W        W 9721   4.711   6.372  11.832
 6203W        W 9722   2.040   5.041   1.360
 6204W        W 9723   4.630   9.760   8.878
 6205W        W 9724   7.114   3.712   2.715
 6206W        W 9725   4.613   0.643   9.293
 6207W        W 9726   1.349   1.097  11.859
 6208W        W 9727   7.352   0.621   8.563
 6209W        W 9728   1.876   1.322   9.977
 6210W        W 9729   8.518   9.315  10.927
 6211W        W 9730   2.224   1.738  10.452
 6212W        W 9731   8.529   7.123   9.201
 6213W        W 9732   8.482   3.616  10.703
 6214W        W 9733   2.294   9.366   8.964
 6215W        W 9734   2.644   2.478   1.327
 6216W        W 9735   1.734   3.723   3.286
 6217W        W 9736   4.672   7.826   2.760
 6218W        W 9737   5.172   7.986   1.581
 6219W        W 9738   3.365   3.052  11.723
 6220W        W 9739   5.628   0.999   2.570
 6221W        W 9740   3.696   7.830   3.008
 6222W        W 9741   1.805   6.174   2.252
 6223W        W 9742   7.724   2.104  11.148
 6224W        W 9743   4.582   0.103   9.318
 6225W        W 9744   3.589   3.386  11.368
 6226W        W 9745   8.335   8.004   3.479
 6227W        W 9746   1.525   7.844   3.135
 6228W        W 9747   3.431   7.150   9.084
 6229W        W 9748   0.871   0.308   1.406
 6230W        W 9749   5.765   5.048   9.642
 6231W        W 9750   7.992   8.812   9.067
 6232W        W 9751   5.264   4.142   8.521
 6233W        W 9752   6.208   7.308   9.058
 6234W        W 9753   3.092   2.338   1.549
 6235W        W 9754   7.217   1.456   0.270
 6236W        W 9755   2.898   6.582   1.828
 6237W        W 9756   7.890   0.680   2.811
 6238W        W 9757   4.943   5.728   3.878
 6239W        W 9758   2.351   3.053   1.369
 6240W        W 9759   5.432   4.005   2.011
 6241W        W 9760   8.487   7.529  10.310
 6242W        W 9761   7.557   7.614   3.216
 6243W        W 9762   2.642   6.042   3.088
 6244W        W 9763   4.624   0.859   9.766
 6245W        W 9764   5.231   9.817  11.813
 6246W        W 9765   0.444   7.033   9.246
 6247W        W 9766   6.509   3.642   1.221
 6248W        W 9767   6.167   5.084   3.388
 6249W        W 9768   6.599   4.017  10.160
 6250W        W 9769   5.633   8.883   2.350
 6251W        W 9770   0.713   1.737   0.801
 6252W        W 9771   2.517   0.432  10.785
 6253W        W 9772   4.883   3.282   1.033
 6254W        W 9773   0.884   4.847  10.065
 6255W        W 9774   3.145   8.414   1.591
 6256W        W 9775   0.830   3.130   9.167
 6257W        W 9776   6.140   4.517   2.115
 6258W        W 9777   5.704   0.969   8.568
 6259W        W 9778   9.378   4.380   9.899
 6260W        W 9779   1.910   0.875   3.601
 6261W        W 9780   4.650   8.803   3.601
 6262W        W 9781   9.950   8.460   0.034
 6263W        W 9782   7.614   5.829  11.542
 6264W        W 9783   2.538   1.723   0.627
 6265W        W 9784   6.982   2.896   9.374
 6266W        W 9785   9.485   8.750   3.292
 6267W        W 9786   9.935   4.315   2.703
 6268W        W 9787   1.054   8.331   3.643
 6269W        W 9788   0.448   5.734  10.003
 6270W        W 9789   4.793   7.213   9.638
 6271W        W 9790   9.399   1.359   3.266
 6272W        W 9791   2.545   4.216  10.905
 6273W        W 9792   9.514   6.057   3.046
 6274W        W 9793   4.202   2.240   9.712
 6275W        W 9794   3.519   5.069  11.932
 6276W        W 9795   3.170   6.576   2.657
 6277W        W 9796   3.509   5.914   4.172
 6278W        W 9797   0.374   8.599   9.825
 6279W        W 9798   3.143   9.420  11.524
 6280W        W 9799   4.435   3.755   3.399
 6281W        W 9800   9.236   9.430   1.399
 6282W        W 9801   8.293   1.009  10.687
 6283W        W 9802   0.347   8.706  11.666
 6284W        W 9803   3.299   6.125  10.560
 6285W        W 9804   4.066   5.106   2.036
 6286W        W 9805   7.372   5.909  11.061
 6287W        W 9806   7.867   2.819   0.195
 6288W        W 9807   7.248   9.157   1.871
 6289W        W 9808   1.853   6.948  10.830
 6290W        W 9809   4.221   1.928  10.397
 6291W        W 9810   6.445   3.212   0.329
 6292W        W 9811   8.184   9.919   0.572
 6293W        W 9812   1.732   0.879   0.330
 6294W        W 9813   9.466   1.030   1.900
 6295W        W 9814   5.498   9.600   9.251
 6296W        W 9815   4.532   7.580  10.510
 6297W        W 9816   0.421   7.881   1.949
 6298W        W 9817   5.966   6.163   2.040
 6299W        W 9818   6.614   0.686   2.848
 6300W        W 9819   2.260   9.856  10.481
 6301W        W 9820   3.153   5.516  11.259
 6302W        W 9821   7.638   2.201   9.471
 6303W        W 9822   9.665   4.138   1.889
 6304W        W 9823   3.315   8.418   8.640
 6305W        W 9824   7.273   3.559   8.674
 6306W        W 9825   8.396   5.211   1.381
 6307W        W 9826   8.164   9.756   8.904
 6308W        W 9827   1.376   3.225   1.115
 6309W        W 9828   5.579   7.603   9.397
 6310W        W 9829   7.776   3.317   0.309
 6311W        W 9830   3.172   4.063  11.939
 6312W        W 9831   6.338   5.038   2.046
 6313W        W 9832   8.282   9.341   1.229
 6314W        W 9833   8.265   8.923   9.484
 6315W        W 9834   9.886   1.309   2.483
 6316W        W 9835   7.225   3.133   9.753
 6317W        W 9836   7.897   1.081   3.169
 6318W        W 9837   1.843   9.529  11.617
 6319W        W 9838   2.117   8.294   9.884
 6320W        W 9839   5.051   4.119   8.985
 6321W        W 9840   4.234   1.572   0.750
 6322W        W 9841   2.637   5.141  11.752
 6323W        W 9842   1.675   2.169   0.550
 6324W        W 9843   0.896   4.677   1.888
 6325W        W 9844   7.418   9.485   8.524
 6326W        W 9845   9.356   1.604  10.455
 6327W        W 9846   8.277   0.483   1.303
 6328W        W 9847   1.168   2.646  11.887
 6329W        W 9848   9.062   1.881   9.309
 6330W        W 9849   1.677   2.420   3.569
 6331W        W 9850   2.698   3.464  10.196
 6332W        W 9851   3.474   5.882   1.899
 6333W        W 9852   8.936   7.804  10.276
 6334W        W 9853   6.085   2.148   8.446
 6335W        W 9854   7.252   1.807  11.087
 6336W        W 9855   6.845   9.603   2.687
 6337W        W 9856   5.583   8.388  10.871
 6338W        W 9857   2.914   1.343   0.483
 6339W        W 9858   5.144   9.692  10.925
 6340W        W 9859   0.291   8.543   8.568
 6341W        W 9860   4.293   9.690   2.752
 6342W        W 9861   3.527   9.683   2.308
 6343W        W 9862   0.196   3.813  11.421
 6344W        W 9863   8.859   6.983   2.117
 6345W        W 9864   4.162   1.291   9.760
 6346W        W 9865   7.326   6.663   3.437
 6347W        W 9866   1.288   1.924   0.332
 6348W        W 9867   6.538   9.527   9.975
 6349W        W 9868   4.913   2.199   9.887
 6350W        W 9869   4.944   5.948   9.114
 6351W        W 9870   7.485   0.428   1.097
 6352W        W 9871   8.749   0.803   3.052
 6353W        W 9872   8.106   6.673   1.687
 6354W        W 9873   1.429   9.246   9.281
 6355W        W 9874   1.720   5.757  10.436
 6356W        W 9875   6.831   6.049   3.239
 6357W        W 9876   3.022   5.300   8.516
 6358W        W 9877   6.432   3.183  10.945
 6359W        W 9878   5.485   0.208  10.399
 6360W        W 9879   1.309   3.373   2.728
 6361W        W 9880   5.114   2.033   0.679
 6362W        W 9881   3.239   6.787   0.314
 6363W        W 9882   1.737   3.810   1.850
 6364W        W 9883   0.387   5.684   1.204
 6365W        W 9884   4.656   1.034  10.251
 6366W        W 9885   7.358   5.204   0.675
 6367W        W 9886   1.083   3.639   0.988
 6368W        W 9887   3.433   8.487   0.859
 6369W        W 9888   4.375   2.914   3.573
 6370W        W 9889   2.253   0.835  10.234
 6371W        W 9890   3.088   7.998  10.532
 6372W        W 9891   9.836   8.651   0.502
 6373W        W 9892   2.841   6.711  11.882
 6374W        W 9893   6.114   0.550   9.884
 6375W        W 9894   8.766   0.882  10.866
 6376W        W 9895   8.034   2.580   1.941
 6377W        W 9896   2.542   0.152  11.768
 6378W        W 9897   9.771   2.566   1.258
 6379W        W 9898   2.899   6.922   0.733
 6380W        W 9899   2.160   1.645   3.013
 6381W        W 9900   8.981   3.441   9.639
 6382W        W 9901   0.698   6.472   3.471
 6383W        W 9902   6.031   9.184   0.762
 6384W        W 9903   6.432   9.384  10.886
 6385W        W 9904   5.194   3.985   3.736
 6386W        W 9905   9.966   2.327   8.904
 6387W        W 9906   4.008   8.298   2.993
 6388W        W 9907   0.245   6.702   2.608
 6389W        W 9908   2.172   5.347   0.168
 6390W        W 9909   4.876   6.676  11.461
 6391W        W 9910   9.998   1.351   1.321
 6392W        W 9911   7.996   3.326   0.797
 6393W        W 9912   5.529   1.230  10.111
 6394W        W 9913   8.398   5.980  10.718
 6395W        W 9914   8.590   5.013  11.380
 6396W        W 9915   7.012   6.390  10.459
 6397W        W 9916   8.095   7.723   0.838
 6398W        W 9917   4.794   4.602  11.928
 6399W        W 9918   4.021   1.314   9.285
 6400W        W 9919   7.390   2.367   1.750
 6401W        W 9920   2.444   7.862   0.825
 6402W        W 9921   5.118   2.411   9.343
 6403W        W 9922   8.066   0.889   9.355
 6404W        W 9923   7.157   0.816  11.159
 6405W        W 9924   1.728   0.570   2.835
 6406W        W 9925   0.857   1.681   3.414
 6407W        W 9926   6.579   8.591  11.833
 6408W        W 9927   9.328   8.974   9.393
 6409W        W 9928   3.021   0.207  11.980
 6410W        W 9929   1.589   6.547   1.938
 6411W        W 9930   7.561   1.614   9.490
 6412W        W 9931   1.152   5.042   2.697
 6413W        W 9932   8.650   6.677   0.628
 6414W        W 9933   2.344   2.809  10.458
 6415W        W 9934   9.172   2.906  10.393
 6416W        W 9935   0.974   6.854   1.374
 6417W        W 9936   5.800   0.859  11.412
 6418W        W 9937   3.984   0.762   0.906
 6419W        W 9938   7.371   8.894   2.307
 6420W        W 9939   3.186   9.372   0.022
 6421W        W 9940   1.593   6.299  11.717
 6422W        W 9941   3.097   3.748   9.328
 6423W        W 9942   6.910   6.655  10.968
 6424W        W 9943   2.335   2.482   0.038
 6425W        W 9944   9.803   4.648   9.227
 6426W        W 9945   2.446   8.677  10.055
 6427W        W 9946   4.500   4.353   0.278
 6428W        W 9947   1.321   3.826   2.975
 6429W        W 9948   9.350   2.107  11.157
 6430W        W 9949   5.969   2.942   0.290
 6431W        W 9950   5.662   5.833  10.797
 6432W        W 9951   0.762   3.156  10.983
 6433W        W 9952   2.757   9.680   0.649
 6434W        W 9953   8.437   4.347   8.829
 6435W        W 9954   7.648   6.063  10.396
 6436W        W 9955   0.759   8.614  10.184
 6437W        W 9956   3.232   2.672   2.784
 6438W        W 9957   9.441   0.129  11.388
 6439W        W 9958   2.702   9.430   0.204
 6440W        W 9959   8.226   1.737   8.962
 6441W        W 9960   5.924   3.145  10.990
 6442W        W 9961   9.517   5.777   0.234
 6443W        W 9962   0.037   0.451   3.254
 6444W        W 9963   7.597   1.903   2.486
 6445W        W 9964   8.142   3.207  11.928
 6446W        W 9965   1.641   8.419   9.678
 6447W        W 9966   8.008   1.593   9.846
 6448W        W 9967   1.219   5.796  10.444
 6449W        W 9968   8.488   5.507  10.207
 6450W        W 9969   8.326   5.842  11.770
 6451W        W 9970   9.625   2.387  10.378
 6452W        W 9971   4.709   0.169   3.227
 6453W        W 9972   8.634   5.600   2.065
 6454W        W 9973   8.900   0.464   2.310
 6455W        W 9974   2.896   1.870   1.395
 6456W        W 9975   1.944   3.184   0.365
 6457W        W 9976   3.288   7.426   9.684
 6458W        W 9977   2.087   2.921  11.951
 6459W        W 9978   3.956   4.360   8.164
 6460W        W 9979   5.748   2.041   3.533
 6461W        W 9980   9.557   3.147  10.150
 6462W        W 9981   8.778   1.332  11.619
 6463W        W 9982   0.410   6.210   1.208
 6464W        W 9983   1.272   7.544   0.506
 6465W        W 9984   0.979   6.240  10.495
 6466W        W 9985   8.037   4.459   1.505
 6467W        W 9986   2.423   1.211   2.891
 6468W        W 9987   0.916   1.632  11.257
 6469W        W 9988   0.071   8.228   2.756
 6470W        W 9989   1.537   4.952   0.629
 6471W        W 9990   3.447   9.380   2.722
 6472W        W 9991   7.398   2.296   2.748
 6473W        W 9992   1.544   4.256   2.059
 6474W        W 9993   3.538   7.587   1.161
 6475W        W 9994   9.173   5.053   0.212
 6476W        W 9995   6.900   0.935  10.748
 6477W        W 9996   4.333   9.836   9.683
 6478W        W 9997   3.692   1.778  10.874
 6479W        W 9998   0.737   6.695   9.510
 6480W        W 9999   6.501   9.431   9.066
 6481W        W10000   2.620   4.988  10.289
 6482W        W10001   5.753   5.763   1.783
 6483W        W10002   2.805   8.601   8.723
 6484W        W10003   4.191   7.101   0.988
 6485W        W10004   6.524   2.316   1.868
 6486W        W10005   8.285   7.995   9.113
 6487W        W10006   5.929   2.194  11.550
 6488W        W10007   8.278   4.089   2.781
 6489W        W10008   5.189   7.477   1.411
 6490W        W10009   3.084   5.672   2.375
 6491W        W10010   1.850   7.243   3.203
 6492W        W10011   9.362   9.622   1.850
 6493W        W10012   5.235   6.943   1.912
 6494W        W10013   0.149   5.387   0.046
 6495W        W10014   8.557   0.709   0.425
 6496W        W10015   0.140   5.049   1.772
 6497W        W10016   7.834   1.494   8.702
 6498W        W10017   7.164   8.161   0.662
 6499W        W10018   9.212   6.226   1.201
 6500W        W10019   0.304   8.386   3.607
 6501W        W10020   8.078   7.802  10.060
 6502W        W10021   2.388   7.523   9.337
 6503W        W10022   3.176   5.192   8.980
 6504W        W10023   6.084   7.696   9.386
 6505W        W10024   2.909   8.889  11.444
 6506W        W10025   2.935   5.133   0.750
 6507W        W10026   5.101   0.684   0.942
 6508W        W10027   2.298   3.963  11.985
 6509W        W10028   5.624   4.985   0.857
 6510W        W10029   0.929   9.498  10.594
 6511W        W10030   7.446   1.187   3.474
 6512W        W10031   2.301   4.339   9.153
 6513W        W10032   5.009   9.953  10.495
 6514W        W10033   9.847   7.687  10.277
 6515W        W10034   5.844   1.544   0.111
 6516W        W10035   4.960   2.463  10.322
 6517W        W10036   5.992   3.856   9.166
 6518W        W10037   6.798   1.085  11.416
 6519W        W10038   7.622   3.662   0.922
 6520W        W10039   6.111   0.419   2.963
 6521W        W10040   4.253   7.963   0.657
 6522W        W10041   0.025   2.996   1.379
 6523W        W10042   2.662   0.817   9.104
 6524W        W10043   2.670   5.945   2.297
 6525W        W10044   5.692   7.711   0.452
 6526W        W10045   2.591   5.587  11.993
 6527W        W10046   6.152   9.815  10.862
 6528W        W10047   7.496   8.151   3.438
 6529W        W10048   9.391   4.626   8.922
 6530W        W10049   5.465   6.938   2.384
 6531W        W10050   1.579   7.813   8.966
 6532W        W10051   7.669   5.872   8.755
 6533W        W10052   5.467   9.345  11.693
 6534W        W10053   9.394   7.900  10.497
 6535W        W10054   9.017   4.102   0.080
 6536W        W10055   1.644   8.037   8.506
 6537W        W10056   8.087   8.865   1.384
 6538W        W10057   1.428   3.925  11.970
 6539W        W10058   4.729   4.527   8.871
 6540W        W10059   2.977   8.446   9.506
 6541W        W10060   2.773   4.193   9.362
 6542W        W10061   1.458   2.545  10.829
 6543W        W10062   2.229   5.815   9.643
 6544W        W10063   1.812   4.715  11.776
 6545W        W10064   8.089   2.796  11.166
 6546W        W10065   3.877   0.910   0.322
 6547W        W10066   3.663   3.344   3.216
 6548W        W10067   9.635   7.571   9.454
 6549W        W10068   5.840   5.937   3.491
 6550W        W10069   8.518   6.784   9.642
 6551W        W10070   7.651   6.147   8.319
 6552W        W10071   2.191   0.374   0.932
 6553W        W10072   3.172   9.509  11.033
 6554W        W10073   9.789   0.846   2.238
 6555W        W10074   4.475   0.240  11.852
 6556W        W10075   3.633   9.330  11.790
 6557W        W10076   7.436   3.280   1.236
 6558W        W10077   8.528   4.016   3.619
 6559W        W10078   0.075   9.020   9.846
 6560W        W10079   4.371   5.943   8.340
 6561W        W10080   1.836   9.534   9.187
 6562W        W10081   2.804   2.686   9.139
 6563W        W10082   3.643   7.086   0.455
 6564W        W10083   5.281   5.559   2.625
 6565W        W10084   7.732   5.323  11.150
 6566W        W10085   7.500   7.097   2.045
 6567W        W10086   4.982   6.054   2.444
 6568W        W10087   7.175   3.733  11.034
 6569W        W10088   9.950   3.705   1.881
 6570W        W10089   4.592   0.531  10.164
 6571W        W10090   5.620   3.083   2.662
 6572W        W10091   2.729   2.541  10.281
 6573W        W10092   9.668   9.293  11.543
 6574W        W10093   5.310   5.424   3.559
 6575W        W10094   9.638   7.539  11.249
 6576W        W10095   6.791   5.016   1.775
 6577W        W10096   7.614   2.743   2.528
 6578W        W10097   8.812   0.460   9.585
 6579W        W10098   7.473   7.914   1.438
 6580W        W10099   2.437   8.414  10.819
 6581W        W10100   4.761   3.826  10.886
 6582W        W10101   6.443   1.193  11.989
 6583W        W10102   7.171   9.883  11.888
 6584W        W10103   3.534   5.548   8.361
 6585W        W10104   5.175   0.873   0.448
 6586W        W10105   5.091   8.081   8.573
 6587W        W10106   0.744   0.337  11.584
 6588W        W10107   4.803   6.124  10.689
 6589W        W10108   9.760   5.601   3.319
 6590W        W10109   6.063   0.581   1.003
 6591W        W10110   0.378   7.044   2.237
 6592W        W10111   4.612   3.213   0.190
 6593W        W10112   5.011   5.254   2.333
 6594W        W10113   6.341   9.322   3.276
 6595W        W10114   2.578   5.593   1.941
 6596W        W10115   1.289   2.585   1.667
 6597W        W10116   4.202   3.002  11.962
 6598W        W10117   4.745   5.707  11.491
 6599W        W10118   7.460   4.923   3.261
 6600W        W10119   6.782   2.885   1.478
 6601W        W10120   7.437   4.840   2.740
 6602W        W10121   5.486   8.178   0.332
 6603W        W10122   4.049   4.107   9.905
 6604W        W10123   4.493   9.578  10.323
 6605W        W10124   1.829   9.334  10.105
 6606W        W10125   9.581   6.276   1.556
 6607W        W10126   8.926   7.436   9.012
 6608W        W10127   2.573   4.165   1.705
 6609W        W10128   2.769   4.287   2.643
 6610W        W10129   3.367   3.847   2.027
 6611W        W10130   3.960   0.270   3.624
 6612W        W10131   5.383   5.546  11.114
 6613W        W10132   9.183   2.704   2.413
 6614W        W10133   5.616   3.798  11.251
 6615W        W10134   4.852   0.389   2.406
 6616W        W10135   5.744   1.366   1.605
 6617W        W10136   2.768   5.085  10.760
 6618W        W10137   0.302   8.456   0.536
 6619W        W10138   1.865   1.924   1.790
 6620W        W10139   7.281   2.195  11.413
 6621W        W10140   7.012   4.455   0.374
 6622W        W10141   0.749   6.647  11.485
 6623W        W10142   4.490   5.889   9.376
 6624W        W10143   1.439   9.817  11.839
 6625W        W10144   4.901   1.149   1.094
 6626W        W10145   1.641   5.755  11.878
 6627W        W10146   0.524   2.287   9.571
 6628W        W10147   8.557   0.226  10.861
 6629W        W10148   5.538   9.608   3.274
 6630W        W10149   0.803   7.398  10.013
 6631W        W10150   0.752   1.345  10.850
 6632W        W10151   4.179   2.026   0.013
 6633W        W10152   8.387   5.549   3.264
 6634W        W10153   7.347   1.399   2.514
 6635W        W10154   7.266   4.729   2.187
 6636W        W10155   4.584   4.597  10.499
 6637W        W10156   3.971   7.239   2.396
 6638W        W10157   5.377   8.462   1.604
 6639W        W10158   7.950   8.059  10.503
 6640W        W10159   4.120   3.506   8.669
 6641W        W10160   0.886   6.900   9.956
 6642W        W10161   7.907   6.073   0.727
 6643W        W10162   1.559   8.924   3.332
 6644W        W10163   3.829   7.619  10.706
 6645W        W10164   5.021   6.760   9.477
 6646W        W10165   5.026   1.177  10.861
 6647W        W10166   7.075   7.805   2.250
 6648W        W10167   9.978   8.564   9.011
 6649W        W10168   1.666   3.415   3.689
 6650W        W10169   3.900   7.490   3.387
 6651W        W10170   6.978   8.619   8.938
 6652W        W10171   6.014   8.146  11.751
 6653W        W10172   5.842   4.167   2.951
 6654W        W10173   4.895   5.130   0.917
 6655W        W10174   0.242   3.725   9.297
 6656W        W10175   5.048   8.561   0.275
 6657W        W10176   0.534   7.648  11.363
 6658W        W10177   4.563   9.342   0.230
 6659W        W10178   1.367   7.148  10.819
 6660W        W10179   2.479   9.612   8.555
 6661W        W10180   4.703   1.874   0.933
 6662W        W10181   5.952   3.439   0.303
 6663W        W10182   4.464   4.210   8.114
 6664W        W10183   5.533   0.968   9.637
 6665W        W10184   8.306   6.212   1.662
 6666W        W10185   8.411   3.684   1.361
 6667W        W10186   1.641   6.627   2.444
 6668W        W10187   0.323   2.235   0.806
 6669W        W10188   4.828   5.439  10.951
 6670W        W10189   1.244   0.704   2.840
 6671W        W10190   9.224   9.208   2.530
 6672W        W10191   6.738   2.174   1.434
 6673W        W10192   1.677   8.037   0.079
 6674W        W10193   5.993   3.688   1.202
 6675W        W10194   2.084   7.980  10.696
 6676W        W10195   1.806   1.199   1.227
 6677W        W10196   8.133   8.393   0.426
 6678W        W10197   0.681   5.365   3.439
 6679W        W10198   2.164   5.481   1.068
 6680W        W10199   6.355   4.043  11.094
 6681W        W10200   5.801   7.188   2.696
 6682W        W10201   0.368   0.444   2.442
 6683W        W10202   1.105   8.987  10.020
 6684W        W10203   3.350   9.720   1.203
 6685W        W10204   6.656   0.688   3.373
 6686W        W10205   4.086   9.824  10.136
 6687W        W10206   4.577   6.010  10.254
 6688W        W10207   0.654   8.020   3.516
 6689W        W10208   2.583   4.473  10.300
 6690W        W10209   6.142   5.669   2.092
 6691W        W10210   6.247   2.691   8.596
 6692W        W10211   3.601   4.835  10.673
 6693W        W10212   1.007   7.922   3.117
 6694W        W10213   7.976   5.531   2.926
 6695W        W10214   3.656   6.850   0.014
 6696W        W10215   2.874   1.363   9.794
 6697W        W10216   7.199   4.789   0.969
 6698W        W10217   6.690   1.714   9.516
 6699W        W10218   7.068   3.170   0.449
 6700W        W10219   6.495   6.949   9.273
 6701W        W10220   6.975   0.337  11.834
 6702W        W10221   7.625   5.912   2.896
 6703W        W10222   0.237   0.579  10.228
 6704W        W10223   3.517   4.065  10.069
 6705ION    NA+10224   4.468   0.493  10.976
 6706ION    NA+10225   7.944   4.228   8.808
 6707ION    NA+10226   6.271   8.434   0.709
 6708ION    NA+10227   3.383   1.632   1.249
 6709ION    NA+10228   3.882   6.190   1.794
 6710ION    NA+10229   2.259   5.732  10.488
 6711ION    NA+10230   4.522   6.532  10.387
 6712ION    NA+10231   6.630   5.032  11.687
 6713ION    NA+10232   9.523   3.105   8.551
 6714ION    NA+10233   4.645   8.734   9.851
 6715ION    NA+10234   6.149   3.668   9.627
 6716ION    NA+10235   4.737   7.851   0.755
 6717ION    NA+10236   7.903   5.608  11.950
 6718ION    NA+10237   0.845   3.133  11.958
 6719ION    NA+10238   0.018   9.967   3.049
 6720ION    NA+10239   7.566   8.960  11.741
 6721ION    NA+10240   1.691   7.048   9.517
 6722ION    NA+10241   4.042   2.418  10.359
 6723ION    NA+10242   3.797   0.194   8.900
 6724ION    NA+10243   3.886   8.457   9.536
 6725ION    NA+10244   6.971   1.203   8.976
 6726ION    NA+10245   3.609   5.503  10.987
 6727ION    NA+10246   7.442   4.102   9.549
 6728ION    NA+10247   5.355   9.250  10.154
 6729ION    NA+10248   6.913   9.537  10.683
 6730ION    NA+10249   3.128   0.936   8.933
 6731ION    NA+10250   0.272   5.416  11.502
 6732ION    NA+10251   9.301   3.416   1.305
 6733ION    NA+10252   8.119   1.594   3.167
 6734ION    NA+10253   2.631   5.032   8.795
 6735ION    NA+10254   6.392   0.841   1.726
 6736ION    NA+10255   8.659   1.383  10.770
 6737ION    NA+10256   5.309   8.737   2.688
 6738ION    NA+10257   1.884   4.695   1.725
 6739ION    NA+10258   7.288   9.382   2.835
 6740ION    NA+10259   1.746   9.742   0.434
 6741ION    NA+10260   7.914   7.883   2.244
 6742ION    NA+10261   2.794   6.786   2.305
 6743ION    NA+10262   1.552   6.555   0.881
 6744ION    NA+10263   1.337   8.622   1.097
 6745ION    NA+10264   2.150   5.917   0.014
 6746ION    NA+10265   8.183   4.789   2.097
 6747ION    NA+10266   8.902   9.013  10.254
 6748ION    NA+10267   8.399   7.985  11.982
 6749ION    NA+10268   8.422   7.997   1.631
 6750ION    NA+10269   5.957   6.651   4.026
 6751ION    NA+10270   4.222   9.484   1.014
 6752ION    NA+10271   0.907   3.249   9.658
 6753ION    NA+10272   1.315   0.558   3.689
 6754ION    NA+10273   4.099   5.539   2.386
 6755ION    NA+10274   8.679   2.734   1.214
 6756ION    NA+10275   6.421   8.444   2.266
 6757ION    NA+10276   7.787   4.841  10.969
 6758ION    NA+10277   4.175   5.270   0.383
 6759ION    NA+10278   0.578   4.880   0.289
 6760ION    NA+10279   1.791   0.054   3.120
 6761ION    NA+10280   3.823   4.959  10.176
 6762ION    NA+10281   9.741   7.899   2.992
 6763ION    NA+10282   5.055   5.846   3.408
 6764ION    NA+10283   3.585   9.597   0.251
 6765ION    NA+10284   0.287   0.417   8.605
 6766ION    NA+10285   8.730   7.937   2.422
 6767ION    NA+10286   3.862   6.297   9.147
 6768ION    NA+10287   4.332   0.395   9.721
 6769ION    NA+10288   8.008   7.870   9.540
 6770ION    NA+10289   2.791   1.872   2.479
 6771ION    NA+10290   3.021   2.704  11.589
 6772ION    NA+10291   7.591   2.570  10.454
 6773ION    NA+10292   2.182   5.740   8.848
 6774ION    NA+10293   5.294   4.574   1.562
 6775ION    NA+10294   6.539   6.957   9.855
 6776ION    CL-10295   8.605   4.713   2.229
 6777ION    CL-10296   0.199   1.219   2.914
 6778ION    CL-10297   5.199   8.837   1.280
 6779ION    CL-10298   6.119   0.536  11.179
 6780ION    CL-10299   4.922   4.638   3.016
 6781ION    CL-10300   6.136   3.880  10.016
 6782ION    CL-10301   1.125   3.634   9.692
 6783ION    CL-10302   2.373   5.354   9.005
 6784ION    CL-10303   3.944   5.858   2.096
 6785ION    CL-10304   1.789   1.843   3.340
 6786ION    CL-10305   6.452   8.557   0.322
 6787ION    CL-10306   4.341   8.431   9.643
 6788ION    CL-10307   4.470   1.569   9.429
 6789ION    CL-10308   2.696   5.308   2.356
 6790ION    CL-10309   0.896   4.662   0.062
 6791ION    CL-10310   7.024   1.023   8.545
 6792ION    CL-10311   7.763   4.142   9.221
 6793ION    CL-10312   4.702   7.707   0.331
 6794ION    CL-10313   2.165   8.519  11.571
 6795ION    CL-10314   4.142   6.654  10.587
 6796ION    CL-10315   2.180   9.126   2.107
 6797ION    CL-10316   7.725   9.192   0.090
 6798ION    CL-10317   9.208   2.693   9.500
 6799ION    CL-10318   5.055   4.277   1.314
 6800ION    CL-10319   1.412   0.012   0.315
 6801ION    CL-10320   8.998   3.057   1.258
 6802ION    CL-10321   3.299   3.659   3.512
 6803ION    CL-10322   5.730   7.351   2.220
 6804ION    CL-10323   3.198   4.907   0.376
 6805ION    CL-10324   0.236   0.539   0.918
 6806ION    CL-10325   6.243   2.426   2.297
 6807ION    CL-10326   4.829   5.011   8.638
 6808ION    CL-10327   9.053   1.240  10.622
 6809ION    CL-10328   7.502   4.314   0.270
 6810ION    CL-10329   7.764   5.149  10.648
 6811ION    CL-10330   5.605   6.693   0.209
 6812ION    CL-10331   0.992   8.697   0.815
 6813ION    CL-10332   0.824   8.352   2.268
 6814ION    CL-10333   6.627   1.489   9.065
 6815ION    CL-10334   1.304   4.534  10.099
 6816ION    CL-10335   0.130   7.731   2.839
 6817ION    CL-10336   4.345   4.668  10.982
 6818ION    CL-10337   4.381   0.065  11.074
 6819ION    CL-10338   3.482   8.675   9.531
 6820ION    CL-10339   3.150   7.283   0.384
 6821ION    CL-10340   2.018   6.021  11.599
 6822ION    CL-10341   2.490   1.553   2.388
 6823ION    CL-10342   5.496   4.932   1.758
 6824ION    CL-10343   8.356   7.957   2.099
 6825ION    CL-10344   7.091   4.116   9.834
 6826ION    CL-10345   9.916   0.665   8.754
 6827ION    CL-10346   5.212   8.623   3.112
 6828ION    CL-10347   5.736   3.232   1.069
 6829ION    CL-10348   6.733   3.393   3.131
 6830ION    CL-10349   7.526   9.936   0.853
 6831ION    CL-10350   8.914   9.312  10.582
 6832ION    CL-10351   8.474   9.225   3.570
 6833ION    CL-10352   3.680   6.694   9.246
 6834ION    CL-10353   0.012   3.760   2.742
 6835ION    CL-10354   6.381   7.814   8.979
 6836ION    CL-10355   4.602   3.343   9.740
 6837ION    CL-10356   4.987   9.028   9.994
 6838ION    CL-10357   5.656   0.241   3.114
 6839ION    CL-10358   5.758   3.613   3.141
 6840ION    CL-10359   5.011   7.608   9.371
 6841ION    CL-10360   9.566   5.670   9.106
 6842ION    CL-10361   9.886   2.644   3.092
 6843ION    CL-10362   2.689   4.690  11.543
 6844ION    CL-10363   7.777   2.554  10.857
 6845ION    CL-10364   1.675   8.568   1.403
 6846ION    CL-10365   9.605   3.712   1.478
  10.00000  10.00000  12.00000
