Protein in INSANE! Membrane UpperLeaflet>POPC=1.0 LowerLeaflet>POPC=1.0
12914
    1AU     AUC    1   0.658   5.243   6.167  0.0942  0.0550  0.0478
    1AU     AUC    2   0.451   5.151   5.875  0.0687  0.0208  0.0033
    1AU     AUC    3   0.793   5.135   5.883  0.0488 -0.0845  0.0674
    1AU     AUC    4   0.463   5.348   6.410  0.0962 -0.0981 -0.0575
    1AU     AUC    5   0.804   5.395   6.376 -0.0227  0.0733  0.0226
    1AU     AUC    6   0.602   5.585   6.212 -0.1082  0.0404  0.0462
    1AU     AUC    7   0.617   5.441   5.889  0.0132  0.0011 -0.0985
    1AU     AUC    8   0.621   5.086   6.405 -0.0378  0.1042 -0.0527
    1AU     AUC    9   0.641   4.932   6.084 -0.0349 -0.0201  0.0796
    1AU     AUC   10   0.890   5.101   6.190  0.0854  0.0452  0.0245
    1AU     AUC   11   0.869   5.437   6.077 -0.0023  0.0307 -0.1423
    1AU     AUC   12   0.361   5.110   6.199  0.0253  0.0046  0.0871
    1AU     AUC   13   0.354   5.396   6.048  0.0072  0.0956 -0.0181
    1AU     AUC   14   0.277   5.065   5.551  0.0068  0.1512 -0.0786
    1AU     AUC   15   0.628   5.005   5.563 -0.0608 -0.0229 -0.0461
    1AU     AUC   16   0.990   5.020   5.617  0.0129  0.0051  0.0288
    1AU     AUC   17   0.276   5.449   6.702  0.0032 -0.0586  0.0920
    1AU     AUC   18   0.664   5.490   6.705 -0.1022 -0.0294 -0.0001
    1AU     AUC   19   0.988   5.528   6.647 -0.0279 -0.0484  0.0139
    1AU     AUC   20   0.573   5.947   6.231  0.0374 -0.0258 -0.0329
    1AU     AUC   21   0.556   5.825   5.896  0.0071  0.0387  0.0329
    1AU     AUC   22   0.616   5.632   5.606  0.0305 -0.0376 -0.0694
    1AU     AUC   23   0.645   4.909   6.683  0.0179 -0.0216 -0.0457
    1AU     AUC   24   0.615   4.712   6.384 -0.0943  0.1264  0.0192
    1AU     AUC   25   0.597   4.587   6.028 -0.0122 -0.0118  0.0186
    1AU     AUC   26   1.206   4.917   6.250  0.0073 -0.0658  0.0779
    1AU     AUC   27   1.209   5.252   6.122  0.0508  0.0814  0.0332
    1AU     AUC   28   1.165   5.593   6.004 -0.0223 -0.0111  0.0656
    1AU     AUC   29   0.083   4.957   6.220 -0.0109  0.0489 -0.0546
    1AU     AUC   30   0.018   5.243   6.135 -0.0428  0.0094  0.0140
    1AU     AUC   31   0.044   5.554   6.023 -0.0639  0.0623  0.1073
    1AU     AUC   32   1.118   4.935   5.963 -0.0256 -0.0401  0.0325
    1AU     AUC   33   1.116   5.311   5.783 -0.0438  0.0501 -0.0112
    1AU     AUC   34   0.126   4.993   5.888 -0.0494 -0.0053  0.0399
    1AU     AUC   35   0.161   5.312   5.757 -0.0429  0.0129  0.0370
    1AU     AUC   36   1.144   5.280   6.429 -0.0343  0.1259  0.0425
    1AU     AUC   37   1.121   5.620   6.298 -0.0016 -0.0421  0.0873
    1AU     AUC   38   0.156   5.212   6.494 -0.0053  0.0809  0.0378
    1AU     AUC   39   0.120   5.496   6.389  0.0642  0.0086 -0.1386
    1AU     AUC   40   0.448   5.305   5.545 -0.0326 -0.0331  0.0254
    1AU     AUC   41   0.792   5.331   5.601  0.0342  0.0342  0.0139
    1AU     AUC   42   0.455   5.719   6.521  0.0108  0.0035 -0.0737
    1AU     AUC   43   0.811   5.762   6.458 -0.0066 -0.0809 -0.0208
    1AU     AUC   44   0.432   4.806   5.772 -0.0421  0.0533 -0.1557
    1AU     AUC   45   0.790   4.777   5.832 -0.0276 -0.0016  0.0329
    1AU     AUC   46   0.483   5.173   6.729  0.0004  0.0539 -0.0201
    1AU     AUC   47   0.863   5.215   6.645 -0.0210  0.0306  0.1184
    1AU     AUC   48   0.867   5.818   6.092  0.0724  0.0227 -0.0234
    1AU     AUC   49   0.891   5.644   5.793  0.0402 -0.0167 -0.0266
    1AU     AUC   50   0.945   4.910   6.491 -0.0062 -0.0012 -0.0071
    1AU     AUC   51   0.897   4.713   6.175 -0.0171 -0.0415 -0.0535
    1AU     AUC   52   0.308   5.713   6.148  0.1175 -0.0191 -0.0051
    1AU     AUC   53   0.294   5.614   5.805 -0.0222 -0.1098  0.0983
    1AU     AUC   54   0.340   4.899   6.487 -0.0838 -0.0159 -0.0987
    1AU     AUC   55   0.320   4.759   6.109  0.0332 -0.0129 -0.0048
    1AU    AUSL   56   1.368   4.980   5.660 -0.0642  0.0072 -0.1062
    1AU    AUSL   57   1.315   4.627   6.024  0.0449 -0.0168 -0.0479
    1AU     AUL   58   1.447   4.640   5.651  0.0360  0.0421  0.0389
    1AU       S   59   1.358   4.230   5.857 -0.1874 -0.0556 -0.6319
    1AU     LIG   60   1.637   4.037   6.116 -0.2292 -0.1523  0.2365
    1AU     LIG   61   1.914   3.667   6.127 -0.0333  0.1715  0.1985
    1AU     LIG   62   2.136   3.238   6.241  0.1028 -0.1341 -0.1240
    1AU     LIG   63   2.559   3.078   6.468  0.3383  0.0554  0.1698
    1AU     LIG   64   2.946   3.229   6.689  0.0829  0.0612 -0.1073
    1AU       S   65   1.830   4.883   5.681 -0.4008  0.0840  0.1889
    1AU     LIG   66   2.153   4.784   5.568  0.0083 -0.2317 -0.1376
    1AU     LIG   67   2.456   4.726   5.720  0.1398 -0.0280 -0.0935
    1AU     LIG   68   2.574   4.257   5.846 -0.2020 -0.2891 -0.0549
    1AU     LIG   69   3.053   4.192   5.928  0.0191  0.0662 -0.0761
    1AU     LIG   70   3.179   3.768   6.059  0.0113  0.3116  0.0757
    1AU    AUSL   71   1.541   4.999   6.072  0.0639  0.0791  0.0339
    1AU    AUSL   72   1.547   5.506   6.171 -0.0094  0.0238 -0.0372
    1AU     AUL   73   1.788   5.272   6.027 -0.0418  0.0424  0.1058
    1AU       S   74   1.792   4.811   5.987  0.1463  0.1640 -0.1967
    1AU     LIG   75   2.235   5.028   6.033  0.0838 -0.4221 -0.3800
    1AU     LIG   76   2.593   5.142   6.110  0.0779  0.0221  0.1377
    1AU     LIG   77   3.063   5.004   6.162  0.0908  0.0707 -0.4509
    1AU     LIG   78   3.447   4.970   6.254  0.1095  0.0909  0.0764
    1AU     LIG   79   3.747   4.637   6.407 -0.2309  0.3030  0.0347
    1AU       S   80   1.837   5.353   6.482 -0.1140 -0.2850  0.0277
    1AU     LIG   81   2.271   5.279   6.471  0.2304 -0.0427  0.2240
    1AU     LIG   82   2.800   5.255   6.559 -0.0956  0.2692 -0.2295
    1AU     LIG   83   3.259   5.302   6.489  0.3947 -0.4450  0.0122
    1AU     LIG   84   3.569   5.424   6.363 -0.1384  0.2268 -0.1808
    1AU     LIG   85   3.852   5.374   6.078  0.1602  0.4872  0.0515
    1AU    AUSL   86   1.259   5.347   5.897 -0.0229 -0.0877  0.0263
    1AU    AUSL   87   1.219   5.318   5.428  0.0017 -0.0680  0.0673
    1AU     AUL   88   1.550   5.271   5.627 -0.0205 -0.0212 -0.0338
    1AU       S   89   1.745   5.732   5.805  0.0226  0.3858 -0.2085
    1AU     LIG   90   1.738   6.192   5.935 -0.1408  0.0272  0.3372
    1AU     LIG   91   1.896   6.509   6.148  0.3854 -0.0403  0.3693
    1AU     LIG   92   2.027   6.785   6.367 -0.4852  0.4463 -0.2928
    1AU     LIG   93   1.952   6.903   6.718  0.3658 -0.2103 -0.1972
    1AU     LIG   94   2.086   7.218   6.980 -0.0581 -0.0492 -0.1111
    1AU       S   95   1.478   5.495   5.200  0.4375  0.2386 -0.4351
    1AU     LIG   96   1.935   5.439   5.386  0.1108  0.2395  0.1191
    1AU     LIG   97   2.315   5.340   5.632 -0.3389  0.2168 -0.0617
    1AU     LIG   98   2.725   5.603   5.817  0.1300 -0.3502 -0.1431
    1AU     LIG   99   2.958   6.008   5.855 -0.0481  0.1290  0.0483
    1AU     LIG  100   3.191   6.365   6.106  0.4784  0.0540  0.1344
    1AU    AUSL  101  -0.019   5.165   5.619  0.0350 -0.0447 -0.1061
    1AU    AUSL  102  -0.014   5.600   5.593  0.0682 -0.0595 -0.0875
    1AU     AUL  103  -0.259   5.351   5.344  0.0452 -0.0445 -0.0222
    1AU       S  104  -0.528   5.367   5.715 -0.3020  0.3332  0.0737
    1AU     LIG  105  -0.892   5.610   5.605  0.1186  0.2740  0.0702
    1AU     LIG  106  -1.250   5.909   5.632  0.2675 -0.0961 -0.2631
    1AU     LIG  107  -1.363   6.311   5.791 -0.3615 -0.3302 -0.0858
    1AU     LIG  108  -1.536   6.695   5.956  0.1450 -0.1361 -0.3827
    1AU     LIG  109  -2.029   6.859   5.957 -0.4221 -0.2625 -0.1392
    1AU       S  110  -0.033   5.731   5.189 -0.1857 -0.0985 -0.0041
    1AU     LIG  111  -0.445   5.829   5.410  0.0333  0.2350 -0.0623
    1AU     LIG  112  -0.776   6.095   5.575 -0.2932 -0.2003  0.1893
    1AU     LIG  113  -1.029   6.396   5.405 -0.1070  0.2417 -0.0855
    1AU     LIG  114  -1.016   6.791   5.549 -0.2095 -0.4353 -0.0086
    1AU     LIG  115  -0.979   6.922   6.013  0.3258  0.3568  0.1528
    1AU    AUSL  116  -0.290   4.963   5.904  0.0012 -0.0260  0.0512
    1AU    AUSL  117   0.014   4.741   5.583  0.0159  0.0222  0.0009
    1AU     AUL  118  -0.271   4.910   5.529  0.0762  0.0007  0.0284
    1AU       S  119  -0.234   4.431   5.595 -0.0636  0.0030 -0.0640
    1AU     LIG  120  -0.448   3.943   5.746  0.3515  0.1255 -0.1192
    1AU     LIG  121  -0.760   3.807   5.685 -0.0107 -0.0881  0.1539
    1AU     LIG  122  -1.137   3.723   5.529 -0.0425 -0.0856  0.1764
    1AU     LIG  123  -1.368   3.659   5.814  0.2291  0.0605  0.2319
    1AU     LIG  124  -1.826   3.538   5.906  0.1496  0.1684 -0.0811
    1AU       S  125  -0.592   5.208   5.731  0.1095 -0.2003 -0.1433
    1AU     LIG  126  -0.920   5.352   6.038 -0.0957 -0.2152  0.0343
    1AU     LIG  127  -1.058   5.698   6.082  0.0919  0.1309 -0.2185
    1AU     LIG  128  -1.123   5.928   6.432 -0.1541  0.4123  0.0337
    1AU     LIG  129  -1.231   5.888   6.881 -0.1262 -0.4015 -0.0697
    1AU     LIG  130  -1.273   5.821   7.326 -0.3172  0.2764  0.1077
    1AU    AUSL  131  -0.135   5.394   5.968 -0.0634 -0.0452 -0.0174
    1AU    AUSL  132  -0.224   5.091   6.302  0.0198 -0.0733  0.1703
    1AU     AUL  133  -0.462   5.123   6.138  0.0228 -0.1130 -0.0559
    1AU       S  134  -0.578   5.273   6.566  0.0716  0.6485 -0.2204
    1AU     LIG  135  -1.068   5.222   6.629  0.3942 -0.1500  0.0988
    1AU     LIG  136  -1.439   5.390   6.772  0.0437 -0.2134  0.2192
    1AU     LIG  137  -1.721   5.676   7.061  0.0605 -0.1672  0.0494
    1AU     LIG  138  -2.126   5.996   6.915  0.3811  0.2821 -0.1287
    1AU     LIG  139  -2.068   6.419   6.736 -0.1867  0.3345  0.0209
    1AU       S  140  -0.414   5.491   5.820  0.0287  0.0348  0.1683
    1AU     LIG  141  -0.524   5.926   5.954 -0.0595 -0.1467  0.1997
    1AU     LIG  142  -0.561   6.011   6.333 -0.0098  0.2610 -0.2894
    1AU     LIG  143  -0.780   6.197   6.602 -0.2258 -0.1280  0.0360
    1AU     LIG  144  -1.085   6.394   6.859  0.1655 -0.0663 -0.1877
    1AU     LIG  145  -1.597   6.366   6.922 -0.2017  0.2734  0.2640
    1AU    AUSL  146   1.385   5.598   6.556 -0.0568  0.0299  0.0088
    1AU    AUSL  147   1.296   5.874   6.173  0.1210  0.0122  0.0457
    1AU     AUL  148   1.625   5.797   6.301  0.0391 -0.0929  0.0946
    1AU       S  149   1.833   5.545   6.584  0.0676 -0.3723 -0.4087
    1AU     LIG  150   2.053   5.852   6.501 -0.2680 -0.2760 -0.3271
    1AU     LIG  151   2.199   6.132   6.245 -0.3626 -0.2748 -0.0131
    1AU     LIG  152   2.491   6.083   5.971  0.4084 -0.3096  0.0331
    1AU     LIG  153   2.673   6.366   5.756  0.0634 -0.4049  0.1340
    1AU     LIG  154   3.056   6.715   5.732  0.0979  0.0636 -0.0441
    1AU       S  155   1.333   6.137   6.440 -0.4589 -0.0043 -0.2435
    1AU     LIG  156   1.769   6.245   6.548  0.2005 -0.3625  0.2943
    1AU     LIG  157   2.146   6.442   6.724 -0.4081  0.1844 -0.2948
    1AU     LIG  158   2.441   6.809   6.635 -0.3065 -0.3223  0.3200
    1AU     LIG  159   2.584   7.142   6.940  0.1425  0.1812  0.0533
    1AU     LIG  160   2.788   7.473   6.976 -0.1520  0.3799 -0.2460
    1AU    AUSL  161   1.294   5.219   6.366  0.0679  0.0092  0.0456
    1AU    AUSL  162   1.302   5.239   6.808 -0.0092 -0.0628 -0.0625
    1AU     AUL  163   1.426   5.483   6.771  0.0243  0.0182  0.0708
    1AU       S  164   1.525   5.070   6.987  0.0873 -0.2919  0.2099
    1AU     LIG  165   1.978   5.062   7.036  0.3757  0.1053  0.3038
    1AU     LIG  166   2.339   4.945   6.888  0.3431  0.0920 -0.0310
    1AU     LIG  167   2.521   4.717   6.450  0.1140 -0.0330  0.4368
    1AU     LIG  168   2.787   4.466   6.289 -0.0410 -0.3145  0.0106
    1AU     LIG  169   3.233   4.514   6.290 -0.0729  0.3072  0.0560
    1AU       S  170   1.707   5.240   6.494  0.1868  0.1098 -0.6039
    1AU     LIG  171   1.989   4.899   6.427 -0.3781 -0.1548  0.1605
    1AU     LIG  172   2.149   4.488   6.239 -0.2632 -0.2557 -0.1750
    1AU     LIG  173   2.402   4.157   6.326 -0.1139  0.1607  0.1526
    1AU     LIG  174   2.735   3.966   6.185  0.1184  0.4538 -0.1198
    1AU     LIG  175   2.793   3.721   5.740 -0.0700 -0.2289  0.1164
    1AU    AUSL  176  -0.111   5.346   6.631 -0.0004 -0.0131 -0.0378
    1AU    AUSL  177   0.105   4.962   6.572 -0.0041 -0.0154 -0.0096
    1AU     AUL  178  -0.263   4.939   6.581 -0.0728  0.0392 -0.0327
    1AU       S  179  -0.494   5.298   6.769 -0.1671  0.1508  0.2158
    1AU     LIG  180  -0.362   5.506   7.140 -0.1843  0.1264  0.3748
    1AU     LIG  181  -0.350   5.787   7.317  0.1268  0.1394 -0.1875
    1AU     LIG  182  -0.325   6.269   7.323  0.3432  0.2120 -0.1774
    1AU     LIG  183  -0.055   6.488   7.570  0.0097  0.0913 -0.1653
    1AU     LIG  184   0.245   6.569   7.910 -0.0815 -0.2919  0.1269
    1AU       S  185  -0.110   4.986   7.012  0.0017  0.3277 -0.1711
    1AU     LIG  186  -0.339   4.558   7.083 -0.3063  0.0642 -0.1131
    1AU     LIG  187  -0.495   4.194   7.073 -0.1537 -0.0878 -0.3424
    1AU     LIG  188  -0.285   3.766   7.138 -0.4553 -0.0422 -0.0578
    1AU     LIG  189  -0.272   3.382   6.922 -0.0656  0.1927  0.0493
    1AU     LIG  190  -0.299   3.154   6.597 -0.2379 -0.0267 -0.2826
    1AU    AUSL  191  -0.327   5.553   6.300  0.0637  0.0179  0.0090
    1AU    AUSL  192   0.041   5.736   6.775  0.0666  0.0128 -0.0819
    1AU     AUL  193  -0.290   5.671   6.637 -0.0161 -0.0322  0.1458
    1AU       S  194  -0.096   5.983   6.963  0.1642 -0.0825  0.1726
    1AU     LIG  195   0.066   6.003   7.400  0.4890 -0.1881 -0.0317
    1AU     LIG  196  -0.295   6.044   7.756 -0.0313 -0.0408  0.0877
    1AU     LIG  197  -0.141   6.075   8.201 -0.0872  0.0937 -0.0528
    1AU     LIG  198   0.083   5.731   8.518  0.0844 -0.5682 -0.0592
    1AU     LIG  199  -0.102   5.301   8.630  0.1073  0.3384  0.2605
    1AU       S  200  -0.640   5.488   6.388 -0.0158  0.1283  0.1484
    1AU     LIG  201  -0.777   5.695   6.699  0.0422 -0.2099  0.1479
    1AU     LIG  202  -0.749   5.963   7.069 -0.4828  0.0636 -0.2676
    1AU     LIG  203  -1.003   6.271   7.369  0.2968  0.1790  0.2049
    1AU     LIG  204  -1.297   6.620   7.316  0.1216  0.0417  0.0921
    1AU     LIG  205  -1.655   6.896   7.233  0.0756 -0.3975 -0.2791
    1AU    AUSL  206   0.651   5.439   5.190  0.0108  0.0314  0.0255
    1AU    AUSL  207   0.188   5.315   5.282  0.0108  0.0090  0.0227
    1AU     AUL  208   0.379   5.418   4.967 -0.0297  0.0479  0.0379
    1AU       S  209   0.106   5.753   5.082  0.0471  0.4315 -0.2679
    1AU     LIG  210  -0.136   6.212   5.183  0.3387  0.0774 -0.1256
    1AU     LIG  211  -0.325   6.382   5.512  0.0657 -0.1616 -0.1707
    1AU     LIG  212  -0.580   6.551   5.818  0.0490  0.3138 -0.6084
    1AU     LIG  213  -0.869   6.444   6.036  0.0290 -0.2128 -0.3179
    1AU     LIG  214  -1.260   6.377   6.360  0.0233  0.1686 -0.0735
    1AU       S  215   0.824   5.212   4.875 -0.1143 -0.0715  0.0470
    1AU     LIG  216   0.946   5.523   4.665  0.1614  0.0301  0.0248
    1AU     LIG  217   1.391   5.755   4.676 -0.0925  0.5449  0.3500
    1AU     LIG  218   1.769   5.740   4.517 -0.0103 -0.0338  0.1524
    1AU     LIG  219   2.186   5.603   4.599 -0.1325  0.3555 -0.1126
    1AU     LIG  220   2.275   5.754   5.008 -0.4108  0.2509  0.1972
    1AU    AUSL  221   0.482   5.000   5.185  0.0210  0.0781 -0.0644
    1AU    AUSL  222   0.802   4.673   5.346 -0.0656  0.0301 -0.0432
    1AU     AUL  223   0.585   4.671   5.062  0.0372  0.0561  0.0060
    1AU       S  224   0.749   5.078   4.893 -0.2361 -0.3633  0.0886
    1AU     LIG  225   1.246   5.160   4.705  0.0503  0.0705  0.1409
    1AU     LIG  226   1.714   5.301   4.841 -0.1165  0.0758  0.4432
    1AU     LIG  227   1.793   5.724   4.981 -0.0725  0.0281  0.0758
    1AU     LIG  228   1.921   5.942   5.264 -0.1590 -0.0598  0.2199
    1AU     LIG  229   2.210   5.830   5.595 -0.2324 -0.2961  0.3942
    1AU       S  230   0.793   4.239   5.193  0.4656  0.0488 -0.0717
    1AU     LIG  231   1.210   4.135   5.300  0.0229  0.6831 -0.0043
    1AU     LIG  232   1.409   3.848   5.541  0.0670  0.0051 -0.2042
    1AU     LIG  233   1.442   3.572   5.949  0.1263  0.2052 -0.1833
    1AU     LIG  234   1.518   3.180   6.121  0.3829  0.1821  0.1407
    1AU     LIG  235   1.848   2.836   6.354 -0.0663 -0.0829  0.0740
    1AU    AUSL  236   0.860   5.101   5.412  0.0259 -0.0707  0.1450
    1AU    AUSL  237   0.888   5.582   5.514  0.0248  0.0139  0.0301
    1AU     AUL  238   1.002   5.452   5.245 -0.0409 -0.0254  0.0225
    1AU       S  239   1.355   5.732   5.163 -0.1232 -0.1832 -0.2895
    1AU     LIG  240   1.442   6.118   5.015 -0.4126  0.1362 -0.0099
    1AU     LIG  241   1.330   6.559   5.034 -0.0791 -0.2947  0.1146
    1AU     LIG  242   1.070   6.804   5.288 -0.1859 -0.0657  0.1237
    1AU     LIG  243   1.077   6.960   5.663 -0.1652 -0.2266 -0.3839
    1AU     LIG  244   1.233   7.253   5.843 -0.5511  0.1186 -0.1378
    1AU       S  245   0.965   5.027   5.103 -0.1688  0.1331 -0.2019
    1AU     LIG  246   1.389   4.934   5.156 -0.3158  0.1892  0.0476
    1AU     LIG  247   1.813   4.936   5.152  0.0464  0.1470  0.0412
    1AU     LIG  248   2.252   5.186   5.137  0.0935  0.3083  0.2562
    1AU     LIG  249   2.681   5.123   5.336  0.0589 -0.4335  0.0711
    1AU     LIG  250   2.894   5.125   5.674 -0.0027 -0.1644 -0.1159
    1AU    AUSL  251   0.638   6.050   6.557  0.0345 -0.0416 -0.0212
    1AU    AUSL  252   1.032   5.811   6.541  0.0526 -0.0397  0.0671
    1AU     AUL  253   0.885   6.226   6.707  0.0286  0.0676 -0.0558
    1AU       S  254   1.334   6.055   6.665  0.0630 -0.3192  0.2153
    1AU     LIG  255   1.575   5.921   6.905  0.0960  0.1943 -0.0094
    1AU     LIG  256   2.071   5.934   6.973 -0.4997 -0.0988  0.0726
    1AU     LIG  257   2.501   5.923   6.673 -0.0523 -0.3960  0.0343
    1AU     LIG  258   2.578   5.607   6.330 -0.0998 -0.0979  0.2037
    1AU     LIG  259   2.270   5.608   6.062 -0.0448  0.0795 -0.0967
    1AU       S  260   0.577   6.394   6.421 -0.2310  0.2607 -0.0277
    1AU     LIG  261   0.488   6.709   6.766 -0.3560 -0.2642  0.2824
    1AU     LIG  262   0.428   7.169   6.549  0.0886  0.1736  0.1638
    1AU     LIG  263   0.547   7.604   6.285  0.2387 -0.1983 -0.4438
    1AU     LIG  264   0.725   8.071   6.159  0.3759 -0.1938  0.0259
    1AU     LIG  265   0.982   8.438   6.035 -0.3893  0.0328 -0.0114
    1AU    AUSL  266   0.453   5.676   6.740 -0.0495  0.0483  0.0054
    1AU    AUSL  267   0.202   6.051   6.507 -0.0416 -0.0653 -0.0273
    1AU     AUL  268   0.323   6.042   6.816 -0.0303  0.1069 -0.0761
    1AU       S  269   0.100   5.621   7.183 -0.1226  0.2361 -0.0095
    1AU     LIG  270   0.361   5.582   7.558  0.0533  0.2582 -0.0715
    1AU     LIG  271   0.381   5.154   7.756 -0.1249 -0.1010 -0.0574
    1AU     LIG  272   0.138   4.720   7.711  0.0078  0.1900  0.1800
    1AU     LIG  273  -0.218   4.642   7.590 -0.0054  0.1379  0.1286
    1AU     LIG  274  -0.203   4.164   7.474  0.0489 -0.1900  0.2207
    1AU       S  275   0.020   6.350   6.615 -0.0970  0.3090  0.0859
    1AU     LIG  276   0.008   6.818   6.602 -0.1243  0.0495  0.1308
    1AU     LIG  277   0.035   7.267   6.847  0.3041  0.0079  0.0416
    1AU     LIG  278  -0.261   7.451   7.019  0.2245  0.0291  0.1426
    1AU     LIG  279  -0.547   7.808   7.094 -0.0650  0.0977  0.0307
    1AU     LIG  280  -0.401   8.222   7.186 -0.0046 -0.0341 -0.1353
    1AU    AUSL  281   0.829   5.798   6.927  0.1108 -0.0047  0.0333
    1AU    AUSL  282   0.540   5.473   7.109 -0.0342 -0.0143  0.0476
    1AU     AUL  283   0.555   5.835   7.145  0.1235  0.0193  0.0228
    1AU       S  284   0.814   5.418   7.310 -0.1904 -0.2582  0.2048
    1AU     LIG  285   0.797   5.849   7.574 -0.0796 -0.3824  0.0520
    1AU     LIG  286   1.086   6.135   7.696  0.0903  0.0875 -0.1524
    1AU     LIG  287   1.176   6.558   7.729 -0.0977  0.0192 -0.3494
    1AU     LIG  288   1.382   6.957   7.797  0.0392  0.1254  0.3515
    1AU     LIG  289   1.617   7.053   8.102  0.1833  0.1096 -0.0155
    1AU       S  290   1.036   5.925   7.059  0.2010  0.5349 -0.0649
    1AU     LIG  291   1.274   6.226   7.165  0.1207 -0.1770 -0.5255
    1AU     LIG  292   1.438   6.507   6.762 -0.1874 -0.0431  0.0617
    1AU     LIG  293   1.455   6.668   6.423 -0.0712  0.0746  0.0678
    1AU     LIG  294   1.360   7.072   6.364  0.1569  0.2026 -0.2121
    1AU     LIG  295   1.560   7.469   6.246 -0.2178 -0.0920  0.1250
    1AU    AUSL  296   0.630   4.440   5.700 -0.0908 -0.0332  0.0853
    1AU    AUSL  297   0.994   4.762   5.727 -0.0276  0.0129  0.0213
    1AU     AUL  298   1.011   4.521   5.469 -0.0265  0.0604 -0.0612
    1AU       S  299   0.646   4.217   5.558 -0.1586 -0.2220 -0.0780
    1AU     LIG  300   0.906   3.861   5.563  0.1988  0.4459 -0.1132
    1AU     LIG  301   0.994   3.349   5.707  0.0364 -0.0820  0.2607
    1AU     LIG  302   0.915   2.995   5.820 -0.1605 -0.0265 -0.5064
    1AU     LIG  303   0.680   2.638   6.084  0.0369  0.0507  0.4383
    1AU     LIG  304   0.565   2.199   6.257 -0.1652  0.0246 -0.1261
    1AU       S  305   1.219   4.221   5.779 -0.2343 -0.2740 -0.3899
    1AU     LIG  306   1.777   4.275   5.599  0.2445 -0.1458 -0.0829
    1AU     LIG  307   2.129   4.086   5.782 -0.2201  0.2576  0.2339
    1AU     LIG  308   2.367   3.739   5.991  0.1921  0.2821 -0.0631
    1AU     LIG  309   2.521   3.279   5.977  0.0828  0.1445 -0.0481
    1AU     LIG  310   2.234   2.901   5.795  0.0250 -0.0891 -0.0766
    1AU    AUSL  311   0.443   4.803   5.571  0.1165  0.0204  0.0608
    1AU    AUSL  312   0.226   4.418   5.808  0.0446 -0.0243 -0.0392
    1AU     AUL  313   0.270   4.543   5.437 -0.0057  0.0146 -0.0160
    1AU       S  314   0.569   4.235   5.278  0.4831 -0.1231 -0.5664
    1AU     LIG  315   0.393   3.783   5.416 -0.1993 -0.1311  0.1892
    1AU     LIG  316   0.419   3.484   5.639  0.0138  0.1960 -0.0539
    1AU     LIG  317   0.452   3.070   5.999  0.0271  0.0198  0.2227
    1AU     LIG  318   0.512   3.229   6.430 -0.3168 -0.2296 -0.0572
    1AU     LIG  319   0.649   3.203   6.921 -0.2006  0.2592 -0.0443
    1AU       S  320  -0.118   4.277   5.621 -0.2456 -0.1244 -0.3610
    1AU     LIG  321   0.049   3.966   5.816 -0.0905  0.1984  0.2161
    1AU     LIG  322   0.117   3.565   6.038  0.0495 -0.0747  0.0773
    1AU     LIG  323  -0.089   3.172   6.154  0.1869  0.0511  0.1711
    1AU     LIG  324   0.180   2.829   6.384 -0.1711  0.1245  0.2994
    1AU     LIG  325   0.522   2.755   6.738  0.0160 -0.2433  0.2205
    1AU    AUSL  326   0.704   5.040   7.022 -0.0053 -0.0171  0.0078
    1AU    AUSL  327   0.239   5.258   6.882  0.0181  0.0436 -0.0058
    1AU     AUL  328   0.378   5.200   7.241  0.0378 -0.0494  0.0169
    1AU       S  329  -0.054   5.113   7.059  0.1708  0.0775  0.4205
    1AU     LIG  330  -0.521   5.092   7.251 -0.1120  0.5228  0.3482
    1AU     LIG  331  -0.842   5.429   7.134 -0.1782  0.2266 -0.2210
    1AU     LIG  332  -1.276   5.293   7.240 -0.2066 -0.1079  0.1790
    1AU     LIG  333  -1.777   5.266   7.316  0.0088 -0.0836  0.4170
    1AU     LIG  334  -2.162   5.285   7.015  0.0483 -0.2718 -0.0732
    1AU       S  335   0.858   5.208   7.379  0.0054  0.0903 -0.1510
    1AU     LIG  336   1.214   5.325   7.695 -0.3555 -0.1432  0.3102
    1AU     LIG  337   1.217   5.680   7.944  0.2253  0.1513 -0.1165
    1AU     LIG  338   1.338   5.739   8.367 -0.3094 -0.5899 -0.0578
    1AU     LIG  339   1.755   5.980   8.532  0.3182 -0.4169 -0.1211
    1AU     LIG  340   2.128   5.881   8.712 -0.0729 -0.4334 -0.1982
    1AU    AUSL  341   0.893   5.389   6.826 -0.0570  0.0660 -0.1674
    1AU    AUSL  342   0.982   4.955   6.694  0.0462 -0.1688 -0.0586
    1AU     AUL  343   1.081   5.048   7.017 -0.0555 -0.0248 -0.0610
    1AU       S  344   1.495   4.824   7.044 -0.0936 -0.1727 -0.2994
    1AU     LIG  345   1.519   4.497   7.266 -0.1680  0.5900  0.1610
    1AU     LIG  346   1.826   4.138   7.142 -0.0257 -0.3073  0.1721
    1AU     LIG  347   1.990   3.742   7.245 -0.1132 -0.2323  0.2026
    1AU     LIG  348   2.254   3.498   7.151 -0.2292  0.2773 -0.1841
    1AU     LIG  349   2.788   3.284   7.177 -0.1126 -0.1297 -0.0939
    1AU       S  350   1.009   5.443   7.230 -0.1884  0.2635 -0.3128
    1AU     LIG  351   1.397   5.483   7.257  0.3254 -0.3137 -0.2030
    1AU     LIG  352   1.831   5.524   7.106  0.0218 -0.1004 -0.2358
    1AU     LIG  353   2.192   5.565   7.387  0.0768  0.2827 -0.1024
    1AU     LIG  354   2.573   5.470   7.731  0.1003  0.2297  0.1108
    1AU     LIG  355   2.795   5.650   8.073  0.2790 -0.0015 -0.1698
    1AU    AUSL  356   0.989   5.891   5.850 -0.0844  0.0139  0.0466
    1AU    AUSL  357   0.909   6.086   6.232 -0.0029  0.1429  0.1288
    1AU     AUL  358   1.253   6.076   5.968  0.0229 -0.0568  0.0064
    1AU       S  359   1.049   6.333   6.308  0.0524 -0.1166  0.1800
    1AU     LIG  360   0.979   6.673   6.587  0.1172 -0.2715 -0.0331
    1AU     LIG  361   0.862   7.058   6.705  0.2933 -0.0036 -0.1261
    1AU     LIG  362   0.694   7.514   6.764  0.2144  0.1762 -0.0759
    1AU     LIG  363   1.082   7.819   6.939 -0.0612 -0.2196  0.3104
    1AU     LIG  364   1.463   7.946   6.834  0.1162  0.1683 -0.3187
    1AU       S  365   1.040   6.378   5.659 -0.3576 -0.2063 -0.1871
    1AU     LIG  366   1.390   6.649   5.933  0.1583  0.1112 -0.1963
    1AU     LIG  367   1.603   6.928   5.964 -0.1187 -0.1629  0.4261
    1AU     LIG  368   1.930   7.267   6.028 -0.0012  0.4892 -0.0763
    1AU     LIG  369   2.293   7.606   6.132  0.2330 -0.1174 -0.3583
    1AU     LIG  370   2.443   7.912   5.950 -0.2666  0.1359  0.0108
    1AU    AUSL  371   0.650   6.201   5.904  0.0301  0.1012  0.0383
    1AU    AUSL  372   0.323   5.992   5.695  0.0477 -0.0007  0.0632
    1AU     AUL  373   0.377   6.313   5.569 -0.1347  0.0396 -0.1064
    1AU       S  374   0.804   6.356   5.841 -0.0335 -0.2489 -0.3991
    1AU     LIG  375   0.828   6.706   6.115 -0.1331 -0.1397  0.2561
    1AU     LIG  376   0.796   7.090   6.226 -0.2425  0.2898 -0.0709
    1AU     LIG  377   1.057   7.471   6.193 -0.0771  0.0357 -0.1617
    1AU     LIG  378   1.039   7.823   6.460  0.1432  0.1005 -0.0233
    1AU     LIG  379   0.718   8.041   6.708 -0.2766  0.3714 -0.3777
    1AU       S  380   0.056   6.320   5.893 -0.0920 -0.1810  0.2066
    1AU     LIG  381  -0.142   6.787   5.801  0.2842  0.2321  0.1223
    1AU     LIG  382  -0.139   7.255   5.735  0.1118  0.4013 -0.2679
    1AU     LIG  383   0.124   7.610   5.930 -0.4543  0.4103  0.3369
    1AU     LIG  384   0.233   7.980   5.743 -0.0221  0.1744  0.1817
    1AU     LIG  385   0.059   8.316   5.561  0.0335 -0.0761  0.1958
    1AU    AUSL  386   0.721   5.975   5.514 -0.0395  0.0951  0.0993
    1AU    AUSL  387   1.316   5.698   5.644 -0.0806 -0.0214 -0.0400
    1AU     AUL  388   1.070   5.940   5.495  0.0195  0.0352  0.0429
    1AU       S  389   1.530   5.728   5.392 -0.2535  0.4495 -0.2305
    1AU     LIG  390   1.513   6.164   5.519 -0.1463 -0.1389 -0.1709
    1AU     LIG  391   1.794   6.544   5.575  0.2016 -0.1810  0.3119
    1AU     LIG  392   2.178   6.782   5.836 -0.1195  0.0555 -0.0595
    1AU     LIG  393   2.359   7.070   6.152 -0.1385 -0.4607  0.4212
    1AU     LIG  394   2.204   7.309   6.512  0.5919  0.0927  0.3675
    1AU       S  395   0.858   6.377   5.486  0.0947  0.0918 -0.0116
    1AU     LIG  396   0.589   6.761   5.567 -0.0040 -0.1105  0.2943
    1AU     LIG  397   0.448   7.210   5.891 -0.2310 -0.3658  0.1488
    1AU     LIG  398   0.682   7.653   5.829  0.2411 -0.1094  0.2400
    1AU     LIG  399   1.005   7.922   5.813  0.1139  0.0903 -0.1321
    1AU     LIG  400   1.218   8.027   5.442  0.2647  0.0100 -0.1329
    1AU    AUSL  401   1.070   4.631   6.401  0.0316 -0.0023 -0.0019
    1AU    AUSL  402   0.880   4.474   6.039 -0.0399  0.0130 -0.0143
    1AU     AUL  403   1.242   4.421   6.293  0.0545 -0.0210  0.0867
    1AU       S  404   1.115   4.149   6.626 -0.1195 -0.3536 -0.0117
    1AU     LIG  405   1.517   4.142   6.696  0.1323 -0.0699  0.3152
    1AU     LIG  406   2.069   4.003   6.658  0.0227 -0.3571 -0.1187
    1AU     LIG  407   2.453   3.709   6.587 -0.1315  0.3022  0.1908
    1AU     LIG  408   2.827   3.533   6.359 -0.2871 -0.1477 -0.0332
    1AU     LIG  409   3.308   3.442   6.373 -0.1178 -0.0743 -0.0989
    1AU       S  410   0.967   4.256   5.932 -0.2831  0.5566 -0.2121
    1AU     LIG  411   1.013   3.893   6.124  0.2691 -0.0029 -0.0938
    1AU     LIG  412   1.261   3.848   6.317  0.0199  0.1519  0.3275
    1AU     LIG  413   1.561   3.556   6.440  0.2669  0.2678 -0.1612
    1AU     LIG  414   1.593   3.267   6.669 -0.0916 -0.2471 -0.0705
    1AU     LIG  415   1.509   2.939   6.990  0.0581 -0.0682 -0.1741
    1AU    AUSL  416   0.804   4.587   6.783  0.0149 -0.0026  0.0526
    1AU    AUSL  417   1.402   4.862   6.556 -0.0674  0.0294 -0.0201
    1AU     AUL  418   1.172   4.592   6.771  0.0499  0.0206  0.0418
    1AU       S  419   0.979   4.196   6.824  0.2252 -0.2658 -0.1320
    1AU     LIG  420   1.183   4.170   7.139 -0.0665  0.1099  0.1214
    1AU     LIG  421   1.383   3.982   7.441  0.1666 -0.5291 -0.0857
    1AU     LIG  422   1.744   3.738   7.646  0.1301 -0.0566 -0.2531
    1AU     LIG  423   2.027   3.456   7.626 -0.1398  0.1672  0.0752
    1AU     LIG  424   2.371   3.123   7.479 -0.0715 -0.0077 -0.0598
    1AU       S  425   1.624   4.837   6.758  0.2005  0.0753  0.3498
    1AU     LIG  426   1.965   4.541   6.791  0.0104 -0.0726 -0.1007
    1AU     LIG  427   2.366   4.438   6.855  0.0048  0.2317  0.0658
    1AU     LIG  428   2.781   4.172   6.711  0.4233 -0.0867 -0.2770
    1AU     LIG  429   3.189   4.058   6.407 -0.0543 -0.2404 -0.2691
    1AU     LIG  430   3.579   3.892   6.616 -0.3235  0.2645  0.1749
    1AU    AUSL  431   0.733   4.337   6.418  0.0111  0.0597  0.0492
    1AU    AUSL  432   0.438   4.656   6.559 -0.0295  0.0214  0.0136
    1AU     AUL  433   0.531   4.390   6.796 -0.0252  0.0644 -0.0097
    1AU       S  434   0.313   4.171   6.471  0.4318 -0.0521  0.5413
    1AU     LIG  435   0.526   3.876   6.767 -0.0560  0.0052  0.1609
    1AU     LIG  436   0.793   3.623   7.154 -0.3205 -0.1979  0.1937
    1AU     LIG  437   0.598   3.683   7.594  0.1013  0.2886 -0.1592
    1AU     LIG  438   0.098   3.669   7.654  0.2600 -0.2816  0.0360
    1AU     LIG  439  -0.117   3.291   7.408 -0.1046 -0.3720 -0.1398
    1AU       S  440   0.872   4.185   6.509  0.3088  0.0146 -0.2437
    1AU     LIG  441   0.898   3.669   6.619  0.1260  0.2762 -0.0160
    1AU     LIG  442   1.122   3.317   6.704  0.0665 -0.1403  0.2440
    1AU     LIG  443   1.006   2.866   6.750  0.0129 -0.1798  0.1610
    1AU     LIG  444   0.967   2.453   6.503  0.3354 -0.3208 -0.1642
    1AU     LIG  445   1.062   2.308   6.076  0.1401  0.0856 -0.1747
    1AU    AUSL  446  -0.026   5.866   5.944 -0.1019 -0.0032 -0.0408
    1AU    AUSL  447   0.403   5.625   5.496  0.0430 -0.0225 -0.0271
    1AU     AUL  448   0.045   5.933   5.579 -0.0610 -0.0094 -0.0097
    1AU       S  449  -0.135   6.252   5.905 -0.3316  0.0718 -0.0948
    1AU     LIG  450  -0.314   6.533   6.275  0.1995  0.0749  0.1132
    1AU     LIG  451  -0.468   6.843   6.197  0.3670 -0.2069  0.1208
    1AU     LIG  452  -0.490   7.197   6.109  0.0901 -0.1322 -0.6362
    1AU     LIG  453  -0.527   7.562   6.059 -0.3277 -0.2483 -0.2088
    1AU     LIG  454  -0.191   7.899   6.152 -0.1771  0.3101 -0.0416
    1AU       S  455   0.311   5.801   5.227 -0.2376  0.0499 -0.2422
    1AU     LIG  456   0.420   6.145   5.072  0.4248 -0.0852 -0.0870
    1AU     LIG  457   0.601   6.633   5.055  0.0817  0.0130 -0.0288
    1AU     LIG  458   0.643   7.127   5.219 -0.1628 -0.1807 -0.1444
    1AU     LIG  459   1.029   7.560   5.468  0.1334 -0.1679  0.1551
    1AU     LIG  460   1.451   7.649   5.659 -0.1575 -0.1088 -0.1340
    1AU    AUSL  461   0.366   5.983   6.123  0.0525  0.1144  0.0023
    1AU    AUSL  462   0.079   5.674   6.322  0.0326  0.1135 -0.0373
    1AU     AUL  463  -0.062   5.982   6.274  0.0305 -0.0348 -0.0509
    1AU       S  464   0.178   6.313   6.052 -0.6867  0.2305  0.0684
    1AU     LIG  465   0.296   6.683   6.131  0.4088 -0.2017 -0.2843
    1AU     LIG  466   0.033   7.090   6.142  0.1170  0.0960  0.3236
    1AU     LIG  467  -0.107   7.377   6.340 -0.1229 -0.0115 -0.2169
    1AU     LIG  468  -0.397   7.607   6.576  0.0017 -0.1155 -0.2228
    1AU     LIG  469  -0.794   7.537   6.759 -0.0221  0.1083 -0.0683
    1AU       S  470  -0.218   6.109   6.726 -0.3659 -0.0941  0.1153
    1AU     LIG  471  -0.448   6.518   6.756 -0.1792  0.1899  0.0176
    1AU     LIG  472  -0.851   6.740   6.528  0.2262 -0.3524  0.0246
    1AU     LIG  473  -1.280   6.943   6.386  0.4146 -0.2502 -0.0254
    1AU     LIG  474  -1.698   7.048   6.220  0.0686 -0.0965  0.2293
    1AU     LIG  475  -2.134   7.102   6.359 -0.1599 -0.0643 -0.1582
    1AU    AUSL  476   0.033   4.572   6.408 -0.0661  0.0874  0.0693
    1AU    AUSL  477   0.327   4.829   6.938 -0.1193 -0.0025 -0.0432
    1AU     AUL  478   0.091   4.583   6.743  0.0876  0.0759  0.0846
    1AU       S  479   0.087   4.835   7.128  0.2776 -0.4615  0.1341
    1AU     LIG  480   0.121   4.460   7.233  0.0263 -0.0543 -0.0800
    1AU     LIG  481   0.089   4.089   7.053  0.0063  0.0711 -0.0631
    1AU     LIG  482   0.250   3.654   7.165  0.1751 -0.0921 -0.1616
    1AU     LIG  483   0.389   3.251   7.409  0.4245 -0.2412  0.1772
    1AU     LIG  484   0.630   2.904   7.518  0.1569  0.1183 -0.1180
    1AU       S  485   0.150   4.189   6.473 -0.0763 -0.1127 -0.4077
    1AU     LIG  486  -0.309   4.239   6.660  0.2869  0.1793  0.2043
    1AU     LIG  487  -0.756   4.310   6.682 -0.0337 -0.4912  0.1646
    1AU     LIG  488  -1.168   4.516   6.727  0.3742 -0.3213 -0.0810
    1AU     LIG  489  -1.702   4.505   6.818  0.2728  0.0669  0.2969
    1AU     LIG  490  -2.066   4.637   6.702  0.1566 -0.0123  0.0211
    1AU    AUSL  491   0.434   4.507   6.163  0.0159  0.0724 -0.0068
    1AU    AUSL  492   0.072   4.782   6.035 -0.0278  0.0293  0.0892
    1AU     AUL  493   0.035   4.414   6.070  0.1331 -0.1345  0.0181
    1AU       S  494   0.381   4.145   6.213  0.2263  0.1438 -0.3257
    1AU     LIG  495   0.552   3.871   5.907 -0.1278 -0.2873 -0.3574
    1AU     LIG  496   0.699   3.540   6.060  0.1005 -0.2337 -0.0121
    1AU     LIG  497   1.007   3.315   6.228 -0.1973  0.4131 -0.2991
    1AU     LIG  498   1.171   2.846   6.219  0.2618 -0.3020 -0.3527
    1AU     LIG  499   1.513   2.487   6.112  0.2520 -0.3599  0.0684
    1AU       S  500  -0.323   4.471   5.810 -0.0593 -0.6074 -0.1076
    1AU     LIG  501  -0.363   4.187   6.138 -0.0085 -0.1173  0.1213
    1AU     LIG  502  -0.147   3.866   6.389  0.0205 -0.1802  0.1744
    1AU     LIG  503   0.145   3.527   6.532 -0.2296  0.3731  0.0481
    1AU     LIG  504   0.152   3.094   6.929 -0.2443 -0.2696  0.0774
    1AU     LIG  505   0.246   2.768   7.180  0.2743  0.0402  0.0387
    2POPC   NC3  506   7.575   1.499   8.432 -0.0222  0.0659 -0.1358
    2POPC   PO4  507   7.507   1.858   8.145  0.2417  0.0553  0.0337
    2POPC   GL1  508   7.308   1.959   7.623  0.1569  0.1102  0.1566
    2POPC   GL2  509   7.133   2.213   7.621 -0.0041 -0.1243  0.0142
    2POPC   C1A  510   7.293   1.564   7.232 -0.3214 -0.0442  0.2696
    2POPC   D2A  511   7.486   1.484   6.921  0.2505  0.0076  0.0456
    2POPC   C3A  512   7.627   1.621   6.558  0.0548 -0.1534 -0.0179
    2POPC   C4A  513   7.749   1.959   6.347 -0.2936 -0.1479  0.1048
    2POPC   C1B  514   7.215   2.583   7.351 -0.0126  0.2877  0.2284
    2POPC   C2B  515   7.105   3.032   7.170 -0.0261  0.0755  0.1439
    2POPC   C3B  516   7.322   3.336   7.278  0.1069  0.1459 -0.0948
    2POPC   C4B  517   7.569   3.703   7.509 -0.1513  0.2692  0.0225
    3POPC   NC3  518   8.037   1.708   8.542  0.1168 -0.0098  0.0656
    3POPC   PO4  519   8.007   1.243   8.352 -0.0468 -0.1465  0.2527
    3POPC   GL1  520   7.970   0.957   7.936  0.1158 -0.0710  0.0082
    3POPC   GL2  521   7.740   0.741   7.803  0.0949 -0.1432  0.1685
    3POPC   C1A  522   8.083   0.853   7.463  0.4556  0.1247  0.3940
    3POPC   D2A  523   7.853   0.587   7.015  0.1645  0.0915  0.1108
    3POPC   C3A  524   8.015   0.700   6.635  0.0551  0.5516  0.2296
    3POPC   C4A  525   7.957   0.764   6.214  0.0710  0.2029  0.0224
    3POPC   C1B  526   7.473   0.655   7.439  0.0959 -0.2374 -0.2988
    3POPC   C2B  527   7.349   0.488   6.991  0.3371 -0.1314 -0.1667
    3POPC   C3B  528   7.162   0.383   6.612  0.2681 -0.2019 -0.0506
    3POPC   C4B  529   6.942   0.152   6.269  0.2744  0.0020 -0.2808
    4POPC   NC3  530   1.461   3.785   9.269  0.0737 -0.1155 -0.0293
    4POPC   PO4  531   1.904   3.890   9.068  0.1196 -0.0138 -0.1669
    4POPC   GL1  532   1.601   4.005   8.674  0.0633  0.2830 -0.2464
    4POPC   GL2  533   1.570   3.738   8.523  0.0111 -0.0276  0.2637
    4POPC   C1A  534   1.541   4.238   8.501  0.1688 -0.2931  0.0493
    4POPC   D2A  535   1.474   4.509   8.238 -0.2103  0.2511  0.4055
    4POPC   C3A  536   1.750   4.866   8.214 -0.1541  0.1637 -0.3118
    4POPC   C4A  537   2.033   5.042   8.319 -0.1907 -0.1117  0.0165
    4POPC   C1B  538   1.226   3.825   8.303 -0.3883  0.0132  0.0721
    4POPC   C2B  539   1.168   4.138   8.055 -0.0192 -0.3870 -0.2983
    4POPC   C3B  540   1.194   4.429   7.793 -0.4753  0.1069  0.0992
    4POPC   C4B  541   1.363   4.816   7.676 -0.0038  0.0089 -0.3231
    5POPC   NC3  542   8.865   5.834   9.079  0.3159  0.2064  0.0269
    5POPC   PO4  543   8.494   6.007   8.833  0.0117 -0.1503 -0.2955
    5POPC   GL1  544   8.461   6.200   8.473 -0.2691 -0.1279 -0.0591
    5POPC   GL2  545   8.289   6.105   8.231 -0.0262 -0.1255  0.2890
    5POPC   C1A  546   8.568   6.495   8.090  0.2187 -0.2730  0.2388
    5POPC   D2A  547   8.855   6.881   7.998  0.1922 -0.1249 -0.0265
    5POPC   C3A  548   8.809   7.021   7.678 -0.3038 -0.2922 -0.0906
    5POPC   C4A  549   8.747   7.355   7.287  0.0313  0.1502  0.3325
    5POPC   C1B  550   8.452   5.768   8.048  0.0870  0.3020  0.3011
    5POPC   C2B  551   8.284   5.560   7.752  0.1131  0.0177  0.1117
    5POPC   C3B  552   8.329   5.242   7.474 -0.1198 -0.0736  0.2137
    5POPC   C4B  553   8.520   4.828   7.300  0.0867  0.2493  0.2322
    6POPC   NC3  554   6.259  10.361   8.141  0.0726  0.0385  0.0097
    6POPC   PO4  555   5.800  10.580   8.268  0.0526  0.0013  0.1411
    6POPC   GL1  556   5.871  10.617   7.858 -0.2286 -0.0428 -0.0800
    6POPC   GL2  557   6.156  10.619   7.670  0.1339 -0.0660  0.1233
    6POPC   C1A  558   5.693  10.510   7.404  0.1113 -0.3480 -0.2223
    6POPC   D2A  559   5.842  10.745   7.094  0.0573 -0.0156  0.2655
    6POPC   C3A  560   6.289  10.809   7.186  0.0716 -0.0188 -0.0470
    6POPC   C4A  561   6.727  10.683   7.322  0.1773  0.0222 -0.0296
    6POPC   C1B  562   6.153  10.342   7.332  0.0642 -0.0139  0.0150
    6POPC   C2B  563   6.019  10.268   6.962 -0.0072 -0.1660  0.1169
    6POPC   C3B  564   6.198  10.495   6.678  0.0384 -0.3247 -0.0485
    6POPC   C4B  565   5.902  10.831   6.417  0.2388 -0.1093  0.0251
    7POPC   NC3  566   5.014   2.071   8.767  0.2804  0.0808 -0.0899
    7POPC   PO4  567   5.119   2.178   8.355 -0.2231 -0.2107  0.2862
    7POPC   GL1  568   5.225   2.229   7.901  0.3369 -0.1744 -0.2882
    7POPC   GL2  569   4.970   2.480   7.768 -0.0898  0.1564  0.2124
    7POPC   C1A  570   5.106   2.121   7.506  0.1002  0.0858 -0.0980
    7POPC   D2A  571   5.072   1.760   7.149  0.2569 -0.0457  0.0712
    7POPC   C3A  572   5.040   1.634   6.746 -0.0629 -0.1300  0.1501
    7POPC   C4A  573   5.146   1.644   6.395 -0.0799 -0.1418  0.0061
    7POPC   C1B  574   4.949   2.703   7.408  0.1759 -0.1422  0.0897
    7POPC   C2B  575   5.179   2.861   7.043  0.0314  0.0853 -0.1011
    7POPC   C3B  576   5.371   2.619   6.737  0.0354  0.0196 -0.0587
    7POPC   C4B  577   5.222   2.712   6.362 -0.1535 -0.0075  0.0426
    8POPC   NC3  578   6.489   7.000   7.680 -0.1114 -0.1776 -0.0474
    8POPC   PO4  579   6.243   6.667   7.604 -0.2308  0.0194 -0.1825
    8POPC   GL1  580   6.229   6.580   7.132  0.2407  0.0044  0.1018
    8POPC   GL2  581   6.412   6.254   7.093  0.0520 -0.0254  0.1502
    8POPC   C1A  582   6.404   6.453   6.607  0.1133  0.2373  0.2244
    8POPC   D2A  583   6.251   6.295   6.168  0.1030 -0.2939 -0.1918
    8POPC   C3A  584   6.116   5.811   6.209 -0.0256 -0.0323 -0.0880
    8POPC   C4A  585   6.041   5.676   5.876  0.1462  0.0780 -0.0984
    8POPC   C1B  586   6.833   6.524   6.898 -0.4281 -0.1471  0.3232
    8POPC   C2B  587   6.852   6.608   6.521  0.1998  0.1616  0.0220
    8POPC   C3B  588   6.736   6.195   6.269  0.2680  0.2724 -0.1534
    8POPC   C4B  589   7.053   5.813   6.108  0.2983 -0.0312 -0.1129
    9POPC   NC3  590   7.109   0.200   8.266 -0.1860  0.3491 -0.2941
    9POPC   PO4  591   7.033  -0.125   8.133  0.3300 -0.1362  0.0133
    9POPC   GL1  592   6.973   0.071   7.754 -0.3045  0.2518 -0.3419
    9POPC   GL2  593   6.666  -0.018   7.779 -0.5471  0.1995  0.0117
    9POPC   C1A  594   7.196   0.190   7.422  0.1411 -0.0826 -0.0222
    9POPC   D2A  595   7.415   0.017   6.984 -0.2459 -0.1016 -0.3930
    9POPC   C3A  596   7.641   0.243   6.631  0.0701  0.2686 -0.0316
    9POPC   C4A  597   7.866   0.306   6.387  0.0066  0.0279  0.0635
    9POPC   C1B  598   6.521   0.327   7.600  0.1938 -0.1211  0.2301
    9POPC   C2B  599   6.402   0.606   7.166  0.5468  0.0149  0.2236
    9POPC   C3B  600   6.435   0.689   6.732  0.1807  0.2407  0.1910
    9POPC   C4B  601   6.741   0.576   6.460  0.2076 -0.2757  0.1228
   10POPC   NC3  602   9.414   3.501   9.063 -0.0305  0.2397  0.2498
   10POPC   PO4  603   9.556   3.195   8.784 -0.1618 -0.1085  0.0041
   10POPC   GL1  604   9.635   3.555   8.444  0.1098  0.0158  0.1099
   10POPC   GL2  605   9.533   3.852   8.393 -0.4251  0.2457  0.0937
   10POPC   C1A  606  10.030   3.688   8.233 -0.1312 -0.1567  0.1482
   10POPC   D2A  607  10.452   3.604   8.080 -0.2586  0.1497 -0.0397
   10POPC   C3A  608  10.462   3.195   7.876 -0.2537  0.0264 -0.1117
   10POPC   C4A  609  10.586   2.856   7.601 -0.5836  0.1045 -0.1157
   10POPC   C1B  610   9.353   3.666   8.008 -0.1138 -0.3867  0.1654
   10POPC   C2B  611   9.600   3.394   7.691  0.1071 -0.0716 -0.1423
   10POPC   C3B  612   9.692   3.300   7.331 -0.0033  0.1183  0.1630
   10POPC   C4B  613   9.999   3.281   7.029  0.2735 -0.1700  0.1842
   11POPC   NC3  614   8.076   4.720   8.847 -0.0664 -0.1285  0.2562
   11POPC   PO4  615   7.647   4.742   8.645  0.0970 -0.0279 -0.1754
   11POPC   GL1  616   7.887   4.736   8.185 -0.1732 -0.0928 -0.0491
   11POPC   GL2  617   8.157   4.753   8.311  0.3826 -0.3356  0.1216
   11POPC   C1A  618   8.086   4.828   7.759  0.0217  0.0009  0.0643
   11POPC   D2A  619   7.908   4.864   7.443  0.0360 -0.0130  0.0069
   11POPC   C3A  620   7.909   5.014   7.100 -0.2564 -0.3111 -0.0646
   11POPC   C4A  621   8.274   4.966   6.739 -0.2013 -0.2583  0.1496
   11POPC   C1B  622   8.413   5.112   8.022 -0.4186  0.0368 -0.0930
   11POPC   C2B  623   8.736   5.333   7.793  0.0048 -0.0791 -0.3936
   11POPC   C3B  624   8.991   5.730   7.559  0.0528  0.1320 -0.1249
   11POPC   C4B  625   9.085   6.151   7.340 -0.0406 -0.1628 -0.3021
   12POPC   NC3  626   5.939   4.208   8.300 -0.0954 -0.0193 -0.0864
   12POPC   PO4  627   5.943   3.764   8.425 -0.1984 -0.5448  0.0539
   12POPC   GL1  628   5.960   3.758   8.000  0.3866  0.1582  0.1805
   12POPC   GL2  629   6.129   4.046   7.882 -0.2005 -0.2143 -0.1150
   12POPC   C1A  630   5.824   3.716   7.520  0.2039  0.1330 -0.0449
   12POPC   D2A  631   5.969   3.766   7.152 -0.0572 -0.1458  0.0406
   12POPC   C3A  632   5.899   4.075   6.799 -0.3786 -0.0562 -0.1289
   12POPC   C4A  633   6.011   4.231   6.451 -0.4061  0.0234 -0.1963
   12POPC   C1B  634   5.847   4.253   7.568  0.0948  0.4823 -0.1475
   12POPC   C2B  635   5.642   4.495   7.184  0.0659 -0.2058 -0.1399
   12POPC   C3B  636   5.493   4.896   7.059  0.2183 -0.1289  0.2090
   12POPC   C4B  637   5.151   5.115   7.125  0.3279  0.0223 -0.0621
   13POPC   NC3  638   0.477   4.160   9.675 -0.0876  0.2228 -0.0419
   13POPC   PO4  639   0.638   4.061   9.367  0.0351  0.0225  0.0277
   13POPC   GL1  640   0.538   4.249   8.892  0.2941 -0.0323  0.0484
   13POPC   GL2  641   0.703   4.579   8.857  0.0480  0.3563 -0.1032
   13POPC   C1A  642   0.269   4.432   8.523  0.0478  0.0820 -0.0462
   13POPC   D2A  643   0.272   4.692   8.198 -0.0117  0.0323  0.1101
   13POPC   C3A  644  -0.048   5.102   7.991 -0.0780 -0.1399  0.0379
   13POPC   C4A  645  -0.050   5.131   7.543 -0.0398 -0.1424 -0.0042
   13POPC   C1B  646   0.626   4.847   8.525  0.0834  0.1350  0.0095
   13POPC   C2B  647   0.406   5.198   8.231  0.1405  0.0264 -0.3093
   13POPC   C3B  648   0.173   5.594   8.051 -0.1816  0.0946 -0.0214
   13POPC   C4B  649  -0.099   5.604   7.692 -0.0671  0.2376  0.2471
   14POPC   NC3  650  10.246   3.619   9.347 -0.1717  0.0033 -0.1915
   14POPC   PO4  651  10.390   3.908   9.060  0.1168  0.1153 -0.3195
   14POPC   GL1  652  10.215   4.187   8.872  0.4003  0.1718  0.3275
   14POPC   GL2  653  10.076   3.972   8.706 -0.0790 -0.2487  0.2412
   14POPC   C1A  654  10.097   4.521   8.631 -0.1169 -0.0312  0.1231
   14POPC   D2A  655  10.123   4.920   8.572  0.1295  0.2084 -0.4879
   14POPC   C3A  656  10.198   5.126   8.175  0.0497 -0.1732  0.1864
   14POPC   C4A  657  10.112   4.992   7.774 -0.1501 -0.2172  0.1644
   14POPC   C1B  658  10.403   4.119   8.361 -0.0214  0.0563 -0.0871
   14POPC   C2B  659  10.252   4.160   7.893  0.0553  0.1663 -0.4881
   14POPC   C3B  660  10.001   4.382   7.630 -0.0607  0.1313  0.1485
   14POPC   C4B  661   9.724   4.433   7.309  0.1626  0.0900 -0.1171
   15POPC   NC3  662   7.477   2.364   8.259  0.3006 -0.2539 -0.3132
   15POPC   PO4  663   7.177   2.558   7.987 -0.1047  0.2819 -0.3733
   15POPC   GL1  664   7.514   2.497   7.720 -0.2644  0.1392 -0.0933
   15POPC   GL2  665   7.721   2.256   7.809  0.0837 -0.0194  0.1036
   15POPC   C1A  666   7.891   2.674   7.554 -0.1530  0.1077 -0.0561
   15POPC   D2A  667   8.164   2.946   7.298 -0.1541  0.1255  0.0032
   15POPC   C3A  668   8.266   3.217   6.992  0.1272  0.0814  0.3465
   15POPC   C4A  669   8.284   3.672   6.868 -0.0831  0.0651 -0.0659
   15POPC   C1B  670   7.823   2.213   7.427  0.0146  0.0728  0.1442
   15POPC   C2B  671   7.611   2.557   7.048 -0.0661  0.1315  0.3185
   15POPC   C3B  672   7.201   2.550   6.817  0.2827 -0.1084 -0.1603
   15POPC   C4B  673   6.800   2.720   6.535  0.0272 -0.0485 -0.2995
   16POPC   NC3  674   0.783   0.032   8.644  0.1747  0.0249  0.0384
   16POPC   PO4  675   0.997   0.264   8.323  0.0736  0.2936  0.0565
   16POPC   GL1  676   0.830   0.477   7.887 -0.0893 -0.0660 -0.0571
   16POPC   GL2  677   0.534   0.365   7.708  0.1093  0.1558 -0.2745
   16POPC   C1A  678   0.835   0.650   7.503 -0.4186  0.1540  0.3407
   16POPC   D2A  679   0.672   0.818   7.183 -0.1280  0.0884  0.2443
   16POPC   C3A  680   0.492   1.203   6.937  0.2327  0.1393  0.0963
   16POPC   C4A  681   0.320   1.327   6.483  0.0069 -0.1762 -0.3194
   16POPC   C1B  682   0.323   0.299   7.297  0.1729 -0.1120  0.0688
   16POPC   C2B  683   0.075   0.553   6.916 -0.1940 -0.2334  0.1408
   16POPC   C3B  684  -0.211   0.486   6.541  0.0853  0.0893  0.1612
   16POPC   C4B  685  -0.074   0.239   6.173 -0.1195 -0.0473 -0.1920
   17POPC   NC3  686   9.239   0.968   8.073 -0.0321 -0.1198 -0.1034
   17POPC   PO4  687   8.999   1.377   8.226 -0.2796  0.1103 -0.0165
   17POPC   GL1  688   9.104   1.556   7.906 -0.0355  0.0282 -0.0010
   17POPC   GL2  689   8.998   1.915   7.837 -0.2339  0.2893  0.3237
   17POPC   C1A  690   9.340   1.533   7.537  0.0462  0.2417  0.0619
   17POPC   D2A  691   9.416   1.530   7.059 -0.1335  0.1605  0.4427
   17POPC   C3A  692   9.771   1.282   6.773 -0.1688  0.0573  0.2615
   17POPC   C4A  693  10.033   1.233   6.422  0.3032 -0.4123  0.1769
   17POPC   C1B  694   8.886   2.097   7.470 -0.2102  0.1798 -0.2314
   17POPC   C2B  695   8.702   2.122   7.131 -0.1591 -0.1211 -0.0756
   17POPC   C3B  696   8.405   2.031   6.749 -0.0880  0.0897 -0.1726
   17POPC   C4B  697   8.164   1.725   6.564  0.0235  0.1894 -0.0800
   18POPC   NC3  698  10.668   0.126   7.928  0.1730  0.0713  0.1381
   18POPC   PO4  699  10.811   0.417   8.126 -0.1270  0.3026 -0.0936
   18POPC   GL1  700  10.957   0.775   7.876  0.1551 -0.0184 -0.2605
   18POPC   GL2  701  11.206   0.963   7.844 -0.0455  0.0650 -0.0413
   18POPC   C1A  702  10.893   0.911   7.427 -0.1266  0.1961  0.1017
   18POPC   D2A  703  10.703   1.038   7.147  0.2746 -0.0896  0.0364
   18POPC   C3A  704  10.674   1.385   6.857  0.0482 -0.2741 -0.0596
   18POPC   C4A  705  10.889   1.834   6.896  0.0560  0.1503  0.0701
   18POPC   C1B  706  11.340   1.229   7.476  0.0076  0.2595  0.0771
   18POPC   C2B  707  11.338   1.524   7.288 -0.1956 -0.1558  0.0322
   18POPC   C3B  708  11.363   1.672   6.813 -0.2020  0.0425  0.1544
   18POPC   C4B  709  11.428   2.113   6.771  0.1299  0.1404 -0.0558
   19POPC   NC3  710   3.837   7.450   8.060  0.0943 -0.0220  0.0489
   19POPC   PO4  711   3.529   7.821   8.090 -0.0397  0.0334 -0.0655
   19POPC   GL1  712   3.670   7.942   7.626  0.1093 -0.1634 -0.2629
   19POPC   GL2  713   3.798   7.683   7.428  0.2353  0.3622 -0.1016
   19POPC   C1A  714   3.582   8.158   7.214 -0.0199  0.3513 -0.0653
   19POPC   D2A  715   3.340   8.062   6.837  0.1453  0.1246  0.0854
   19POPC   C3A  716   3.119   8.369   6.572  0.1429 -0.0610 -0.4211
   19POPC   C4A  717   2.726   8.420   6.589 -0.0064  0.3283 -0.2782
   19POPC   C1B  718   3.920   7.578   7.029 -0.1881 -0.0997  0.0635
   19POPC   C2B  719   4.266   7.834   6.726  0.1501 -0.1730  0.0033
   19POPC   C3B  720   4.475   7.829   6.283  0.1363 -0.0283 -0.0507
   19POPC   C4B  721   4.854   7.643   5.947  0.0705 -0.2775 -0.0015
   20POPC   NC3  722   6.087   5.077   8.238  0.0005 -0.0121 -0.2149
   20POPC   PO4  723   6.051   5.502   8.232 -0.0173  0.4443  0.0335
   20POPC   GL1  724   6.291   5.432   7.803  0.3211  0.2479  0.1313
   20POPC   GL2  725   6.475   5.722   7.708 -0.1674  0.1446 -0.0440
   20POPC   C1A  726   6.396   5.306   7.369 -0.0588 -0.0036  0.0525
   20POPC   D2A  727   6.581   4.971   7.127 -0.2080  0.3681 -0.2669
   20POPC   C3A  728   6.440   4.983   6.767  0.1888  0.0565  0.1497
   20POPC   C4A  729   6.403   5.221   6.413  0.0363  0.2027 -0.3567
   20POPC   C1B  730   6.384   5.831   7.283 -0.1235  0.1940  0.3015
   20POPC   C2B  731   6.579   5.560   6.995 -0.0089  0.3041 -0.1830
   20POPC   C3B  732   6.712   5.601   6.428  0.1784 -0.2305 -0.1073
   20POPC   C4B  733   6.546   5.633   6.041 -0.2564  0.1803 -0.3623
   21POPC   NC3  734   8.759   9.103   8.100  0.1541 -0.1422 -0.1889
   21POPC   PO4  735   9.139   9.262   7.840 -0.3068 -0.0370 -0.1544
   21POPC   GL1  736   9.459   9.199   7.494  0.2203  0.0456 -0.0930
   21POPC   GL2  737   9.789   9.250   7.608 -0.0190 -0.1444 -0.2900
   21POPC   C1A  738   9.575   8.887   7.136  0.0718  0.0257  0.0000
   21POPC   D2A  739   9.607   8.767   6.793  0.1455  0.3942 -0.2751
   21POPC   C3A  740   9.322   8.611   6.476  0.0770 -0.4350  0.1269
   21POPC   C4A  741   9.501   8.237   6.415  0.5086 -0.0568  0.4351
   21POPC   C1B  742  10.035   9.318   7.275  0.0317  0.4130 -0.0131
   21POPC   C2B  743   9.952   9.166   6.880  0.1319  0.4534  0.1170
   21POPC   C3B  744   9.992   9.254   6.464 -0.0526  0.0212  0.1055
   21POPC   C4B  745  10.144   9.607   6.308 -0.0076 -0.1944 -0.0965
   22POPC   NC3  746  10.544   7.269   9.358 -0.0798  0.0420 -0.1545
   22POPC   PO4  747  11.028   7.026   9.407  0.1322 -0.3217  0.0149
   22POPC   GL1  748  11.135   7.033   8.970 -0.4126  0.1385 -0.3133
   22POPC   GL2  749  10.995   6.739   8.792 -0.0581  0.2650 -0.0035
   22POPC   C1A  750  11.256   7.078   8.594  0.1209  0.1416  0.1224
   22POPC   D2A  751  11.437   7.355   8.327 -0.2382  0.0090 -0.0101
   22POPC   C3A  752  11.619   7.416   7.959  0.1493 -0.1307  0.2442
   22POPC   C4A  753  11.795   7.730   7.623  0.1577 -0.0722 -0.1247
   22POPC   C1B  754  10.967   6.361   8.354 -0.0407 -0.1156 -0.2816
   22POPC   C2B  755  10.996   6.087   8.051  0.3495 -0.0615  0.0226
   22POPC   C3B  756  11.238   6.176   7.790  0.0398 -0.0634 -0.0033
   22POPC   C4B  757  11.473   6.325   7.346 -0.2932 -0.2084  0.2016
   23POPC   NC3  758   8.319   0.041   8.404 -0.1775  0.1660  0.1214
   23POPC   PO4  759   8.131  -0.352   8.342 -0.1089 -0.1853  0.1693
   23POPC   GL1  760   8.091  -0.242   7.968  0.1088  0.0679 -0.1501
   23POPC   GL2  761   7.893  -0.356   7.826  0.0824  0.0380  0.3003
   23POPC   C1A  762   8.364  -0.150   7.596 -0.3304  0.0956 -0.2560
   23POPC   D2A  763   8.379   0.103   7.157 -0.0696  0.1445 -0.2183
   23POPC   C3A  764   8.656  -0.039   6.861 -0.0495  0.3267 -0.0068
   23POPC   C4A  765   8.937  -0.162   6.403 -0.2996  0.2915 -0.2074
   23POPC   C1B  766   7.767  -0.367   7.414 -0.4070  0.1758  0.1299
   23POPC   C2B  767   7.703  -0.510   6.954  0.0412  0.2740 -0.3711
   23POPC   C3B  768   7.486  -0.334   6.578 -0.1490 -0.2391  0.1623
   23POPC   C4B  769   7.086  -0.286   6.322  0.0415  0.1104  0.2018
   24POPC   NC3  770   0.214   0.829   8.385  0.1549 -0.0779 -0.1078
   24POPC   PO4  771   0.557   1.080   8.422 -0.0448 -0.2562 -0.0919
   24POPC   GL1  772   0.615   1.396   8.051 -0.0169  0.0835  0.0191
   24POPC   GL2  773   0.898   1.309   7.902  0.1098  0.3621  0.0630
   24POPC   C1A  774   0.352   1.528   7.738  0.0008  0.0287 -0.1918
   24POPC   D2A  775  -0.051   1.542   7.736 -0.1469 -0.0814  0.2345
   24POPC   C3A  776  -0.132   1.938   7.786 -0.0547  0.4029  0.1033
   24POPC   C4A  777  -0.028   2.437   7.882 -0.1568 -0.1575 -0.1644
   24POPC   C1B  778   0.924   1.783   8.030 -0.0470 -0.0972 -0.1669
   24POPC   C2B  779   0.845   2.263   7.941  0.1099 -0.0052  0.0859
   24POPC   C3B  780   0.897   2.495   7.583  0.2323  0.1274  0.2696
   24POPC   C4B  781   0.745   2.567   7.185 -0.2690  0.0614  0.0475
   25POPC   NC3  782   3.128   1.468   7.842  0.0765  0.1011  0.0199
   25POPC   PO4  783   3.498   1.238   7.786  0.2512 -0.1638 -0.0853
   25POPC   GL1  784   3.680   1.412   7.376 -0.3499 -0.3819  0.1338
   25POPC   GL2  785   3.575   1.189   7.109  0.2981 -0.2919 -0.2975
   25POPC   C1A  786   3.816   1.803   7.068  0.0341 -0.2494 -0.2620
   25POPC   D2A  787   3.598   2.065   6.652  0.0736  0.1779  0.0133
   25POPC   C3A  788   3.833   2.415   6.428  0.0322  0.1272 -0.2588
   25POPC   C4A  789   4.337   2.532   6.295 -0.1206 -0.1835  0.0087
   25POPC   C1B  790   3.784   1.025   6.655  0.1579  0.3008 -0.0693
   25POPC   C2B  791   4.011   0.873   6.334  0.2235 -0.0433 -0.0583
   25POPC   C3B  792   4.199   0.512   6.299  0.0228 -0.0710  0.2381
   25POPC   C4B  793   4.254   0.083   6.400  0.0443  0.0653  0.1125
   26POPC   NC3  794   1.387   8.448   8.488 -0.2395  0.3061  0.0210
   26POPC   PO4  795   1.612   8.482   8.129  0.1561 -0.3555  0.0633
   26POPC   GL1  796   1.426   8.749   7.710  0.1507  0.1312 -0.0849
   26POPC   GL2  797   1.105   8.882   7.624 -0.0704  0.0965 -0.1118
   26POPC   C1A  798   1.594   8.708   7.335 -0.0855  0.1615  0.2252
   26POPC   D2A  799   1.567   8.666   6.902 -0.3944 -0.2129  0.4111
   26POPC   C3A  800   1.957   8.394   6.578 -0.0976  0.2639  0.0368
   26POPC   C4A  801   1.985   8.175   6.181 -0.2760 -0.3207 -0.0724
   26POPC   C1B  802   1.137   8.913   7.130 -0.0066 -0.1880 -0.2077
   26POPC   C2B  803   0.917   9.111   6.771  0.0743  0.1605  0.0648
   26POPC   C3B  804   1.218   9.305   6.394  0.1756  0.1737  0.0657
   26POPC   C4B  805   1.601   9.248   6.118 -0.0118  0.1351  0.0791
   27POPC   NC3  806   2.257   8.667   8.796  0.3399 -0.1765  0.0686
   27POPC   PO4  807   1.950   8.318   8.601  0.2613 -0.3470 -0.2234
   27POPC   GL1  808   2.084   7.893   8.251 -0.2036  0.0972 -0.3047
   27POPC   GL2  809   2.275   7.934   8.074  0.1840 -0.1002 -0.2234
   27POPC   C1A  810   1.884   7.624   7.998 -0.3480  0.3193 -0.1405
   27POPC   D2A  811   1.388   7.574   8.057  0.1941 -0.0329 -0.1393
   27POPC   C3A  812   1.454   7.422   7.667  0.1200 -0.3140 -0.3376
   27POPC   C4A  813   1.633   7.219   7.392 -0.2438 -0.1436 -0.5157
   27POPC   C1B  814   2.179   7.805   7.621 -0.0414  0.0020  0.4121
   27POPC   C2B  815   1.927   7.645   7.254 -0.0607  0.1592  0.1382
   27POPC   C3B  816   1.720   7.500   6.809  0.2540 -0.1079 -0.0764
   27POPC   C4B  817   1.217   7.446   6.685  0.4481  0.1158 -0.4382
   28POPC   NC3  818   3.518  10.485   8.042 -0.0008 -0.4272  0.1569
   28POPC   PO4  819   3.780  10.901   8.061 -0.0906 -0.3556 -0.0988
   28POPC   GL1  820   3.914  11.020   7.687 -0.1111 -0.3299 -0.3708
   28POPC   GL2  821   3.669  11.185   7.391  0.3194 -0.2201  0.3292
   28POPC   C1A  822   4.001  10.834   7.281  0.1369  0.5751  0.0284
   28POPC   D2A  823   4.318  10.704   6.982  0.1075 -0.3166 -0.3205
   28POPC   C3A  824   4.628  10.962   6.891 -0.4300  0.1146  0.0405
   28POPC   C4A  825   4.930  11.120   7.141  0.1515  0.3826 -0.1571
   28POPC   C1B  826   3.548  11.214   6.945  0.0958  0.2192  0.1072
   28POPC   C2B  827   3.235  10.961   6.588  0.0645 -0.2598 -0.1824
   28POPC   C3B  828   3.252  10.804   6.157 -0.1521 -0.1938 -0.0089
   28POPC   C4B  829   3.509  10.794   5.721  0.1051 -0.0687  0.0800
   29POPC   NC3  830   3.735   6.978   8.542 -0.1370  0.2668  0.1110
   29POPC   PO4  831   3.390   6.703   8.440  0.0419  0.0829  0.2747
   29POPC   GL1  832   3.259   6.572   8.135  0.4197 -0.0610 -0.0260
   29POPC   GL2  833   3.332   6.529   7.858  0.0095  0.2442 -0.1909
   29POPC   C1A  834   2.829   6.672   7.832  0.0240  0.0744  0.1851
   29POPC   D2A  835   2.643   6.909   7.430 -0.0615  0.0095 -0.0354
   29POPC   C3A  836   2.281   6.683   7.164 -0.1825 -0.1334 -0.1501
   29POPC   C4A  837   2.472   6.149   7.121 -0.2312  0.2062  0.1088
   29POPC   C1B  838   3.197   6.636   7.495  0.0640 -0.1991  0.1313
   29POPC   C2B  839   2.856   6.565   7.181 -0.0487 -0.2128 -0.0789
   29POPC   C3B  840   2.722   6.395   6.770  0.2172 -0.0502  0.0173
   29POPC   C4B  841   2.832   6.112   6.382  0.2421  0.2404 -0.2766
   30POPC   NC3  842   3.494   6.029   8.718 -0.0510  0.2487 -0.0642
   30POPC   PO4  843   3.453   5.712   8.420  0.0336 -0.0207 -0.1577
   30POPC   GL1  844   3.292   5.704   7.974  0.2621 -0.0442  0.0374
   30POPC   GL2  845   3.294   6.034   7.752 -0.2518  0.2888  0.2334
   30POPC   C1A  846   3.507   5.552   7.633  0.0346  0.2354 -0.0658
   30POPC   D2A  847   3.804   5.232   7.577  0.1730 -0.0328  0.4121
   30POPC   C3A  848   3.772   4.955   7.248  0.1350  0.1539  0.0517
   30POPC   C4A  849   3.659   4.708   7.082 -0.2516 -0.0382 -0.1368
   30POPC   C1B  850   3.175   5.965   7.346  0.0473 -0.0008  0.2220
   30POPC   C2B  851   3.153   6.202   6.931 -0.0751  0.0790  0.0548
   30POPC   C3B  852   3.091   6.594   6.580 -0.0235 -0.1549  0.1165
   30POPC   C4B  853   2.777   6.590   6.215  0.3234 -0.2017  0.1500
   31POPC   NC3  854   1.118  10.117   7.817  0.3681  0.2105  0.1382
   31POPC   PO4  855   1.224  10.496   7.490  0.1196  0.0102 -0.0814
   31POPC   GL1  856   1.279  10.200   7.276  0.0087 -0.0436  0.1048
   31POPC   GL2  857   1.639   9.998   7.313 -0.2465  0.1178  0.0857
   31POPC   C1A  858   1.077  10.222   6.866 -0.2358 -0.1828 -0.0608
   31POPC   D2A  859   0.758  10.184   6.483  0.0657  0.0818 -0.1809
   31POPC   C3A  860   0.306  10.050   6.361 -0.1943  0.1740 -0.0277
   31POPC   C4A  861  -0.087   9.997   6.117  0.2205  0.1703  0.0389
   31POPC   C1B  862   1.898  10.097   6.977  0.2067  0.0082 -0.1019
   31POPC   C2B  863   2.108  10.044   6.624 -0.1439 -0.1079 -0.1487
   31POPC   C3B  864   2.377  10.223   6.353  0.1832  0.2644 -0.1368
   31POPC   C4B  865   2.806  10.499   6.546 -0.1711 -0.1498 -0.2634
   32POPC   NC3  866   4.619  10.666   8.273  0.0318  0.0289 -0.0618
   32POPC   PO4  867   4.425  10.464   7.922 -0.1596 -0.2738  0.0717
   32POPC   GL1  868   4.499  10.297   7.556  0.0917  0.0763 -0.1008
   32POPC   GL2  869   4.381  10.285   7.372 -0.0900 -0.1214 -0.1510
   32POPC   C1A  870   4.860  10.431   7.193  0.0138 -0.2294  0.0935
   32POPC   D2A  871   5.279  10.564   7.093 -0.3159  0.2427 -0.0007
   32POPC   C3A  872   5.583  10.485   6.769 -0.0172 -0.0262  0.0807
   32POPC   C4A  873   5.747  10.044   6.586  0.2054  0.4228 -0.1869
   32POPC   C1B  874   4.512  10.195   6.899 -0.1676  0.3171 -0.0272
   32POPC   C2B  875   4.335  10.013   6.480  0.1495 -0.2593 -0.3673
   32POPC   C3B  876   4.089   9.568   6.411 -0.0560  0.3360  0.0424
   32POPC   C4B  877   3.692   9.365   6.467  0.1651 -0.2634  0.2484
   33POPC   NC3  878   3.456   2.022   8.013 -0.2358  0.0253 -0.1124
   33POPC   PO4  879   3.179   2.177   8.265  0.0844 -0.3103  0.1455
   33POPC   GL1  880   3.075   2.409   7.908  0.2273  0.2951 -0.0963
   33POPC   GL2  881   3.042   2.308   7.570 -0.0054  0.2240 -0.1560
   33POPC   C1A  882   2.777   2.750   7.757  0.3058  0.2116 -0.0704
   33POPC   D2A  883   2.413   2.628   7.498  0.3089  0.1712 -0.2019
   33POPC   C3A  884   2.679   2.337   7.155 -0.0865 -0.0529  0.3939
   33POPC   C4A  885   2.822   2.264   6.638 -0.3983  0.4029 -0.0263
   33POPC   C1B  886   3.210   2.411   7.101  0.1498  0.0333 -0.0270
   33POPC   C2B  887   3.320   2.508   6.685  0.0001  0.1916 -0.0079
   33POPC   C3B  888   3.369   2.372   6.308 -0.3306 -0.0501  0.2244
   33POPC   C4B  889   3.633   2.067   6.111 -0.2122 -0.0739  0.3398
   34POPC   NC3  890   7.891   8.832   8.118  0.2638  0.2564 -0.0536
   34POPC   PO4  891   8.252   9.062   7.944  0.4438  0.0047  0.2122
   34POPC   GL1  892   8.229   9.161   7.472  0.2208 -0.1304 -0.1603
   34POPC   GL2  893   8.453   9.097   7.173  0.1620 -0.0236  0.0443
   34POPC   C1A  894   7.925   8.995   7.147  0.0349  0.1844 -0.0212
   34POPC   D2A  895   7.645   9.166   6.954  0.2757  0.0591  0.2094
   34POPC   C3A  896   7.499   8.829   6.666 -0.1142  0.0852  0.0833
   34POPC   C4A  897   7.448   8.580   6.221 -0.1848 -0.0913 -0.0171
   34POPC   C1B  898   8.449   8.922   6.848  0.0655 -0.0069  0.0157
   34POPC   C2B  899   8.755   8.649   6.670  0.0858 -0.0443  0.3251
   34POPC   C3B  900   8.958   8.219   6.640 -0.2583  0.1207  0.0816
   34POPC   C4B  901   9.121   7.980   6.295  0.0278 -0.1310  0.2792
   35POPC   NC3  902   1.127   5.920   9.436  0.0472 -0.0094 -0.2139
   35POPC   PO4  903   0.885   5.541   9.383 -0.1803  0.2402  0.0676
   35POPC   GL1  904   1.133   5.456   8.978 -0.0285  0.3515  0.0146
   35POPC   GL2  905   1.252   5.782   8.875 -0.1174 -0.2542 -0.0893
   35POPC   C1A  906   1.459   5.215   8.611  0.1237  0.2234 -0.0596
   35POPC   D2A  907   1.410   5.274   8.153  0.0970  0.1075 -0.0829
   35POPC   C3A  908   1.740   5.138   7.838 -0.2595  0.1535  0.2913
   35POPC   C4A  909   1.767   5.106   7.458  0.4333 -0.0307 -0.0258
   35POPC   C1B  910   1.701   5.592   8.851  0.2171 -0.1531  0.0644
   35POPC   C2B  911   1.886   5.510   8.415 -0.1341  0.0447  0.0970
   35POPC   C3B  912   2.233   5.610   8.130  0.0742  0.0005  0.0164
   35POPC   C4B  913   2.157   5.919   7.796 -0.0464  0.1869  0.1301
   36POPC   NC3  914   3.646   3.237   8.678  0.0682 -0.1046  0.1067
   36POPC   PO4  915   3.794   3.704   8.469  0.3100 -0.0977 -0.2227
   36POPC   GL1  916   3.638   3.725   7.977 -0.0008 -0.1086  0.1452
   36POPC   GL2  917   3.386   3.467   7.996  0.0920 -0.0734  0.3203
   36POPC   C1A  918   3.644   3.728   7.526 -0.0034  0.1132  0.1630
   36POPC   D2A  919   3.797   3.772   7.077 -0.3306 -0.2167  0.0382
   36POPC   C3A  920   4.020   3.889   6.886  0.2608 -0.0508 -0.0947
   36POPC   C4A  921   4.277   3.800   6.534  0.2942  0.0006 -0.0767
   36POPC   C1B  922   3.173   3.729   7.691  0.3407  0.2207  0.2238
   36POPC   C2B  923   3.097   4.159   7.581  0.4915  0.0463 -0.1819
   36POPC   C3B  924   2.772   4.318   7.272  0.1287 -0.0787 -0.0759
   36POPC   C4B  925   2.587   4.672   7.252  0.2968  0.1590 -0.2219
   37POPC   NC3  926   7.833   9.379   8.046  0.1519 -0.0155  0.2797
   37POPC   PO4  927   7.358   9.124   7.875  0.1444  0.0385  0.0453
   37POPC   GL1  928   7.282   8.944   7.433 -0.1249 -0.0021  0.3685
   37POPC   GL2  929   7.224   9.248   7.296 -0.2536  0.0922  0.1365
   37POPC   C1A  930   7.449   8.552   7.250  0.0841 -0.0598  0.0096
   37POPC   D2A  931   7.651   8.369   6.854  0.3892  0.1811 -0.0697
   37POPC   C3A  932   7.687   8.166   6.465  0.1670  0.1419 -0.1154
   37POPC   C4A  933   7.449   8.150   6.061 -0.2503  0.0483 -0.1265
   37POPC   C1B  934   7.162   9.389   6.870  0.1525 -0.2568  0.0525
   37POPC   C2B  935   7.359   9.401   6.565 -0.0964 -0.1018  0.0172
   37POPC   C3B  936   7.662   9.484   6.317 -0.0936  0.0150  0.1947
   37POPC   C4B  937   7.838   9.840   5.977  0.0553 -0.1509  0.0015
   38POPC   NC3  938   1.621   3.455   8.922 -0.0244 -0.0584 -0.1348
   38POPC   PO4  939   1.797   3.176   8.690 -0.1480  0.1947  0.0486
   38POPC   GL1  940   1.700   3.170   8.302  0.1622 -0.2727 -0.3812
   38POPC   GL2  941   1.933   3.118   8.054  0.1164 -0.0730  0.2242
   38POPC   C1A  942   1.460   3.430   8.099  0.0333 -0.2608 -0.3998
   38POPC   D2A  943   1.205   3.702   7.822  0.1245  0.0641 -0.2541
   38POPC   C3A  944   1.178   3.553   7.453 -0.0444  0.2115 -0.2339
   38POPC   C4A  945   1.073   3.133   7.226  0.0408 -0.1830  0.1016
   38POPC   C1B  946   1.906   3.614   8.142 -0.0411 -0.0323  0.0780
   38POPC   C2B  947   1.706   3.990   8.102 -0.1867 -0.1106  0.0651
   38POPC   C3B  948   1.713   4.330   7.790 -0.1336 -0.1676 -0.0279
   38POPC   C4B  949   2.004   4.689   7.808  0.1167  0.1481  0.0182
   39POPC   NC3  950   2.974   8.484   8.029  0.1835  0.3406 -0.3670
   39POPC   PO4  951   2.685   8.198   8.151 -0.1668 -0.1411  0.0613
   39POPC   GL1  952   2.744   8.005   7.787 -0.1569 -0.2351  0.1303
   39POPC   GL2  953   3.154   7.905   7.769  0.1611  0.1735  0.0190
   39POPC   C1A  954   2.741   7.771   7.440  0.0527  0.5943  0.0391
   39POPC   D2A  955   3.197   7.679   7.287  0.1029 -0.0318  0.2421
   39POPC   C3A  956   3.397   7.487   6.896  0.3955 -0.0203 -0.4236
   39POPC   C4A  957   3.447   7.635   6.464 -0.0370 -0.2840  0.2719
   39POPC   C1B  958   3.061   8.197   7.373  0.3364 -0.0294  0.3107
   39POPC   C2B  959   2.872   8.218   7.036 -0.0625 -0.0824  0.0944
   39POPC   C3B  960   2.700   7.962   6.864 -0.1206  0.3725  0.0858
   39POPC   C4B  961   2.379   8.027   6.517 -0.1378  0.1463 -0.0077
   40POPC   NC3  962   7.298   3.848   8.433  0.1187  0.1686 -0.2108
   40POPC   PO4  963   7.048   4.235   8.209 -0.1989 -0.0963  0.1776
   40POPC   GL1  964   6.831   4.080   7.801  0.0951 -0.0108 -0.2315
   40POPC   GL2  965   6.682   3.782   7.909 -0.1136  0.0301 -0.1236
   40POPC   C1A  966   7.034   3.878   7.381 -0.0766  0.1301 -0.4053
   40POPC   D2A  967   7.381   3.801   7.089 -0.2697 -0.1735 -0.1245
   40POPC   C3A  968   7.410   3.570   6.707  0.0107 -0.0490 -0.2786
   40POPC   C4A  969   7.185   3.462   6.314  0.4896  0.2577 -0.3687
   40POPC   C1B  970   6.481   3.853   7.517  0.1291 -0.0373  0.0287
   40POPC   C2B  971   6.278   4.131   7.371  0.0044  0.4368 -0.0179
   40POPC   C3B  972   6.133   4.461   7.086 -0.4943  0.2370  0.0310
   40POPC   C4B  973   5.851   4.659   6.746 -0.2714  0.0262 -0.2790
   41POPC   NC3  974   2.183   2.085   8.009 -0.0373 -0.0529  0.2573
   41POPC   PO4  975   2.462   1.746   7.899  0.1004 -0.2227 -0.2450
   41POPC   GL1  976   2.294   1.573   7.457  0.2932 -0.2469 -0.2505
   41POPC   GL2  977   2.251   1.204   7.450 -0.0019  0.3270 -0.0667
   41POPC   C1A  978   2.390   1.554   7.030 -0.3198  0.1847  0.2433
   41POPC   D2A  979   2.430   1.368   6.680 -0.0703 -0.1149  0.1622
   41POPC   C3A  980   2.249   1.492   6.315  0.1444 -0.2332  0.0377
   41POPC   C4A  981   2.326   1.746   5.907 -0.0744  0.2307  0.2527
   41POPC   C1B  982   2.123   1.115   7.010 -0.1108 -0.0219 -0.0712
   41POPC   C2B  983   1.943   1.489   6.714 -0.2662  0.3347 -0.1307
   41POPC   C3B  984   2.001   1.894   6.516 -0.1076  0.0975 -0.0148
   41POPC   C4B  985   1.946   2.367   6.367 -0.0539  0.0771  0.1483
   42POPC   NC3  986   7.585  10.317   8.255 -0.1021  0.3419 -0.1437
   42POPC   PO4  987   7.587  10.745   8.031  0.1925  0.1754 -0.1181
   42POPC   GL1  988   7.383  10.426   7.745 -0.0676  0.0540  0.1312
   42POPC   GL2  989   7.394  10.012   7.856  0.2923  0.3114 -0.2172
   42POPC   C1A  990   7.150  10.319   7.358  0.1236  0.1758  0.1478
   42POPC   D2A  991   7.070  10.321   6.925 -0.3295 -0.3898  0.3233
   42POPC   C3A  992   6.949  10.629   6.728  0.2224 -0.0058 -0.2544
   42POPC   C4A  993   6.703  10.922   6.839  0.3222  0.0406 -0.1231
   42POPC   C1B  994   7.460   9.931   7.441  0.2791  0.0826  0.0017
   42POPC   C2B  995   7.902   9.817   7.294 -0.1486  0.0769 -0.0282
   42POPC   C3B  996   8.162   9.506   7.083  0.1313 -0.2917 -0.1790
   42POPC   C4B  997   8.435   9.448   6.808  0.1122 -0.0243  0.1845
   43POPC   NC3  998  10.575   5.822   9.483  0.2097  0.4186 -0.2099
   43POPC   PO4  999  10.203   5.878   9.259  0.2356  0.3251  0.2045
   43POPC   GL1 1000  10.053   5.876   8.942 -0.1608  0.0736  0.0290
   43POPC   GL2 1001   9.724   5.719   9.108  0.3772 -0.0097  0.2168
   43POPC   C1A 1002  10.192   5.630   8.644  0.0510 -0.2385 -0.0292
   43POPC   D2A 1003  10.369   5.592   8.248 -0.0278  0.1470 -0.1215
   43POPC   C3A 1004  10.157   5.533   7.887 -0.0588 -0.3711  0.1073
   43POPC   C4A 1005  10.082   5.429   7.563  0.2712  0.0010 -0.0514
   43POPC   C1B 1006   9.759   5.487   8.713  0.3685 -0.0141 -0.1983
   43POPC   C2B 1007   9.605   5.608   8.263  0.1812 -0.0801  0.2222
   43POPC   C3B 1008   9.660   5.679   7.836 -0.0099  0.2874  0.3295
   43POPC   C4B 1009   9.971   5.939   7.611  0.4163  0.1633 -0.0472
   44POPC   NC3 1010   8.839   7.877   8.125  0.1980  0.0180  0.1539
   44POPC   PO4 1011   8.575   7.716   8.464  0.1068  0.0652  0.0974
   44POPC   GL1 1012   8.619   7.457   7.992 -0.1722  0.2477  0.1379
   44POPC   GL2 1013   8.583   7.701   7.690 -0.1652 -0.1434 -0.0702
   44POPC   C1A 1014   8.330   7.284   7.607  0.2689  0.0934  0.2994
   44POPC   D2A 1015   8.328   6.850   7.427  0.1430 -0.1643 -0.2708
   44POPC   C3A 1016   8.426   6.903   7.062  0.1366  0.0772 -0.0507
   44POPC   C4A 1017   8.819   6.930   6.781  0.0302  0.0197  0.2096
   44POPC   C1B 1018   8.868   7.806   7.431 -0.1777 -0.0019  0.6343
   44POPC   C2B 1019   8.781   7.818   6.956 -0.4076 -0.0017 -0.0101
   44POPC   C3B 1020   8.611   7.888   6.495  0.3138  0.2206  0.4050
   44POPC   C4B 1021   8.409   8.091   6.248 -0.0069  0.1386  0.1268
   45POPC   NC3 1022  10.001   8.233   8.493 -0.2669 -0.0658 -0.0872
   45POPC   PO4 1023  10.034   8.611   8.030 -0.0903 -0.1907 -0.0411
   45POPC   GL1 1024  10.081   8.621   7.596  0.0965 -0.3208  0.3306
   45POPC   GL2 1025  10.330   8.806   7.620 -0.2451  0.0007 -0.0167
   45POPC   C1A 1026  10.096   8.716   7.139 -0.0491 -0.2685  0.0350
   45POPC   D2A 1027  10.022   8.410   6.763 -0.0195  0.1028 -0.1618
   45POPC   C3A 1028  10.003   8.071   6.532 -0.0612  0.1315  0.0235
   45POPC   C4A 1029   9.760   7.772   6.296 -0.0873 -0.1294  0.1368
   45POPC   C1B 1030  10.594   8.664   7.452 -0.0941  0.3744 -0.0553
   45POPC   C2B 1031  10.544   8.722   7.021  0.1432 -0.0893  0.1584
   45POPC   C3B 1032  10.336   8.866   6.644  0.1846 -0.1962 -0.0048
   45POPC   C4B 1033   9.954   8.733   6.387  0.0500 -0.3367  0.1837
   46POPC   NC3 1034   6.103   2.947   7.962 -0.1395 -0.0003  0.0530
   46POPC   PO4 1035   5.771   2.778   7.831 -0.0191 -0.1391  0.2279
   46POPC   GL1 1036   5.949   2.856   7.426  0.1751  0.3197 -0.1376
   46POPC   GL2 1037   5.973   2.601   7.382  0.0728 -0.2671  0.1377
   46POPC   C1A 1038   6.206   2.873   7.108 -0.1488  0.2044  0.0844
   46POPC   D2A 1039   6.563   3.256   7.092  0.0884 -0.0162 -0.1300
   46POPC   C3A 1040   6.438   3.738   7.051  0.1398 -0.1081  0.3043
   46POPC   C4A 1041   6.425   4.094   6.871  0.0852  0.0910 -0.2118
   46POPC   C1B 1042   5.782   2.544   7.004  0.2189  0.0330  0.1427
   46POPC   C2B 1043   5.882   2.614   6.601  0.2037 -0.0803  0.2501
   46POPC   C3B 1044   6.060   2.583   6.183 -0.1844  0.0099 -0.2265
   46POPC   C4B 1045   6.501   2.670   6.173 -0.0224 -0.0435 -0.3590
   47POPC   NC3 1046   8.499   7.231   8.538  0.2010  0.1242  0.0972
   47POPC   PO4 1047   8.936   7.208   8.450  0.0482 -0.1088 -0.1017
   47POPC   GL1 1048   9.140   7.313   8.080 -0.1445 -0.2317 -0.0197
   47POPC   GL2 1049   9.316   7.022   8.188  0.0369 -0.1186  0.0879
   47POPC   C1A 1050   9.163   7.332   7.545  0.1761 -0.4550 -0.0677
   47POPC   D2A 1051   9.215   7.502   7.231 -0.0447  0.0199 -0.1182
   47POPC   C3A 1052   9.314   7.199   6.931 -0.0646 -0.1140 -0.0098
   47POPC   C4A 1053   9.331   6.807   6.847  0.2140  0.2372  0.1292
   47POPC   C1B 1054   9.316   6.902   7.824  0.0510  0.3208 -0.1741
   47POPC   C2B 1055   9.807   6.786   7.589 -0.0709 -0.1967  0.0970
   47POPC   C3B 1056  10.146   6.540   7.843 -0.0814 -0.0956 -0.0970
   47POPC   C4B 1057  10.517   6.610   8.131 -0.0074  0.1000 -0.1325
   48POPC   NC3 1058   0.833   7.043   9.378 -0.0396 -0.0908  0.0218
   48POPC   PO4 1059   1.134   6.893   9.425 -0.0753 -0.0077 -0.1023
   48POPC   GL1 1060   0.869   6.707   9.001 -0.1780  0.0848 -0.3644
   48POPC   GL2 1061   0.650   6.444   8.947  0.0224 -0.1810 -0.0148
   48POPC   C1A 1062   0.802   6.665   8.545 -0.0411  0.3298 -0.1072
   48POPC   D2A 1063   0.736   6.494   8.132 -0.1391  0.0803 -0.0308
   48POPC   C3A 1064   0.723   6.733   7.750 -0.0125 -0.1937 -0.0248
   48POPC   C4A 1065   0.939   7.078   7.528  0.0562  0.1299 -0.1806
   48POPC   C1B 1066   0.275   6.213   8.898 -0.0792 -0.0409  0.2484
   48POPC   C2B 1067  -0.153   6.188   8.714 -0.0797 -0.0610 -0.0891
   48POPC   C3B 1068  -0.538   6.243   8.546 -0.1994  0.0647  0.3713
   48POPC   C4B 1069  -0.788   6.000   8.331 -0.0163  0.2644 -0.0222
   49POPC   NC3 1070   5.683   6.739   7.946  0.1229  0.0015 -0.1296
   49POPC   PO4 1071   5.235   6.672   7.865  0.1589 -0.1657 -0.1646
   49POPC   GL1 1072   5.232   6.657   7.476 -0.1484  0.0322  0.0240
   49POPC   GL2 1073   5.707   6.736   7.462 -0.0679  0.0268  0.2818
   49POPC   C1A 1074   5.404   6.241   7.191  0.2380 -0.1685 -0.0259
   49POPC   D2A 1075   5.597   5.914   6.951  0.1850 -0.2498 -0.2805
   49POPC   C3A 1076   5.980   6.122   6.865  0.0890 -0.0189  0.2204
   49POPC   C4A 1077   6.369   5.939   6.700 -0.1402 -0.0718  0.2145
   49POPC   C1B 1078   5.725   6.571   7.060  0.1181 -0.2707 -0.2131
   49POPC   C2B 1079   5.957   6.722   6.746  0.2195  0.2446  0.3774
   49POPC   C3B 1080   5.976   6.719   6.250 -0.0864  0.2148 -0.0148
   49POPC   C4B 1081   6.108   6.787   5.821 -0.1480 -0.0531  0.2877
   50POPC   NC3 1082   1.183   0.114   7.850 -0.2833  0.3823  0.2639
   50POPC   PO4 1083   0.861  -0.044   7.840 -0.0936 -0.3107 -0.1402
   50POPC   GL1 1084   0.890   0.161   7.433  0.1714  0.0750  0.3173
   50POPC   GL2 1085   0.854  -0.143   7.162  0.3420 -0.2211  0.1539
   50POPC   C1A 1086   0.804   0.323   7.034 -0.2065 -0.0606 -0.2590
   50POPC   D2A 1087   0.544   0.586   6.698 -0.0935  0.2222  0.1369
   50POPC   C3A 1088   0.682   0.972   6.476  0.1606  0.3703  0.0681
   50POPC   C4A 1089   0.728   1.381   6.176 -0.1778  0.0185  0.0118
   50POPC   C1B 1090   0.688  -0.102   6.761  0.3393 -0.1535  0.0409
   50POPC   C2B 1091   0.452  -0.133   6.296 -0.1958  0.1145  0.0055
   50POPC   C3B 1092   0.503  -0.205   5.765  0.2234  0.1935  0.0871
   50POPC   C4B 1093   0.611  -0.328   5.319 -0.0260 -0.1748  0.1610
   51POPC   NC3 1094   0.196   7.909   8.727 -0.2217 -0.0302 -0.1257
   51POPC   PO4 1095   0.151   7.500   9.031 -0.2398  0.2137 -0.0281
   51POPC   GL1 1096   0.152   7.339   8.654  0.0308 -0.1808  0.1113
   51POPC   GL2 1097   0.145   7.505   8.416  0.0041 -0.2958  0.0552
   51POPC   C1A 1098   0.092   6.985   8.334 -0.0506 -0.0222  0.0028
   51POPC   D2A 1099  -0.005   6.989   7.893  0.0247 -0.0086 -0.0862
   51POPC   C3A 1100  -0.461   7.000   7.861  0.0586  0.0764 -0.0070
   51POPC   C4A 1101  -0.834   7.033   8.053 -0.2021 -0.1740 -0.1274
   51POPC   C1B 1102   0.356   7.481   8.059 -0.0938  0.2274 -0.2331
   51POPC   C2B 1103   0.391   7.237   7.668 -0.0632  0.4152  0.0774
   51POPC   C3B 1104   0.352   6.800   7.417 -0.0134  0.2762  0.2303
   51POPC   C4B 1105   0.318   6.364   7.170 -0.0122 -0.0956  0.3902
   52POPC   NC3 1106   2.922   6.823   8.623 -0.2735 -0.3373  0.1138
   52POPC   PO4 1107   3.093   6.421   8.743  0.3405  0.4103 -0.0703
   52POPC   GL1 1108   2.758   6.351   8.577  0.0851 -0.0000 -0.2692
   52POPC   GL2 1109   2.806   6.466   8.272  0.1698  0.4391 -0.1589
   52POPC   C1A 1110   2.613   5.963   8.459 -0.0748 -0.2070  0.1031
   52POPC   D2A 1111   2.660   5.590   8.679  0.2230  0.1170 -0.0531
   52POPC   C3A 1112   2.257   5.327   8.713 -0.0161 -0.4876  0.3073
   52POPC   C4A 1113   1.919   5.140   8.812 -0.1589 -0.2497  0.0071
   52POPC   C1B 1114   2.819   6.199   7.926  0.1861 -0.2166  0.1113
   52POPC   C2B 1115   2.711   5.968   7.574 -0.0017  0.0521  0.1543
   52POPC   C3B 1116   2.623   5.687   7.168  0.1452  0.3982  0.0228
   52POPC   C4B 1117   2.318   5.461   6.898 -0.0865  0.1371  0.0618
   53POPC   NC3 1118   5.060   1.315   8.210  0.0464 -0.1700 -0.2625
   53POPC   PO4 1119   4.722   1.399   8.000 -0.0226  0.1820 -0.1436
   53POPC   GL1 1120   4.755   1.320   7.575  0.1000 -0.0277  0.1352
   53POPC   GL2 1121   4.952   1.352   7.344 -0.0395  0.2884 -0.0060
   53POPC   C1A 1122   4.535   1.526   7.085  0.0537 -0.1063  0.3385
   53POPC   D2A 1123   4.445   1.608   6.727 -0.0130 -0.2764  0.3061
   53POPC   C3A 1124   4.660   1.863   6.407  0.0461  0.0804  0.2355
   53POPC   C4A 1125   4.914   2.080   6.129  0.0769 -0.0908 -0.2024
   53POPC   C1B 1126   5.085   1.188   6.916 -0.0341 -0.3962  0.1902
   53POPC   C2B 1127   5.153   1.151   6.491  0.2351  0.0785  0.0495
   53POPC   C3B 1128   4.914   1.250   6.124 -0.1707 -0.0315 -0.1041
   53POPC   C4B 1129   4.580   1.257   5.685  0.0119 -0.1592 -0.1655
   54POPC   NC3 1130   0.644   1.939   8.899  0.0823 -0.2018  0.0481
   54POPC   PO4 1131   0.293   1.955   8.724  0.1352  0.1475  0.0996
   54POPC   GL1 1132   0.521   2.100   8.376 -0.1332  0.0285  0.0821
   54POPC   GL2 1133   0.489   2.419   8.302 -0.0064  0.0413  0.1529
   54POPC   C1A 1134   0.344   2.017   7.961 -0.2433  0.0138  0.0373
   54POPC   D2A 1135   0.652   1.939   7.545  0.0183  0.0129  0.0408
   54POPC   C3A 1136   0.946   2.127   7.183 -0.0609 -0.0276 -0.0607
   54POPC   C4A 1137   1.231   2.521   7.056 -0.1504  0.1998  0.0835
   54POPC   C1B 1138   0.430   2.552   7.894 -0.1137 -0.0959 -0.0124
   54POPC   C2B 1139   0.319   2.379   7.503 -0.1086  0.1922  0.1362
   54POPC   C3B 1140   0.202   1.917   7.370 -0.0356 -0.2545  0.1265
   54POPC   C4B 1141   0.120   1.498   7.288 -0.1502 -0.1033 -0.1523
   55POPC   NC3 1142   8.656   8.880   7.676  0.0338  0.1783 -0.0059
   55POPC   PO4 1143   8.859   8.521   7.862 -0.2290 -0.1087  0.1289
   55POPC   GL1 1144   9.135   8.262   7.616 -0.1706 -0.1401 -0.1494
   55POPC   GL2 1145   8.928   8.368   7.342  0.0453  0.1172 -0.2160
   55POPC   C1A 1146   9.273   8.026   7.291 -0.2992  0.1485  0.1622
   55POPC   D2A 1147   9.238   7.810   6.891 -0.0134 -0.0707 -0.1640
   55POPC   C3A 1148   9.396   7.529   6.589 -0.1538 -0.2762 -0.1789
   55POPC   C4A 1149   9.730   7.308   6.354 -0.0452  0.0157 -0.2628
   55POPC   C1B 1150   8.490   8.181   7.178 -0.2469 -0.0582 -0.1270
   55POPC   C2B 1151   8.435   8.266   6.756 -0.0862 -0.0081  0.0624
   55POPC   C3B 1152   8.089   8.399   6.523 -0.0514  0.1505 -0.2014
   55POPC   C4B 1153   8.411   8.708   6.295 -0.1101 -0.0015  0.2194
   56POPC   NC3 1154   1.274   0.646   8.492  0.0055  0.0322  0.0384
   56POPC   PO4 1155   1.335   0.608   8.050  0.2012  0.0945  0.3147
   56POPC   GL1 1156   1.395   0.692   7.717  0.3574 -0.1625  0.0241
   56POPC   GL2 1157   1.306   0.491   7.507  0.3714  0.0188  0.0912
   56POPC   C1A 1158   1.195   1.024   7.510  0.0817  0.0934 -0.0762
   56POPC   D2A 1159   1.025   1.186   7.153 -0.0963 -0.2531  0.1820
   56POPC   C3A 1160   1.040   1.248   6.744  0.2217 -0.0647 -0.1000
   56POPC   C4A 1161   1.108   1.052   6.271  0.0501  0.2078 -0.0069
   56POPC   C1B 1162   1.261   0.745   7.111 -0.1105 -0.1295 -0.2166
   56POPC   C2B 1163   1.062   0.731   6.749  0.5129 -0.1154 -0.0693
   56POPC   C3B 1164   0.946   0.594   6.344 -0.2516 -0.0374 -0.0816
   56POPC   C4B 1165   0.695   0.704   6.050 -0.3616 -0.3865  0.0468
   57POPC   NC3 1166   7.895   7.872   8.457  0.2906  0.3430  0.4563
   57POPC   PO4 1167   7.581   7.623   8.142  0.2802 -0.1667 -0.1721
   57POPC   GL1 1168   7.413   7.781   7.713 -0.3386  0.0199  0.0490
   57POPC   GL2 1169   7.439   8.142   7.681 -0.0139 -0.0067  0.1284
   57POPC   C1A 1170   7.315   7.619   7.300  0.1667 -0.0368 -0.1210
   57POPC   D2A 1171   7.446   7.251   7.129  0.1001  0.1690 -0.0647
   57POPC   C3A 1172   7.613   7.157   6.746  0.0813 -0.1345  0.0576
   57POPC   C4A 1173   7.717   7.115   6.339 -0.2313  0.1257 -0.0154
   57POPC   C1B 1174   7.664   7.977   7.341  0.3791 -0.5294  0.2865
   57POPC   C2B 1175   7.952   7.984   7.083  0.0071 -0.0367 -0.0205
   57POPC   C3B 1176   8.102   7.916   6.710  0.1279  0.2150 -0.1757
   57POPC   C4B 1177   8.052   7.628   6.421 -0.2411 -0.0700  0.0895
   58POPC   NC3 1178   0.728   9.213   7.577 -0.2758 -0.1489 -0.1853
   58POPC   PO4 1179   0.575   8.894   7.734  0.0599  0.0154  0.0099
   58POPC   GL1 1180   0.599   8.682   7.373 -0.0162  0.0894 -0.1701
   58POPC   GL2 1181   0.311   8.401   7.378  0.0154 -0.0283  0.1146
   58POPC   C1A 1182   0.742   8.527   6.992 -0.3433 -0.3901  0.0244
   58POPC   D2A 1183   0.834   8.634   6.534 -0.3460  0.0989  0.0871
   58POPC   C3A 1184   1.211   8.791   6.465  0.2789  0.3315  0.1337
   58POPC   C4A 1185   1.663   8.849   6.418  0.1604 -0.2002 -0.0202
   58POPC   C1B 1186   0.073   8.308   6.994  0.0106  0.0532 -0.0531
   58POPC   C2B 1187  -0.131   8.460   6.625 -0.5341  0.4321 -0.0461
   58POPC   C3B 1188  -0.396   8.429   6.300  0.2928  0.1415 -0.0336
   58POPC   C4B 1189  -0.839   8.286   6.109 -0.2422 -0.1011 -0.0181
   59POPC   NC3 1190   3.286   0.713   8.115 -0.0776 -0.2239 -0.0342
   59POPC   PO4 1191   3.708   0.724   7.937  0.2186 -0.0060  0.1076
   59POPC   GL1 1192   3.885   0.890   7.543 -0.1271  0.3455 -0.0971
   59POPC   GL2 1193   4.189   1.156   7.413 -0.1441 -0.0823 -0.2299
   59POPC   C1A 1194   3.896   0.843   7.146  0.0076 -0.0110 -0.0401
   59POPC   D2A 1195   4.242   0.976   6.812  0.0390  0.3559  0.0446
   59POPC   C3A 1196   4.521   0.669   6.665 -0.3060 -0.1319 -0.0530
   59POPC   C4A 1197   4.908   0.725   6.753  0.0472  0.2039 -0.1039
   59POPC   C1B 1198   4.095   1.350   7.045 -0.2101 -0.3536  0.0552
   59POPC   C2B 1199   3.851   1.545   6.672  0.2242  0.2195 -0.0077
   59POPC   C3B 1200   3.732   1.460   6.338  0.2161 -0.0690  0.3783
   59POPC   C4B 1201   3.604   1.146   6.139 -0.1661  0.0127 -0.1742
   60POPC   NC3 1202   6.543   1.679   8.522 -0.0241 -0.1708 -0.2884
   60POPC   PO4 1203   6.497   1.535   8.054 -0.2473  0.1078 -0.1539
   60POPC   GL1 1204   6.657   1.400   7.623  0.2408 -0.0537  0.1856
   60POPC   GL2 1205   6.813   1.091   7.528 -0.3505 -0.1593  0.0454
   60POPC   C1A 1206   6.772   1.416   7.167 -0.2565 -0.0547  0.1867
   60POPC   D2A 1207   6.550   1.189   6.903 -0.2817  0.1303 -0.1334
   60POPC   C3A 1208   6.560   1.226   6.432 -0.0315 -0.1437 -0.5671
   60POPC   C4A 1209   6.541   1.341   6.083  0.2221 -0.1027 -0.1619
   60POPC   C1B 1210   7.185   1.026   7.277  0.4194 -0.1318  0.4177
   60POPC   C2B 1211   7.477   0.992   6.879  0.1824 -0.1566 -0.1095
   60POPC   C3B 1212   7.415   0.796   6.557 -0.2519  0.0905  0.0033
   60POPC   C4B 1213   7.317   0.556   6.164  0.3304 -0.1001  0.3980
   61POPC   NC3 1214   2.647   1.336   7.641 -0.1794  0.2375 -0.1350
   61POPC   PO4 1215   2.930   1.032   7.841 -0.1512 -0.2178 -0.0715
   61POPC   GL1 1216   2.798   0.839   7.415 -0.0342  0.0304  0.5350
   61POPC   GL2 1217   2.667   1.115   7.149  0.0812  0.1122  0.0412
   61POPC   C1A 1218   3.035   0.794   7.102 -0.0361  0.1722 -0.3901
   61POPC   D2A 1219   2.982   0.736   6.640  0.1051 -0.0710  0.1643
   61POPC   C3A 1220   2.691   0.958   6.417 -0.2176  0.2275 -0.0473
   61POPC   C4A 1221   2.273   0.988   6.201  0.0017 -0.0513 -0.0400
   61POPC   C1B 1222   2.938   1.238   6.853 -0.0803  0.1049 -0.2583
   61POPC   C2B 1223   2.875   1.465   6.429 -0.0325 -0.1415  0.2435
   61POPC   C3B 1224   3.115   1.946   6.365  0.0738 -0.1866  0.0756
   61POPC   C4B 1225   2.898   2.293   6.131 -0.2046 -0.0662 -0.0682
   62POPC   NC3 1226   9.576   9.526   7.908 -0.4839  0.1319 -0.0915
   62POPC   PO4 1227   9.947   9.682   7.871 -0.1110  0.0243 -0.0486
   62POPC   GL1 1228   9.888   9.831   7.474  0.0398  0.0919 -0.1102
   62POPC   GL2 1229   9.592   9.669   7.401  0.1416 -0.2696 -0.2171
   62POPC   C1A 1230   9.844  10.024   7.070  0.0871  0.0274 -0.2378
   62POPC   D2A 1231   9.839   9.936   6.672  0.2890 -0.1356 -0.0340
   62POPC   C3A 1232   9.684  10.097   6.361  0.1126  0.1186  0.1195
   62POPC   C4A 1233   9.352   9.981   6.073 -0.1023  0.4433  0.2056
   62POPC   C1B 1234   9.592   9.559   6.985 -0.2853  0.2451 -0.2522
   62POPC   C2B 1235   9.435   9.251   6.807 -0.0089 -0.1792 -0.3091
   62POPC   C3B 1236   9.165   9.107   6.469 -0.1741 -0.1005 -0.4135
   62POPC   C4B 1237   8.760   9.204   6.392 -0.0800  0.3755  0.1977
   63POPC   NC3 1238   4.084  10.000   7.686 -0.3381  0.1642 -0.0053
   63POPC   PO4 1239   3.755   9.639   7.685 -0.1007  0.0174  0.0618
   63POPC   GL1 1240   3.910   9.629   7.365 -0.1338  0.0131 -0.0720
   63POPC   GL2 1241   3.585   9.635   7.236  0.3498 -0.1749 -0.1070
   63POPC   C1A 1242   4.052   9.425   6.979  0.1806  0.2334 -0.0682
   63POPC   D2A 1243   4.217   9.074   6.628  0.1339  0.3212 -0.1048
   63POPC   C3A 1244   4.516   9.276   6.304 -0.4217 -0.0196  0.1527
   63POPC   C4A 1245   4.568   9.731   6.199 -0.1795 -0.0609 -0.0265
   63POPC   C1B 1246   3.504   9.669   6.849 -0.1200 -0.3351  0.0928
   63POPC   C2B 1247   3.227   9.328   6.785 -0.3920 -0.1012 -0.0655
   63POPC   C3B 1248   3.197   8.901   6.711 -0.2885 -0.1321 -0.1840
   63POPC   C4B 1249   3.017   8.664   6.218  0.1792 -0.1521  0.0960
   64POPC   NC3 1250   3.286   9.749   7.596 -0.2546 -0.3433  0.2133
   64POPC   PO4 1251   3.642  10.125   7.553  0.3671  0.0798 -0.2014
   64POPC   GL1 1252   3.935  10.103   7.211  0.2031  0.0902 -0.0915
   64POPC   GL2 1253   3.902  10.379   7.179 -0.0191  0.1596  0.1141
   64POPC   C1A 1254   4.025   9.906   6.833 -0.1756  0.0476  0.0652
   64POPC   D2A 1255   3.744   9.971   6.517 -0.0102 -0.0779 -0.0406
   64POPC   C3A 1256   3.852  10.256   6.250  0.2491  0.0420 -0.3097
   64POPC   C4A 1257   3.785  10.634   6.133  0.1374  0.0801 -0.0768
   64POPC   C1B 1258   3.531  10.185   6.934 -0.0469  0.2037  0.2895
   64POPC   C2B 1259   3.105  10.086   6.877 -0.0368  0.0879 -0.0875
   64POPC   C3B 1260   2.758   9.893   6.540  0.3313  0.0665  0.0239
   64POPC   C4B 1261   2.385   9.595   6.438  0.0824 -0.2166  0.0723
   65POPC   NC3 1262   3.154   2.487   8.667  0.3856 -0.1439 -0.1691
   65POPC   PO4 1263   3.390   2.792   8.365  0.2698 -0.2364  0.1140
   65POPC   GL1 1264   3.377   2.813   7.956  0.3892  0.1516 -0.0932
   65POPC   GL2 1265   3.668   3.019   7.806  0.1315 -0.0428  0.0830
   65POPC   C1A 1266   3.319   2.703   7.522  0.4985 -0.2583  0.0573
   65POPC   D2A 1267   2.926   2.772   7.279  0.1616  0.0149  0.1977
   65POPC   C3A 1268   2.924   2.772   6.887  0.0770  0.2228 -0.3610
   65POPC   C4A 1269   2.938   2.704   6.465  0.0128 -0.3533  0.0193
   65POPC   C1B 1270   3.521   3.165   7.449 -0.1025 -0.1285  0.2369
   65POPC   C2B 1271   3.340   3.047   7.121  0.0004 -0.0477 -0.0658
   65POPC   C3B 1272   3.424   2.997   6.677 -0.1821  0.1002  0.3041
   65POPC   C4B 1273   3.420   2.912   6.212  0.0475  0.3109 -0.0475
   66POPC   NC3 1274   3.159   5.448   8.759 -0.0127  0.0339  0.1500
   66POPC   PO4 1275   2.824   5.132   8.858  0.0300 -0.0576 -0.3225
   66POPC   GL1 1276   2.562   4.895   8.627  0.4324  0.0596 -0.1131
   66POPC   GL2 1277   2.276   4.679   8.631 -0.2502  0.1240 -0.1589
   66POPC   C1A 1278   2.541   5.213   8.247 -0.1409 -0.0051 -0.0626
   66POPC   D2A 1279   2.235   5.173   7.863  0.3235  0.0244  0.0147
   66POPC   C3A 1280   2.264   5.036   7.444  0.0885  0.0348 -0.3899
   66POPC   C4A 1281   1.978   4.660   7.299 -0.2409 -0.0547  0.2944
   66POPC   C1B 1282   2.445   4.739   8.162 -0.2844  0.1060  0.2392
   66POPC   C2B 1283   2.533   4.755   7.727  0.0187 -0.0165  0.0375
   66POPC   C3B 1284   2.736   5.089   7.454 -0.0496 -0.2202 -0.0579
   66POPC   C4B 1285   2.783   5.167   7.066 -0.0101 -0.5804 -0.1187
   67POPC   NC3 1286   6.513   6.267   7.782 -0.0780  0.1912 -0.1311
   67POPC   PO4 1287   6.680   6.586   7.948 -0.0112 -0.2300 -0.2785
   67POPC   GL1 1288   6.883   6.536   7.534  0.2832  0.1664  0.0149
   67POPC   GL2 1289   6.672   6.640   7.347  0.4329 -0.2619 -0.2157
   67POPC   C1A 1290   7.259   6.246   7.372  0.1777 -0.0107  0.0508
   67POPC   D2A 1291   7.649   6.079   7.449  0.1757 -0.2381 -0.2355
   67POPC   C3A 1292   7.764   5.918   6.991 -0.2998 -0.0145  0.0271
   67POPC   C4A 1293   7.759   5.807   6.579 -0.2645 -0.0112  0.0407
   67POPC   C1B 1294   6.577   6.923   6.989  0.0787 -0.1029  0.2551
   67POPC   C2B 1295   6.798   7.113   6.582 -0.2129 -0.0428 -0.0277
   67POPC   C3B 1296   6.815   7.379   6.373 -0.1551 -0.0540  0.0848
   67POPC   C4B 1297   7.078   7.603   5.966  0.0324  0.1612 -0.2210
   68POPC   NC3 1298   3.061   3.438   8.914  0.5303 -0.0628 -0.1215
   68POPC   PO4 1299   3.102   3.011   8.804  0.1087 -0.2553  0.0465
   68POPC   GL1 1300   3.090   3.158   8.498  0.0938  0.1164 -0.1281
   68POPC   GL2 1301   3.027   3.140   8.142 -0.0702 -0.1884  0.1645
   68POPC   C1A 1302   2.709   3.458   8.339 -0.2941  0.1487  0.0194
   68POPC   D2A 1303   2.408   3.629   8.131  0.1846 -0.1551  0.2889
   68POPC   C3A 1304   2.264   3.915   7.669 -0.3744  0.2294  0.0037
   68POPC   C4A 1305   2.311   4.312   7.514 -0.1809  0.2959  0.0015
   68POPC   C1B 1306   3.077   3.162   7.648 -0.2582 -0.2363  0.1052
   68POPC   C2B 1307   3.219   3.520   7.243  0.0506 -0.3139  0.2305
   68POPC   C3B 1308   3.450   3.490   6.892 -0.2762 -0.0433 -0.1449
   68POPC   C4B 1309   3.887   3.490   6.650 -0.0583 -0.3187 -0.0868
   69POPC   NC3 1310   4.155   5.341   8.206  0.0252  0.0054 -0.0721
   69POPC   PO4 1311   4.353   5.734   8.250 -0.0839  0.2538 -0.1449
   69POPC   GL1 1312   4.285   5.790   7.832 -0.1567 -0.1885  0.1738
   69POPC   GL2 1313   4.338   6.143   7.593 -0.1795  0.0077  0.1857
   69POPC   C1A 1314   4.072   5.770   7.446 -0.0149  0.1277 -0.2021
   69POPC   D2A 1315   3.744   5.503   7.125 -0.2384 -0.2392  0.1051
   69POPC   C3A 1316   3.746   5.309   6.824  0.0790 -0.2027  0.0801
   69POPC   C4A 1317   3.939   5.135   6.495  0.2431  0.3511 -0.0465
   69POPC   C1B 1318   4.189   6.286   7.111  0.0827  0.2907 -0.1455
   69POPC   C2B 1319   4.053   6.202   6.642  0.0127 -0.3552  0.1699
   69POPC   C3B 1320   3.820   6.004   6.306 -0.0874 -0.2357  0.0745
   69POPC   C4B 1321   3.566   5.927   5.858 -0.1381  0.1152  0.0141
   70POPC   NC3 1322   5.544   7.779   8.168 -0.2181 -0.0033  0.0659
   70POPC   PO4 1323   5.865   7.622   7.856 -0.4065 -0.0553  0.0681
   70POPC   GL1 1324   5.954   7.615   7.445 -0.0023  0.0782  0.1400
   70POPC   GL2 1325   5.671   7.496   7.338 -0.0185 -0.1302  0.1001
   70POPC   C1A 1326   6.039   7.849   7.158  0.0087 -0.0689 -0.2159
   70POPC   D2A 1327   6.304   7.934   6.860 -0.0374 -0.2086 -0.0442
   70POPC   C3A 1328   6.334   7.686   6.462 -0.0906  0.3076 -0.0156
   70POPC   C4A 1329   6.652   7.760   6.141 -0.0975  0.0157  0.3196
   70POPC   C1B 1330   5.424   7.778   7.117 -0.0440 -0.2912  0.1677
   70POPC   C2B 1331   5.321   8.086   6.753 -0.2201 -0.1440 -0.0891
   70POPC   C3B 1332   5.232   8.374   6.418 -0.1137  0.2106  0.0325
   70POPC   C4B 1333   5.484   8.715   6.237 -0.0159  0.1848 -0.1608
   71POPC   NC3 1334   3.307   4.152   9.239 -0.1750 -0.2001  0.0395
   71POPC   PO4 1335   3.161   4.058   8.757 -0.1002  0.1552  0.0039
   71POPC   GL1 1336   3.154   4.459   8.465  0.4705 -0.1239 -0.0646
   71POPC   GL2 1337   3.044   4.768   8.564  0.0763  0.2468 -0.2088
   71POPC   C1A 1338   2.931   4.523   8.095  0.1003 -0.0606  0.1924
   71POPC   D2A 1339   3.029   4.693   7.691  0.0692 -0.2361  0.3194
   71POPC   C3A 1340   3.082   4.760   7.188 -0.1676  0.2887 -0.0104
   71POPC   C4A 1341   2.831   4.710   6.826 -0.1975  0.1665  0.4140
   71POPC   C1B 1342   3.033   5.009   8.206  0.3744 -0.2203 -0.2250
   71POPC   C2B 1343   3.036   5.283   7.818  0.1743 -0.0114  0.0038
   71POPC   C3B 1344   3.007   5.539   7.472  0.1888 -0.0060 -0.2663
   71POPC   C4B 1345   3.126   5.644   7.001 -0.0293  0.2404  0.0676
   72POPC   NC3 1346   9.128   6.886   9.353  0.2029 -0.1054 -0.0999
   72POPC   PO4 1347   9.363   6.602   9.084 -0.5882 -0.2469 -0.1450
   72POPC   GL1 1348   9.420   6.642   8.631 -0.0991  0.1718 -0.0323
   72POPC   GL2 1349   9.157   6.597   8.354  0.0461  0.2087  0.2470
   72POPC   C1A 1350   9.732   6.591   8.260  0.1030 -0.0335 -0.0996
   72POPC   D2A 1351   9.731   6.267   7.907  0.0055  0.0859 -0.1223
   72POPC   C3A 1352   9.348   6.320   7.752 -0.0501 -0.0040 -0.3518
   72POPC   C4A 1353   9.005   6.534   7.692  0.0596 -0.1987  0.0849
   72POPC   C1B 1354   8.973   6.241   8.191  0.1914  0.0067 -0.0473
   72POPC   C2B 1355   8.789   6.110   7.864  0.1519  0.3292 -0.0997
   72POPC   C3B 1356   8.588   5.911   7.428  0.1157  0.0629 -0.0436
   72POPC   C4B 1357   8.207   5.962   7.332 -0.0532 -0.1549 -0.0423
   73POPC   NC3 1358   9.320   7.503   8.513 -0.0325 -0.2073  0.0951
   73POPC   PO4 1359   9.417   7.783   8.239 -0.3070 -0.0095 -0.1390
   73POPC   GL1 1360   9.477   7.680   7.914 -0.3039  0.0496  0.1766
   73POPC   GL2 1361   9.430   7.865   7.718 -0.0871  0.4543  0.2359
   73POPC   C1A 1362   9.613   7.307   7.688  0.1952  0.2071 -0.0843
   73POPC   D2A 1363   9.542   7.093   7.355 -0.0200 -0.1878  0.2931
   73POPC   C3A 1364   9.779   6.988   6.984  0.1430  0.2018 -0.0596
   73POPC   C4A 1365  10.220   7.037   6.694  0.3325  0.1613 -0.0594
   73POPC   C1B 1366   9.697   7.654   7.320  0.1348 -0.4263 -0.0320
   73POPC   C2B 1367  10.019   7.357   7.322  0.0279  0.0164 -0.2214
   73POPC   C3B 1368  10.167   7.015   7.292 -0.2258 -0.0181  0.1811
   73POPC   C4B 1369  10.069   6.670   7.170 -0.0919 -0.0076 -0.0991
   74POPC   NC3 1370   3.965   5.003   8.581  0.1032  0.0689  0.0140
   74POPC   PO4 1371   4.128   4.842   8.144 -0.2346  0.2229  0.0329
   74POPC   GL1 1372   4.238   5.115   7.811  0.0152  0.1909 -0.0000
   74POPC   GL2 1373   4.488   5.340   7.727 -0.0061  0.1775 -0.1715
   74POPC   C1A 1374   4.243   5.242   7.336 -0.0570  0.1669  0.1414
   74POPC   D2A 1375   4.292   5.303   6.945 -0.1117  0.1716  0.1832
   74POPC   C3A 1376   4.438   5.050   6.594 -0.1350  0.0524 -0.1958
   74POPC   C4A 1377   4.346   4.773   6.295 -0.0572 -0.4237 -0.1072
   74POPC   C1B 1378   4.655   5.755   7.468 -0.2125 -0.1620  0.0411
   74POPC   C2B 1379   4.448   5.879   7.060  0.0947 -0.1607  0.0947
   74POPC   C3B 1380   4.101   5.799   6.904  0.3457  0.1633  0.1908
   74POPC   C4B 1381   4.095   5.578   6.568 -0.0225 -0.2019 -0.0207
   75POPC   NC3 1382   7.295   7.030   8.420  0.2060  0.2748 -0.2323
   75POPC   PO4 1383   7.114   6.885   8.058 -0.1661  0.2338 -0.0360
   75POPC   GL1 1384   7.007   6.972   7.661 -0.0103 -0.2144  0.2829
   75POPC   GL2 1385   6.916   7.312   7.591  0.1968 -0.1343  0.0146
   75POPC   C1A 1386   7.027   6.944   7.307 -0.0774  0.0262  0.0199
   75POPC   D2A 1387   7.255   6.863   6.804 -0.1435  0.0484  0.0349
   75POPC   C3A 1388   7.405   6.707   6.458 -0.1793  0.0858 -0.2188
   75POPC   C4A 1389   7.802   6.566   6.326 -0.1623 -0.0741  0.3194
   75POPC   C1B 1390   6.899   7.394   7.083  0.0497 -0.0953  0.1229
   75POPC   C2B 1391   7.209   7.378   6.701  0.1571 -0.4731  0.0950
   75POPC   C3B 1392   7.266   7.261   6.289  0.2483  0.1895 -0.2209
   75POPC   C4B 1393   7.084   6.992   6.146  0.2008 -0.0028  0.1443
   76POPC   NC3 1394   4.580   6.925   8.097  0.1707  0.0803  0.0366
   76POPC   PO4 1395   4.322   6.589   7.890  0.0363 -0.2110 -0.1068
   76POPC   GL1 1396   4.094   6.596   7.505  0.0675 -0.0136 -0.0416
   76POPC   GL2 1397   3.781   6.637   7.611  0.3151 -0.0449  0.0944
   76POPC   C1A 1398   3.950   6.695   7.125 -0.1717 -0.2058  0.0147
   76POPC   D2A 1399   3.919   6.795   6.657  0.1448  0.0631 -0.2644
   76POPC   C3A 1400   4.287   6.930   6.383  0.1412 -0.1488 -0.2951
   76POPC   C4A 1401   4.334   6.839   5.916 -0.0516  0.0568 -0.1085
   76POPC   C1B 1402   3.580   6.400   7.262 -0.2453  0.0666 -0.2003
   76POPC   C2B 1403   3.668   6.016   7.149  0.1698  0.0469 -0.0202
   76POPC   C3B 1404   3.557   5.828   6.750  0.0723 -0.5339  0.0507
   76POPC   C4B 1405   3.306   5.880   6.393  0.0855 -0.2520  0.2004
   77POPC   NC3 1406   2.064   4.456   9.668 -0.1619  0.2089  0.1723
   77POPC   PO4 1407   2.099   4.268   9.305  0.0616 -0.0135  0.2822
   77POPC   GL1 1408   1.951   4.476   9.002 -0.2135  0.0595  0.0238
   77POPC   GL2 1409   1.998   4.263   8.663 -0.1163  0.1845 -0.0016
   77POPC   C1A 1410   1.617   4.706   8.775 -0.1027  0.1485  0.0360
   77POPC   D2A 1411   1.097   4.818   8.625 -0.0900  0.1184 -0.2723
   77POPC   C3A 1412   1.075   4.817   8.268  0.5222 -0.0372 -0.0238
   77POPC   C4A 1413   0.792   4.853   7.884 -0.0972  0.0897 -0.3974
   77POPC   C1B 1414   2.057   4.358   8.254 -0.0200 -0.1934 -0.1317
   77POPC   C2B 1415   2.324   4.228   8.058  0.0148 -0.0349  0.1587
   77POPC   C3B 1416   2.704   4.064   7.960  0.1871 -0.0486 -0.0366
   77POPC   C4B 1417   3.025   3.902   8.110  0.3626 -0.0209  0.4211
   78POPC   NC3 1418   5.963   0.404   8.452  0.1144  0.0442 -0.1830
   78POPC   PO4 1419   6.173   0.260   8.092  0.1466 -0.1427 -0.0587
   78POPC   GL1 1420   5.996   0.430   7.689 -0.1180  0.1133  0.3225
   78POPC   GL2 1421   5.952   0.302   7.477 -0.4495 -0.3126  0.3215
   78POPC   C1A 1422   6.134   0.778   7.540 -0.1262  0.0636 -0.5034
   78POPC   D2A 1423   6.288   1.151   7.387  0.1231 -0.0358  0.1821
   78POPC   C3A 1424   6.022   1.436   7.256  0.1636  0.1198  0.2040
   78POPC   C4A 1425   5.849   1.727   7.009 -0.1689 -0.0470 -0.0592
   78POPC   C1B 1426   5.924   0.533   7.119 -0.0726  0.3918 -0.0812
   78POPC   C2B 1427   6.023   1.010   6.959 -0.1236 -0.1888 -0.3498
   78POPC   C3B 1428   6.120   1.392   6.705  0.1485 -0.1300 -0.0314
   78POPC   C4B 1429   6.231   1.594   6.459 -0.1512 -0.0418  0.1004
   79POPC   NC3 1430   4.845   9.041   8.152 -0.0679 -0.1237 -0.1639
   79POPC   PO4 1431   5.084   8.866   7.763 -0.1453  0.4898  0.3910
   79POPC   GL1 1432   4.963   8.836   7.317  0.2480 -0.0143 -0.3027
   79POPC   GL2 1433   4.993   9.083   7.159 -0.0694  0.0271  0.1726
   79POPC   C1A 1434   5.178   8.694   6.866 -0.0137  0.1609 -0.4184
   79POPC   D2A 1435   5.082   8.852   6.464  0.0120 -0.0449  0.3436
   79POPC   C3A 1436   5.059   9.198   6.328  0.1632 -0.4037 -0.1582
   79POPC   C4A 1437   4.869   9.397   5.985  0.0311  0.0365 -0.0373
   79POPC   C1B 1438   5.366   9.208   6.926 -0.2426  0.1780  0.1259
   79POPC   C2B 1439   5.484   9.143   6.521  0.4199 -0.0126  0.0957
   79POPC   C3B 1440   5.650   9.421   6.186 -0.0533  0.2156  0.1782
   79POPC   C4B 1441   5.735   9.766   6.175 -0.2529  0.1614 -0.1253
   80POPC   NC3 1442   4.148   3.858   7.962 -0.0001  0.1013  0.1216
   80POPC   PO4 1443   4.515   3.889   8.017  0.0212  0.3614 -0.0755
   80POPC   GL1 1444   4.673   3.899   7.603 -0.0117 -0.1218  0.4390
   80POPC   GL2 1445   4.945   4.038   7.429  0.1635 -0.2679 -0.1174
   80POPC   C1A 1446   4.635   3.765   7.124  0.2357 -0.1112 -0.2326
   80POPC   D2A 1447   4.676   3.576   6.760 -0.2688 -0.0265 -0.0304
   80POPC   C3A 1448   4.772   3.688   6.385 -0.1966  0.0560  0.0448
   80POPC   C4A 1449   4.965   3.998   6.042  0.0677 -0.0502 -0.0303
   80POPC   C1B 1450   5.120   4.260   7.059  0.0897  0.1352 -0.2771
   80POPC   C2B 1451   5.130   4.628   6.854 -0.0220 -0.1881 -0.1391
   80POPC   C3B 1452   5.032   5.074   6.679 -0.2766  0.0958  0.0423
   80POPC   C4B 1453   4.836   5.362   6.395  0.0577 -0.1658 -0.1156
   81POPC   NC3 1454   7.342   7.267   7.885 -0.1174 -0.0814  0.3027
   81POPC   PO4 1455   7.728   7.093   8.136  0.1794 -0.0142 -0.0884
   81POPC   GL1 1456   7.755   6.993   7.781 -0.0224 -0.2486 -0.1967
   81POPC   GL2 1457   7.465   6.731   7.748 -0.1093 -0.1899 -0.1093
   81POPC   C1A 1458   7.841   7.032   7.429 -0.0274 -0.3471  0.0508
   81POPC   D2A 1459   7.920   6.872   7.086 -0.0480  0.1986 -0.1074
   81POPC   C3A 1460   8.131   6.924   6.636  0.2365 -0.2600 -0.2126
   81POPC   C4A 1461   8.342   6.616   6.373  0.4222 -0.1845 -0.1421
   81POPC   C1B 1462   7.438   6.697   7.397  0.0697 -0.4372  0.0885
   81POPC   C2B 1463   7.557   6.577   7.094  0.0113  0.2891 -0.2086
   81POPC   C3B 1464   7.425   6.274   6.814  0.3466  0.0944 -0.0586
   81POPC   C4B 1465   7.192   6.188   6.567  0.0729  0.2457 -0.2209
   82POPC   NC3 1466   2.087   2.825   8.455  0.1616  0.2560 -0.1452
   82POPC   PO4 1467   2.414   2.461   8.313  0.0267  0.1118  0.0373
   82POPC   GL1 1468   2.092   2.614   7.908 -0.0003 -0.2166 -0.0801
   82POPC   GL2 1469   2.349   2.822   7.970  0.2185  0.1484 -0.0660
   82POPC   C1A 1470   1.882   2.718   7.542 -0.0377  0.1965 -0.0576
   82POPC   D2A 1471   1.910   3.080   7.293 -0.1957 -0.1383  0.4218
   82POPC   C3A 1472   1.567   3.446   7.162 -0.0880  0.2070 -0.0688
   82POPC   C4A 1473   1.268   3.708   6.965 -0.1826  0.1452  0.1203
   82POPC   C1B 1474   2.590   3.195   7.937 -0.0847 -0.0042 -0.0259
   82POPC   C2B 1475   2.715   3.554   7.666 -0.2944 -0.0644 -0.0930
   82POPC   C3B 1476   2.623   3.779   7.314 -0.0241 -0.1201  0.0395
   82POPC   C4B 1477   2.345   4.040   7.088  0.1624  0.2020 -0.4085
   83POPC   NC3 1478   9.926   7.388   9.121 -0.0607 -0.2203  0.1800
   83POPC   PO4 1479   9.983   7.816   8.888  0.0693  0.3282 -0.5871
   83POPC   GL1 1480   9.941   7.689   8.476 -0.0871 -0.0692  0.0474
   83POPC   GL2 1481  10.178   7.401   8.414  0.3206 -0.0943  0.1622
   83POPC   C1A 1482   9.978   7.544   8.014  0.3050 -0.1990  0.0262
   83POPC   D2A 1483  10.102   7.752   7.639 -0.1160 -0.0544 -0.2820
   83POPC   C3A 1484   9.872   8.163   7.520 -0.0969 -0.1877 -0.1683
   83POPC   C4A 1485   9.686   8.491   7.347  0.0018 -0.0335 -0.0508
   83POPC   C1B 1486  10.487   7.552   7.973  0.3480  0.0654  0.1339
   83POPC   C2B 1487  10.521   7.382   7.535  0.0198 -0.0302 -0.1657
   83POPC   C3B 1488  10.650   7.099   7.340 -0.3255  0.0283  0.0549
   83POPC   C4B 1489  10.572   6.719   7.088  0.0665  0.0045 -0.0228
   84POPC   NC3 1490   2.447   7.401   9.022 -0.0608  0.0485 -0.0122
   84POPC   PO4 1491   2.342   7.138   8.656 -0.3595 -0.0714  0.1559
   84POPC   GL1 1492   2.274   6.813   8.407 -0.1910 -0.0113  0.0253
   84POPC   GL2 1493   2.283   7.002   8.060 -0.1068  0.1896  0.2033
   84POPC   C1A 1494   2.358   6.514   8.140 -0.0928  0.0365  0.0731
   84POPC   D2A 1495   2.404   6.411   7.596  0.0619 -0.1120  0.0865
   84POPC   C3A 1496   2.027   6.254   7.338 -0.1696  0.0567 -0.0703
   84POPC   C4A 1497   1.794   6.313   7.086 -0.3286 -0.1303 -0.1658
   84POPC   C1B 1498   2.085   7.075   7.615 -0.0198 -0.3120 -0.2278
   84POPC   C2B 1499   1.787   6.770   7.273 -0.1708  0.0786 -0.0230
   84POPC   C3B 1500   1.350   6.712   7.293 -0.1652 -0.1117 -0.1641
   84POPC   C4B 1501   0.947   6.789   7.102 -0.2416  0.3098  0.0143
   85POPC   NC3 1502   5.420   8.609   8.138  0.0472  0.0206 -0.1159
   85POPC   PO4 1503   5.261   8.169   7.906 -0.0829  0.3579 -0.0169
   85POPC   GL1 1504   5.085   8.047   7.532 -0.2043  0.0914 -0.1188
   85POPC   GL2 1505   4.925   8.346   7.405  0.1027 -0.1888 -0.0737
   85POPC   C1A 1506   4.862   7.883   7.068  0.0103  0.0618 -0.0927
   85POPC   D2A 1507   4.680   7.529   6.793 -0.0224  0.0044 -0.0423
   85POPC   C3A 1508   4.295   7.397   6.625 -0.0567  0.0067 -0.1682
   85POPC   C4A 1509   3.855   7.394   6.597 -0.1381 -0.0415 -0.2029
   85POPC   C1B 1510   4.679   8.485   6.979 -0.1273  0.0378 -0.0502
   85POPC   C2B 1511   4.693   8.209   6.620 -0.0261 -0.1487 -0.1197
   85POPC   C3B 1512   5.022   7.839   6.435  0.3463  0.0585  0.1396
   85POPC   C4B 1513   5.357   7.608   6.304 -0.1496 -0.2555 -0.2540
   86POPC   NC3 1514   6.724   2.405   7.860  0.3702  0.2855 -0.2411
   86POPC   PO4 1515   6.196   2.471   7.792  0.1788  0.0983 -0.0974
   86POPC   GL1 1516   6.470   2.547   7.437 -0.2569  0.2250 -0.0158
   86POPC   GL2 1517   6.616   2.243   7.312  0.0543 -0.1617 -0.2462
   86POPC   C1A 1518   6.580   2.576   6.914 -0.1741  0.0674 -0.0237
   86POPC   D2A 1519   6.328   2.478   6.608 -0.0105 -0.4473  0.2491
   86POPC   C3A 1520   6.501   2.119   6.400 -0.0447  0.0942  0.0814
   86POPC   C4A 1521   6.728   1.753   6.225  0.0338  0.0903  0.0821
   86POPC   C1B 1522   6.279   2.197   7.028  0.0724  0.0814 -0.1574
   86POPC   C2B 1523   5.984   2.059   6.676 -0.1218 -0.0921  0.0270
   86POPC   C3B 1524   5.697   1.718   6.420 -0.1087  0.2334 -0.0879
   86POPC   C4B 1525   5.448   1.468   6.029 -0.0796  0.2519 -0.1499
   87POPC   NC3 1526  10.005  10.209   7.972  0.0551 -0.0347  0.0034
   87POPC   PO4 1527   9.604  10.234   7.787  0.1981 -0.0026 -0.1413
   87POPC   GL1 1528   9.325  10.205   7.438  0.2748  0.0468  0.0509
   87POPC   GL2 1529   9.017  10.296   7.411  0.1758  0.3618 -0.2328
   87POPC   C1A 1530   9.299   9.930   7.014 -0.3459  0.0007  0.0878
   87POPC   D2A 1531   9.467   9.630   6.501 -0.2121 -0.4978  0.2737
   87POPC   C3A 1532   9.647   9.471   6.114  0.0524 -0.0684 -0.1259
   87POPC   C4A 1533   9.916   9.271   5.852  0.1632 -0.2108 -0.0498
   87POPC   C1B 1534   8.898  10.709   7.459  0.2856 -0.2572 -0.0080
   87POPC   C2B 1535   9.079  10.923   7.090  0.0341 -0.0480 -0.1414
   87POPC   C3B 1536   9.207  10.868   6.748 -0.2779  0.2363 -0.4812
   87POPC   C4B 1537   9.026  11.025   6.369  0.0256  0.1013  0.3122
   88POPC   NC3 1538   5.491   1.130   8.373  0.2096 -0.1675 -0.0526
   88POPC   PO4 1539   5.855   1.205   8.172  0.1300  0.0323 -0.1013
   88POPC   GL1 1540   5.560   1.176   7.822  0.3647  0.1181 -0.1389
   88POPC   GL2 1541   5.305   1.088   7.804 -0.2167 -0.3418 -0.0694
   88POPC   C1A 1542   5.435   1.440   7.396 -0.1518 -0.0251  0.1891
   88POPC   D2A 1543   5.538   1.812   7.375 -0.4075 -0.0708  0.0813
   88POPC   C3A 1544   5.492   2.135   7.018 -0.0972  0.3311  0.2522
   88POPC   C4A 1545   5.058   2.361   7.045 -0.3497 -0.1048  0.0374
   88POPC   C1B 1546   5.062   0.920   7.476  0.4249  0.0887  0.0119
   88POPC   C2B 1547   5.286   0.823   7.159 -0.0109  0.1520 -0.4287
   88POPC   C3B 1548   5.418   0.773   6.789  0.1255  0.1179 -0.1037
   88POPC   C4B 1549   5.849   0.635   6.600 -0.0219 -0.0060  0.2618
   89POPC   NC3 1550   0.426   9.172   8.189 -0.0492  0.2929 -0.0279
   89POPC   PO4 1551   0.257   9.306   7.805 -0.0183  0.0976 -0.3421
   89POPC   GL1 1552   0.268   9.234   7.327 -0.1434  0.2775 -0.0229
   89POPC   GL2 1553  -0.010   9.097   7.327 -0.4594  0.2200 -0.2383
   89POPC   C1A 1554   0.219   9.267   6.914 -0.2286 -0.0073 -0.0272
   89POPC   D2A 1555   0.341   9.063   6.549 -0.1446 -0.0062 -0.2214
   89POPC   C3A 1556   0.046   8.773   6.299 -0.0548 -0.0950 -0.0063
   89POPC   C4A 1557   0.095   8.335   6.184 -0.3251 -0.1058  0.3396
   89POPC   C1B 1558   0.302   8.830   7.022  0.1319  0.3937  0.1056
   89POPC   C2B 1559   0.367   8.614   6.671 -0.2107  0.0351 -0.0450
   89POPC   C3B 1560   0.498   8.649   6.188  0.0036 -0.0462 -0.0308
   89POPC   C4B 1561   0.295   9.111   5.994  0.0803 -0.1426  0.0881
   90POPC   NC3 1562   4.864   9.782   7.970 -0.2616 -0.0258 -0.1151
   90POPC   PO4 1563   4.772   9.926   7.628 -0.0268 -0.1791  0.1944
   90POPC   GL1 1564   4.851   9.904   7.177  0.3067 -0.1197 -0.2525
   90POPC   GL2 1565   5.043   9.562   6.979  0.1137 -0.0052  0.0703
   90POPC   C1A 1566   5.196  10.074   6.955  0.0078 -0.1912 -0.0668
   90POPC   D2A 1567   5.291  10.212   6.470 -0.1103 -0.0224 -0.2089
   90POPC   C3A 1568   5.392  10.614   6.331  0.0852 -0.2421  0.0011
   90POPC   C4A 1569   5.429  11.068   6.332 -0.1018 -0.1582  0.3079
   90POPC   C1B 1570   5.273   9.671   6.562 -0.3827 -0.2036  0.0625
   90POPC   C2B 1571   5.092   9.811   6.141  0.1310  0.3225 -0.1312
   90POPC   C3B 1572   4.922   9.870   5.776  0.0223  0.1940 -0.0133
   90POPC   C4B 1573   4.782   9.758   5.311  0.2986  0.0570  0.0201
   91POPC   NC3 1574   9.965   2.308   9.018 -0.0851  0.1186 -0.0262
   91POPC   PO4 1575   9.838   2.429   8.602  0.2971  0.1846 -0.1797
   91POPC   GL1 1576   9.731   2.271   8.153 -0.2363  0.1672 -0.2113
   91POPC   GL2 1577   9.497   1.925   8.002 -0.0497 -0.1153  0.1509
   91POPC   C1A 1578   9.757   2.463   7.743  0.0737  0.0233  0.0589
   91POPC   D2A 1579   9.895   2.653   7.488 -0.1871  0.1077  0.1978
   91POPC   C3A 1580   9.537   2.834   7.375  0.0112 -0.1340  0.2720
   91POPC   C4A 1581   9.138   2.909   7.217 -0.0987 -0.3561 -0.1944
   91POPC   C1B 1582   9.679   1.983   7.544  0.1219  0.3250 -0.0083
   91POPC   C2B 1583   9.331   1.975   7.240 -0.0133  0.0963 -0.1781
   91POPC   C3B 1584   9.144   1.947   6.817 -0.0069  0.3425  0.0054
   91POPC   C4B 1585   9.144   1.817   6.300 -0.2442  0.1839 -0.0945
   92POPC   NC3 1586   6.527   4.183   8.196  0.1796  0.0930 -0.1375
   92POPC   PO4 1587   6.256   4.596   8.217 -0.1079 -0.0588  0.0012
   92POPC   GL1 1588   6.472   4.397   7.772  0.3001  0.0542  0.0671
   92POPC   GL2 1589   6.376   4.565   7.569  0.0172 -0.0242  0.0319
   92POPC   C1A 1590   6.743   4.319   7.295  0.3010 -0.0429  0.0418
   92POPC   D2A 1591   6.915   4.013   6.890  0.0154  0.2319 -0.1062
   92POPC   C3A 1592   6.944   3.495   6.966 -0.2048 -0.3105  0.0336
   92POPC   C4A 1593   7.020   3.184   6.716  0.0434 -0.0580 -0.0909
   92POPC   C1B 1594   6.084   4.872   7.488 -0.0498  0.0789  0.0456
   92POPC   C2B 1595   6.000   5.131   7.160  0.2209  0.2190  0.0187
   92POPC   C3B 1596   5.934   5.103   6.657 -0.4359  0.0072 -0.2439
   92POPC   C4B 1597   5.905   5.213   6.242  0.0722  0.0218  0.0862
   93POPC   NC3 1598   5.743   8.237   8.005  0.0203  0.0469  0.2467
   93POPC   PO4 1599   5.862   8.651   7.938  0.0136  0.0250 -0.0645
   93POPC   GL1 1600   5.782   8.906   7.504 -0.2868 -0.0604  0.2595
   93POPC   GL2 1601   6.043   9.181   7.543  0.3650  0.0109 -0.1253
   93POPC   C1A 1602   5.638   8.739   7.180 -0.0320  0.0995  0.3291
   93POPC   D2A 1603   5.613   8.712   6.705 -0.1604  0.3283 -0.0532
   93POPC   C3A 1604   5.916   8.943   6.333 -0.1262 -0.1620  0.3037
   93POPC   C4A 1605   6.159   9.364   6.161  0.2916 -0.1070  0.1700
   93POPC   C1B 1606   6.314   9.179   7.278 -0.1706  0.0347 -0.1876
   93POPC   C2B 1607   6.522   9.182   6.823 -0.1381 -0.1015 -0.0410
   93POPC   C3B 1608   6.855   9.154   6.612 -0.3160 -0.0034  0.1707
   93POPC   C4B 1609   7.074   8.859   6.420 -0.3338  0.1005 -0.1308
   94POPC   NC3 1610   3.399   0.343   7.802  0.2550  0.2443  0.0455
   94POPC   PO4 1611   3.047  -0.003   7.872  0.0553 -0.3405 -0.1476
   94POPC   GL1 1612   3.014   0.009   7.529  0.1592  0.2326  0.1710
   94POPC   GL2 1613   2.768   0.216   7.367 -0.1239  0.0202  0.1866
   94POPC   C1A 1614   3.044  -0.134   7.012 -0.0383 -0.2052 -0.3611
   94POPC   D2A 1615   3.363  -0.207   6.623  0.1720 -0.2495  0.1144
   94POPC   C3A 1616   3.258  -0.663   6.364  0.4226  0.2939  0.2308
   94POPC   C4A 1617   3.382  -1.059   6.169  0.1559 -0.0618 -0.1501
   94POPC   C1B 1618   3.190   0.337   7.204 -0.0319 -0.2153 -0.1352
   94POPC   C2B 1619   3.538  -0.007   7.057  0.3397 -0.0292 -0.0658
   94POPC   C3B 1620   3.866  -0.002   6.853  0.1082  0.1210 -0.1510
   94POPC   C4B 1621   4.059  -0.305   6.669  0.1671  0.0489 -0.0531
   95POPC   NC3 1622   8.326   2.106   8.662  0.1510  0.1472  0.1013
   95POPC   PO4 1623   7.999   2.161   8.289  0.1947 -0.0714 -0.1067
   95POPC   GL1 1624   8.219   2.275   7.954  0.1863  0.4594 -0.1112
   95POPC   GL2 1625   8.603   2.362   8.007  0.0094 -0.0231 -0.2641
   95POPC   C1A 1626   8.284   2.007   7.616  0.2625 -0.1399  0.0498
   95POPC   D2A 1627   8.169   1.878   7.154  0.0187  0.0752  0.0333
   95POPC   C3A 1628   7.933   2.158   6.798 -0.1108  0.1716 -0.0449
   95POPC   C4A 1629   7.661   2.449   6.549 -0.1112  0.0432  0.2381
   95POPC   C1B 1630   8.390   2.561   7.641  0.0025  0.1555  0.0351
   95POPC   C2B 1631   8.251   2.378   7.173 -0.0292 -0.0537  0.4665
   95POPC   C3B 1632   8.162   2.625   6.757 -0.1857 -0.2961  0.2955
   95POPC   C4B 1633   7.885   2.917   6.600 -0.2995 -0.1728 -0.3099
   96POPC   NC3 1634   2.228   1.183   8.019 -0.1537  0.1073 -0.2050
   96POPC   PO4 1635   1.899   0.965   7.805 -0.0931  0.2197 -0.0375
   96POPC   GL1 1636   1.756   1.134   7.491  0.0104 -0.1006  0.2896
   96POPC   GL2 1637   1.571   1.379   7.584 -0.2019 -0.1787  0.0077
   96POPC   C1A 1638   1.517   1.175   6.992 -0.3262 -0.2630  0.2414
   96POPC   D2A 1639   1.469   1.276   6.575  0.3037 -0.2846  0.0234
   96POPC   C3A 1640   1.140   1.568   6.412 -0.1746  0.0518  0.1812
   96POPC   C4A 1641   0.946   1.885   6.390 -0.0695 -0.1769  0.2140
   96POPC   C1B 1642   1.863   1.528   7.217 -0.0188 -0.0495  0.1541
   96POPC   C2B 1643   1.934   1.890   6.982  0.2076 -0.0241  0.0731
   96POPC   C3B 1644   1.711   2.267   6.785  0.0580 -0.3789 -0.2104
   96POPC   C4B 1645   1.430   2.637   6.584 -0.3665 -0.2044  0.0208
   97POPC   NC3 1646   8.223   8.672   8.672 -0.0029 -0.0946 -0.0093
   97POPC   PO4 1647   8.081   8.321   8.372  0.2285  0.2627 -0.1589
   97POPC   GL1 1648   7.879   8.262   7.904 -0.0566 -0.2278 -0.0140
   97POPC   GL2 1649   7.823   7.992   7.955 -0.1052 -0.1494  0.0194
   97POPC   C1A 1650   7.905   8.397   7.395 -0.1145 -0.0325 -0.0916
   97POPC   D2A 1651   8.135   8.543   7.056  0.2072  0.0946  0.1747
   97POPC   C3A 1652   7.968   8.841   6.684 -0.3394  0.3481 -0.0849
   97POPC   C4A 1653   7.845   8.969   6.192  0.0581  0.0127  0.1569
   97POPC   C1B 1654   8.128   7.965   7.585  0.0881  0.1998  0.2135
   97POPC   C2B 1655   8.360   7.676   7.259  0.0621 -0.0614  0.1603
   97POPC   C3B 1656   8.462   7.411   6.852 -0.0606  0.1695  0.2060
   97POPC   C4B 1657   8.865   7.436   6.599 -0.0491 -0.0002 -0.3261
   98POPC   NC3 1658   7.986   6.279   8.586 -0.1520 -0.0678  0.0698
   98POPC   PO4 1659   7.634   6.150   8.748  0.1496 -0.0046  0.1001
   98POPC   GL1 1660   7.594   6.155   8.271 -0.2981 -0.1855  0.0350
   98POPC   GL2 1661   7.416   5.961   8.051 -0.0530  0.2459  0.0343
   98POPC   C1A 1662   7.725   6.368   7.994 -0.0992 -0.3841  0.0697
   98POPC   D2A 1663   8.084   6.635   7.909  0.1034  0.1970  0.1245
   98POPC   C3A 1664   8.442   6.453   7.623 -0.1164  0.0695  0.0297
   98POPC   C4A 1665   8.699   6.534   7.214  0.0125 -0.1216  0.0867
   98POPC   C1B 1666   7.460   5.683   7.684 -0.2450  0.1635 -0.1654
   98POPC   C2B 1667   7.349   5.281   7.518 -0.0709 -0.1849  0.2823
   98POPC   C3B 1668   7.468   4.986   7.401 -0.0163  0.1637  0.0225
   98POPC   C4B 1669   7.618   4.571   7.187 -0.0047 -0.0071  0.0052
   99POPC   NC3 1670   5.024   4.318   8.275  0.0012 -0.0602  0.2189
   99POPC   PO4 1671   5.449   4.220   8.250  0.2076  0.1216  0.2329
   99POPC   GL1 1672   5.359   4.271   7.827 -0.2245 -0.2275 -0.0517
   99POPC   GL2 1673   5.389   4.035   7.615 -0.0854  0.1346  0.1048
   99POPC   C1A 1674   5.189   4.580   7.406 -0.0789  0.0802 -0.2112
   99POPC   D2A 1675   4.702   4.487   7.170 -0.0694 -0.0528 -0.0855
   99POPC   C3A 1676   4.415   4.193   7.039  0.0380  0.1765  0.1020
   99POPC   C4A 1677   4.199   3.832   7.351 -0.0454  0.1000 -0.1139
   99POPC   C1B 1678   5.511   3.978   7.140  0.0694  0.0609  0.0849
   99POPC   C2B 1679   5.402   4.159   6.678  0.0046  0.0678 -0.2473
   99POPC   C3B 1680   5.162   4.494   6.355 -0.0684  0.3054 -0.2955
   99POPC   C4B 1681   4.882   4.787   6.228  0.1748  0.0131  0.0460
  100POPC   NC3 1682   2.260  10.128   7.550  0.0196  0.3023 -0.0976
  100POPC   PO4 1683   1.978   9.701   7.609  0.0238  0.1360  0.3830
  100POPC   GL1 1684   1.713   9.455   7.316  0.2261  0.0699  0.0071
  100POPC   GL2 1685   1.678   9.182   7.409  0.1873 -0.1321  0.1973
  100POPC   C1A 1686   1.444   9.715   6.979  0.3431 -0.1410  0.3887
  100POPC   D2A 1687   1.534   9.984   6.646  0.1927  0.3340 -0.1015
  100POPC   C3A 1688   1.212   9.887   6.314  0.0379  0.0949  0.0513
  100POPC   C4A 1689   1.181   9.662   5.878 -0.3080  0.2035  0.0496
  100POPC   C1B 1690   1.974   9.016   7.059  0.0590  0.1382  0.2649
  100POPC   C2B 1691   2.233   8.813   6.672 -0.1494 -0.1287 -0.4345
  100POPC   C3B 1692   2.383   8.635   6.375  0.0597  0.0010 -0.0684
  100POPC   C4B 1693   2.367   8.413   6.064  0.2432 -0.0702  0.1726
  101POPC   NC3 1694   4.347   4.367   8.787  0.0012  0.1285 -0.2979
  101POPC   PO4 1695   4.434   4.501   8.378 -0.0308  0.2113  0.1382
  101POPC   GL1 1696   4.565   4.417   7.955 -0.0742  0.1595  0.4778
  101POPC   GL2 1697   4.828   4.483   7.843 -0.0822 -0.0376  0.1997
  101POPC   C1A 1698   4.348   4.331   7.550  0.2762 -0.1251  0.1249
  101POPC   D2A 1699   3.956   4.300   7.332  0.0121  0.0886  0.0937
  101POPC   C3A 1700   3.718   4.281   6.861  0.0411  0.0693  0.1141
  101POPC   C4A 1701   3.282   4.414   6.837  0.1345  0.1500 -0.4303
  101POPC   C1B 1702   4.596   4.788   7.572 -0.2160 -0.0969 -0.1236
  101POPC   C2B 1703   4.228   4.724   7.258 -0.1112 -0.1113  0.1161
  101POPC   C3B 1704   4.115   4.621   6.868  0.2787  0.2246  0.1931
  101POPC   C4B 1705   4.170   4.308   6.575 -0.0706  0.0905 -0.2685
  102POPC   NC3 1706   9.970   1.164   8.324  0.0113 -0.1859 -0.0127
  102POPC   PO4 1707   9.756   0.852   8.150 -0.0264  0.1094  0.0333
  102POPC   GL1 1708   9.990   0.895   7.784 -0.1655  0.1772  0.0578
  102POPC   GL2 1709   9.916   0.591   7.708  0.1155 -0.2584 -0.0361
  102POPC   C1A 1710   9.887   1.096   7.347  0.3195  0.0400 -0.0750
  102POPC   D2A 1711   9.825   1.492   7.325  0.3019 -0.3930  0.0429
  102POPC   C3A 1712   9.874   1.766   7.046 -0.0139  0.0354  0.3447
  102POPC   C4A 1713  10.046   2.197   7.077 -0.1700 -0.0828 -0.3192
  102POPC   C1B 1714   9.991   0.617   7.313  0.0263  0.0527  0.2213
  102POPC   C2B 1715  10.280   0.787   6.942 -0.0360 -0.0965  0.2469
  102POPC   C3B 1716  10.469   1.040   6.544 -0.1605  0.2220 -0.1350
  102POPC   C4B 1717  10.532   1.543   6.436 -0.1198 -0.2358 -0.1347
  103POPC   NC3 1718   2.280   0.575   8.110 -0.0184 -0.0777  0.3482
  103POPC   PO4 1719   2.449   0.806   7.762 -0.1413  0.3292  0.1809
  103POPC   GL1 1720   2.300   0.715   7.303  0.0577 -0.2908  0.2880
  103POPC   GL2 1721   2.271   0.376   7.131  0.1014 -0.1597 -0.1252
  103POPC   C1A 1722   2.449   0.746   6.889  0.1224  0.0821  0.2283
  103POPC   D2A 1723   2.426   0.499   6.546  0.0336  0.1069  0.1215
  103POPC   C3A 1724   2.378   0.082   6.441 -0.2239 -0.3073 -0.0819
  103POPC   C4A 1725   2.649  -0.100   6.053 -0.2159  0.0877  0.0079
  103POPC   C1B 1726   2.048   0.329   6.861  0.2863 -0.1201 -0.2947
  103POPC   C2B 1727   1.783   0.202   6.638 -0.0224 -0.0781  0.0197
  103POPC   C3B 1728   1.520   0.154   6.320  0.0110 -0.3894  0.0981
  103POPC   C4B 1729   1.226   0.322   5.961  0.2431  0.2534 -0.2173
  104POPC   NC3 1730   7.186   9.605   7.925 -0.1470 -0.2501  0.2097
  104POPC   PO4 1731   6.910   9.331   7.684  0.2173 -0.0743 -0.0510
  104POPC   GL1 1732   6.987   9.657   7.380  0.1512 -0.0413  0.2102
  104POPC   GL2 1733   6.902   9.962   7.574 -0.1157  0.3068 -0.2429
  104POPC   C1A 1734   7.109   9.880   7.092  0.0824  0.2351  0.0766
  104POPC   D2A 1735   7.311   9.890   6.716  0.1973  0.0914 -0.1207
  104POPC   C3A 1736   7.753   9.723   6.776 -0.0154 -0.0852 -0.0349
  104POPC   C4A 1737   7.874   9.924   6.455  0.0188  0.1087  0.1966
  104POPC   C1B 1738   6.630  10.087   7.326  0.0100  0.1423 -0.2614
  104POPC   C2B 1739   6.515  10.291   6.994  0.1327  0.2032 -0.1051
  104POPC   C3B 1740   6.643  10.248   6.655  0.0632 -0.3272  0.1064
  104POPC   C4B 1741   6.696  10.093   6.290  0.2247 -0.2139  0.4030
  105POPC   NC3 1742   0.127   2.888   9.227  0.1411 -0.0384  0.1765
  105POPC   PO4 1743   0.476   2.969   8.888 -0.2155 -0.0215  0.1978
  105POPC   GL1 1744   0.411   2.943   8.419  0.1448 -0.1057  0.0973
  105POPC   GL2 1745   0.134   2.765   8.280  0.1959 -0.1173  0.1586
  105POPC   C1A 1746   0.756   2.817   8.111 -0.1107 -0.0290 -0.0676
  105POPC   D2A 1747   1.176   2.602   8.007  0.2143 -0.1759  0.1155
  105POPC   C3A 1748   1.540   2.809   7.913 -0.2529  0.1507 -0.0370
  105POPC   C4A 1749   1.566   3.207   7.603  0.1408 -0.0168  0.2315
  105POPC   C1B 1750   0.268   3.084   7.862 -0.0800 -0.1358  0.0135
  105POPC   C2B 1751   0.332   3.566   8.081  0.2455  0.1010  0.0127
  105POPC   C3B 1752   0.197   3.972   8.255 -0.0421 -0.1643  0.1479
  105POPC   C4B 1753   0.048   4.304   7.936 -0.1979 -0.2980 -0.0184
  106POPC   NC3 1754   6.709   8.692   8.314  0.1247  0.2566 -0.2314
  106POPC   PO4 1755   6.431   8.569   8.004  0.3299 -0.2069  0.5035
  106POPC   GL1 1756   6.580   8.736   7.475 -0.0639 -0.2425  0.0712
  106POPC   GL2 1757   6.770   8.999   7.332  0.0201 -0.0832 -0.2153
  106POPC   C1A 1758   6.544   8.708   6.980  0.1862 -0.1755 -0.0150
  106POPC   D2A 1759   6.628   8.746   6.609 -0.0553  0.2046 -0.0031
  106POPC   C3A 1760   6.428   8.973   6.367 -0.1775  0.0368  0.2970
  106POPC   C4A 1761   6.479   8.934   5.906  0.1018  0.2159  0.1195
  106POPC   C1B 1762   7.078   8.876   6.982 -0.1801 -0.0600 -0.0151
  106POPC   C2B 1763   7.139   8.531   6.805  0.0803  0.1731  0.4269
  106POPC   C3B 1764   7.130   8.339   6.485  0.5226 -0.2465 -0.1377
  106POPC   C4B 1765   6.994   8.160   6.114  0.2204  0.0891  0.1387
  107POPC   NC3 1766   8.356  10.020   7.970 -0.2108 -0.0323  0.2874
  107POPC   PO4 1767   8.693   9.928   7.728 -0.1266  0.0256 -0.3366
  107POPC   GL1 1768   8.442   9.896   7.406 -0.2403  0.1601  0.1551
  107POPC   GL2 1769   8.644   9.690   7.246  0.4105 -0.0739  0.1965
  107POPC   C1A 1770   8.297   9.925   6.931  0.3598 -0.2133  0.0064
  107POPC   D2A 1771   8.245  10.362   6.701  0.1132  0.0515 -0.2250
  107POPC   C3A 1772   8.026  10.499   6.443  0.2217  0.1474  0.0955
  107POPC   C4A 1773   7.747  10.320   6.187 -0.1784 -0.3388  0.0180
  107POPC   C1B 1774   8.775   9.943   6.890 -0.0655 -0.1958  0.2245
  107POPC   C2B 1775   8.647  10.174   6.517  0.0222 -0.0776 -0.0940
  107POPC   C3B 1776   8.463  10.638   6.331 -0.2050  0.1817  0.1682
  107POPC   C4B 1777   8.326  10.954   6.599  0.2559 -0.0652 -0.3254
  108POPC   NC3 1778   7.183   3.271   8.049  0.1452 -0.1694  0.1066
  108POPC   PO4 1779   7.318   3.312   8.549 -0.0144  0.2072 -0.1172
  108POPC   GL1 1780   7.680   3.506   8.229 -0.3983  0.1532 -0.0766
  108POPC   GL2 1781   7.657   3.252   7.886  0.3003  0.0068 -0.1287
  108POPC   C1A 1782   8.055   3.560   7.906  0.2803 -0.2673 -0.2083
  108POPC   D2A 1783   8.186   3.510   7.482 -0.0082  0.1899  0.0965
  108POPC   C3A 1784   7.888   3.596   7.147  0.3456 -0.1541  0.0932
  108POPC   C4A 1785   7.842   3.805   6.667  0.3992  0.2544  0.1362
  108POPC   C1B 1786   7.815   3.196   7.507 -0.0625  0.1841 -0.2576
  108POPC   C2B 1787   7.684   3.045   7.090  0.1066 -0.0725  0.1729
  108POPC   C3B 1788   7.466   2.965   6.773  0.2559  0.0848  0.0572
  108POPC   C4B 1789   7.284   2.886   6.418  0.2660 -0.1000 -0.2050
  109POPC   NC3 1790   8.958   0.502   8.566 -0.0876 -0.0690  0.2317
  109POPC   PO4 1791   9.044   0.511   8.156 -0.1527  0.0778  0.0352
  109POPC   GL1 1792   8.982   0.439   7.641  0.0960  0.0713 -0.0466
  109POPC   GL2 1793   9.299   0.635   7.622  0.0020  0.1880  0.2414
  109POPC   C1A 1794   8.799   0.615   7.295 -0.1934 -0.0600  0.3794
  109POPC   D2A 1795   8.444   0.678   6.930 -0.0238  0.0774 -0.0439
  109POPC   C3A 1796   8.222   1.020   6.902 -0.0183  0.1269 -0.2987
  109POPC   C4A 1797   8.021   1.225   6.593 -0.0447 -0.3312 -0.3046
  109POPC   C1B 1798   9.447   0.537   7.319  0.0427 -0.1771  0.0698
  109POPC   C2B 1799   9.694   0.682   6.904 -0.3500  0.0246  0.1740
  109POPC   C3B 1800   9.963   0.652   6.563  0.1305  0.3128 -0.0533
  109POPC   C4B 1801  10.058   0.341   6.313 -0.0579  0.1340 -0.3464
  110POPC   NC3 1802   9.103   3.057   8.808 -0.0232 -0.1095 -0.1849
  110POPC   PO4 1803   8.899   2.764   8.647 -0.1034  0.1269 -0.1032
  110POPC   GL1 1804   8.667   2.873   8.256 -0.2262  0.0991  0.1022
  110POPC   GL2 1805   8.848   3.216   8.317  0.1777  0.1464  0.3098
  110POPC   C1A 1806   8.749   2.817   7.878  0.2267  0.1073  0.0457
  110POPC   D2A 1807   8.808   2.573   7.436 -0.2838  0.1429  0.2967
  110POPC   C3A 1808   9.082   2.451   7.107 -0.0466  0.1857 -0.0344
  110POPC   C4A 1809   9.329   2.545   6.789  0.0271  0.3632  0.1742
  110POPC   C1B 1810   8.944   3.370   7.949 -0.0454 -0.0545  0.1793
  110POPC   C2B 1811   8.647   3.518   7.684  0.1219 -0.1575  0.2031
  110POPC   C3B 1812   8.599   3.524   7.230  0.3679  0.2564  0.1849
  110POPC   C4B 1813   8.702   3.499   6.788 -0.1465  0.3377  0.4141
  111POPC   NC3 1814   6.697   6.311   8.387  0.2458 -0.0945  0.2336
  111POPC   PO4 1815   6.809   5.905   8.060 -0.0151  0.1712 -0.1051
  111POPC   GL1 1816   7.033   5.909   7.674  0.2342 -0.0426  0.0262
  111POPC   GL2 1817   6.841   5.993   7.491  0.2582  0.0254 -0.0669
  111POPC   C1A 1818   7.237   5.757   7.270 -0.0400 -0.1471 -0.1887
  111POPC   D2A 1819   7.531   5.447   6.952 -0.1372  0.0188 -0.1181
  111POPC   C3A 1820   7.419   4.981   6.902  0.1806 -0.0496  0.0717
  111POPC   C4A 1821   7.709   4.719   6.687 -0.0110 -0.1143  0.1377
  111POPC   C1B 1822   6.856   5.959   6.997 -0.1695  0.1156 -0.0867
  111POPC   C2B 1823   7.155   5.746   6.751  0.2013  0.3920 -0.0498
  111POPC   C3B 1824   7.341   5.597   6.495  0.1956 -0.0466  0.1413
  111POPC   C4B 1825   7.617   5.212   6.505 -0.2919  0.0085 -0.0530
  112POPC   NC3 1826   2.716   2.073   8.192 -0.1782 -0.0920  0.1863
  112POPC   PO4 1827   2.926   1.892   7.853  0.0367 -0.2002 -0.4133
  112POPC   GL1 1828   2.789   1.899   7.463  0.2782  0.2234  0.1115
  112POPC   GL2 1829   2.784   1.718   7.337 -0.2590  0.4354  0.1256
  112POPC   C1A 1830   2.385   2.004   7.282  0.1277 -0.0023 -0.3807
  112POPC   D2A 1831   2.377   2.044   6.814 -0.3334 -0.2099 -0.2510
  112POPC   C3A 1832   2.334   2.527   6.653 -0.4429  0.1871  0.2680
  112POPC   C4A 1833   2.397   2.882   6.999 -0.1323 -0.3618 -0.1248
  112POPC   C1B 1834   2.747   1.770   6.803 -0.1074  0.1109  0.0791
  112POPC   C2B 1835   2.580   1.889   6.394  0.1021  0.1190 -0.0638
  112POPC   C3B 1836   2.412   2.188   6.301 -0.1579 -0.1911 -0.0157
  112POPC   C4B 1837   2.414   2.683   6.191  0.1291  0.0596  0.0256
  113POPC   NC3 1838   4.821   0.055   7.737 -0.2365 -0.0390 -0.1011
  113POPC   PO4 1839   4.934   0.419   7.955  0.0762 -0.0757 -0.0754
  113POPC   GL1 1840   5.201   0.379   7.630 -0.3735 -0.0018  0.1122
  113POPC   GL2 1841   5.471   0.294   7.761 -0.0185  0.1145  0.0965
  113POPC   C1A 1842   5.485   0.377   7.283  0.0645  0.4897  0.1892
  113POPC   D2A 1843   5.472   0.322   6.825 -0.0181  0.3557 -0.2974
  113POPC   C3A 1844   5.138   0.246   6.736  0.1349 -0.0925  0.0499
  113POPC   C4A 1845   4.935  -0.121   6.712 -0.0234  0.0623  0.3100
  113POPC   C1B 1846   5.567   0.696   7.635 -0.2055  0.0969  0.2053
  113POPC   C2B 1847   5.765   1.027   7.348  0.1343 -0.0674  0.0454
  113POPC   C3B 1848   5.574   1.258   6.955 -0.1389  0.3254 -0.0754
  113POPC   C4B 1849   5.620   1.236   6.569 -0.2542 -0.3896  0.1929
  114POPC   NC3 1850   5.943   5.877   8.632  0.1634  0.2206  0.2825
  114POPC   PO4 1851   5.851   6.034   8.268 -0.2223 -0.0372  0.1897
  114POPC   GL1 1852   5.833   5.827   7.862  0.0190 -0.0847  0.3019
  114POPC   GL2 1853   5.582   5.760   7.754 -0.0067  0.0251 -0.0229
  114POPC   C1A 1854   5.945   5.680   7.402 -0.0386  0.1288  0.2778
  114POPC   D2A 1855   6.065   5.577   6.966  0.1440 -0.0868  0.0822
  114POPC   C3A 1856   5.837   5.645   6.590  0.2840 -0.2055 -0.4228
  114POPC   C4A 1857   5.725   6.015   6.347  0.0120  0.3340  0.0880
  114POPC   C1B 1858   5.220   5.807   7.397  0.2249 -0.2287 -0.0675
  114POPC   C2B 1859   5.062   5.596   7.166 -0.0188  0.1295 -0.0901
  114POPC   C3B 1860   4.937   5.532   6.893 -0.0371 -0.1026 -0.0573
  114POPC   C4B 1861   4.575   5.702   6.627  0.1450 -0.1203 -0.2269
  115POPC   NC3 1862   4.684   7.997   7.786  0.2876 -0.1962 -0.1802
  115POPC   PO4 1863   4.789   7.618   7.720 -0.0302  0.4829  0.0206
  115POPC   GL1 1864   4.781   7.300   7.378  0.2390  0.2244 -0.0114
  115POPC   GL2 1865   5.074   7.505   7.299 -0.4439  0.0076  0.1502
  115POPC   C1A 1866   4.891   7.105   7.036 -0.1984  0.1775  0.0881
  115POPC   D2A 1867   4.753   7.044   6.702  0.0700 -0.1312  0.4002
  115POPC   C3A 1868   4.972   6.741   6.527 -0.1691 -0.0451  0.0646
  115POPC   C4A 1869   5.151   6.363   6.351 -0.1516 -0.1004  0.3511
  115POPC   C1B 1870   5.189   7.492   6.828 -0.3116 -0.0257  0.0973
  115POPC   C2B 1871   5.262   7.174   6.523  0.1111 -0.2704 -0.0005
  115POPC   C3B 1872   5.502   6.740   6.425 -0.3101 -0.0740 -0.1275
  115POPC   C4B 1873   5.492   6.345   6.704 -0.1583 -0.1373  0.2059
  116POPC   NC3 1874   0.398   8.435   7.824 -0.3106 -0.0720  0.2745
  116POPC   PO4 1875   0.706   8.183   8.052 -0.1356 -0.1934 -0.0043
  116POPC   GL1 1876   0.888   8.233   7.706 -0.4218  0.0759 -0.0407
  116POPC   GL2 1877   1.269   8.266   7.623  0.1247  0.0418 -0.2158
  116POPC   C1A 1878   0.787   8.057   7.363  0.2225 -0.0217 -0.2040
  116POPC   D2A 1879   0.501   7.865   7.143 -0.4259 -0.1925 -0.2494
  116POPC   C3A 1880   0.320   7.517   7.230 -0.0525  0.1503  0.1662
  116POPC   C4A 1881   0.463   7.188   7.090 -0.1302 -0.3037  0.1166
  116POPC   C1B 1882   1.197   8.384   7.293 -0.1528  0.0746  0.1950
  116POPC   C2B 1883   1.131   8.295   6.765  0.1836  0.1809 -0.0913
  116POPC   C3B 1884   1.375   8.193   6.405 -0.2978  0.0184 -0.0065
  116POPC   C4B 1885   1.501   7.979   5.997 -0.0214 -0.1874 -0.1897
  117POPC   NC3 1886   3.873   6.613   8.129  0.3720  0.0651  0.1504
  117POPC   PO4 1887   4.108   6.987   8.118 -0.0476  0.1761 -0.1963
  117POPC   GL1 1888   4.174   7.127   7.746  0.3023  0.1717  0.0765
  117POPC   GL2 1889   4.449   6.975   7.603 -0.2322  0.1600  0.0494
  117POPC   C1A 1890   3.803   7.163   7.392 -0.0954  0.2267  0.1610
  117POPC   D2A 1891   3.518   6.984   7.222  0.1003 -0.1542 -0.0682
  117POPC   C3A 1892   3.468   6.688   6.829 -0.2829  0.2774 -0.2326
  117POPC   C4A 1893   3.594   6.413   6.561 -0.3759  0.0976 -0.1457
  117POPC   C1B 1894   4.440   6.700   7.154  0.0309 -0.0876 -0.1217
  117POPC   C2B 1895   4.380   6.657   6.779 -0.0017 -0.0413 -0.0348
  117POPC   C3B 1896   4.557   6.425   6.434 -0.0165  0.0344  0.1506
  117POPC   C4B 1897   4.492   6.385   5.988 -0.1788 -0.1055 -0.1997
  118POPC   NC3 1898   8.520   1.541   8.402  0.2255 -0.0036  0.0449
  118POPC   PO4 1899   8.488   1.924   8.230 -0.1943 -0.1896  0.0566
  118POPC   GL1 1900   8.568   1.674   7.882 -0.1332 -0.3722 -0.0781
  118POPC   GL2 1901   8.474   1.347   7.956  0.0593 -0.0866 -0.0959
  118POPC   C1A 1902   8.646   1.631   7.487  0.0473 -0.2405  0.2682
  118POPC   D2A 1903   8.843   1.517   7.191 -0.1797 -0.1176  0.1640
  118POPC   C3A 1904   8.685   1.618   6.784 -0.2163  0.0927  0.1902
  118POPC   C4A 1905   8.640   1.686   6.398 -0.1793 -0.0986 -0.2638
  118POPC   C1B 1906   8.122   1.331   7.670  0.1790  0.0665  0.0361
  118POPC   C2B 1907   7.811   1.679   7.484  0.2102  0.0055  0.0045
  118POPC   C3B 1908   7.606   1.928   7.101  0.1441 -0.0203  0.2307
  118POPC   C4B 1909   7.403   1.966   6.796 -0.2084  0.3556  0.0589
  119POPC   NC3 1910   6.653   1.052   7.987  0.0193 -0.0530 -0.1298
  119POPC   PO4 1911   6.808   0.930   8.352 -0.0696 -0.0102  0.5627
  119POPC   GL1 1912   7.152   0.905   7.953  0.1078  0.1732  0.0272
  119POPC   GL2 1913   7.319   0.997   7.763  0.1173  0.0136  0.2246
  119POPC   C1A 1914   6.992   0.610   7.588  0.1763  0.0288  0.0804
  119POPC   D2A 1915   6.853   0.490   7.278  0.1315  0.0265 -0.2446
  119POPC   C3A 1916   6.930   0.779   6.907  0.1923 -0.1099  0.1410
  119POPC   C4A 1917   7.079   1.212   6.677  0.0329  0.0333  0.1964
  119POPC   C1B 1918   7.645   1.121   7.467  0.3501  0.0060 -0.3681
  119POPC   C2B 1919   7.751   1.174   7.201 -0.1958 -0.0126  0.0914
  119POPC   C3B 1920   7.985   1.469   7.039 -0.0885  0.1146  0.0974
  119POPC   C4B 1921   8.369   1.412   7.150 -0.0728 -0.4905 -0.0036
  120POPC   NC3 1922   4.443   2.754   8.306  0.2159  0.0254 -0.1744
  120POPC   PO4 1923   4.105   2.753   7.952  0.0290 -0.2854  0.2170
  120POPC   GL1 1924   4.210   3.125   7.691  0.2502  0.1266 -0.0236
  120POPC   GL2 1925   4.057   3.408   7.774  0.1648  0.0089 -0.1487
  120POPC   C1A 1926   4.495   3.376   7.378 -0.3265 -0.1400 -0.4975
  120POPC   D2A 1927   4.274   3.438   7.003  0.1088 -0.3919  0.1123
  120POPC   C3A 1928   4.288   3.061   6.754  0.0374 -0.2344  0.2882
  120POPC   C4A 1929   3.920   2.887   6.451 -0.2014 -0.0583  0.3712
  120POPC   C1B 1930   3.954   3.387   7.340  0.2812  0.0747  0.0438
  120POPC   C2B 1931   3.886   3.144   7.032 -0.0765 -0.1186  0.0333
  120POPC   C3B 1932   3.702   2.724   7.016 -0.0445 -0.4039  0.1509
  120POPC   C4B 1933   3.898   2.356   6.929  0.2570 -0.2151  0.0028
  121POPC   NC3 1934   2.846   7.662   8.201  0.1118 -0.1434  0.1412
  121POPC   PO4 1935   2.441   7.505   8.269 -0.1243  0.0861 -0.1671
  121POPC   GL1 1936   2.577   7.433   7.818 -0.3336  0.2212  0.0742
  121POPC   GL2 1937   2.925   7.437   7.779  0.2268  0.2117 -0.0209
  121POPC   C1A 1938   2.397   7.447   7.354  0.2584 -0.2651 -0.2406
  121POPC   D2A 1939   2.315   7.627   6.946  0.2320  0.4270  0.0014
  121POPC   C3A 1940   2.606   7.547   6.551 -0.1570 -0.1035 -0.1476
  121POPC   C4A 1941   2.978   7.775   6.453 -0.0078 -0.0957  0.1055
  121POPC   C1B 1942   3.059   7.191   7.432  0.1373 -0.0255  0.0227
  121POPC   C2B 1943   3.093   6.983   6.916  0.3324  0.0723 -0.1365
  121POPC   C3B 1944   3.369   7.077   6.595 -0.0472  0.2533 -0.0192
  121POPC   C4B 1945   3.582   6.812   6.278  0.0545 -0.1816  0.0789
  122POPC   NC3 1946   8.820   5.696   9.561  0.4481  0.3315 -0.0552
  122POPC   PO4 1947   8.581   5.300   9.343 -0.0227  0.2360 -0.4325
  122POPC   GL1 1948   8.787   5.233   8.969  0.1807  0.0157  0.0620
  122POPC   GL2 1949   8.552   5.099   8.614 -0.2344  0.0079 -0.0643
  122POPC   C1A 1950   9.103   5.329   8.752 -0.3087  0.0292 -0.2378
  122POPC   D2A 1951   9.257   5.284   8.309 -0.0707  0.0354 -0.2958
  122POPC   C3A 1952   9.060   5.028   8.062 -0.1981  0.2201  0.1059
  122POPC   C4A 1953   8.695   4.795   7.767  0.1237  0.0119  0.1495
  122POPC   C1B 1954   8.721   5.396   8.389 -0.2300  0.0520  0.2247
  122POPC   C2B 1955   8.978   5.618   8.110 -0.1218 -0.2320 -0.2925
  122POPC   C3B 1956   9.238   5.855   7.978 -0.3250  0.0571  0.3005
  122POPC   C4B 1957   9.443   6.128   8.329 -0.0235 -0.1483  0.2114
  123POPC   NC3 1958   9.636   1.779   8.441 -0.0809  0.0203 -0.0890
  123POPC   PO4 1959   9.956   1.638   8.336  0.3259 -0.1207  0.0933
  123POPC   GL1 1960  10.096   1.876   7.980 -0.1104 -0.0217  0.0653
  123POPC   GL2 1961  10.244   2.190   8.111 -0.0898 -0.2147 -0.0938
  123POPC   C1A 1962  10.202   1.848   7.464 -0.5301 -0.2036 -0.0462
  123POPC   D2A 1963  10.374   1.779   7.178 -0.0684 -0.0382 -0.0357
  123POPC   C3A 1964  10.443   1.968   6.786  0.0529 -0.3547 -0.2910
  123POPC   C4A 1965  10.208   2.279   6.575  0.1206 -0.1638 -0.0496
  123POPC   C1B 1966  10.206   2.298   7.758  0.2088 -0.0202 -0.0250
  123POPC   C2B 1967  10.479   2.316   7.356  0.2675  0.2260  0.1151
  123POPC   C3B 1968  10.732   2.325   7.052 -0.4706  0.1243 -0.0672
  123POPC   C4B 1969  10.986   2.328   6.697 -0.2577 -0.0198  0.0282
  124POPC   NC3 1970   5.400   7.290   8.030 -0.0026  0.3900 -0.0236
  124POPC   PO4 1971   5.446   7.139   7.645  0.0571  0.0632  0.0661
  124POPC   GL1 1972   5.372   7.077   7.176  0.0317  0.2242  0.2407
  124POPC   GL2 1973   5.590   7.127   6.953 -0.0916 -0.0546  0.0910
  124POPC   C1A 1974   5.266   6.738   6.982  0.0264 -0.1844 -0.2585
  124POPC   D2A 1975   4.805   6.476   6.917 -0.3920 -0.0092  0.0822
  124POPC   C3A 1976   4.956   6.099   6.856 -0.0122 -0.2079 -0.1546
  124POPC   C4A 1977   5.321   5.815   6.562  0.1245 -0.1476  0.0782
  124POPC   C1B 1978   5.711   7.445   6.856 -0.1649 -0.5077 -0.0187
  124POPC   C2B 1979   5.805   7.810   6.729  0.1086 -0.1007  0.2327
  124POPC   C3B 1980   5.769   8.281   6.891 -0.0268  0.2904 -0.5202
  124POPC   C4B 1981   6.116   8.507   7.216 -0.3686  0.1290 -0.0119
  125POPC   NC3 1982   9.240   4.433   9.431  0.0465 -0.1324  0.1741
  125POPC   PO4 1983   9.698   4.336   9.256 -0.0086 -0.0504  0.1335
  125POPC   GL1 1984   9.703   4.382   8.890 -0.0771 -0.1245 -0.2035
  125POPC   GL2 1985   9.633   4.331   8.584 -0.1013  0.1293 -0.0524
  125POPC   C1A 1986   9.549   4.809   8.692 -0.0515  0.0990  0.2582
  125POPC   D2A 1987   9.751   5.121   8.354  0.0099  0.3825 -0.0995
  125POPC   C3A 1988   9.635   5.181   7.980 -0.0015  0.3088  0.1887
  125POPC   C4A 1989   9.261   5.326   7.727  0.0951 -0.0275  0.0849
  125POPC   C1B 1990   9.907   4.210   8.256 -0.3053  0.2523  0.2427
  125POPC   C2B 1991   9.792   3.898   7.895  0.1827 -0.2936  0.0693
  125POPC   C3B 1992   9.417   3.883   7.545 -0.2858 -0.3027 -0.1350
  125POPC   C4B 1993   9.220   4.337   7.273 -0.1954 -0.0622  0.0334
  126POPC   NC3 1994   1.498   7.165   9.098 -0.2006  0.1963  0.3237
  126POPC   PO4 1995   1.494   7.450   8.731  0.1305 -0.1641 -0.0475
  126POPC   GL1 1996   1.709   6.972   8.639  0.1391 -0.1683 -0.4902
  126POPC   GL2 1997   1.996   6.757   8.876  0.0617  0.0286  0.1897
  126POPC   C1A 1998   1.830   6.706   8.324  0.0962  0.0404 -0.0116
  126POPC   D2A 1999   1.850   6.667   7.849  0.3209  0.2517 -0.2304
  126POPC   C3A 2000   1.624   6.382   7.658 -0.1227  0.3117  0.1877
  126POPC   C4A 2001   1.619   5.977   7.464 -0.3430  0.1482  0.1367
  126POPC   C1B 2002   2.173   6.419   8.586 -0.1988 -0.0365 -0.0786
  126POPC   C2B 2003   1.986   6.205   8.194  0.1352 -0.0448 -0.1538
  126POPC   C3B 2004   1.606   5.957   8.011  0.2250 -0.0927  0.2356
  126POPC   C4B 2005   1.774   5.606   7.904  0.0041 -0.0133  0.0259
  127POPC   NC3 2006  10.441   7.821   9.103  0.1445 -0.0044  0.1191
  127POPC   PO4 2007  10.409   7.734   8.656 -0.4081 -0.2869  0.0739
  127POPC   GL1 2008  10.504   7.890   8.365 -0.1786  0.3033  0.3812
  127POPC   GL2 2009  10.306   7.921   8.181 -0.2862  0.4415  0.0207
  127POPC   C1A 2010  10.826   7.957   8.085 -0.4240 -0.1759 -0.2941
  127POPC   D2A 2011  10.948   7.932   7.712 -0.2255  0.1863 -0.1188
  127POPC   C3A 2012  11.316   7.670   7.679 -0.0489 -0.0410  0.0701
  127POPC   C4A 2013  11.511   7.517   7.268 -0.0639 -0.0829 -0.1177
  127POPC   C1B 2014  10.423   8.149   7.724 -0.0993  0.0921  0.0552
  127POPC   C2B 2015  10.577   7.833   7.364 -0.0828 -0.2931 -0.0742
  127POPC   C3B 2016  10.748   7.809   6.852  0.0193  0.3065 -0.1637
  127POPC   C4B 2017  10.879   7.994   6.556 -0.3434  0.0360  0.0779
  128POPC   NC3 2018   1.832   1.330   8.294  0.0531  0.1905 -0.0939
  128POPC   PO4 2019   1.932   1.623   7.862 -0.3524  0.3154  0.1954
  128POPC   GL1 2020   1.771   1.944   7.559  0.0386  0.2067 -0.0803
  128POPC   GL2 2021   2.039   2.165   7.535 -0.0578 -0.2012 -0.2234
  128POPC   C1A 2022   1.454   2.060   7.176 -0.2127 -0.0473  0.1421
  128POPC   D2A 2023   1.230   2.161   6.774 -0.0099  0.0152  0.1848
  128POPC   C3A 2024   1.487   2.066   6.381  0.0273 -0.0336 -0.1855
  128POPC   C4A 2025   1.371   1.918   6.015 -0.1746 -0.0700  0.1383
  128POPC   C1B 2026   2.141   2.407   7.141  0.1677 -0.2940 -0.0697
  128POPC   C2B 2027   1.925   2.739   6.857  0.0080 -0.2616 -0.0068
  128POPC   C3B 2028   2.072   3.146   6.706 -0.0178 -0.3117 -0.0670
  128POPC   C4B 2029   1.956   3.568   6.743  0.1426 -0.0689  0.1978
  129POPC   NC3 2030   7.802   3.389   8.704  0.0209 -0.0999 -0.0039
  129POPC   PO4 2031   7.961   3.039   8.459  0.1600 -0.1922  0.4499
  129POPC   GL1 2032   8.219   3.089   8.127  0.0664 -0.2952 -0.0655
  129POPC   GL2 2033   8.439   3.340   8.111  0.3928 -0.0211 -0.0828
  129POPC   C1A 2034   8.330   3.030   7.723  0.0186 -0.0688 -0.1484
  129POPC   D2A 2035   8.719   3.111   7.488 -0.2952  0.1190  0.2416
  129POPC   C3A 2036   8.648   2.879   7.102  0.0923  0.1836  0.0494
  129POPC   C4A 2037   8.682   2.522   6.776  0.3075  0.0530 -0.1194
  129POPC   C1B 2038   8.467   3.879   7.991  0.1124  0.0452  0.4381
  129POPC   C2B 2039   8.699   4.236   8.035  0.1849 -0.1422  0.0998
  129POPC   C3B 2040   8.897   4.494   8.308  0.0220 -0.1797 -0.0824
  129POPC   C4B 2041   9.078   4.866   8.535  0.0902 -0.3017 -0.1640
  130POPC   NC3 2042   0.275  10.517   7.693 -0.0869  0.0766  0.1350
  130POPC   PO4 2043  -0.231  10.398   7.796  0.0220 -0.2420 -0.0452
  130POPC   GL1 2044  -0.280  10.609   7.410 -0.4025 -0.3685  0.2136
  130POPC   GL2 2045  -0.083  10.745   7.432 -0.2904  0.1183 -0.1936
  130POPC   C1A 2046  -0.445  10.471   7.028  0.0810  0.0468  0.0929
  130POPC   D2A 2047  -0.855  10.495   6.893 -0.0344 -0.1479  0.2457
  130POPC   C3A 2048  -0.962  10.889   6.698  0.0055  0.5490 -0.1467
  130POPC   C4A 2049  -1.232  11.205   6.510 -0.1181  0.1627  0.0466
  130POPC   C1B 2050   0.015  10.758   7.011 -0.1843  0.0391  0.0428
  130POPC   C2B 2051   0.214  10.915   6.657  0.1982  0.2849  0.2392
  130POPC   C3B 2052   0.485  11.026   6.256  0.1906  0.2024 -0.1171
  130POPC   C4B 2053   0.608  10.962   5.849 -0.0852 -0.1601 -0.1163
  131POPC   NC3 2054   8.426   3.256   8.600  0.3967 -0.0378  0.2321
  131POPC   PO4 2055   8.681   3.589   8.855 -0.2083  0.3559 -0.1260
  131POPC   GL1 2056   8.829   3.725   8.289 -0.3088 -0.0379  0.0234
  131POPC   GL2 2057   9.006   4.038   8.361  0.0519  0.1985 -0.0032
  131POPC   C1A 2058   8.949   3.870   7.860  0.1258 -0.0561 -0.1704
  131POPC   D2A 2059   8.962   3.786   7.388  0.1623 -0.2861 -0.2302
  131POPC   C3A 2060   8.797   4.111   7.041  0.3980  0.1011 -0.1792
  131POPC   C4A 2061   8.344   4.164   6.859 -0.1696  0.1281 -0.1546
  131POPC   C1B 2062   9.284   4.144   8.071  0.0486  0.3264 -0.1966
  131POPC   C2B 2063   9.548   4.318   7.916 -0.2421 -0.1355 -0.1778
  131POPC   C3B 2064   9.534   4.637   7.719  0.0275  0.3665  0.0968
  131POPC   C4B 2065   9.235   4.885   7.518 -0.1521  0.0322  0.0103
  132POPC   NC3 2066   7.830   4.297   8.587  0.0662  0.3340  0.4652
  132POPC   PO4 2067   7.837   3.944   8.521 -0.1846  0.0479  0.0597
  132POPC   GL1 2068   7.980   4.009   8.128  0.1695  0.0167 -0.2139
  132POPC   GL2 2069   8.093   4.285   8.180  0.2196 -0.0127 -0.2337
  132POPC   C1A 2070   8.087   3.976   7.647  0.3730 -0.2747  0.0442
  132POPC   D2A 2071   8.498   3.964   7.471  0.0924 -0.1913 -0.2315
  132POPC   C3A 2072   8.736   4.257   7.508  0.1019  0.0199  0.1895
  132POPC   C4A 2073   9.059   4.481   7.794  0.2005 -0.0097  0.2579
  132POPC   C1B 2074   8.306   4.401   7.813  0.0806 -0.3852 -0.0183
  132POPC   C2B 2075   8.217   4.436   7.426 -0.0253  0.2121 -0.3219
  132POPC   C3B 2076   8.171   4.562   7.029  0.0334  0.3281 -0.0431
  132POPC   C4B 2077   8.165   4.499   6.553 -0.3640  0.2008 -0.3205
  133POPC   NC3 2078   6.528   3.112   8.570 -0.0774 -0.1347  0.1315
  133POPC   PO4 2079   6.555   3.264   8.078 -0.2160  0.3169  0.3040
  133POPC   GL1 2080   6.278   3.411   7.824  0.0755  0.0957  0.0525
  133POPC   GL2 2081   5.836   3.293   7.740 -0.1842  0.4289 -0.2236
  133POPC   C1A 2082   6.189   3.352   7.375  0.1970 -0.1496  0.1271
  133POPC   D2A 2083   6.090   3.307   6.919  0.1525 -0.4531  0.0471
  133POPC   C3A 2084   6.159   3.684   6.530 -0.0019  0.0977 -0.1496
  133POPC   C4A 2085   6.183   3.856   6.100  0.1168  0.1518 -0.0127
  133POPC   C1B 2086   5.655   3.278   7.347  0.0796 -0.2472 -0.1742
  133POPC   C2B 2087   5.724   2.998   6.996  0.2072 -0.0185  0.0649
  133POPC   C3B 2088   5.583   3.044   6.594  0.1447  0.1353  0.1449
  133POPC   C4B 2089   5.488   3.330   6.250  0.1998 -0.0811 -0.2962
  134POPC   NC3 2090   6.088   1.953   7.867  0.0669 -0.1243 -0.3366
  134POPC   PO4 2091   6.537   2.034   8.171 -0.0412 -0.3778  0.1997
  134POPC   GL1 2092   6.550   1.946   7.678 -0.2258  0.1113 -0.3139
  134POPC   GL2 2093   6.873   1.804   7.456 -0.1611 -0.2620  0.0254
  134POPC   C1A 2094   6.404   1.754   7.261  0.1610  0.1257  0.0646
  134POPC   D2A 2095   6.405   1.717   6.950 -0.3730 -0.2579  0.1591
  134POPC   C3A 2096   6.688   1.616   6.692 -0.0482  0.0079 -0.0239
  134POPC   C4A 2097   7.086   1.731   6.555 -0.3202  0.7837 -0.0179
  134POPC   C1B 2098   6.983   2.029   7.211  0.0151  0.0011 -0.0112
  134POPC   C2B 2099   6.847   2.049   6.835  0.0664 -0.3531 -0.1631
  134POPC   C3B 2100   7.140   2.247   6.419  0.1742 -0.0395  0.0340
  134POPC   C4B 2101   7.369   2.347   6.034 -0.1145  0.1308 -0.1265
  135POPC   NC3 2102   2.107   8.400   8.151 -0.0281 -0.1284 -0.3658
  135POPC   PO4 2103   2.413   8.673   7.937  0.2311 -0.2767  0.1987
  135POPC   GL1 2104   2.305   8.329   7.699 -0.0626  0.0725 -0.0797
  135POPC   GL2 2105   1.964   8.338   7.582 -0.0642  0.0602  0.1355
  135POPC   C1A 2106   2.333   8.206   7.289 -0.1375  0.0712 -0.2085
  135POPC   D2A 2107   2.193   8.232   6.976  0.0484 -0.2368  0.1125
  135POPC   C3A 2108   1.965   7.932   6.797  0.1739  0.0100  0.1280
  135POPC   C4A 2109   1.914   7.776   6.426 -0.0095  0.0734 -0.2663
  135POPC   C1B 2110   1.768   8.140   7.352 -0.1384 -0.1068 -0.0818
  135POPC   C2B 2111   1.467   7.911   7.337  0.0837  0.1629  0.3148
  135POPC   C3B 2112   1.358   7.509   7.162 -0.4761 -0.2471  0.0763
  135POPC   C4B 2113   1.431   7.040   6.921 -0.2313 -0.0532 -0.1209
  136POPC   NC3 2114   0.246   9.729   8.078 -0.0741 -0.1390  0.2260
  136POPC   PO4 2115   0.192   9.960   7.707  0.3979 -0.1722  0.0060
  136POPC   GL1 2116   0.206  10.140   7.265 -0.2933 -0.3686 -0.2387
  136POPC   GL2 2117   0.397  10.527   7.222  0.0194  0.1713  0.1825
  136POPC   C1A 2118  -0.125  10.155   7.164  0.0224 -0.0106 -0.1646
  136POPC   D2A 2119  -0.401   9.854   7.057 -0.0502 -0.0296  0.1088
  136POPC   C3A 2120  -0.502   9.590   6.799 -0.0737  0.0159  0.0227
  136POPC   C4A 2121  -0.266   9.294   6.912  0.7182  0.4308  0.1409
  136POPC   C1B 2122   0.245  10.362   6.782 -0.0427  0.1885  0.3553
  136POPC   C2B 2123  -0.181  10.046   6.662 -0.0619 -0.1057 -0.0361
  136POPC   C3B 2124  -0.513  10.236   6.394 -0.0137  0.1662  0.2552
  136POPC   C4B 2125  -0.837  10.561   6.340 -0.0290 -0.0680  0.1324
  137POPC   NC3 2126   5.500   3.741   8.122 -0.0548 -0.1514  0.2891
  137POPC   PO4 2127   5.229   3.568   8.287  0.2022 -0.0389 -0.2046
  137POPC   GL1 2128   5.241   3.416   7.798  0.0894 -0.2623  0.0297
  137POPC   GL2 2129   5.278   3.533   7.588 -0.1301  0.0808 -0.0062
  137POPC   C1A 2130   4.976   3.194   7.413  0.1061 -0.0793 -0.1453
  137POPC   D2A 2131   4.737   3.142   7.042 -0.0603  0.3002  0.0288
  137POPC   C3A 2132   4.792   2.839   6.636  0.1002 -0.1063 -0.0870
  137POPC   C4A 2133   4.794   2.500   6.503  0.3237  0.0760 -0.0608
  137POPC   C1B 2134   5.276   3.556   7.241  0.4022  0.1432 -0.0652
  137POPC   C2B 2135   5.092   3.813   6.881  0.0206  0.1455 -0.0962
  137POPC   C3B 2136   4.891   4.158   6.589 -0.1159 -0.4352 -0.1096
  137POPC   C4B 2137   4.627   4.332   6.285 -0.1508  0.1119  0.0832
  138POPC   NC3 2138   5.468  10.195   8.059  0.2178  0.1018 -0.2026
  138POPC   PO4 2139   5.356   9.760   7.871 -0.0699 -0.0921  0.1502
  138POPC   GL1 2140   5.604   9.611   7.474  0.2723 -0.2054  0.0047
  138POPC   GL2 2141   5.596   9.314   7.357  0.1422 -0.1230  0.1343
  138POPC   C1A 2142   5.560   9.619   6.998  0.1162 -0.2562 -0.1447
  138POPC   D2A 2143   5.795   9.512   6.669  0.1675 -0.0110  0.3504
  138POPC   C3A 2144   6.122   9.480   6.635 -0.0755 -0.3515  0.1133
  138POPC   C4A 2145   6.593   9.489   6.325 -0.1482  0.0198 -0.0385
  138POPC   C1B 2146   5.938   9.252   7.041 -0.0510 -0.3054  0.1108
  138POPC   C2B 2147   6.081   8.888   6.817  0.2264  0.0035  0.0854
  138POPC   C3B 2148   6.165   8.498   6.607  0.1741 -0.3945  0.0513
  138POPC   C4B 2149   6.033   8.103   6.432 -0.0180  0.2000  0.0559
  139POPC   NC3 2150   4.184   9.118   7.609 -0.0128  0.4531  0.4295
  139POPC   PO4 2151   4.725   9.187   7.624  0.0993 -0.2369  0.1214
  139POPC   GL1 2152   4.579   9.341   7.204  0.1578 -0.2385  0.2811
  139POPC   GL2 2153   4.460   9.107   7.125 -0.1457  0.0885 -0.2229
  139POPC   C1A 2154   4.545   9.552   6.802 -0.1284 -0.0885 -0.1976
  139POPC   D2A 2155   4.806   9.868   6.613  0.0671 -0.2251  0.1123
  139POPC   C3A 2156   4.780  10.221   6.336  0.3627  0.1620 -0.2046
  139POPC   C4A 2157   4.994  10.327   6.025  0.1256 -0.1958 -0.0327
  139POPC   C1B 2158   4.654   8.972   6.765  0.1214  0.3109 -0.0624
  139POPC   C2B 2159   4.542   8.758   6.404  0.0836  0.0576 -0.1068
  139POPC   C3B 2160   4.561   8.521   6.092  0.0570 -0.1581 -0.0613
  139POPC   C4B 2161   4.739   8.458   5.804 -0.0285 -0.2202  0.0144
  140POPC   NC3 2162   3.142   9.732   8.461 -0.0848  0.0200 -0.0449
  140POPC   PO4 2163   2.942   9.810   8.027  0.2293  0.1099 -0.1770
  140POPC   GL1 2164   2.794   9.912   7.582  0.2262 -0.2787  0.1042
  140POPC   GL2 2165   2.474   9.667   7.483  0.2078  0.1442 -0.0311
  140POPC   C1A 2166   2.685   9.969   7.127  0.0776 -0.1548 -0.1310
  140POPC   D2A 2167   2.489  10.249   6.907 -0.0832 -0.2532  0.0431
  140POPC   C3A 2168   2.560  10.654   6.976 -0.2191  0.1202 -0.1047
  140POPC   C4A 2169   2.798  11.051   6.884 -0.0442 -0.3720  0.0676
  140POPC   C1B 2170   2.406   9.302   7.161  0.4350  0.2022 -0.1530
  140POPC   C2B 2171   2.373   9.253   6.757  0.0201 -0.1725 -0.0962
  140POPC   C3B 2172   2.099   9.174   6.322  0.0793  0.0472 -0.2320
  140POPC   C4B 2173   2.079   8.911   6.030 -0.1541 -0.0427  0.0570
  141POPC   NC3 2174   3.732   8.457   8.153  0.2278 -0.0277  0.3356
  141POPC   PO4 2175   4.165   8.609   7.900  0.0091  0.0476 -0.4624
  141POPC   GL1 2176   3.838   8.427   7.556  0.2985 -0.3001  0.0551
  141POPC   GL2 2177   3.865   8.575   7.216  0.0619  0.1404 -0.0345
  141POPC   C1A 2178   4.062   8.129   7.187 -0.0679 -0.1245 -0.0994
  141POPC   D2A 2179   4.418   8.018   7.207 -0.3397  0.0981 -0.0588
  141POPC   C3A 2180   4.413   7.622   7.194 -0.0136  0.2465  0.4511
  141POPC   C4A 2181   4.350   7.239   7.110  0.0293  0.3642  0.2019
  141POPC   C1B 2182   4.140   8.559   6.900 -0.0733  0.3529  0.1062
  141POPC   C2B 2183   4.069   8.586   6.434  0.2403 -0.0503  0.0367
  141POPC   C3B 2184   4.058   8.245   6.223  0.0008 -0.1769 -0.4575
  141POPC   C4B 2185   4.005   7.758   6.235  0.0610  0.2869 -0.0963
  142POPC   NC3 2186   9.407   2.622   8.501  0.3902  0.1153  0.1650
  142POPC   PO4 2187   9.325   2.212   8.523  0.2286 -0.0407 -0.0968
  142POPC   GL1 2188   9.228   2.323   8.079  0.0908  0.3083  0.1252
  142POPC   GL2 2189   9.323   2.673   7.988 -0.0706 -0.0487  0.2148
  142POPC   C1A 2190   9.283   2.372   7.561 -0.0132  0.0504  0.3560
  142POPC   D2A 2191   9.623   2.353   7.190 -0.1342 -0.0328  0.0481
  142POPC   C3A 2192   9.901   2.638   6.918 -0.0905 -0.0744  0.0156
  142POPC   C4A 2193  10.010   2.894   6.629  0.1082  0.0352  0.1256
  142POPC   C1B 2194   9.184   2.974   7.701 -0.0483 -0.0227 -0.2554
  142POPC   C2B 2195   9.183   3.324   7.479  0.0120 -0.2654  0.0565
  142POPC   C3B 2196   9.167   3.424   7.003  0.1730  0.2110 -0.1262
  142POPC   C4B 2197   9.536   3.519   6.912 -0.2736 -0.2463  0.0852
  143POPC   NC3 2198   4.855   1.880   8.028 -0.1703  0.3377 -0.2563
  143POPC   PO4 2199   4.546   2.276   8.074  0.2191 -0.0400 -0.0726
  143POPC   GL1 2200   4.393   2.338   7.766 -0.1283  0.0271  0.0512
  143POPC   GL2 2201   4.057   2.261   7.798  0.0694  0.1580 -0.2607
  143POPC   C1A 2202   4.650   2.294   7.320  0.0573  0.2360  0.2807
  143POPC   D2A 2203   4.715   2.060   6.941  0.0707  0.0492  0.2563
  143POPC   C3A 2204   5.166   2.113   6.607  0.0193 -0.0374  0.0459
  143POPC   C4A 2205   5.547   2.241   6.475 -0.1614  0.1132 -0.0465
  143POPC   C1B 2206   4.121   2.199   7.369 -0.1252  0.0117 -0.0108
  143POPC   C2B 2207   4.251   1.969   7.043 -0.1060  0.3116  0.1130
  143POPC   C3B 2208   4.137   1.982   6.631  0.2662 -0.0879  0.3108
  143POPC   C4B 2209   4.112   1.919   6.205 -0.1808 -0.1319 -0.0260
  144POPC   NC3 2210   5.050   4.930   8.439 -0.1871 -0.0173  0.0559
  144POPC   PO4 2211   5.151   4.769   8.054 -0.1998 -0.0508 -0.1170
  144POPC   GL1 2212   5.243   5.030   7.724 -0.1530 -0.2688 -0.1740
  144POPC   GL2 2213   5.544   4.937   7.569 -0.2502 -0.0311  0.0468
  144POPC   C1A 2214   4.970   5.294   7.527  0.0734  0.0981 -0.2192
  144POPC   D2A 2215   4.682   5.292   7.228 -0.4422  0.0176  0.1760
  144POPC   C3A 2216   4.651   4.957   7.063  0.0333  0.0560  0.0451
  144POPC   C4A 2217   4.643   4.631   6.719  0.1768 -0.1040 -0.2064
  144POPC   C1B 2218   5.524   5.404   7.416 -0.0520  0.0425  0.1886
  144POPC   C2B 2219   5.507   5.410   6.999 -0.3268  0.1915 -0.0008
  144POPC   C3B 2220   5.493   5.288   6.630  0.1245  0.0817 -0.2366
  144POPC   C4B 2221   5.300   5.274   6.217  0.0744  0.1654 -0.3028
  145POPC   NC3 2222   8.387   0.784   8.759  0.0192  0.2373  0.3948
  145POPC   PO4 2223   8.591   0.997   8.387  0.1016  0.1161 -0.3612
  145POPC   GL1 2224   8.694   0.883   7.969 -0.2134  0.1830 -0.1323
  145POPC   GL2 2225   8.864   1.085   7.763  0.0931  0.1103 -0.3586
  145POPC   C1A 2226   8.440   0.624   7.704  0.0216 -0.2305  0.1494
  145POPC   D2A 2227   8.138   0.371   7.515  0.2328  0.0677  0.0795
  145POPC   C3A 2228   7.795   0.117   7.306  0.0167  0.2026  0.2362
  145POPC   C4A 2229   7.913  -0.047   6.909  0.0772 -0.1477 -0.2199
  145POPC   C1B 2230   8.651   1.101   7.456  0.0060  0.1562 -0.1060
  145POPC   C2B 2231   8.750   1.074   6.945 -0.2261 -0.4278  0.1360
  145POPC   C3B 2232   8.671   1.085   6.506  0.2093 -0.0074  0.0540
  145POPC   C4B 2233   8.363   1.214   6.206 -0.1915 -0.1161  0.0678
  146POPC   NC3 2234   2.629   8.990   7.634  0.1562  0.1243 -0.0901
  146POPC   PO4 2235   2.951   9.365   7.709  0.2246  0.0485 -0.3299
  146POPC   GL1 2236   2.861   9.385   7.340  0.1369  0.1873 -0.0127
  146POPC   GL2 2237   3.105   9.514   7.174 -0.1618  0.0501  0.0014
  146POPC   C1A 2238   2.813   9.103   7.006 -0.2539  0.1578 -0.1584
  146POPC   D2A 2239   2.711   8.925   6.581 -0.2278 -0.1992 -0.1268
  146POPC   C3A 2240   2.657   9.054   6.222  0.1047 -0.4542  0.1586
  146POPC   C4A 2241   2.659   8.852   5.825  0.3158 -0.0542  0.0014
  146POPC   C1B 2242   2.712   9.560   6.911 -0.0242  0.2743  0.1024
  146POPC   C2B 2243   2.278   9.685   6.949 -0.0512  0.1808  0.2108
  146POPC   C3B 2244   1.886   9.501   6.776  0.0558  0.1133  0.0962
  146POPC   C4B 2245   1.526   9.229   6.849 -0.1352  0.2836 -0.3695
  147POPC   NC3 2246   6.589   7.814   8.311 -0.3050 -0.0144 -0.1427
  147POPC   PO4 2247   6.589   7.743   7.892 -0.0617  0.1544 -0.1341
  147POPC   GL1 2248   6.490   7.653   7.430  0.0025 -0.0623 -0.0515
  147POPC   GL2 2249   6.472   7.419   7.392 -0.0947 -0.3589  0.1511
  147POPC   C1A 2250   6.748   7.855   7.069 -0.0011 -0.2042  0.4665
  147POPC   D2A 2251   6.823   7.841   6.629  0.0213 -0.3694  0.1260
  147POPC   C3A 2252   7.229   7.790   6.394  0.1995 -0.0759 -0.3128
  147POPC   C4A 2253   7.585   7.589   6.133  0.2216  0.3040  0.2037
  147POPC   C1B 2254   6.413   7.436   6.955  0.1393  0.2353  0.2183
  147POPC   C2B 2255   6.299   7.144   6.662 -0.0318  0.1132 -0.1249
  147POPC   C3B 2256   6.493   6.918   6.308  0.3533  0.0526  0.0942
  147POPC   C4B 2257   6.732   6.649   6.002 -0.0098  0.0697  0.1025
  148POPC   NC3 2258   0.520   9.614   7.542 -0.0941  0.3406  0.1132
  148POPC   PO4 2259   0.989   9.674   7.571  0.2210 -0.2193  0.1912
  148POPC   GL1 2260   0.945   9.823   7.152  0.0105 -0.3045  0.0522
  148POPC   GL2 2261   0.674  10.029   6.993 -0.1394 -0.1841  0.1534
  148POPC   C1A 2262   0.973   9.631   6.714 -0.0441  0.0063  0.2012
  148POPC   D2A 2263   0.779   9.579   6.350  0.0309  0.0742 -0.1324
  148POPC   C3A 2264   0.751   9.133   6.302 -0.0215 -0.0725 -0.0225
  148POPC   C4A 2265   1.144   8.995   6.000  0.0661  0.2277  0.0256
  148POPC   C1B 2266   0.372   9.752   6.732 -0.0413  0.2538 -0.0830
  148POPC   C2B 2267   0.025   9.574   6.390 -0.0763 -0.2831 -0.4865
  148POPC   C3B 2268  -0.160   9.253   6.423 -0.2028 -0.0507 -0.0058
  148POPC   C4B 2269  -0.380   8.964   6.148 -0.1099 -0.1972  0.2015
  149POPC   NC3 2270   2.225   0.347   7.635 -0.0192  0.2601 -0.1062
  149POPC   PO4 2271   2.084  -0.107   7.544  0.4781 -0.0842  0.3917
  149POPC   GL1 2272   2.064  -0.123   7.155 -0.0654  0.1270 -0.1514
  149POPC   GL2 2273   1.725  -0.150   7.151  0.2141  0.1802 -0.0497
  149POPC   C1A 2274   2.062  -0.187   6.727  0.3380  0.0430 -0.3455
  149POPC   D2A 2275   1.882  -0.286   6.329  0.3665 -0.0592 -0.0195
  149POPC   C3A 2276   2.152  -0.090   6.040  0.2540 -0.4848 -0.0011
  149POPC   C4A 2277   2.452   0.096   5.655 -0.0619 -0.0687  0.1187
  149POPC   C1B 2278   1.553  -0.182   6.795  0.1555  0.2429  0.0828
  149POPC   C2B 2279   1.382  -0.351   6.351 -0.2802  0.1703 -0.0807
  149POPC   C3B 2280   1.556  -0.120   5.904  0.2711 -0.0836 -0.1564
  149POPC   C4B 2281   1.324   0.079   5.547 -0.4233 -0.3069 -0.1866
  150POPC   NC3 2282   1.740   2.192   8.969 -0.1741 -0.0208 -0.1219
  150POPC   PO4 2283   1.481   2.134   8.557  0.3072  0.1805 -0.0492
  150POPC   GL1 2284   1.474   2.192   8.071  0.0143  0.1739 -0.0042
  150POPC   GL2 2285   1.680   2.275   7.921  0.1697  0.1002 -0.0104
  150POPC   C1A 2286   1.237   1.990   7.668 -0.3335 -0.0301 -0.0584
  150POPC   D2A 2287   1.096   1.567   7.468 -0.3379 -0.1510 -0.1527
  150POPC   C3A 2288   1.171   1.653   6.983  0.2470  0.0813  0.0776
  150POPC   C4A 2289   1.494   1.724   6.731 -0.1905  0.1057 -0.0075
  150POPC   C1B 2290   1.431   2.432   7.551 -0.0023  0.2337 -0.2421
  150POPC   C2B 2291   1.346   2.768   7.463 -0.2296  0.0601  0.0291
  150POPC   C3B 2292   1.087   3.038   7.731  0.1137  0.1250  0.1954
  150POPC   C4B 2293   0.939   3.300   8.029  0.2734 -0.1980  0.1975
  151POPC   NC3 2294   7.017   7.969   7.910 -0.2682  0.1294  0.3982
  151POPC   PO4 2295   6.992   8.345   8.087  0.0591  0.1224 -0.3625
  151POPC   GL1 2296   6.716   8.310   7.681 -0.2876 -0.2269  0.0362
  151POPC   GL2 2297   7.025   8.442   7.430 -0.3138  0.6172 -0.2187
  151POPC   C1A 2298   6.515   8.174   7.301  0.0326  0.0794 -0.2990
  151POPC   D2A 2299   6.661   8.273   6.813  0.1173 -0.2383  0.0808
  151POPC   C3A 2300   6.550   8.122   6.397 -0.0005 -0.0194  0.0782
  151POPC   C4A 2301   6.498   8.490   6.153 -0.1384  0.0004  0.1295
  151POPC   C1B 2302   7.162   8.075   7.174  0.1749 -0.4740 -0.1937
  151POPC   C2B 2303   7.394   7.924   6.851  0.0016  0.0374  0.1012
  151POPC   C3B 2304   7.692   7.642   6.869  0.2848 -0.1131  0.1747
  151POPC   C4B 2305   7.966   7.380   7.065 -0.0541 -0.1790 -0.1065
  152POPC   NC3 2306   3.661   4.169   8.269 -0.0114  0.0423  0.2799
  152POPC   PO4 2307   3.906   4.503   8.468  0.2672  0.0047  0.1738
  152POPC   GL1 2308   3.611   4.768   8.241 -0.0533 -0.0069 -0.0702
  152POPC   GL2 2309   3.488   4.541   7.993 -0.3137  0.2065  0.0355
  152POPC   C1A 2310   3.490   5.045   7.849  0.2616 -0.0338 -0.0564
  152POPC   D2A 2311   3.317   5.197   7.379 -0.0535 -0.0632 -0.0965
  152POPC   C3A 2312   3.294   5.150   6.954  0.2195  0.3432 -0.1595
  152POPC   C4A 2313   3.290   4.902   6.744 -0.1435 -0.1384  0.2128
  152POPC   C1B 2314   3.470   4.602   7.533 -0.2847  0.1864 -0.0044
  152POPC   C2B 2315   3.510   4.182   7.269 -0.1750 -0.0031 -0.1809
  152POPC   C3B 2316   3.111   3.988   7.131 -0.0153  0.1481 -0.1548
  152POPC   C4B 2317   2.884   3.724   6.868 -0.0489 -0.2527  0.0077
  153POPC   NC3 2318   0.920   3.176   9.065 -0.0944  0.0709 -0.1108
  153POPC   PO4 2319   1.149   3.549   8.907  0.0881 -0.2608  0.0139
  153POPC   GL1 2320   0.927   3.937   8.852  0.1822  0.3866 -0.1196
  153POPC   GL2 2321   1.057   4.275   8.957  0.2043  0.0431  0.1481
  153POPC   C1A 2322   0.706   3.846   8.424  0.0449 -0.0379 -0.0872
  153POPC   D2A 2323   0.722   3.955   8.011 -0.1416 -0.2923  0.1173
  153POPC   C3A 2324   0.922   4.075   7.561  0.3999 -0.2497 -0.0092
  153POPC   C4A 2325   0.628   4.097   7.170 -0.3429 -0.0877  0.2367
  153POPC   C1B 2326   1.034   4.292   8.526 -0.2538  0.2638  0.1192
  153POPC   C2B 2327   0.683   4.408   8.210  0.0021 -0.2253  0.1572
  153POPC   C3B 2328   0.538   4.407   7.771  0.1590  0.1356 -0.1939
  153POPC   C4B 2329   0.308   4.104   7.528 -0.4769 -0.5866  0.3472
  154POPC   NC3 2330   4.148   0.746   8.220 -0.1102 -0.2109 -0.1775
  154POPC   PO4 2331   4.313   0.924   7.848  0.1865 -0.2416 -0.0892
  154POPC   GL1 2332   4.560   0.901   7.522 -0.1316  0.0301 -0.0078
  154POPC   GL2 2333   4.674   0.607   7.491  0.4729  0.5057  0.1406
  154POPC   C1A 2334   4.651   0.961   7.080 -0.1300  0.3871 -0.0353
  154POPC   D2A 2335   4.680   1.164   6.610  0.1700  0.1646 -0.2205
  154POPC   C3A 2336   4.373   1.382   6.274 -0.0184 -0.1197 -0.2750
  154POPC   C4A 2337   4.446   1.699   5.908 -0.0005 -0.2451 -0.0869
  154POPC   C1B 2338   4.270   0.574   7.249  0.0811  0.1556  0.0283
  154POPC   C2B 2339   4.064   0.440   6.870  0.0162 -0.1530  0.1422
  154POPC   C3B 2340   3.779   0.309   6.527 -0.0342  0.0037 -0.0404
  154POPC   C4B 2341   3.653   0.407   6.140 -0.2258 -0.0739 -0.0121
  155POPC   NC3 2342   9.527   0.401   7.993 -0.2598 -0.1785 -0.1884
  155POPC   PO4 2343   9.602  -0.066   8.029 -0.3218  0.0257 -0.0744
  155POPC   GL1 2344   9.658   0.031   7.619  0.1119 -0.0300 -0.2601
  155POPC   GL2 2345   9.450   0.068   7.483  0.1033  0.0277 -0.0575
  155POPC   C1A 2346   9.869   0.131   7.272 -0.4459  0.0880 -0.1049
  155POPC   D2A 2347  10.191   0.286   6.929  0.1558 -0.0900  0.1250
  155POPC   C3A 2348  10.272   0.042   6.632 -0.0728  0.1879 -0.0960
  155POPC   C4A 2349  10.653  -0.144   6.435 -0.0026  0.1918  0.0116
  155POPC   C1B 2350   9.439  -0.092   7.101  0.2391  0.1547 -0.1983
  155POPC   C2B 2351   9.047  -0.305   6.943  0.1074 -0.0102  0.1780
  155POPC   C3B 2352   8.617  -0.395   7.163  0.2286  0.0169  0.0912
  155POPC   C4B 2353   8.162  -0.439   7.219  0.4735  0.2000  0.1652
  156POPC   NC3 2354  10.420   4.932   9.128 -0.2484 -0.3523  0.3571
  156POPC   PO4 2355  10.572   5.288   9.455 -0.1679  0.3312 -0.1129
  156POPC   GL1 2356  10.869   5.235   9.119 -0.0705 -0.1843 -0.1207
  156POPC   GL2 2357  10.928   4.872   9.036 -0.0249 -0.3084 -0.2475
  156POPC   C1A 2358  11.149   5.343   8.790 -0.0984 -0.1154  0.0959
  156POPC   D2A 2359  11.626   5.252   8.585 -0.1359 -0.0187  0.0439
  156POPC   C3A 2360  11.603   5.321   8.162 -0.0050  0.0761 -0.2567
  156POPC   C4A 2361  11.375   5.604   7.949 -0.0239 -0.0569  0.0526
  156POPC   C1B 2362  10.672   4.827   8.569 -0.1380 -0.0654  0.0886
  156POPC   C2B 2363  10.425   4.659   8.273 -0.2180  0.2372  0.3883
  156POPC   C3B 2364   9.951   4.707   8.165  0.0915  0.1755  0.4977
  156POPC   C4B 2365   9.471   4.711   8.207  0.1752  0.1157 -0.1742
  157POPC   NC3 2366   9.543   1.020   8.819  0.2908  0.0848 -0.2250
  157POPC   PO4 2367   9.479   1.248   8.418  0.0676  0.0400  0.3765
  157POPC   GL1 2368   9.642   1.354   7.994  0.2388 -0.0726 -0.1520
  157POPC   GL2 2369   9.558   1.094   7.727  0.1930  0.2445  0.2569
  157POPC   C1A 2370  10.015   1.371   7.722 -0.1919 -0.3440  0.1585
  157POPC   D2A 2371  10.324   1.314   7.352 -0.1069 -0.1225 -0.1268
  157POPC   C3A 2372  10.200   1.354   6.964  0.0703 -0.0164  0.0367
  157POPC   C4A 2373  10.076   1.679   6.621  0.1297  0.0461  0.1934
  157POPC   C1B 2374   9.269   1.069   7.339  0.1658  0.1816  0.2339
  157POPC   C2B 2375   9.290   0.993   6.878 -0.0847  0.0156  0.0437
  157POPC   C3B 2376   9.592   1.008   6.444 -0.0835 -0.0763  0.1125
  157POPC   C4B 2377   9.853   0.817   6.123 -0.0194  0.3374 -0.0013
  158POPC   NC3 2378   9.142  10.134   7.875 -0.0402  0.2474 -0.1957
  158POPC   PO4 2379   9.167   9.737   7.673 -0.1357 -0.1739  0.2662
  158POPC   GL1 2380   9.090   9.503   7.366 -0.1880 -0.1286 -0.0152
  158POPC   GL2 2381   8.960   9.175   7.344 -0.2786  0.4718  0.0381
  158POPC   C1A 2382   8.967   9.471   6.904  0.0221 -0.3119  0.0014
  158POPC   D2A 2383   9.004   9.688   6.513 -0.3357  0.0701  0.0500
  158POPC   C3A 2384   9.223  10.054   6.560  0.2680  0.0417 -0.0764
  158POPC   C4A 2385   9.478  10.422   6.620  0.3164 -0.2512 -0.0006
  158POPC   C1B 2386   8.996   8.925   7.006  0.0538  0.1961  0.0673
  158POPC   C2B 2387   9.164   8.618   6.989 -0.2588 -0.1156  0.3624
  158POPC   C3B 2388   9.480   8.312   6.878 -0.0419  0.2084  0.0148
  158POPC   C4B 2389   9.736   8.029   6.956  0.0816  0.1141  0.2183
  159POPC   NC3 2390   1.431   6.519   9.620 -0.0023  0.2329  0.1729
  159POPC   PO4 2391   1.702   6.178   9.407  0.1039  0.1300 -0.2805
  159POPC   GL1 2392   1.587   6.175   8.969  0.1282  0.0305  0.2007
  159POPC   GL2 2393   1.187   6.253   9.039  0.0273 -0.1421  0.2124
  159POPC   C1A 2394   1.676   6.434   8.667  0.0000  0.1316 -0.1547
  159POPC   D2A 2395   1.440   6.391   8.144 -0.2809  0.0658 -0.1771
  159POPC   C3A 2396   1.165   6.188   8.231 -0.3533 -0.3887  0.1403
  159POPC   C4A 2397   0.760   6.061   8.439  0.1046  0.1093 -0.0121
  159POPC   C1B 2398   1.173   6.392   8.710 -0.0198  0.0500  0.2006
  159POPC   C2B 2399   1.285   6.685   8.500 -0.0565 -0.1544  0.1570
  159POPC   C3B 2400   1.059   6.937   8.207  0.0800 -0.1621 -0.1709
  159POPC   C4B 2401   0.508   6.978   8.094 -0.2351  0.0916 -0.0333
  160POPC   NC3 2402   3.993   1.309   7.860  0.1372 -0.0571  0.0652
  160POPC   PO4 2403   3.756   1.713   7.749  0.2305  0.1322 -0.4412
  160POPC   GL1 2404   3.611   1.968   7.446  0.0282 -0.1958  0.0535
  160POPC   GL2 2405   3.314   1.853   7.501  0.3228  0.1522 -0.2962
  160POPC   C1A 2406   3.618   2.360   7.432  0.0155 -0.1770 -0.2221
  160POPC   D2A 2407   3.887   2.729   7.426 -0.2176  0.0725  0.0456
  160POPC   C3A 2408   4.288   2.777   7.228  0.1807  0.3059  0.2299
  160POPC   C4A 2409   4.405   2.556   6.905  0.2927 -0.2319 -0.0115
  160POPC   C1B 2410   3.296   1.838   7.051  0.4129  0.0297 -0.2117
  160POPC   C2B 2411   3.279   1.590   6.706  0.1669  0.1030  0.2580
  160POPC   C3B 2412   3.348   1.156   6.583  0.1876 -0.2815  0.0936
  160POPC   C4B 2413   3.425   0.721   6.455 -0.0143  0.2032 -0.0276
  161POPC   NC3 2414   1.671   0.129   7.720  0.1466  0.0687 -0.2077
  161POPC   PO4 2415   1.842   0.451   7.905  0.0063 -0.1646  0.0924
  161POPC   GL1 2416   1.799   0.617   7.470  0.0146  0.0139  0.3841
  161POPC   GL2 2417   1.700   0.330   7.245 -0.1846  0.0425 -0.0193
  161POPC   C1A 2418   1.810   0.715   6.979  0.3160  0.1823  0.0184
  161POPC   D2A 2419   1.988   0.861   6.593 -0.0018  0.4084  0.3901
  161POPC   C3A 2420   1.938   0.509   6.269 -0.0235  0.0085  0.2722
  161POPC   C4A 2421   1.799   0.297   5.895  0.0083  0.0956 -0.0768
  161POPC   C1B 2422   1.356   0.234   7.024 -0.0508 -0.5454 -0.2308
  161POPC   C2B 2423   1.166   0.155   6.701 -0.1703 -0.2596  0.1914
  161POPC   C3B 2424   0.989   0.065   6.296  0.0874 -0.3134  0.2107
  161POPC   C4B 2425   0.960  -0.081   5.839 -0.0960 -0.3071  0.2481
  162POPC   NC3 2426   0.187   2.483   8.788  0.0708 -0.1921 -0.1225
  162POPC   PO4 2427  -0.271   2.534   8.648 -0.0790 -0.1673  0.3226
  162POPC   GL1 2428  -0.517   2.685   8.260  0.0478  0.1597  0.2685
  162POPC   GL2 2429  -0.865   2.810   8.281  0.1023  0.3412 -0.0204
  162POPC   C1A 2430  -0.544   2.780   7.898 -0.0304  0.2675  0.0016
  162POPC   D2A 2431  -0.577   3.089   7.525  0.2579 -0.0575  0.3834
  162POPC   C3A 2432  -0.399   2.927   7.158  0.1562  0.1158  0.1277
  162POPC   C4A 2433  -0.234   2.709   6.784 -0.2613  0.0375  0.0033
  162POPC   C1B 2434  -0.766   3.233   8.052  0.2133  0.3638 -0.2920
  162POPC   C2B 2435  -0.600   3.545   7.713 -0.3483 -0.2665  0.2076
  162POPC   C3B 2436  -0.639   3.848   7.413  0.2184  0.2634 -0.1492
  162POPC   C4B 2437  -0.969   3.972   7.096  0.0975  0.1951  0.0309
  163POPC   NC3 2438   3.406   9.215   7.631  0.2418 -0.0682 -0.0510
  163POPC   PO4 2439   3.117   8.834   7.595 -0.3834  0.1336 -0.0616
  163POPC   GL1 2440   3.294   8.917   7.218 -0.1909 -0.3084  0.0963
  163POPC   GL2 2441   3.726   9.161   7.217 -0.4195 -0.0610  0.2481
  163POPC   C1A 2442   3.372   8.529   6.983 -0.0783  0.1366 -0.1616
  163POPC   D2A 2443   3.667   8.406   6.790 -0.0124 -0.0626 -0.1076
  163POPC   C3A 2444   3.700   8.076   6.550  0.0378 -0.2227  0.1391
  163POPC   C4A 2445   3.569   7.965   6.113  0.0801  0.0362  0.0299
  163POPC   C1B 2446   3.753   8.932   6.814  0.0618  0.1580  0.2134
  163POPC   C2B 2447   3.622   8.815   6.382 -0.1556 -0.0361  0.0890
  163POPC   C3B 2448   3.414   8.561   6.011 -0.0236  0.0704 -0.0868
  163POPC   C4B 2449   3.324   8.281   5.644  0.3784  0.0912 -0.4182
  164POPC   NC3 2450   6.103   9.426   8.003 -0.1456 -0.0420 -0.0375
  164POPC   PO4 2451   6.040   9.896   8.046 -0.0106  0.0090  0.2480
  164POPC   GL1 2452   6.138   9.776   7.618 -0.0145  0.2471 -0.0963
  164POPC   GL2 2453   6.518   9.670   7.507 -0.1056 -0.1234 -0.1285
  164POPC   C1A 2454   6.056   9.753   7.174 -0.0234  0.0063 -0.2011
  164POPC   D2A 2455   6.258   9.903   6.834  0.1379 -0.0533 -0.3672
  164POPC   C3A 2456   6.213   9.989   6.402 -0.0361 -0.0951 -0.1890
  164POPC   C4A 2457   6.261   9.873   5.996 -0.1873  0.1255  0.0035
  164POPC   C1B 2458   6.565   9.549   7.134  0.1150 -0.1597 -0.1436
  164POPC   C2B 2459   6.725   9.720   6.793 -0.0362 -0.0709  0.2065
  164POPC   C3B 2460   6.984   9.765   6.381 -0.1566  0.1482 -0.2730
  164POPC   C4B 2461   7.196   9.956   6.175 -0.1931 -0.1452 -0.1087
  165POPC   NC3 2462   7.476   5.452   8.306 -0.0135 -0.4476 -0.0139
  165POPC   PO4 2463   7.509   5.062   8.157 -0.3008  0.0549 -0.1057
  165POPC   GL1 2464   7.463   4.703   7.862 -0.0374 -0.1665 -0.0208
  165POPC   GL2 2465   7.302   4.454   7.760  0.0238  0.2507  0.1374
  165POPC   C1A 2466   7.797   4.394   7.757 -0.1900  0.1946 -0.0903
  165POPC   D2A 2467   7.831   4.108   7.243 -0.0393  0.0340  0.2385
  165POPC   C3A 2468   7.817   4.232   6.844 -0.0204 -0.1147 -0.0753
  165POPC   C4A 2469   7.762   4.273   6.414 -0.3001  0.4408 -0.0347
  165POPC   C1B 2470   7.205   4.347   7.295 -0.1768 -0.0015  0.0826
  165POPC   C2B 2471   7.291   4.341   6.878  0.2606  0.0101 -0.0122
  165POPC   C3B 2472   7.310   4.030   6.532 -0.1203 -0.0686  0.1524
  165POPC   C4B 2473   7.463   3.855   6.191  0.0699 -0.1101 -0.2950
  166POPC   NC3 2474   7.913   5.678   8.927 -0.2974  0.1333  0.1095
  166POPC   PO4 2475   7.795   5.743   8.490  0.1310 -0.2096  0.1720
  166POPC   GL1 2476   7.948   5.698   8.066 -0.0908 -0.0532  0.3118
  166POPC   GL2 2477   7.961   5.408   8.099 -0.2589 -0.1142 -0.1695
  166POPC   C1A 2478   8.047   6.058   7.789 -0.1755  0.1737 -0.0073
  166POPC   D2A 2479   7.951   6.483   7.419 -0.0641  0.1275 -0.1046
  166POPC   C3A 2480   8.231   6.391   7.072  0.0453 -0.0663  0.0485
  166POPC   C4A 2481   8.161   6.135   6.673  0.3270 -0.1902  0.0175
  166POPC   C1B 2482   7.873   5.362   7.674  0.1780  0.0651  0.1662
  166POPC   C2B 2483   7.879   5.551   7.342  0.1141  0.2217  0.2970
  166POPC   C3B 2484   8.083   5.522   6.984  0.0612  0.0358  0.0147
  166POPC   C4B 2485   8.369   5.615   6.679 -0.0584  0.0485 -0.1128
  167POPC   NC3 2486   7.188   4.717   8.371 -0.1836  0.0733  0.0424
  167POPC   PO4 2487   6.826   4.968   8.423  0.0482 -0.0211  0.3955
  167POPC   GL1 2488   6.985   5.071   8.023 -0.1305 -0.0952 -0.0024
  167POPC   GL2 2489   6.985   5.446   7.886 -0.1159 -0.0374  0.2183
  167POPC   C1A 2490   7.001   4.867   7.534  0.2187 -0.1753  0.2656
  167POPC   D2A 2491   6.999   4.707   7.113 -0.0951  0.1939  0.1148
  167POPC   C3A 2492   6.761   4.517   6.853  0.0186 -0.1075 -0.2308
  167POPC   C4A 2493   6.347   4.545   6.656  0.0726 -0.2367 -0.0095
  167POPC   C1B 2494   6.860   5.433   7.493  0.1249 -0.5339 -0.1560
  167POPC   C2B 2495   6.978   5.249   7.105 -0.1604 -0.2190  0.2542
  167POPC   C3B 2496   6.879   5.189   6.733 -0.2966 -0.0387 -0.0259
  167POPC   C4B 2497   7.090   5.114   6.381 -0.3955 -0.1389  0.4051
  168POPC   NC3 2498   9.047   6.181   4.210  0.0670 -0.0531  0.0611
  168POPC   PO4 2499   8.793   6.299   4.124  0.2174 -0.1055  0.3957
  168POPC   GL1 2500   8.917   6.692   4.216  0.2803  0.0750 -0.2744
  168POPC   GL2 2501   8.873   6.895   4.504 -0.0005  0.2660 -0.5289
  168POPC   C1A 2502   9.308   6.768   4.431  0.4250 -0.0534  0.0164
  168POPC   D2A 2503   9.716   6.667   4.529  0.2933 -0.0358 -0.0200
  168POPC   C3A 2504   9.863   6.268   4.751  0.2223  0.0921 -0.0457
  168POPC   C4A 2505  10.070   6.121   5.106  0.0143 -0.5272 -0.0734
  168POPC   C1B 2506   8.862   7.083   5.008 -0.0072  0.0696  0.0451
  168POPC   C2B 2507   8.872   7.155   5.383 -0.1170 -0.2020 -0.1751
  168POPC   C3B 2508   9.250   7.190   5.755  0.2072  0.0232  0.0211
  168POPC   C4B 2509   9.248   7.458   6.138  0.0744 -0.0506 -0.0039
  169POPC   NC3 2510   7.933   3.698   4.050  0.0415 -0.1417  0.0949
  169POPC   PO4 2511   7.678   3.443   4.367  0.0594 -0.0540 -0.1869
  169POPC   GL1 2512   7.803   3.363   4.761  0.0867  0.0999  0.1195
  169POPC   GL2 2513   7.586   3.490   4.917 -0.1310  0.0411  0.0627
  169POPC   C1A 2514   7.786   3.043   5.121  0.0487  0.3004  0.2772
  169POPC   D2A 2515   7.862   2.608   5.282  0.1655  0.1721  0.3011
  169POPC   C3A 2516   7.829   2.421   5.687 -0.0544  0.0838  0.2130
  169POPC   C4A 2517   7.832   2.030   5.897 -0.0354 -0.1654 -0.0658
  169POPC   C1B 2518   7.511   3.574   5.279 -0.0894  0.0573 -0.1435
  169POPC   C2B 2519   7.479   3.617   5.729  0.1586 -0.0305 -0.2165
  169POPC   C3B 2520   7.651   3.398   5.958 -0.0832  0.0783  0.2345
  169POPC   C4B 2521   7.637   3.251   6.343  0.0693 -0.2658  0.3366
  170POPC   NC3 2522   3.884   2.326   4.480 -0.2934 -0.2403  0.3492
  170POPC   PO4 2523   4.222   2.234   4.336  0.0999  0.1039  0.2088
  170POPC   GL1 2524   4.206   2.249   4.820  0.0124  0.0287  0.0508
  170POPC   GL2 2525   4.182   2.591   4.949 -0.1219  0.1829  0.1655
  170POPC   C1A 2526   4.251   2.143   5.372  0.1047  0.0963  0.2106
  170POPC   D2A 2527   4.063   2.117   5.728  0.1187 -0.1075  0.1031
  170POPC   C3A 2528   3.747   1.840   5.636  0.1397  0.4578  0.1659
  170POPC   C4A 2529   3.433   1.618   6.008  0.1624  0.1645 -0.0526
  170POPC   C1B 2530   4.557   2.562   5.262  0.0829 -0.1254 -0.0969
  170POPC   C2B 2531   4.699   2.919   5.590 -0.1104 -0.1269 -0.0042
  170POPC   C3B 2532   4.403   3.056   5.866  0.0575 -0.0578  0.0078
  170POPC   C4B 2533   4.396   3.087   6.294 -0.0183 -0.1297 -0.1285
  171POPC   NC3 2534   3.061   3.430   4.209 -0.2680  0.1118  0.0651
  171POPC   PO4 2535   3.055   2.939   4.258 -0.2121  0.0566 -0.0965
  171POPC   GL1 2536   3.034   3.192   4.637  0.3632  0.0537 -0.1201
  171POPC   GL2 2537   3.273   3.046   4.765 -0.0674  0.0281 -0.0860
  171POPC   C1A 2538   2.702   3.288   4.841  0.3631  0.2090  0.3902
  171POPC   D2A 2539   2.315   3.202   5.001  0.1388 -0.0190 -0.3430
  171POPC   C3A 2540   2.079   3.145   5.362 -0.3487 -0.0286  0.0416
  171POPC   C4A 2541   1.994   3.335   5.780 -0.1174  0.2486 -0.1144
  171POPC   C1B 2542   3.120   2.885   5.024 -0.0410  0.2811  0.1304
  171POPC   C2B 2543   3.067   2.733   5.345 -0.2455 -0.0150 -0.0406
  171POPC   C3B 2544   3.313   2.461   5.375 -0.1778 -0.1691  0.0221
  171POPC   C4B 2545   3.556   2.263   5.587  0.0894  0.0849  0.1089
  172POPC   NC3 2546   3.345  10.089   4.566 -0.1973 -0.0168  0.0633
  172POPC   PO4 2547   3.773  10.232   4.454 -0.1113  0.0932 -0.0750
  172POPC   GL1 2548   4.050  10.174   4.829 -0.3582  0.0419 -0.0126
  172POPC   GL2 2549   4.307  10.428   4.778 -0.0035 -0.3126  0.0111
  172POPC   C1A 2550   4.305   9.859   5.123 -0.0336 -0.0160  0.0414
  172POPC   D2A 2551   4.337   9.404   5.342 -0.1081  0.1829  0.0819
  172POPC   C3A 2552   4.430   9.305   5.827 -0.0714 -0.0516  0.2574
  172POPC   C4A 2553   4.764   8.940   5.938 -0.0492  0.0847 -0.0859
  172POPC   C1B 2554   4.256  10.572   5.119 -0.0639  0.3637 -0.1576
  172POPC   C2B 2555   4.567  10.676   5.488  0.2267 -0.4016 -0.0280
  172POPC   C3B 2556   4.578  10.505   5.847  0.0021 -0.1631 -0.0526
  172POPC   C4B 2557   4.358  10.383   6.105  0.0976 -0.2140 -0.4676
  173POPC   NC3 2558   4.044  10.369   4.071  0.0156  0.1421  0.3452
  173POPC   PO4 2559   4.272  10.687   4.377 -0.1438 -0.0300  0.3330
  173POPC   GL1 2560   4.250  11.012   4.749 -0.1365 -0.0074 -0.0151
  173POPC   GL2 2561   3.953  11.140   4.785  0.0396  0.0874  0.1520
  173POPC   C1A 2562   4.362  11.090   5.183  0.0017  0.1876 -0.1821
  173POPC   D2A 2563   4.541  11.201   5.581 -0.3371 -0.2671 -0.2198
  173POPC   C3A 2564   4.685  11.014   5.844 -0.2903  0.1630 -0.1952
  173POPC   C4A 2565   4.759  10.738   6.233  0.0175 -0.0661  0.0463
  173POPC   C1B 2566   3.829  11.249   5.119 -0.4773 -0.0907  0.1955
  173POPC   C2B 2567   3.856  11.581   5.317 -0.2527  0.0639  0.1471
  173POPC   C3B 2568   3.832  11.972   5.553  0.1598 -0.0019  0.0050
  173POPC   C4B 2569   3.976  12.142   5.906 -0.2058  0.1420  0.0050
  174POPC   NC3 2570   2.822   9.503   4.185 -0.2886  0.4349  0.0150
  174POPC   PO4 2571   2.477   9.728   4.247  0.0319 -0.1350  0.0397
  174POPC   GL1 2572   2.481   9.541   4.610  0.0538  0.0401 -0.2791
  174POPC   GL2 2573   2.737   9.364   4.670  0.0841 -0.0927  0.2052
  174POPC   C1A 2574   2.317   9.315   4.941 -0.1331 -0.0956 -0.2501
  174POPC   D2A 2575   2.467   8.806   5.148  0.2152  0.3437 -0.1266
  174POPC   C3A 2576   2.440   8.552   5.489 -0.0479  0.0975 -0.1056
  174POPC   C4A 2577   1.979   8.531   5.744 -0.5252  0.0296  0.0047
  174POPC   C1B 2578   3.000   9.432   4.951 -0.0229 -0.0579  0.1603
  174POPC   C2B 2579   3.047   9.512   5.433 -0.0842 -0.2109  0.2707
  174POPC   C3B 2580   3.018   9.343   5.751 -0.2558  0.0312  0.0885
  174POPC   C4B 2581   3.231   9.142   6.178 -0.4574  0.0931  0.0434
  175POPC   NC3 2582   2.050   1.991   3.979  0.1817  0.2087 -0.2734
  175POPC   PO4 2583   2.126   1.521   4.162  0.1613  0.0134 -0.2218
  175POPC   GL1 2584   2.025   1.390   4.517 -0.2150  0.2706 -0.1348
  175POPC   GL2 2585   2.210   1.137   4.585  0.2453 -0.2897 -0.0741
  175POPC   C1A 2586   2.359   1.485   4.923  0.1986 -0.4009 -0.0357
  175POPC   D2A 2587   2.506   1.428   5.430 -0.0160 -0.2298  0.0951
  175POPC   C3A 2588   2.773   1.804   5.462  0.1530 -0.2692  0.1274
  175POPC   C4A 2589   3.224   1.960   5.322 -0.0708  0.0088  0.1489
  175POPC   C1B 2590   2.274   1.002   5.065 -0.1733  0.1290  0.1151
  175POPC   C2B 2591   2.225   0.966   5.498  0.1097  0.3449 -0.0588
  175POPC   C3B 2592   1.960   0.784   5.824  0.1474 -0.0236  0.0907
  175POPC   C4B 2593   1.796   1.177   6.198 -0.2443  0.0092  0.1489
  176POPC   NC3 2594   2.838   8.587   4.195  0.0124  0.0592  0.3376
  176POPC   PO4 2595   2.636   9.039   4.168  0.0777  0.0179 -0.1321
  176POPC   GL1 2596   2.533   8.840   4.512 -0.1280  0.1773  0.0455
  176POPC   GL2 2597   2.672   8.516   4.662  0.1438  0.5424  0.3207
  176POPC   C1A 2598   2.232   8.504   4.839 -0.0887 -0.1526  0.4075
  176POPC   D2A 2599   1.970   8.521   5.251 -0.0276  0.0279  0.0470
  176POPC   C3A 2600   1.621   8.288   5.292  0.1142 -0.1285  0.0602
  176POPC   C4A 2601   1.445   7.968   4.926  0.2797 -0.1344 -0.0280
  176POPC   C1B 2602   3.062   8.379   4.830 -0.5941  0.1005  0.0388
  176POPC   C2B 2603   3.323   8.413   5.173 -0.3144 -0.0829 -0.0308
  176POPC   C3B 2604   3.460   8.699   5.439  0.2422  0.0062  0.1124
  176POPC   C4B 2605   3.172   8.864   5.734 -0.1771  0.2842  0.0550
  177POPC   NC3 2606   4.557   0.924   4.088 -0.0786 -0.0060  0.2369
  177POPC   PO4 2607   4.878   1.125   4.172  0.1706 -0.1499 -0.0635
  177POPC   GL1 2608   4.624   1.426   4.433 -0.4567  0.1012  0.0125
  177POPC   GL2 2609   4.427   1.229   4.587 -0.0494  0.3272  0.2699
  177POPC   C1A 2610   4.792   1.629   4.738  0.0582 -0.0448 -0.0138
  177POPC   D2A 2611   4.493   1.841   5.069 -0.1737 -0.1086  0.2355
  177POPC   C3A 2612   4.121   1.789   4.934 -0.0440  0.0758  0.0919
  177POPC   C4A 2613   3.705   1.881   5.088 -0.2658 -0.1445 -0.1653
  177POPC   C1B 2614   4.760   1.107   4.814 -0.0582  0.0722 -0.2445
  177POPC   C2B 2615   5.156   1.134   4.823 -0.3840 -0.0765 -0.0777
  177POPC   C3B 2616   5.366   1.224   5.220  0.2255  0.1303  0.0808
  177POPC   C4B 2617   5.661   1.240   5.599  0.1031  0.0876 -0.0146
  178POPC   NC3 2618   7.983   2.635   4.261 -0.0298  0.0773  0.0143
  178POPC   PO4 2619   7.636   2.439   4.533  0.1063  0.0826 -0.1584
  178POPC   GL1 2620   7.492   2.447   4.830 -0.0870 -0.3652 -0.0505
  178POPC   GL2 2621   7.442   2.715   4.913 -0.0300 -0.0651  0.3439
  178POPC   C1A 2622   7.468   2.254   5.105  0.2213 -0.0728  0.0727
  178POPC   D2A 2623   7.585   2.110   5.402 -0.2304 -0.2375  0.0022
  178POPC   C3A 2624   7.390   1.772   5.555  0.0288 -0.3378 -0.1443
  178POPC   C4A 2625   7.388   1.405   5.768 -0.2004  0.3296  0.0976
  178POPC   C1B 2626   7.186   2.590   5.274 -0.0861  0.2287  0.0253
  178POPC   C2B 2627   7.209   2.684   5.663  0.2494  0.0969 -0.3096
  178POPC   C3B 2628   7.056   2.725   6.048  0.1468  0.3312 -0.2243
  178POPC   C4B 2629   6.885   3.133   6.192 -0.0446  0.5733 -0.1001
  179POPC   NC3 2630   3.391   3.475   3.844 -0.2644 -0.0706 -0.1558
  179POPC   PO4 2631   2.824   3.490   3.779 -0.1354 -0.2600  0.0729
  179POPC   GL1 2632   2.630   3.696   4.233 -0.0589 -0.2835 -0.2345
  179POPC   GL2 2633   2.817   3.795   4.534 -0.0435 -0.0391  0.0582
  179POPC   C1A 2634   2.377   3.571   4.597  0.0881  0.2086  0.0568
  179POPC   D2A 2635   1.986   3.629   4.855 -0.3553  0.1046  0.2151
  179POPC   C3A 2636   1.540   3.728   4.892 -0.2277  0.0119  0.1881
  179POPC   C4A 2637   1.384   4.050   4.855 -0.1094  0.0464 -0.0114
  179POPC   C1B 2638   2.743   3.796   4.924  0.0939 -0.0613 -0.1100
  179POPC   C2B 2639   2.955   3.860   5.282  0.1988 -0.0957  0.0462
  179POPC   C3B 2640   3.231   3.607   5.543  0.0702 -0.0342 -0.1670
  179POPC   C4B 2641   3.524   3.337   5.902 -0.2323 -0.1157 -0.2088
  180POPC   NC3 2642   3.225   7.217   4.051 -0.1437 -0.2583  0.0074
  180POPC   PO4 2643   3.194   6.840   4.265  0.0141  0.0969  0.1510
  180POPC   GL1 2644   3.231   6.962   4.695 -0.6451  0.5089  0.0991
  180POPC   GL2 2645   3.086   6.740   4.850 -0.0605  0.1194 -0.0298
  180POPC   C1A 2646   3.503   6.864   5.080 -0.1328  0.3434 -0.2452
  180POPC   D2A 2647   3.498   6.638   5.481  0.3771  0.1831 -0.2254
  180POPC   C3A 2648   3.500   6.952   5.803 -0.0742  0.0970  0.2620
  180POPC   C4A 2649   3.911   7.223   6.104 -0.0612  0.0763  0.0783
  180POPC   C1B 2650   3.100   6.987   5.251 -0.1879  0.2775 -0.5141
  180POPC   C2B 2651   3.103   7.240   5.617 -0.0321 -0.2367  0.0745
  180POPC   C3B 2652   3.065   7.105   6.067  0.1598  0.1135 -0.0104
  180POPC   C4B 2653   2.862   7.084   6.487 -0.1610  0.0482  0.0329
  181POPC   NC3 2654   5.094   5.761   3.925 -0.1414  0.0142 -0.2014
  181POPC   PO4 2655   5.090   6.185   4.102  0.0397 -0.1461 -0.1544
  181POPC   GL1 2656   4.858   6.165   4.515 -0.3448  0.0277  0.0628
  181POPC   GL2 2657   4.836   6.347   4.802 -0.0520 -0.1423  0.1231
  181POPC   C1A 2658   4.777   5.772   4.789  0.3143  0.2045 -0.0201
  181POPC   D2A 2659   4.949   5.450   4.807 -0.3381  0.0610  0.1522
  181POPC   C3A 2660   5.379   5.305   4.856 -0.0829  0.0898 -0.0478
  181POPC   C4A 2661   5.925   5.219   4.921 -0.1306 -0.0160  0.1304
  181POPC   C1B 2662   4.934   6.153   5.138 -0.0524 -0.0354 -0.0430
  181POPC   C2B 2663   5.232   5.986   5.437 -0.0180  0.0260  0.0818
  181POPC   C3B 2664   5.202   5.704   5.685 -0.0520 -0.3678 -0.3788
  181POPC   C4B 2665   4.892   5.498   5.951  0.1647 -0.1139  0.0687
  182POPC   NC3 2666   1.914   9.684   3.607 -0.1726 -0.1639  0.3848
  182POPC   PO4 2667   1.802   9.466   4.056 -0.1055  0.3146  0.0876
  182POPC   GL1 2668   1.428   9.314   4.301 -0.0389  0.2604 -0.0142
  182POPC   GL2 2669   1.599   9.331   4.617 -0.0479 -0.0818 -0.0643
  182POPC   C1A 2670   1.102   9.213   4.586  0.3397 -0.0249  0.1907
  182POPC   D2A 2671   1.030   9.284   5.053 -0.1227  0.2460  0.0662
  182POPC   C3A 2672   0.719   8.958   5.308  0.0989  0.0680  0.0296
  182POPC   C4A 2673   0.570   8.826   5.676 -0.0518 -0.0440 -0.0377
  182POPC   C1B 2674   1.613   9.247   5.008  0.1579  0.0380 -0.1541
  182POPC   C2B 2675   1.734   9.172   5.358 -0.2658  0.1696  0.0772
  182POPC   C3B 2676   1.613   8.902   5.768 -0.3290 -0.0737  0.2296
  182POPC   C4B 2677   1.495   8.519   5.976 -0.0983 -0.2044 -0.2973
  183POPC   NC3 2678   8.863   9.480   4.269  0.1320  0.1299  0.2326
  183POPC   PO4 2679   8.545   9.155   4.232  0.2867 -0.2847 -0.2516
  183POPC   GL1 2680   8.485   9.051   4.673  0.2638 -0.2116  0.3011
  183POPC   GL2 2681   8.219   8.951   4.752 -0.1460 -0.3532 -0.2104
  183POPC   C1A 2682   8.751   9.117   5.072  0.0936  0.1365  0.0533
  183POPC   D2A 2683   8.638   8.981   5.378  0.1755 -0.1571 -0.3529
  183POPC   C3A 2684   8.720   9.000   5.887 -0.0421 -0.3503  0.2138
  183POPC   C4A 2685   8.948   8.800   6.118 -0.0660  0.1121  0.2045
  183POPC   C1B 2686   8.125   9.056   5.188  0.0279  0.5286 -0.2285
  183POPC   C2B 2687   8.250   9.239   5.584  0.1934 -0.0500  0.2287
  183POPC   C3B 2688   8.293   9.322   5.984  0.2469  0.0491  0.0424
  183POPC   C4B 2689   8.186   9.294   6.433 -0.1020  0.3281 -0.2492
  184POPC   NC3 2690   7.196   9.387   3.690  0.3624  0.1883 -0.1683
  184POPC   PO4 2691   7.086   9.506   4.079 -0.2051 -0.0541  0.4836
  184POPC   GL1 2692   7.204   9.404   4.494  0.0668  0.1979  0.2376
  184POPC   GL2 2693   7.269   9.530   4.728 -0.0480 -0.1871 -0.2060
  184POPC   C1A 2694   7.202   9.087   4.857 -0.2811 -0.0287 -0.0678
  184POPC   D2A 2695   6.931   9.129   5.207 -0.0324  0.1407  0.1352
  184POPC   C3A 2696   6.937   8.888   5.524  0.0456 -0.2691 -0.0628
  184POPC   C4A 2697   6.877   8.657   5.871  0.2127  0.1061  0.0182
  184POPC   C1B 2698   7.366   9.680   5.192 -0.1644  0.1129  0.1234
  184POPC   C2B 2699   7.523   9.737   5.603 -0.3058 -0.1806  0.3238
  184POPC   C3B 2700   7.307   9.580   5.914 -0.0319 -0.0760  0.1469
  184POPC   C4B 2701   7.058   9.317   6.204 -0.1154  0.0576 -0.0768
  185POPC   NC3 2702  10.105   8.721   3.956 -0.4212 -0.1687 -0.0209
  185POPC   PO4 2703  10.067   8.412   3.570  0.1672  0.1811  0.1097
  185POPC   GL1 2704  10.179   8.236   4.059  0.2646  0.2283 -0.1631
  185POPC   GL2 2705  10.020   8.040   4.314  0.1483 -0.0166 -0.2532
  185POPC   C1A 2706  10.539   8.094   4.240  0.1493  0.2303 -0.0971
  185POPC   D2A 2707  10.832   7.779   4.130 -0.1096 -0.0235  0.0116
  185POPC   C3A 2708  11.174   7.550   4.396 -0.3730  0.3348 -0.1996
  185POPC   C4A 2709  11.433   7.366   4.672  0.1427  0.0667 -0.0391
  185POPC   C1B 2710  10.225   8.070   4.722  0.1527 -0.1340 -0.1140
  185POPC   C2B 2711  10.278   7.995   5.046 -0.1113  0.1734  0.1870
  185POPC   C3B 2712  10.287   8.169   5.413  0.0588 -0.2074 -0.0806
  185POPC   C4B 2713  10.296   8.272   5.844  0.3239  0.3331  0.0637
  186POPC   NC3 2714   8.217   8.301   3.941  0.0033  0.2494 -0.0660
  186POPC   PO4 2715   8.363   8.661   4.245  0.0570 -0.3060  0.2347
  186POPC   GL1 2716   8.592   8.603   4.575  0.1296  0.0063 -0.1261
  186POPC   GL2 2717   8.445   8.329   4.771  0.1061 -0.0769  0.0837
  186POPC   C1A 2718   8.913   8.601   4.891 -0.1393 -0.1493  0.1990
  186POPC   D2A 2719   8.964   8.531   5.290  0.3473 -0.1571  0.3863
  186POPC   C3A 2720   8.699   8.502   5.684  0.2662  0.1694  0.1008
  186POPC   C4A 2721   8.173   8.375   5.960 -0.0216 -0.0019  0.1291
  186POPC   C1B 2722   8.509   8.521   5.165  0.2630 -0.0894 -0.1907
  186POPC   C2B 2723   8.236   8.722   5.567 -0.0701 -0.0500  0.0132
  186POPC   C3B 2724   7.828   9.018   5.621 -0.0716  0.2133 -0.1449
  186POPC   C4B 2725   7.762   9.362   5.831  0.2514 -0.1662 -0.5636
  187POPC   NC3 2726   7.919   1.728   4.008  0.3007 -0.3158 -0.2803
  187POPC   PO4 2727   8.015   1.882   4.403 -0.3448 -0.0646 -0.0884
  187POPC   GL1 2728   8.208   1.619   4.763 -0.3281  0.0363 -0.2090
  187POPC   GL2 2729   8.223   1.340   4.722  0.1507 -0.0781  0.2582
  187POPC   C1A 2730   8.252   1.451   5.237 -0.0578 -0.0198 -0.0325
  187POPC   D2A 2731   8.491   1.106   5.201  0.0299 -0.0807 -0.0802
  187POPC   C3A 2732   8.389   0.752   5.330 -0.0731  0.3283  0.0551
  187POPC   C4A 2733   8.092   0.444   5.229 -0.0677 -0.3615 -0.0012
  187POPC   C1B 2734   7.974   1.109   4.959  0.3796  0.0320  0.0242
  187POPC   C2B 2735   7.947   1.066   5.390 -0.1444 -0.1672  0.3215
  187POPC   C3B 2736   7.869   1.008   5.771  0.0712  0.3134  0.0799
  187POPC   C4B 2737   7.457   0.990   6.002  0.1797  0.3658 -0.1726
  188POPC   NC3 2738   2.609   7.663   3.402  0.1171 -0.1897 -0.3166
  188POPC   PO4 2739   2.598   7.323   3.629  0.5112  0.0291  0.0258
  188POPC   GL1 2740   2.505   7.093   4.026  0.1529  0.1370 -0.1115
  188POPC   GL2 2741   2.691   7.019   4.261 -0.2036  0.2336 -0.0419
  188POPC   C1A 2742   2.202   6.844   4.094  0.0254 -0.0105  0.1823
  188POPC   D2A 2743   2.164   6.624   4.444 -0.2170  0.2659 -0.2002
  188POPC   C3A 2744   2.168   6.931   4.850 -0.0698 -0.2315  0.3227
  188POPC   C4A 2745   2.085   7.314   5.067  0.1120  0.0267 -0.0354
  188POPC   C1B 2746   2.506   7.228   4.570  0.0589  0.1958  0.1442
  188POPC   C2B 2747   2.527   7.567   4.857 -0.1457 -0.1315 -0.0265
  188POPC   C3B 2748   2.437   7.795   5.274  0.0087 -0.0381  0.5653
  188POPC   C4B 2749   2.243   8.113   5.573  0.3401 -0.4466 -0.1928
  189POPC   NC3 2750   8.173   0.949   4.288  0.0636  0.0278  0.2487
  189POPC   PO4 2751   8.245   0.603   4.126 -0.0441  0.0665 -0.0418
  189POPC   GL1 2752   8.305   0.520   4.485 -0.0306 -0.0760 -0.0992
  189POPC   GL2 2753   7.943   0.458   4.686  0.0691 -0.0196  0.0166
  189POPC   C1A 2754   8.422   0.533   4.886 -0.1261 -0.0705  0.1047
  189POPC   D2A 2755   8.652   0.320   5.226  0.1210 -0.2131 -0.1109
  189POPC   C3A 2756   8.507   0.269   5.629 -0.0878  0.2091 -0.2001
  189POPC   C4A 2757   8.332   0.297   6.045  0.1974  0.1857  0.0757
  189POPC   C1B 2758   7.824   0.118   4.992  0.0787  0.0018 -0.2413
  189POPC   C2B 2759   7.800   0.060   5.492 -0.0942 -0.1545 -0.0193
  189POPC   C3B 2760   7.746   0.063   5.911  0.1559 -0.0034  0.0605
  189POPC   C4B 2761   7.444   0.041   6.235  0.0676 -0.4349  0.0409
  190POPC   NC3 2762  10.281   9.273   3.889  0.0355 -0.2268  0.2301
  190POPC   PO4 2763  10.571   9.019   3.893  0.2315 -0.2404  0.0730
  190POPC   GL1 2764  10.505   9.134   4.331  0.0567 -0.2236 -0.0353
  190POPC   GL2 2765  10.214   9.455   4.477 -0.0972 -0.0029  0.0370
  190POPC   C1A 2766  10.603   9.402   4.724 -0.0117  0.3653 -0.1714
  190POPC   D2A 2767  10.682   9.478   5.100 -0.0420  0.1531  0.2011
  190POPC   C3A 2768  10.521   9.404   5.433  0.0516 -0.0548 -0.2033
  190POPC   C4A 2769  10.415   9.078   5.721 -0.1718 -0.1760 -0.1476
  190POPC   C1B 2770   9.792   9.524   4.734  0.3466  0.1940 -0.1221
  190POPC   C2B 2771   9.654   9.338   5.163  0.1422  0.4489 -0.0735
  190POPC   C3B 2772   9.531   9.322   5.510 -0.0377  0.3164 -0.2976
  190POPC   C4B 2773   9.084   9.187   5.579 -0.0579 -0.2288  0.0003
  191POPC   NC3 2774   9.094   1.308   4.618 -0.3338 -0.0882  0.0303
  191POPC   PO4 2775   8.697   1.449   4.771 -0.0541  0.0371  0.2593
  191POPC   GL1 2776   8.971   1.410   5.110  0.1548  0.1698  0.0450
  191POPC   GL2 2777   9.200   1.536   5.243  0.1170 -0.2436 -0.0160
  191POPC   C1A 2778   8.735   1.489   5.489  0.1318  0.1407 -0.0567
  191POPC   D2A 2779   8.739   1.519   5.963  0.0010 -0.1930 -0.2681
  191POPC   C3A 2780   9.030   1.332   6.183  0.0827  0.1602  0.2951
  191POPC   C4A 2781   9.128   1.436   6.679  0.1223 -0.1704  0.2657
  191POPC   C1B 2782   9.073   1.132   5.528  0.0230  0.1546  0.0916
  191POPC   C2B 2783   9.181   0.869   5.907 -0.3407  0.3421  0.0760
  191POPC   C3B 2784   9.103   0.840   6.395 -0.3323 -0.2393 -0.0210
  191POPC   C4B 2785   8.921   0.576   6.753 -0.1793  0.0257  0.0639
  192POPC   NC3 2786   0.449   4.249   3.873  0.0655 -0.1404  0.0203
  192POPC   PO4 2787   0.725   3.857   3.925  0.1804 -0.1611 -0.1123
  192POPC   GL1 2788   0.968   3.727   4.377  0.1882 -0.2764 -0.2005
  192POPC   GL2 2789   0.904   3.927   4.651  0.2894 -0.3074 -0.2356
  192POPC   C1A 2790   0.973   3.431   4.527 -0.1302  0.1664  0.1194
  192POPC   D2A 2791   1.387   3.145   4.544  0.0045  0.1028  0.1257
  192POPC   C3A 2792   1.403   2.820   4.860 -0.0015  0.0817  0.0798
  192POPC   C4A 2793   1.635   2.743   5.164  0.0050 -0.2940  0.2410
  192POPC   C1B 2794   1.003   3.788   4.977  0.1940 -0.1761  0.1480
  192POPC   C2B 2795   1.197   3.518   5.242 -0.2598 -0.0806  0.1266
  192POPC   C3B 2796   1.410   3.200   5.513 -0.1479  0.1670  0.2632
  192POPC   C4B 2797   1.675   2.942   5.637  0.2656 -0.0480 -0.2743
  193POPC   NC3 2798   9.127   3.539   4.530  0.1950 -0.2033 -0.1398
  193POPC   PO4 2799   9.261   3.285   4.747 -0.0092  0.2746 -0.0875
  193POPC   GL1 2800   8.988   3.262   5.070  0.0115  0.0027 -0.0664
  193POPC   GL2 2801   8.614   3.493   5.071 -0.1850 -0.1350  0.1683
  193POPC   C1A 2802   9.071   3.245   5.456  0.1193 -0.1988  0.1688
  193POPC   D2A 2803   9.102   3.127   5.876 -0.0071  0.1148  0.1722
  193POPC   C3A 2804   8.816   3.142   6.285 -0.1707 -0.2167  0.2582
  193POPC   C4A 2805   8.428   3.068   6.581  0.1066  0.3177  0.2369
  193POPC   C1B 2806   8.587   3.239   5.421 -0.0645 -0.1456 -0.3119
  193POPC   C2B 2807   8.438   3.288   5.850  0.2787  0.0665  0.0865
  193POPC   C3B 2808   8.599   3.579   6.302 -0.0581 -0.0901 -0.0956
  193POPC   C4B 2809   8.708   3.910   6.580 -0.0562 -0.0632  0.0623
  194POPC   NC3 2810   9.529   1.140   3.819  0.1007 -0.0463 -0.1302
  194POPC   PO4 2811   9.307   1.005   4.225  0.0453  0.2942 -0.0617
  194POPC   GL1 2812   9.262   0.860   4.765  0.2097  0.1964  0.1454
  194POPC   GL2 2813   9.442   0.879   4.987 -0.0574 -0.1690 -0.0633
  194POPC   C1A 2814   8.926   0.841   5.125  0.1791  0.0008  0.1123
  194POPC   D2A 2815   8.929   0.629   5.507  0.0970  0.0470  0.0503
  194POPC   C3A 2816   8.714   0.595   5.884 -0.0952 -0.0831 -0.0493
  194POPC   C4A 2817   8.531   0.626   6.358 -0.0215  0.2665 -0.2242
  194POPC   C1B 2818   9.846   0.983   4.994 -0.1686  0.0984 -0.0840
  194POPC   C2B 2819  10.005   1.128   5.333  0.0443  0.0301  0.0555
  194POPC   C3B 2820  10.121   1.249   5.650  0.0709 -0.3842  0.1736
  194POPC   C4B 2821  10.106   1.537   6.011 -0.0198 -0.2095  0.1112
  195POPC   NC3 2822   6.870   1.306   4.118  0.1848  0.0685 -0.1421
  195POPC   PO4 2823   7.375   1.394   4.124  0.1330  0.2312  0.0776
  195POPC   GL1 2824   7.254   1.427   4.521  0.1426  0.4173  0.2299
  195POPC   GL2 2825   7.457   1.379   4.772  0.1052 -0.0556  0.1189
  195POPC   C1A 2826   6.955   1.297   4.856  0.0154  0.0705 -0.0370
  195POPC   D2A 2827   6.754   1.036   5.106 -0.2174  0.1195 -0.1890
  195POPC   C3A 2828   6.701   1.086   5.450 -0.0272 -0.3019  0.0227
  195POPC   C4A 2829   6.878   1.345   5.764 -0.1372 -0.1792  0.0088
  195POPC   C1B 2830   7.646   1.522   5.191 -0.1178  0.2128 -0.0683
  195POPC   C2B 2831   7.844   1.521   5.614  0.1069 -0.1068 -0.0554
  195POPC   C3B 2832   8.237   1.334   5.768  0.2436 -0.3779 -0.0883
  195POPC   C4B 2833   8.607   1.056   5.680  0.0475 -0.1795 -0.2174
  196POPC   NC3 2834   0.534   4.259   4.759 -0.1203  0.0183  0.1546
  196POPC   PO4 2835   0.128   4.453   4.849  0.2487 -0.1427 -0.2046
  196POPC   GL1 2836   0.117   4.140   5.133  0.0669 -0.3154  0.1799
  196POPC   GL2 2837   0.094   3.830   4.882 -0.0635  0.0366 -0.0038
  196POPC   C1A 2838  -0.191   3.851   5.298 -0.0087 -0.2049 -0.1153
  196POPC   D2A 2839  -0.189   3.407   5.612 -0.0273  0.0951 -0.4109
  196POPC   C3A 2840  -0.414   3.479   6.039  0.0344 -0.0213  0.1815
  196POPC   C4A 2841  -0.725   3.775   6.170 -0.3322 -0.2984 -0.2581
  196POPC   C1B 2842   0.446   3.612   4.946  0.0026  0.0084  0.2208
  196POPC   C2B 2843   0.692   3.384   5.238 -0.0111 -0.0235  0.3355
  196POPC   C3B 2844   0.618   3.048   5.473  0.0469 -0.3325 -0.2318
  196POPC   C4B 2845   0.681   2.575   5.557  0.0936 -0.0879 -0.0202
  197POPC   NC3 2846   3.659   8.850   4.261  0.1742 -0.4311  0.1370
  197POPC   PO4 2847   3.374   9.267   4.065  0.2193 -0.3245  0.1140
  197POPC   GL1 2848   3.175   9.068   4.442 -0.1446 -0.0230  0.0285
  197POPC   GL2 2849   3.217   8.774   4.519 -0.0735  0.1888 -0.0213
  197POPC   C1A 2850   2.916   8.885   4.882  0.3107 -0.0524  0.1672
  197POPC   D2A 2851   3.059   9.032   5.249  0.0361  0.1897 -0.3627
  197POPC   C3A 2852   2.646   9.175   5.453 -0.0423  0.0855  0.0327
  197POPC   C4A 2853   2.347   9.265   5.850  0.1151 -0.1956  0.0936
  197POPC   C1B 2854   3.484   8.841   4.827  0.2869 -0.2283  0.1142
  197POPC   C2B 2855   3.799   9.077   5.019 -0.1170  0.1617 -0.5237
  197POPC   C3B 2856   3.907   9.121   5.482 -0.1035  0.2016 -0.3059
  197POPC   C4B 2857   3.773   8.892   5.778  0.0106  0.0571  0.1645
  198POPC   NC3 2858   5.764   8.958   3.928  0.0521  0.0177  0.2943
  198POPC   PO4 2859   5.457   9.058   4.263  0.0405  0.0970 -0.4506
  198POPC   GL1 2860   5.466   8.900   4.705 -0.0494 -0.0164  0.2487
  198POPC   GL2 2861   5.127   8.900   4.823 -0.1498 -0.2856  0.0585
  198POPC   C1A 2862   5.775   8.922   5.042  0.1415 -0.1463 -0.0288
  198POPC   D2A 2863   6.037   9.133   5.311  0.2320 -0.1606 -0.0351
  198POPC   C3A 2864   6.431   9.045   5.242  0.1225 -0.0238 -0.2277
  198POPC   C4A 2865   6.570   8.603   5.248 -0.0483  0.0130 -0.3503
  198POPC   C1B 2866   5.292   8.954   5.222 -0.1390 -0.2378 -0.1404
  198POPC   C2B 2867   5.665   8.834   5.492  0.2025 -0.0793 -0.2030
  198POPC   C3B 2868   5.947   8.745   5.776 -0.2033  0.1249 -0.1818
  198POPC   C4B 2869   6.024   8.498   6.119  0.1838  0.1198 -0.1664
  199POPC   NC3 2870   6.471  10.283   3.830 -0.3491 -0.0681 -0.1360
  199POPC   PO4 2871   6.447  10.557   4.200 -0.0760  0.0612 -0.1067
  199POPC   GL1 2872   6.453  10.808   4.598  0.1715  0.0359 -0.0168
  199POPC   GL2 2873   6.218  11.040   4.537  0.0441 -0.1632 -0.2649
  199POPC   C1A 2874   6.312  10.694   5.018  0.3877 -0.2234 -0.0133
  199POPC   D2A 2875   6.572  10.630   5.346  0.0019  0.3002 -0.0588
  199POPC   C3A 2876   6.347  10.780   5.656 -0.1206 -0.1443  0.1271
  199POPC   C4A 2877   6.168  10.748   6.000 -0.0813 -0.0272 -0.1806
  199POPC   C1B 2878   6.199  11.138   4.912  0.1392 -0.0053 -0.2255
  199POPC   C2B 2879   6.215  11.105   5.269  0.3221 -0.1910 -0.2501
  199POPC   C3B 2880   6.418  11.338   5.570  0.0718 -0.0195  0.2433
  199POPC   C4B 2881   6.430  11.564   5.777 -0.1115  0.1761  0.3594
  200POPC   NC3 2882   0.958   0.003   3.958  0.1622 -0.1087 -0.0331
  200POPC   PO4 2883   0.755   0.400   3.987 -0.2558  0.0941  0.0591
  200POPC   GL1 2884   0.713   0.587   4.328  0.0309 -0.5218 -0.0864
  200POPC   GL2 2885   0.982   0.727   4.386  0.1141 -0.3336 -0.0418
  200POPC   C1A 2886   0.544   0.848   4.743  0.1132 -0.1270  0.0884
  200POPC   D2A 2887   0.383   0.796   5.026 -0.2088  0.1004  0.1710
  200POPC   C3A 2888   0.454   0.662   5.454 -0.1879  0.1537 -0.1867
  200POPC   C4A 2889   0.189   0.506   5.822  0.1861  0.0100 -0.2352
  200POPC   C1B 2890   0.934   0.484   4.806  0.0381 -0.1745  0.1047
  200POPC   C2B 2891   0.983   0.667   5.131 -0.0850 -0.1296 -0.2019
  200POPC   C3B 2892   0.971   0.561   5.616  0.1454 -0.4636  0.0739
  200POPC   C4B 2893   1.120   0.877   5.820  0.0306  0.2448  0.2347
  201POPC   NC3 2894   7.028   7.114   4.083  0.2447  0.0009 -0.0761
  201POPC   PO4 2895   7.277   6.850   4.286 -0.2953 -0.0781 -0.0500
  201POPC   GL1 2896   7.013   6.985   4.621 -0.0674 -0.1527  0.4149
  201POPC   GL2 2897   6.714   7.130   4.503 -0.0283 -0.1341  0.0754
  201POPC   C1A 2898   7.134   6.914   5.105  0.3028 -0.0772 -0.1351
  201POPC   D2A 2899   7.056   7.138   5.487 -0.1349 -0.0165 -0.0483
  201POPC   C3A 2900   7.388   7.266   5.806 -0.1819  0.1522 -0.1947
  201POPC   C4A 2901   7.892   7.385   5.758 -0.2381 -0.2253  0.1499
  201POPC   C1B 2902   6.651   7.258   4.867 -0.0412  0.0240  0.0426
  201POPC   C2B 2903   6.605   7.348   5.256 -0.0676 -0.3247  0.1267
  201POPC   C3B 2904   6.720   7.643   5.554 -0.0728 -0.3073  0.1884
  201POPC   C4B 2905   7.048   7.977   5.648 -0.3207 -0.0286 -0.3475
  202POPC   NC3 2906  10.392   4.548   5.087 -0.2143 -0.2777  0.0372
  202POPC   PO4 2907  10.166   4.911   5.082  0.1280 -0.3576 -0.1610
  202POPC   GL1 2908   9.860   5.150   5.327  0.0526 -0.1372  0.1860
  202POPC   GL2 2909   9.888   5.484   5.137 -0.3392 -0.1561  0.3121
  202POPC   C1A 2910   9.579   5.141   5.649 -0.0727 -0.0277 -0.1579
  202POPC   D2A 2911   9.306   5.402   5.884 -0.1643  0.1422 -0.1405
  202POPC   C3A 2912   9.135   5.543   6.338 -0.0961  0.1892 -0.1167
  202POPC   C4A 2913   8.861   5.623   6.602 -0.1768  0.1232  0.1945
  202POPC   C1B 2914   9.573   5.812   5.154 -0.3307  0.2459  0.1188
  202POPC   C2B 2915   9.289   6.106   5.223 -0.1136  0.0542 -0.0275
  202POPC   C3B 2916   8.901   6.257   5.426 -0.3413  0.0817 -0.1317
  202POPC   C4B 2917   8.984   6.620   5.541 -0.1102 -0.0888  0.2899
  203POPC   NC3 2918   6.059   0.746   4.322 -0.1696  0.1593  0.1789
  203POPC   PO4 2919   5.859   0.359   4.204  0.0202  0.3359 -0.3351
  203POPC   GL1 2920   5.687   0.229   4.614 -0.0666 -0.0888  0.1132
  203POPC   GL2 2921   5.713   0.466   4.692 -0.2293  0.0764 -0.1925
  203POPC   C1A 2922   5.827   0.031   4.944  0.3521  0.0116  0.2388
  203POPC   D2A 2923   5.926  -0.013   5.362 -0.0001 -0.2191 -0.0854
  203POPC   C3A 2924   5.583  -0.085   5.764  0.1930  0.0171 -0.2353
  203POPC   C4A 2925   5.467  -0.511   5.981 -0.2899  0.0329  0.1492
  203POPC   C1B 2926   5.745   0.460   5.218 -0.1620 -0.1126 -0.2066
  203POPC   C2B 2927   5.660   0.381   5.563 -0.1819  0.0052 -0.0433
  203POPC   C3B 2928   5.805   0.372   5.979  0.3371 -0.0947  0.3965
  203POPC   C4B 2929   6.183   0.529   6.183  0.1251 -0.2799  0.0611
  204POPC   NC3 2930   6.607   9.621   4.173 -0.2338 -0.1418  0.1243
  204POPC   PO4 2931   6.690   9.265   3.789 -0.0055  0.0427  0.0659
  204POPC   GL1 2932   6.712   9.112   4.296 -0.3123  0.3958 -0.0555
  204POPC   GL2 2933   6.510   8.718   4.427 -0.0758  0.0209  0.0545
  204POPC   C1A 2934   6.760   9.340   4.695  0.0132 -0.0237 -0.0799
  204POPC   D2A 2935   6.876   9.678   5.008 -0.2128 -0.1190 -0.0058
  204POPC   C3A 2936   6.785   9.602   5.377  0.4398  0.0900  0.3805
  204POPC   C4A 2937   6.866   9.339   5.769  0.0915  0.0319  0.0260
  204POPC   C1B 2938   6.689   8.880   4.783  0.0974 -0.0992 -0.1585
  204POPC   C2B 2939   6.967   8.669   4.981 -0.1387  0.1498  0.0783
  204POPC   C3B 2940   7.050   8.405   5.365  0.0521  0.0336  0.2566
  204POPC   C4B 2941   7.319   8.535   5.739 -0.1727 -0.1506  0.0185
  205POPC   NC3 2942   7.269   0.237   4.045  0.2771  0.2642  0.1822
  205POPC   PO4 2943   7.505   0.018   4.430 -0.1637  0.0385 -0.0216
  205POPC   GL1 2944   7.440   0.411   4.774 -0.1219 -0.2045  0.1635
  205POPC   GL2 2945   7.291   0.574   4.472 -0.3621 -0.2238  0.0504
  205POPC   C1A 2946   7.659   0.601   5.136 -0.2135 -0.0370 -0.1293
  205POPC   D2A 2947   7.555   0.514   5.588  0.1656  0.2686 -0.1309
  205POPC   C3A 2948   7.967   0.498   5.736 -0.1133  0.0993 -0.2309
  205POPC   C4A 2949   8.314   0.768   5.888 -0.0412 -0.1521  0.0060
  205POPC   C1B 2950   6.943   0.509   4.802 -0.1967  0.1068 -0.1923
  205POPC   C2B 2951   6.704   0.350   5.119 -0.1188 -0.4030  0.1872
  205POPC   C3B 2952   6.821   0.299   5.593  0.1179 -0.0996  0.0588
  205POPC   C4B 2953   6.646   0.443   5.932  0.2582 -0.1801 -0.1442
  206POPC   NC3 2954   3.044  10.257   4.052 -0.0140  0.1202 -0.0326
  206POPC   PO4 2955   2.904   9.973   4.330  0.4462 -0.0680 -0.0081
  206POPC   GL1 2956   2.825   9.901   4.806 -0.0492 -0.1389  0.0924
  206POPC   GL2 2957   3.168   9.929   5.056 -0.2231  0.1477  0.0225
  206POPC   C1A 2958   2.636   9.712   5.188  0.1022  0.0344  0.0098
  206POPC   D2A 2959   2.642   9.756   5.628  0.0870  0.3459  0.1001
  206POPC   C3A 2960   2.716   9.577   6.060 -0.1703  0.0501  0.5492
  206POPC   C4A 2961   2.903   9.428   6.453 -0.0644  0.0089  0.0019
  206POPC   C1B 2962   2.931  10.081   5.319 -0.0075  0.0132  0.0027
  206POPC   C2B 2963   2.646  10.297   5.532 -0.1471  0.2836  0.3040
  206POPC   C3B 2964   2.355  10.226   5.793 -0.0982 -0.1078  0.2194
  206POPC   C4B 2965   2.231   9.728   5.920 -0.2802 -0.0930 -0.0421
  207POPC   NC3 2966   2.672   2.757   3.968  0.1533  0.0276  0.1127
  207POPC   PO4 2967   2.640   3.163   4.135 -0.0370 -0.0234  0.1865
  207POPC   GL1 2968   2.548   2.929   4.507 -0.0744  0.2743  0.0441
  207POPC   GL2 2969   2.316   2.755   4.408 -0.1580  0.3525 -0.1181
  207POPC   C1A 2970   2.642   2.778   4.904 -0.1080  0.0758  0.1379
  207POPC   D2A 2971   2.653   2.975   5.352 -0.3174  0.0274 -0.1900
  207POPC   C3A 2972   2.714   2.756   5.766  0.2747 -0.0180 -0.0090
  207POPC   C4A 2973   3.169   2.642   5.896  0.3803 -0.0965 -0.0071
  207POPC   C1B 2974   2.128   2.657   4.830  0.0040  0.0463  0.0808
  207POPC   C2B 2975   2.172   2.475   5.173 -0.0891  0.0577 -0.3853
  207POPC   C3B 2976   2.424   2.452   5.456 -0.1470 -0.2824  0.2059
  207POPC   C4B 2977   2.469   2.228   5.823  0.2531 -0.0400 -0.2942
  208POPC   NC3 2978   8.439   4.533   4.558 -0.0251 -0.0943  0.2114
  208POPC   PO4 2979   8.664   4.096   4.401 -0.0089 -0.2066 -0.1067
  208POPC   GL1 2980   8.514   4.183   4.875 -0.4108  0.2571  0.1824
  208POPC   GL2 2981   8.714   4.402   5.086 -0.0478 -0.0912  0.0535
  208POPC   C1A 2982   8.388   3.944   5.231  0.0521 -0.2113 -0.0983
  208POPC   D2A 2983   8.503   3.719   5.675  0.1303 -0.2518  0.2845
  208POPC   C3A 2984   8.478   4.056   5.949 -0.2145  0.1054  0.0118
  208POPC   C4A 2985   8.536   4.416   6.244  0.2605  0.1376 -0.1838
  208POPC   C1B 2986   8.447   4.689   5.291  0.2138 -0.1098  0.1797
  208POPC   C2B 2987   8.157   4.835   5.471 -0.3522 -0.4256 -0.0298
  208POPC   C3B 2988   8.039   4.929   5.805 -0.1774 -0.0382  0.0914
  208POPC   C4B 2989   8.256   4.925   6.253 -0.1092  0.0479 -0.0711
  209POPC   NC3 2990   5.772   8.077   3.400 -0.0871  0.0371 -0.3845
  209POPC   PO4 2991   5.993   8.051   3.850 -0.2242 -0.1625  0.0946
  209POPC   GL1 2992   6.180   7.986   4.273 -0.0656  0.2434 -0.1286
  209POPC   GL2 2993   5.889   7.857   4.490 -0.1409 -0.1906  0.1894
  209POPC   C1A 2994   6.210   8.142   4.742 -0.3403 -0.2177 -0.4267
  209POPC   D2A 2995   6.045   8.139   5.185 -0.1051 -0.2429  0.2095
  209POPC   C3A 2996   6.205   8.002   5.556 -0.1219 -0.0643 -0.0150
  209POPC   C4A 2997   6.230   8.078   5.988  0.2128  0.1705 -0.1262
  209POPC   C1B 2998   5.978   7.723   4.908  0.1450 -0.1925  0.3006
  209POPC   C2B 2999   6.161   7.604   5.268  0.2005 -0.1510 -0.1837
  209POPC   C3B 3000   6.076   7.431   5.696  0.0353  0.1131  0.0100
  209POPC   C4B 3001   6.260   7.352   6.111 -0.1787  0.1361 -0.1978
  210POPC   NC3 3002   9.431   4.292   4.931  0.0977 -0.1004 -0.0476
  210POPC   PO4 3003   9.181   4.497   5.056  0.1537  0.0759 -0.1790
  210POPC   GL1 3004   9.192   4.602   5.487  0.1241 -0.1564  0.0650
  210POPC   GL2 3005   8.948   4.781   5.566  0.0755  0.2366 -0.1693
  210POPC   C1A 3006   9.524   4.638   5.733 -0.1484  0.0951  0.0519
  210POPC   D2A 3007   9.821   4.888   6.080 -0.1674 -0.0018 -0.0548
  210POPC   C3A 3008   9.851   4.808   6.417  0.4153 -0.1988 -0.0933
  210POPC   C4A 3009  10.009   4.851   6.827 -0.1192  0.0604  0.1277
  210POPC   C1B 3010   9.174   4.902   6.036 -0.3503 -0.0990  0.4497
  210POPC   C2B 3011   9.182   4.872   6.515 -0.1045  0.0388 -0.2528
  210POPC   C3B 3012   9.260   4.885   6.941  0.0447 -0.1399  0.1499
  210POPC   C4B 3013   9.584   4.886   7.117  0.1769  0.1154  0.1535
  211POPC   NC3 3014  10.159   0.848   4.237 -0.0448  0.1438  0.1572
  211POPC   PO4 3015  10.359   0.442   4.126  0.3401 -0.0254 -0.0785
  211POPC   GL1 3016  10.332   0.486   4.565 -0.1418  0.1166  0.1105
  211POPC   GL2 3017  10.146   0.685   4.755 -0.2556  0.3183  0.3780
  211POPC   C1A 3018  10.548   0.610   4.913 -0.2393  0.1232 -0.0483
  211POPC   D2A 3019  10.640   0.669   5.385 -0.2294  0.1571 -0.0193
  211POPC   C3A 3020  10.556   0.988   5.684 -0.3143  0.1322 -0.1105
  211POPC   C4A 3021  10.490   1.149   6.095  0.5541 -0.1060 -0.2224
  211POPC   C1B 3022  10.191   0.234   4.968  0.0357 -0.0246  0.0493
  211POPC   C2B 3023  10.213  -0.110   5.205 -0.1571  0.1162  0.0417
  211POPC   C3B 3024  10.192  -0.239   5.562 -0.2048  0.0552  0.1992
  211POPC   C4B 3025  10.105  -0.500   5.919  0.2896  0.0659 -0.2096
  212POPC   NC3 3026   6.716   0.767   3.694 -0.1358 -0.0919  0.0298
  212POPC   PO4 3027   6.937   0.759   4.027 -0.2969 -0.1708  0.2716
  212POPC   GL1 3028   7.034   0.942   4.370  0.0859 -0.1132  0.2003
  212POPC   GL2 3029   6.650   1.094   4.551 -0.0186 -0.1037 -0.1139
  212POPC   C1A 3030   7.239   0.905   4.859 -0.1407  0.2873 -0.0814
  212POPC   D2A 3031   7.168   0.684   5.280 -0.2545  0.0989  0.5354
  212POPC   C3A 3032   7.012   0.798   5.671 -0.4235  0.1833  0.1145
  212POPC   C4A 3033   6.827   0.896   6.114 -0.1988 -0.1372  0.1063
  212POPC   C1B 3034   6.349   0.952   4.875 -0.1873 -0.5028 -0.0965
  212POPC   C2B 3035   6.248   1.144   5.294 -0.2524  0.1472  0.2352
  212POPC   C3B 3036   6.116   1.327   5.699 -0.0801 -0.2072 -0.1144
  212POPC   C4B 3037   5.933   1.353   6.178 -0.1812 -0.0063 -0.0989
  213POPC   NC3 3038   9.242   2.296   4.658  0.0245 -0.0240 -0.0524
  213POPC   PO4 3039   9.029   1.840   4.821  0.0543 -0.0607  0.0192
  213POPC   GL1 3040   9.516   1.704   4.872  0.3186 -0.2020  0.4836
  213POPC   GL2 3041   9.526   1.948   5.018 -0.1217  0.0759  0.1610
  213POPC   C1A 3042   9.587   1.352   5.093 -0.1670  0.3362  0.2162
  213POPC   D2A 3043   9.569   1.064   5.503  0.3070 -0.0328  0.0869
  213POPC   C3A 3044   9.628   0.619   5.639 -0.0721  0.0779 -0.3773
  213POPC   C4A 3045   9.467   0.425   6.019  0.1914  0.0141 -0.1152
  213POPC   C1B 3046   9.708   2.110   5.394  0.5240  0.2338  0.1104
  213POPC   C2B 3047   9.981   2.108   5.778  0.0828  0.0184 -0.1887
  213POPC   C3B 3048  10.414   1.997   6.092 -0.0117 -0.1501  0.1010
  213POPC   C4B 3049  10.680   2.131   6.410 -0.2227  0.1988 -0.0083
  214POPC   NC3 3050   7.060   7.445   3.212  0.2699 -0.0233  0.0635
  214POPC   PO4 3051   7.284   7.264   3.674  0.0497 -0.0539 -0.0284
  214POPC   GL1 3052   7.323   7.538   4.096  0.0343 -0.1298  0.0670
  214POPC   GL2 3053   7.304   7.901   4.086 -0.0872  0.0848  0.0143
  214POPC   C1A 3054   7.211   7.536   4.541 -0.3784 -0.1991 -0.0539
  214POPC   D2A 3055   7.121   7.403   5.000  0.4028  0.2861 -0.0558
  214POPC   C3A 3056   7.169   7.598   5.378  0.0555  0.0306  0.1062
  214POPC   C4A 3057   7.515   7.776   5.654  0.0812 -0.2179 -0.3029
  214POPC   C1B 3058   7.193   8.066   4.427  0.0223 -0.2831 -0.1712
  214POPC   C2B 3059   7.312   8.353   4.716  0.2952 -0.0976 -0.1321
  214POPC   C3B 3060   7.460   8.556   5.012  0.0010  0.1610 -0.0032
  214POPC   C4B 3061   7.386   8.861   5.264 -0.0007  0.1205 -0.1235
  215POPC   NC3 3062   3.781   5.175   4.040 -0.0828 -0.0450  0.0067
  215POPC   PO4 3063   3.844   5.648   4.013  0.0880  0.0518  0.0320
  215POPC   GL1 3064   3.993   5.490   4.446  0.1180  0.3259  0.0043
  215POPC   GL2 3065   3.806   5.210   4.560 -0.2802 -0.0567 -0.0378
  215POPC   C1A 3066   4.029   5.451   4.891  0.1078 -0.0959  0.0738
  215POPC   D2A 3067   4.014   5.690   5.339 -0.2157  0.1781  0.2805
  215POPC   C3A 3068   4.113   5.691   5.791 -0.0515  0.0725  0.2490
  215POPC   C4A 3069   4.351   5.513   6.116  0.1209 -0.0641  0.1537
  215POPC   C1B 3070   3.493   5.414   4.868  0.0205 -0.0561 -0.1510
  215POPC   C2B 3071   3.213   5.325   5.243  0.2731  0.0390 -0.0745
  215POPC   C3B 3072   3.186   5.545   5.640 -0.1039  0.1660 -0.0596
  215POPC   C4B 3073   3.269   5.494   6.024  0.0141  0.1311  0.3739
  216POPC   NC3 3074   6.731   8.689   3.978 -0.1378  0.1166  0.0084
  216POPC   PO4 3075   6.341   8.846   3.943 -0.0681 -0.1063 -0.3253
  216POPC   GL1 3076   6.010   8.812   4.380 -0.1218 -0.1865  0.2324
  216POPC   GL2 3077   5.878   9.087   4.461 -0.0872  0.1146  0.1878
  216POPC   C1A 3078   6.193   8.675   4.790 -0.0182 -0.0355  0.2658
  216POPC   D2A 3079   6.089   8.644   5.336 -0.0036  0.0173  0.1493
  216POPC   C3A 3080   6.336   8.483   5.698 -0.0592 -0.0215  0.2375
  216POPC   C4A 3081   6.665   8.257   5.680 -0.0515 -0.2389  0.3870
  216POPC   C1B 3082   6.211   9.180   4.756  0.3171  0.0544 -0.2677
  216POPC   C2B 3083   6.329   9.521   5.038  0.1184  0.0321 -0.3480
  216POPC   C3B 3084   5.992   9.641   5.304  0.0654  0.0074  0.1974
  216POPC   C4B 3085   5.876   9.737   5.647 -0.1033 -0.0907 -0.2549
  217POPC   NC3 3086   4.850   6.707   4.517  0.2231 -0.2402  0.2107
  217POPC   PO4 3087   4.538   6.585   4.207  0.1426 -0.3669  0.2587
  217POPC   GL1 3088   4.397   6.360   4.500  0.2850  0.0926 -0.1835
  217POPC   GL2 3089   4.031   6.382   4.630  0.0025  0.1046  0.0012
  217POPC   C1A 3090   4.383   6.355   4.949 -0.1416  0.1996  0.1727
  217POPC   D2A 3091   4.382   6.650   5.243  0.4084 -0.3079 -0.1136
  217POPC   C3A 3092   4.618   6.682   5.542  0.0987 -0.2964 -0.1898
  217POPC   C4A 3093   4.865   6.695   5.963 -0.0237 -0.0337 -0.0052
  217POPC   C1B 3094   3.909   6.467   5.054 -0.1571  0.0238  0.4083
  217POPC   C2B 3095   3.785   6.208   5.462 -0.0464 -0.1125 -0.0442
  217POPC   C3B 3096   4.082   6.187   5.885 -0.2215  0.1684 -0.1534
  217POPC   C4B 3097   4.323   5.999   6.281  0.1447 -0.0956  0.1771
  218POPC   NC3 3098   6.586   2.721   4.367  0.1455 -0.1456 -0.3049
  218POPC   PO4 3099   6.813   3.099   4.514 -0.1259 -0.0562  0.0832
  218POPC   GL1 3100   6.791   3.279   4.908 -0.0603 -0.0793 -0.0500
  218POPC   GL2 3101   7.065   3.489   5.076  0.1329 -0.2745  0.1613
  218POPC   C1A 3102   6.610   3.465   5.328  0.1000 -0.3449  0.1406
  218POPC   D2A 3103   6.667   3.718   5.706  0.1611  0.0431  0.1114
  218POPC   C3A 3104   6.791   3.684   6.099  0.0106  0.0421 -0.0614
  218POPC   C4A 3105   6.696   3.500   6.496  0.1308 -0.1569 -0.1887
  218POPC   C1B 3106   7.029   3.456   5.527 -0.2629  0.1218 -0.3401
  218POPC   C2B 3107   7.220   3.199   5.824  0.1356 -0.2755 -0.0585
  218POPC   C3B 3108   7.590   2.907   5.897  0.1048 -0.0010  0.1539
  218POPC   C4B 3109   7.796   2.687   6.165  0.0135 -0.0609 -0.0941
  219POPC   NC3 3110   4.452   9.326   3.991  0.4745 -0.1802 -0.0084
  219POPC   PO4 3111   4.183   9.176   4.282  0.0999 -0.0920 -0.0463
  219POPC   GL1 3112   4.267   9.323   4.707 -0.1159  0.0699 -0.0692
  219POPC   GL2 3113   4.084   9.507   4.867  0.1419  0.0219 -0.0234
  219POPC   C1A 3114   4.292   8.989   5.066 -0.2676 -0.0531 -0.1288
  219POPC   D2A 3115   4.379   8.848   5.512  0.4411  0.1792  0.1527
  219POPC   C3A 3116   4.161   8.575   5.839 -0.1135  0.1948  0.5650
  219POPC   C4A 3117   3.824   8.249   5.806  0.0371 -0.0221  0.1953
  219POPC   C1B 3118   3.846   9.616   5.239  0.0595  0.0022 -0.2665
  219POPC   C2B 3119   3.542   9.778   5.519  0.1038 -0.1800 -0.2565
  219POPC   C3B 3120   3.211   9.814   5.748 -0.1985 -0.3823  0.0051
  219POPC   C4B 3121   2.867  10.080   5.926 -0.0540 -0.0811 -0.0788
  220POPC   NC3 3122   7.193   3.116   4.759  0.1392 -0.1760  0.0741
  220POPC   PO4 3123   7.116   2.671   4.514 -0.0003  0.2241  0.0284
  220POPC   GL1 3124   6.877   2.698   4.900 -0.0500  0.0873  0.0257
  220POPC   GL2 3125   6.664   2.445   4.876 -0.0411  0.1886  0.3787
  220POPC   C1A 3126   6.782   2.944   5.328  0.1775  0.2809 -0.2483
  220POPC   D2A 3127   6.744   3.060   5.705  0.3822 -0.0396 -0.2533
  220POPC   C3A 3128   6.451   3.192   5.805  0.0592 -0.0370 -0.1955
  220POPC   C4A 3129   6.436   3.311   6.153 -0.0050 -0.1207  0.3488
  220POPC   C1B 3130   6.891   2.225   5.178 -0.1624  0.1604 -0.1145
  220POPC   C2B 3131   7.201   2.236   5.628  0.2295  0.0262  0.2281
  220POPC   C3B 3132   7.174   1.785   6.016  0.2936 -0.0520 -0.4938
  220POPC   C4B 3133   7.116   1.376   6.186  0.0577  0.0350  0.1215
  221POPC   NC3 3134   8.897   2.784   4.398 -0.1628 -0.2523 -0.2344
  221POPC   PO4 3135   8.735   3.171   4.620  0.0875  0.3518  0.0698
  221POPC   GL1 3136   8.573   2.819   4.894 -0.1476 -0.1765  0.0124
  221POPC   GL2 3137   8.759   2.812   5.165 -0.1306 -0.1511 -0.0769
  221POPC   C1A 3138   8.258   2.888   5.251  0.1261 -0.0663  0.0787
  221POPC   D2A 3139   8.082   2.823   5.720 -0.0933 -0.3178 -0.1599
  221POPC   C3A 3140   8.031   3.107   6.119  0.2165  0.2280  0.3110
  221POPC   C4A 3141   8.094   3.448   6.306 -0.3711 -0.1621  0.2193
  221POPC   C1B 3142   8.667   2.788   5.562 -0.0123  0.4074  0.1156
  221POPC   C2B 3143   8.569   2.728   5.861 -0.1981  0.3208 -0.0415
  221POPC   C3B 3144   8.508   2.581   6.273  0.0540  0.3178 -0.2874
  221POPC   C4B 3145   8.121   2.314   6.382  0.2787 -0.0141  0.2436
  222POPC   NC3 3146   4.614   2.584   4.487  0.1715 -0.2663  0.1067
  222POPC   PO4 3147   4.607   2.991   4.273 -0.0154  0.4767  0.0298
  222POPC   GL1 3148   4.631   3.102   4.698  0.0845 -0.1414  0.0699
  222POPC   GL2 3149   4.863   2.852   4.864 -0.0156 -0.1502 -0.3039
  222POPC   C1A 3150   4.579   3.358   5.067  0.1947 -0.1501  0.0351
  222POPC   D2A 3151   4.452   3.577   5.481  0.2034  0.0754  0.2384
  222POPC   C3A 3152   4.891   3.765   5.542 -0.0020 -0.0498 -0.1777
  222POPC   C4A 3153   5.304   3.680   5.702 -0.2073  0.2086  0.1709
  222POPC   C1B 3154   5.133   2.489   4.825 -0.0678 -0.1801 -0.1630
  222POPC   C2B 3155   5.408   2.208   5.041  0.1486  0.0227 -0.1732
  222POPC   C3B 3156   5.845   2.276   5.324 -0.0457 -0.0221  0.3707
  222POPC   C4B 3157   5.973   2.321   5.749 -0.2823  0.0523 -0.0821
  223POPC   NC3 3158   4.828   7.008   4.139  0.3088  0.0240 -0.0479
  223POPC   PO4 3159   4.467   7.243   4.272  0.1990 -0.1806  0.1038
  223POPC   GL1 3160   4.463   7.095   4.690 -0.1597 -0.0204 -0.0330
  223POPC   GL2 3161   4.187   6.908   4.720 -0.0392  0.1348  0.3984
  223POPC   C1A 3162   4.475   7.204   5.149 -0.3088 -0.3084 -0.2263
  223POPC   D2A 3163   4.320   7.105   5.494 -0.1877  0.0403 -0.0728
  223POPC   C3A 3164   3.883   7.192   5.591 -0.1516 -0.0177 -0.0986
  223POPC   C4A 3165   3.575   7.291   5.440 -0.1989  0.0755  0.0168
  223POPC   C1B 3166   3.991   6.948   5.074 -0.0963  0.1364 -0.0984
  223POPC   C2B 3167   3.956   6.685   5.495 -0.1033  0.1510 -0.1828
  223POPC   C3B 3168   3.882   6.603   5.804 -0.3519 -0.0644 -0.1008
  223POPC   C4B 3169   3.633   6.431   5.976 -0.3513  0.1790  0.0825
  224POPC   NC3 3170   1.482   8.668   3.766  0.1190  0.0991  0.0619
  224POPC   PO4 3171   1.714   8.897   4.083  0.1214 -0.2873 -0.1069
  224POPC   GL1 3172   1.937   8.955   4.541 -0.1830  0.2772  0.0266
  224POPC   GL2 3173   1.808   8.665   4.552 -0.1475 -0.0443  0.0018
  224POPC   C1A 3174   2.015   8.938   4.955  0.0417  0.0269 -0.0565
  224POPC   D2A 3175   2.183   8.979   5.498  0.1119  0.1697 -0.3018
  224POPC   C3A 3176   2.223   9.461   5.403  0.2321 -0.1077  0.1670
  224POPC   C4A 3177   2.170   9.830   5.374  0.0575 -0.0012  0.1880
  224POPC   C1B 3178   1.717   8.342   4.811 -0.0790 -0.0394 -0.1081
  224POPC   C2B 3179   1.973   7.976   4.970  0.4584  0.0233  0.3487
  224POPC   C3B 3180   1.952   7.787   5.389  0.0186  0.1158 -0.3569
  224POPC   C4B 3181   1.913   7.750   5.861 -0.0095 -0.1897 -0.1743
  225POPC   NC3 3182   5.917   5.875   3.455  0.0055 -0.1171  0.3390
  225POPC   PO4 3183   5.988   5.619   3.820  0.1157  0.1792  0.2376
  225POPC   GL1 3184   5.960   5.678   4.256 -0.2990 -0.0756  0.0259
  225POPC   GL2 3185   5.804   5.567   4.485 -0.3456 -0.0709  0.0975
  225POPC   C1A 3186   6.206   5.863   4.525 -0.0342 -0.0622  0.0688
  225POPC   D2A 3187   6.046   6.256   4.657  0.1343 -0.3283 -0.2360
  225POPC   C3A 3188   6.157   6.357   5.063 -0.0809 -0.1770 -0.0203
  225POPC   C4A 3189   6.379   6.443   5.436 -0.1406  0.1087  0.1423
  225POPC   C1B 3190   5.701   5.732   4.792 -0.1185 -0.1019  0.0477
  225POPC   C2B 3191   5.718   6.080   5.050  0.2867 -0.0616 -0.0920
  225POPC   C3B 3192   5.715   6.522   4.972  0.2159 -0.2321 -0.3046
  225POPC   C4B 3193   5.699   6.923   4.799  0.1414 -0.2880  0.1683
  226POPC   NC3 3194   5.714   4.008   4.633  0.2193  0.2679 -0.1913
  226POPC   PO4 3195   5.926   4.303   4.499 -0.2264 -0.3171 -0.0469
  226POPC   GL1 3196   5.957   4.334   5.011  0.0395  0.1552  0.4510
  226POPC   GL2 3197   5.805   4.039   5.070 -0.0449  0.0435 -0.0830
  226POPC   C1A 3198   5.948   4.388   5.396  0.0434  0.3642  0.2465
  226POPC   D2A 3199   5.689   4.623   5.643 -0.2311  0.2424 -0.1180
  226POPC   C3A 3200   5.841   4.905   5.878  0.0433  0.0087  0.1515
  226POPC   C4A 3201   6.286   5.165   5.919  0.1757  0.0766  0.2070
  226POPC   C1B 3202   5.596   4.013   5.509  0.2027  0.4474 -0.1325
  226POPC   C2B 3203   5.577   3.817   6.027 -0.3972 -0.0462  0.3450
  226POPC   C3B 3204   5.619   3.786   6.391  0.0133 -0.1103 -0.4368
  226POPC   C4B 3205   5.645   3.558   6.768  0.2139 -0.0508 -0.0446
  227POPC   NC3 3206   0.247   2.056   3.812 -0.0335  0.0896 -0.1547
  227POPC   PO4 3207   0.058   1.661   3.886 -0.0894  0.0987 -0.0382
  227POPC   GL1 3208   0.244   1.688   4.273 -0.1494 -0.0505 -0.1678
  227POPC   GL2 3209   0.591   1.866   4.213 -0.0691  0.0683 -0.0113
  227POPC   C1A 3210   0.246   1.878   4.621 -0.0346  0.0776 -0.0605
  227POPC   D2A 3211   0.091   1.685   5.066  0.0779 -0.0145  0.2362
  227POPC   C3A 3212   0.203   1.856   5.416 -0.0543 -0.3166  0.2370
  227POPC   C4A 3213   0.568   2.048   5.578  0.0363 -0.0840 -0.2116
  227POPC   C1B 3214   0.633   2.189   4.396 -0.1860  0.2232  0.1428
  227POPC   C2B 3215   0.859   2.399   4.707  0.3077  0.3322  0.0720
  227POPC   C3B 3216   0.815   2.692   4.957 -0.0809  0.0884  0.2697
  227POPC   C4B 3217   0.367   2.810   5.132  0.1423  0.0856  0.2549
  228POPC   NC3 3218   2.925   6.930   3.789  0.3005 -0.0897  0.0917
  228POPC   PO4 3219   3.018   7.532   3.758 -0.1057 -0.2429 -0.0075
  228POPC   GL1 3220   2.837   7.532   4.180  0.1964  0.1302  0.0858
  228POPC   GL2 3221   3.049   7.424   4.447  0.2434 -0.1358 -0.2906
  228POPC   C1A 3222   2.639   7.879   4.439 -0.0897 -0.0867  0.2306
  228POPC   D2A 3223   2.451   8.055   4.842  0.1318  0.0767  0.1920
  228POPC   C3A 3224   2.622   8.314   5.095  0.2227  0.3189 -0.3822
  228POPC   C4A 3225   2.913   8.604   5.343  0.0116  0.0624  0.0497
  228POPC   C1B 3226   3.022   7.343   4.848 -0.0087 -0.1922 -0.2043
  228POPC   C2B 3227   2.905   7.477   5.255 -0.2197 -0.1349 -0.1711
  228POPC   C3B 3228   2.725   7.600   5.627  0.1395  0.1081 -0.0007
  228POPC   C4B 3229   2.751   7.476   6.071 -0.2713  0.3046 -0.1121
  229POPC   NC3 3230   0.274   5.603   4.036  0.1968  0.0629  0.1860
  229POPC   PO4 3231   0.435   5.891   4.200 -0.0987 -0.0054 -0.2801
  229POPC   GL1 3232   0.270   6.252   4.493  0.0986  0.1198  0.0655
  229POPC   GL2 3233  -0.119   6.212   4.654  0.0657  0.1019  0.1176
  229POPC   C1A 3234   0.168   6.534   4.844  0.1514  0.1737  0.1816
  229POPC   D2A 3235   0.091   6.654   5.235  0.1570  0.1972 -0.0496
  229POPC   C3A 3236   0.141   7.031   5.335 -0.0984  0.1195 -0.2927
  229POPC   C4A 3237   0.287   7.508   5.456 -0.1226 -0.1618  0.0426
  229POPC   C1B 3238  -0.364   6.535   4.789  0.0084  0.0092 -0.0895
  229POPC   C2B 3239  -0.777   6.781   4.992 -0.0124  0.0699  0.2069
  229POPC   C3B 3240  -1.235   6.830   5.029 -0.1708 -0.1914  0.2365
  229POPC   C4B 3241  -1.389   7.119   4.767  0.1461 -0.2235  0.3932
  230POPC   NC3 3242   6.299   5.243   3.947 -0.1661 -0.0853 -0.0590
  230POPC   PO4 3243   5.961   5.176   4.142  0.2869  0.3138 -0.5174
  230POPC   GL1 3244   5.883   4.938   4.539 -0.2548  0.1398 -0.0956
  230POPC   GL2 3245   6.203   4.689   4.715 -0.1878  0.0708 -0.1326
  230POPC   C1A 3246   5.622   4.839   4.877  0.0654  0.2617 -0.3088
  230POPC   D2A 3247   5.431   4.560   5.209  0.2915  0.2384  0.1368
  230POPC   C3A 3248   5.036   4.698   5.437  0.2626  0.1192  0.1920
  230POPC   C4A 3249   4.757   4.589   5.768  0.0793  0.1652  0.1113
  230POPC   C1B 3250   6.457   4.429   5.071 -0.0621  0.0328  0.0559
  230POPC   C2B 3251   6.434   4.360   5.464  0.1516 -0.0467 -0.2199
  230POPC   C3B 3252   6.561   4.207   5.978 -0.1438  0.3655 -0.0915
  230POPC   C4B 3253   6.463   4.168   6.361 -0.1520 -0.2389 -0.1093
  231POPC   NC3 3254   2.403   5.189   3.527 -0.4448 -0.5095  0.0021
  231POPC   PO4 3255   2.637   5.525   3.535 -0.1420 -0.0932 -0.0766
  231POPC   GL1 3256   2.709   5.575   3.998  0.0250 -0.1724 -0.1507
  231POPC   GL2 3257   2.855   5.316   4.089  0.3250  0.1019 -0.0131
  231POPC   C1A 3258   2.695   5.560   4.482  0.0333 -0.1868  0.2607
  231POPC   D2A 3259   2.806   5.360   4.896 -0.0771  0.0748  0.2202
  231POPC   C3A 3260   2.737   5.606   5.282  0.0685 -0.0163 -0.0839
  231POPC   C4A 3261   2.623   5.996   5.399 -0.0323  0.0972  0.0258
  231POPC   C1B 3262   2.707   4.992   4.409  0.0432  0.0324  0.0680
  231POPC   C2B 3263   2.549   4.901   4.775 -0.0453 -0.2861 -0.1236
  231POPC   C3B 3264   2.337   4.631   5.080  0.2103  0.3714 -0.0685
  231POPC   C4B 3265   2.302   4.289   5.290 -0.1446 -0.1033  0.0971
  232POPC   NC3 3266   3.357   4.401   4.084 -0.2341 -0.1804 -0.0438
  232POPC   PO4 3267   3.748   4.644   4.042  0.0730  0.2704 -0.0536
  232POPC   GL1 3268   3.731   4.583   4.489 -0.0969  0.0041 -0.0149
  232POPC   GL2 3269   3.445   4.465   4.634  0.0137 -0.2588 -0.0941
  232POPC   C1A 3270   3.984   4.769   4.840  0.3601 -0.3149  0.0929
  232POPC   D2A 3271   4.183   4.949   5.179 -0.2209  0.1314  0.1660
  232POPC   C3A 3272   4.164   5.263   5.532  0.1218 -0.1287  0.0248
  232POPC   C4A 3273   4.541   5.541   5.602  0.2042 -0.4554  0.0341
  232POPC   C1B 3274   3.437   4.428   4.984 -0.0952 -0.5181 -0.3276
  232POPC   C2B 3275   3.748   4.343   5.283  0.1780  0.1024  0.0243
  232POPC   C3B 3276   3.942   4.390   5.720  0.0476  0.2573 -0.3677
  232POPC   C4B 3277   4.159   4.302   6.124  0.1281 -0.1412  0.1758
  233POPC   NC3 3278   4.012   0.448   4.198  0.0127 -0.0060 -0.0520
  233POPC   PO4 3279   3.994   0.869   4.079 -0.0905  0.0826  0.1136
  233POPC   GL1 3280   4.256   0.734   4.521  0.0298  0.0778 -0.0354
  233POPC   GL2 3281   4.641   0.660   4.623 -0.0127  0.2323  0.2074
  233POPC   C1A 3282   4.211   0.874   4.990 -0.3228  0.1193  0.0586
  233POPC   D2A 3283   4.352   0.951   5.435  0.2577  0.1084  0.1130
  233POPC   C3A 3284   4.258   0.877   5.829 -0.1350  0.3814 -0.1576
  233POPC   C4A 3285   4.491   0.903   6.189  0.2110 -0.1571  0.0997
  233POPC   C1B 3286   4.679   0.770   5.129 -0.1073 -0.2772 -0.0280
  233POPC   C2B 3287   4.892   0.838   5.511 -0.0977 -0.1077  0.1158
  233POPC   C3B 3288   4.799   0.809   5.862  0.1957 -0.2695 -0.1543
  233POPC   C4B 3289   5.022   0.654   6.284  0.0160 -0.1101  0.1556
  234POPC   NC3 3290   1.710   7.986   3.127 -0.4033  0.0907 -0.2096
  234POPC   PO4 3291   1.476   7.686   3.406 -0.2465  0.1307  0.0500
  234POPC   GL1 3292   1.581   7.279   3.639 -0.1923 -0.3727 -0.0073
  234POPC   GL2 3293   1.518   7.593   3.860  0.2321  0.1292 -0.1820
  234POPC   C1A 3294   1.866   7.228   3.983 -0.0482 -0.2284  0.1436
  234POPC   D2A 3295   1.965   7.196   4.450 -0.2404  0.1082 -0.0231
  234POPC   C3A 3296   2.059   7.566   4.584 -0.1585 -0.0926  0.1046
  234POPC   C4A 3297   2.108   8.002   4.439 -0.1225 -0.2169 -0.2692
  234POPC   C1B 3298   1.531   7.444   4.321  0.0338  0.1394  0.2866
  234POPC   C2B 3299   1.641   7.450   4.773  0.2165  0.0047  0.1842
  234POPC   C3B 3300   1.563   7.455   5.194  0.1818  0.0182 -0.0722
  234POPC   C4B 3301   1.150   7.272   5.093 -0.0363  0.0155 -0.0337
  235POPC   NC3 3302   7.649   8.224   3.267 -0.1083 -0.1388 -0.0334
  235POPC   PO4 3303   7.841   7.944   3.636  0.1134 -0.0341  0.0113
  235POPC   GL1 3304   7.877   7.997   4.103  0.2696  0.3673 -0.3481
  235POPC   GL2 3305   7.676   8.194   4.296  0.1931  0.0618  0.0658
  235POPC   C1A 3306   7.624   7.733   4.472 -0.2250 -0.0100  0.1323
  235POPC   D2A 3307   7.484   7.781   4.828 -0.3651  0.1750 -0.0001
  235POPC   C3A 3308   7.620   7.538   5.172  0.0408 -0.0790 -0.0690
  235POPC   C4A 3309   7.585   7.160   5.379  0.3144 -0.1086  0.0499
  235POPC   C1B 3310   7.811   8.159   4.694 -0.1260  0.0089 -0.1593
  235POPC   C2B 3311   7.981   7.856   4.871  0.0961  0.0856  0.1809
  235POPC   C3B 3312   8.312   8.003   5.168 -0.1024 -0.1327  0.0809
  235POPC   C4B 3313   8.260   8.211   5.516  0.2463  0.0315  0.4032
  236POPC   NC3 3314   1.626   0.324   4.254 -0.1572 -0.1526 -0.1615
  236POPC   PO4 3315   1.526  -0.128   4.305 -0.1004  0.0892  0.0448
  236POPC   GL1 3316   1.484   0.007   4.708 -0.2501  0.1533 -0.2558
  236POPC   GL2 3317   1.453   0.384   4.784 -0.2125  0.0541 -0.2265
  236POPC   C1A 3318   1.614  -0.050   5.144 -0.0368 -0.0737 -0.0808
  236POPC   D2A 3319   1.887  -0.125   5.560 -0.0450 -0.0555  0.4545
  236POPC   C3A 3320   2.233  -0.335   5.296  0.1628  0.1434  0.0249
  236POPC   C4A 3321   2.348  -0.629   5.021  0.5153  0.0079  0.1183
  236POPC   C1B 3322   1.449   0.411   5.249 -0.1542 -0.3562 -0.0791
  236POPC   C2B 3323   1.536   0.629   5.612  0.0193 -0.2122 -0.0862
  236POPC   C3B 3324   1.509   0.677   6.072 -0.2704  0.1015 -0.3547
  236POPC   C4B 3325   1.479   0.595   6.538 -0.3772 -0.1476 -0.1439
  237POPC   NC3 3326   0.568   6.429   3.506  0.1820 -0.2178  0.1543
  237POPC   PO4 3327   0.985   6.586   3.626 -0.0784 -0.2567 -0.0909
  237POPC   GL1 3328   1.275   6.867   3.637  0.0664  0.0845  0.0379
  237POPC   GL2 3329   1.649   6.841   3.767 -0.1104  0.1507  0.0267
  237POPC   C1A 3330   1.295   7.036   4.078  0.0207  0.3308  0.1626
  237POPC   D2A 3331   1.169   7.200   4.577 -0.0726 -0.1220 -0.2078
  237POPC   C3A 3332   1.168   7.619   4.677 -0.1704 -0.0909 -0.5601
  237POPC   C4A 3333   0.988   7.747   4.988 -0.0068 -0.2029 -0.0130
  237POPC   C1B 3334   1.741   6.771   4.251 -0.2425 -0.2759 -0.0067
  237POPC   C2B 3335   1.576   6.855   4.672  0.2818  0.4392  0.0012
  237POPC   C3B 3336   1.680   6.986   5.093 -0.0531 -0.0409  0.1666
  237POPC   C4B 3337   1.707   7.086   5.517 -0.3503  0.0068  0.1198
  238POPC   NC3 3338   4.483   3.489   4.247  0.1069  0.0800  0.1105
  238POPC   PO4 3339   4.483   3.960   4.504  0.2898  0.0785 -0.0733
  238POPC   GL1 3340   4.549   3.827   4.929  0.0486 -0.0369 -0.2284
  238POPC   GL2 3341   4.896   3.807   5.062 -0.0727  0.0125  0.1007
  238POPC   C1A 3342   4.403   4.061   5.385 -0.1132  0.0302 -0.4250
  238POPC   D2A 3343   4.524   4.169   5.724 -0.2037 -0.0694  0.0800
  238POPC   C3A 3344   4.507   3.884   5.876  0.0443 -0.1122 -0.3079
  238POPC   C4A 3345   4.369   3.550   6.122  0.0728 -0.1742  0.1463
  238POPC   C1B 3346   4.962   4.217   5.304  0.0141  0.2758  0.0988
  238POPC   C2B 3347   5.275   4.387   5.736 -0.1199  0.0284  0.0455
  238POPC   C3B 3348   5.297   4.798   5.967 -0.0083  0.0960  0.1956
  238POPC   C4B 3349   5.525   4.851   6.408 -0.1330  0.0645  0.0410
  239POPC   NC3 3350   9.718   1.890   3.974  0.0558 -0.0633  0.1087
  239POPC   PO4 3351   9.946   1.727   4.407  0.1176 -0.2557  0.1643
  239POPC   GL1 3352   9.988   1.960   4.723 -0.0048  0.3660  0.2740
  239POPC   GL2 3353  10.162   2.220   4.712 -0.2191  0.0959  0.1436
  239POPC   C1A 3354  10.141   2.087   5.186  0.0237 -0.2207  0.2918
  239POPC   D2A 3355  10.474   2.037   5.527 -0.0415  0.0365 -0.3555
  239POPC   C3A 3356  10.404   2.434   5.839 -0.1523 -0.0257  0.0544
  239POPC   C4A 3357  10.404   2.716   6.253  0.1736  0.0232 -0.0561
  239POPC   C1B 3358  10.586   2.091   4.922 -0.0976  0.1291  0.3508
  239POPC   C2B 3359  10.946   2.373   4.710  0.1214 -0.0745 -0.0577
  239POPC   C3B 3360  11.225   2.683   4.530 -0.2038  0.2776  0.2475
  239POPC   C4B 3361  11.706   2.833   4.476 -0.1633  0.1366  0.0536
  240POPC   NC3 3362   9.638  10.061   3.584  0.4319 -0.0383  0.2918
  240POPC   PO4 3363   9.596   9.947   3.993  0.2529  0.1081  0.0947
  240POPC   GL1 3364   9.606   9.965   4.428 -0.1877 -0.1388 -0.2711
  240POPC   GL2 3365   9.425   9.654   4.429  0.2857  0.1445  0.1569
  240POPC   C1A 3366   9.661  10.058   4.749 -0.1961  0.1201 -0.4033
  240POPC   D2A 3367   9.594   9.831   5.084 -0.1436  0.0782 -0.2409
  240POPC   C3A 3368   9.636   9.792   5.533 -0.2623  0.0309  0.0764
  240POPC   C4A 3369   9.788   9.860   5.868 -0.0644 -0.1020  0.2136
  240POPC   C1B 3370   9.310   9.497   4.781  0.0399  0.4380 -0.0350
  240POPC   C2B 3371   9.092   9.597   5.234  0.1189 -0.0900 -0.1514
  240POPC   C3B 3372   9.124   9.718   5.666 -0.4203 -0.0807  0.1162
  240POPC   C4B 3373   9.145   9.368   6.045 -0.2771 -0.0375 -0.1042
  241POPC   NC3 3374   3.603   6.630   4.121 -0.0115 -0.0866  0.2352
  241POPC   PO4 3375   3.561   6.210   3.949 -0.1530  0.0249 -0.0088
  241POPC   GL1 3376   3.330   6.326   4.416  0.1169  0.0057  0.1608
  241POPC   GL2 3377   3.561   6.538   4.668  0.0100  0.1651 -0.0772
  241POPC   C1A 3378   2.990   6.254   4.725 -0.0332  0.2045  0.0583
  241POPC   D2A 3379   2.697   5.974   4.890 -0.0618  0.1668  0.0523
  241POPC   C3A 3380   2.289   6.238   5.126 -0.1714  0.1947 -0.0632
  241POPC   C4A 3381   2.191   6.316   5.592 -0.3879  0.0455  0.0089
  241POPC   C1B 3382   3.391   6.364   5.005  0.2871 -0.0573 -0.0769
  241POPC   C2B 3383   2.865   6.465   5.195 -0.3756 -0.2700 -0.1501
  241POPC   C3B 3384   2.609   6.694   5.406 -0.0194 -0.1024 -0.1870
  241POPC   C4B 3385   2.629   6.966   5.738  0.0143  0.2844  0.2264
  242POPC   NC3 3386   6.553   3.547   4.522 -0.2043  0.1264  0.0466
  242POPC   PO4 3387   6.186   3.320   4.545  0.3524 -0.0877  0.4385
  242POPC   GL1 3388   6.227   3.450   5.038  0.0951 -0.1141  0.1136
  242POPC   GL2 3389   6.016   3.526   5.216 -0.1961  0.0973 -0.1669
  242POPC   C1A 3390   6.292   3.050   5.307  0.0604 -0.2765  0.1604
  242POPC   D2A 3391   6.206   2.757   5.599 -0.0793  0.0160  0.0018
  242POPC   C3A 3392   5.927   2.975   5.843 -0.0463 -0.0704  0.0346
  242POPC   C4A 3393   5.665   2.838   6.142 -0.4106 -0.1079 -0.2424
  242POPC   C1B 3394   6.052   3.457   5.634 -0.1592 -0.2071  0.0693
  242POPC   C2B 3395   5.896   3.451   6.005 -0.1848  0.0933  0.2116
  242POPC   C3B 3396   6.045   3.164   6.402 -0.0625  0.0384  0.0733
  242POPC   C4B 3397   6.414   3.018   6.645 -0.1635 -0.2195 -0.1090
  243POPC   NC3 3398   3.997   1.767   3.977  0.0644 -0.2788  0.0921
  243POPC   PO4 3399   3.682   1.992   4.135  0.2469  0.0676 -0.0418
  243POPC   GL1 3400   3.485   1.551   4.165 -0.0809  0.2024 -0.0484
  243POPC   GL2 3401   3.396   1.390   4.438  0.1267  0.0053  0.0581
  243POPC   C1A 3402   2.992   1.421   4.177  0.0737  0.0984 -0.2379
  243POPC   D2A 3403   2.600   1.380   4.375  0.3442  0.2945  0.3044
  243POPC   C3A 3404   2.666   1.169   4.650 -0.1684  0.1686 -0.4006
  243POPC   C4A 3405   2.967   1.273   5.034  0.1329 -0.2694 -0.2737
  243POPC   C1B 3406   3.473   1.453   4.921 -0.0634  0.0534 -0.0063
  243POPC   C2B 3407   3.325   1.482   5.370 -0.0229 -0.0735 -0.1888
  243POPC   C3B 3408   3.021   1.418   5.743 -0.3312  0.0914 -0.0784
  243POPC   C4B 3409   2.814   1.737   5.977  0.2330  0.0320 -0.0368
  244POPC   NC3 3410   8.632   7.175   4.075 -0.0650 -0.1743 -0.0395
  244POPC   PO4 3411   8.214   7.234   3.984  0.0234 -0.0780  0.2124
  244POPC   GL1 3412   8.186   7.501   4.333  0.0028  0.2194  0.0219
  244POPC   GL2 3413   8.520   7.364   4.588  0.1092 -0.1895  0.0609
  244POPC   C1A 3414   8.012   7.414   4.672  0.0325 -0.0702  0.1405
  244POPC   D2A 3415   8.030   7.176   5.155  0.1226  0.0736 -0.0346
  244POPC   C3A 3416   8.238   7.589   5.464 -0.0430  0.0203  0.2369
  244POPC   C4A 3417   8.380   7.743   5.809 -0.0051 -0.2295  0.3140
  244POPC   C1B 3418   8.448   7.554   4.942 -0.1056  0.1663 -0.0993
  244POPC   C2B 3419   8.721   7.605   5.278  0.0147 -0.2135  0.4279
  244POPC   C3B 3420   8.857   7.569   5.682 -0.0403  0.0450  0.6150
  244POPC   C4B 3421   8.739   7.563   6.111 -0.0563 -0.1697 -0.0660
  245POPC   NC3 3422  10.420   9.833   3.957 -0.0260 -0.2602  0.1829
  245POPC   PO4 3423  10.040   9.790   4.143 -0.1937 -0.1665 -0.0713
  245POPC   GL1 3424  10.308   9.916   4.585  0.1146  0.0857  0.2516
  245POPC   GL2 3425  10.581   9.866   4.437  0.1591  0.0949  0.1975
  245POPC   C1A 3426  10.256   9.699   4.950 -0.1788 -0.0949 -0.2179
  245POPC   D2A 3427  10.089   9.651   5.275  0.1076 -0.1488  0.0765
  245POPC   C3A 3428  10.194   9.730   5.684  0.1143  0.2600  0.1012
  245POPC   C4A 3429  10.598   9.545   5.918 -0.0349  0.1598 -0.1508
  245POPC   C1B 3430  10.805   9.945   4.746  0.0180  0.1325  0.1281
  245POPC   C2B 3431  10.947  10.042   5.208 -0.0655 -0.0419  0.0843
  245POPC   C3B 3432  11.094   9.818   5.525 -0.1258 -0.0420 -0.0713
  245POPC   C4B 3433  11.095   9.691   5.989 -0.2918  0.0966 -0.3484
  246POPC   NC3 3434   5.954  10.027   4.343  0.0091  0.0114  0.1828
  246POPC   PO4 3435   6.415  10.029   4.372  0.1884  0.2251  0.3532
  246POPC   GL1 3436   6.498  10.294   4.731 -0.0131  0.1183  0.1307
  246POPC   GL2 3437   6.529  10.081   4.966 -0.1006  0.0146  0.0614
  246POPC   C1A 3438   6.783  10.601   4.843  0.0678  0.2477 -0.1905
  246POPC   D2A 3439   7.147  10.700   4.854  0.1388  0.1131 -0.1502
  246POPC   C3A 3440   7.153  10.888   5.274  0.0617 -0.2418 -0.0187
  246POPC   C4A 3441   7.259  10.842   5.801  0.0907  0.0978  0.0841
  246POPC   C1B 3442   6.582  10.105   5.384  0.0470  0.0300  0.0871
  246POPC   C2B 3443   6.436  10.330   5.858  0.0652  0.0434  0.0854
  246POPC   C3B 3444   6.537  10.550   6.285  0.0529  0.1887 -0.0480
  246POPC   C4B 3445   6.369  10.900   6.471  0.0638  0.4292  0.0379
  247POPC   NC3 3446   3.236   8.475   3.586 -0.0486 -0.1083  0.0488
  247POPC   PO4 3447   2.974   8.155   3.910 -0.0505 -0.3106 -0.2015
  247POPC   GL1 3448   3.076   8.063   4.390  0.0420  0.3319  0.1569
  247POPC   GL2 3449   3.464   7.853   4.574  0.1688 -0.0810  0.1285
  247POPC   C1A 3450   3.023   7.843   4.784 -0.1267  0.0294  0.2521
  247POPC   D2A 3451   3.082   7.990   5.196 -0.1406  0.1832  0.0975
  247POPC   C3A 3452   2.786   8.077   5.461  0.0065  0.1546  0.0263
  247POPC   C4A 3453   2.792   8.328   5.813 -0.3382 -0.0403  0.0363
  247POPC   C1B 3454   3.566   8.118   4.789  0.2056  0.0575  0.4630
  247POPC   C2B 3455   3.886   8.403   4.917  0.1418  0.3386 -0.2271
  247POPC   C3B 3456   4.342   8.496   5.092 -0.3034 -0.2662  0.1305
  247POPC   C4B 3457   4.745   8.505   4.910 -0.0704  0.1400  0.1559
  248POPC   NC3 3458   2.182   2.911   3.967  0.0514 -0.0565 -0.1030
  248POPC   PO4 3459   2.353   2.400   4.006 -0.0361  0.1937 -0.4120
  248POPC   GL1 3460   2.364   2.245   4.393  0.2917 -0.1425 -0.2326
  248POPC   GL2 3461   2.178   1.922   4.561  0.1096  0.3665  0.1582
  248POPC   C1A 3462   2.431   2.222   4.822  0.0796  0.0496  0.3339
  248POPC   D2A 3463   2.401   1.947   5.191  0.0476 -0.0449  0.2210
  248POPC   C3A 3464   2.031   1.934   5.496  0.3805  0.0013  0.2160
  248POPC   C4A 3465   1.903   2.007   5.947  0.3318  0.1144 -0.2473
  248POPC   C1B 3466   1.926   2.228   4.667  0.0165  0.1670  0.0561
  248POPC   C2B 3467   1.730   2.218   5.027 -0.0468 -0.0244  0.0601
  248POPC   C3B 3468   1.743   2.367   5.525 -0.0881 -0.1411  0.1946
  248POPC   C4B 3469   2.018   2.467   5.847  0.1607  0.0913 -0.2154
  249POPC   NC3 3470   5.196   2.380   4.040  0.1635 -0.0588  0.0475
  249POPC   PO4 3471   5.510   2.728   4.034  0.0251 -0.0289 -0.2356
  249POPC   GL1 3472   5.583   2.453   4.428 -0.0958 -0.0151 -0.3361
  249POPC   GL2 3473   5.486   2.173   4.534 -0.1228 -0.1351 -0.1998
  249POPC   C1A 3474   5.680   2.593   4.864  0.0234  0.3123  0.0933
  249POPC   D2A 3475   5.771   2.718   5.294 -0.0517  0.2782 -0.0728
  249POPC   C3A 3476   5.568   2.726   5.607  0.1724 -0.2380  0.3942
  249POPC   C4A 3477   5.399   2.472   5.935  0.0432 -0.0668 -0.4005
  249POPC   C1B 3478   5.833   2.142   4.799  0.1186  0.2854  0.0076
  249POPC   C2B 3479   6.256   2.027   5.041  0.2759 -0.0238 -0.0238
  249POPC   C3B 3480   6.495   2.052   5.426 -0.3359  0.3501  0.2426
  249POPC   C4B 3481   6.463   1.823   5.786 -0.0321  0.3420 -0.1210
  250POPC   NC3 3482   6.010   0.169   3.790  0.0694  0.1205 -0.3026
  250POPC   PO4 3483   5.963  -0.262   3.997  0.2198 -0.1271  0.0222
  250POPC   GL1 3484   5.702  -0.259   4.477 -0.2523 -0.4214 -0.0258
  250POPC   GL2 3485   5.996  -0.220   4.582 -0.2108  0.3387  0.1297
  250POPC   C1A 3486   5.407  -0.299   4.727 -0.3162  0.1226  0.2045
  250POPC   D2A 3487   5.188  -0.220   4.939  0.0062 -0.2504 -0.0523
  250POPC   C3A 3488   4.972  -0.216   5.312  0.1012 -0.1632  0.0259
  250POPC   C4A 3489   5.062  -0.111   5.633 -0.0374  0.0481  0.3215
  250POPC   C1B 3490   6.056  -0.460   4.945 -0.2348  0.2064  0.0843
  250POPC   C2B 3491   6.134  -0.502   5.439  0.3240  0.2080  0.0548
  250POPC   C3B 3492   5.943  -0.416   5.792 -0.1168 -0.4233  0.1908
  250POPC   C4B 3493   5.913  -0.326   6.138  0.2812  0.0003 -0.1379
  251POPC   NC3 3494   3.887   9.438   3.998  0.1442  0.1581  0.1492
  251POPC   PO4 3495   3.672   9.782   4.288  0.2228  0.1865 -0.0996
  251POPC   GL1 3496   3.672   9.727   4.697 -0.0750 -0.0638 -0.1409
  251POPC   GL2 3497   3.498   9.483   4.880  0.0507 -0.2447 -0.2296
  251POPC   C1A 3498   3.661  10.124   5.123  0.0068 -0.1663 -0.0529
  251POPC   D2A 3499   3.983  10.069   5.444 -0.0107 -0.0583 -0.3369
  251POPC   C3A 3500   4.129  10.462   5.631  0.0712  0.3154  0.1100
  251POPC   C4A 3501   4.141  10.844   5.910 -0.1682  0.0100 -0.0193
  251POPC   C1B 3502   3.467   9.298   5.302  0.2778  0.0338  0.1248
  251POPC   C2B 3503   3.517   9.331   5.766  0.0010 -0.2224 -0.1323
  251POPC   C3B 3504   3.943   9.297   6.015  0.0075 -0.0178 -0.0378
  251POPC   C4B 3505   4.201   8.930   6.122  0.2595  0.0775 -0.0122
  252POPC   NC3 3506   7.090   2.289   4.167 -0.0049  0.2632  0.0660
  252POPC   PO4 3507   6.638   2.222   4.049 -0.0187 -0.1135  0.0282
  252POPC   GL1 3508   6.608   2.096   4.477  0.1972 -0.0980  0.2515
  252POPC   GL2 3509   6.259   2.189   4.535  0.1971 -0.0282 -0.0938
  252POPC   C1A 3510   6.659   1.872   4.811  0.1371  0.0120  0.2313
  252POPC   D2A 3511   7.027   1.747   5.060  0.0121  0.2750  0.2336
  252POPC   C3A 3512   7.169   1.356   5.277 -0.2581  0.1146 -0.1248
  252POPC   C4A 3513   7.463   1.069   5.436  0.1763  0.0810 -0.3005
  252POPC   C1B 3514   6.163   2.522   4.838 -0.0643 -0.1410 -0.3834
  252POPC   C2B 3515   6.346   2.492   5.249  0.2898 -0.0335 -0.4121
  252POPC   C3B 3516   6.676   2.511   5.609 -0.2891  0.1104 -0.2643
  252POPC   C4B 3517   6.738   2.200   5.946 -0.0321 -0.0474 -0.0702
  253POPC   NC3 3518   0.371   0.096   4.188 -0.0661 -0.0590  0.1152
  253POPC   PO4 3519   0.565  -0.370   3.950  0.0551 -0.0278 -0.0635
  253POPC   GL1 3520   0.830  -0.277   4.430  0.0140  0.1303  0.2880
  253POPC   GL2 3521   1.108  -0.468   4.417  0.2633 -0.2092  0.1694
  253POPC   C1A 3522   1.020  -0.010   4.833  0.0818  0.0726  0.3971
  253POPC   D2A 3523   1.126  -0.274   5.255  0.0698  0.3350 -0.4143
  253POPC   C3A 3524   1.402  -0.397   5.491 -0.2378  0.0493 -0.3032
  253POPC   C4A 3525   1.363  -0.572   5.886  0.1703 -0.0194 -0.1400
  253POPC   C1B 3526   1.041  -0.590   4.836 -0.1148 -0.1042  0.0431
  253POPC   C2B 3527   1.477  -0.582   4.915  0.2717 -0.2716  0.2437
  253POPC   C3B 3528   1.799  -0.524   5.211  0.0814  0.0803  0.1373
  253POPC   C4B 3529   1.860  -0.646   5.723 -0.0077  0.1320 -0.1371
  254POPC   NC3 3530   7.946   6.815   3.723  0.2205  0.3371  0.0078
  254POPC   PO4 3531   8.132   6.420   3.928  0.0040 -0.1536 -0.2887
  254POPC   GL1 3532   8.307   6.318   4.300 -0.1555 -0.2864 -0.1011
  254POPC   GL2 3533   8.217   6.060   4.543  0.3140 -0.1523 -0.0475
  254POPC   C1A 3534   8.575   6.472   4.684 -0.0253 -0.2254 -0.3656
  254POPC   D2A 3535   8.412   6.936   4.856  0.2853 -0.1509 -0.0957
  254POPC   C3A 3536   7.926   6.917   4.761  0.0428 -0.3863 -0.0875
  254POPC   C4A 3537   7.582   7.186   4.793  0.3705 -0.1701 -0.1710
  254POPC   C1B 3538   8.093   6.453   4.800 -0.1410 -0.4082 -0.2800
  254POPC   C2B 3539   8.064   6.656   5.149  0.4178 -0.0134  0.1038
  254POPC   C3B 3540   7.926   6.783   5.552  0.1283  0.1964 -0.0184
  254POPC   C4B 3541   7.688   6.852   5.925  0.0054  0.1609 -0.3343
  255POPC   NC3 3542   7.586   6.580   3.963  0.2991 -0.2064  0.3138
  255POPC   PO4 3543   7.316   6.320   4.141 -0.1271  0.4270  0.0681
  255POPC   GL1 3544   7.506   6.185   4.485 -0.3056  0.1813 -0.0673
  255POPC   GL2 3545   7.348   5.907   4.766  0.1303  0.1365 -0.0410
  255POPC   C1A 3546   7.764   6.060   4.864 -0.2801 -0.0511 -0.3364
  255POPC   D2A 3547   7.978   5.928   5.185  0.1130 -0.0097  0.2826
  255POPC   C3A 3548   7.895   6.177   5.486 -0.2228  0.2161 -0.3269
  255POPC   C4A 3549   8.019   6.350   5.864  0.1443 -0.0941 -0.2272
  255POPC   C1B 3550   7.336   6.100   5.131  0.0332  0.0745 -0.0999
  255POPC   C2B 3551   7.208   6.109   5.473  0.1138 -0.3469 -0.1753
  255POPC   C3B 3552   6.892   6.105   5.783 -0.2598  0.0651 -0.2455
  255POPC   C4B 3553   6.443   6.051   5.799  0.0769 -0.0597  0.3914
  256POPC   NC3 3554   8.002   9.044   4.315 -0.3583  0.0242  0.1479
  256POPC   PO4 3555   7.639   8.753   4.115  0.0041  0.1714 -0.3447
  256POPC   GL1 3556   7.586   8.886   4.486 -0.0007  0.1656  0.1479
  256POPC   GL2 3557   7.894   8.603   4.546  0.0447 -0.0808 -0.0541
  256POPC   C1A 3558   7.739   8.936   4.922 -0.0159 -0.1179  0.3270
  256POPC   D2A 3559   7.724   9.335   5.178  0.2112  0.0430 -0.1265
  256POPC   C3A 3560   7.358   9.286   5.466 -0.1552 -0.0502  0.1554
  256POPC   C4A 3561   7.301   9.039   5.904  0.1570  0.3568 -0.2028
  256POPC   C1B 3562   8.001   8.515   4.972  0.1831  0.0356  0.1770
  256POPC   C2B 3563   7.838   8.500   5.383  0.1604 -0.2053  0.1054
  256POPC   C3B 3564   7.773   8.285   5.747 -0.1329  0.0403  0.0034
  256POPC   C4B 3565   7.984   7.917   6.037  0.1267  0.0834  0.1853
  257POPC   NC3 3566   9.564   7.020   3.742  0.0208  0.3059 -0.3380
  257POPC   PO4 3567   9.487   7.501   3.859  0.2390 -0.0461 -0.1509
  257POPC   GL1 3568   9.601   7.596   4.317 -0.1934 -0.0593 -0.1042
  257POPC   GL2 3569   9.314   7.749   4.481 -0.1144  0.0511 -0.0687
  257POPC   C1A 3570   9.981   7.627   4.604  0.1025  0.0744  0.1813
  257POPC   D2A 3571  10.393   7.646   4.460 -0.1511  0.0629 -0.2441
  257POPC   C3A 3572  10.694   7.727   4.839 -0.3061  0.1793 -0.0670
  257POPC   C4A 3573  10.772   7.964   5.173  0.2182  0.0861 -0.2481
  257POPC   C1B 3574   9.520   7.704   4.819  0.0977  0.3107 -0.1899
  257POPC   C2B 3575   9.749   7.789   5.174  0.0216  0.4656  0.1767
  257POPC   C3B 3576  10.074   7.627   5.386 -0.2771 -0.2356 -0.1384
  257POPC   C4B 3577   9.984   7.925   5.756 -0.1953  0.0383  0.3139
  258POPC   NC3 3578   3.260   5.796   3.939  0.5814 -0.0970  0.2018
  258POPC   PO4 3579   3.069   6.015   4.177  0.0900  0.2760 -0.3348
  258POPC   GL1 3580   2.694   6.219   4.284  0.0500  0.0574 -0.0266
  258POPC   GL2 3581   2.749   6.531   4.306 -0.0218 -0.3026  0.0064
  258POPC   C1A 3582   2.336   6.156   4.584  0.1422 -0.0285  0.0887
  258POPC   D2A 3583   1.935   6.190   4.764 -0.3183  0.0532 -0.0919
  258POPC   C3A 3584   1.860   6.496   5.026 -0.0670  0.1525 -0.3196
  258POPC   C4A 3585   2.158   6.838   5.345 -0.0226 -0.2518  0.1185
  258POPC   C1B 3586   2.600   6.535   4.787 -0.0257  0.1546 -0.0422
  258POPC   C2B 3587   2.658   6.948   4.973  0.0945  0.1340 -0.0367
  258POPC   C3B 3588   2.508   7.234   5.271 -0.3190 -0.2870 -0.1288
  258POPC   C4B 3589   2.235   7.399   5.609  0.5550 -0.1784  0.4700
  259POPC   NC3 3590   8.397   2.858   4.332  0.0666 -0.1186  0.3244
  259POPC   PO4 3591   8.422   2.460   4.531 -0.1023  0.1630  0.2787
  259POPC   GL1 3592   8.295   2.359   4.959  0.2021 -0.4435 -0.1710
  259POPC   GL2 3593   8.025   2.293   4.903 -0.3195 -0.0163  0.1798
  259POPC   C1A 3594   8.345   2.385   5.417 -0.1929  0.0476 -0.1496
  259POPC   D2A 3595   8.291   2.257   5.941  0.0901 -0.0742  0.0730
  259POPC   C3A 3596   8.531   2.125   6.153  0.1379  0.0156 -0.0396
  259POPC   C4A 3597   8.826   2.174   6.452 -0.2129 -0.0382 -0.3182
  259POPC   C1B 3598   8.094   1.984   5.267  0.0437  0.1754  0.0352
  259POPC   C2B 3599   8.382   1.824   5.567 -0.1771 -0.0708  0.4912
  259POPC   C3B 3600   8.255   1.723   6.015 -0.0461 -0.3307 -0.1584
  259POPC   C4B 3601   7.896   1.439   6.163 -0.1747  0.0773  0.1331
  260POPC   NC3 3602   9.341   8.667   3.689 -0.3037  0.0927  0.1639
  260POPC   PO4 3603   9.106   8.341   3.985  0.3168  0.1395  0.1439
  260POPC   GL1 3604   9.202   8.422   4.323 -0.1403 -0.1315  0.0536
  260POPC   GL2 3605   8.985   8.273   4.514 -0.0935 -0.1517  0.0012
  260POPC   C1A 3606   9.335   8.708   4.632 -0.1408  0.3688  0.2452
  260POPC   D2A 3607   9.427   8.617   5.039 -0.1505 -0.1103 -0.0034
  260POPC   C3A 3608   9.815   8.857   5.184  0.4597  0.0244 -0.3260
  260POPC   C4A 3609  10.064   9.187   5.383 -0.3018  0.0557 -0.2513
  260POPC   C1B 3610   9.181   8.187   4.768 -0.2150 -0.4672 -0.1394
  260POPC   C2B 3611   9.250   8.036   5.156  0.1016 -0.1664  0.0494
  260POPC   C3B 3612   9.222   8.223   5.640 -0.1136 -0.1600 -0.2103
  260POPC   C4B 3613   9.299   8.490   5.984  0.2092 -0.0261  0.0621
  261POPC   NC3 3614   7.860   9.875   4.139 -0.0013  0.0034 -0.1128
  261POPC   PO4 3615   7.854  10.295   4.286 -0.1026 -0.0735  0.0838
  261POPC   GL1 3616   7.843  10.322   4.686 -0.6784  0.1408 -0.1690
  261POPC   GL2 3617   7.586  10.265   4.708  0.0928 -0.0633 -0.2122
  261POPC   C1A 3618   8.141  10.292   5.039 -0.4213 -0.4249  0.0281
  261POPC   D2A 3619   8.110  10.154   5.421  0.1107  0.0343  0.1786
  261POPC   C3A 3620   7.754  10.235   5.692  0.0394 -0.0323  0.1288
  261POPC   C4A 3621   7.375  10.312   5.893 -0.0864  0.0614 -0.2339
  261POPC   C1B 3622   7.307  10.073   4.857 -0.2475  0.1343 -0.1469
  261POPC   C2B 3623   7.108  10.135   5.143  0.1808  0.1504 -0.3457
  261POPC   C3B 3624   7.023   9.979   5.600  0.1447 -0.0848  0.1052
  261POPC   C4B 3625   6.760   9.786   5.928  0.3040  0.2444  0.0948
  262POPC   NC3 3626   8.741  10.329   4.052 -0.1449  0.1695  0.1613
  262POPC   PO4 3627   8.716  10.021   4.313  0.1851  0.3401  0.2443
  262POPC   GL1 3628   8.626   9.866   4.745  0.2728 -0.3676 -0.1076
  262POPC   GL2 3629   8.874   9.650   4.724  0.2596  0.1897  0.0057
  262POPC   C1A 3630   8.658  10.034   5.090  0.0133  0.2136  0.1113
  262POPC   D2A 3631   8.673  10.027   5.555 -0.0084 -0.1899  0.0104
  262POPC   C3A 3632   8.294   9.841   5.749  0.2762  0.1318  0.1850
  262POPC   C4A 3633   7.995   9.659   5.441 -0.2256 -0.2717 -0.0090
  262POPC   C1B 3634   9.117   9.983   4.903  0.2660  0.2884 -0.2847
  262POPC   C2B 3635   9.139  10.117   5.284  0.2045 -0.1926  0.4017
  262POPC   C3B 3636   9.135  10.229   5.654 -0.0917 -0.1569 -0.2211
  262POPC   C4B 3637   8.903  10.196   6.047  0.1687 -0.0402 -0.2375
  263POPC   NC3 3638  10.100   5.263   4.710  0.0945 -0.2477 -0.0296
  263POPC   PO4 3639   9.664   5.144   4.786 -0.3089 -0.2412  0.1772
  263POPC   GL1 3640   9.336   5.267   5.180  0.1024  0.3613 -0.1329
  263POPC   GL2 3641   9.095   4.944   5.150 -0.1908 -0.0312 -0.2358
  263POPC   C1A 3642   9.057   5.250   5.493 -0.0488 -0.2737 -0.1339
  263POPC   D2A 3643   8.727   5.338   5.950  0.4961 -0.0075  0.0888
  263POPC   C3A 3644   8.701   5.720   6.131 -0.1019  0.1804  0.1784
  263POPC   C4A 3645   8.591   6.091   6.365  0.0988  0.0130  0.0333
  263POPC   C1B 3646   8.703   5.135   5.199 -0.0164  0.1106 -0.2278
  263POPC   C2B 3647   8.435   5.195   5.599  0.1882 -0.1267  0.2123
  263POPC   C3B 3648   8.176   5.352   5.994  0.0057  0.4539  0.1218
  263POPC   C4B 3649   8.088   5.395   6.337 -0.1022 -0.0830  0.3440
  264POPC   NC3 3650   9.245   0.478   4.295 -0.0705 -0.1640 -0.0625
  264POPC   PO4 3651   9.060   0.050   4.213  0.3392  0.0327  0.2500
  264POPC   GL1 3652   9.145   0.005   4.556  0.0490 -0.0240  0.1805
  264POPC   GL2 3653   9.461   0.080   4.508  0.0352  0.0505 -0.0684
  264POPC   C1A 3654   9.182  -0.227   4.969  0.1058  0.2139  0.1529
  264POPC   D2A 3655   8.768  -0.150   5.139 -0.1585  0.4027 -0.2929
  264POPC   C3A 3656   8.798  -0.103   5.562  0.1442  0.2845 -0.3588
  264POPC   C4A 3657   8.943   0.062   5.960 -0.0141 -0.0771 -0.1203
  264POPC   C1B 3658   9.638  -0.116   4.963 -0.5313  0.1135  0.2015
  264POPC   C2B 3659   9.725  -0.308   5.426  0.1810  0.0684  0.0472
  264POPC   C3B 3660   9.641  -0.379   5.858 -0.3004 -0.1810  0.3584
  264POPC   C4B 3661   9.396  -0.161   6.117  0.1740  0.0941  0.0585
  265POPC   NC3 3662   0.099   7.759   3.385  0.0573  0.0151 -0.2328
  265POPC   PO4 3663   0.120   8.184   3.544  0.0437  0.1223  0.1369
  265POPC   GL1 3664   0.308   8.183   3.979 -0.0587 -0.0270 -0.3062
  265POPC   GL2 3665   0.349   8.392   4.207  0.1571  0.1380  0.3037
  265POPC   C1A 3666   0.270   8.023   4.509  0.1605 -0.1489 -0.4424
  265POPC   D2A 3667  -0.022   8.258   4.687 -0.2977  0.2483  0.0201
  265POPC   C3A 3668  -0.081   8.403   5.077  0.0323  0.0282  0.2858
  265POPC   C4A 3669   0.090   8.781   5.318  0.0093 -0.2167  0.0405
  265POPC   C1B 3670   0.561   8.474   4.495  0.1445  0.2432  0.2119
  265POPC   C2B 3671   0.775   8.661   4.846 -0.1000  0.3490  0.2148
  265POPC   C3B 3672   0.604   8.429   5.326 -0.0382  0.1014 -0.2286
  265POPC   C4B 3673   0.705   8.268   5.636  0.0410 -0.1290  0.1547
  266POPC   NC3 3674  10.029   6.069   3.873 -0.4733 -0.2647 -0.2323
  266POPC   PO4 3675   9.981   6.505   4.128 -0.2155  0.2856 -0.3841
  266POPC   GL1 3676  10.003   6.955   4.246 -0.6089 -0.0295  0.1967
  266POPC   GL2 3677   9.665   7.031   4.197 -0.2465  0.2944 -0.0058
  266POPC   C1A 3678  10.236   7.194   4.571  0.1457 -0.1099 -0.0077
  266POPC   D2A 3679  10.157   7.358   4.999  0.0285 -0.1141  0.2306
  266POPC   C3A 3680  10.553   7.483   5.259 -0.0586 -0.2507 -0.0541
  266POPC   C4A 3681  10.481   7.769   5.622  0.2042 -0.2231 -0.0033
  266POPC   C1B 3682   9.754   7.215   4.636 -0.0657 -0.2447  0.2918
  266POPC   C2B 3683   9.697   7.243   5.035 -0.0223 -0.0962  0.4003
  266POPC   C3B 3684   9.666   7.363   5.417  0.3191 -0.0939  0.0799
  266POPC   C4B 3685   9.753   7.475   5.878 -0.0418  0.0574 -0.2527
  267POPC   NC3 3686   8.534   3.709   4.636 -0.0214  0.1578  0.0031
  267POPC   PO4 3687   8.907   3.928   4.793 -0.2253  0.3075  0.1262
  267POPC   GL1 3688   8.857   3.919   5.234 -0.0261  0.1983 -0.0424
  267POPC   GL2 3689   9.115   4.140   5.397 -0.1421  0.1956 -0.1255
  267POPC   C1A 3690   8.727   4.365   5.541 -0.0797  0.1169  0.2249
  267POPC   D2A 3691   8.543   4.759   5.820  0.3103 -0.8198  0.0392
  267POPC   C3A 3692   8.721   4.881   6.225  0.1957 -0.1732 -0.2960
  267POPC   C4A 3693   8.704   5.120   6.609 -0.0111  0.0924 -0.0917
  267POPC   C1B 3694   8.951   3.986   5.742 -0.0440  0.0091 -0.0141
  267POPC   C2B 3695   9.068   3.963   6.103 -0.1240 -0.1012 -0.0792
  267POPC   C3B 3696   9.209   4.103   6.557 -0.0720  0.0224 -0.1952
  267POPC   C4B 3697   9.187   3.889   6.889 -0.0548  0.1421  0.0194
  268POPC   NC3 3698   5.504   1.024   3.696 -0.0306 -0.1860 -0.1344
  268POPC   PO4 3699   5.899   1.144   3.936 -0.1260 -0.0461  0.2042
  268POPC   GL1 3700   5.783   1.145   4.358 -0.0671 -0.2247  0.0225
  268POPC   GL2 3701   6.022   1.308   4.464  0.1311 -0.0668 -0.1878
  268POPC   C1A 3702   5.648   0.949   4.800 -0.0535  0.1904 -0.2744
  268POPC   D2A 3703   5.785   0.950   5.217  0.1064  0.2922  0.0713
  268POPC   C3A 3704   5.912   0.792   5.532 -0.1128 -0.0745  0.0259
  268POPC   C4A 3705   5.964   0.903   5.926 -0.2116 -0.1056 -0.0266
  268POPC   C1B 3706   5.897   1.320   4.922 -0.2373 -0.1628  0.3718
  268POPC   C2B 3707   6.052   1.644   5.310 -0.0886 -0.1275 -0.3066
  268POPC   C3B 3708   5.958   1.775   5.770 -0.1577 -0.0602 -0.0121
  268POPC   C4B 3709   6.010   2.024   6.169  0.1859 -0.2644  0.0566
  269POPC   NC3 3710   0.609   9.817   3.632  0.0526 -0.0065 -0.1303
  269POPC   PO4 3711   0.983   9.547   3.813 -0.1432 -0.0667 -0.0276
  269POPC   GL1 3712   0.909   9.478   4.235  0.2059  0.2102 -0.0042
  269POPC   GL2 3713   0.523   9.572   4.147 -0.4743 -0.2928 -0.0072
  269POPC   C1A 3714   0.662   9.534   4.748 -0.1548 -0.0486  0.1121
  269POPC   D2A 3715   0.690   9.781   5.048 -0.3015  0.4238  0.1476
  269POPC   C3A 3716   0.811   9.515   5.417  0.0453  0.0961 -0.0227
  269POPC   C4A 3717   0.852   9.294   5.725  0.1137 -0.0698 -0.2131
  269POPC   C1B 3718   0.551   9.943   4.453  0.1506 -0.2690 -0.2603
  269POPC   C2B 3719   0.522  10.193   4.814 -0.0249 -0.0218  0.2744
  269POPC   C3B 3720   0.505  10.656   4.797  0.1474 -0.0974 -0.1467
  269POPC   C4B 3721   0.504  11.021   4.898 -0.7607  0.2485 -0.2602
  270POPC   NC3 3722   0.869   6.952   3.306 -0.1548  0.2634 -0.0029
  270POPC   PO4 3723   0.644   7.226   3.065 -0.0343  0.0008 -0.0671
  270POPC   GL1 3724   0.537   7.456   3.461  0.3224 -0.1358 -0.1490
  270POPC   GL2 3725   0.289   7.288   3.609 -0.1075 -0.0847  0.0721
  270POPC   C1A 3726   0.698   7.533   3.859 -0.2084 -0.0048 -0.2603
  270POPC   D2A 3727   1.050   7.595   4.190  0.2552 -0.2491 -0.1646
  270POPC   C3A 3728   1.318   7.930   4.304  0.0319  0.1378  0.0611
  270POPC   C4A 3729   1.502   8.313   4.385 -0.0307  0.0203 -0.2109
  270POPC   C1B 3730   0.313   7.222   3.940 -0.1352 -0.3365 -0.1928
  270POPC   C2B 3731   0.387   6.917   4.293  0.1774 -0.2163  0.2270
  270POPC   C3B 3732   0.574   6.864   4.597  0.0600 -0.3029 -0.2393
  270POPC   C4B 3733   0.957   6.858   4.813 -0.0239 -0.0930  0.1545
  271POPC   NC3 3734  10.464   1.345   4.192 -0.3198 -0.1866 -0.1175
  271POPC   PO4 3735  10.184   1.292   4.510  0.1656 -0.2523 -0.3242
  271POPC   GL1 3736  10.084   1.514   4.885  0.1704  0.1432  0.2384
  271POPC   GL2 3737  10.296   1.674   5.084  0.0346  0.1967 -0.0249
  271POPC   C1A 3738   9.895   1.659   5.361 -0.3593 -0.1459  0.0987
  271POPC   D2A 3739   9.751   1.566   5.662  0.0906  0.0013 -0.0318
  271POPC   C3A 3740   9.470   1.971   5.827  0.0158  0.2853 -0.4605
  271POPC   C4A 3741   9.529   2.342   5.774 -0.3804 -0.0575 -0.0416
  271POPC   C1B 3742  10.564   1.423   5.424 -0.1445 -0.0234  0.2504
  271POPC   C2B 3743  10.662   1.543   5.912  0.0336  0.0129 -0.2790
  271POPC   C3B 3744  10.932   1.743   6.100  0.0401 -0.0033 -0.1060
  271POPC   C4B 3745  11.081   1.808   6.417  0.1212  0.0996 -0.1250
  272POPC   NC3 3746   7.989   4.711   4.371  0.0277 -0.2371 -0.1989
  272POPC   PO4 3747   8.056   4.285   4.678  0.0430  0.1990  0.3611
  272POPC   GL1 3748   7.777   4.362   4.909 -0.1233 -0.1523  0.1688
  272POPC   GL2 3749   8.021   4.350   5.178 -0.2625 -0.0203  0.0184
  272POPC   C1A 3750   7.546   4.297   5.253 -0.1129 -0.0593 -0.3973
  272POPC   D2A 3751   7.278   4.038   5.473  0.0362 -0.2680  0.2116
  272POPC   C3A 3752   7.097   4.035   5.785  0.0823  0.0568 -0.1157
  272POPC   C4A 3753   7.019   4.260   6.106  0.1896  0.3254  0.3123
  272POPC   C1B 3754   8.164   4.329   5.581  0.2099 -0.1201 -0.4138
  272POPC   C2B 3755   8.079   4.401   6.040 -0.1003  0.0140 -0.0445
  272POPC   C3B 3756   7.829   4.728   6.185 -0.0012  0.3960 -0.1796
  272POPC   C4B 3757   7.586   5.006   6.002  0.0717  0.1153  0.0454
  273POPC   NC3 3758   4.192   4.355   4.308 -0.0991 -0.3407 -0.0346
  273POPC   PO4 3759   3.753   4.168   4.257  0.0811  0.2738  0.2435
  273POPC   GL1 3760   3.764   4.013   4.668  0.1365 -0.1897 -0.0795
  273POPC   GL2 3761   4.045   4.081   4.806  0.0677 -0.0707  0.2069
  273POPC   C1A 3762   3.671   3.831   4.966  0.2583 -0.1966  0.1319
  273POPC   D2A 3763   3.451   3.934   5.258  0.1863 -0.0351  0.1579
  273POPC   C3A 3764   3.474   4.059   5.712 -0.1428 -0.0055 -0.1226
  273POPC   C4A 3765   3.571   4.208   6.139  0.0164 -0.0963 -0.0262
  273POPC   C1B 3766   4.217   4.329   5.035 -0.1882 -0.1549  0.2637
  273POPC   C2B 3767   4.425   4.518   5.339 -0.0155 -0.0701  0.0509
  273POPC   C3B 3768   4.269   4.794   5.770 -0.2685 -0.2327 -0.0757
  273POPC   C4B 3769   3.942   4.902   5.998 -0.0471 -0.4107 -0.2736
  274POPC   NC3 3770   8.893   9.514   3.585  0.1559  0.0575  0.0737
  274POPC   PO4 3771   9.145   9.197   3.920  0.1555 -0.2592  0.3351
  274POPC   GL1 3772   9.273   9.152   4.407 -0.1778 -0.1297 -0.0159
  274POPC   GL2 3773   8.976   9.071   4.611 -0.0833 -0.1581  0.2889
  274POPC   C1A 3774   9.654   9.069   4.701 -0.3743  0.0591 -0.1568
  274POPC   D2A 3775  10.094   9.120   4.848 -0.0073  0.1711 -0.1105
  274POPC   C3A 3776  10.498   8.967   4.962  0.1981 -0.1431  0.2326
  274POPC   C4A 3777  10.816   8.723   4.744 -0.2233  0.0250  0.2960
  274POPC   C1B 3778   9.234   9.043   5.010 -0.2474 -0.1680 -0.0022
  274POPC   C2B 3779   9.359   8.740   5.510  0.1800  0.0891  0.0175
  274POPC   C3B 3780   9.455   8.995   5.880 -0.2083 -0.0263 -0.3288
  274POPC   C4B 3781   9.572   8.993   6.207  0.0497  0.0498 -0.0431
  275POPC   NC3 3782   2.827   0.237   4.393  0.0775  0.1956  0.1099
  275POPC   PO4 3783   2.579   0.534   4.364 -0.2111 -0.4805  0.0080
  275POPC   GL1 3784   2.297   0.595   4.711  0.0534  0.0610  0.0292
  275POPC   GL2 3785   2.047   0.312   4.705 -0.2232  0.0618 -0.0867
  275POPC   C1A 3786   2.444   0.519   5.126  0.1541 -0.1169  0.0393
  275POPC   D2A 3787   2.580   0.620   5.542  0.1352  0.1852 -0.2430
  275POPC   C3A 3788   2.664   0.890   5.853 -0.1911  0.1150  0.1478
  275POPC   C4A 3789   2.595   1.296   5.985  0.2362 -0.1912 -0.2613
  275POPC   C1B 3790   1.890   0.531   5.024 -0.0561 -0.3507  0.0554
  275POPC   C2B 3791   1.773   0.925   5.305  0.1493  0.1927  0.1267
  275POPC   C3B 3792   1.532   1.116   5.710  0.0644 -0.2470  0.3898
  275POPC   C4B 3793   1.298   1.393   5.981  0.2640  0.1057  0.0633
  276POPC   NC3 3794   8.288   7.757   3.903 -0.0186 -0.1166  0.2597
  276POPC   PO4 3795   8.598   7.733   4.211 -0.0359  0.4374  0.2887
  276POPC   GL1 3796   8.857   7.794   4.497  0.1277  0.0844 -0.0336
  276POPC   GL2 3797   8.707   7.912   4.687  0.2417 -0.1013 -0.2811
  276POPC   C1A 3798   9.004   7.534   4.816 -0.0319 -0.0635 -0.5101
  276POPC   D2A 3799   9.239   7.500   5.201  0.4134  0.0903  0.0888
  276POPC   C3A 3800   9.374   7.755   5.517 -0.2525  0.0027 -0.2153
  276POPC   C4A 3801   9.529   7.907   5.906 -0.0355 -0.1475 -0.0694
  276POPC   C1B 3802   8.791   8.038   5.030  0.0691  0.1515  0.0589
  276POPC   C2B 3803   8.793   8.058   5.414  0.0092  0.1992  0.1316
  276POPC   C3B 3804   8.823   8.047   5.885  0.1681  0.2931  0.0764
  276POPC   C4B 3805   8.850   8.326   6.152  0.0511 -0.2629  0.1145
  277POPC   NC3 3806   6.248   4.738   4.238 -0.1977  0.0156  0.0804
  277POPC   PO4 3807   6.689   4.928   4.114 -0.1343 -0.1437 -0.0687
  277POPC   GL1 3808   6.846   5.298   4.455 -0.0669  0.0596 -0.3085
  277POPC   GL2 3809   6.994   5.579   4.555  0.3527  0.0344  0.3080
  277POPC   C1A 3810   6.596   5.430   4.885 -0.0026  0.0975  0.2050
  277POPC   D2A 3811   6.188   5.779   5.005 -0.0046 -0.2078 -0.1251
  277POPC   C3A 3812   6.100   5.983   5.406  0.2099  0.0599  0.2447
  277POPC   C4A 3813   5.998   6.318   5.770 -0.0193 -0.1992  0.1502
  277POPC   C1B 3814   6.931   5.752   4.905 -0.0120 -0.1731 -0.1758
  277POPC   C2B 3815   7.081   5.674   5.328 -0.1615  0.0544 -0.1107
  277POPC   C3B 3816   6.942   5.578   5.696 -0.0365 -0.2939 -0.0485
  277POPC   C4B 3817   6.875   5.285   5.989 -0.3118 -0.0315  0.0188
  278POPC   NC3 3818   7.336   5.729   4.071  0.0544  0.0137  0.2019
  278POPC   PO4 3819   7.472   5.502   4.418 -0.3217 -0.1351 -0.0631
  278POPC   GL1 3820   7.326   5.214   4.644  0.1900  0.1919 -0.0055
  278POPC   GL2 3821   7.642   5.101   4.770  0.1834 -0.3452  0.1520
  278POPC   C1A 3822   7.102   5.221   4.993 -0.0722 -0.0997 -0.2656
  278POPC   D2A 3823   6.788   5.277   5.305 -0.1384  0.5205 -0.0847
  278POPC   C3A 3824   6.376   5.024   5.146  0.1577 -0.2857  0.0822
  278POPC   C4A 3825   6.129   4.817   5.401 -0.0308 -0.2235 -0.1671
  278POPC   C1B 3826   7.547   5.477   5.106 -0.0853 -0.1314  0.0986
  278POPC   C2B 3827   7.544   5.766   5.430  0.0460  0.4306  0.3308
  278POPC   C3B 3828   7.525   5.927   5.849 -0.2968  0.0563 -0.0246
  278POPC   C4B 3829   7.610   6.088   6.187 -0.0451 -0.0384 -0.0704
  279POPC   NC3 3830   0.300   4.987   4.706  0.1992 -0.0808  0.0682
  279POPC   PO4 3831   0.602   4.739   4.582 -0.3611 -0.1478  0.0418
  279POPC   GL1 3832   1.052   4.671   4.771 -0.1762  0.0721 -0.5265
  279POPC   GL2 3833   1.152   4.525   5.007  0.0887 -0.1000  0.0671
  279POPC   C1A 3834   1.307   4.437   4.522 -0.0443 -0.0613 -0.3244
  279POPC   D2A 3835   1.342   4.119   4.203 -0.0307 -0.0060  0.0931
  279POPC   C3A 3836   1.517   3.713   4.355  0.1216 -0.0777 -0.0646
  279POPC   C4A 3837   1.980   3.697   4.389 -0.1434  0.1269 -0.0327
  279POPC   C1B 3838   1.467   4.475   5.058 -0.2883 -0.0616  0.2473
  279POPC   C2B 3839   1.899   4.419   5.017 -0.0679 -0.0549 -0.1348
  279POPC   C3B 3840   2.188   4.550   4.635  0.0113  0.0995  0.0480
  279POPC   C4B 3841   2.300   4.645   4.228  0.0099 -0.3269 -0.7052
  280POPC   NC3 3842   5.020   3.258   4.408  0.1004  0.0330  0.0997
  280POPC   PO4 3843   5.375   3.054   4.593  0.0315 -0.0080  0.0429
  280POPC   GL1 3844   5.373   3.154   5.009 -0.0708 -0.1211 -0.1602
  280POPC   GL2 3845   5.085   3.338   4.952 -0.0771 -0.3049 -0.0967
  280POPC   C1A 3846   5.303   2.879   5.262  0.1247  0.0997  0.2658
  280POPC   D2A 3847   5.083   2.506   5.443 -0.1811 -0.3286  0.2642
  280POPC   C3A 3848   4.921   2.544   5.781  0.2620 -0.0485 -0.0726
  280POPC   C4A 3849   4.770   2.782   6.131  0.1261  0.2317 -0.2342
  280POPC   C1B 3850   4.976   3.311   5.414 -0.0133 -0.0991  0.0037
  280POPC   C2B 3851   4.830   3.333   5.920 -0.3774  0.1934  0.1633
  280POPC   C3B 3852   4.940   3.239   6.314  0.2353  0.2458  0.0002
  280POPC   C4B 3853   5.130   3.270   6.689 -0.0847  0.0009  0.2071
  281POPC   NC3 3854   5.782   1.774   3.778  0.1543 -0.0833  0.0996
  281POPC   PO4 3855   5.701   2.062   4.043  0.1587  0.0215  0.2906
  281POPC   GL1 3856   5.712   1.712   4.414 -0.2138  0.2104 -0.3522
  281POPC   GL2 3857   5.484   1.527   4.587  0.0024  0.2942  0.2227
  281POPC   C1A 3858   6.091   1.755   4.619  0.2411  0.0817  0.0886
  281POPC   D2A 3859   6.395   1.467   4.862  0.0181 -0.0597  0.1480
  281POPC   C3A 3860   6.623   1.607   5.265 -0.0281  0.6525  0.0064
  281POPC   C4A 3861   6.933   1.835   5.524 -0.0323  0.0267 -0.2949
  281POPC   C1B 3862   5.588   1.691   4.996  0.3499  0.1101 -0.0776
  281POPC   C2B 3863   5.589   1.740   5.444  0.0467  0.0955 -0.0871
  281POPC   C3B 3864   5.544   2.054   5.772  0.0335  0.0386 -0.1498
  281POPC   C4B 3865   5.393   1.984   6.097  0.0406  0.1817 -0.0090
  282POPC   NC3 3866   6.014   7.603   3.976 -0.1097 -0.1131 -0.0718
  282POPC   PO4 3867   6.059   7.258   4.175 -0.0400 -0.3115 -0.3341
  282POPC   GL1 3868   5.887   7.346   4.563 -0.0059  0.3029 -0.0747
  282POPC   GL2 3869   5.592   7.526   4.674 -0.0937 -0.0215  0.1293
  282POPC   C1A 3870   6.087   7.235   4.914 -0.1006 -0.2359 -0.2396
  282POPC   D2A 3871   6.124   7.062   5.361  0.2878  0.4112  0.2216
  282POPC   C3A 3872   5.900   6.727   5.385  0.2568 -0.1679  0.2967
  282POPC   C4A 3873   5.579   6.429   5.536  0.0780  0.1342  0.1024
  282POPC   C1B 3874   5.536   7.442   5.010 -0.0815 -0.2121  0.1040
  282POPC   C2B 3875   5.249   7.514   5.256  0.1310 -0.1241  0.2446
  282POPC   C3B 3876   5.251   7.514   5.656  0.1627 -0.0419 -0.3303
  282POPC   C4B 3877   5.286   7.255   6.021  0.3497 -0.1194 -0.0795
  283POPC   NC3 3878   1.343   9.760   4.081  0.1539  0.0657  0.1085
  283POPC   PO4 3879   1.605  10.041   4.246 -0.0678  0.1964  0.0276
  283POPC   GL1 3880   1.546   9.795   4.550  0.3863  0.4144  0.0489
  283POPC   GL2 3881   1.164   9.736   4.555  0.0249 -0.2415 -0.1823
  283POPC   C1A 3882   1.819   9.632   4.905 -0.0718 -0.2288  0.1353
  283POPC   D2A 3883   1.705   9.690   5.321  0.3055 -0.0676 -0.0211
  283POPC   C3A 3884   1.703   9.553   5.668  0.1288  0.0108 -0.2411
  283POPC   C4A 3885   1.694   9.791   6.173 -0.2573 -0.0517 -0.1240
  283POPC   C1B 3886   1.296   9.684   4.992  0.0035 -0.1013 -0.2787
  283POPC   C2B 3887   1.177   9.846   5.360  0.0971 -0.1629 -0.5420
  283POPC   C3B 3888   0.926  10.050   5.638 -0.1045 -0.1979 -0.0180
  283POPC   C4B 3889   0.804  10.112   5.990  0.0502 -0.2200  0.0359
  284POPC   NC3 3890   3.247   0.795   3.674  0.0428  0.0855  0.0960
  284POPC   PO4 3891   3.682   0.850   3.643 -0.2205  0.3326  0.0794
  284POPC   GL1 3892   3.509   0.985   4.139  0.0699  0.0858 -0.0845
  284POPC   GL2 3893   3.672   0.748   4.430  0.2784  0.1517 -0.1209
  284POPC   C1A 3894   3.221   0.965   4.582  0.0398  0.2802 -0.0387
  284POPC   D2A 3895   2.868   0.773   4.760 -0.0628 -0.1642 -0.4185
  284POPC   C3A 3896   2.911   0.704   5.220 -0.2557  0.1557  0.0833
  284POPC   C4A 3897   2.853   1.070   5.460  0.1630 -0.1516  0.0805
  284POPC   C1B 3898   3.720   1.037   4.701 -0.0800 -0.0036 -0.5540
  284POPC   C2B 3899   3.952   1.328   5.006  0.0264  0.1296  0.0403
  284POPC   C3B 3900   4.357   1.374   5.096 -0.2748 -0.0267 -0.2126
  284POPC   C4B 3901   4.805   1.270   5.256  0.4721  0.5868 -0.1833
  285POPC   NC3 3902   0.426   8.726   3.856 -0.1464 -0.1192 -0.0112
  285POPC   PO4 3903   0.607   8.508   3.536  0.2835 -0.3388 -0.2669
  285POPC   GL1 3904   0.830   8.423   3.956 -0.3743  0.3345  0.1734
  285POPC   GL2 3905   1.129   8.370   4.050  0.0648 -0.0154  0.4971
  285POPC   C1A 3906   0.767   8.058   4.207  0.2750 -0.0857  0.0507
  285POPC   D2A 3907   0.771   7.948   4.546 -0.0133 -0.0340 -0.1519
  285POPC   C3A 3908   0.732   8.139   4.890  0.1062 -0.1466 -0.0025
  285POPC   C4A 3909   0.400   8.282   4.912 -0.2325  0.2309 -0.1123
  285POPC   C1B 3910   1.016   8.489   4.424  0.3521 -0.1738 -0.0979
  285POPC   C2B 3911   1.200   8.383   4.761 -0.2350  0.2055  0.1337
  285POPC   C3B 3912   1.148   8.426   5.126 -0.0266  0.0497  0.2835
  285POPC   C4B 3913   1.154   8.524   5.560 -0.1100 -0.1707  0.2243
  286POPC   NC3 3914   2.570   2.014   3.708 -0.2113 -0.2742 -0.0497
  286POPC   PO4 3915   2.836   2.304   3.720  0.2950  0.2073 -0.0564
  286POPC   GL1 3916   2.801   2.236   4.206 -0.0364 -0.0992 -0.0765
  286POPC   GL2 3917   2.835   2.510   4.435 -0.1864  0.2166 -0.0379
  286POPC   C1A 3918   2.798   1.935   4.565 -0.1478  0.0198 -0.2215
  286POPC   D2A 3919   2.887   1.777   4.854 -0.0365  0.1720 -0.1680
  286POPC   C3A 3920   3.255   1.899   4.823  0.1663 -0.0728 -0.1272
  286POPC   C4A 3921   3.443   2.288   4.897  0.1271  0.2119 -0.1037
  286POPC   C1B 3922   2.947   2.378   4.820 -0.0074  0.1675  0.0217
  286POPC   C2B 3923   2.815   2.266   5.185 -0.1757  0.2396 -0.2246
  286POPC   C3B 3924   2.914   2.265   5.643 -0.1884  0.1739  0.2337
  286POPC   C4B 3925   3.203   2.075   5.840 -0.0335 -0.0318  0.1054
  287POPC   NC3 3926   8.464   5.773   4.147 -0.1561 -0.1551 -0.1730
  287POPC   PO4 3927   8.475   5.515   4.506 -0.1094  0.1601 -0.1674
  287POPC   GL1 3928   8.508   5.550   4.926  0.2468  0.1336  0.3696
  287POPC   GL2 3929   8.818   5.673   5.006  0.0576 -0.0528 -0.2681
  287POPC   C1A 3930   8.506   5.727   5.407 -0.2053 -0.0972  0.0321
  287POPC   D2A 3931   8.462   6.012   5.770  0.1366 -0.0674 -0.1468
  287POPC   C3A 3932   8.812   6.347   5.955  0.0037  0.3402 -0.1501
  287POPC   C4A 3933   8.963   6.555   6.380 -0.2492 -0.4505 -0.1074
  287POPC   C1B 3934   9.015   5.683   5.264  0.0819 -0.1667  0.0750
  287POPC   C2B 3935   8.984   5.762   5.708  0.3281 -0.0005  0.2348
  287POPC   C3B 3936   9.168   5.982   6.089  0.1934  0.0067  0.0983
  287POPC   C4B 3937   9.069   6.082   6.480  0.3417 -0.2569 -0.3528
  288POPC   NC3 3938   7.658   3.962   4.599 -0.0910  0.2890  0.1147
  288POPC   PO4 3939   8.061   3.830   4.476 -0.1375  0.0738 -0.0287
  288POPC   GL1 3940   8.087   3.745   4.920  0.1785 -0.0589  0.1251
  288POPC   GL2 3941   7.893   3.879   5.039 -0.0469 -0.3213 -0.2990
  288POPC   C1A 3942   8.089   3.475   5.227  0.0233 -0.2768  0.0037
  288POPC   D2A 3943   8.003   3.387   5.609  0.2902 -0.2222 -0.0991
  288POPC   C3A 3944   8.042   3.781   5.951 -0.0841  0.2237 -0.1191
  288POPC   C4A 3945   8.250   3.987   6.390 -0.0899  0.2310  0.1496
  288POPC   C1B 3946   7.908   3.942   5.449 -0.1404  0.0549  0.0103
  288POPC   C2B 3947   7.711   4.130   5.775  0.0638  0.1475  0.1195
  288POPC   C3B 3948   7.443   4.497   6.085  0.2504  0.0349 -0.0181
  288POPC   C4B 3949   7.144   4.612   6.525  0.2579 -0.1598  0.0894
  289POPC   NC3 3950   4.529   1.758   4.078 -0.0111  0.0188  0.1927
  289POPC   PO4 3951   4.753   2.154   4.149 -0.0479  0.1261  0.2222
  289POPC   GL1 3952   4.985   2.105   4.549  0.2226  0.1825  0.0990
  289POPC   GL2 3953   4.727   2.140   4.780  0.1432  0.0588  0.1871
  289POPC   C1A 3954   5.119   1.882   4.886  0.2646 -0.0323  0.2298
  289POPC   D2A 3955   5.081   1.678   5.194  0.1153  0.1268 -0.1429
  289POPC   C3A 3956   4.670   1.676   5.484 -0.1248  0.1272 -0.1817
  289POPC   C4A 3957   4.178   1.656   5.478  0.1116 -0.0523  0.0758
  289POPC   C1B 3958   4.853   2.166   5.195  0.1795  0.3545  0.2666
  289POPC   C2B 3959   5.132   2.047   5.577  0.5086 -0.2196  0.3505
  289POPC   C3B 3960   5.006   1.680   5.846 -0.0069  0.0659  0.3289
  289POPC   C4B 3961   5.091   1.275   5.680 -0.1192 -0.2050 -0.4012
  290POPC   NC3 3962   5.549   7.468   4.198 -0.0414 -0.0478 -0.3159
  290POPC   PO4 3963   5.275   7.106   4.356  0.2319  0.2054  0.2194
  290POPC   GL1 3964   5.210   7.229   4.731 -0.5412  0.2483 -0.0493
  290POPC   GL2 3965   4.985   7.012   4.847  0.1416 -0.1884 -0.2823
  290POPC   C1A 3966   5.433   7.040   5.188 -0.0566  0.1232 -0.0204
  290POPC   D2A 3967   5.666   7.210   5.538 -0.0160 -0.5808  0.0590
  290POPC   C3A 3968   5.723   7.086   5.962  0.0323 -0.1772 -0.1660
  290POPC   C4A 3969   5.744   7.136   6.417 -0.0206 -0.0649 -0.0574
  290POPC   C1B 3970   4.933   6.989   5.293 -0.1505 -0.0083  0.2212
  290POPC   C2B 3971   5.277   6.903   5.638 -0.1886  0.2300  0.3042
  290POPC   C3B 3972   5.351   6.737   5.904 -0.1415  0.1212  0.0948
  290POPC   C4B 3973   5.626   6.413   6.080 -0.0244 -0.1254  0.2820
  291POPC   NC3 3974   8.365  10.361   4.420 -0.0140  0.1819 -0.1590
  291POPC   PO4 3975   8.218   9.992   4.501  0.2979 -0.1703  0.1208
  291POPC   GL1 3976   8.178   9.798   4.936  0.0946  0.2629  0.1837
  291POPC   GL2 3977   8.324   9.430   4.935  0.0166  0.2428 -0.4486
  291POPC   C1A 3978   7.779   9.923   5.131 -0.1678  0.0014 -0.1178
  291POPC   D2A 3979   7.630  10.349   5.217  0.0056 -0.2202 -0.1361
  291POPC   C3A 3980   7.344  10.444   5.420  0.1143  0.2670 -0.1306
  291POPC   C4A 3981   6.953  10.500   5.683  0.2885  0.2372 -0.3608
  291POPC   C1B 3982   8.612   9.532   5.258 -0.3420  0.0623  0.1203
  291POPC   C2B 3983   8.655   9.503   5.659  0.1114 -0.1823 -0.2632
  291POPC   C3B 3984   8.715   9.659   6.091 -0.3689  0.0072  0.0640
  291POPC   C4B 3985   8.382   9.806   6.359 -0.3219 -0.3028 -0.2751
  292POPC   NC3 3986   0.492   8.964   3.352  0.2407  0.0356  0.0864
  292POPC   PO4 3987   0.833   8.912   3.710  0.1522  0.2724  0.0238
  292POPC   GL1 3988   0.959   8.905   4.039  0.1630 -0.1854  0.0605
  292POPC   GL2 3989   1.235   8.865   4.292  0.0901  0.1023  0.0202
  292POPC   C1A 3990   0.667   8.991   4.456 -0.3607  0.0421 -0.1042
  292POPC   D2A 3991   0.315   9.204   4.608 -0.3650  0.0563  0.0906
  292POPC   C3A 3992   0.434   9.087   4.950  0.1810  0.0632 -0.1073
  292POPC   C4A 3993   0.348   9.256   5.430 -0.2290 -0.1228  0.1180
  292POPC   C1B 3994   1.396   8.820   4.713 -0.2987  0.1099 -0.0189
  292POPC   C2B 3995   1.434   8.774   5.103 -0.0254 -0.1812 -0.3692
  292POPC   C3B 3996   1.261   8.955   5.409 -0.4401 -0.0726 -0.2754
  292POPC   C4B 3997   1.256   9.373   5.468  0.0852 -0.0911  0.0233
  293POPC   NC3 3998   1.296   5.195   3.348  0.1071  0.0793  0.1813
  293POPC   PO4 3999   1.390   5.518   3.664 -0.2916  0.1643 -0.1015
  293POPC   GL1 4000   1.556   5.532   4.043 -0.0255  0.2496  0.1585
  293POPC   GL2 4001   1.261   5.439   4.290  0.0315  0.1320 -0.1247
  293POPC   C1A 4002   1.409   5.960   4.250  0.0029 -0.0954  0.0715
  293POPC   D2A 4003   1.225   6.375   4.064  0.1077 -0.2287  0.0477
  293POPC   C3A 4004   0.939   6.689   4.293 -0.0695 -0.0074  0.1167
  293POPC   C4A 4005   0.836   7.173   4.198  0.2656 -0.0279 -0.0226
  293POPC   C1B 4006   1.692   5.204   4.390  0.2460 -0.1026  0.3196
  293POPC   C2B 4007   1.796   4.793   4.231  0.2721 -0.0087  0.1040
  293POPC   C3B 4008   1.785   4.410   4.250  0.2136 -0.2526 -0.2233
  293POPC   C4B 4009   1.789   4.135   4.610 -0.0946  0.0243 -0.4339
  294POPC   NC3 4010  10.475   3.779   4.389  0.0263 -0.1513  0.2964
  294POPC   PO4 4011  10.158   3.631   4.636 -0.1523  0.2911 -0.1046
  294POPC   GL1 4012  10.269   3.309   5.005  0.0560  0.0206 -0.1955
  294POPC   GL2 4013  10.144   3.481   5.335  0.1789  0.1126 -0.2270
  294POPC   C1A 4014  10.538   2.928   4.984 -0.1077  0.1023 -0.0805
  294POPC   D2A 4015  10.471   2.511   5.220 -0.0616 -0.2450  0.1783
  294POPC   C3A 4016  10.852   2.393   5.372  0.0853 -0.1141  0.0367
  294POPC   C4A 4017  11.156   2.099   5.097  0.2881 -0.4626 -0.0992
  294POPC   C1B 4018   9.947   3.336   5.701  0.1089 -0.0663 -0.3786
  294POPC   C2B 4019   9.683   3.394   6.052 -0.0366  0.1670 -0.3757
  294POPC   C3B 4020   9.353   3.501   6.292 -0.1503  0.1562 -0.0611
  294POPC   C4B 4021   9.135   3.567   6.544 -0.3519  0.2510  0.0033
  295POPC   NC3 4022  10.149   0.490   3.669  0.0619 -0.0722 -0.1397
  295POPC   PO4 4023   9.802   0.739   3.927  0.3204  0.5223  0.3114
  295POPC   GL1 4024   9.850   0.410   4.258 -0.3912 -0.2972 -0.1764
  295POPC   GL2 4025  10.003   0.154   4.516  0.3813  0.0699  0.2411
  295POPC   C1A 4026   9.744   0.444   4.772 -0.0826 -0.3040 -0.1072
  295POPC   D2A 4027   9.734   0.381   5.220  0.0025 -0.1295  0.2630
  295POPC   C3A 4028  10.063   0.267   5.466 -0.1567 -0.1528 -0.1356
  295POPC   C4A 4029  10.486   0.222   5.694 -0.0545  0.1247 -0.1262
  295POPC   C1B 4030  10.070  -0.241   4.708 -0.1720  0.0782 -0.0983
  295POPC   C2B 4031  10.051  -0.566   5.032  0.0886  0.2001 -0.4196
  295POPC   C3B 4032  10.394  -0.612   5.259 -0.0339  0.1847 -0.2703
  295POPC   C4B 4033  10.623  -0.758   5.600 -0.0611 -0.0463 -0.0036
  296POPC   NC3 4034   6.845   5.977   3.507  0.1603 -0.0098  0.1234
  296POPC   PO4 4035   6.949   5.963   3.927  0.2942 -0.0865 -0.1185
  296POPC   GL1 4036   6.979   6.025   4.376  0.0094 -0.0367  0.0016
  296POPC   GL2 4037   6.601   6.150   4.476 -0.2386 -0.1547 -0.1318
  296POPC   C1A 4038   7.025   6.249   4.764 -0.0400  0.3172  0.0899
  296POPC   D2A 4039   7.250   6.563   4.746 -0.1482  0.1804 -0.0065
  296POPC   C3A 4040   7.569   6.588   5.114  0.1476 -0.0248  0.4875
  296POPC   C4A 4041   7.470   6.594   5.533 -0.2630  0.0896  0.1153
  296POPC   C1B 4042   6.538   6.120   4.902 -0.2633 -0.0667  0.1761
  296POPC   C2B 4043   6.661   5.924   5.318 -0.3497  0.1538  0.1700
  296POPC   C3B 4044   6.410   5.485   5.521 -0.1670  0.3882  0.0169
  296POPC   C4B 4045   6.001   5.323   5.459 -0.0113 -0.0585 -0.0291
  297POPC   NC3 4046   8.536   2.002   4.690  0.1470 -0.0113 -0.0308
  297POPC   PO4 4047   8.799   2.365   4.841 -0.2475 -0.0426  0.0137
  297POPC   GL1 4048   8.850   2.380   5.230 -0.1557  0.4153  0.0887
  297POPC   GL2 4049   9.064   2.117   5.323 -0.2138  0.1676  0.0291
  297POPC   C1A 4050   8.755   2.272   5.679  0.1739 -0.0905  0.1386
  297POPC   D2A 4051   9.018   2.182   6.003 -0.1171 -0.3715 -0.1928
  297POPC   C3A 4052   9.385   2.222   6.255  0.0629  0.1566 -0.1639
  297POPC   C4A 4053   9.771   2.025   6.254 -0.2913  0.0856  0.3262
  297POPC   C1B 4054   9.028   1.875   5.614  0.1117  0.1284 -0.0047
  297POPC   C2B 4055   9.237   1.520   5.789 -0.2606  0.2201 -0.1170
  297POPC   C3B 4056   9.564   1.424   6.146 -0.0769 -0.3287  0.0924
  297POPC   C4B 4057   9.553   1.630   6.582  0.5061 -0.1522 -0.0890
  298POPC   NC3 4058   6.194   9.303   4.069  0.1004 -0.1050 -0.3742
  298POPC   PO4 4059   5.759   9.471   4.196  0.1710 -0.2104  0.1831
  298POPC   GL1 4060   5.461   9.388   4.656  0.3746 -0.3030 -0.4680
  298POPC   GL2 4061   5.137   9.362   4.708 -0.0396  0.1110 -0.3001
  298POPC   C1A 4062   5.702   9.366   4.949  0.1894 -0.0259 -0.1162
  298POPC   D2A 4063   5.599   9.334   5.425  0.1774 -0.1685 -0.0677
  298POPC   C3A 4064   5.906   9.207   5.791  0.0669 -0.0287  0.2301
  298POPC   C4A 4065   6.296   9.399   5.689  0.0982  0.0589 -0.0068
  298POPC   C1B 4066   5.177   9.509   5.104 -0.2417  0.7048 -0.1357
  298POPC   C2B 4067   5.023   9.355   5.428 -0.0860 -0.6020  0.6031
  298POPC   C3B 4068   5.111   9.123   5.633 -0.2561  0.2133  0.0479
  298POPC   C4B 4069   5.403   9.063   5.940  0.0245 -0.0153  0.0999
  299POPC   NC3 4070   3.247   2.545   4.009  0.2499  0.0523 -0.1011
  299POPC   PO4 4071   3.547   2.697   4.316  0.4031  0.0258  0.0774
  299POPC   GL1 4072   3.792   2.910   4.595  0.0899  0.0893  0.0400
  299POPC   GL2 4073   3.687   2.679   4.847 -0.0520  0.0017 -0.2384
  299POPC   C1A 4074   4.061   3.055   4.944  0.2238 -0.1551 -0.1177
  299POPC   D2A 4075   4.131   3.090   5.223 -0.0337  0.2452 -0.0136
  299POPC   C3A 4076   4.072   3.234   5.588  0.3314  0.2712 -0.0813
  299POPC   C4A 4077   3.973   3.198   6.028  0.1518 -0.0759  0.2782
  299POPC   C1B 4078   3.811   2.505   5.266  0.1312  0.1378 -0.1172
  299POPC   C2B 4079   4.172   2.715   5.566  0.0000 -0.0812 -0.0982
  299POPC   C3B 4080   4.304   2.542   5.787  0.0294  0.1229  0.1163
  299POPC   C4B 4081   4.598   2.163   5.758 -0.0593  0.1801 -0.2437
  300POPC   NC3 4082   1.952  10.371   4.405 -0.2297  0.1411 -0.1480
  300POPC   PO4 4083   2.320  10.728   4.394 -0.0033 -0.3300 -0.3798
  300POPC   GL1 4084   2.366  10.567   4.816 -0.1003  0.0695 -0.3051
  300POPC   GL2 4085   2.598  10.826   4.825  0.0917 -0.1828 -0.0120
  300POPC   C1A 4086   2.150  10.808   5.162 -0.1015  0.2613  0.0642
  300POPC   D2A 4087   2.086  11.120   5.501  0.2720  0.1510  0.1886
  300POPC   C3A 4088   2.288  11.147   5.925  0.1125 -0.1051  0.2046
  300POPC   C4A 4089   2.677  11.089   6.133  0.1403  0.0038  0.2017
  300POPC   C1B 4090   2.674  10.810   5.221  0.1940  0.2334  0.1512
  300POPC   C2B 4091   2.916  10.741   5.452 -0.0963  0.2273 -0.1163
  300POPC   C3B 4092   3.096  11.115   5.619  0.1437 -0.3893  0.1597
  300POPC   C4B 4093   3.113  11.298   6.012  0.3549 -0.1691  0.0546
  301POPC   NC3 4094   4.048   3.828   4.277 -0.0993  0.1900 -0.0013
  301POPC   PO4 4095   3.653   3.685   4.168 -0.0768  0.0175  0.0565
  301POPC   GL1 4096   3.819   3.539   4.619  0.0184  0.1528  0.0199
  301POPC   GL2 4097   4.174   3.483   4.651  0.0547  0.0921 -0.2428
  301POPC   C1A 4098   3.637   3.330   4.878 -0.3932  0.1021  0.0798
  301POPC   D2A 4099   3.528   3.210   5.375  0.1334  0.1075  0.0003
  301POPC   C3A 4100   3.645   2.826   5.579  0.1869  0.1693  0.1288
  301POPC   C4A 4101   3.815   2.579   5.922 -0.4314  0.1406 -0.0939
  301POPC   C1B 4102   4.077   3.587   5.070  0.2348  0.2425 -0.1011
  301POPC   C2B 4103   3.937   3.647   5.357  0.0480  0.0959 -0.0650
  301POPC   C3B 4104   3.946   3.902   5.725 -0.3230  0.2992  0.1625
  301POPC   C4B 4105   3.855   3.757   6.181  0.1141 -0.2936 -0.1138
  302POPC   NC3 4106   2.780   5.954   3.278  0.2457 -0.0310 -0.0358
  302POPC   PO4 4107   2.511   6.327   3.412 -0.1694  0.1908 -0.0928
  302POPC   GL1 4108   2.276   6.128   3.764 -0.1160  0.2668 -0.0897
  302POPC   GL2 4109   2.201   6.287   4.064  0.1100 -0.0694 -0.0833
  302POPC   C1A 4110   2.212   5.676   4.113 -0.2914 -0.2372  0.0652
  302POPC   D2A 4111   2.341   5.234   4.240 -0.2408  0.0811  0.0518
  302POPC   C3A 4112   2.088   5.056   4.643  0.1156  0.5029 -0.2016
  302POPC   C4A 4113   1.720   4.773   4.687  0.3152 -0.4701 -0.0298
  302POPC   C1B 4114   1.900   6.122   4.277  0.2206 -0.2117 -0.3315
  302POPC   C2B 4115   1.529   6.343   4.526  0.0541 -0.0720  0.3401
  302POPC   C3B 4116   1.121   6.213   4.648 -0.1813  0.3111 -0.0728
  302POPC   C4B 4117   0.708   6.400   4.633 -0.3944  0.1173 -0.2120
  303POPC   NC3 4118   4.140   9.734   4.355  0.1608  0.0163  0.2467
  303POPC   PO4 4119   4.639   9.709   4.227 -0.2719  0.3217 -0.0025
  303POPC   GL1 4120   4.841   9.747   4.595 -0.0542  0.1713 -0.1685
  303POPC   GL2 4121   4.551   9.753   4.700  0.1441 -0.3131 -0.2498
  303POPC   C1A 4122   5.138   9.944   4.888 -0.0772 -0.0508  0.1631
  303POPC   D2A 4123   5.160  10.046   5.331 -0.2214 -0.1229  0.0383
  303POPC   C3A 4124   5.442   9.795   5.388 -0.0807 -0.3322  0.0793
  303POPC   C4A 4125   5.429   9.618   5.807 -0.4199  0.0568  0.4314
  303POPC   C1B 4126   4.658   9.358   4.983  0.0769  0.0724  0.2149
  303POPC   C2B 4127   4.794   8.949   5.208 -0.0856 -0.0700 -0.0807
  303POPC   C3B 4128   4.957   8.604   5.385 -0.1203  0.3406 -0.1411
  303POPC   C4B 4129   5.204   8.635   5.824 -0.1071  0.2868 -0.0482
  304POPC   NC3 4130   8.763   0.490   3.830  0.6060  0.0829  0.2250
  304POPC   PO4 4131   8.834   0.752   4.158 -0.0514 -0.0357 -0.0346
  304POPC   GL1 4132   8.819   0.515   4.543  0.1160 -0.0530  0.0237
  304POPC   GL2 4133   8.685   0.170   4.742  0.0008 -0.0507  0.4434
  304POPC   C1A 4134   9.192   0.353   4.939  0.0280  0.4000 -0.1839
  304POPC   D2A 4135   9.276   0.315   5.439  0.1308  0.1121  0.2776
  304POPC   C3A 4136   9.391   0.003   5.656 -0.2914 -0.0312 -0.1769
  304POPC   C4A 4137   9.782   0.068   5.823  0.4017  0.0770  0.2872
  304POPC   C1B 4138   8.350   0.066   4.952 -0.2172 -0.2130  0.1014
  304POPC   C2B 4139   8.281  -0.048   5.335  0.0382 -0.1343  0.2712
  304POPC   C3B 4140   8.208  -0.189   5.774  0.1068  0.4021 -0.1499
  304POPC   C4B 4141   8.258  -0.481   6.111 -0.0782 -0.1852 -0.0864
  305POPC   NC3 4142   0.119   3.070   3.898  0.0023  0.1147 -0.0711
  305POPC   PO4 4143   0.190   3.559   4.056  0.0914  0.2300  0.2032
  305POPC   GL1 4144   0.254   3.450   4.441 -0.2199 -0.1885 -0.2365
  305POPC   GL2 4145  -0.024   3.392   4.685 -0.3226  0.0060  0.0683
  305POPC   C1A 4146   0.572   3.145   4.745 -0.0349 -0.4523  0.0014
  305POPC   D2A 4147   1.015   3.139   4.949  0.1449  0.3067  0.1289
  305POPC   C3A 4148   1.076   2.896   5.336 -0.1372 -0.5159  0.1682
  305POPC   C4A 4149   1.264   2.613   5.642  0.1072  0.1720 -0.0832
  305POPC   C1B 4150   0.090   3.307   5.210 -0.3280 -0.0092  0.1508
  305POPC   C2B 4151   0.030   2.970   5.515 -0.0802  0.0864  0.2743
  305POPC   C3B 4152   0.144   2.719   5.882  0.2312 -0.2917  0.3567
  305POPC   C4B 4153   0.171   2.229   5.870  0.0159  0.5678  0.0237
  306POPC   NC3 4154   7.153   4.223   4.429  0.0174 -0.1726  0.2813
  306POPC   PO4 4155   6.901   3.907   4.279  0.0802  0.1799  0.1764
  306POPC   GL1 4156   6.759   4.001   4.711 -0.2270  0.3120 -0.2723
  306POPC   GL2 4157   6.663   3.816   4.982  0.0937  0.0305 -0.5095
  306POPC   C1A 4158   6.916   4.232   5.146 -0.2896  0.3203  0.0269
  306POPC   D2A 4159   6.941   4.454   5.504 -0.2814 -0.1813  0.1008
  306POPC   C3A 4160   7.288   4.504   5.631 -0.0767 -0.0046  0.0272
  306POPC   C4A 4161   7.680   4.601   5.595 -0.1251 -0.0362  0.0112
  306POPC   C1B 4162   6.385   3.942   5.237 -0.3326  0.0240 -0.2115
  306POPC   C2B 4163   6.103   3.945   5.552  0.0586  0.2543  0.0774
  306POPC   C3B 4164   5.935   4.238   5.916  0.0631  0.1744 -0.1388
  306POPC   C4B 4165   5.562   4.346   6.150 -0.3882 -0.1124  0.1741
  307POPC   NC3 4166   9.515   7.981   3.978  0.0255 -0.6176  0.0557
  307POPC   PO4 4167   9.665   8.400   3.923 -0.1530 -0.2848  0.0209
  307POPC   GL1 4168   9.731   8.447   4.308  0.1428 -0.1140 -0.0030
  307POPC   GL2 4169   9.626   8.228   4.459 -0.2998  0.1251 -0.0280
  307POPC   C1A 4170   9.893   8.610   4.711 -0.0021 -0.0372 -0.0319
  307POPC   D2A 4171  10.163   8.517   4.983  0.3522 -0.1822 -0.1530
  307POPC   C3A 4172  10.328   8.672   5.478 -0.1241  0.3045 -0.1745
  307POPC   C4A 4173  10.739   8.736   5.795 -0.1854  0.0038 -0.1028
  307POPC   C1B 4174   9.690   8.208   4.891  0.0210 -0.3167  0.0020
  307POPC   C2B 4175   9.710   8.352   5.285  0.0776 -0.1812 -0.1065
  307POPC   C3B 4176   9.812   8.449   5.589 -0.0701  0.0068 -0.1685
  307POPC   C4B 4177   9.968   8.746   5.850  0.1581  0.1273  0.1024
  308POPC   NC3 4178   9.447   5.327   4.376 -0.3991 -0.4722 -0.5129
  308POPC   PO4 4179   9.301   5.786   4.336 -0.2000 -0.1822 -0.2406
  308POPC   GL1 4180   9.286   6.012   4.682 -0.1276 -0.2338 -0.0553
  308POPC   GL2 4181   9.321   6.263   4.653  0.0084 -0.1227 -0.0245
  308POPC   C1A 4182   8.903   6.176   4.911  0.0244  0.3141  0.2712
  308POPC   D2A 4183   8.470   6.078   5.030  0.2223 -0.1554 -0.0053
  308POPC   C3A 4184   8.400   6.272   5.349 -0.1350 -0.4291  0.0710
  308POPC   C4A 4185   8.416   6.516   5.667 -0.1113  0.1522 -0.1717
  308POPC   C1B 4186   9.063   6.653   4.886 -0.0169  0.0758  0.1320
  308POPC   C2B 4187   8.705   6.690   5.200  0.2426 -0.2671 -0.0459
  308POPC   C3B 4188   8.394   7.001   5.492 -0.0488 -0.5804 -0.0084
  308POPC   C4B 4189   8.355   7.281   5.834 -0.0296 -0.0399 -0.3534
  309POPC   NC3 4190   2.648   3.999   3.842 -0.1091  0.2129  0.0192
  309POPC   PO4 4191   3.134   3.908   4.136 -0.0058  0.0788 -0.0829
  309POPC   GL1 4192   3.322   3.996   4.469 -0.1018 -0.0797 -0.2134
  309POPC   GL2 4193   3.325   3.725   4.589  0.1769  0.0533  0.1539
  309POPC   C1A 4194   3.106   4.123   4.837  0.1528 -0.2569 -0.2619
  309POPC   D2A 4195   2.682   4.328   4.941  0.2167 -0.2837  0.1974
  309POPC   C3A 4196   2.780   4.599   5.336  0.0827 -0.1344  0.2073
  309POPC   C4A 4197   2.997   4.628   5.824  0.0413 -0.0837  0.2758
  309POPC   C1B 4198   3.167   3.605   4.968  0.1233  0.1557  0.0166
  309POPC   C2B 4199   3.056   3.329   5.185 -0.0810  0.0396 -0.2817
  309POPC   C3B 4200   3.142   3.110   5.694 -0.0511  0.2229  0.0584
  309POPC   C4B 4201   2.962   3.084   6.103 -0.0731  0.0179 -0.1627
  310POPC   NC3 4202   4.593   6.094   4.066  0.4111  0.1033  0.3929
  310POPC   PO4 4203   4.251   5.873   4.279  0.4455  0.1496  0.2959
  310POPC   GL1 4204   4.265   5.832   4.686 -0.0975 -0.0937 -0.0867
  310POPC   GL2 4205   3.986   5.949   4.851 -0.2782  0.0693 -0.2801
  310POPC   C1A 4206   4.413   5.860   5.154 -0.3046  0.0543 -0.0592
  310POPC   D2A 4207   4.550   6.140   5.457  0.1933 -0.0860  0.1165
  310POPC   C3A 4208   4.649   5.961   5.877  0.2176 -0.0639 -0.3884
  310POPC   C4A 4209   4.875   5.951   6.255 -0.0967 -0.1465  0.1366
  310POPC   C1B 4210   3.655   5.957   5.013 -0.0734  0.0480 -0.0776
  310POPC   C2B 4211   3.519   5.728   5.319  0.1985 -0.0337 -0.2736
  310POPC   C3B 4212   3.677   5.474   5.600 -0.0469 -0.0068  0.1808
  310POPC   C4B 4213   3.495   5.135   5.732  0.0063  0.1901 -0.1158
  311POPC   NC3 4214   0.545   1.616   3.803  0.0415  0.0835 -0.0890
  311POPC   PO4 4215   0.743   2.005   3.780  0.0454 -0.4412  0.1226
  311POPC   GL1 4216   1.082   1.867   4.103 -0.1884  0.1253 -0.0513
  311POPC   GL2 4217   1.138   2.073   4.269  0.1378  0.2540 -0.0278
  311POPC   C1A 4218   0.988   1.525   4.286  0.2373  0.1711 -0.1710
  311POPC   D2A 4219   0.815   1.220   4.485  0.0982  0.0248  0.0049
  311POPC   C3A 4220   0.903   1.106   4.938  0.1647 -0.0380 -0.2359
  311POPC   C4A 4221   0.752   1.050   5.426  0.2637  0.1572 -0.2741
  311POPC   C1B 4222   0.873   1.858   4.623 -0.3737  0.1570 -0.1842
  311POPC   C2B 4223   0.670   1.703   4.863  0.0916  0.1802  0.2108
  311POPC   C3B 4224   0.616   1.674   5.271  0.0269 -0.0675  0.1203
  311POPC   C4B 4225   0.491   1.547   5.616 -0.0395  0.3550 -0.3158
  312POPC   NC3 4226   5.242   6.650   3.466 -0.0168 -0.0640  0.2731
  312POPC   PO4 4227   5.347   6.571   3.921 -0.3075 -0.0050 -0.1985
  312POPC   GL1 4228   5.364   6.574   4.334 -0.1429  0.0480  0.3464
  312POPC   GL2 4229   5.341   6.702   4.593  0.0831 -0.0774  0.0129
  312POPC   C1A 4230   5.375   6.173   4.696  0.0758 -0.0431  0.0041
  312POPC   D2A 4231   5.264   5.801   4.956 -0.2288  0.0155  0.0955
  312POPC   C3A 4232   5.492   5.527   5.275 -0.0505 -0.0687 -0.1275
  312POPC   C4A 4233   5.596   5.049   5.365  0.1089  0.0693 -0.1694
  312POPC   C1B 4234   5.220   6.537   5.099 -0.0347 -0.3428 -0.0295
  312POPC   C2B 4235   5.070   6.472   5.535  0.2073  0.0124  0.2601
  312POPC   C3B 4236   5.257   6.220   5.894  0.1131  0.1647  0.3420
  312POPC   C4B 4237   5.669   5.911   5.638 -0.2511 -0.0270  0.0850
  313POPC   NC3 4238   3.621   4.588   3.596  0.0858 -0.0453  0.4055
  313POPC   PO4 4239   3.294   4.774   3.723  0.0989  0.0286  0.2124
  313POPC   GL1 4240   3.183   4.955   4.179  0.1028  0.0783  0.0002
  313POPC   GL2 4241   3.399   4.942   4.386  0.2389  0.2168  0.1092
  313POPC   C1A 4242   3.118   5.254   4.557 -0.1177 -0.0055 -0.1798
  313POPC   D2A 4243   3.142   5.739   4.665  0.1900 -0.1420  0.0778
  313POPC   C3A 4244   3.136   5.921   5.049  0.0617 -0.1578 -0.1185
  313POPC   C4A 4245   3.253   6.200   5.529 -0.1379 -0.1440 -0.0875
  313POPC   C1B 4246   3.491   4.960   4.821  0.0566  0.1035 -0.3127
  313POPC   C2B 4247   3.693   5.041   5.182  0.2261 -0.1226  0.0672
  313POPC   C3B 4248   3.791   4.839   5.533  0.3883 -0.0241  0.3622
  313POPC   C4B 4249   3.505   4.635   5.844  0.0822 -0.0308 -0.2478
  314POPC   NC3 4250  10.273   7.206   3.247 -0.0527 -0.3901 -0.0757
  314POPC   PO4 4251  10.412   7.436   3.606  0.0870 -0.0066  0.0068
  314POPC   GL1 4252  10.476   7.226   4.012  0.0926 -0.2292  0.2670
  314POPC   GL2 4253  10.599   6.915   4.068  0.0495  0.1879 -0.3588
  314POPC   C1A 4254  10.764   7.300   4.402 -0.0551 -0.4547  0.2122
  314POPC   D2A 4255  10.975   7.195   4.829  0.0141  0.0375 -0.3185
  314POPC   C3A 4256  11.132   7.612   5.013  0.0163  0.1641  0.1922
  314POPC   C4A 4257  11.250   7.931   5.313 -0.0437  0.0575  0.2020
  314POPC   C1B 4258  10.586   6.849   4.486 -0.1074  0.3019  0.0524
  314POPC   C2B 4259  10.525   6.951   4.923 -0.0184 -0.3643  0.3335
  314POPC   C3B 4260  10.330   6.866   5.357  0.0251 -0.0701 -0.1894
  314POPC   C4B 4261  10.056   7.135   5.578  0.0071  0.0140 -0.2863
  315POPC   NC3 4262  10.137   2.132   4.199 -0.0752 -0.2857 -0.1131
  315POPC   PO4 4263   9.977   2.621   4.458  0.1292  0.1753  0.2736
  315POPC   GL1 4264  10.138   2.693   4.944  0.2478 -0.2395  0.0960
  315POPC   GL2 4265  10.009   2.576   5.242 -0.2286  0.0827  0.1980
  315POPC   C1A 4266  10.224   2.975   5.422 -0.3044 -0.3739 -0.0165
  315POPC   D2A 4267  10.318   2.969   5.813  0.0534 -0.4054  0.0216
  315POPC   C3A 4268  10.047   3.018   6.136 -0.3595  0.2684 -0.0712
  315POPC   C4A 4269   9.866   3.362   6.505  0.0133 -0.0812 -0.1179
  315POPC   C1B 4270   9.917   2.709   5.665 -0.0103  0.0411  0.0258
  315POPC   C2B 4271   9.931   2.513   6.107  0.0892  0.2605  0.2094
  315POPC   C3B 4272   9.716   2.499   6.458 -0.0783 -0.2205  0.0824
  315POPC   C4B 4273   9.608   2.103   6.696  0.0431  0.2433  0.0468
  316POPC   NC3 4274   6.375   8.211   3.498 -0.1866 -0.0109 -0.1516
  316POPC   PO4 4275   6.755   8.239   3.630 -0.1042 -0.0416  0.1106
  316POPC   GL1 4276   6.835   8.156   4.038 -0.2037  0.0957 -0.0253
  316POPC   GL2 4277   6.675   8.224   4.345 -0.0596 -0.2995  0.2354
  316POPC   C1A 4278   6.793   7.776   4.242  0.0570  0.0428  0.0033
  316POPC   D2A 4279   6.852   7.792   4.627  0.2062 -0.3121 -0.1380
  316POPC   C3A 4280   6.633   7.783   4.972  0.0504 -0.0245  0.1034
  316POPC   C4A 4281   6.616   8.038   5.257 -0.1736 -0.0891 -0.1343
  316POPC   C1B 4282   6.724   8.271   4.778  0.1475 -0.1666  0.1674
  316POPC   C2B 4283   7.075   8.059   5.015 -0.1280  0.3108 -0.2476
  316POPC   C3B 4284   7.388   8.049   5.245 -0.0979  0.5389  0.0080
  316POPC   C4B 4285   7.823   8.000   5.369  0.0720  0.1506 -0.0362
  317POPC   NC3 4286   2.470   0.286   3.958 -0.2165 -0.2929  0.3045
  317POPC   PO4 4287   2.752  -0.025   3.998  0.1488  0.0685  0.2516
  317POPC   GL1 4288   2.806  -0.235   4.498 -0.0579  0.3403  0.1269
  317POPC   GL2 4289   3.171  -0.164   4.635  0.0582  0.0207 -0.4821
  317POPC   C1A 4290   2.859  -0.325   4.955  0.0197  0.0454 -0.0144
  317POPC   D2A 4291   3.225  -0.243   5.152  0.0030  0.0718 -0.1048
  317POPC   C3A 4292   3.262  -0.335   5.636 -0.0604  0.0474  0.0015
  317POPC   C4A 4293   3.558  -0.584   5.877  0.2318  0.2513 -0.1361
  317POPC   C1B 4294   3.142   0.175   4.934 -0.3656  0.1568 -0.1305
  317POPC   C2B 4295   3.374   0.291   5.180  0.0077 -0.0613 -0.7986
  317POPC   C3B 4296   3.549   0.567   5.558  0.1919 -0.0282 -0.0920
  317POPC   C4B 4297   3.735   0.789   5.833  0.0488  0.1330 -0.1412
  318POPC   NC3 4298   5.459   4.932   3.844 -0.1251 -0.0904 -0.2360
  318POPC   PO4 4299   5.236   4.527   4.047  0.1723  0.1204 -0.1355
  318POPC   GL1 4300   5.059   4.769   4.358  0.0561 -0.1974  0.1186
  318POPC   GL2 4301   5.168   4.830   4.757 -0.0587  0.0181  0.1360
  318POPC   C1A 4302   4.682   5.111   4.317  0.3002  0.0367  0.3207
  318POPC   D2A 4303   4.353   5.169   4.653 -0.3134  0.4818  0.1249
  318POPC   C3A 4304   4.546   5.296   5.039  0.0588 -0.2503 -0.0157
  318POPC   C4A 4305   4.908   5.553   5.290  0.1085  0.1873 -0.3913
  318POPC   C1B 4306   5.045   5.087   5.124 -0.2789  0.1037  0.0343
  318POPC   C2B 4307   5.159   5.237   5.563  0.0193  0.1423 -0.0158
  318POPC   C3B 4308   5.594   5.322   5.747 -0.2758 -0.0701  0.3126
  318POPC   C4B 4309   5.578   5.638   6.038  0.2390 -0.3061  0.1612
  319POPC   NC3 4310   3.893   0.418   3.712  0.1611  0.1426  0.0406
  319POPC   PO4 4311   3.752   0.027   4.012  0.2279 -0.1693 -0.5737
  319POPC   GL1 4312   3.750   0.074   4.463 -0.0191  0.0868 -0.1298
  319POPC   GL2 4313   3.491   0.316   4.595 -0.0336 -0.0198 -0.4463
  319POPC   C1A 4314   3.832  -0.080   4.890  0.0681  0.1851  0.0641
  319POPC   D2A 4315   3.779  -0.090   5.314  0.0491  0.2852  0.1782
  319POPC   C3A 4316   3.912   0.221   5.442 -0.1163  0.1152  0.2608
  319POPC   C4A 4317   4.067   0.491   5.545  0.0455  0.1971  0.0596
  319POPC   C1B 4318   3.404   0.673   4.931  0.0366 -0.0671 -0.2026
  319POPC   C2B 4319   3.348   0.962   5.330 -0.0451 -0.0682  0.2140
  319POPC   C3B 4320   3.330   1.032   5.742  0.5210  0.2381  0.1636
  319POPC   C4B 4321   3.125   1.097   6.120  0.3400  0.1501  0.1525
  320POPC   NC3 4322  10.403  10.309   4.156 -0.1472  0.0758 -0.0629
  320POPC   PO4 4323  10.672  10.504   3.995  0.3384  0.0487 -0.0069
  320POPC   GL1 4324  10.629  10.708   4.342 -0.0085  0.0334 -0.1472
  320POPC   GL2 4325  10.488  10.534   4.604 -0.1094  0.3420  0.0122
  320POPC   C1A 4326  10.733  10.933   4.676  0.1002  0.2594 -0.4327
  320POPC   D2A 4327  10.723  10.855   5.172 -0.1730  0.0051 -0.2135
  320POPC   C3A 4328  11.021  10.906   5.354  0.0182  0.1723  0.0778
  320POPC   C4A 4329  11.518  10.890   5.334 -0.0573  0.1096  0.1121
  320POPC   C1B 4330  10.669  10.378   5.010  0.0968  0.0751  0.1043
  320POPC   C2B 4331  10.786  10.407   5.458  0.2985  0.1517  0.3338
  320POPC   C3B 4332  10.682  10.469   5.941  0.1181  0.0447  0.2283
  320POPC   C4B 4333  10.280  10.639   6.078 -0.2897 -0.1701 -0.0790
  321POPC   NC3 4334   3.999   7.442   4.285  0.1086  0.1029  0.0968
  321POPC   PO4 4335   3.561   7.414   4.350 -0.2029  0.3080  0.0262
  321POPC   GL1 4336   3.930   7.387   4.738  0.4077 -0.0878  0.1536
  321POPC   GL2 4337   3.605   7.317   4.888  0.2474 -0.2220  0.0200
  321POPC   C1A 4338   4.040   7.433   5.164 -0.4769 -0.2006 -0.2910
  321POPC   D2A 4339   4.241   7.663   5.460  0.3308  0.3787 -0.3318
  321POPC   C3A 4340   4.163   8.202   5.393  0.0289 -0.2240 -0.0067
  321POPC   C4A 4341   3.962   8.606   5.376  0.0253 -0.1328 -0.0137
  321POPC   C1B 4342   3.353   7.635   5.055 -0.1248  0.1157  0.2472
  321POPC   C2B 4343   3.303   7.672   5.499 -0.3520 -0.2554  0.1960
  321POPC   C3B 4344   3.108   7.867   5.819 -0.2911 -0.1893  0.2973
  321POPC   C4B 4345   3.109   8.149   6.139  0.0353  0.1535  0.2254
  322POPC   NC3 4346   0.542   1.162   4.039 -0.1394  0.0959 -0.2460
  322POPC   PO4 4347   0.201   1.136   4.168 -0.0259  0.1007  0.0951
  322POPC   GL1 4348  -0.095   1.019   4.637 -0.0141  0.4123 -0.2906
  322POPC   GL2 4349  -0.073   1.331   4.773 -0.1690  0.2542  0.3936
  322POPC   C1A 4350  -0.245   1.032   5.099 -0.3043  0.2040 -0.0495
  322POPC   D2A 4351  -0.510   0.685   5.229  0.2882  0.0384  0.0361
  322POPC   C3A 4352  -0.526   0.673   5.696  0.1150 -0.2088 -0.1560
  322POPC   C4A 4353  -0.361   0.640   6.041 -0.1454  0.1565  0.0022
  322POPC   C1B 4354   0.325   1.260   4.938 -0.0255 -0.0286  0.0111
  322POPC   C2B 4355   0.251   1.109   5.395 -0.1247 -0.0194 -0.0836
  322POPC   C3B 4356   0.333   1.007   5.874 -0.2258 -0.1130  0.0933
  322POPC   C4B 4357   0.159   0.829   6.286  0.0707 -0.2286 -0.0753
  323POPC   NC3 4358   4.690   8.022   4.033  0.2488 -0.2187  0.1256
  323POPC   PO4 4359   4.378   7.781   4.216  0.0550  0.1302  0.2135
  323POPC   GL1 4360   4.058   7.874   4.551 -0.1082 -0.2902  0.2685
  323POPC   GL2 4361   4.262   8.177   4.712  0.0046  0.1745  0.2083
  323POPC   C1A 4362   3.962   7.879   4.992 -0.1272  0.0155  0.2289
  323POPC   D2A 4363   3.663   7.995   5.320  0.1446 -0.1084 -0.2046
  323POPC   C3A 4364   3.807   7.713   5.729 -0.1198 -0.1829  0.1025
  323POPC   C4A 4365   3.548   7.485   6.021 -0.2497 -0.2239 -0.2768
  323POPC   C1B 4366   4.530   8.039   5.051 -0.2374 -0.0863 -0.3991
  323POPC   C2B 4367   4.598   8.031   5.508 -0.0310  0.2573  0.1081
  323POPC   C3B 4368   4.301   8.034   5.832  0.0288 -0.1198 -0.3494
  323POPC   C4B 4369   4.360   7.481   5.919 -0.2762  0.0963 -0.2075
  324POPC   NC3 4370   4.936  10.661   4.015 -0.1490 -0.0994  0.0733
  324POPC   PO4 4371   5.184  11.098   4.142  0.1749 -0.1275  0.0240
  324POPC   GL1 4372   5.143  10.990   4.565 -0.0490 -0.0318  0.3312
  324POPC   GL2 4373   5.192  11.303   4.632  0.0495  0.1809  0.0541
  324POPC   C1A 4374   5.327  10.930   4.963 -0.0671 -0.0215  0.0505
  324POPC   D2A 4375   5.467  10.690   5.294  0.4093  0.3317 -0.1763
  324POPC   C3A 4376   5.613  10.277   5.201 -0.1108 -0.2088 -0.1618
  324POPC   C4A 4377   5.674   9.873   4.877 -0.1248 -0.0046 -0.1526
  324POPC   C1B 4378   5.269  11.414   5.145 -0.1608 -0.0758  0.1055
  324POPC   C2B 4379   5.408  11.481   5.499  0.2209 -0.0235 -0.1796
  324POPC   C3B 4380   5.394  11.629   5.875 -0.1362 -0.2102  0.3217
  324POPC   C4B 4381   5.499  11.611   6.248 -0.2128  0.3066  0.0101
  325POPC   NC3 4382   2.999   5.055   3.462  0.0184  0.1954  0.4137
  325POPC   PO4 4383   2.794   4.898   3.812 -0.3806 -0.1020  0.0925
  325POPC   GL1 4384   2.731   4.454   4.100 -0.0405 -0.0542 -0.1891
  325POPC   GL2 4385   2.933   4.421   4.345  0.1694 -0.1502 -0.1488
  325POPC   C1A 4386   2.525   4.203   4.435 -0.0633  0.0474 -0.0030
  325POPC   D2A 4387   2.246   4.040   4.804  0.0989 -0.1083  0.1249
  325POPC   C3A 4388   2.316   3.755   5.205 -0.1186  0.0185  0.0249
  325POPC   C4A 4389   2.385   3.499   5.534  0.0762 -0.0685 -0.1570
  325POPC   C1B 4390   2.976   4.652   4.671 -0.0038  0.2756 -0.0983
  325POPC   C2B 4391   3.001   4.894   4.989 -0.0614 -0.0646  0.0350
  325POPC   C3B 4392   3.255   4.798   5.314  0.0866  0.2498 -0.2273
  325POPC   C4B 4393   3.205   4.364   5.426  0.0849 -0.1687  0.1904
  326POPC   NC3 4394   5.870   6.466   4.134  0.1062 -0.2008 -0.4547
  326POPC   PO4 4395   6.315   6.524   4.221 -0.1846  0.0968 -0.0988
  326POPC   GL1 4396   6.402   6.707   4.546 -0.0708 -0.0055 -0.0724
  326POPC   GL2 4397   6.089   6.859   4.512  0.3194 -0.1061 -0.1522
  326POPC   C1A 4398   6.730   6.665   4.837  0.0717  0.2587  0.0841
  326POPC   D2A 4399   6.978   6.463   5.185  0.0667 -0.0650 -0.1353
  326POPC   C3A 4400   6.972   6.623   5.583 -0.0248 -0.1244  0.1684
  326POPC   C4A 4401   7.252   6.547   6.004 -0.3089 -0.2230  0.0660
  326POPC   C1B 4402   6.220   6.781   4.952  0.0437 -0.1443 -0.2390
  326POPC   C2B 4403   6.522   6.861   5.228 -0.1555  0.0658  0.1020
  326POPC   C3B 4404   6.538   7.067   5.673 -0.1392 -0.0709  0.1193
  326POPC   C4B 4405   6.691   7.285   5.895  0.3370 -0.0650  0.0051
  327POPC   NC3 4406   7.327   4.296   4.005 -0.1528 -0.1198  0.1409
  327POPC   PO4 4407   7.546   4.476   4.432  0.3335 -0.3064 -0.1910
  327POPC   GL1 4408   7.290   4.527   4.823  0.0098  0.1361  0.0512
  327POPC   GL2 4409   6.934   4.773   4.791 -0.1551 -0.1558  0.0785
  327POPC   C1A 4410   7.276   4.717   5.216  0.0150  0.0486 -0.3166
  327POPC   D2A 4411   7.127   5.002   5.576  0.5290 -0.0387  0.1297
  327POPC   C3A 4412   6.960   4.782   5.921  0.3547  0.2189 -0.1160
  327POPC   C4A 4413   6.663   4.786   6.349  0.2772  0.2227  0.0471
  327POPC   C1B 4414   6.798   4.764   5.178  0.5416 -0.2595 -0.3124
  327POPC   C2B 4415   6.613   4.865   5.582 -0.0536  0.1754  0.3785
  327POPC   C3B 4416   6.307   4.668   5.894  0.1855  0.0193  0.1893
  327POPC   C4B 4417   5.966   4.658   6.235 -0.0624 -0.2756  0.4806
  328POPC   NC3 4418   5.075   9.670   3.769 -0.3157  0.0889  0.0634
  328POPC   PO4 4419   4.985  10.051   4.100  0.4692  0.1497  0.4389
  328POPC   GL1 4420   4.989  10.250   4.571 -0.1243  0.3303  0.0369
  328POPC   GL2 4421   4.897  10.557   4.582  0.1473 -0.0653  0.2692
  328POPC   C1A 4422   4.738  10.227   4.940  0.0462  0.0329 -0.4718
  328POPC   D2A 4423   4.521  10.204   5.428  0.0599  0.0861  0.0295
  328POPC   C3A 4424   4.440   9.833   5.714  0.0507  0.1132 -0.0748
  328POPC   C4A 4425   4.026   9.775   5.858  0.2376  0.2070  0.0926
  328POPC   C1B 4426   4.806  10.876   4.892 -0.0183 -0.1597  0.3568
  328POPC   C2B 4427   4.869  10.961   5.207  0.2921  0.1168 -0.0623
  328POPC   C3B 4428   5.013  11.074   5.450  0.0101  0.1576 -0.2583
  328POPC   C4B 4429   5.192  11.121   5.854  0.0811  0.1101 -0.0655
  329POPC   NC3 4430   1.528   1.286   3.713  0.1842  0.0679 -0.0330
  329POPC   PO4 4431   1.733   1.697   3.760 -0.7107 -0.0427 -0.0359
  329POPC   GL1 4432   1.591   1.583   4.116  0.0632  0.0571  0.2599
  329POPC   GL2 4433   1.594   1.879   4.285 -0.2480  0.0493 -0.2178
  329POPC   C1A 4434   1.510   1.372   4.480  0.1610 -0.1227 -0.0453
  329POPC   D2A 4435   1.221   1.441   4.774 -0.5290 -0.0878  0.1473
  329POPC   C3A 4436   1.194   1.811   5.011 -0.3454  0.3173  0.2266
  329POPC   C4A 4437   1.466   1.941   5.357 -0.1137  0.1505  0.2064
  329POPC   C1B 4438   1.659   1.816   4.765 -0.0124 -0.2509 -0.1141
  329POPC   C2B 4439   1.936   1.781   5.035  0.0786 -0.2728  0.2468
  329POPC   C3B 4440   2.027   1.471   5.331  0.0971  0.2732 -0.0246
  329POPC   C4B 4441   2.088   1.302   5.803 -0.0056 -0.3026  0.1303
  330POPC   NC3 4442   5.644   3.324   4.350 -0.1378  0.1032  0.1625
  330POPC   PO4 4443   5.392   3.677   4.419 -0.1938  0.3327  0.0334
  330POPC   GL1 4444   5.367   3.765   4.902  0.2054 -0.1739  0.2044
  330POPC   GL2 4445   5.324   4.053   4.904 -0.1648 -0.2151 -0.0920
  330POPC   C1A 4446   5.453   3.627   5.225 -0.1793  0.0519  0.2116
  330POPC   D2A 4447   5.664   3.258   5.423  0.0126 -0.4182 -0.0239
  330POPC   C3A 4448   5.452   3.216   5.730  0.3857 -0.1254 -0.1138
  330POPC   C4A 4449   5.166   2.967   5.925 -0.2015 -0.1481 -0.1149
  330POPC   C1B 4450   4.963   4.392   4.751 -0.0360  0.0654  0.3114
  330POPC   C2B 4451   4.722   4.742   5.022  0.0955 -0.0972 -0.0449
  330POPC   C3B 4452   4.656   5.024   5.449  0.2524 -0.1281  0.1199
  330POPC   C4B 4453   4.639   5.093   5.900  0.0608 -0.0093  0.1535
  331POPC   NC3 4454   1.945   1.039   4.195  0.2539 -0.0191  0.1802
  331POPC   PO4 4455   1.653   0.741   3.988 -0.0369 -0.0932 -0.1306
  331POPC   GL1 4456   1.607   0.778   4.467  0.3895  0.1869 -0.0955
  331POPC   GL2 4457   1.849   0.776   4.594  0.3144 -0.2281  0.0903
  331POPC   C1A 4458   1.333   0.880   4.847 -0.0820 -0.2402  0.0183
  331POPC   D2A 4459   1.248   1.044   5.311 -0.1125  0.3191 -0.2426
  331POPC   C3A 4460   1.052   1.444   5.443 -0.0425  0.2349  0.0911
  331POPC   C4A 4461   0.934   1.690   5.850  0.0929  0.0255 -0.1476
  331POPC   C1B 4462   1.743   1.187   4.874 -0.1621  0.0758  0.2844
  331POPC   C2B 4463   1.565   1.453   5.257 -0.2312  0.2518 -0.0925
  331POPC   C3B 4464   1.689   1.599   5.750  0.1070  0.0904  0.1529
  331POPC   C4B 4465   1.651   1.638   6.229  0.1923 -0.0743 -0.3412
  332POPC   NC3 4466   7.996   5.215   4.397 -0.3412  0.0779 -0.0905
  332POPC   PO4 4467   8.411   5.006   4.292  0.1174  0.0542  0.1015
  332POPC   GL1 4468   8.340   5.048   4.710  0.1951 -0.0579 -0.0715
  332POPC   GL2 4469   8.190   4.766   4.884 -0.4692 -0.1111 -0.0313
  332POPC   C1A 4470   8.108   5.279   5.160  0.1073  0.0792 -0.1949
  332POPC   D2A 4471   8.018   5.588   5.567 -0.1267 -0.1469  0.0223
  332POPC   C3A 4472   7.968   5.803   5.846 -0.0287  0.0553 -0.1013
  332POPC   C4A 4473   8.135   5.999   6.204  0.0279 -0.0952 -0.1288
  332POPC   C1B 4474   7.817   4.787   5.138 -0.0078  0.1749  0.1072
  332POPC   C2B 4475   7.655   5.129   5.443 -0.2123 -0.2203 -0.0439
  332POPC   C3B 4476   7.451   5.368   5.725 -0.1855  0.0524 -0.1204
  332POPC   C4B 4477   7.609   5.528   6.059  0.3782 -0.1138  0.0455
  333POPC   NC3 4478   9.622   4.748   5.116  0.0515  0.0551  0.1872
  333POPC   PO4 4479   9.926   4.406   5.073 -0.1568 -0.2222  0.0752
  333POPC   GL1 4480   9.947   4.179   5.388 -0.0598 -0.1920 -0.0824
  333POPC   GL2 4481   9.596   4.218   5.415  0.0446 -0.0385 -0.2819
  333POPC   C1A 4482   9.902   4.325   5.896  0.0519 -0.3134 -0.2523
  333POPC   D2A 4483   9.780   4.393   6.179  0.1881  0.3559 -0.0516
  333POPC   C3A 4484   9.373   4.462   6.273 -0.0595  0.1705 -0.1503
  333POPC   C4A 4485   9.004   4.488   5.981  0.3011  0.3254 -0.2236
  333POPC   C1B 4486   9.429   4.201   5.822  0.0351  0.2116 -0.1885
  333POPC   C2B 4487   9.547   3.977   6.164  0.0624  0.2228  0.1769
  333POPC   C3B 4488   9.683   3.876   6.585  0.0614 -0.1835 -0.0528
  333POPC   C4B 4489  10.191   3.795   6.715  0.3489 -0.0625  0.1608
  334POPC   NC3 4490   4.718   7.516   3.866  0.0066 -0.0494 -0.0933
  334POPC   PO4 4491   5.135   7.566   3.926  0.1360  0.0360  0.1719
  334POPC   GL1 4492   5.134   7.693   4.355 -0.0610  0.0033  0.1960
  334POPC   GL2 4493   4.863   7.518   4.491 -0.1149  0.0262  0.0517
  334POPC   C1A 4494   5.136   7.862   4.756 -0.2885  0.0431  0.0925
  334POPC   D2A 4495   5.021   8.084   5.199 -0.0369  0.0200  0.0699
  334POPC   C3A 4496   5.330   8.010   5.475 -0.1413 -0.1572  0.1896
  334POPC   C4A 4497   5.243   8.064   5.943 -0.0252 -0.2580 -0.2498
  334POPC   C1B 4498   4.820   7.585   5.012  0.1777 -0.2175 -0.3106
  334POPC   C2B 4499   4.755   7.535   5.434  0.1582 -0.1701  0.0067
  334POPC   C3B 4500   4.744   7.178   5.775 -0.2077  0.2337  0.1025
  334POPC   C4B 4501   4.804   7.090   6.212  0.0678 -0.0515 -0.1225
  335POPC   NC3 4502   1.538   3.315   3.661  0.3372 -0.3090 -0.0637
  335POPC   PO4 4503   1.911   3.314   3.881  0.0701  0.2861  0.0204
  335POPC   GL1 4504   1.795   2.996   4.218  0.0273  0.2060 -0.0064
  335POPC   GL2 4505   2.089   3.185   4.427  0.1225  0.2664 -0.0101
  335POPC   C1A 4506   1.460   2.592   4.347 -0.1276  0.1785  0.2104
  335POPC   D2A 4507   1.350   2.306   4.671 -0.0981 -0.0236 -0.0235
  335POPC   C3A 4508   1.279   2.391   5.117  0.1223  0.0851 -0.1111
  335POPC   C4A 4509   1.021   2.138   5.455  0.1386 -0.2477 -0.2737
  335POPC   C1B 4510   1.880   3.076   4.766  0.0151  0.0379 -0.1870
  335POPC   C2B 4511   1.641   3.307   5.054  0.0852  0.2011  0.2686
  335POPC   C3B 4512   1.852   3.549   5.315  0.2568  0.1553 -0.0391
  335POPC   C4B 4513   1.816   3.998   5.228 -0.1654 -0.0868 -0.0706
  336POPC   NC3 4514   5.504   8.615   4.317 -0.0087  0.1518  0.0453
  336POPC   PO4 4515   5.148   8.339   4.096 -0.1123  0.2417  0.3517
  336POPC   GL1 4516   5.175   8.344   4.553  0.1065 -0.1214  0.2341
  336POPC   GL2 4517   5.589   8.261   4.626 -0.1242 -0.1092 -0.1206
  336POPC   C1A 4518   5.326   8.488   4.990 -0.0223 -0.2142  0.0048
  336POPC   D2A 4519   5.614   8.402   5.304 -0.1073 -0.1125  0.0581
  336POPC   C3A 4520   5.696   8.150   5.689  0.0553 -0.1580 -0.2021
  336POPC   C4A 4521   5.613   8.252   6.140 -0.2062  0.0118 -0.2689
  336POPC   C1B 4522   5.589   8.005   4.940 -0.0881  0.0581 -0.2322
  336POPC   C2B 4523   5.697   7.725   5.399  0.2825 -0.0078 -0.1640
  336POPC   C3B 4524   5.598   7.673   5.914  0.1980 -0.0299  0.3097
  336POPC   C4B 4525   5.826   7.655   6.218  0.0105 -0.1929 -0.0945
  337POPC   NC3 4526   9.761   3.303   5.014  0.1214 -0.0406  0.1028
  337POPC   PO4 4527   9.696   2.886   4.841 -0.0580  0.1829  0.0546
  337POPC   GL1 4528   9.565   2.860   5.257 -0.0823  0.0189  0.3480
  337POPC   GL2 4529   9.371   2.511   5.192 -0.3130  0.0443  0.0158
  337POPC   C1A 4530   9.527   3.022   5.696 -0.0206 -0.2136  0.0979
  337POPC   D2A 4531   9.500   2.794   6.072  0.3521  0.0864 -0.1040
  337POPC   C3A 4532   9.439   2.971   6.485  0.0862 -0.2221 -0.1074
  337POPC   C4A 4533   9.518   3.029   6.874  0.2239  0.0947  0.0241
  337POPC   C1B 4534   9.182   2.694   5.524 -0.1796 -0.1247 -0.1120
  337POPC   C2B 4535   9.068   2.671   5.959  0.2484  0.2149 -0.1661
  337POPC   C3B 4536   9.035   2.689   6.420 -0.2323 -0.2405 -0.1558
  337POPC   C4B 4537   9.029   2.997   6.714  0.1310 -0.2366  0.1837
  338W        W 4538   9.507   3.599   1.073  0.0435  0.2919  0.1753
  339W        W 4539   5.430   0.561   0.691 -0.0600 -0.0189 -0.0626
  340W        W 4540   2.591   7.058  12.011  0.1148 -0.0687  0.1209
  341W        W 4541   9.291   1.363   2.868 -0.1297  0.0617 -0.1225
  342W        W 4542   6.058   3.478   2.190 -0.0386 -0.4517  0.1811
  343W        W 4543   5.412   6.327  11.213  0.2308 -0.2910 -0.1735
  344W        W 4544   6.298  10.120   1.859  0.2028 -0.2367  0.0917
  345W        W 4545   9.802   0.170   2.315 -0.0710 -0.0183  0.0613
  346W        W 4546   6.930   4.832   0.269 -0.0490  0.0167 -0.1553
  347W        W 4547   5.627   4.857   2.803  0.3184 -0.4375  0.0307
  348W        W 4548   9.969   4.301  10.817  0.3803  0.0037 -0.2464
  349W        W 4549   4.982   1.949   9.361  0.0875  0.3458  0.1048
  350W        W 4550   4.514   8.004  11.034  0.2082 -0.1968 -0.3861
  351W        W 4551   7.129   7.753   1.534  0.0992  0.0194 -0.0834
  352W        W 4552   8.641   8.538   3.783 -0.0756  0.0467  0.0412
  353W        W 4553   9.977   4.403  12.293  0.1132 -0.3198  0.0864
  354W        W 4554   2.799   4.205   1.802  0.2052 -0.1303 -0.2657
  355W        W 4555   7.790   1.169   3.925 -0.4431 -0.1907  0.1074
  356W        W 4556   2.806   3.633   1.813  0.0664  0.1692  0.2773
  357W        W 4557   4.337   2.314   1.243  0.0219 -0.1545  0.0203
  358W        W 4558   1.438   1.669   2.255  0.1022 -0.1494  0.1052
  359W        W 4559   5.239   3.758   9.070 -0.2611  0.2099  0.1879
  360W        W 4560   7.901   6.620   1.179 -0.3574  0.1095 -0.2092
  361W        W 4561   6.659   7.795   8.807  0.1948 -0.0362  0.2390
  362W        W 4562   1.454   0.310   2.752 -0.4378 -0.2483 -0.1469
  363W        W 4563   6.288   8.342   0.962  0.0274 -0.1342 -0.1389
  364W        W 4564  10.408   8.345  10.902  0.0126 -0.1753  0.3440
  365W        W 4565   5.606   0.457   9.748  0.0200 -0.0488  0.0550
  366W        W 4566   6.811   9.752   3.733  0.0079 -0.1918 -0.0043
  367W        W 4567   2.519   3.537  10.985 -0.0479 -0.0277 -0.1605
  368W        W 4568   9.618   5.437  11.722 -0.0445 -0.0430 -0.1082
  369W        W 4569   3.250  10.696   4.167  0.3501 -0.1955 -0.0387
  370W        W 4570   7.542   3.183  11.301  0.0725 -0.2137  0.1422
  371W        W 4571  10.309  10.187   8.408  0.2943 -0.0323  0.0865
  372W        W 4572   3.295   7.393   8.195 -0.1508  0.0287 -0.1538
  373W        W 4573   9.409   0.725   0.081  0.5112 -0.2616  0.2487
  374W        W 4574   4.546   8.868   4.045 -0.2731 -0.3326  0.4453
  375W        W 4575   4.357   4.369  10.013  0.3881  0.1378  0.0962
  376W        W 4576   7.438   1.261  10.627 -0.1579 -0.0630 -0.0773
  377W        W 4577   8.740   9.083  11.428  0.1567 -0.2593 -0.1760
  378W        W 4578   2.192   6.644  10.145  0.3268 -0.3467  0.0781
  379W        W 4579   2.817   2.786   3.334  0.0638  0.2922  0.1001
  380W        W 4580   6.863   1.374  11.326 -0.2020  0.0245 -0.1228
  381W        W 4581   3.049  10.182   3.091 -0.1052  0.1606 -0.0785
  382W        W 4582   2.552   3.299   0.003  0.0269 -0.0297 -0.2968
  383W        W 4583   5.805   6.256   0.253 -0.2321 -0.1742 -0.0293
  384W        W 4584   7.698   9.687  12.185  0.0333  0.3503  0.1594
  385W        W 4585   8.819   0.075  10.208  0.1296  0.1089 -0.1012
  386W        W 4586   5.436   2.153   1.241 -0.0549 -0.0127 -0.3703
  387W        W 4587   5.216  10.368   8.530 -0.0504 -0.2296  0.1701
  388W        W 4588   3.440   9.601  12.342 -0.3346 -0.1183  0.0056
  389W        W 4589   8.319   3.285   9.877 -0.0677 -0.2314  0.1521
  390W        W 4590   6.832   4.596   7.970  0.0930  0.0148  0.1175
  391W        W 4591   5.513   2.978  12.874 -0.1255  0.0766  0.1405
  392W        W 4592   0.512   7.478  11.664  0.3255  0.0465 -0.1522
  393W        W 4593  10.554   0.753   8.811 -0.2254  0.1659  0.0771
  394W        W 4594   5.522   8.424  10.054 -0.2832 -0.0532 -0.0063
  395W        W 4595   7.683   9.564   3.679  0.2188 -0.1494 -0.2838
  396W        W 4596   4.844   0.424  12.336 -0.2712  0.1713  0.2443
  397W        W 4597   8.726   1.634   3.859 -0.0432 -0.0957 -0.3677
  398W        W 4598   2.781   8.991  10.975 -0.0065 -0.0250  0.2634
  399W        W 4599   1.051   6.287   9.881  0.0238 -0.3466  0.0123
  400W        W 4600   5.544   6.711   9.909 -0.0377 -0.0718  0.0439
  401W        W 4601   4.808   0.202   1.258 -0.2188 -0.0525 -0.0399
  402W        W 4602   8.379   2.975  10.667 -0.1501 -0.3044  0.3061
  403W        W 4603   7.602   4.479  10.708  0.1687 -0.2521  0.0783
  404W        W 4604   2.912   4.478  11.593  0.1271  0.0850  0.0556
  405W        W 4605   4.998   4.490  11.802  0.0757 -0.0540 -0.0199
  406W        W 4606   3.355   2.397  12.558  0.0982 -0.3600 -0.0019
  407W        W 4607   6.014   6.667   2.293  0.0277 -0.1846  0.2228
  408W        W 4608   0.719   2.635   0.369 -0.0977 -0.1107 -0.2009
  409W        W 4609   7.859   2.616   8.158  0.0947 -0.2658 -0.2119
  410W        W 4610   8.695   5.475   1.417 -0.0665 -0.0037 -0.0182
  411W        W 4611   1.850   9.930  11.213 -0.0650 -0.2282  0.0029
  412W        W 4612   0.594   8.761   8.725 -0.4640  0.0260  0.2604
  413W        W 4613   6.959   7.795   7.470  0.1345  0.4017  0.2535
  414W        W 4614   6.094   8.470   8.462  0.0159 -0.3502  0.1179
  415W        W 4615   5.821   7.259   0.068  0.2767 -0.1952  0.0416
  416W        W 4616   6.994   2.372   2.243 -0.1097  0.1865 -0.0568
  417W        W 4617   8.097   2.470   9.636  0.0280 -0.1571  0.0119
  418W        W 4618   7.096   2.319   0.901  0.1321  0.0994 -0.2092
  419W        W 4619  10.286  10.579  12.854  0.1326 -0.0145 -0.1350
  420W        W 4620  10.413   4.759   0.113  0.1709  0.1417 -0.0304
  421W        W 4621   4.709   0.898   2.486  0.0615  0.1438  0.2148
  422W        W 4622   7.677   2.778   2.852  0.2771 -0.1512 -0.2269
  423W        W 4623   3.236   3.727  11.223 -0.3362 -0.0528 -0.0092
  424W        W 4624   7.635   8.259  12.041  0.2530  0.0652  0.1366
  425W        W 4625   6.672   5.597   9.800 -0.0653  0.1501 -0.0933
  426W        W 4626   3.811   3.080   9.992  0.0567 -0.1998  0.0417
  427W        W 4627   7.423   4.793   3.797  0.1403  0.0522  0.1574
  428W        W 4628   2.351   8.063   0.776 -0.0626 -0.1705 -0.4025
  429W        W 4629   8.673   6.645   3.277  0.0072  0.4055 -0.0137
  430W        W 4630   8.686   5.309   3.015 -0.3525 -0.0495 -0.0805
  431W        W 4631   3.157   8.046  11.229 -0.0285  0.0500 -0.0082
  432W        W 4632   2.631   1.833   0.377 -0.2771 -0.1495 -0.0750
  433W        W 4633   8.059   0.054  12.491 -0.1940 -0.2343  0.2112
  434W        W 4634   1.139   8.041   9.148  0.2615  0.1094  0.0328
  435W        W 4635   0.845   8.320   3.016 -0.0147 -0.0199 -0.0513
  436W        W 4636   3.913   0.851  11.325  0.0839 -0.4217  0.1431
  437W        W 4637  10.179   4.863   1.950 -0.0934  0.0627 -0.0522
  438W        W 4638   8.027   6.490   0.272 -0.1509 -0.1011 -0.2260
  439W        W 4639   2.100   2.077  10.605  0.0180  0.1517  0.1125
  440W        W 4640   1.075   9.599   0.601  0.3417 -0.0941 -0.3346
  441W        W 4641   5.322   7.896   3.247  0.0588 -0.0142  0.3601
  442W        W 4642   5.992   6.246  11.720 -0.0647 -0.0270  0.2519
  443W        W 4643   0.296   4.856  12.766  0.1012 -0.0278 -0.0650
  444W        W 4644   1.769   3.998   9.610  0.3788 -0.0045  0.2629
  445W        W 4645   4.290   9.241   1.735  0.1659 -0.1096 -0.0344
  446W        W 4646   6.741   4.818   9.928  0.0918  0.2488 -0.3775
  447W        W 4647   7.553   8.490   1.206 -0.2253 -0.5780 -0.1086
  448W        W 4648   9.033   0.420   0.216 -0.0197  0.1802 -0.0478
  449W        W 4649   8.102   5.194   9.556 -0.0295  0.3214 -0.2413
  450W        W 4650   4.933   8.992  11.640 -0.2304 -0.0823  0.2937
  451W        W 4651   7.211   4.986   1.643 -0.1117  0.3334  0.2742
  452W        W 4652   2.115   0.017   1.990 -0.0920 -0.2381  0.2602
  453W        W 4653   9.265   0.655   3.827  0.0280  0.0586  0.0681
  454W        W 4654   1.429   0.207   3.205  0.3080  0.0254  0.5998
  455W        W 4655   4.899   8.986   9.545 -0.1257 -0.1890 -0.4696
  456W        W 4656   4.135   8.583   8.593  0.2327 -0.2926 -0.0922
  457W        W 4657  10.535   1.766   8.702  0.0088 -0.2949 -0.0968
  458W        W 4658   6.444   1.031  12.042 -0.1354 -0.3513  0.0896
  459W        W 4659   0.918  10.510   9.103  0.0702 -0.2881  0.0708
  460W        W 4660   2.173   8.045  11.270  0.0310  0.1107  0.1191
  461W        W 4661   2.700   8.932   1.054 -0.2675  0.0211  0.0475
  462W        W 4662  10.020   1.167   2.342  0.1641  0.1630  0.0390
  463W        W 4663   3.641   2.835  11.761  0.0559  0.0179  0.0003
  464W        W 4664   3.627  10.271  10.083  0.0364  0.0063 -0.3770
  465W        W 4665   8.159   0.628   3.135 -0.1366 -0.1621  0.1935
  466W        W 4666   5.978   8.877   9.279 -0.1709  0.3981 -0.2149
  467W        W 4667   3.018   7.182   1.878 -0.0228  0.0757  0.2330
  468W        W 4668   4.066   7.508   0.969 -0.0985 -0.2824  0.1117
  469W        W 4669   4.962   7.277   8.367  0.1291 -0.2243  0.2045
  470W        W 4670   6.140   4.041   1.297 -0.0220  0.3237  0.2246
  471W        W 4671  10.199   8.798   9.100  0.0472 -0.0704 -0.0667
  472W        W 4672   3.361   4.800  12.711 -0.3984  0.0671  0.1657
  473W        W 4673   1.285   7.188   3.220  0.1995 -0.5590  0.2268
  474W        W 4674   9.995   9.613  10.780  0.0535 -0.1293 -0.0012
  475W        W 4675   5.766   4.588   4.139  0.2812 -0.3531 -0.1257
  476W        W 4676   6.157   8.457   2.707 -0.0275 -0.3206  0.0661
  477W        W 4677   5.584   3.978   1.807  0.3227  0.0965 -0.0861
  478W        W 4678   5.320   2.981   0.404  0.0723  0.1890 -0.2140
  479W        W 4679   5.860   6.202   9.161 -0.0172  0.0758  0.0196
  480W        W 4680   5.624   6.267   2.826 -0.0914  0.2039  0.0936
  481W        W 4681   0.053   0.780  11.204  0.2688  0.0567  0.0881
  482W        W 4682   0.063   8.051   2.900 -0.1545  0.1654 -0.0415
  483W        W 4683   7.720   0.476  10.680  0.0452  0.2367 -0.0635
  484W        W 4684   6.880   0.112   1.298  0.2030  0.1503 -0.1668
  485W        W 4685   8.462   3.988   9.263  0.1245 -0.0050  0.0596
  486W        W 4686   7.019   6.467  11.826  0.2441  0.0722  0.0831
  487W        W 4687  10.353   0.839  12.851  0.1780  0.3135  0.3311
  488W        W 4688   9.651   4.040   3.886 -0.2374 -0.0746 -0.0336
  489W        W 4689   2.148   4.817  10.465 -0.1980  0.0200 -0.1693
  490W        W 4690   2.935   9.906  10.168 -0.2566 -0.0693 -0.2297
  491W        W 4691   3.355   7.447  12.490 -0.0681  0.2335  0.2289
  492W        W 4692   9.592   8.381   2.108  0.2733  0.2915 -0.1690
  493W        W 4693   0.874   1.808   1.762 -0.0238  0.1831  0.1340
  494W        W 4694   8.428   0.973  11.608  0.1331  0.2358  0.2042
  495W        W 4695   7.801   6.349   3.596  0.1093 -0.0725  0.1981
  496W        W 4696   5.170   5.701   9.073  0.0321  0.2676  0.1323
  497W        W 4697   3.249   8.432  10.259  0.1551 -0.3815 -0.0816
  498W        W 4698   4.889   0.272   9.136 -0.0179  0.1452 -0.3185
  499W        W 4699   0.633   2.332   2.847  0.0272  0.2310 -0.1502
  500W        W 4700   6.436   6.224   3.405 -0.2408 -0.0932 -0.0820
  501W        W 4701   2.693   9.590  11.042  0.0485 -0.1244 -0.0676
  502W        W 4702   2.346   0.102   1.297  0.0295 -0.2549 -0.1763
  503W        W 4703   7.439   9.145  10.872  0.3029 -0.1023 -0.1564
  504W        W 4704   1.797   0.471  11.392 -0.1883  0.0696 -0.0427
  505W        W 4705   0.442   1.149   0.757 -0.3658 -0.1865 -0.1741
  506W        W 4706   0.305   2.375   1.142 -0.2028 -0.2792 -0.0211
  507W        W 4707   7.306   4.555   1.203 -0.4255 -0.1362  0.2782
  508W        W 4708   0.151   3.986   0.975  0.3145 -0.2730 -0.1538
  509W        W 4709   3.440  10.027  12.612 -0.4296  0.0073  0.1216
  510W        W 4710   8.373   0.912   9.778  0.1442  0.1479 -0.2479
  511W        W 4711   6.675   3.224   9.532 -0.0150  0.1362 -0.0817
  512W        W 4712  10.094   2.293   2.468  0.0591 -0.2081 -0.4390
  513W        W 4713   0.793   3.704   2.427  0.1053 -0.1671 -0.2981
  514W        W 4714   4.139   5.343   3.592 -0.0403 -0.0806  0.1439
  515W        W 4715   9.916   2.668   9.464 -0.0780  0.2052  0.0597
  516W        W 4716   4.989   5.344   0.771  0.2156 -0.0695  0.0519
  517W        W 4717   7.038   4.945   0.984 -0.2110 -0.0338 -0.1072
  518W        W 4718   6.460   8.352  12.062  0.2022 -0.2142  0.1592
  519W        W 4719  10.619   7.555   1.070  0.0446 -0.1028  0.1223
  520W        W 4720  10.448   9.401  12.489  0.0315 -0.1177  0.1218
  521W        W 4721   9.087   9.047  12.431 -0.0614 -0.0602 -0.1977
  522W        W 4722   4.011   5.617   0.946  0.0406 -0.0019 -0.4291
  523W        W 4723   4.867   7.660   3.000  0.0274  0.1134  0.0274
  524W        W 4724   4.403   0.398   1.583  0.0111  0.1570 -0.1061
  525W        W 4725   1.521   4.247   9.076  0.0063  0.2822 -0.1961
  526W        W 4726   6.652  10.558   3.402  0.1044 -0.0187  0.3578
  527W        W 4727   1.836   5.053  12.156 -0.2173 -0.3894  0.0271
  528W        W 4728   6.130   4.920   0.178  0.0049 -0.1088 -0.2664
  529W        W 4729  10.149   2.471  10.444  0.0728  0.1470  0.0470
  530W        W 4730   8.807   9.838   0.260  0.3594  0.0401  0.0588
  531W        W 4731   0.223   7.995   2.268 -0.0468 -0.0598 -0.0027
  532W        W 4732   9.020   3.799   1.245  0.1231 -0.2205  0.3997
  533W        W 4733   9.680   9.389   1.287  0.1467  0.1083  0.0542
  534W        W 4734   2.824  10.099   1.478  0.1094 -0.0741 -0.0037
  535W        W 4735   9.888   8.749  11.496  0.1487  0.2129  0.1364
  536W        W 4736   3.823   7.170   3.505  0.0454  0.1998 -0.1594
  537W        W 4737   2.391   2.370   3.181 -0.0609  0.2347  0.0968
  538W        W 4738   8.347   3.762   1.855  0.2979  0.1201 -0.2411
  539W        W 4739   0.335   3.843   2.117 -0.2516  0.1393  0.0595
  540W        W 4740  10.008   1.439   1.207 -0.0501 -0.2045  0.0708
  541W        W 4741   0.669   2.389   2.317 -0.1936 -0.3470 -0.1216
  542W        W 4742   9.516   4.590  12.046 -0.1658 -0.0414 -0.2650
  543W        W 4743   0.988   0.596   9.673  0.2214  0.1467  0.1673
  544W        W 4744   1.945   1.701   8.793 -0.0751  0.3951 -0.3247
  545W        W 4745  10.415   7.184   2.714  0.0080  0.2973  0.3110
  546W        W 4746   0.091   1.083   0.257  0.2214  0.0353  0.1759
  547W        W 4747   5.259   8.807   2.512 -0.1757 -0.0673  0.0084
  548W        W 4748   1.280   6.155   0.636  0.1778 -0.3153  0.3301
  549W        W 4749   9.063   5.507   2.795 -0.1149  0.2235  0.0467
  550W        W 4750   8.334   6.370   1.388 -0.1831  0.1275 -0.1088
  551W        W 4751   7.789   1.438   4.384 -0.1286  0.4262  0.1170
  552W        W 4752  10.110   4.272   3.555  0.1091  0.0595  0.0650
  553W        W 4753   4.442   1.437  10.581 -0.1859 -0.2933  0.1107
  554W        W 4754   2.309   7.541   1.587  0.2842 -0.1878  0.2890
  555W        W 4755   3.233   1.390   2.047 -0.1041 -0.2164 -0.2522
  556W        W 4756   2.925   6.512   3.427  0.0462 -0.0461 -0.1361
  557W        W 4757   2.061   5.407   1.395  0.0370 -0.0190  0.2357
  558W        W 4758   7.816   4.672   2.438 -0.0423 -0.1952  0.1657
  559W        W 4759   2.043   6.237   0.080 -0.2161  0.2671  0.0447
  560W        W 4760   3.685   5.608   3.550 -0.3090 -0.1721 -0.1857
  561W        W 4761   3.669   3.880   0.847  0.2573  0.0596 -0.1249
  562W        W 4762   6.817   9.136   8.708  0.1863  0.0091 -0.1620
  563W        W 4763   6.808   5.021   9.204 -0.3568 -0.4724 -0.1908
  564W        W 4764   9.840   6.636  12.310 -0.0499 -0.4588  0.1673
  565W        W 4765   3.177   3.311   1.618 -0.3529 -0.2056 -0.0422
  566W        W 4766   5.518   2.346   9.281 -0.1927 -0.0320 -0.4867
  567W        W 4767   3.759   0.560   8.468  0.1548 -0.0485  0.2018
  568W        W 4768   8.227   2.831   1.832  0.0137  0.0911  0.1979
  569W        W 4769   9.378   2.014   0.219  0.1550  0.2860 -0.0953
  570W        W 4770   3.727   3.827  11.466 -0.1365  0.0872 -0.0361
  571W        W 4771   5.128   1.743   2.971  0.3259  0.4300 -0.1802
  572W        W 4772   7.567   5.837   0.323  0.1861  0.0162  0.0738
  573W        W 4773  10.175   0.563   1.602 -0.4173 -0.2044 -0.1916
  574W        W 4774   5.710   2.366   3.685 -0.0013  0.3918 -0.0212
  575W        W 4775   6.828   3.404   1.883  0.1800  0.1474 -0.1491
  576W        W 4776   8.259   3.097   0.047  0.3880 -0.0147  0.3059
  577W        W 4777   3.238   6.122   3.539 -0.2910 -0.1074  0.1777
  578W        W 4778   0.773   4.600   0.082  0.1095  0.1459  0.1389
  579W        W 4779   3.215   3.627   8.451 -0.2027  0.0337 -0.3857
  580W        W 4780  10.581   6.829   9.042 -0.1531 -0.0215  0.2268
  581W        W 4781   4.538   7.248  11.065 -0.0332 -0.2006  0.1024
  582W        W 4782   8.901   2.786   2.213 -0.2119  0.2306 -0.0009
  583W        W 4783   6.802   3.520  12.295 -0.0376  0.2117 -0.1127
  584W        W 4784   1.484  10.532   8.138  0.0360 -0.1861  0.1991
  585W        W 4785   3.383   3.236   9.246 -0.0094 -0.0663  0.1718
  586W        W 4786   6.586   7.048   0.120 -0.0680 -0.3016  0.1265
  587W        W 4787   4.652   9.278   9.145  0.0294  0.2750  0.3229
  588W        W 4788   2.063   7.761   0.455  0.0649 -0.0214 -0.1630
  589W        W 4789   5.205   7.812   2.092  0.0387  0.0333 -0.0460
  590W        W 4790   3.837  10.191  10.614 -0.4140 -0.0650 -0.0833
  591W        W 4791   7.033   1.153  10.851  0.5825 -0.0957  0.3240
  592W        W 4792   8.281   7.003   3.422 -0.0147  0.4374  0.0503
  593W        W 4793   1.152   3.771   1.098 -0.1521 -0.0740 -0.1540
  594W        W 4794   9.403   2.125  10.698  0.0298  0.0457 -0.0148
  595W        W 4795   5.423   2.017   3.233 -0.3773 -0.1335 -0.1696
  596W        W 4796   6.616   7.062   8.164 -0.3780  0.0778  0.2505
  597W        W 4797   9.666   9.209   1.804 -0.0018  0.0099 -0.1724
  598W        W 4798   0.216   9.249   9.048  0.0089 -0.1874  0.4290
  599W        W 4799   0.323   2.770   9.648 -0.2797  0.1568 -0.1751
  600W        W 4800   2.607  10.216   0.434  0.3468  0.2216 -0.0088
  601W        W 4801   5.504   6.768   8.809 -0.2237  0.0805  0.3169
  602W        W 4802   9.350   8.141  12.160  0.0921  0.3592 -0.3042
  603W        W 4803  10.465   3.615   0.955  0.2810 -0.2489 -0.0149
  604W        W 4804   3.936   8.402   2.951  0.1546  0.0983 -0.0620
  605W        W 4805   1.903   1.210   8.831  0.0254 -0.2335  0.1443
  606W        W 4806   8.272   7.805  11.981 -0.1418 -0.2494 -0.3386
  607W        W 4807   8.186   8.143  10.685  0.1614 -0.2152  0.0953
  608W        W 4808  10.008  10.441  11.556  0.0538 -0.1269  0.2024
  609W        W 4809   9.600  10.468  10.548 -0.1330 -0.0276 -0.1977
  610W        W 4810   9.061   1.373  11.772  0.1733 -0.0743 -0.0998
  611W        W 4811   0.537   5.273  11.175  0.1329 -0.1314  0.0864
  612W        W 4812   8.357   2.671   8.800 -0.0817 -0.0348  0.3029
  613W        W 4813   0.160   1.249  11.339  0.1122 -0.0534 -0.2337
  614W        W 4814   5.401   0.808  12.855  0.4661 -0.2155  0.2016
  615W        W 4815   3.611   9.019   3.702  0.0608  0.1032  0.0994
  616W        W 4816   3.470   2.463   3.102  0.0118  0.0125 -0.2871
  617W        W 4817   1.426   7.705  10.345  0.1758 -0.0953 -0.4430
  618W        W 4818   8.356   9.236   3.012 -0.3661 -0.2279 -0.3041
  619W        W 4819   7.432   6.711   1.800  0.0985 -0.0575 -0.0853
  620W        W 4820   5.025   8.682   8.547 -0.0973  0.1565  0.0519
  621W        W 4821   1.064   8.556   9.040  0.3662 -0.0577  0.2030
  622W        W 4822   2.546   4.457  11.181 -0.1041 -0.1583 -0.1859
  623W        W 4823   3.769   7.122  11.145 -0.2521  0.1523 -0.1750
  624W        W 4824   3.657   8.262   2.152 -0.0478  0.1000 -0.1078
  625W        W 4825   5.355   9.310  10.289  0.3620  0.0437 -0.4600
  626W        W 4826  10.543   6.297   9.327  0.3231  0.0137 -0.0943
  627W        W 4827   9.046   0.125   8.823  0.4362  0.0688 -0.1308
  628W        W 4828   0.639  10.297   1.028  0.3411 -0.3477 -0.0694
  629W        W 4829   2.037   4.479  11.344 -0.0576 -0.1182 -0.1159
  630W        W 4830  10.381   0.692   9.912  0.0734  0.2555 -0.0344
  631W        W 4831   1.871   0.040  11.040 -0.0981  0.0215 -0.1458
  632W        W 4832   8.027   0.851   3.558  0.1626 -0.2897 -0.1443
  633W        W 4833   1.454   5.474   0.282 -0.2568 -0.3835 -0.2610
  634W        W 4834   3.262   2.635   3.512  0.3347 -0.1287 -0.0819
  635W        W 4835   1.288   0.537   3.507 -0.3678  0.2245 -0.2407
  636W        W 4836   2.416   8.992  10.290 -0.3172 -0.0634 -0.0230
  637W        W 4837   9.123   5.609   0.284 -0.0189  0.0052  0.3033
  638W        W 4838   3.693  10.523   3.540 -0.1432 -0.0928  0.0203
  639W        W 4839   6.437   2.935   4.839 -0.0902 -0.1813 -0.0907
  640W        W 4840   7.134   2.661   9.601  0.0650 -0.0963 -0.0293
  641W        W 4841   5.958   2.860   3.833  0.1921 -0.0725 -0.0798
  642W        W 4842  10.546   5.511   9.904 -0.1649  0.1031  0.0132
  643W        W 4843   0.936   1.497   2.193  0.0068 -0.0851 -0.1703
  644W        W 4844   1.583   1.113   0.960 -0.2979 -0.1970 -0.1039
  645W        W 4845   6.471   6.085   0.968 -0.1351  0.2692 -0.0295
  646W        W 4846   9.488   8.871   4.091 -0.1772  0.0455 -0.0971
  647W        W 4847   9.108   2.174  11.106  0.0682  0.0129 -0.7253
  648W        W 4848  10.026   4.625  11.513 -0.0908 -0.2629  0.2865
  649W        W 4849   7.113   5.972   8.560 -0.1355  0.1329 -0.0250
  650W        W 4850   7.652   3.106   9.476 -0.1718 -0.1782 -0.1608
  651W        W 4851   0.701   4.836   2.583  0.3254 -0.0799 -0.2114
  652W        W 4852   2.614   5.350  11.735 -0.4428  0.0020  0.1836
  653W        W 4853   8.405   2.434   3.470  0.1602  0.2462 -0.3689
  654W        W 4854   8.774   8.110  12.153 -0.2388 -0.4304  0.1029
  655W        W 4855   9.948   6.627   0.320 -0.0394 -0.0918 -0.1271
  656W        W 4856   9.445   0.730   1.609 -0.1086 -0.1392  0.2598
  657W        W 4857   7.555   5.868  10.784  0.1177 -0.0913 -0.0942
  658W        W 4858   5.368   1.637  10.389  0.0161  0.0194 -0.1984
  659W        W 4859   9.481   2.380   0.507  0.4558  0.0245 -0.3378
  660W        W 4860   5.297   6.905   2.181 -0.0005 -0.0855 -0.0181
  661W        W 4861   9.604   0.018   8.789 -0.1810 -0.2538  0.1089
  662W        W 4862  10.291   0.381  12.603  0.1713  0.0529 -0.2082
  663W        W 4863   2.182   0.465  12.703  0.0168 -0.2165  0.2978
  664W        W 4864   8.060   5.316   2.619  0.1181  0.1948 -0.1153
  665W        W 4865   1.815  10.392   3.875 -0.2965 -0.0662 -0.2122
  666W        W 4866   9.419   7.643   1.351 -0.2110 -0.2180 -0.0373
  667W        W 4867   5.926   1.133   9.659 -0.1546 -0.1037  0.0558
  668W        W 4868   3.277   3.592   2.578 -0.5123  0.0863  0.0239
  669W        W 4869  10.572   9.079   2.160 -0.0239 -0.1008  0.3177
  670W        W 4870   1.206   4.556  10.880 -0.3715  0.1273 -0.0116
  671W        W 4871   3.955   8.003  10.985  0.4474  0.4176 -0.3165
  672W        W 4872   0.688   5.684   1.975  0.2170  0.3055  0.0411
  673W        W 4873   3.244   1.246   2.670  0.2408 -0.0405 -0.3399
  674W        W 4874   6.718  10.102   2.120  0.2064 -0.2507  0.1369
  675W        W 4875   7.492   4.690   0.160 -0.0978  0.1440  0.0874
  676W        W 4876   1.034   0.104  10.577  0.1581 -0.0436  0.0957
  677W        W 4877   8.480   4.977   0.454  0.2737  0.0025 -0.0415
  678W        W 4878   1.283   7.660  12.165  0.4096  0.1971 -0.0339
  679W        W 4879  10.612   4.319   0.017  0.3096  0.1157  0.0756
  680W        W 4880   7.946   4.852   9.274 -0.0034  0.4576 -0.2179
  681W        W 4881   8.265   1.261   8.757  0.2981  0.1235 -0.1617
  682W        W 4882   4.558   6.169   8.500 -0.0869 -0.0404 -0.3069
  683W        W 4883   1.015   6.479   2.369 -0.1030 -0.1674  0.0128
  684W        W 4884   7.106  10.577   3.190  0.5003 -0.1817 -0.2144
  685W        W 4885   8.114   7.559   8.030  0.2896  0.0633 -0.3122
  686W        W 4886   5.124   1.120   9.288 -0.0871 -0.0737 -0.1482
  687W        W 4887   9.445   2.205  11.546 -0.0644 -0.2118 -0.0465
  688W        W 4888   5.837   6.710   8.437  0.0543  0.2749  0.1817
  689W        W 4889   6.675   9.709  11.513 -0.1860  0.2016  0.0414
  690W        W 4890   3.134   5.440  10.054  0.4922  0.1519 -0.0437
  691W        W 4891   1.754   2.048   1.784 -0.1136  0.0346  0.2638
  692W        W 4892   0.408   4.040  10.752 -0.1589  0.0634  0.0935
  693W        W 4893   1.933   7.153  11.094 -0.0844 -0.0798  0.1322
  694W        W 4894   2.085   0.473   0.310 -0.0967  0.2159 -0.0804
  695W        W 4895   1.348   4.470  10.337 -0.0992 -0.2525  0.1603
  696W        W 4896   5.044   4.736   9.072  0.0185 -0.0421  0.0574
  697W        W 4897   4.580   5.606  10.377 -0.0293 -0.0515  0.2269
  698W        W 4898   7.111   0.321   9.964 -0.1478  0.3255  0.0430
  699W        W 4899   3.885   1.512   8.639 -0.0728  0.1854 -0.1490
  700W        W 4900   9.005   8.822  11.089  0.0894  0.0248  0.1102
  701W        W 4901   7.981   2.345   2.762  0.0535 -0.0175 -0.1125
  702W        W 4902   0.935   9.287   3.414  0.1373 -0.1618 -0.4792
  703W        W 4903   3.483   4.104  12.043 -0.1716 -0.0639  0.0568
  704W        W 4904   8.813  10.354   4.688 -0.0513  0.4213  0.3843
  705W        W 4905   0.773   2.956   3.696 -0.2325  0.3239  0.0931
  706W        W 4906   1.936   9.898   0.392  0.2911 -0.2849  0.1240
  707W        W 4907   9.136   3.486  10.100 -0.0881  0.0054  0.2303
  708W        W 4908   8.651   4.491  11.057 -0.1321  0.2991 -0.1198
  709W        W 4909   8.128   8.220   2.965  0.2373  0.1000 -0.1419
  710W        W 4910   1.851   4.892   1.489 -0.3062 -0.0075 -0.1724
  711W        W 4911   8.361   2.752   0.845 -0.1209  0.0867  0.1190
  712W        W 4912   8.309   8.536   1.425  0.4132 -0.1362  0.0208
  713W        W 4913   4.559   8.803   0.966  0.1068  0.0456  0.1528
  714W        W 4914   1.019   5.379  11.067 -0.3637  0.0983  0.0479
  715W        W 4915   2.168   9.424   1.429  0.1599  0.5369 -0.1024
  716W        W 4916   9.457   9.835  10.838  0.0063  0.1920  0.3020
  717W        W 4917   6.956   4.651   9.530  0.1345  0.0365  0.2346
  718W        W 4918   4.979   8.956   1.648 -0.2154  0.2770 -0.1780
  719W        W 4919   9.995   1.299   9.274 -0.1297 -0.1282  0.1141
  720W        W 4920   0.306   4.719   3.775  0.0383 -0.0637 -0.1953
  721W        W 4921   1.295   7.834   0.466  0.0363 -0.0767  0.4164
  722W        W 4922   1.976   3.073  11.284 -0.0766  0.1849 -0.2583
  723W        W 4923   4.189   3.755   0.714  0.1211  0.1016  0.2468
  724W        W 4924   1.176   4.718   3.532  0.0767 -0.2476 -0.0330
  725W        W 4925   9.229   0.383   2.973  0.0691 -0.0214  0.0416
  726W        W 4926   7.450   0.723   3.929 -0.0385 -0.0491  0.0626
  727W        W 4927   0.669   1.005   1.237  0.1861  0.4356 -0.0395
  728W        W 4928   1.526   6.430   2.370  0.1743 -0.1956 -0.3976
  729W        W 4929   4.526   1.075   8.921  0.2407  0.4268  0.0040
  730W        W 4930   8.494   1.069   1.808 -0.1748  0.0982 -0.0711
  731W        W 4931   2.863   6.314   1.968 -0.1719 -0.2217  0.3486
  732W        W 4932   4.600   4.805  10.012 -0.1747  0.1544  0.2606
  733W        W 4933   3.653   9.364   2.217 -0.2015 -0.2397  0.3503
  734W        W 4934   9.460  10.394   9.161 -0.3531 -0.0146  0.1160
  735W        W 4935   2.763   9.906   2.007  0.2013  0.0341  0.4151
  736W        W 4936   1.973   1.780   0.864 -0.1782 -0.0358  0.0923
  737W        W 4937   0.298   8.233   0.522 -0.1534 -0.1851 -0.1368
  738W        W 4938   6.386   3.849   9.551 -0.0383  0.2820 -0.3360
  739W        W 4939   3.487   0.176   1.956 -0.1917  0.0860 -0.3932
  740W        W 4940   5.841  10.483  10.224 -0.1511 -0.2256 -0.1966
  741W        W 4941   5.308   6.519   0.213  0.1890  0.1513  0.0474
  742W        W 4942   8.287   4.843   0.896  0.1531 -0.0399 -0.0160
  743W        W 4943   3.555   1.400   1.672  0.1577  0.1405 -0.1403
  744W        W 4944   0.709   5.719  11.134  0.2290  0.3759  0.3695
  745W        W 4945   7.691   9.090   9.177 -0.1222  0.2671 -0.2113
  746W        W 4946   6.569   1.185  10.929  0.3988 -0.0425 -0.1004
  747W        W 4947   6.074  10.495  11.528  0.3830  0.0041 -0.1851
  748W        W 4948   4.321   6.823   3.361 -0.0361 -0.2298  0.1088
  749W        W 4949   0.250   4.393   9.242 -0.1759  0.0612 -0.1221
  750W        W 4950   5.773  10.132   7.690  0.1402 -0.0716  0.2289
  751W        W 4951   7.174   2.810   2.605  0.0667 -0.2242 -0.0777
  752W        W 4952   0.938   5.020   4.346 -0.1565 -0.2676  0.0764
  753W        W 4953  10.666   0.248   2.234 -0.1678  0.2892  0.0296
  754W        W 4954   0.886  10.505  11.017  0.1976  0.0870 -0.1244
  755W        W 4955   3.750   6.265   3.452  0.0337 -0.0644 -0.1190
  756W        W 4956   6.437   2.996   7.553  0.0005  0.2975  0.0224
  757W        W 4957   7.612  10.368   1.867 -0.1219  0.2112 -0.0703
  758W        W 4958   2.827   6.372   9.265  0.1977 -0.2762 -0.2469
  759W        W 4959   2.349  10.271   9.412  0.0151 -0.0777 -0.0716
  760W        W 4960  10.228   3.864  12.877  0.0561  0.0558 -0.0365
  761W        W 4961   4.573   1.976   2.083 -0.1367 -0.1092 -0.2829
  762W        W 4962   6.301   0.476   3.363 -0.3831 -0.0290 -0.2357
  763W        W 4963   6.357   4.924   8.652  0.2772  0.0423  0.1085
  764W        W 4964   1.584   4.742   3.293 -0.1678  0.0122  0.1653
  765W        W 4965   6.980   4.844  12.291 -0.1864 -0.2140 -0.4998
  766W        W 4966   4.268   2.392   0.460 -0.0354  0.2782 -0.1886
  767W        W 4967   3.936   4.924   2.325 -0.0244 -0.1947 -0.1818
  768W        W 4968  10.588   6.261   2.167 -0.0172  0.0697  0.1558
  769W        W 4969   8.346   4.085  12.829  0.0064 -0.0444 -0.1193
  770W        W 4970   5.995   8.219   9.883 -0.2412  0.1068 -0.1349
  771W        W 4971   1.725   0.812   9.953  0.1593 -0.2079  0.0557
  772W        W 4972   1.326   6.647   0.985 -0.0779 -0.2142 -0.1045
  773W        W 4973   0.001   6.359   9.846  0.2410 -0.0962  0.3627
  774W        W 4974   5.095   7.615  11.355 -0.3339  0.1100  0.0109
  775W        W 4975   9.107   9.881  12.194 -0.1057 -0.0080  0.0909
  776W        W 4976   2.468   5.993   9.599  0.3812 -0.0091 -0.0338
  777W        W 4977   0.543   0.875  11.068 -0.0897  0.1390  0.1674
  778W        W 4978   2.443   3.695   0.375 -0.0870  0.2866 -0.2609
  779W        W 4979   5.486   9.057  12.517  0.0669 -0.1682  0.2622
  780W        W 4980   4.091   7.585  11.248  0.0390  0.2019  0.0011
  781W        W 4981   5.972   7.206  11.082 -0.0211 -0.0247 -0.1818
  782W        W 4982   6.333   3.014  10.648  0.0470  0.1596 -0.1271
  783W        W 4983   1.286   1.591   9.498  0.1332  0.1714  0.0694
  784W        W 4984  10.478   2.356   2.807 -0.0784  0.2953 -0.1715
  785W        W 4985   6.969   0.519   8.624 -0.0759 -0.1408 -0.1462
  786W        W 4986   4.781  10.595   2.240  0.1539 -0.5092 -0.3100
  787W        W 4987   0.611   6.436   4.035  0.0704  0.1712 -0.3413
  788W        W 4988   8.195   3.939   0.930  0.2670  0.0822  0.0033
  789W        W 4989   8.759   7.730   3.249 -0.1904  0.0871  0.1281
  790W        W 4990   1.874   3.864   1.896  0.3518  0.2680  0.0391
  791W        W 4991   7.625   0.979   4.482 -0.0412 -0.1775  0.1671
  792W        W 4992   0.765   6.917   0.597 -0.1063  0.4623  0.1396
  793W        W 4993   2.180   3.077  12.688 -0.0775 -0.1093 -0.0035
  794W        W 4994   3.671   9.534   8.450  0.0813 -0.0755 -0.0463
  795W        W 4995   0.494   3.660   9.698  0.2470  0.2599  0.3445
  796W        W 4996   9.564   2.517  11.044  0.0655  0.1041  0.1265
  797W        W 4997   0.528   1.922   0.807 -0.1417  0.1813 -0.1289
  798W        W 4998   7.313   5.076   0.430  0.0203  0.1679 -0.1681
  799W        W 4999   3.090   6.054   0.468  0.5338 -0.0711  0.0321
  800W        W 5000   4.397   5.698   2.309 -0.0067  0.1784  0.4136
  801W        W 5001   4.974   9.906  11.418  0.0928 -0.0857  0.2746
  802W        W 5002   1.710   1.712  10.885 -0.2257 -0.0146 -0.0495
  803W        W 5003   0.551   9.021   0.040  0.0919 -0.0892  0.1249
  804W        W 5004   0.281   2.028   2.568  0.3217  0.0598  0.1157
  805W        W 5005   5.692  10.392   1.884  0.0189 -0.0476 -0.1574
  806W        W 5006   8.075   9.893   3.586  0.0238  0.0386  0.0198
  807W        W 5007   4.161   5.683  10.068  0.2699 -0.0241  0.0706
  808W        W 5008   1.648   8.464   3.287  0.0925  0.0727 -0.1565
  809W        W 5009   3.302   6.431   3.128 -0.0383  0.2059 -0.0174
  810W        W 5010   2.618   5.487   0.701  0.2962  0.1533 -0.1904
  811W        W 5011   8.671   4.020  11.385  0.0523  0.2391  0.0150
  812W        W 5012   3.777   7.422   1.427 -0.2257  0.0797  0.3114
  813W        W 5013   2.387  10.130  11.650  0.2265 -0.4014 -0.1130
  814W        W 5014   2.692   0.486   0.061  0.3418 -0.1250  0.1226
  815W        W 5015   8.649   6.779   8.443 -0.1784  0.1362 -0.0796
  816W        W 5016   1.183   6.694   0.527 -0.0970 -0.1488  0.2005
  817W        W 5017   5.873   8.784   9.879 -0.0691  0.1774  0.0560
  818W        W 5018   7.217   9.394   0.039  0.1985 -0.3735  0.1488
  819W        W 5019   1.076   2.880   0.749  0.5203 -0.0786 -0.0910
  820W        W 5020   4.771   0.677   3.330 -0.1220  0.3157  0.0732
  821W        W 5021   2.624   3.193   8.953 -0.0841  0.3922  0.2782
  822W        W 5022   4.135   4.976   9.983 -0.1976 -0.1339  0.0589
  823W        W 5023   1.997   2.469  11.927  0.1204  0.3449  0.2418
  824W        W 5024   1.204   1.076   3.369 -0.0695 -0.2554  0.2562
  825W        W 5025   4.511   7.224   0.120  0.0092 -0.0538 -0.2132
  826W        W 5026   4.776   7.848  11.812  0.2049 -0.1171  0.1130
  827W        W 5027   4.340   3.361   9.095  0.3292  0.0460  0.0305
  828W        W 5028   6.744   1.269   3.408  0.1602  0.0334  0.0435
  829W        W 5029   7.763   6.050   3.989 -0.0773 -0.0932  0.0863
  830W        W 5030   6.308   3.374   1.671 -0.0207 -0.0932 -0.1961
  831W        W 5031   1.058   4.801  12.615  0.0296 -0.5931 -0.0123
  832W        W 5032   2.801  10.227   9.274  0.2720 -0.2699  0.1871
  833W        W 5033  10.277  10.494   1.681 -0.1382  0.0590 -0.2467
  834W        W 5034   6.063   7.484   0.496  0.0461 -0.2297 -0.4144
  835W        W 5035   8.416   0.797  10.578 -0.0757  0.2490 -0.0277
  836W        W 5036   9.749   5.055   2.190  0.1922 -0.2566  0.2393
  837W        W 5037   0.483   1.625  11.505 -0.0840  0.0431  0.1131
  838W        W 5038   1.552   3.291  10.937  0.0120 -0.2025  0.0631
  839W        W 5039   5.468   9.784  10.473  0.3060  0.3385 -0.2278
  840W        W 5040   0.901   3.853  10.936  0.0063  0.0757 -0.0971
  841W        W 5041   3.254   8.216   0.789 -0.0570 -0.0189  0.0007
  842W        W 5042   0.612   6.904   9.825 -0.0275  0.0539 -0.0069
  843W        W 5043   6.938  10.478   0.595 -0.0845 -0.3388  0.1878
  844W        W 5044   9.097   3.183   0.416  0.0306 -0.0019 -0.3703
  845W        W 5045   9.760   1.776  10.730  0.4221 -0.0904  0.2618
  846W        W 5046   7.339   3.204   2.076 -0.0077  0.4563  0.2936
  847W        W 5047   2.207   5.485   2.581  0.2065  0.3051  0.4056
  848W        W 5048   6.416   1.887   2.826  0.0682  0.0456  0.0671
  849W        W 5049  10.559   1.685  12.711 -0.2376  0.1000  0.0395
  850W        W 5050   6.296   5.894  10.563  0.2747 -0.1739 -0.1832
  851W        W 5051   4.858   5.267   3.147  0.3649 -0.0344  0.0325
  852W        W 5052   6.273   2.852   1.451  0.1865 -0.3667 -0.1661
  853W        W 5053   4.409   9.963   8.048 -0.1383 -0.2720  0.0676
  854W        W 5054   8.450   9.896   8.452  0.1160  0.0701 -0.0177
  855W        W 5055   1.773   4.737   0.514  0.3472 -0.2124  0.1524
  856W        W 5056   1.415   2.068  10.727 -0.0074  0.0061  0.1464
  857W        W 5057   9.105   3.536   2.759 -0.1661 -0.1201  0.0797
  858W        W 5058   4.945   2.186   0.983  0.1009 -0.0106  0.1442
  859W        W 5059   0.597   5.515   2.506 -0.0187 -0.2907  0.0037
  860W        W 5060   8.900   7.231   1.482 -0.2738  0.1946  0.0740
  861W        W 5061   6.684   9.855  10.545  0.2764  0.2593  0.3833
  862W        W 5062   2.722   7.575  11.808 -0.2829 -0.2923 -0.0038
  863W        W 5063   6.033   5.626   9.238 -0.0976 -0.1902 -0.1664
  864W        W 5064   6.494   6.584   1.284  0.1606 -0.1642 -0.0093
  865W        W 5065   9.597   5.600   0.128 -0.4533 -0.0887  0.2948
  866W        W 5066   8.477   9.678  12.795 -0.2343 -0.0467 -0.3198
  867W        W 5067   6.950   0.983   1.772 -0.3289  0.0868 -0.1797
  868W        W 5068   0.250   6.458   0.265 -0.2333  0.2178  0.2090
  869W        W 5069   8.170   1.210  11.093 -0.1163  0.1016 -0.0235
  870W        W 5070   6.414   9.768  11.029 -0.0519 -0.1613  0.1900
  871W        W 5071   1.506  10.645   2.480 -0.2060  0.1534  0.0072
  872W        W 5072   5.255   1.699   8.453  0.0120 -0.1845  0.1759
  873W        W 5073   4.216   4.681   0.077  0.1491 -0.5703 -0.0616
  874W        W 5074   1.459  10.572   1.046  0.0250  0.1226  0.0988
  875W        W 5075   4.739  10.684   0.397  0.1015 -0.2407  0.1068
  876W        W 5076   9.011   0.379   9.844 -0.0273  0.1492 -0.0006
  877W        W 5077   9.732   1.935   0.515  0.0168  0.0810 -0.0148
  878W        W 5078   4.589  10.329  11.605  0.0459  0.1922 -0.1919
  879W        W 5079   1.837   1.490   1.756 -0.3031  0.0852 -0.0004
  880W        W 5080   7.374   0.989  11.443 -0.3463  0.1592  0.1761
  881W        W 5081   0.520   4.721  11.943 -0.0647  0.0405  0.1778
  882W        W 5082   3.687   1.740   8.993  0.1130 -0.1799 -0.0511
  883W        W 5083   0.380  10.443   3.048 -0.0901  0.1440  0.1762
  884W        W 5084   5.797   4.698  10.646  0.2321 -0.3763  0.0513
  885W        W 5085   3.270   2.720  11.378 -0.0780 -0.0895 -0.1731
  886W        W 5086   7.392   2.537  12.589  0.1695 -0.2492  0.1144
  887W        W 5087   3.524   2.756  12.253 -0.0245  0.1012 -0.0106
  888W        W 5088   2.412   5.407   3.049  0.1450 -0.3549 -0.0354
  889W        W 5089   2.714   4.888  11.950  0.2052 -0.0289 -0.0560
  890W        W 5090   6.350   9.577   3.652 -0.0238  0.1364  0.0795
  891W        W 5091   4.168   6.135  11.353 -0.4774  0.0610  0.1657
  892W        W 5092   3.622   7.990   3.161 -0.2031 -0.1369  0.2363
  893W        W 5093   7.275   3.494   9.855 -0.0332 -0.2742  0.0537
  894W        W 5094   4.768   8.346   0.802  0.0827  0.0428 -0.3313
  895W        W 5095   2.016  10.215  10.765 -0.2192 -0.1627 -0.1102
  896W        W 5096   0.303   6.407   1.841  0.3261 -0.2099  0.2612
  897W        W 5097   3.307   9.037   0.606 -0.3459  0.0373 -0.0407
  898W        W 5098   4.530   0.116  12.490 -0.1232 -0.1698  0.0466
  899W        W 5099   5.414  10.069   2.115  0.1556  0.0170 -0.3651
  900W        W 5100   5.994   9.760   9.653  0.3703  0.1477  0.2342
  901W        W 5101   5.707   3.227   3.594  0.1190 -0.4326  0.0021
  902W        W 5102   7.898   8.566   9.038 -0.2162 -0.1029  0.3052
  903W        W 5103   1.907   5.380  10.543  0.0843  0.1124  0.0314
  904W        W 5104   3.218   9.782   4.017 -0.1570 -0.1349  0.1108
  905W        W 5105   9.635   2.672   2.509 -0.2603  0.0469 -0.1045
  906W        W 5106   4.790   4.472   3.260 -0.2059  0.1085 -0.1730
  907W        W 5107   5.802   5.262   7.805  0.2727  0.1351 -0.1014
  908W        W 5108   3.940   3.248  12.052 -0.4181  0.0357  0.2443
  909W        W 5109   0.734   2.790   1.362  0.0698 -0.2162 -0.2045
  910W        W 5110   2.801   9.303   3.693 -0.1660  0.4912 -0.1480
  911W        W 5111   2.768   5.570  12.692 -0.0503  0.2966 -0.1513
  912W        W 5112   4.079   8.559   1.877  0.0508 -0.0050 -0.1435
  913W        W 5113   3.097   0.771   8.646 -0.0087  0.1308  0.0120
  914W        W 5114   4.370   0.110  11.696  0.3346 -0.1882 -0.1408
  915W        W 5115   4.508   4.802   9.070 -0.1706 -0.0609  0.1569
  916W        W 5116   3.136  10.268   9.756 -0.2584 -0.0877 -0.2532
  917W        W 5117   6.458   7.164  11.493 -0.0996 -0.2084 -0.2013
  918W        W 5118   6.666   2.776   9.859 -0.1255 -0.1285  0.1535
  919W        W 5119   3.223   4.005  10.472 -0.2425 -0.0319 -0.1040
  920W        W 5120   0.698   8.634  11.354  0.3087  0.0274  0.1254
  921W        W 5121   5.915   9.882   9.088 -0.1046 -0.0356 -0.0968
  922W        W 5122   0.304   6.534   9.296  0.2927 -0.0118  0.1330
  923W        W 5123   8.816   3.544   9.636  0.0525  0.0612 -0.2448
  924W        W 5124   9.696   0.845   9.925  0.0074  0.4180 -0.0159
  925W        W 5125  10.295   5.738   4.850 -0.1500  0.0415 -0.0024
  926W        W 5126   6.906   4.714   3.239  0.1295 -0.1843 -0.3146
  927W        W 5127   0.369   1.035  12.439  0.1536 -0.1313 -0.1618
  928W        W 5128   3.902   2.496   3.958  0.2606  0.1258 -0.2132
  929W        W 5129   0.754   6.041   2.370 -0.0980  0.2471  0.0405
  930W        W 5130   7.041   8.311   1.378 -0.3253 -0.2509 -0.1054
  931W        W 5131   9.966   0.585   0.669  0.2578 -0.2165 -0.1073
  932W        W 5132   5.875   9.842  11.860 -0.2303 -0.0600  0.0097
  933W        W 5133   1.064   1.829   0.737  0.2790 -0.2103  0.1403
  934W        W 5134   3.086  10.639   9.163 -0.1705 -0.2001 -0.0922
  935W        W 5135   2.933   9.334  10.179  0.0437  0.0415  0.3520
  936W        W 5136   0.688   4.920   9.918 -0.1333  0.4214 -0.1773
  937W        W 5137   7.638   6.321  10.565  0.0810 -0.0088 -0.0197
  938W        W 5138   5.537   5.942  11.528  0.0795 -0.3856  0.3007
  939W        W 5139   8.176   1.916   9.581 -0.3586 -0.1951 -0.0391
  940W        W 5140   2.323   2.854  10.241  0.1105  0.0303 -0.1017
  941W        W 5141   0.745   0.501   1.231 -0.0736 -0.0337  0.2245
  942W        W 5142   3.452   9.676   9.392  0.3042 -0.1497 -0.2699
  943W        W 5143   0.222   9.739   8.914  0.0499  0.0654 -0.0258
  944W        W 5144   9.446   3.149   2.326  0.0661 -0.1464  0.0310
  945W        W 5145   2.453   0.695   9.364  0.0360 -0.0012 -0.0568
  946W        W 5146   4.489   7.080  11.984 -0.3428  0.0840  0.3530
  947W        W 5147   3.608   4.251  10.638 -0.0124 -0.0796  0.1741
  948W        W 5148   7.327   7.156  11.112 -0.0074 -0.2601  0.3270
  949W        W 5149  10.376   5.631   1.451  0.0061 -0.2368 -0.0294
  950W        W 5150   2.795   7.100   8.172 -0.1497 -0.2122  0.1333
  951W        W 5151   5.349   5.226   0.327 -0.2891  0.0275 -0.1453
  952W        W 5152   4.945   0.205   2.635  0.1668 -0.3902  0.0227
  953W        W 5153   5.010   8.680   2.109 -0.0445 -0.0254  0.1507
  954W        W 5154   6.998   0.920  12.912 -0.0836  0.0244 -0.1966
  955W        W 5155   6.985   0.371  12.768 -0.3142  0.1571  0.0094
  956W        W 5156   4.048   2.237   8.305  0.2415 -0.1841  0.2275
  957W        W 5157   1.957  10.446   2.495  0.1191  0.0536  0.3193
  958W        W 5158   1.434   5.607   1.863 -0.1906  0.1985  0.2789
  959W        W 5159   2.746   8.855   2.022 -0.1934 -0.1077  0.0059
  960W        W 5160  10.333   4.918   4.233 -0.0283  0.0055  0.1545
  961W        W 5161   8.650   1.859   9.537 -0.0152 -0.1934  0.0257
  962W        W 5162   9.682   9.359   8.410 -0.1215  0.0925 -0.0321
  963W        W 5163   5.980   1.371   1.655 -0.0015  0.0201  0.0763
  964W        W 5164   3.075   5.227   0.863 -0.0171 -0.0543  0.0531
  965W        W 5165   5.718  10.152  11.457  0.1062 -0.1772  0.0163
  966W        W 5166  10.549   2.752   2.444  0.0153 -0.0342 -0.1853
  967W        W 5167   7.111   5.644  10.441  0.0039 -0.1375  0.0757
  968W        W 5168   0.642   3.757  12.477  0.2796  0.3440  0.1039
  969W        W 5169   3.957   0.623   9.534  0.0744 -0.1726  0.1607
  970W        W 5170   1.382   1.812   0.052 -0.0149  0.0103  0.0150
  971W        W 5171   5.056   4.942  11.638  0.1061 -0.1699 -0.1548
  972W        W 5172   8.218   9.639  10.530 -0.0115 -0.3817  0.1699
  973W        W 5173   2.172   3.345   0.700  0.1576  0.4537 -0.3261
  974W        W 5174   8.054   2.768   4.732 -0.1383 -0.0569 -0.1601
  975W        W 5175   1.938   1.683   2.265  0.0109  0.1907 -0.0155
  976W        W 5176   4.823   5.356  11.375  0.2683 -0.0104 -0.2848
  977W        W 5177   2.243   9.293   8.022  0.0338  0.2770  0.2281
  978W        W 5178   0.910   3.568   9.362 -0.0200  0.0038  0.1604
  979W        W 5179   5.337   5.083  10.547 -0.1771  0.3285 -0.0382
  980W        W 5180   6.533   3.925  11.579 -0.4358 -0.0655 -0.2957
  981W        W 5181   2.436   0.936  12.800  0.1168 -0.1224  0.1981
  982W        W 5182  10.029   9.732  11.295 -0.0831  0.0939  0.0047
  983W        W 5183   5.202   8.605   9.588  0.1215 -0.1924  0.1992
  984W        W 5184   4.292   6.125   1.074  0.0721  0.0972 -0.1619
  985W        W 5185   2.826   6.685  11.317  0.1126 -0.1097 -0.1740
  986W        W 5186   2.518   2.267   0.134  0.1138  0.2487  0.0732
  987W        W 5187   7.629   9.838  11.673  0.1571 -0.0210  0.1023
  988W        W 5188   3.417  10.045   2.712 -0.0993  0.0130  0.1402
  989W        W 5189   1.432   0.020  12.780  0.5049  0.0417 -0.2132
  990W        W 5190   4.768   0.741   9.250 -0.0538  0.3620  0.0646
  991W        W 5191   2.137   5.569  10.980  0.0630 -0.0486  0.0433
  992W        W 5192  10.311   4.168  11.433  0.1454  0.1411 -0.0697
  993W        W 5193   9.037   7.456   2.903 -0.1407  0.2521 -0.2289
  994W        W 5194   8.202  10.538   3.909  0.0007  0.2222 -0.0447
  995W        W 5195   9.176   8.541   0.933  0.1591 -0.0704 -0.1142
  996W        W 5196   1.504   6.048  12.229  0.1730  0.0653 -0.2773
  997W        W 5197   9.498   6.423  12.581  0.0089  0.0801  0.1745
  998W        W 5198   3.852  10.092   0.008 -0.4840  0.2440  0.1513
  999W        W 5199   0.564   3.186  10.356  0.0407 -0.0752 -0.0036
 1000W        W 5200   4.946   2.802   3.880 -0.0817  0.3151 -0.2342
 1001W        W 5201   7.130   4.209  10.613 -0.1589  0.0378  0.2322
 1002W        W 5202   2.056   0.947   0.986 -0.1520  0.0732  0.0282
 1003W        W 5203   6.568   0.578   0.161 -0.1648 -0.0074  0.0321
 1004W        W 5204   8.362  10.494   1.732 -0.0961  0.1334  0.0926
 1005W        W 5205   6.905   6.570   2.659 -0.0537  0.0822 -0.0919
 1006W        W 5206   4.189   9.040  10.502 -0.1972  0.1203 -0.2020
 1007W        W 5207   4.106   8.167  12.483 -0.1981  0.0991  0.0204
 1008W        W 5208   6.637   9.355   9.323 -0.1636  0.2652 -0.0588
 1009W        W 5209   3.446   4.544   9.628 -0.1270  0.1484  0.0047
 1010W        W 5210   8.688   3.690  12.750  0.0200 -0.0587  0.1974
 1011W        W 5211   4.379   4.031  10.482 -0.0098 -0.1575 -0.0375
 1012W        W 5212   7.117  10.236   8.555  0.0640  0.0227 -0.2817
 1013W        W 5213   1.819  10.236   1.080  0.1218 -0.0595 -0.1631
 1014W        W 5214   4.615   6.027   3.547 -0.0710 -0.2179  0.1185
 1015W        W 5215   3.354   5.716   0.173 -0.1175 -0.2934  0.0636
 1016W        W 5216   3.205   5.115   9.636 -0.1125  0.3784  0.0792
 1017W        W 5217   2.502   4.123   2.549 -0.3123  0.1273  0.1751
 1018W        W 5218  10.661   0.195  12.805  0.1495  0.1990 -0.2176
 1019W        W 5219   7.969  10.161  11.838  0.0444 -0.1443 -0.2147
 1020W        W 5220   0.337   0.755  12.915  0.0647 -0.2050 -0.2514
 1021W        W 5221   1.060   8.833   8.513  0.1700  0.2397 -0.3176
 1022W        W 5222   0.434   2.784   2.981 -0.2227  0.1018 -0.2677
 1023W        W 5223   9.088  10.695   7.926  0.1459 -0.2690 -0.1554
 1024W        W 5224   5.674   4.064   8.815 -0.0294  0.0372  0.1695
 1025W        W 5225  10.142   2.048   8.567  0.1263 -0.1714  0.0564
 1026W        W 5226   0.701   7.859   0.389 -0.0559 -0.4991 -0.0006
 1027W        W 5227   9.896   7.288   2.266 -0.0829  0.2325 -0.0692
 1028W        W 5228   7.341   0.180   8.703 -0.0591  0.0635 -0.2338
 1029W        W 5229   0.856   6.974   0.105 -0.1091  0.2476  0.3206
 1030W        W 5230   9.757   2.077  11.144 -0.1098  0.1209 -0.1225
 1031W        W 5231   0.276   1.023   2.676 -0.0723  0.2127 -0.0253
 1032W        W 5232   5.886   7.149  11.678 -0.1147 -0.0262 -0.0184
 1033W        W 5233   4.174   9.952   3.257  0.1341 -0.3415 -0.0463
 1034W        W 5234   9.644   5.181   1.666 -0.3310 -0.0245  0.1145
 1035W        W 5235   3.271   1.905   9.883  0.1696  0.0502  0.0582
 1036W        W 5236   4.145   4.359  10.798  0.2053 -0.1585 -0.3357
 1037W        W 5237   6.878   7.591   9.212 -0.1303 -0.0285 -0.4050
 1038W        W 5238   5.375   2.851   3.567  0.2622  0.1809 -0.2204
 1039W        W 5239   2.186   4.973  11.733  0.1773  0.1299 -0.2976
 1040W        W 5240   6.657   8.193  12.518 -0.1665  0.2105 -0.0515
 1041W        W 5241   7.713   8.513  10.255 -0.2431 -0.0422  0.5134
 1042W        W 5242   0.665  10.164  11.514  0.0390 -0.0118  0.0456
 1043W        W 5243   3.709   1.692  10.068  0.0228 -0.2830 -0.2540
 1044W        W 5244   6.628   4.413  11.576  0.1111  0.2376 -0.0475
 1045W        W 5245   5.887   0.862  12.074 -0.0043 -0.2169 -0.2070
 1046W        W 5246   3.872   0.525   1.838  0.0835 -0.0588 -0.1528
 1047W        W 5247   4.250   7.138  11.446  0.0309 -0.0460  0.0254
 1048W        W 5248   6.511   9.205   3.337 -0.0551  0.4494  0.4265
 1049W        W 5249   4.557   1.425   9.997  0.3236  0.3625  0.4476
 1050W        W 5250   9.220   0.047   2.004 -0.2309 -0.2214  0.2216
 1051W        W 5251   1.044   6.992  12.035  0.2310  0.1405  0.1396
 1052W        W 5252   0.359   2.687  10.388 -0.0258  0.2425  0.1814
 1053W        W 5253   5.603   0.683   2.944  0.1524 -0.0180 -0.1742
 1054W        W 5254   3.830  10.534   0.549 -0.0111 -0.4695  0.2120
 1055W        W 5255   7.487   6.004   1.432  0.1162 -0.0300 -0.0380
 1056W        W 5256   1.474   0.022   3.703  0.1732  0.0472 -0.1524
 1057W        W 5257   5.748   3.729  10.968  0.2086  0.0900  0.1074
 1058W        W 5258   7.090   7.815   2.613 -0.2001 -0.2466  0.0314
 1059W        W 5259   2.050  10.341   8.953 -0.5124  0.0446  0.1358
 1060W        W 5260   1.599   5.151   1.091 -0.0387  0.1308  0.0657
 1061W        W 5261   9.307   8.604  11.467 -0.0748 -0.3901 -0.2627
 1062W        W 5262   5.429   1.544   3.497  0.2168 -0.3501 -0.1686
 1063W        W 5263   9.502   4.645   4.572 -0.0618 -0.2712 -0.0660
 1064W        W 5264   9.678   2.209   4.338  0.2155 -0.0682  0.0648
 1065W        W 5265   0.563   8.252  11.710 -0.0745 -0.1484  0.4448
 1066W        W 5266   0.105   6.724   1.500  0.0782  0.1511  0.1041
 1067W        W 5267   7.928   2.541  10.170 -0.0503  0.2392  0.2803
 1068W        W 5268   0.321   9.822  11.802 -0.4338 -0.0019 -0.0815
 1069W        W 5269   1.315   9.267  11.169 -0.1592 -0.3845 -0.2768
 1070W        W 5270   3.687   7.772   2.392  0.1465 -0.3673  0.2685
 1071W        W 5271   3.482   4.423  10.215 -0.0446  0.0764 -0.0872
 1072W        W 5272   5.096  10.019   1.754  0.0368  0.1788 -0.0871
 1073W        W 5273   6.113   6.434   8.100  0.1406  0.0518  0.0081
 1074W        W 5274   2.336   7.263  10.155 -0.3313 -0.3023  0.1429
 1075W        W 5275   2.902   8.269   1.243 -0.1313 -0.0523 -0.0718
 1076W        W 5276   1.206   0.386   9.269  0.1566  0.2322 -0.1046
 1077W        W 5277   1.595   8.313  11.261  0.0012 -0.0407 -0.2474
 1078W        W 5278   8.252  10.124   0.922 -0.0176 -0.3113  0.3080
 1079W        W 5279   1.445   2.738   3.050  0.3300  0.0900  0.2593
 1080W        W 5280  10.103   2.684  11.927  0.3366 -0.1823  0.0852
 1081W        W 5281   0.111   3.737   0.515  0.0888  0.2179 -0.0138
 1082W        W 5282   8.749   1.448   1.583 -0.3556 -0.1874 -0.1602
 1083W        W 5283   8.533   3.928   0.514  0.2028  0.4001  0.2352
 1084W        W 5284   4.628  10.499  12.851 -0.0575  0.0719 -0.2741
 1085W        W 5285   1.450   9.607   0.288  0.1676 -0.1563 -0.0505
 1086W        W 5286   0.205   5.830   9.869  0.3417 -0.1934 -0.3149
 1087W        W 5287   9.849   7.767   3.038 -0.1376 -0.2300 -0.0013
 1088W        W 5288   8.966   0.570  10.453 -0.0309  0.1127 -0.0678
 1089W        W 5289   5.745   5.528   9.750  0.0625 -0.0041 -0.0700
 1090W        W 5290   5.511   3.709  12.125  0.0268  0.4467  0.1198
 1091W        W 5291   5.014   6.400  12.715  0.1469 -0.0500 -0.1652
 1092W        W 5292   1.391   9.801  10.795  0.1780 -0.1853 -0.3083
 1093W        W 5293   9.451   2.420  12.821 -0.2092 -0.0045 -0.1238
 1094W        W 5294  10.380   6.661   1.828  0.0177  0.1496 -0.4139
 1095W        W 5295   4.976   3.441   1.777 -0.2162  0.3715  0.0532
 1096W        W 5296   5.885   1.789   3.247  0.0744  0.1584  0.0404
 1097W        W 5297   0.798   4.804  10.372 -0.2044  0.2184 -0.1573
 1098W        W 5298   5.452   9.814   3.459  0.0967  0.0015 -0.1779
 1099W        W 5299  10.130   4.472  12.737 -0.0934  0.0351 -0.1453
 1100W        W 5300  10.295  10.098   0.856 -0.2599  0.0921  0.1058
 1101W        W 5301   0.287   6.071   3.317 -0.0512  0.0159  0.0010
 1102W        W 5302   3.183   1.695  11.181 -0.1788  0.0882  0.1799
 1103W        W 5303   8.072   9.243   1.841  0.2020 -0.0765 -0.4015
 1104W        W 5304   8.670   0.166   1.918 -0.1720 -0.1558 -0.0952
 1105W        W 5305   0.162   1.916   1.155  0.0970  0.1205 -0.0630
 1106W        W 5306   7.057   8.799   2.618 -0.1269  0.1256 -0.1574
 1107W        W 5307  10.303   8.850   0.882  0.2939  0.2435  0.5534
 1108W        W 5308   1.305   4.627   0.450  0.0356 -0.0937  0.0289
 1109W        W 5309   0.229   8.921  11.340  0.2704 -0.1605 -0.3451
 1110W        W 5310   5.524   5.290   0.948  0.1060  0.0554 -0.0976
 1111W        W 5311   8.375   1.937  10.961 -0.0507  0.1997  0.0442
 1112W        W 5312   6.571   2.331   0.173  0.0276  0.1488 -0.2880
 1113W        W 5313   3.519   3.134   3.481  0.2209  0.0749  0.0911
 1114W        W 5314   7.681   2.103  11.585 -0.0932  0.1121 -0.0740
 1115W        W 5315   1.104   3.012  10.940 -0.2606 -0.2147  0.0956
 1116W        W 5316   3.224   0.533   1.647 -0.1587  0.2891  0.1624
 1117W        W 5317   3.749   2.076   0.276  0.0817  0.1852  0.0773
 1118W        W 5318   6.389   5.221  10.034  0.0427  0.2042 -0.0926
 1119W        W 5319   8.074   4.002   2.366  0.0986  0.1243  0.1423
 1120W        W 5320   6.630   6.513   1.798 -0.1451  0.1682  0.0698
 1121W        W 5321  10.696   1.163   3.131  0.0767 -0.1453 -0.3631
 1122W        W 5322   4.467   2.234  11.935 -0.2982  0.0681 -0.2201
 1123W        W 5323   7.649   3.919  10.030 -0.1717 -0.1310 -0.1327
 1124W        W 5324   6.894   2.008  11.214 -0.0968  0.1173 -0.0509
 1125W        W 5325   1.489   5.591   9.333  0.3981  0.1175 -0.2681
 1126W        W 5326   3.827   4.965   1.767 -0.3679 -0.4682  0.1159
 1127W        W 5327   8.271   2.991   3.311 -0.0709 -0.0285  0.0842
 1128W        W 5328   5.098   7.157  10.526  0.0597 -0.4587 -0.0572
 1129W        W 5329   0.818   9.636  11.693  0.0127 -0.4422  0.1086
 1130W        W 5330   9.154   2.798  10.780 -0.0446  0.2110 -0.1030
 1131W        W 5331   5.566   2.862  11.937 -0.2028  0.2290 -0.1706
 1132W        W 5332   8.128   6.779  11.852 -0.0553  0.4228  0.1961
 1133W        W 5333   2.971   8.370  12.294 -0.3918  0.1658 -0.0124
 1134W        W 5334   1.910   8.565  12.056 -0.1947  0.1768  0.1186
 1135W        W 5335   2.318   0.589  10.585  0.0725  0.0906 -0.1410
 1136W        W 5336   0.593   4.503   2.936  0.3668  0.1398 -0.3261
 1137W        W 5337   9.182   1.232   1.304 -0.0514  0.1110 -0.1670
 1138W        W 5338   6.262   7.445   8.238 -0.3445 -0.0644 -0.1286
 1139W        W 5339   0.330   7.481  12.146  0.1508  0.4372 -0.0045
 1140W        W 5340   0.726   5.512  11.658  0.0420  0.0216 -0.0898
 1141W        W 5341   4.452   9.433  11.291 -0.0646  0.0417  0.4690
 1142W        W 5342   1.457   5.899   2.485 -0.2418  0.1779  0.1291
 1143W        W 5343   8.335   8.020   3.452  0.2520  0.1364 -0.4148
 1144W        W 5344   8.453   1.986   4.190 -0.0156 -0.1214  0.0748
 1145W        W 5345   5.895   0.432  10.738 -0.1166  0.1367 -0.1308
 1146W        W 5346   4.846   4.548   8.703  0.2000  0.0891  0.1760
 1147W        W 5347   0.569   8.799  11.853 -0.2158 -0.0118 -0.0001
 1148W        W 5348   2.406   3.611   1.110  0.0954  0.2142 -0.0855
 1149W        W 5349   4.259   7.690  10.777  0.0715  0.2507 -0.1154
 1150W        W 5350  10.234   3.717  12.059 -0.1537  0.1156  0.3406
 1151W        W 5351   8.764   2.998   0.713  0.3686  0.1124 -0.1736
 1152W        W 5352   1.983   6.758  10.705  0.1243 -0.1131 -0.0435
 1153W        W 5353   5.460   1.330   1.070  0.1689  0.0604 -0.0626
 1154W        W 5354   9.080   8.176   3.260  0.0719  0.0310 -0.0275
 1155W        W 5355   7.577   1.540   3.638  0.0958  0.1137  0.0531
 1156W        W 5356   6.555   0.959   8.784  0.0036  0.1216  0.1419
 1157W        W 5357   8.590   2.522   1.943  0.1090  0.0286  0.3676
 1158W        W 5358   5.290   7.536  10.822 -0.1121 -0.1258  0.2728
 1159W        W 5359   3.522   5.862  10.143 -0.3627 -0.1774  0.1605
 1160W        W 5360   6.840   1.773  11.669  0.1038  0.3865 -0.4539
 1161W        W 5361   3.785   8.700  10.858 -0.0914  0.1303  0.0928
 1162W        W 5362   5.893   8.382   4.199 -0.3130  0.0350 -0.3239
 1163W        W 5363   3.323   8.418   4.142 -0.2086 -0.1140 -0.3164
 1164W        W 5364   4.975   6.093   8.832 -0.0653  0.2576  0.1526
 1165W        W 5365   3.137   1.137  10.848 -0.0086 -0.0214  0.3095
 1166W        W 5366   4.526   4.747   4.558  0.0887  0.0220 -0.2731
 1167W        W 5367   5.143   4.883   0.981 -0.2973 -0.1581  0.0078
 1168W        W 5368   0.006   3.021  10.508 -0.0909 -0.0492 -0.0533
 1169W        W 5369   6.627   9.607   7.968  0.1412  0.0767 -0.2002
 1170W        W 5370   3.820   8.211   1.653 -0.3221  0.0429 -0.2058
 1171W        W 5371  10.219   6.601   3.664  0.1022  0.2144  0.0371
 1172W        W 5372   1.031   4.442   2.721 -0.0614  0.1840  0.1671
 1173W        W 5373   7.431   9.952   8.923  0.2163 -0.0235  0.3038
 1174W        W 5374   7.860   1.428  12.414  0.2062 -0.0929 -0.1335
 1175W        W 5375   3.437   8.235  11.879 -0.1485  0.1588  0.0819
 1176W        W 5376   7.047   0.433   0.431 -0.0008 -0.3496 -0.3750
 1177W        W 5377   6.848   2.085  12.016  0.0368 -0.1579 -0.3679
 1178W        W 5378   3.985   5.850  10.952  0.1920  0.1806  0.0577
 1179W        W 5379   0.309   3.376  12.666  0.1169 -0.1521 -0.0996
 1180W        W 5380   9.286   8.657  12.214 -0.2967 -0.1377  0.4106
 1181W        W 5381   6.323   7.915   9.245  0.1011  0.0157  0.0534
 1182W        W 5382   8.462   3.494  10.888  0.2437  0.0241 -0.0219
 1183W        W 5383   8.799   1.923   1.774 -0.1724  0.1391 -0.0668
 1184W        W 5384   8.594   0.450   2.679 -0.0409  0.0341  0.3051
 1185W        W 5385   6.934   7.637   3.691 -0.3500  0.0884  0.1053
 1186W        W 5386   0.101  10.553  11.029  0.3106  0.2518  0.0512
 1187W        W 5387  10.629   0.586   1.887 -0.1876  0.0795  0.4675
 1188W        W 5388   7.225  10.059   2.132  0.1202  0.3178  0.0101
 1189W        W 5389   3.631   3.679  12.479 -0.1089 -0.1349 -0.0219
 1190W        W 5390   7.130   2.675   1.685  0.0240  0.0574  0.2546
 1191W        W 5391   9.853   9.926   8.408 -0.2736  0.0620 -0.0470
 1192W        W 5392   2.760   1.331   2.378 -0.2298 -0.0256  0.1229
 1193W        W 5393   9.594   8.744  11.055  0.2149 -0.0220 -0.2473
 1194W        W 5394   3.754   2.898   3.026  0.3400  0.4534 -0.1302
 1195W        W 5395   7.547   3.489  10.341 -0.0454  0.0945 -0.1599
 1196W        W 5396   0.608   7.365   0.401 -0.0540 -0.2095 -0.0572
 1197W        W 5397   8.755   4.203   2.515 -0.1416  0.0385 -0.2945
 1198W        W 5398   4.712  10.269  11.113  0.0947  0.0593  0.1749
 1199W        W 5399   8.608   8.064  11.678  0.0183  0.2408 -0.0361
 1200W        W 5400  10.057   8.923   1.342 -0.0896 -0.2068  0.2417
 1201W        W 5401   8.707   1.903   0.758 -0.2969 -0.0339 -0.2113
 1202W        W 5402  10.650   2.680  10.934 -0.0393 -0.0731 -0.0241
 1203W        W 5403   6.841   1.799   8.963 -0.2284  0.2808 -0.0231
 1204W        W 5404   4.957   4.930   3.866 -0.3027  0.0834  0.2536
 1205W        W 5405   1.272   0.536  12.595  0.1388  0.2610 -0.1241
 1206W        W 5406   4.218   8.561   9.791  0.1296 -0.1086 -0.0648
 1207W        W 5407   9.749   9.032   3.702  0.1720  0.0997  0.3010
 1208W        W 5408   5.388   2.964   8.660 -0.0409  0.1689 -0.0244
 1209W        W 5409   9.813   7.507  12.712  0.2060  0.2882  0.2286
 1210W        W 5410   9.935   9.848   1.132  0.1103  0.1844  0.3526
 1211W        W 5411   4.166   8.208   4.117 -0.0491  0.0339  0.0514
 1212W        W 5412   5.989   8.849  11.682 -0.1094 -0.0457 -0.2971
 1213W        W 5413   3.092   2.734   1.729  0.2329 -0.0971  0.0607
 1214W        W 5414   4.840   3.715   9.316  0.0598 -0.0145  0.0216
 1215W        W 5415   5.204   1.904   3.866  0.1477 -0.2666  0.2132
 1216W        W 5416  10.639   9.741   8.494  0.0058  0.0838 -0.0546
 1217W        W 5417   1.725   1.259   2.455  0.1692  0.0135  0.1177
 1218W        W 5418   2.439   6.205   2.689 -0.3110 -0.0037  0.0242
 1219W        W 5419   5.180   9.873  10.921 -0.1736  0.0470 -0.0512
 1220W        W 5420   4.507   6.148  10.983  0.2595 -0.2526 -0.0881
 1221W        W 5421   5.462   0.971   9.756 -0.1106  0.0206 -0.1147
 1222W        W 5422   4.305   3.332   0.477  0.2918  0.3103  0.1344
 1223W        W 5423   5.486   5.033   9.660  0.0893 -0.1367  0.1762
 1224W        W 5424   9.178   9.343   2.297  0.1584  0.1200 -0.1163
 1225W        W 5425   7.990   0.138  10.131  0.3401 -0.3466 -0.0306
 1226W        W 5426   1.488   9.157  10.244 -0.2094  0.1713  0.0064
 1227W        W 5427   8.757   9.485   8.516 -0.1137 -0.2012  0.2179
 1228W        W 5428   0.120   1.752   2.072 -0.0781 -0.1190  0.1565
 1229W        W 5429   4.852   8.147   3.011  0.4405  0.0205 -0.1120
 1230W        W 5430   3.445   5.996  12.117 -0.2232 -0.1554 -0.3198
 1231W        W 5431   5.217   0.143   3.693  0.0772 -0.3710  0.1980
 1232W        W 5432   6.365   4.187   0.707  0.1535  0.2832 -0.3435
 1233W        W 5433   2.268   8.878  11.932 -0.0759  0.2092 -0.2828
 1234W        W 5434   9.995   8.111  11.711 -0.4381 -0.0761  0.0383
 1235W        W 5435   4.599   5.838   1.512 -0.1442 -0.0916  0.0981
 1236W        W 5436   8.634   6.924  11.970  0.0518 -0.2226  0.2439
 1237W        W 5437   9.062   9.020   0.851  0.2475 -0.1087  0.0686
 1238W        W 5438  10.075   3.199  12.371 -0.2997  0.0093  0.1845
 1239W        W 5439   7.796   0.409   9.323  0.3872  0.1768  0.5206
 1240W        W 5440   6.834   9.015   0.575 -0.1193 -0.0867  0.1437
 1241W        W 5441   0.677   4.441  10.962  0.0551 -0.0846  0.0697
 1242W        W 5442   3.687   9.347  10.854  0.3833 -0.2658  0.3488
 1243W        W 5443   4.976   7.424  12.863  0.0815  0.1510 -0.2176
 1244W        W 5444   0.397   8.700  10.327 -0.1231  0.2032 -0.1106
 1245W        W 5445   7.170   2.754   9.124 -0.2751 -0.3496 -0.1846
 1246W        W 5446   8.656   2.395   9.032  0.0326 -0.4406  0.3891
 1247W        W 5447   3.744   8.839   7.778 -0.0159 -0.3385 -0.2601
 1248W        W 5448   8.666   8.617   2.258 -0.1351  0.0049 -0.2532
 1249W        W 5449   7.574   0.560   2.721 -0.1886 -0.0133 -0.0183
 1250W        W 5450   7.826   0.688  11.163  0.2469 -0.0645  0.0132
 1251W        W 5451   3.931   4.326   0.933  0.3230 -0.3698 -0.4573
 1252W        W 5452   5.315   9.341  11.633 -0.2532 -0.0609  0.0190
 1253W        W 5453   5.877   9.402  12.679 -0.1643 -0.1258  0.2256
 1254W        W 5454   9.372  10.412   3.895  0.2428  0.1461  0.0656
 1255W        W 5455   7.296   1.826  11.932  0.1308 -0.3239 -0.3540
 1256W        W 5456   1.173   6.186  12.599  0.0136 -0.0043 -0.0213
 1257W        W 5457   3.824   2.772  10.409  0.0291 -0.0775  0.1141
 1258W        W 5458  10.363   3.063   9.099 -0.0157 -0.1255  0.2066
 1259W        W 5459   8.747   1.267   4.214 -0.1981 -0.5327  0.1601
 1260W        W 5460   3.130   1.847   8.779 -0.0993 -0.4946 -0.0505
 1261W        W 5461   6.283   2.897   9.590  0.2657  0.3800  0.2883
 1262W        W 5462   0.994   3.910   2.842  0.3352  0.0828  0.0615
 1263W        W 5463   5.471   2.457   7.486  0.1754  0.0657 -0.1902
 1264W        W 5464   1.032   2.205  12.845 -0.0230  0.0299 -0.2366
 1265W        W 5465   5.588   0.050   8.686  0.0678 -0.4907 -0.1524
 1266W        W 5466   7.763   6.945  11.291 -0.0657  0.0144  0.1941
 1267W        W 5467   5.631  10.626  12.892  0.1220 -0.1072  0.1355
 1268W        W 5468   1.383   4.593   1.758  0.0508 -0.1008  0.2882
 1269W        W 5469   3.317   7.192   3.569  0.0227 -0.1065 -0.1943
 1270W        W 5470  10.225  10.641   8.169  0.1615 -0.0044 -0.0478
 1271W        W 5471   4.187   9.833   2.644  0.1994  0.2195 -0.0848
 1272W        W 5472   3.431   5.015   1.266 -0.0716 -0.0055 -0.2329
 1273W        W 5473   8.082   9.846  11.164 -0.0657 -0.1284 -0.0311
 1274W        W 5474   2.590   1.348   3.848 -0.2353  0.3381  0.1042
 1275W        W 5475   8.562   4.800   3.782  0.2256 -0.2739  0.0150
 1276W        W 5476   0.108   2.022  12.266 -0.0511 -0.1288  0.1209
 1277W        W 5477   2.450   7.410   0.747 -0.3841  0.2838 -0.1457
 1278W        W 5478   8.649   0.464   9.529  0.1288  0.0974  0.2116
 1279W        W 5479   4.290   0.880   1.037  0.1082  0.2034  0.0821
 1280W        W 5480   3.695   1.232  10.006  0.2225 -0.2146  0.2839
 1281W        W 5481   5.535   8.838   3.472  0.3250 -0.2710  0.2308
 1282W        W 5482   7.699   4.387   3.428 -0.0015 -0.2377 -0.0252
 1283W        W 5483  10.212   4.344   2.851 -0.1321  0.0640  0.2060
 1284W        W 5484  10.670   7.972  10.452 -0.2272  0.0428 -0.1217
 1285W        W 5485   4.032   0.569  10.831  0.0018 -0.1352  0.0990
 1286W        W 5486   5.470   0.581   1.881  0.0438  0.2069  0.0263
 1287W        W 5487   3.912   9.750  12.545 -0.4955  0.1060 -0.0743
 1288W        W 5488   7.094   7.235  10.720 -0.1243 -0.1756  0.0715
 1289W        W 5489   4.600   3.409   9.757  0.0749  0.1331 -0.1005
 1290W        W 5490   4.977   8.165  12.707  0.2412 -0.1151  0.3835
 1291W        W 5491   4.657   9.250   1.285  0.4806 -0.0060 -0.1447
 1292W        W 5492   5.058   2.972   0.862 -0.0632  0.1290 -0.0144
 1293W        W 5493   0.619   8.682   8.232  0.1884 -0.4331 -0.1675
 1294W        W 5494   1.352   6.904  11.663  0.2570  0.0443 -0.0476
 1295W        W 5495   6.817  10.524  11.267  0.0694 -0.1719  0.0812
 1296W        W 5496   5.484   0.034   9.991  0.2359 -0.0209  0.3861
 1297W        W 5497   1.068   6.422  12.078  0.4655 -0.0597 -0.0847
 1298W        W 5498   1.727   7.621   1.494  0.0026 -0.1532 -0.0091
 1299W        W 5499   1.528   8.957   1.558 -0.0176  0.2833  0.2447
 1300W        W 5500   3.363   7.516  10.350  0.0103  0.1244 -0.2185
 1301W        W 5501  10.566   8.471   3.877 -0.1674  0.0914 -0.0323
 1302W        W 5502  10.473   0.245  10.841 -0.1047 -0.1909  0.3749
 1303W        W 5503   2.090   7.425   1.156 -0.4225 -0.1114  0.4025
 1304W        W 5504   7.679   4.588  11.212  0.5352 -0.1212 -0.1038
 1305W        W 5505   0.987   4.391   1.989 -0.0470 -0.2219  0.0070
 1306W        W 5506   6.460   7.801   3.753  0.1501 -0.2291 -0.3431
 1307W        W 5507   7.767   7.109   4.189  0.2454 -0.1450  0.1703
 1308W        W 5508   1.616   9.528  11.929 -0.1934  0.1407 -0.1567
 1309W        W 5509   5.208   2.338   3.546  0.0157  0.0584  0.2417
 1310W        W 5510  10.468   1.528   1.077  0.3060  0.2100 -0.0945
 1311W        W 5511   2.840   1.584   9.762  0.2176  0.0601 -0.1719
 1312W        W 5512  10.330   9.300   9.207 -0.1918  0.0639  0.1341
 1313W        W 5513   4.557   0.718   2.030  0.1569 -0.0522 -0.1054
 1314W        W 5514  10.155   9.670   9.448 -0.2578 -0.0160  0.3978
 1315W        W 5515   1.212  10.079   9.112  0.0968  0.0493 -0.3692
 1316W        W 5516   1.109   9.479   1.142  0.1724 -0.0769 -0.2177
 1317W        W 5517   4.825   3.339  11.936 -0.0866 -0.0195 -0.2144
 1318W        W 5518   9.570   0.394   0.445  0.0251 -0.0089  0.2530
 1319W        W 5519   9.924   7.790   3.682 -0.2986  0.1921 -0.3079
 1320W        W 5520  10.557   2.963   0.274  0.1381  0.0171  0.1781
 1321W        W 5521   9.629   9.063   8.042  0.3029 -0.0177 -0.0658
 1322W        W 5522   2.827   8.263   9.877  0.1089  0.1511 -0.1322
 1323W        W 5523   9.946   5.507  12.095 -0.0506 -0.0962  0.2711
 1324W        W 5524   0.846   3.398   0.741 -0.0258 -0.1262  0.0608
 1325W        W 5525   7.829   4.192   4.179 -0.2057 -0.0082  0.0314
 1326W        W 5526   7.447   1.633  10.301  0.0808  0.0061 -0.0011
 1327W        W 5527   6.265   6.391  11.307  0.1768  0.3382  0.1360
 1328W        W 5528   2.381   2.223   1.007 -0.0415 -0.2631  0.0050
 1329W        W 5529   9.754   1.381   3.060 -0.0810  0.0802 -0.0401
 1330W        W 5530   6.526   3.359   2.280 -0.1459  0.0099  0.0209
 1331W        W 5531   0.434   5.414   0.856  0.3733  0.0669  0.2376
 1332W        W 5532   5.594   0.320   9.186 -0.2108  0.1663  0.0944
 1333W        W 5533   4.984   1.250   2.810  0.4242  0.5003 -0.1559
 1334W        W 5534   4.284   3.026   3.882 -0.3363 -0.0319 -0.0143
 1335W        W 5535   0.791   5.031   9.063 -0.1347 -0.1125 -0.3027
 1336W        W 5536  10.598   3.468  11.679  0.2070 -0.0901 -0.0649
 1337W        W 5537   2.655   8.066  11.475 -0.2999 -0.0110 -0.0383
 1338W        W 5538   7.598   4.717   2.008  0.1350 -0.0300 -0.0431
 1339W        W 5539   2.912   2.656   8.271  0.1642  0.0956 -0.2473
 1340W        W 5540   0.059   9.508   2.867 -0.0662 -0.0141  0.3299
 1341W        W 5541   4.661   7.971   3.520 -0.2312  0.1738  0.3261
 1342W        W 5542   4.107   1.694   9.785  0.1285  0.3942  0.0596
 1343W        W 5543   8.834   0.864  10.867 -0.2044 -0.1819 -0.1364
 1344W        W 5544   5.488   5.776   3.073 -0.1584 -0.2043  0.0032
 1345W        W 5545   4.088   0.858  12.375 -0.0800  0.3477  0.0008
 1346W        W 5546   2.037   6.116   2.404  0.0030 -0.2883  0.0011
 1347W        W 5547  10.557   0.940  10.307 -0.1286 -0.2938 -0.4969
 1348W        W 5548   7.130   2.494   0.351  0.1979  0.0949  0.0973
 1349W        W 5549   2.388  10.580   3.240 -0.1887 -0.2264 -0.2817
 1350W        W 5550   8.363   9.535   3.459 -0.0237 -0.1814  0.2044
 1351W        W 5551   4.372   7.327   1.287  0.1641  0.2652 -0.0252
 1352W        W 5552  10.688   3.446   9.605 -0.0525 -0.3390 -0.1279
 1353W        W 5553   0.843   0.688  12.627 -0.2713 -0.3028  0.2282
 1354W        W 5554   5.265   8.178   0.628 -0.2106 -0.0629  0.1065
 1355W        W 5555   3.648   4.205   8.829 -0.1861  0.3523  0.0079
 1356W        W 5556   3.542   1.874  10.844  0.0125  0.0330 -0.3053
 1357W        W 5557   4.970   5.656   1.248  0.0051  0.0436  0.1973
 1358W        W 5558   3.945   0.420   2.897 -0.0495 -0.1692  0.5299
 1359W        W 5559   4.149   0.017   2.568  0.0337  0.1526 -0.1203
 1360W        W 5560   1.693   8.010   0.167  0.0267  0.0769 -0.2127
 1361W        W 5561   2.679   0.715   3.653 -0.1080 -0.1797 -0.1271
 1362W        W 5562   1.742   0.825   8.238  0.1832  0.1260 -0.2316
 1363W        W 5563   7.317   2.128   8.734 -0.0937 -0.0809  0.1356
 1364W        W 5564   6.012   7.704   2.083  0.1485 -0.1661  0.0600
 1365W        W 5565   2.040   3.042   3.478  0.1598  0.1920 -0.0867
 1366W        W 5566   4.838   3.052   2.926 -0.0315  0.2827 -0.1956
 1367W        W 5567   4.249   5.479  10.764 -0.1890 -0.0472 -0.3585
 1368W        W 5568   1.838   0.060   8.824  0.1682 -0.2775  0.2381
 1369W        W 5569   7.608   6.416   9.241 -0.1315 -0.0495 -0.3717
 1370W        W 5570   0.601   2.498   3.945 -0.0633  0.0071 -0.0764
 1371W        W 5571   4.288   5.985  10.491 -0.2062 -0.2498 -0.0492
 1372W        W 5572   2.226   1.210   1.583  0.0646  0.0954 -0.0623
 1373W        W 5573   4.975   6.560   2.246  0.1139  0.2469 -0.1465
 1374W        W 5574   9.304   5.485   9.700 -0.0170  0.0950 -0.2795
 1375W        W 5575   4.571   9.504  12.690  0.0599  0.0555 -0.1656
 1376W        W 5576  10.668   1.043  12.141 -0.1955  0.0912  0.1610
 1377W        W 5577   4.814   9.511  11.673  0.0194 -0.1871 -0.0452
 1378W        W 5578   9.603   2.681  10.572 -0.0861 -0.0703  0.1811
 1379W        W 5579   6.823   9.497  12.074  0.1549 -0.0722 -0.1625
 1380W        W 5580   1.819   5.652   2.265 -0.0844 -0.2411  0.0060
 1381W        W 5581   8.374   3.003   2.295 -0.5592 -0.3520  0.1016
 1382W        W 5582   9.532   0.452  10.350  0.1202 -0.1560  0.0697
 1383W        W 5583   3.108  10.440   0.433  0.2462  0.0400  0.1137
 1384W        W 5584   1.118   2.126  11.960  0.1255 -0.2020 -0.1191
 1385W        W 5585   7.531   5.139   1.198  0.1200 -0.1715  0.1726
 1386W        W 5586  10.382  10.639   3.592 -0.0161  0.2516  0.2407
 1387W        W 5587   4.383   5.286  11.656  0.1111  0.2876  0.3597
 1388W        W 5588   8.640   6.152   3.198  0.0205 -0.0569  0.3104
 1389W        W 5589   1.751   9.308   7.849  0.0407 -0.2492 -0.0855
 1390W        W 5590   6.935  10.171   3.543 -0.1863 -0.0006  0.0626
 1391W        W 5591   0.950   7.574   0.817  0.3843 -0.1488  0.0276
 1392W        W 5592   9.212   3.960  11.424  0.1691  0.2932 -0.5119
 1393W        W 5593   8.402   2.733   9.966  0.3084  0.0939 -0.3614
 1394W        W 5594   4.677   3.620   0.694 -0.2977  0.1273 -0.3224
 1395W        W 5595  10.234   1.720   3.969 -0.1976  0.1421  0.1081
 1396W        W 5596   9.621   3.755  11.606  0.1025 -0.2975  0.1683
 1397W        W 5597   1.819   2.206   2.874  0.4509  0.1246 -0.0401
 1398W        W 5598   8.291   5.645  12.844  0.0914  0.1551  0.1399
 1399W        W 5599   2.016   8.384   9.157 -0.0911  0.1094 -0.0193
 1400W        W 5600   4.867   6.534   8.289  0.0213  0.2640  0.5891
 1401W        W 5601   7.921   8.273   1.546  0.3592 -0.1946  0.0694
 1402W        W 5602   7.341   9.214   2.812 -0.0893  0.4098  0.2128
 1403W        W 5603   5.782   3.533   4.804  0.0849  0.1778 -0.1006
 1404W        W 5604   1.808   3.192  12.264  0.2468 -0.0678 -0.1366
 1405W        W 5605   7.586   0.486  12.738 -0.0252  0.2209 -0.0022
 1406W        W 5606   7.337   1.864   1.012  0.0558 -0.3934  0.0810
 1407W        W 5607  10.203   7.229  12.665  0.2164  0.0692 -0.4600
 1408W        W 5608   8.379   6.068   0.865  0.0600  0.3404 -0.0798
 1409W        W 5609   7.404  10.445  11.242 -0.0029 -0.3440 -0.1315
 1410W        W 5610   6.539   7.511  12.431  0.0592  0.4104  0.2063
 1411W        W 5611   6.604   4.086   9.165  0.3492  0.1540  0.2364
 1412W        W 5612   9.070   7.544  10.904 -0.2193 -0.0220 -0.4466
 1413W        W 5613   6.510   6.386   9.747 -0.0187  0.1166 -0.2055
 1414W        W 5614   3.670   7.883   0.906  0.1660  0.0183 -0.1202
 1415W        W 5615   4.136   3.864  10.934 -0.5903 -0.0721  0.1336
 1416W        W 5616   2.581   6.316  12.174 -0.0191  0.0939 -0.0893
 1417W        W 5617  10.568   3.576  12.528  0.0168 -0.0491 -0.1144
 1418W        W 5618   9.426   6.604  10.090  0.2264 -0.0058 -0.3696
 1419W        W 5619   6.925  10.268  10.418  0.4220  0.0269  0.0967
 1420W        W 5620   9.727   5.637   4.038 -0.2341 -0.1522  0.2022
 1421W        W 5621   3.245   7.706   2.687 -0.0342  0.0888  0.1766
 1422W        W 5622   9.044  10.299   2.020  0.1371  0.0547 -0.3564
 1423W        W 5623   8.894   3.150  11.893 -0.1501 -0.3586  0.1279
 1424W        W 5624   8.266   4.485   2.721 -0.3062 -0.2024 -0.1273
 1425W        W 5625   4.117   3.402   1.044  0.2968  0.0904 -0.1293
 1426W        W 5626   8.747   8.088   3.726  0.4083 -0.0871 -0.2148
 1427W        W 5627   4.854   8.109  10.620  0.1745  0.0259  0.1778
 1428W        W 5628   5.836   2.783  11.537  0.0284 -0.1998  0.0262
 1429W        W 5629   3.489   1.470   8.190  0.2156 -0.3555  0.1183
 1430W        W 5630   9.633   2.569   3.504  0.3757  0.0513  0.1119
 1431W        W 5631  10.086   4.921  12.482  0.1770 -0.1814  0.0217
 1432W        W 5632   8.402   5.139   3.388 -0.1088  0.0582  0.0688
 1433W        W 5633   4.085   9.829  10.006  0.1294  0.2914  0.0359
 1434W        W 5634   9.203   2.759   0.740 -0.1551 -0.0617 -0.2273
 1435W        W 5635   3.803   3.430   0.591 -0.0341 -0.2291  0.4270
 1436W        W 5636   3.982   7.839   0.510 -0.1703 -0.0493  0.2883
 1437W        W 5637   0.670   1.018   2.416 -0.0028  0.1961 -0.1659
 1438W        W 5638  10.020   1.061  10.872 -0.1724 -0.2041 -0.4205
 1439W        W 5639   3.903   0.200   8.878  0.0831 -0.0641  0.2771
 1440W        W 5640   9.147   0.090  11.180 -0.1974 -0.0529  0.0020
 1441W        W 5641   2.865   4.201   3.274  0.4170 -0.0764 -0.0741
 1442W        W 5642  10.186   7.023   0.260  0.2080 -0.1392  0.0610
 1443W        W 5643   1.315   1.079  10.576 -0.0670 -0.0190 -0.1221
 1444W        W 5644   5.196   6.476   8.651  0.1196 -0.0142 -0.3797
 1445W        W 5645   3.057  10.667   2.181 -0.0295  0.0673  0.1260
 1446W        W 5646  10.549   2.941   3.460 -0.1402  0.0279 -0.0823
 1447W        W 5647   2.075   2.455   1.531  0.1011 -0.2289 -0.3121
 1448W        W 5648   8.865   0.917   9.669  0.1629  0.5229  0.2549
 1449W        W 5649   6.654   8.855   2.275 -0.2996 -0.2136 -0.2268
 1450W        W 5650   7.124   4.684   4.250 -0.0076 -0.1504  0.2006
 1451W        W 5651  10.386   5.163  12.099 -0.3620 -0.0759  0.1114
 1452W        W 5652   1.271   2.570  10.776  0.0943  0.2461  0.2301
 1453W        W 5653   1.203   7.297   0.498  0.0467  0.0349 -0.1101
 1454W        W 5654   7.032   5.871  11.775  0.3780 -0.1721 -0.0633
 1455W        W 5655   7.895   3.296   2.994  0.0206  0.0527  0.0784
 1456W        W 5656   3.884   6.859   9.330  0.2326  0.4444 -0.1023
 1457W        W 5657   4.770  10.111   8.426 -0.0649 -0.1817  0.2293
 1458W        W 5658  10.551   1.796   9.379  0.6426 -0.1792 -0.3021
 1459W        W 5659   5.176   9.185   0.535 -0.0728 -0.1520  0.1388
 1460W        W 5660   1.144   3.870  10.303  0.3013 -0.0997 -0.1009
 1461W        W 5661   0.510   5.411   4.428  0.0552  0.1749 -0.0111
 1462W        W 5662   4.504   9.752   1.935 -0.1254  0.3410 -0.1900
 1463W        W 5663   4.537   5.787   9.678  0.0844  0.0288 -0.1094
 1464W        W 5664   9.842   9.986  11.792 -0.1115  0.3566  0.3355
 1465W        W 5665   5.802   9.184   8.461 -0.0490 -0.1261 -0.3617
 1466W        W 5666   8.269   9.570   9.709 -0.1105  0.0116  0.2805
 1467W        W 5667   8.838   7.781   1.432 -0.2097 -0.0123  0.3315
 1468W        W 5668   8.920   0.567  11.225 -0.1275  0.0759 -0.1038
 1469W        W 5669   7.536   5.892   9.265  0.0022 -0.1839 -0.0084
 1470W        W 5670   6.849   0.830  11.615 -0.1527 -0.1931  0.2572
 1471W        W 5671   5.221   2.088  11.543  0.0276  0.0746  0.0296
 1472W        W 5672   0.284   2.976   1.328  0.3203 -0.4227 -0.1941
 1473W        W 5673   7.972   5.701   4.268 -0.2324  0.0148 -0.1925
 1474W        W 5674   6.984   2.315  12.813 -0.1181 -0.0629 -0.2217
 1475W        W 5675   6.849   9.276   2.031  0.1008 -0.2198  0.2298
 1476W        W 5676  10.126   0.003   8.690  0.1271  0.1506  0.6234
 1477W        W 5677   0.175   3.070   1.804 -0.1992 -0.2850 -0.0314
 1478W        W 5678   4.960   1.780  10.873 -0.0060  0.1185  0.0769
 1479W        W 5679   3.152  10.056   0.031  0.0141 -0.1087  0.3303
 1480W        W 5680   2.767   1.165   8.667 -0.1490  0.1733 -0.2419
 1481W        W 5681   5.135  10.518   1.911 -0.1474  0.0362  0.1250
 1482W        W 5682   8.764   2.279  10.080 -0.0277  0.0033  0.1420
 1483W        W 5683   7.787  10.246   3.764 -0.0759 -0.0589  0.1231
 1484W        W 5684   7.177   8.850   1.386  0.1096  0.4208 -0.3910
 1485W        W 5685  10.007  10.535  10.183  0.1466 -0.1048 -0.1483
 1486W        W 5686   4.768   0.312   9.600  0.0012  0.5614  0.1717
 1487W        W 5687   0.955   5.389   0.765 -0.0184  0.0122  0.3019
 1488W        W 5688   1.191   4.593   9.794  0.0440  0.2589 -0.2940
 1489W        W 5689   7.905   3.945  11.102 -0.3584  0.0035 -0.0949
 1490W        W 5690   5.776   4.029  11.390  0.1473  0.0605 -0.0081
 1491W        W 5691   1.777   9.185   1.167 -0.1315  0.0280  0.0227
 1492W        W 5692   9.142   4.501   1.096  0.0458 -0.2839  0.0841
 1493W        W 5693   6.248   0.617   2.335  0.2338 -0.2062 -0.0519
 1494W        W 5694   8.102  10.478   8.807  0.0477  0.1707  0.1957
 1495W        W 5695   1.604   7.804   2.145  0.1332  0.3432  0.0137
 1496W        W 5696   4.389   7.922   0.920 -0.1265  0.1241 -0.3788
 1497W        W 5697   4.594   8.676  11.214  0.6279  0.1683 -0.0981
 1498W        W 5698   5.910   7.545   9.068 -0.1932 -0.1945  0.0080
 1499W        W 5699   0.679   7.634   1.294 -0.2520  0.1160  0.0940
 1500W        W 5700   3.723   0.490  12.140  0.4588 -0.1575 -0.1845
 1501W        W 5701   6.426   1.873   9.265  0.0803 -0.0110 -0.3824
 1502W        W 5702   3.531   4.090   1.279  0.1437 -0.2320  0.0953
 1503W        W 5703   5.718   2.219  11.662  0.0304  0.0092  0.1266
 1504W        W 5704  10.475   5.259   2.802 -0.3803 -0.0208 -0.0380
 1505W        W 5705   9.977   0.496  11.001 -0.1113 -0.0849 -0.1327
 1506W        W 5706   7.132   6.947  12.480 -0.2688  0.2186  0.0187
 1507W        W 5707   0.649   3.230  12.151 -0.0339  0.1079  0.1559
 1508W        W 5708   5.318  10.152   2.935  0.1070  0.1885 -0.1678
 1509W        W 5709   1.523   6.391  10.776 -0.1221 -0.0284 -0.1003
 1510W        W 5710  10.607   4.715   9.531 -0.0181 -0.1945  0.2029
 1511W        W 5711   2.981   2.032   0.036  0.0620  0.2456 -0.0348
 1512W        W 5712   8.293  10.089   3.963  0.0603  0.2161  0.4816
 1513W        W 5713   9.019   7.886   8.624 -0.3466 -0.2461  0.0636
 1514W        W 5714   6.576   6.936   3.096 -0.0711 -0.1122  0.3025
 1515W        W 5715   7.104   7.681   9.716  0.2067  0.1231 -0.0567
 1516W        W 5716   7.135  10.663  11.619 -0.0761  0.0212  0.0949
 1517W        W 5717   2.714   4.587   0.438  0.0216 -0.1296  0.0345
 1518W        W 5718   9.518   2.693   9.751 -0.1172 -0.1802  0.0793
 1519W        W 5719   0.830   1.682   9.321  0.0702 -0.1482  0.1307
 1520W        W 5720   1.307   0.884  12.054 -0.2318 -0.3059 -0.1365
 1521W        W 5721   1.715   0.928   3.415 -0.0779  0.0952  0.0353
 1522W        W 5722   9.900   3.393   0.626 -0.0174 -0.3548  0.0018
 1523W        W 5723   3.350   9.653  10.297  0.3997 -0.1132  0.0923
 1524W        W 5724   3.812   8.356  11.597 -0.2535  0.0444 -0.2048
 1525W        W 5725   2.513  10.466   2.330 -0.2276  0.2429 -0.0758
 1526W        W 5726   7.221  10.443  10.792  0.0689 -0.0234 -0.1351
 1527W        W 5727   2.786   6.051   3.771 -0.0804 -0.3333 -0.0106
 1528W        W 5728  10.670   7.572  10.081 -0.0954 -0.2096 -0.3658
 1529W        W 5729   6.402   1.302  10.483 -0.1083 -0.3851  0.0918
 1530W        W 5730   6.390   1.102   4.080 -0.1110 -0.2513  0.1148
 1531W        W 5731   2.341   3.820   9.286  0.0502  0.2218 -0.2145
 1532W        W 5732   5.144   2.988   1.385  0.0291  0.1526 -0.0033
 1533W        W 5733   1.794   8.785   8.483 -0.1069  0.2496  0.0947
 1534W        W 5734  10.417   5.021  11.411 -0.1444 -0.0346  0.1566
 1535W        W 5735   7.587   0.005  10.536 -0.3223  0.0458 -0.0702
 1536W        W 5736   6.550   5.335   8.211  0.0415 -0.1058  0.2473
 1537W        W 5737   3.040   2.610   0.447 -0.1006 -0.2795 -0.0973
 1538W        W 5738   4.628  10.440  10.621 -0.0839  0.1055 -0.0086
 1539W        W 5739   0.237   6.637  11.653 -0.1150  0.0313  0.0931
 1540W        W 5740   5.709   6.769   3.598  0.3203 -0.0261  0.2370
 1541W        W 5741   8.238   4.247   8.797  0.0793 -0.0413 -0.1318
 1542W        W 5742   6.078   4.506  12.854  0.1488  0.3124 -0.4138
 1543W        W 5743   5.065   1.693   4.321  0.1854 -0.0124  0.3599
 1544W        W 5744   3.100   0.921   1.890  0.0453 -0.1842 -0.0659
 1545W        W 5745   3.683   7.395   0.722 -0.0140  0.0073 -0.0168
 1546W        W 5746   7.553   7.424  10.742  0.0381  0.4920  0.1783
 1547W        W 5747   2.128  10.318   0.187 -0.1612  0.3425  0.0171
 1548W        W 5748   5.064   2.737   4.406  0.1495  0.0517 -0.0419
 1549W        W 5749   4.476   8.453   2.739 -0.2389 -0.3848 -0.0196
 1550W        W 5750   4.168   7.256   9.065 -0.3986 -0.2763 -0.1493
 1551W        W 5751   1.139   9.542  10.259 -0.1642  0.0266 -0.1246
 1552W        W 5752   1.965   8.949   0.100  0.0163  0.2356  0.3247
 1553W        W 5753   4.878   1.192  10.318 -0.2025 -0.0974  0.4051
 1554W        W 5754   1.421   5.086   0.608 -0.2285 -0.2065  0.2492
 1555W        W 5755   9.764   2.206   9.780 -0.0039  0.0108 -0.0950
 1556W        W 5756   7.096   3.014   9.932  0.1718 -0.4433  0.1342
 1557W        W 5757   6.335   3.478   9.273 -0.1129  0.1777 -0.0096
 1558W        W 5758   7.305   1.556  11.444 -0.2349 -0.2464 -0.0445
 1559W        W 5759   0.205  10.411   1.454  0.1860 -0.3443 -0.1037
 1560W        W 5760  10.136   2.490  11.126 -0.0827 -0.1439  0.0658
 1561W        W 5761   0.947   3.988   0.721  0.2882  0.0640  0.1175
 1562W        W 5762   8.620   3.428   3.612 -0.0272 -0.0031  0.1663
 1563W        W 5763   7.328   8.965   8.794  0.2925 -0.0697 -0.1221
 1564W        W 5764   7.831   0.053  11.047  0.0875  0.1972 -0.2729
 1565W        W 5765   2.690   1.614   2.755 -0.3801 -0.2236 -0.0886
 1566W        W 5766   0.556   0.292  11.814 -0.0308 -0.1299  0.0261
 1567W        W 5767   4.756   5.192  10.733 -0.1271 -0.0961 -0.2190
 1568W        W 5768  10.462   0.027  10.136 -0.1352 -0.1781  0.2579
 1569W        W 5769   3.577   0.337   9.272 -0.1105 -0.0428 -0.2887
 1570W        W 5770   4.106   4.589   1.969 -0.0225  0.1803  0.2074
 1571W        W 5771   3.228   3.031  10.624 -0.0535  0.2117  0.2336
 1572W        W 5772   0.596   0.739   9.993 -0.2649  0.0093 -0.1845
 1573W        W 5773   9.452   4.145   1.150  0.0681  0.0914 -0.2678
 1574W        W 5774   3.469   4.985   8.704  0.1296 -0.1078  0.0313
 1575W        W 5775   9.976  10.540  11.016  0.2196  0.1346  0.1825
 1576W        W 5776   1.277   3.082   1.793  0.2941  0.2082 -0.2344
 1577W        W 5777   1.416   2.400   9.303 -0.1051 -0.0860 -0.0943
 1578W        W 5778   1.764   8.990  11.729 -0.0979 -0.1601  0.0481
 1579W        W 5779   1.484   7.110  12.211 -0.0910 -0.0813 -0.1216
 1580W        W 5780   8.852   1.421   9.431  0.0172  0.1848  0.3391
 1581W        W 5781   6.312   9.647  10.215  0.0124 -0.0124  0.0363
 1582W        W 5782   3.804   4.450  11.643  0.3658  0.0546  0.1954
 1583W        W 5783   7.913   4.546   3.859 -0.0773 -0.1965 -0.1025
 1584W        W 5784   2.666   3.980   1.300 -0.2497  0.0257 -0.0507
 1585W        W 5785   7.534  10.348   0.035 -0.1967 -0.0667 -0.5235
 1586W        W 5786   6.733   7.011   1.128  0.1214 -0.0989 -0.1067
 1587W        W 5787   3.833   7.707  12.536 -0.1065  0.1097 -0.1365
 1588W        W 5788   1.835   4.628  10.866  0.0046 -0.0785 -0.1832
 1589W        W 5789   6.376   4.098   4.343  0.1335 -0.2064  0.0748
 1590W        W 5790  10.520   5.810  11.136  0.1461  0.0456  0.0380
 1591W        W 5791   2.079   1.319  10.940  0.1738 -0.4629  0.0400
 1592W        W 5792   3.467   8.549  12.286  0.1730 -0.0783  0.1600
 1593W        W 5793   5.739   0.388  10.252  0.0934  0.2372  0.0892
 1594W        W 5794   7.939   6.399  12.669 -0.2207  0.2473 -0.3484
 1595W        W 5795   5.932   5.797   2.790  0.1272  0.0286  0.3257
 1596W        W 5796   5.099   6.945  12.626  0.0622 -0.0159  0.1453
 1597W        W 5797   6.089   6.862  10.614  0.1146 -0.4349 -0.0586
 1598W        W 5798   2.811   1.289  11.819  0.2425  0.1192  0.0920
 1599W        W 5799   1.677   8.168  12.604  0.2992  0.0051 -0.2692
 1600W        W 5800   8.076  10.597  11.650 -0.2402  0.0251 -0.1377
 1601W        W 5801   0.857   7.057  10.346  0.0457  0.0125  0.0763
 1602W        W 5802   8.698   2.941   1.671  0.0761  0.0697  0.1206
 1603W        W 5803   9.286   5.770   8.728  0.0539  0.0426  0.0030
 1604W        W 5804   2.727   2.266   8.678  0.2117  0.2428 -0.1053
 1605W        W 5805   8.219   2.179   9.192  0.0811 -0.2558  0.3400
 1606W        W 5806   1.980   0.941  11.643 -0.0534  0.2699  0.1543
 1607W        W 5807   2.128   0.780   2.497 -0.0134  0.0547 -0.0449
 1608W        W 5808   3.285  10.172   3.524 -0.1435 -0.0761  0.1600
 1609W        W 5809  10.494   5.347   2.197  0.3340  0.1891  0.3957
 1610W        W 5810   5.578   9.493  12.300 -0.1906  0.0677  0.2341
 1611W        W 5811   1.300   3.000   2.601  0.0639  0.1497 -0.1986
 1612W        W 5812   7.283  10.117   3.027  0.2475  0.0718  0.1220
 1613W        W 5813   6.540   6.270  11.975 -0.2148 -0.1335 -0.0604
 1614W        W 5814   8.246   8.042   4.412 -0.1106  0.4460  0.0252
 1615W        W 5815   2.841   0.203   2.546 -0.1119 -0.0967  0.0603
 1616W        W 5816   1.759   4.293   1.577 -0.0921 -0.1124  0.3338
 1617W        W 5817   9.584   5.120  12.329 -0.2457 -0.3156 -0.0625
 1618W        W 5818  10.558   6.329  12.730  0.2391  0.0161 -0.2283
 1619W        W 5819   3.315   7.695   0.573 -0.3779 -0.0210 -0.3616
 1620W        W 5820   5.839   1.240   3.398  0.1863 -0.0782  0.2236
 1621W        W 5821   8.517   9.668   3.911  0.0122  0.1296 -0.2282
 1622W        W 5822   2.772   2.607  10.528 -0.1045 -0.1889 -0.0231
 1623W        W 5823   4.667   1.331  11.753  0.1028 -0.1375 -0.0408
 1624W        W 5824   9.755  10.191   2.925 -0.0164  0.5099 -0.2163
 1625W        W 5825   2.589  10.088   3.936 -0.3373 -0.2226  0.0422
 1626W        W 5826   7.102   2.113   2.653  0.1899 -0.0502 -0.0675
 1627W        W 5827   8.409   7.139   2.534  0.1685  0.0288  0.0409
 1628W        W 5828   0.376   6.178  10.326  0.0006 -0.1670 -0.2842
 1629W        W 5829   9.517   7.056   3.049  0.2750 -0.2786  0.2231
 1630W        W 5830   3.878   3.015   1.327 -0.0894  0.1710 -0.0982
 1631W        W 5831   5.446   2.024   8.929  0.0091 -0.2617  0.2800
 1632W        W 5832   1.972   1.034   2.889 -0.0612  0.0610 -0.1619
 1633W        W 5833   4.124   2.207  12.907  0.0853  0.1926 -0.0275
 1634W        W 5834   3.254   1.587  12.182 -0.2331 -0.0370 -0.2528
 1635W        W 5835   7.771   2.063   3.592  0.0975 -0.0400 -0.0851
 1636W        W 5836   0.296   7.622   0.088 -0.0037 -0.0069  0.2292
 1637W        W 5837   6.479   8.913   9.320 -0.0139  0.2439 -0.2411
 1638W        W 5838   9.427   6.993   9.753  0.0229 -0.0349 -0.0116
 1639W        W 5839   8.931   6.696   8.934 -0.0265  0.1906  0.2983
 1640W        W 5840   2.520   9.015   2.393 -0.3005  0.0235  0.3489
 1641W        W 5841   9.126   4.408  10.560  0.1284 -0.3168  0.3990
 1642W        W 5842   4.359   7.017   3.828 -0.0656  0.1616  0.0301
 1643W        W 5843   3.730  10.016   9.648  0.1193  0.1770 -0.1236
 1644W        W 5844   6.623   5.623  10.289  0.0941 -0.1486  0.0012
 1645W        W 5845   4.860   9.219   3.010  0.2543  0.1581 -0.1372
 1646W        W 5846   8.328   7.918   1.302  0.4111  0.1021 -0.1638
 1647W        W 5847   0.829   8.064  10.342 -0.1544 -0.0909  0.1085
 1648W        W 5848   7.400   9.663   2.456  0.1340 -0.0483 -0.3606
 1649W        W 5849   3.211   9.853   1.151  0.0864  0.3689  0.0870
 1650W        W 5850   0.977   5.368   1.724 -0.0067  0.3362  0.0791
 1651W        W 5851   6.656   3.306   0.327 -0.1366  0.1610 -0.0996
 1652W        W 5852   0.280   5.601   0.403  0.0527 -0.0952  0.1047
 1653W        W 5853   1.000   1.905   8.533  0.1454 -0.1902  0.0902
 1654W        W 5854   0.373   5.849   2.877 -0.3910  0.0970  0.3995
 1655W        W 5855   2.553   6.531   3.850  0.2504  0.0626 -0.0984
 1656W        W 5856   8.896   4.126  10.869  0.0738  0.1594  0.2943
 1657W        W 5857   8.468   2.236   1.558 -0.0725 -0.0762  0.3186
 1658W        W 5858   4.389   0.514   2.559  0.1420  0.0068  0.0387
 1659W        W 5859   3.187   0.144  10.996  0.1587  0.1413  0.0781
 1660W        W 5860   5.290   4.419  12.828 -0.1272 -0.0147 -0.2778
 1661W        W 5861  10.241   6.428   2.642  0.0429 -0.0233  0.1883
 1662W        W 5862   2.729   9.078  12.248  0.1376  0.0078  0.0247
 1663W        W 5863  10.374  10.052  11.747 -0.3304  0.1663  0.0163
 1664W        W 5864   4.969   3.630   0.288 -0.2485  0.2678  0.1655
 1665W        W 5865   2.970   4.122  12.085  0.1099 -0.0596 -0.1637
 1666W        W 5866   4.147   7.456   3.795 -0.3939  0.1521  0.1972
 1667W        W 5867   3.534   3.222   4.348 -0.0500 -0.1804 -0.1412
 1668W        W 5868   2.593   3.413  12.456 -0.0589 -0.1051 -0.0311
 1669W        W 5869   4.847   7.373  11.821 -0.0210 -0.1914 -0.2478
 1670W        W 5870   6.504   6.478  10.297 -0.0030 -0.1412 -0.0630
 1671W        W 5871   4.873   4.188   1.597 -0.0575  0.0952 -0.0278
 1672W        W 5872   2.915   8.868   9.445  0.1879 -0.1074  0.0122
 1673W        W 5873   1.378   7.606  12.704 -0.4996  0.4091  0.1212
 1674W        W 5874   1.566   5.899  12.853  0.0250 -0.1983 -0.1541
 1675W        W 5875   3.100   2.775  11.969 -0.0107  0.0355 -0.1802
 1676W        W 5876   4.491   9.024   3.577  0.5206  0.0046  0.1773
 1677W        W 5877   5.423   4.423   4.526 -0.1975 -0.2638 -0.1651
 1678W        W 5878   2.597   8.103  12.030 -0.0337 -0.0402 -0.5987
 1679W        W 5879   8.516   0.109   4.145 -0.1726 -0.4118  0.0911
 1680W        W 5880   7.382   5.601   8.789 -0.1217 -0.1331  0.1974
 1681W        W 5881   8.673   7.167  10.931 -0.4993 -0.1155  0.1043
 1682W        W 5882   3.054   7.240   0.705  0.0227 -0.1982 -0.0260
 1683W        W 5883   0.752   7.859   2.261  0.1546 -0.0833 -0.0562
 1684W        W 5884   5.400   9.299   0.059  0.0677  0.2446 -0.1529
 1685W        W 5885   0.272   3.290   0.773 -0.2246 -0.0985  0.0301
 1686W        W 5886   1.330   4.691   4.118 -0.1243 -0.1908  0.2811
 1687W        W 5887   7.634   7.573  12.461  0.1746  0.0199  0.0638
 1688W        W 5888   6.153   9.223   0.238 -0.0101  0.2117  0.1567
 1689W        W 5889   1.162   0.806   2.078 -0.2344 -0.2285 -0.2581
 1690W        W 5890   1.423   7.167   1.410 -0.0908  0.3015  0.0804
 1691W        W 5891   6.890   5.751   8.984 -0.3025  0.0764 -0.1694
 1692W        W 5892   9.825   9.166  10.224  0.3354 -0.0624  0.0850
 1693W        W 5893  10.240   2.630   0.111 -0.1135 -0.1195 -0.0667
 1694W        W 5894   4.662   2.420   3.441 -0.3290  0.3081  0.4605
 1695W        W 5895   1.833   0.698   1.995  0.2531  0.0084  0.1940
 1696W        W 5896   9.158  10.306  12.516  0.2740 -0.4663 -0.0119
 1697W        W 5897   7.305   0.274  12.003  0.0232  0.1767 -0.1823
 1698W        W 5898   1.917   7.411   8.427 -0.1917 -0.4624  0.1947
 1699W        W 5899   5.435   5.935  10.927  0.0519  0.0518  0.0157
 1700W        W 5900   4.356   6.667   9.358 -0.1787 -0.0668  0.2602
 1701W        W 5901  10.342   0.496  11.422 -0.2463 -0.0098  0.1764
 1702W        W 5902   5.654   0.543   1.416  0.1485  0.0394  0.1903
 1703W        W 5903   8.800   5.131   0.146  0.0351 -0.1449 -0.0121
 1704W        W 5904   0.899  10.154   2.936 -0.1476 -0.2361  0.2831
 1705W        W 5905   6.664   2.380   0.684  0.2187  0.0104  0.0466
 1706W        W 5906  10.307   0.517   8.080 -0.1513 -0.0916  0.0581
 1707W        W 5907   0.127  10.005   1.784 -0.0653  0.0437 -0.0469
 1708W        W 5908   9.425   6.764   0.710 -0.0329  0.2900  0.0763
 1709W        W 5909   0.836   3.288   2.701 -0.0987  0.0730 -0.3650
 1710W        W 5910   6.991   4.895   2.145 -0.0976  0.1326 -0.3100
 1711W        W 5911   4.993   5.681  10.088 -0.0325  0.0439 -0.1948
 1712W        W 5912   7.698  10.697   3.879 -0.1460 -0.1292 -0.2374
 1713W        W 5913   1.118   0.091   2.026  0.3031  0.1184  0.2944
 1714W        W 5914   9.312   0.117   2.537 -0.1887 -0.0519 -0.0721
 1715W        W 5915   6.420   1.721   2.164  0.2237 -0.0795  0.1475
 1716W        W 5916   1.781   2.593  11.489 -0.2180 -0.3754  0.1343
 1717W        W 5917   4.829   4.099   0.485  0.0843 -0.1356 -0.0556
 1718W        W 5918   8.826   5.371  10.088  0.2832 -0.2450 -0.2681
 1719W        W 5919   6.495   5.968  11.057 -0.1047 -0.0487  0.0724
 1720W        W 5920   4.018   1.273   0.801 -0.1256  0.0147  0.1107
 1721W        W 5921   7.249   2.289   1.426 -0.0021 -0.3382  0.2814
 1722W        W 5922   8.555  10.067   9.768 -0.0453 -0.1419  0.2194
 1723W        W 5923   5.439   4.201  11.690 -0.1105  0.0249 -0.1280
 1724W        W 5924   9.329   6.068   3.576  0.4212  0.2435 -0.0458
 1725W        W 5925  10.471  10.122   3.524  0.3652  0.0613  0.2408
 1726W        W 5926   5.197  10.267   3.646  0.0845  0.1492 -0.0090
 1727W        W 5927   6.822   9.714   8.416 -0.0709 -0.1235  0.1801
 1728W        W 5928   1.945   7.391   8.939 -0.1479  0.2053  0.3691
 1729W        W 5929   7.057   0.838   3.291 -0.0413  0.0206 -0.1616
 1730W        W 5930   6.622   1.366   0.706 -0.1958 -0.3171 -0.2412
 1731W        W 5931   3.946   3.664   9.935 -0.5632 -0.1029  0.1632
 1732W        W 5932   0.933  10.138   8.724  0.0914  0.0885  0.0459
 1733W        W 5933   6.607   3.439  10.794  0.0392 -0.0141 -0.0929
 1734W        W 5934   7.656   6.121   3.180 -0.3003 -0.2472 -0.1187
 1735W        W 5935  10.464   5.568   0.354  0.0160 -0.0631 -0.1408
 1736W        W 5936   6.177  10.652   8.571 -0.1085  0.1519 -0.0501
 1737W        W 5937   9.059   9.878   3.974  0.3350  0.2061  0.0436
 1738W        W 5938   8.887   6.393  10.169  0.1028  0.1574 -0.0226
 1739W        W 5939   3.781   8.538   3.910  0.0315  0.0622 -0.0468
 1740W        W 5940   2.261   5.628  10.089  0.0102  0.0872  0.0680
 1741W        W 5941   2.209   4.978   0.526 -0.3357  0.1392  0.3323
 1742W        W 5942   5.268   0.152   9.553 -0.3746  0.0114 -0.0805
 1743W        W 5943   2.421  10.093   4.522  0.2628  0.0095 -0.2274
 1744W        W 5944   9.276   9.316   9.369 -0.1050 -0.0346 -0.3485
 1745W        W 5945   9.269   1.169   3.385  0.0712  0.2685  0.0647
 1746W        W 5946   0.367   8.394   8.945 -0.1552  0.2970  0.0559
 1747W        W 5947  10.556  10.430   3.149  0.6259 -0.1554 -0.3204
 1748W        W 5948   1.203   4.832   1.392 -0.0456  0.1197 -0.1163
 1749W        W 5949   8.442   6.549  10.213  0.0651  0.1256 -0.0179
 1750W        W 5950   1.836   5.929  10.811  0.2969 -0.0941 -0.2379
 1751W        W 5951   9.207   8.240   8.185 -0.2071  0.2475 -0.1805
 1752W        W 5952   1.401   2.491   0.744 -0.2538 -0.1205 -0.0010
 1753W        W 5953   7.128   8.806   3.122  0.3052 -0.0628  0.0833
 1754W        W 5954  10.159   8.987  12.696 -0.1203 -0.0017 -0.1206
 1755W        W 5955   2.482   2.804   0.053 -0.1656  0.0883  0.2582
 1756W        W 5956   5.220   8.092  11.611 -0.1682 -0.0620  0.0997
 1757W        W 5957  10.615   9.637  12.075 -0.1015 -0.1688 -0.1434
 1758W        W 5958   6.089   4.678  12.293 -0.2326 -0.0648  0.0887
 1759W        W 5959   1.648   9.884   1.823  0.1758 -0.1560 -0.0397
 1760W        W 5960   1.236   1.594   3.217 -0.0110 -0.0167 -0.3281
 1761W        W 5961  10.160   7.789   1.981 -0.1239  0.2132  0.1393
 1762W        W 5962   7.651   7.124   1.496  0.1312 -0.2070 -0.1182
 1763W        W 5963   5.586   1.092   8.947 -0.0156  0.5179  0.0179
 1764W        W 5964   1.410   6.016  10.496 -0.0582  0.0000 -0.0615
 1765W        W 5965   5.425   2.837  11.010 -0.2319 -0.2746 -0.2835
 1766W        W 5966   2.484   6.850   3.407 -0.3301 -0.2810 -0.0906
 1767W        W 5967   3.529   2.624   2.603 -0.0414  0.5393 -0.2112
 1768W        W 5968   4.246   1.568  11.580 -0.0204  0.0083  0.1862
 1769W        W 5969   7.116  10.379  12.046 -0.5430  0.0118 -0.1919
 1770W        W 5970   4.431  10.054   8.962 -0.0255 -0.3826 -0.0474
 1771W        W 5971   8.868   3.653  11.067 -0.1143  0.0478 -0.1398
 1772W        W 5972   7.962   4.327   9.988 -0.0771  0.1638 -0.1497
 1773W        W 5973  10.412   8.101  11.945  0.3481 -0.1125  0.3493
 1774W        W 5974   0.481  10.146   8.999 -0.1792 -0.0449 -0.1971
 1775W        W 5975   3.510   6.394   0.604 -0.0409  0.1943 -0.3300
 1776W        W 5976   1.017   0.114   3.454 -0.1255  0.0211  0.2467
 1777W        W 5977   7.610   5.494   2.455 -0.1691  0.1015 -0.0092
 1778W        W 5978   1.252   9.301   7.805  0.0975 -0.3458  0.0112
 1779W        W 5979   6.374   5.839   3.090  0.2476  0.3089 -0.4510
 1780W        W 5980   4.945   0.949   9.926  0.0751  0.0470  0.2711
 1781W        W 5981   9.105   6.293   3.117  0.2884  0.1403  0.1536
 1782W        W 5982   6.657   8.162   0.325  0.0825  0.0375 -0.2278
 1783W        W 5983   3.383   2.510   0.147 -0.0939 -0.1967  0.2276
 1784W        W 5984   5.837   0.848   0.438 -0.3056 -0.2001  0.2123
 1785W        W 5985   3.391  10.571   0.869 -0.2438 -0.2041  0.1675
 1786W        W 5986   1.836   9.113   3.607  0.1914  0.0125  0.0979
 1787W        W 5987   4.138   8.692   4.216 -0.0006  0.0720 -0.0470
 1788W        W 5988   7.810   3.643  11.558 -0.1581 -0.0471 -0.0711
 1789W        W 5989   4.568   8.927  12.587  0.4396  0.1043  0.1513
 1790W        W 5990   2.444   5.194  11.157 -0.0494 -0.1735 -0.2266
 1791W        W 5991   0.413   7.377   0.963  0.2637  0.0760 -0.1324
 1792W        W 5992   9.802   6.873  11.035 -0.0278  0.1579  0.4018
 1793W        W 5993   4.931   4.440   2.152  0.1986 -0.0899 -0.1280
 1794W        W 5994   8.538  10.071  10.462 -0.0602  0.2154 -0.2320
 1795W        W 5995   3.426   9.653   0.677 -0.2653 -0.0853 -0.1282
 1796W        W 5996   4.508   8.389   2.214  0.2113 -0.0502  0.2297
 1797W        W 5997   6.207   0.232   9.377  0.1329  0.2419  0.1062
 1798W        W 5998   6.898  10.592   4.000 -0.0211 -0.0558  0.0404
 1799W        W 5999   5.127   9.628   3.012 -0.1112 -0.1211  0.0118
 1800W        W 6000   8.182   5.989   0.376  0.1962  0.3889  0.0669
 1801W        W 6001   7.002  10.210   0.124 -0.1872  0.1050 -0.0015
 1802W        W 6002   7.443   8.566   0.699  0.3786 -0.1188  0.0375
 1803W        W 6003   3.987   7.357  12.110 -0.0669  0.1509 -0.1646
 1804W        W 6004   8.686   7.512  12.179  0.2999  0.0207 -0.1245
 1805W        W 6005   1.407   1.178  10.098 -0.2405 -0.3250  0.2015
 1806W        W 6006   5.957   2.985   0.341 -0.0184 -0.0223 -0.0340
 1807W        W 6007   5.161   8.455  10.328  0.2770  0.0945 -0.0320
 1808W        W 6008   0.287   9.141   0.544 -0.3742  0.0654 -0.0531
 1809W        W 6009   6.559   4.726   2.380  0.0816  0.5048  0.1692
 1810W        W 6010   1.893   8.195  11.647 -0.0153 -0.0627  0.3517
 1811W        W 6011   6.934   7.989  11.263 -0.0367 -0.1098  0.1566
 1812W        W 6012   8.176   9.520   4.456  0.1273 -0.3241  0.4130
 1813W        W 6013   3.329   9.458   8.061 -0.0465  0.2195 -0.1309
 1814W        W 6014   6.571   5.038   3.102  0.0489  0.0783 -0.0186
 1815W        W 6015   5.737   3.959   3.427  0.2097  0.2140  0.0803
 1816W        W 6016   5.356   9.832  11.791  0.3208 -0.1188 -0.2590
 1817W        W 6017   6.255   5.366   2.452 -0.1071 -0.1463  0.0525
 1818W        W 6018   7.923   9.136   8.609  0.0518 -0.0086 -0.1348
 1819W        W 6019   5.956   8.848   8.764  0.0639  0.1432  0.2002
 1820W        W 6020   3.809   0.381   2.353  0.0241  0.1477  0.0320
 1821W        W 6021   4.155  10.251   9.448  0.4092  0.2737 -0.0659
 1822W        W 6022   0.813   7.179   1.451 -0.1014 -0.0620 -0.1960
 1823W        W 6023   9.098   3.156   1.892 -0.1826  0.1855 -0.2141
 1824W        W 6024   7.757   6.636   2.172  0.2328 -0.3505  0.0935
 1825W        W 6025   2.020   5.315   3.850  0.1142  0.1661 -0.0822
 1826W        W 6026   5.382   7.670   7.692 -0.0223  0.2105  0.0802
 1827W        W 6027   9.001   5.777   3.240  0.3102  0.3202  0.0269
 1828W        W 6028   0.573   3.460   1.676 -0.1128  0.1042 -0.2474
 1829W        W 6029   7.462   1.813   2.294  0.4011 -0.5671  0.2547
 1830W        W 6030   8.904   1.480   3.416  0.2825 -0.0061  0.1266
 1831W        W 6031   8.755   5.628   1.867  0.0432  0.1861  0.0508
 1832W        W 6032   7.820   6.333   1.634  0.0803 -0.1641 -0.0119
 1833W        W 6033   8.700   4.134   1.989 -0.4315 -0.0719  0.2738
 1834W        W 6034   3.032   0.505  12.596 -0.0675 -0.3162 -0.0669
 1835W        W 6035   3.159   8.104   8.302  0.2791  0.1789  0.0670
 1836W        W 6036   1.013   8.961  10.344 -0.0099 -0.1660  0.1005
 1837W        W 6037   3.759   5.814   1.870  0.1555 -0.0125  0.2284
 1838W        W 6038   7.061   0.046  10.375  0.3983  0.1303  0.0057
 1839W        W 6039   4.535   9.745   3.536 -0.0696  0.2277 -0.0243
 1840W        W 6040   0.793   6.058  11.843  0.0662  0.5019 -0.2159
 1841W        W 6041   7.473   9.104   1.769 -0.0386 -0.1289 -0.0402
 1842W        W 6042   9.599   8.087   3.491 -0.0169  0.1400  0.0266
 1843W        W 6043   5.631   5.092  12.864  0.2511 -0.2695  0.2365
 1844W        W 6044   4.442   4.206   1.402 -0.1766  0.1593 -0.0492
 1845W        W 6045   7.916   2.166   2.286 -0.0460 -0.0995  0.1707
 1846W        W 6046   2.424   1.961   9.996  0.0773  0.2669 -0.0844
 1847W        W 6047   5.319   6.060   1.101 -0.0795  0.0541  0.3060
 1848W        W 6048   2.283   4.693   2.608 -0.0216  0.1536 -0.5016
 1849W        W 6049   8.525   1.255  10.746 -0.0282 -0.0239  0.2992
 1850W        W 6050   1.483   0.155  11.520 -0.1689  0.0833  0.1293
 1851W        W 6051   3.200   8.984   3.403 -0.0937 -0.1316  0.1645
 1852W        W 6052   8.083   8.827   3.838 -0.4016  0.0175 -0.0507
 1853W        W 6053   4.764   2.477   2.098 -0.1232 -0.1841  0.0375
 1854W        W 6054   2.452   8.003  10.112 -0.2166 -0.0987 -0.0492
 1855W        W 6055   5.636   1.967  12.048  0.0382 -0.0672 -0.0077
 1856W        W 6056   2.661  10.070   9.732  0.1089  0.0076 -0.2934
 1857W        W 6057   5.364   8.650  12.847 -0.1290 -0.3021 -0.3563
 1858W        W 6058   2.400   0.902   4.056  0.1835  0.0988  0.0477
 1859W        W 6059   1.701   8.639  10.215 -0.0273  0.0883 -0.0347
 1860W        W 6060   6.278   1.365   3.138  0.1272  0.0143 -0.0446
 1861W        W 6061   2.394   4.907   0.079  0.1204  0.2858  0.1536
 1862W        W 6062   8.520   3.877   3.514 -0.1005 -0.2731  0.1763
 1863W        W 6063   0.964   0.884   3.861  0.0765 -0.2518 -0.0658
 1864W        W 6064   4.426   1.336   2.660  0.3273  0.0239  0.2611
 1865W        W 6065   5.994   7.048   9.221  0.0021 -0.0888  0.3398
 1866W        W 6066  10.581   2.158   9.011 -0.1393  0.1248  0.3091
 1867W        W 6067   6.237   7.925   3.096  0.2442  0.0842 -0.0942
 1868W        W 6068   4.307   5.600   1.809 -0.1076 -0.3489  0.1260
 1869W        W 6069   2.554   2.734  12.504 -0.1378 -0.1307 -0.0081
 1870W        W 6070   8.775   8.136   9.402  0.2493  0.2569  0.0958
 1871W        W 6071   4.585   1.088   3.049 -0.1977 -0.0249  0.0101
 1872W        W 6072   9.211   8.770   8.100  0.1923 -0.1100 -0.4859
 1873W        W 6073   1.602   2.797  11.069  0.0052 -0.1312 -0.2320
 1874W        W 6074   6.111   3.007   2.462  0.1240  0.2577  0.0748
 1875W        W 6075   9.092   4.722  10.972  0.0812  0.1459  0.0551
 1876W        W 6076   2.558   1.458  10.996  0.0518  0.1601 -0.3067
 1877W        W 6077   7.045  10.612   9.562 -0.1132 -0.1017  0.3361
 1878W        W 6078   6.227   6.969  12.680  0.0329 -0.2394  0.2580
 1879W        W 6079   1.326   2.431  10.276 -0.2116  0.1530 -0.0555
 1880W        W 6080   7.136   7.476   0.723  0.0311  0.3277  0.0039
 1881W        W 6081  10.550   1.515  10.169 -0.0640 -0.2135  0.0932
 1882W        W 6082   3.140   0.079  10.461 -0.1354 -0.0613  0.1875
 1883W        W 6083   5.694   8.469   9.576 -0.2236  0.1460  0.0620
 1884W        W 6084   6.620   6.983   2.592  0.2366  0.1628 -0.3005
 1885W        W 6085   8.906   9.767   2.122  0.0982  0.3039 -0.1684
 1886W        W 6086   7.498   5.179  10.666  0.0508  0.1900  0.0027
 1887W        W 6087   7.091   0.402   9.472 -0.1570  0.0727 -0.2507
 1888W        W 6088   4.172   5.420   9.634  0.0868  0.0289  0.0521
 1889W        W 6089   1.569   1.342  12.844 -0.0163 -0.0134 -0.0831
 1890W        W 6090   9.778   1.120  12.862 -0.0825  0.1823  0.2542
 1891W        W 6091   7.499   0.586   9.714  0.2397  0.1885  0.3346
 1892W        W 6092   1.934   3.628   3.407  0.1101  0.1883 -0.2130
 1893W        W 6093   4.584   3.760  11.745 -0.2195 -0.2512  0.1263
 1894W        W 6094   7.024   7.730   2.011 -0.2010 -0.0638 -0.0326
 1895W        W 6095   7.855   7.847   0.500 -0.0576 -0.1003  0.3319
 1896W        W 6096   8.012   2.600   3.202  0.0954 -0.0214  0.1729
 1897W        W 6097  10.598   7.259   0.135 -0.0426  0.2630 -0.0671
 1898W        W 6098   8.542   9.382   2.273 -0.5210  0.1040 -0.1717
 1899W        W 6099   2.749   8.811   3.642  0.2609 -0.0443 -0.2562
 1900W        W 6100   8.001   0.742   8.367 -0.2653  0.2512  0.0144
 1901W        W 6101   3.328   6.455   2.272  0.6834  0.0202 -0.1441
 1902W        W 6102   1.085  10.014   0.309  0.3086 -0.0872 -0.1594
 1903W        W 6103   9.411   0.907   3.003 -0.2317 -0.1096  0.1996
 1904W        W 6104   2.963   0.622  11.122 -0.1798  0.1204  0.1829
 1905W        W 6105   4.901   2.491   9.056 -0.1105 -0.1822 -0.1319
 1906W        W 6106   1.466   3.766   1.465  0.1567 -0.1004 -0.1914
 1907W        W 6107   6.900   3.229   9.024 -0.2067  0.0696  0.0126
 1908W        W 6108   1.019   7.535   0.118 -0.0779 -0.0951  0.0361
 1909W        W 6109   6.392   3.717   4.042  0.2077  0.4494  0.2279
 1910W        W 6110   7.972   6.731  10.466 -0.0849 -0.2991  0.2566
 1911W        W 6111   7.050   9.380   1.549 -0.2804  0.2634 -0.0961
 1912W        W 6112   3.857   5.269   1.238 -0.0627  0.1700 -0.1563
 1913W        W 6113   7.471  10.275  11.660 -0.1912 -0.0725  0.1144
 1914W        W 6114   3.288   8.877  10.993 -0.3011  0.2314 -0.0587
 1915W        W 6115   2.641   7.787  10.530  0.1752  0.1286 -0.2455
 1916W        W 6116   0.028   0.664  12.473 -0.0258  0.1475 -0.1947
 1917W        W 6117   4.944  10.619  11.395 -0.0859 -0.2517  0.1053
 1918W        W 6118   0.238   3.667  10.359 -0.1395 -0.0252 -0.1169
 1919W        W 6119  10.041   0.712   2.251  0.0215  0.2212  0.0845
 1920W        W 6120   4.283   6.334   8.971  0.0072  0.0477 -0.0627
 1921W        W 6121  10.319   8.339  10.046  0.1566 -0.3458  0.0583
 1922W        W 6122  10.102   3.679  11.503 -0.0379  0.0845  0.2294
 1923W        W 6123  10.557   5.047   3.804 -0.0613  0.2443  0.1114
 1924W        W 6124   2.759   9.427   8.242  0.2385  0.0330 -0.1172
 1925W        W 6125   0.256   2.511   2.588  0.1163  0.1998 -0.5402
 1926W        W 6126   9.063   7.325   4.370  0.0365  0.2291  0.2223
 1927W        W 6127   2.173   2.573   2.740  0.2040  0.2301  0.1617
 1928W        W 6128   6.079   0.648   9.783  0.2140 -0.3959 -0.0168
 1929W        W 6129   7.824   8.281   2.044  0.0515 -0.0134 -0.5802
 1930W        W 6130   6.149   4.456   9.923  0.0595  0.0919 -0.1228
 1931W        W 6131   2.903  10.107  11.635  0.0152  0.1458 -0.3180
 1932W        W 6132   6.504  10.057   7.857  0.3753 -0.0989  0.0604
 1933W        W 6133   7.689   8.442  11.577  0.1621 -0.1179 -0.4016
 1934W        W 6134   6.436   5.796   3.718 -0.1403 -0.1682 -0.1701
 1935W        W 6135   0.003   0.167   1.583 -0.0362  0.0784 -0.0024
 1936W        W 6136   9.979   2.895  10.883  0.1981 -0.4352 -0.0369
 1937W        W 6137   5.681   6.900   1.878 -0.1916  0.1724  0.1748
 1938W        W 6138   9.143   3.514   8.632  0.0872  0.1202  0.2577
 1939W        W 6139   6.268   0.569  10.325 -0.2993  0.0995  0.1768
 1940W        W 6140   5.644  10.461   3.575  0.0808 -0.0200  0.0495
 1941W        W 6141   3.272   7.010  11.204  0.2138 -0.1605 -0.0122
 1942W        W 6142   5.582   1.667   8.066 -0.1989  0.0102 -0.0873
 1943W        W 6143   6.301   1.419   2.605  0.2396 -0.0186 -0.1125
 1944W        W 6144   1.171   1.621   1.279 -0.1193 -0.2570  0.2753
 1945W        W 6145   5.857   5.178   1.436  0.1739  0.0530  0.3651
 1946W        W 6146   7.905   0.500   2.273 -0.0124 -0.0194  0.1916
 1947W        W 6147   6.239   7.788   1.082  0.1212  0.0891 -0.0115
 1948W        W 6148   1.947   3.005   2.864  0.1807 -0.1166  0.3272
 1949W        W 6149   8.306   2.553   8.315 -0.0146  0.0800 -0.2287
 1950W        W 6150   4.371   8.110   8.762  0.2055  0.0673  0.1272
 1951W        W 6151   6.927   8.937  10.031  0.2166  0.0292 -0.0579
 1952W        W 6152   3.869   9.810  11.617  0.4096 -0.0757 -0.2726
 1953W        W 6153   8.974   0.387  12.590 -0.0029  0.2200 -0.0522
 1954W        W 6154   6.947   3.254   2.491 -0.3667 -0.1397 -0.0880
 1955W        W 6155   6.004   8.813  10.731 -0.1225 -0.1840  0.1694
 1956W        W 6156   7.155   6.897  11.960  0.2595  0.0572 -0.3503
 1957W        W 6157   9.170  10.688  10.649  0.0631 -0.0478 -0.0509
 1958W        W 6158  10.433   1.944   0.625  0.0389 -0.2864  0.0193
 1959W        W 6159   7.857   1.723  11.167 -0.0116  0.2813  0.2163
 1960W        W 6160   3.363   4.657   2.581 -0.0201  0.4999 -0.1295
 1961W        W 6161   6.065   1.194  12.443  0.3520  0.0519 -0.0416
 1962W        W 6162   8.743   2.738  10.389 -0.0168 -0.2518  0.0516
 1963W        W 6163   1.612   2.344   1.300  0.2137 -0.3000 -0.1216
 1964W        W 6164   8.091   6.866   8.486  0.4949  0.1088  0.2014
 1965W        W 6165   8.698   0.883   0.684  0.0738  0.3341 -0.0997
 1966W        W 6166   0.675   1.494   1.035 -0.4365 -0.2961  0.0787
 1967W        W 6167   9.987   9.737   3.662  0.2314  0.1620 -0.0377
 1968W        W 6168   3.937   9.073   0.041 -0.1800 -0.2908  0.2007
 1969W        W 6169   1.506   8.289   8.958 -0.0497  0.0673 -0.0367
 1970W        W 6170   1.764   1.831   9.358 -0.1365  0.0026 -0.0038
 1971W        W 6171   8.069   2.090   3.172  0.0633 -0.1626  0.0372
 1972W        W 6172   9.267   9.019   3.391 -0.1616  0.0028 -0.0160
 1973W        W 6173   7.170   4.520   0.548 -0.2538 -0.0199  0.1709
 1974W        W 6174   2.746   2.776  11.594  0.0414 -0.1206 -0.0142
 1975W        W 6175   9.133   8.379  10.422 -0.0199 -0.1107  0.1468
 1976W        W 6176   1.210   3.084   1.285  0.0248  0.1830  0.0730
 1977W        W 6177   2.380   8.587   3.324  0.0706 -0.0414 -0.1339
 1978W        W 6178   1.311   8.401   1.608 -0.1157  0.1902  0.1862
 1979W        W 6179   7.209   5.236   9.095  0.0438  0.2848 -0.1820
 1980W        W 6180   1.637   1.939   3.322  0.0648 -0.1360 -0.1847
 1981W        W 6181   4.196   9.496   2.243  0.1846 -0.2139 -0.0979
 1982W        W 6182   2.023   6.365  11.030  0.0594  0.3307  0.2099
 1983W        W 6183   9.816   5.024   4.196 -0.1669  0.2057  0.0680
 1984W        W 6184   1.060   0.502   3.030 -0.1935 -0.0637  0.2766
 1985W        W 6185   9.424   5.056  10.761 -0.0598 -0.1390  0.2482
 1986W        W 6186   3.974   2.646  10.907 -0.0995 -0.1737 -0.1556
 1987W        W 6187   3.399   1.861   1.425 -0.0238  0.0012  0.3780
 1988W        W 6188   8.384   5.823  11.334  0.1314  0.1425  0.3161
 1989W        W 6189   5.722   9.638   1.257  0.1654 -0.0453 -0.0523
 1990W        W 6190   7.887   9.817   1.120 -0.3032  0.0902 -0.1439
 1991W        W 6191   4.628   1.814   1.175  0.2145  0.0716 -0.2416
 1992W        W 6192   1.014   1.131   9.816  0.1551  0.0445  0.5875
 1993W        W 6193   8.761   8.768  10.640 -0.0877  0.3444  0.1146
 1994W        W 6194   1.696   3.093   0.547  0.0963 -0.0576 -0.0414
 1995W        W 6195   2.431   1.242   1.073 -0.1396 -0.1767  0.2226
 1996W        W 6196   3.717   3.119  10.805 -0.0718  0.2882  0.0815
 1997W        W 6197   9.721  10.124  11.169 -0.2438  0.1309  0.1189
 1998W        W 6198   2.991   2.982   0.076  0.2358 -0.2850 -0.0157
 1999W        W 6199  10.418   2.736  12.355  0.0662  0.0349  0.0885
 2000W        W 6200   7.629   5.575  10.388  0.2202  0.2134 -0.1509
 2001W        W 6201  10.414   3.202   2.627 -0.2372  0.1262  0.0543
 2002W        W 6202   3.945   0.968  10.499 -0.1521 -0.3557  0.0874
 2003W        W 6203   1.491   7.140   9.646 -0.0772 -0.1262  0.2442
 2004W        W 6204   8.525   7.457   1.167 -0.3483  0.1064 -0.1561
 2005W        W 6205   4.672   1.015   1.630 -0.0731  0.0295 -0.1027
 2006W        W 6206   0.729   9.234   9.363 -0.0390 -0.2274 -0.0384
 2007W        W 6207   3.467   5.805   9.188 -0.0117 -0.2168 -0.0825
 2008W        W 6208   8.912  10.296  10.869 -0.2165 -0.3521  0.0728
 2009W        W 6209   4.349   9.572   7.706 -0.1648 -0.2802 -0.0241
 2010W        W 6210   2.098   0.551   4.252  0.0740 -0.0095  0.1359
 2011W        W 6211   9.865   8.136   7.993 -0.1719  0.1546  0.1473
 2012W        W 6212   2.153   5.457  11.479 -0.1563 -0.3048 -0.2469
 2013W        W 6213   4.524   0.766   9.658 -0.1328  0.3373 -0.0078
 2014W        W 6214   6.770   5.999   2.898 -0.1564 -0.0065 -0.0301
 2015W        W 6215   0.540   9.319   3.730 -0.1719 -0.4643 -0.0278
 2016W        W 6216   4.394   1.019  12.878 -0.2237 -0.0138 -0.0579
 2017W        W 6217   0.483   4.149   0.520  0.0051  0.1123  0.0822
 2018W        W 6218   0.428   1.262  12.009 -0.0086 -0.0439  0.2101
 2019W        W 6219   4.134  10.660  10.690  0.0878  0.3365 -0.1806
 2020W        W 6220   3.137   5.147  12.294  0.0971  0.1923  0.2018
 2021W        W 6221   6.221   4.410  10.717 -0.2607 -0.3941 -0.1306
 2022W        W 6222   9.299   0.242   1.562  0.0389  0.0378  0.0084
 2023W        W 6223   4.831   8.190   8.528 -0.1830  0.1835 -0.0921
 2024W        W 6224  10.085   2.336   0.686  0.1450  0.1723 -0.0300
 2025W        W 6225   0.238   7.013   0.571 -0.2493  0.0368 -0.0833
 2026W        W 6226   8.416   3.428   9.320 -0.2347  0.0667  0.0575
 2027W        W 6227   4.885   8.341   0.329 -0.2820  0.0300  0.1676
 2028W        W 6228   9.963   3.156   2.383 -0.2020  0.0806  0.0939
 2029W        W 6229   8.261   5.891   1.715  0.0257  0.0472 -0.0865
 2030W        W 6230  10.473   7.770  11.526 -0.0205 -0.0580  0.0788
 2031W        W 6231   5.996   8.508  10.351  0.3044  0.2876 -0.2872
 2032W        W 6232   7.553   0.722   3.321 -0.1195 -0.2661 -0.2020
 2033W        W 6233   6.299   9.938   8.438  0.1631 -0.1162 -0.1427
 2034W        W 6234   9.003   7.123   2.509  0.1234 -0.0036 -0.2841
 2035W        W 6235   6.936  10.105   8.086 -0.1336 -0.3144 -0.3049
 2036W        W 6236   1.107   1.586   9.985 -0.3670 -0.0035  0.2489
 2037W        W 6237   4.553   4.570   2.458  0.0484  0.1499  0.2379
 2038W        W 6238   3.908   7.913  11.947 -0.0654  0.0120  0.0123
 2039W        W 6239   8.429   4.836   9.202 -0.1986 -0.0636  0.0589
 2040W        W 6240   6.354   4.202  11.213 -0.0610  0.0959 -0.1576
 2041W        W 6241   4.190   1.660   7.466 -0.0700 -0.2344  0.4128
 2042W        W 6242  10.446   9.163   2.626  0.0489 -0.0770 -0.1504
 2043W        W 6243   8.680  10.358   8.127 -0.1594  0.0264 -0.0079
 2044W        W 6244   1.847   5.345   0.595 -0.0613  0.3276  0.4216
 2045W        W 6245   6.818   4.159   2.491  0.2407  0.1337  0.1344
 2046W        W 6246   1.055   9.154   9.810  0.0237 -0.1546 -0.1064
 2047W        W 6247   1.738   4.876   2.471 -0.0068  0.3097  0.1074
 2048W        W 6248   7.269   3.000   3.663  0.0979 -0.0738  0.1399
 2049W        W 6249   0.640   8.712   0.581 -0.2639  0.2312  0.1120
 2050W        W 6250   6.593   3.855   2.146  0.1489  0.0420 -0.0620
 2051W        W 6251   9.970   3.100   4.057 -0.3200 -0.4198 -0.0815
 2052W        W 6252   3.450   8.265   1.223 -0.0121  0.0205 -0.2736
 2053W        W 6253  10.127   6.447   3.160  0.1764 -0.2440  0.1397
 2054W        W 6254   5.221   6.081   2.089 -0.1811 -0.1454  0.0305
 2055W        W 6255  10.075   3.161   0.183  0.0587  0.0938  0.4104
 2056W        W 6256   9.723   5.788   4.627 -0.1415 -0.1606  0.0394
 2057W        W 6257   9.226   8.149  11.470 -0.1939  0.0144 -0.0764
 2058W        W 6258  10.037   2.450  12.517  0.2214  0.4447 -0.3907
 2059W        W 6259   3.528   6.870  11.744 -0.1358  0.1365  0.0024
 2060W        W 6260   4.805   4.293   3.719 -0.2013 -0.2066  0.0009
 2061W        W 6261   0.288   3.909  11.769 -0.2655 -0.0321  0.2132
 2062W        W 6262   8.221   4.185  11.480 -0.0248 -0.1393  0.2673
 2063W        W 6263   4.667   4.912   8.021  0.0450  0.0411 -0.1433
 2064W        W 6264   7.572   0.471   8.334  0.2442  0.0243  0.2680
 2065W        W 6265   4.487   0.406  10.572  0.0545 -0.1515  0.1888
 2066W        W 6266   4.406  10.322   2.917  0.1566  0.0077  0.0223
 2067W        W 6267   7.430   5.709  12.770  0.4169 -0.4073  0.1342
 2068W        W 6268   7.257   4.464   2.330 -0.0784 -0.2559  0.3764
 2069W        W 6269   7.071   7.815  10.812  0.0557 -0.0200  0.3855
 2070W        W 6270   4.731   9.954  11.918 -0.1900  0.1431 -0.1354
 2071W        W 6271   1.064   4.312  11.253 -0.2966  0.2058  0.0658
 2072W        W 6272   1.116   4.240   1.525  0.3584  0.0860 -0.2515
 2073W        W 6273   9.829   2.821  11.420  0.4006  0.0279  0.0548
 2074W        W 6274   2.024   2.719  12.374 -0.3527  0.0437 -0.3305
 2075W        W 6275   6.922   5.845   1.195 -0.2428 -0.2079 -0.0145
 2076W        W 6276   0.694   4.965   3.399  0.2903 -0.1340  0.0078
 2077W        W 6277   3.587  10.421   9.121 -0.2121 -0.2807  0.1866
 2078W        W 6278   4.406   3.297  12.077 -0.1209  0.2416  0.1192
 2079W        W 6279   9.667   3.729   4.511  0.2685 -0.0530 -0.2323
 2080W        W 6280   4.698   1.829   7.538 -0.0608 -0.2243  0.2229
 2081W        W 6281   5.284  10.241  11.228  0.0185 -0.3162  0.2227
 2082W        W 6282   7.840   0.044   2.578  0.1788 -0.0672  0.0724
 2083W        W 6283   0.032   2.726  11.908  0.1959 -0.1428  0.0772
 2084W        W 6284   3.486   4.088   9.858  0.1874  0.0866  0.0458
 2085W        W 6285   5.680   6.922   4.136 -0.1551  0.0592  0.0936
 2086W        W 6286   1.594   9.810   9.409  0.0719  0.2294  0.0975
 2087W        W 6287   9.224   0.827  10.142 -0.0668  0.2861  0.0611
 2088W        W 6288   0.244   2.282   2.026 -0.1087  0.2327 -0.1244
 2089W        W 6289   9.953   7.442   4.012 -0.1364 -0.1940 -0.0147
 2090W        W 6290   8.016   6.075  11.037  0.0526  0.0619 -0.2781
 2091W        W 6291   6.896   5.719  11.300  0.5895  0.2077  0.1167
 2092W        W 6292   9.207   1.551   8.693  0.0080 -0.0935  0.2227
 2093W        W 6293   3.125   5.079  11.621  0.1676  0.0968  0.0711
 2094W        W 6294   3.459   8.895   1.337 -0.0940 -0.3829  0.5561
 2095W        W 6295   9.942   9.111   8.837 -0.2612 -0.0819 -0.1219
 2096W        W 6296   1.053   7.329   3.633 -0.1754  0.1521 -0.0412
 2097W        W 6297   6.239   5.837  11.981 -0.0795 -0.1083 -0.0016
 2098W        W 6298   6.716   5.581   2.361  0.0810 -0.0067 -0.0328
 2099W        W 6299   7.105   3.841   0.084 -0.0280 -0.1090  0.3080
 2100W        W 6300   5.958   6.446  10.323 -0.2892 -0.2599 -0.2419
 2101W        W 6301  10.485   5.080   1.123 -0.0896 -0.1715  0.2669
 2102W        W 6302   0.909   9.014   1.767 -0.1206  0.1330  0.2062
 2103W        W 6303   1.590   8.162  12.052  0.1647  0.2705 -0.1147
 2104W        W 6304   9.029   6.205   1.479 -0.0533  0.0128 -0.1109
 2105W        W 6305   2.382   1.124  10.505  0.4391 -0.0161 -0.0283
 2106W        W 6306   9.698  10.542   0.674  0.0326 -0.2290  0.1311
 2107W        W 6307   0.446   6.155  11.530 -0.0720  0.0801  0.0765
 2108W        W 6308   9.500   3.192  12.467  0.2192 -0.1453  0.1081
 2109W        W 6309   4.860   1.684  10.318 -0.2056 -0.1852  0.0097
 2110W        W 6310   2.736   5.080   0.437 -0.0574  0.0364  0.2134
 2111W        W 6311   6.608   6.511   0.808  0.1620  0.4421  0.0306
 2112W        W 6312   4.768   5.780  10.820  0.0677 -0.0198  0.0854
 2113W        W 6313   3.951   1.760   3.034  0.0403 -0.2553 -0.3671
 2114W        W 6314  10.474   3.290   4.215  0.1822  0.1048 -0.1423
 2115W        W 6315   9.971   6.966  11.880  0.1107  0.0115 -0.0005
 2116W        W 6316   1.586   7.048   2.805 -0.3694  0.0118 -0.0391
 2117W        W 6317   4.491  10.367  12.236 -0.1033 -0.3502  0.0253
 2118W        W 6318   2.153   8.084  12.769 -0.0850  0.4594  0.4287
 2119W        W 6319   4.499   8.193  12.830 -0.1345 -0.0540 -0.1857
 2120W        W 6320   8.750   2.905   0.208 -0.0057  0.1409 -0.0950
 2121W        W 6321   1.017   8.616  11.904  0.0903 -0.3430 -0.2924
 2122W        W 6322   1.032   8.840  12.357  0.3298 -0.1812 -0.0215
 2123W        W 6323   8.729   4.407   3.022 -0.2911 -0.3621  0.1145
 2124W        W 6324   1.220  10.310  11.467  0.2172 -0.1351  0.0930
 2125W        W 6325   8.864   6.293  12.012 -0.3981 -0.0816 -0.1601
 2126W        W 6326   0.023   6.944   1.050 -0.0738 -0.0191  0.1654
 2127W        W 6327   0.166   0.984   1.121 -0.3278 -0.0532  0.1823
 2128W        W 6328   1.680   9.293   9.177  0.3654  0.3787 -0.1863
 2129W        W 6329   4.106   0.223  11.207 -0.0620  0.0521 -0.0684
 2130W        W 6330  10.658   8.512   2.120 -0.0988 -0.0352 -0.2658
 2131W        W 6331   8.242   6.455   3.367  0.2755  0.0977  0.0350
 2132W        W 6332   6.976   4.183  11.864  0.0020  0.0568 -0.0134
 2133W        W 6333   3.547   9.237  11.715  0.1675  0.0054 -0.1223
 2134W        W 6334   2.835   2.535   9.482 -0.0614  0.2642 -0.2961
 2135W        W 6335   1.071   2.636  11.900  0.0327 -0.3470 -0.0826
 2136W        W 6336   1.719   9.764  12.793 -0.1198  0.1468  0.0303
 2137W        W 6337   3.002   8.502  11.206  0.1133 -0.1021 -0.0504
 2138W        W 6338   2.253   5.461  12.620 -0.0532  0.0107 -0.0192
 2139W        W 6339   9.590   8.488   8.277  0.0815  0.0711  0.0275
 2140W        W 6340   7.799   1.906   2.712 -0.1220 -0.0101  0.0238
 2141W        W 6341   4.386   6.087  12.120  0.0202 -0.2756 -0.0366
 2142W        W 6342   0.091   1.028   1.787 -0.1076  0.2579  0.4998
 2143W        W 6343   4.750   9.657   8.821 -0.0230 -0.0955  0.1823
 2144W        W 6344   2.792   4.873   2.287  0.0756 -0.1691 -0.1250
 2145W        W 6345   6.711   5.800  12.159 -0.1298 -0.1960  0.0386
 2146W        W 6346  10.547   8.242   8.678 -0.3628 -0.1953  0.1772
 2147W        W 6347   1.941   8.867   8.025  0.0174 -0.3410  0.1488
 2148W        W 6348   0.453   0.918  10.433 -0.2762  0.0560 -0.1004
 2149W        W 6349   1.328   0.566  10.759  0.2302  0.3322 -0.0304
 2150W        W 6350   6.324   7.200   9.843 -0.2680  0.3562 -0.0810
 2151W        W 6351   3.511  10.246   4.024  0.1478  0.0376  0.2870
 2152W        W 6352   8.014   6.171   9.112 -0.0493 -0.2486  0.0401
 2153W        W 6353   3.653   1.617   2.109 -0.0595  0.1890 -0.0047
 2154W        W 6354   4.363   3.620  10.185  0.2869  0.0803 -0.3792
 2155W        W 6355   0.733   5.735  12.710 -0.1654 -0.0148 -0.1457
 2156W        W 6356   0.367   4.383  12.643 -0.0408  0.2520 -0.0384
 2157W        W 6357   6.114   5.375   3.004 -0.0215 -0.0396  0.0673
 2158W        W 6358   3.492   7.453   7.696  0.2478  0.0119 -0.3676
 2159W        W 6359   1.076   5.959   1.080  0.1181  0.1180 -0.1371
 2160W        W 6360   1.461   5.441  10.813  0.0250  0.0649  0.2255
 2161W        W 6361   5.002   3.184   3.433 -0.1616 -0.1131 -0.0036
 2162W        W 6362   8.812   0.074   8.389 -0.0637 -0.0665  0.2550
 2163W        W 6363   6.039   0.362   1.946 -0.1641 -0.3144  0.1086
 2164W        W 6364   7.221   5.850   3.190 -0.1901  0.0265 -0.1399
 2165W        W 6365   2.621  10.286   8.035 -0.0374  0.2420  0.0628
 2166W        W 6366   8.792   4.722   4.222  0.2778 -0.0732  0.0416
 2167W        W 6367   6.637   6.098  11.500 -0.0084 -0.0943  0.1975
 2168W        W 6368   1.973   1.235  10.048 -0.2360 -0.0462  0.0787
 2169W        W 6369   1.951   5.681   0.151 -0.3003  0.1528 -0.2239
 2170W        W 6370  10.595   1.558  12.199 -0.1146 -0.0148 -0.0065
 2171W        W 6371   0.051   3.891   9.871  0.2892  0.1961 -0.2928
 2172W        W 6372   0.370   9.977   0.235  0.2106 -0.0136  0.1194
 2173W        W 6373   6.611   9.603   8.879  0.1359  0.2471 -0.0179
 2174W        W 6374   3.984   0.038   9.402 -0.3177 -0.2461  0.4939
 2175W        W 6375   9.975   3.562   2.756 -0.4098  0.3296 -0.0638
 2176W        W 6376   7.410   1.929  11.196 -0.3613 -0.0050 -0.0390
 2177W        W 6377   3.978   3.801   8.949 -0.3364 -0.1212 -0.0512
 2178W        W 6378   8.274   3.293   1.744 -0.3944  0.0757  0.5299
 2179W        W 6379   6.262   6.009   9.522 -0.6522 -0.1371 -0.0894
 2180W        W 6380   4.652   4.742  12.797  0.0526 -0.1315 -0.3587
 2181W        W 6381   2.022   5.949  12.616  0.3679 -0.0141  0.0116
 2182W        W 6382   1.695   0.472  12.314  0.2912  0.1251  0.1706
 2183W        W 6383   7.957   2.443   0.654 -0.0672 -0.2000 -0.0665
 2184W        W 6384   5.445   6.327  10.212 -0.5437  0.0627  0.0065
 2185W        W 6385   3.107   9.973  12.125  0.0401 -0.2574 -0.1448
 2186W        W 6386  10.216   4.954  10.020 -0.4387  0.0288  0.0004
 2187W        W 6387   5.094   0.861   8.434  0.2361 -0.0890 -0.1264
 2188W        W 6388   9.741   6.095  12.229 -0.3906 -0.4082  0.1085
 2189W        W 6389   2.539   7.388   1.982  0.0284  0.1374 -0.1174
 2190W        W 6390   0.166   0.550   2.918  0.1566 -0.1279  0.0883
 2191W        W 6391   5.752   7.927   0.561 -0.1342 -0.0394  0.1507
 2192W        W 6392   6.346   8.124   2.380  0.2740 -0.1160 -0.0256
 2193W        W 6393   8.723   7.583   3.716 -0.1588 -0.0858 -0.2320
 2194W        W 6394   4.787   3.282  12.440  0.2151  0.0345 -0.3222
 2195W        W 6395   9.716   9.355   4.075  0.0051 -0.2244  0.4888
 2196W        W 6396   6.748   6.226   0.044  0.1363 -0.1285  0.1344
 2197W        W 6397   4.969   8.784   9.114 -0.3661 -0.1151 -0.1618
 2198W        W 6398   5.056   0.289   3.235  0.1212 -0.0793  0.1330
 2199W        W 6399   6.131   3.224   3.108  0.0385  0.2929 -0.1612
 2200W        W 6400   4.524   7.702   0.358 -0.0776 -0.1669 -0.0454
 2201W        W 6401   4.148   1.707   0.967  0.0333  0.0913  0.2446
 2202W        W 6402   8.660   8.706   9.630 -0.0099 -0.1130 -0.0318
 2203W        W 6403   7.708   7.968  11.657  0.0717 -0.1276  0.3419
 2204W        W 6404   0.244   3.040   2.573  0.0732 -0.0648 -0.2451
 2205W        W 6405   3.092   4.872  10.122  0.3152 -0.3348  0.1327
 2206W        W 6406   1.364   1.990  12.501  0.1880 -0.2072 -0.0178
 2207W        W 6407   9.036   4.433   4.616 -0.1472 -0.2436 -0.2489
 2208W        W 6408   6.645   4.096  10.673 -0.2890 -0.2404  0.1410
 2209W        W 6409   6.443   9.406   8.408 -0.1645  0.0008 -0.0073
 2210W        W 6410   0.339   9.337  11.003 -0.2970 -0.0919  0.3437
 2211W        W 6411   7.063   7.907   8.482 -0.0310  0.0806  0.2848
 2212W        W 6412   1.089   7.029  11.192 -0.1872  0.0755  0.0683
 2213W        W 6413   7.396   0.714   0.226  0.1629 -0.1129  0.0193
 2214W        W 6414   2.152   9.944   8.551  0.0005 -0.1808 -0.1196
 2215W        W 6415   1.489  10.239   2.887  0.1752  0.0755 -0.2909
 2216W        W 6416   8.840   9.249  10.942  0.0760  0.0858  0.1851
 2217W        W 6417   2.184   0.091   9.253  0.0147 -0.1554 -0.0689
 2218W        W 6418   5.871   2.726   8.363  0.1820 -0.0798  0.1440
 2219W        W 6419  10.634   2.333  11.363  0.0989  0.0098  0.1860
 2220W        W 6420   8.959   9.931  12.716 -0.1914 -0.0165 -0.0269
 2221W        W 6421   5.061   3.229   9.458 -0.0602 -0.3444  0.0348
 2222W        W 6422   5.887   0.878  10.215  0.2593  0.2006  0.0825
 2223W        W 6423   6.892   4.633   2.765  0.0331 -0.1557  0.3653
 2224W        W 6424   4.473   4.929   8.575 -0.0235  0.1760 -0.0708
 2225W        W 6425   4.891   3.521  11.442  0.4034 -0.0548 -0.1474
 2226W        W 6426   2.732   5.826   1.902  0.0966 -0.1546  0.2264
 2227W        W 6427   3.852   4.884   9.461  0.0944 -0.2334 -0.3470
 2228W        W 6428   5.259   8.665   0.479 -0.1320 -0.1764  0.1052
 2229W        W 6429   1.240  10.547   0.287 -0.0883 -0.1355  0.0272
 2230W        W 6430   4.081   6.013   0.560  0.0491  0.1062 -0.0304
 2231W        W 6431   8.133   7.764   9.960 -0.1605 -0.1674 -0.0801
 2232W        W 6432  10.499   6.082   2.976 -0.1018 -0.0063 -0.2967
 2233W        W 6433   3.400   6.714   9.525 -0.1013 -0.1189 -0.0858
 2234W        W 6434   2.258   7.681   9.806 -0.2980  0.0957 -0.2967
 2235W        W 6435  10.655   4.208   0.475  0.0910 -0.1349  0.3142
 2236W        W 6436   9.378   1.615   3.582 -0.3818  0.3333 -0.1025
 2237W        W 6437   5.348   3.019   1.895  0.1632 -0.2701 -0.2112
 2238W        W 6438   4.895   7.199  10.047 -0.0263  0.0762  0.1212
 2239W        W 6439   9.830   5.017   0.543  0.0065 -0.1422 -0.0946
 2240W        W 6440   9.005   7.305   9.779  0.0042  0.1132  0.0664
 2241W        W 6441   7.176   0.722   2.116 -0.2842 -0.4215  0.1211
 2242W        W 6442   5.824   8.706  12.463  0.0746 -0.2372  0.0770
 2243W        W 6443   1.093  10.369   0.775  0.1375  0.1714 -0.1170
 2244W        W 6444   8.063   5.076   3.902  0.0242  0.2020  0.3599
 2245W        W 6445   7.263   8.769   8.254 -0.2409 -0.1203  0.1154
 2246W        W 6446   5.444   1.829   9.963 -0.2766 -0.0998 -0.1106
 2247W        W 6447   7.099   1.988  10.513 -0.0457 -0.1542 -0.0529
 2248W        W 6448   0.236  10.304   3.503 -0.1356 -0.1829  0.0366
 2249W        W 6449   6.835   4.403   2.003 -0.0690 -0.0768 -0.1166
 2250W        W 6450   4.524   6.874   1.468 -0.0651 -0.2505  0.0755
 2251W        W 6451   8.349   7.548   8.937 -0.3224 -0.1944  0.1189
 2252W        W 6452   3.772   1.226   0.327 -0.1959 -0.0692  0.0329
 2253W        W 6453   8.663   6.663   9.315  0.1940 -0.1437 -0.3422
 2254W        W 6454   8.170  10.107   1.441  0.1348 -0.0465 -0.3918
 2255W        W 6455   8.345   4.361   2.223 -0.1681 -0.2326 -0.2344
 2256W        W 6456   2.065   0.376   1.631  0.1118  0.2367  0.2305
 2257W        W 6457   2.291   3.309   8.514  0.3065 -0.0275  0.0423
 2258W        W 6458   6.787   6.585   0.332  0.1104 -0.0600  0.2487
 2259W        W 6459   1.831   1.856  12.191  0.3048  0.0351  0.1628
 2260W        W 6460   8.088   2.553  10.647  0.1264 -0.1043  0.0094
 2261W        W 6461   8.591   2.485   0.514  0.1292 -0.2759 -0.0199
 2262W        W 6462   4.939   7.641  12.413 -0.1271 -0.1809 -0.2341
 2263W        W 6463   5.579   3.570  12.715 -0.1505  0.0327 -0.0992
 2264W        W 6464   0.706   8.595   1.679 -0.4122  0.1434 -0.0339
 2265W        W 6465  10.127   6.954   9.297  0.0795 -0.0180  0.0335
 2266W        W 6466   6.282   7.687  10.129  0.0210 -0.0673  0.1445
 2267W        W 6467   3.469   7.660  12.011  0.1459 -0.0907 -0.1237
 2268W        W 6468   6.633   4.486   4.565  0.1292 -0.1858 -0.1369
 2269W        W 6469   9.112   1.671  12.895 -0.4489  0.1230  0.3626
 2270W        W 6470   7.394   1.639   9.658 -0.0162  0.0178 -0.1615
 2271W        W 6471   3.537   5.405   1.674 -0.1330  0.1868 -0.2535
 2272W        W 6472   5.999   5.065   9.787 -0.1802  0.0941 -0.1309
 2273W        W 6473   0.699   3.126   3.228  0.1616 -0.1516  0.2371
 2274W        W 6474   3.297   7.165   8.655 -0.1299  0.1113 -0.3298
 2275W        W 6475   5.873   5.501  11.732 -0.0796  0.0394  0.3153
 2276W        W 6476   6.518   7.248  10.835  0.1318 -0.1244 -0.2622
 2277W        W 6477   2.577   3.093   0.487 -0.0223 -0.0405  0.1052
 2278W        W 6478   8.414   1.340   2.483  0.0353 -0.1517  0.1444
 2279W        W 6479   5.341   8.091   9.365 -0.1837  0.0012  0.2219
 2280W        W 6480  10.268  10.634   2.433  0.0830 -0.1649  0.1506
 2281W        W 6481   4.193   8.538  10.306 -0.1621  0.0343  0.0682
 2282W        W 6482   6.236   9.217   8.933  0.0786  0.1010  0.0957
 2283W        W 6483   5.464   5.586   1.382 -0.2774 -0.0661  0.4533
 2284W        W 6484   0.692   6.981   3.751  0.1878  0.3304 -0.1021
 2285W        W 6485   7.986   7.445   8.541 -0.1155  0.1538 -0.4878
 2286W        W 6486   6.404   3.507   9.940  0.0737 -0.0619 -0.0984
 2287W        W 6487   7.924   7.620   1.357  0.0748  0.0713  0.4769
 2288W        W 6488   4.073  10.184  12.337  0.0649  0.3080  0.2831
 2289W        W 6489   8.286   0.332  10.901 -0.2164 -0.1301 -0.2348
 2290W        W 6490   0.693  10.389   9.889  0.0427  0.2873 -0.0396
 2291W        W 6491   5.899   5.136   8.694  0.1190  0.0453  0.0130
 2292W        W 6492   6.107   1.442   0.689 -0.2551  0.0359  0.6296
 2293W        W 6493   8.669   4.203   1.010  0.0820 -0.0426 -0.5561
 2294W        W 6494  10.437   6.790   0.677 -0.2520  0.0240  0.2381
 2295W        W 6495   3.470   6.571  12.628 -0.3406  0.1725 -0.0622
 2296W        W 6496   0.451   9.536   3.281 -0.0977 -0.0453 -0.0542
 2297W        W 6497  10.118   9.717  12.634  0.0653  0.0080  0.3826
 2298W        W 6498   2.618   4.160   0.231  0.3424 -0.2248 -0.2125
 2299W        W 6499  10.513   9.381  11.145  0.0095  0.0082  0.0194
 2300W        W 6500   8.483   2.483   2.993  0.0716 -0.1157 -0.0258
 2301W        W 6501   5.184   6.190   3.079  0.0515  0.0820  0.1475
 2302W        W 6502   9.593   0.461   1.004 -0.2218 -0.0387 -0.2081
 2303W        W 6503  10.356   7.556   1.549  0.1788  0.1451  0.1992
 2304W        W 6504   2.895   0.521   7.718  0.1660 -0.1270 -0.1265
 2305W        W 6505   7.273   0.466  11.494  0.0769 -0.1524  0.3403
 2306W        W 6506   3.771   4.425   2.825  0.1095 -0.4678  0.1212
 2307W        W 6507   2.645   3.650   3.327 -0.1393  0.0568 -0.5040
 2308W        W 6508   7.792   6.408   2.674 -0.0930  0.0766  0.0786
 2309W        W 6509   3.435   1.167   0.700 -0.0524 -0.3963  0.0304
 2310W        W 6510   9.817   3.812   9.162 -0.0366 -0.0149 -0.0666
 2311W        W 6511  10.681   4.387  11.544 -0.1189  0.1231 -0.1040
 2312W        W 6512   4.138  10.078   0.796  0.0380  0.1553  0.0605
 2313W        W 6513   8.332   6.562   9.749  0.2774 -0.2271  0.3804
 2314W        W 6514   3.841   7.317   2.313  0.1228 -0.2485 -0.0178
 2315W        W 6515   8.516  10.058  12.493  0.0014  0.0845 -0.2036
 2316W        W 6516   2.130   0.418   0.766  0.0748 -0.3257 -0.2084
 2317W        W 6517   8.895   7.967   2.854 -0.1090 -0.1480  0.1048
 2318W        W 6518   8.064   2.262   1.803 -0.3315  0.3733 -0.0012
 2319W        W 6519   7.598   5.429   9.417 -0.0133 -0.4495  0.1978
 2320W        W 6520   2.895   9.499   0.769 -0.2821  0.0347  0.0237
 2321W        W 6521   5.821   8.564   1.473  0.0421  0.0131 -0.0984
 2322W        W 6522   5.112   1.164   3.404  0.0429  0.1412 -0.2430
 2323W        W 6523   5.567   1.821   2.749  0.0019  0.0894 -0.0462
 2324W        W 6524   8.613   0.119  11.275  0.0537  0.0124 -0.0016
 2325W        W 6525   5.137   0.756   2.917  0.0740 -0.0305 -0.0079
 2326W        W 6526   3.581  10.536   9.626 -0.1071 -0.0086  0.1066
 2327W        W 6527   5.489   9.329   3.244 -0.1553 -0.1942  0.0537
 2328W        W 6528   3.619   6.685   0.169  0.0444 -0.0816  0.3177
 2329W        W 6529   5.375   4.541   8.594  0.3591 -0.0867 -0.3335
 2330W        W 6530   0.309   9.975   2.322  0.2646 -0.0545  0.0653
 2331W        W 6531   8.817   6.813  10.466 -0.0093 -0.2206 -0.1335
 2332W        W 6532   6.275   1.154   2.199 -0.0994  0.0512  0.2029
 2333W        W 6533   4.908   4.379   2.782  0.1399  0.0170 -0.0814
 2334W        W 6534   8.055   8.441   3.468 -0.1509 -0.0033  0.0119
 2335W        W 6535  10.157   3.609   2.344  0.2776 -0.0971 -0.2224
 2336W        W 6536   9.242   5.457   1.594  0.0558 -0.1050  0.0891
 2337W        W 6537   5.538   3.630   2.744  0.2252 -0.0455 -0.2956
 2338W        W 6538   3.392   5.307   3.118 -0.1634  0.3029 -0.2137
 2339W        W 6539   4.949   7.770   9.425  0.6014 -0.0249 -0.0096
 2340W        W 6540   2.312   0.967   0.462  0.2655 -0.1172 -0.2733
 2341W        W 6541   4.006   8.526  12.793  0.4746  0.0342 -0.0579
 2342W        W 6542   9.692   8.135   9.152 -0.1775  0.0161 -0.3258
 2343W        W 6543   2.211   0.506   8.970  0.0173 -0.0482 -0.1266
 2344W        W 6544   3.175   3.963   0.959  0.0800 -0.0533  0.0235
 2345W        W 6545   5.888   6.701  11.129  0.3023 -0.0191  0.3467
 2346W        W 6546   0.961   1.841  11.595  0.1044 -0.0223  0.2348
 2347W        W 6547   3.810   6.133   7.724 -0.3586 -0.3652  0.1046
 2348W        W 6548   5.425   6.133   0.636 -0.1376 -0.4192 -0.2012
 2349W        W 6549   9.212   6.917   1.158  0.0317 -0.2297  0.0293
 2350W        W 6550   1.399   1.556  10.460 -0.1169  0.1573 -0.0168
 2351W        W 6551   7.109   2.787  10.873  0.2177 -0.0626  0.0879
 2352W        W 6552   9.966   0.760   1.209  0.0930 -0.0017  0.0128
 2353W        W 6553   8.318   4.316   4.143 -0.0232  0.1484  0.1143
 2354W        W 6554   1.940   3.827  11.090 -0.0946  0.0246  0.0218
 2355W        W 6555   9.024   6.441  12.845  0.1409  0.2766 -0.0778
 2356W        W 6556   1.501   6.161  11.233  0.2599 -0.3518  0.0876
 2357W        W 6557   9.918   5.986   0.394  0.0714 -0.0163 -0.0708
 2358W        W 6558   3.216   8.086   2.263  0.4036  0.3732 -0.0844
 2359W        W 6559   5.235   9.906   8.520  0.1423  0.1172  0.2440
 2360W        W 6560   5.701   2.911   1.304 -0.1563  0.1722  0.0008
 2361W        W 6561   4.096   3.057   3.382  0.0840  0.1399 -0.4041
 2362W        W 6562   7.580   9.498   7.617  0.2315 -0.0174  0.1937
 2363W        W 6563   8.850   1.788   4.369  0.0820  0.0960 -0.4043
 2364W        W 6564   3.195   5.609  12.417  0.0626 -0.1297 -0.2111
 2365W        W 6565   0.903   5.518   0.222 -0.0503  0.1133 -0.3695
 2366W        W 6566  10.462   1.272  11.043  0.4070  0.0544  0.0636
 2367W        W 6567   0.127  10.223  10.611 -0.0164 -0.0186 -0.0029
 2368W        W 6568   3.235   5.025   1.713 -0.1002 -0.3449  0.0030
 2369W        W 6569   3.702   6.334   9.503  0.1675  0.0263  0.0805
 2370W        W 6570   2.857   8.921   8.153  0.0128 -0.0900  0.0070
 2371W        W 6571   5.962  10.581  10.748  0.0554 -0.0805  0.2688
 2372W        W 6572   0.221   5.161   3.386 -0.0261 -0.2748  0.1255
 2373W        W 6573   9.150   5.980   2.768 -0.0834  0.1575  0.3119
 2374W        W 6574   9.776   3.787   9.974 -0.0305 -0.2156 -0.0687
 2375W        W 6575   2.053   7.563  12.876 -0.1822  0.2535 -0.0349
 2376W        W 6576   8.694   5.628  11.700 -0.0124  0.3940  0.0495
 2377W        W 6577   9.328   0.658   9.580  0.0749  0.1656 -0.3221
 2378W        W 6578   5.776   2.234   9.733  0.1357 -0.0119  0.1265
 2379W        W 6579   7.599   7.717   9.958  0.1821 -0.1672 -0.0237
 2380W        W 6580   0.882   1.288  10.301  0.2918  0.1697  0.0975
 2381W        W 6581   5.362   1.316   0.105 -0.1177  0.1245  0.1973
 2382W        W 6582   9.442   9.318   8.886 -0.1677 -0.0790  0.4277
 2383W        W 6583   0.758   1.679  10.634  0.1721 -0.0946 -0.3370
 2384W        W 6584   0.991   4.886   3.029 -0.1061 -0.0216  0.0625
 2385W        W 6585   3.024   4.287   9.729  0.1338  0.1106  0.1320
 2386W        W 6586   9.554   9.126  12.039  0.1593 -0.3141 -0.0840
 2387W        W 6587   9.077   9.928  11.192  0.2335 -0.1519 -0.3124
 2388W        W 6588   1.899   3.220  11.764 -0.2052  0.2318 -0.3246
 2389W        W 6589   7.305   1.132   8.689  0.3302  0.2473  0.2008
 2390W        W 6590  10.384   4.096   4.848  0.1183  0.1220 -0.0737
 2391W        W 6591   9.405   2.990  11.663 -0.0653 -0.3207  0.3823
 2392W        W 6592   7.327   7.992   3.589 -0.0160 -0.0791 -0.2948
 2393W        W 6593   9.526   4.388  11.571  0.1011 -0.0035 -0.2897
 2394W        W 6594   2.901   7.382  12.666  0.0383  0.3006 -0.1266
 2395W        W 6595   4.778   8.488   3.763 -0.1547 -0.0043 -0.1471
 2396W        W 6596   0.821   6.285   1.346  0.4598 -0.3716  0.0160
 2397W        W 6597   9.572   1.955   8.892 -0.2296  0.0061  0.3872
 2398W        W 6598   1.429  10.070   2.417  0.0421  0.0002  0.0726
 2399W        W 6599   2.435   2.179  10.966  0.1804 -0.3173  0.0349
 2400W        W 6600   6.690   7.509   1.490 -0.1132 -0.1523  0.1130
 2401W        W 6601   5.629   6.831  12.802 -0.1067 -0.0451  0.0116
 2402W        W 6602   0.295   5.716  11.395  0.0471 -0.1037  0.0938
 2403W        W 6603   3.584   9.659   0.022 -0.2361 -0.3016 -0.1176
 2404W        W 6604   1.923   5.239   1.845  0.1620 -0.1061 -0.0409
 2405W        W 6605   5.413  10.262   4.105 -0.1257  0.1634  0.2608
 2406W        W 6606   1.934   5.142  10.990  0.5438 -0.0117  0.0633
 2407W        W 6607   5.080   8.852   0.876  0.0275 -0.2045 -0.1021
 2408W        W 6608   1.257   5.452   9.814  0.3019  0.2202  0.2430
 2409W        W 6609   5.522   1.385   1.883  0.2268  0.1900  0.2376
 2410W        W 6610   7.666   9.317  10.472  0.0412  0.2602  0.2234
 2411W        W 6611   5.553   1.283  10.997  0.2147 -0.1840 -0.0051
 2412W        W 6612   0.705   9.973  10.359 -0.0536 -0.1659  0.1099
 2413W        W 6613   4.678   2.318   1.613  0.0548 -0.0501 -0.2626
 2414W        W 6614   1.652   5.865   3.323 -0.4046  0.2133  0.0068
 2415W        W 6615  10.442   3.149   1.151  0.1435 -0.1073  0.0381
 2416W        W 6616   6.050   2.417   4.094 -0.0621 -0.1102  0.0405
 2417W        W 6617   2.734   8.635   1.512  0.0219  0.0749 -0.3144
 2418W        W 6618   9.380   0.235  12.822 -0.0087  0.2053  0.0493
 2419W        W 6619   1.407   9.732  11.320  0.2407 -0.1506 -0.0272
 2420W        W 6620   5.246   9.822   1.348 -0.0185 -0.3201  0.2775
 2421W        W 6621   9.086   0.201   3.559 -0.0113 -0.0681  0.1559
 2422W        W 6622   2.525   8.997   9.134 -0.0927 -0.1970  0.0463
 2423W        W 6623   3.581   7.226   0.238  0.4269  0.3156  0.2499
 2424W        W 6624   8.331   0.035  12.921  0.0001 -0.0054  0.2258
 2425W        W 6625   0.182   8.292  12.168 -0.1694 -0.1288 -0.0949
 2426W        W 6626   4.964   1.478   3.793 -0.2540 -0.0003  0.2808
 2427W        W 6627   0.523  10.643  11.322  0.3889  0.1117  0.0833
 2428W        W 6628  10.224   7.290  10.016 -0.3756  0.1215 -0.0432
 2429W        W 6629   9.216   6.647   2.403  0.4008  0.1491 -0.2411
 2430W        W 6630   4.119   3.241   9.543  0.0709 -0.2217  0.1958
 2431W        W 6631   4.606   4.117  11.047 -0.0033  0.0042  0.1312
 2432W        W 6632   7.807   2.836   1.016 -0.0226  0.0087 -0.1588
 2433W        W 6633   0.001   8.789   8.899  0.1704 -0.1446 -0.4077
 2434W        W 6634   2.961   0.191   0.685 -0.1125 -0.0030 -0.1178
 2435W        W 6635   7.786   7.551  11.979  0.0954  0.2012  0.0076
 2436W        W 6636   3.396   6.836   0.714 -0.0219  0.0198 -0.1609
 2437W        W 6637   2.892   2.749  10.996 -0.3318  0.0320  0.0795
 2438W        W 6638   8.547  10.015  10.970  0.1362  0.0130 -0.0405
 2439W        W 6639   9.945   0.150   1.468  0.1289  0.0482 -0.2956
 2440W        W 6640   1.949   7.874   3.868  0.2609  0.0394  0.1329
 2441W        W 6641   8.766   6.004   0.104 -0.1636 -0.1283  0.1593
 2442W        W 6642   7.580   1.411   9.281 -0.0524 -0.0422  0.2913
 2443W        W 6643   4.425   1.133  11.350  0.1172 -0.4369  0.2863
 2444W        W 6644   9.610   3.248   0.237  0.0391 -0.0386 -0.0795
 2445W        W 6645   3.177   9.597   4.495 -0.0033 -0.0426 -0.1794
 2446W        W 6646   5.551  10.509  12.401 -0.1009 -0.1889 -0.0588
 2447W        W 6647   8.438   0.082   9.819  0.3374  0.0685  0.1773
 2448W        W 6648   1.227   5.839  10.955  0.0367  0.2844 -0.2820
 2449W        W 6649   0.144   1.058  10.788  0.1665 -0.4036 -0.0665
 2450W        W 6650   9.604  10.221   1.013  0.2672  0.0959 -0.3261
 2451W        W 6651   7.188   3.160   9.419  0.1099 -0.1212  0.0639
 2452W        W 6652   2.475   1.678  10.505 -0.0893 -0.1299  0.0963
 2453W        W 6653  10.538   8.351   8.164 -0.1211 -0.1985 -0.1152
 2454W        W 6654   0.476   7.931   0.959 -0.3077  0.2239  0.0393
 2455W        W 6655   2.072   8.089  12.200  0.2719 -0.0929  0.2382
 2456W        W 6656   3.879   2.173   3.502  0.1361 -0.0184  0.2601
 2457W        W 6657  10.371   4.823   2.460 -0.3087 -0.2909  0.0757
 2458W        W 6658   3.219   0.663   0.199 -0.0269  0.1284  0.0719
 2459W        W 6659   4.440   8.173   8.192 -0.0800 -0.2087  0.0446
 2460W        W 6660   9.777   9.375   0.507  0.2073 -0.2169 -0.0030
 2461W        W 6661   6.932   7.335  12.680  0.1495 -0.1113  0.3424
 2462W        W 6662   8.453  10.134   2.738 -0.4976 -0.0126 -0.2125
 2463W        W 6663   3.422   0.941  11.310 -0.0738 -0.4347  0.0840
 2464W        W 6664   5.539   9.952   9.422  0.0278  0.0025  0.0588
 2465W        W 6665   1.859   5.906   2.815 -0.0262  0.0411 -0.2168
 2466W        W 6666   1.223   7.598   2.420 -0.0348  0.1509  0.0235
 2467W        W 6667   8.072   9.501  11.824 -0.2441  0.0362  0.1503
 2468W        W 6668   9.674   5.062   3.170 -0.2276 -0.0098 -0.0340
 2469W        W 6669   7.626   2.611   9.536 -0.0769 -0.2096  0.5462
 2470W        W 6670   7.165   8.451   8.642 -0.1010  0.0388 -0.0215
 2471W        W 6671  10.072   2.006  10.075  0.4549  0.0021  0.3560
 2472W        W 6672   2.879   4.050  11.346  0.1250 -0.2072 -0.1805
 2473W        W 6673   6.199   8.746  12.112  0.0863  0.1192 -0.0686
 2474W        W 6674   8.609   9.689  11.380  0.1589  0.1245  0.2332
 2475W        W 6675   8.896   1.846  10.699  0.3844  0.1039 -0.2464
 2476W        W 6676   5.052   2.693   9.536 -0.1612 -0.1655  0.2386
 2477W        W 6677   6.438   9.101  11.642  0.0560  0.0363 -0.3110
 2478W        W 6678   8.934  10.042   8.438 -0.0911 -0.4250 -0.0322
 2479W        W 6679   1.429   7.593   2.935 -0.1041  0.1739 -0.0790
 2480W        W 6680   5.834   8.441   0.009  0.0612  0.2693  0.0656
 2481W        W 6681   0.395   0.093  12.298  0.0753  0.3143 -0.0283
 2482W        W 6682   2.007   3.808  12.246 -0.1810 -0.1505 -0.2699
 2483W        W 6683   4.752   8.868   0.475 -0.0444  0.1172 -0.0616
 2484W        W 6684   0.829   2.158  10.720 -0.3878 -0.2939 -0.1807
 2485W        W 6685   3.029   9.276   2.051 -0.1259  0.0963 -0.0873
 2486W        W 6686   2.901   1.099  12.760  0.0294  0.2852 -0.2695
 2487W        W 6687  10.609   9.856  10.358 -0.0867  0.4684 -0.2456
 2488W        W 6688   1.168   8.664   0.568  0.1668  0.0287 -0.1741
 2489W        W 6689   8.736   7.642   9.321  0.0403 -0.0769  0.1331
 2490W        W 6690   6.398   4.910   9.490  0.0334 -0.2045  0.1651
 2491W        W 6691   8.015   0.316   8.042 -0.0220 -0.1011  0.0270
 2492W        W 6692   2.826   9.824   2.862 -0.1090  0.0631 -0.3660
 2493W        W 6693  10.636   2.496  10.480  0.2784  0.1789 -0.0311
 2494W        W 6694   3.618   2.385   8.541  0.0576  0.3407 -0.1493
 2495W        W 6695   2.755   3.505   9.374  0.0072 -0.1766  0.2111
 2496W        W 6696   7.072   2.216   4.686 -0.0823 -0.0521 -0.0016
 2497W        W 6697   4.104   4.872   3.754 -0.1420 -0.2850 -0.2020
 2498W        W 6698   7.073   3.317  10.367 -0.0986  0.1211  0.3611
 2499W        W 6699   5.452   0.856   2.282 -0.5680 -0.3033 -0.0291
 2500W        W 6700   5.730   7.227   2.791  0.0841 -0.0365  0.1978
 2501W        W 6701   3.574   0.747   2.607  0.0882  0.3533 -0.2368
 2502W        W 6702   3.272   9.806   2.157 -0.0910  0.0441  0.1654
 2503W        W 6703   7.821   9.861   2.704  0.0719  0.0981 -0.1092
 2504W        W 6704   4.032   8.460   2.419  0.0505 -0.2010 -0.0469
 2505W        W 6705   9.415   9.846   1.342  0.3903 -0.0223 -0.1752
 2506W        W 6706   3.438   6.571  10.401  0.0709 -0.0874 -0.1342
 2507W        W 6707   8.068   1.725   2.330  0.0402 -0.2769 -0.2018
 2508W        W 6708   5.758   9.539   0.272  0.1293 -0.2468 -0.1857
 2509W        W 6709   6.846   1.364   8.658 -0.1181  0.1525 -0.2678
 2510W        W 6710   6.888   8.756  11.743  0.0462 -0.2608  0.1628
 2511W        W 6711   6.757   2.652   8.848 -0.0014  0.5267  0.3271
 2512W        W 6712   8.489   8.254   9.893  0.1482  0.1431 -0.2317
 2513W        W 6713   2.527   3.161   1.029  0.0560  0.0107  0.3098
 2514W        W 6714   7.047   6.614   3.813  0.0663 -0.1462  0.0577
 2515W        W 6715   2.731  10.389   1.879  0.0340  0.1434 -0.2542
 2516W        W 6716   4.455   2.111   0.823  0.0496  0.0086 -0.0770
 2517W        W 6717   5.453   8.913   2.990  0.3752  0.0706 -0.2637
 2518W        W 6718   1.491   8.567  11.727 -0.3293 -0.3348 -0.0252
 2519W        W 6719  10.132   9.653  12.060 -0.1554  0.0037  0.2085
 2520W        W 6720   1.905   0.308   2.402  0.0642  0.1566  0.0984
 2521W        W 6721   5.874   8.198  10.756 -0.0391  0.1513 -0.0615
 2522W        W 6722   3.827   5.259   0.626 -0.0160 -0.1692  0.4851
 2523W        W 6723   7.508   8.139   0.336  0.3400  0.0193  0.1082
 2524W        W 6724  10.319   9.795   9.879  0.2838 -0.3146 -0.0317
 2525W        W 6725   5.073   8.080   9.811  0.0403 -0.2662 -0.0908
 2526W        W 6726   3.433   2.650  10.878 -0.5490  0.1419 -0.2825
 2527W        W 6727   6.905   8.114   9.504  0.2841 -0.0252 -0.1481
 2528W        W 6728   4.181   2.723  12.719 -0.1078 -0.1113  0.0076
 2529W        W 6729   9.620   2.154   2.456  0.1038 -0.2430 -0.0799
 2530W        W 6730  10.390   5.142   0.585  0.3779  0.1572 -0.3239
 2531W        W 6731   5.907   0.278   2.584 -0.2005 -0.3072 -0.0124
 2532W        W 6732   2.663   4.910  12.492 -0.2426 -0.2291 -0.1461
 2533W        W 6733   7.945   2.252  12.038 -0.0124  0.1070  0.1115
 2534W        W 6734  10.502   6.309   4.147 -0.0279  0.1238  0.5295
 2535W        W 6735   7.405   5.194  10.137 -0.1593 -0.1260  0.2155
 2536W        W 6736   1.503   4.176   3.420  0.2930 -0.0741 -0.2010
 2537W        W 6737  10.233   5.969  12.524 -0.1754  0.0693 -0.2123
 2538W        W 6738   8.266   6.509   1.899 -0.0877 -0.3272  0.1039
 2539W        W 6739   4.325   7.627  12.346 -0.3281 -0.0631  0.1614
 2540W        W 6740   5.481  10.099   0.986 -0.1028  0.1183 -0.1208
 2541W        W 6741   8.187   6.948  10.079  0.2528 -0.1086  0.0999
 2542W        W 6742   6.559   8.368   3.084 -0.2880 -0.0445  0.0277
 2543W        W 6743   2.998   1.195  11.339  0.0166 -0.3088 -0.1839
 2544W        W 6744   7.341   0.156   0.128 -0.1508  0.1578  0.1356
 2545W        W 6745   7.917   0.501   0.195 -0.0123 -0.0142  0.0220
 2546W        W 6746   1.301   9.066   2.071  0.0420 -0.0172  0.1236
 2547W        W 6747   8.932   4.786   2.292 -0.0886 -0.2361 -0.0989
 2548W        W 6748   9.523  10.116   8.738 -0.0019  0.2665  0.0819
 2549W        W 6749   2.970   3.900   2.186  0.3284  0.0371 -0.0497
 2550W        W 6750   0.289   0.731   2.162  0.2762 -0.0822  0.0523
 2551W        W 6751   9.499   8.333  10.072  0.0395  0.3217  0.0305
 2552W        W 6752   6.129   4.735   9.048 -0.1630  0.0550  0.1487
 2553W        W 6753   9.926  10.681   9.689 -0.4483  0.1926 -0.0260
 2554W        W 6754   2.081   2.180   3.524  0.2414 -0.1547 -0.0695
 2555W        W 6755   7.353   2.633   3.238 -0.0828 -0.0605  0.0378
 2556W        W 6756   9.783   1.109  11.392 -0.2756  0.1897  0.0817
 2557W        W 6757   7.899   4.787  12.766 -0.0834  0.1708 -0.2723
 2558W        W 6758   5.858   2.438   1.110 -0.1151 -0.0054 -0.3756
 2559W        W 6759   0.398   5.219  12.077 -0.0592  0.0728 -0.3967
 2560W        W 6760   4.012   0.653   0.047  0.2702 -0.0495 -0.0484
 2561W        W 6761  10.072   2.941   3.171  0.2262  0.0350 -0.5215
 2562W        W 6762   6.423   4.270   1.660  0.2081 -0.1714 -0.2393
 2563W        W 6763   6.393   9.386   2.875 -0.0865  0.3595  0.3275
 2564W        W 6764   3.311   1.956   1.996  0.2579 -0.1453 -0.3210
 2565W        W 6765   1.252   8.366   9.482  0.1511  0.3323  0.1678
 2566W        W 6766   2.011   9.718   4.455  0.0558  0.1295  0.0007
 2567W        W 6767   8.085  10.601   1.073 -0.2900 -0.1501  0.0570
 2568W        W 6768   2.673  10.579   9.671  0.3511  0.0154 -0.1308
 2569W        W 6769   7.887   5.848  12.038 -0.0079  0.0383  0.2338
 2570W        W 6770   6.999   3.357  12.776  0.0274  0.1985 -0.1574
 2571W        W 6771   3.351   1.403  11.662  0.0854 -0.0741 -0.0468
 2572W        W 6772   8.808   9.689  10.605 -0.3046 -0.3539 -0.0391
 2573W        W 6773   8.499   5.074   2.413 -0.0063 -0.1294 -0.0626
 2574W        W 6774   9.392   0.706  12.528  0.2810  0.1328 -0.0005
 2575W        W 6775   1.279   9.378  11.636  0.1795  0.3184 -0.1012
 2576W        W 6776   9.287   2.566   1.201 -0.4691  0.0695 -0.0641
 2577W        W 6777   3.762   8.376   4.385  0.0009 -0.0857  0.0954
 2578W        W 6778   9.264   3.714   5.013 -0.0553 -0.4238 -0.0664
 2579W        W 6779   2.436   5.264  10.487 -0.1404  0.0424 -0.2883
 2580W        W 6780   9.334   8.863  10.143  0.1860  0.2780 -0.4835
 2581W        W 6781   2.425   8.525   9.366  0.0828 -0.0000 -0.0617
 2582W        W 6782   7.198   1.461   7.656 -0.1626 -0.0981  0.1634
 2583W        W 6783   5.640   5.560   8.888  0.2695  0.1183  0.0306
 2584W        W 6784   5.344   4.725  10.866  0.1524  0.0359 -0.1720
 2585W        W 6785   0.900   0.183   0.133 -0.0056 -0.0737  0.0524
 2586W        W 6786   6.891   4.275  11.114 -0.0843  0.0447  0.1039
 2587W        W 6787   9.901   8.731   2.480 -0.1414  0.0147  0.0962
 2588W        W 6788   5.772   0.193  11.143 -0.3060 -0.0581  0.1320
 2589W        W 6789   6.277   5.425   3.456 -0.1442 -0.2061 -0.2409
 2590W        W 6790   6.396   8.642  10.043 -0.0923 -0.0403 -0.2028
 2591W        W 6791   4.893  10.295   7.902  0.0230 -0.3125 -0.2041
 2592W        W 6792   6.519   4.121  10.142 -0.1638  0.0066 -0.1569
 2593W        W 6793   2.081   3.000   2.368  0.1812 -0.0633  0.2221
 2594W        W 6794   8.607   9.572  12.320  0.1710  0.0967  0.0356
 2595W        W 6795   4.343   1.298   1.347  0.1829  0.1941  0.1341
 2596W        W 6796   0.974  10.117  11.862 -0.0042  0.0712  0.0655
 2597W        W 6797   7.457   5.975   0.927  0.1594 -0.2690 -0.0646
 2598W        W 6798   6.814   7.061   9.095 -0.1508 -0.1363  0.4169
 2599W        W 6799   6.481   5.027   1.083 -0.0916  0.1019 -0.1145
 2600W        W 6800   6.082   7.733   2.636  0.1724 -0.3017  0.0130
 2601W        W 6801   1.047   9.882   1.619 -0.0671  0.1127 -0.1218
 2602W        W 6802   0.626   9.467   7.043  0.0833 -0.0870  0.3281
 2603W        W 6803   2.137   8.860   7.492 -0.1656 -0.0754  0.1054
 2604W        W 6804   9.299   4.071   4.471 -0.1620  0.3023  0.0508
 2605W        W 6805   7.326   0.566   1.618 -0.1201 -0.3835  0.2318
 2606W        W 6806  10.510   2.503   4.503 -0.2956  0.0311 -0.1983
 2607W        W 6807   1.669   6.651   1.447 -0.1190 -0.2328  0.1205
 2608W        W 6808   5.422   3.294   9.053 -0.1736  0.2199 -0.2036
 2609W        W 6809   4.527   6.326   0.601  0.0153 -0.1615  0.2877
 2610W        W 6810   7.087   4.223   2.998  0.2039 -0.3448 -0.1821
 2611W        W 6811   1.829   7.634  11.407 -0.0237  0.0663 -0.1299
 2612W        W 6812   6.126   9.920   3.887 -0.0599 -0.0852 -0.0829
 2613W        W 6813   6.869   3.587  11.797  0.2966 -0.0202 -0.0802
 2614W        W 6814   7.723   0.591  11.737  0.2618 -0.0755 -0.3085
 2615W        W 6815   6.758   5.422   3.837 -0.2394 -0.2136 -0.0413
 2616W        W 6816   3.615   2.815   8.928 -0.2782  0.1269  0.1379
 2617W        W 6817   2.101   4.015   0.192  0.2003  0.0221 -0.3648
 2618W        W 6818   4.670   4.848   2.913 -0.1537  0.1739  0.3320
 2619W        W 6819   2.886   6.803   9.546  0.6139  0.1966  0.1709
 2620W        W 6820   5.357   3.833  10.637  0.1377  0.0071  0.0998
 2621W        W 6821   3.910   8.315   9.512 -0.1324  0.4827  0.0600
 2622W        W 6822   4.889   8.424   2.497 -0.1728  0.0139 -0.1802
 2623W        W 6823   9.973   3.968   9.587 -0.3332  0.0147  0.2316
 2624W        W 6824   9.631   1.322  11.860  0.1809 -0.0011 -0.0607
 2625W        W 6825   1.511   4.181   1.190 -0.1819  0.0239 -0.3469
 2626W        W 6826   5.422   3.231  11.604  0.0231  0.0045 -0.4263
 2627W        W 6827   4.382   9.832   7.252  0.1083 -0.5256  0.2541
 2628W        W 6828   0.402   1.554  10.960 -0.0286  0.0784  0.1220
 2629W        W 6829  10.596   9.493   1.806 -0.0752 -0.0118  0.3212
 2630W        W 6830   4.238   7.678   7.885 -0.6362  0.0118  0.1569
 2631W        W 6831   2.805   2.997  10.225  0.2016 -0.1541  0.2102
 2632W        W 6832   1.324   0.070   1.556  0.1890  0.0630 -0.0415
 2633W        W 6833   5.947   1.991   0.497 -0.0491  0.2336  0.0161
 2634W        W 6834   7.696   5.167   9.024 -0.1854  0.1356  0.0174
 2635W        W 6835   0.860   0.682   0.783 -0.2781 -0.0535  0.1726
 2636W        W 6836   1.216   3.923  12.687 -0.1695  0.1000 -0.0071
 2637W        W 6837   3.731   1.787   4.593  0.0156 -0.0214 -0.0926
 2638W        W 6838   4.670   3.161   8.529  0.1342 -0.0326 -0.3347
 2639W        W 6839   4.316   5.043   1.949 -0.0729  0.0405  0.1555
 2640W        W 6840   4.118   0.851   2.171  0.3893  0.0359  0.0169
 2641W        W 6841   6.745   5.114   2.558  0.1978  0.3507  0.3120
 2642W        W 6842   6.849   9.234   2.590 -0.3558  0.2485  0.0304
 2643W        W 6843   0.098   5.672   1.854 -0.2706 -0.0993 -0.2425
 2644W        W 6844   0.567  10.367   2.567 -0.1315 -0.0056 -0.4992
 2645W        W 6845   7.887   9.887   9.673  0.0641 -0.2239 -0.0754
 2646W        W 6846   7.520   3.898  10.599 -0.1237  0.0375 -0.3711
 2647W        W 6847   5.625   2.057   8.497  0.2956 -0.0710  0.2252
 2648W        W 6848   2.322   7.193  12.655  0.0117 -0.1852  0.0998
 2649W        W 6849   9.186   8.477   1.444 -0.3175 -0.0115 -0.0082
 2650W        W 6850   8.270   5.002   2.913 -0.0861  0.1528 -0.0112
 2651W        W 6851   8.486   0.953   3.868  0.1298 -0.0894  0.3049
 2652W        W 6852   3.103  10.454  11.385 -0.0581  0.0196  0.1304
 2653W        W 6853   5.235   6.571   1.840  0.1678  0.1517  0.0084
 2654W        W 6854   0.028   5.370  11.199 -0.1281 -0.4473 -0.1090
 2655W        W 6855   8.475   3.296   0.475 -0.4599 -0.1320 -0.0081
 2656W        W 6856   1.080   8.295  11.410  0.0354 -0.0084 -0.0549
 2657W        W 6857   7.453   9.651   9.552 -0.1040 -0.2230  0.0069
 2658W        W 6858   5.963   6.134   9.942  0.0867  0.0241  0.0254
 2659W        W 6859   8.624   7.573   2.695 -0.0314 -0.0356  0.0216
 2660W        W 6860   8.392   5.545  10.342 -0.0229 -0.1357  0.0151
 2661W        W 6861   2.696   1.766   8.574  0.0743 -0.0415  0.1680
 2662W        W 6862   1.299   6.810   9.981 -0.2044  0.0291 -0.0032
 2663W        W 6863   7.517   3.891   8.994 -0.0580 -0.3131  0.0193
 2664W        W 6864  10.189   6.099  11.487  0.2052  0.0688  0.1060
 2665W        W 6865   1.245   8.094   3.167 -0.1407 -0.2510 -0.0118
 2666W        W 6866   7.112   6.238   0.477  0.0656  0.1832  0.2565
 2667W        W 6867   5.673   6.032   3.834 -0.0577 -0.0321 -0.1647
 2668W        W 6868   5.131  10.272  11.755  0.1924 -0.3472 -0.1814
 2669W        W 6869  10.695  10.111  12.144  0.0625 -0.0531  0.1460
 2670W        W 6870   7.065   1.390   9.212  0.1053 -0.2943 -0.2063
 2671W        W 6871   7.677   9.009   1.130  0.3924  0.0312 -0.2150
 2672W        W 6872   7.387   0.065   9.241  0.1075  0.0119  0.1286
 2673W        W 6873   0.960   0.076  11.456  0.0745  0.1447 -0.1310
 2674W        W 6874   7.047   4.380  12.361  0.2924 -0.1788 -0.3071
 2675W        W 6875   6.483   3.121   4.136 -0.0987 -0.2831  0.4245
 2676W        W 6876   6.388   1.542   1.312 -0.2135  0.1968 -0.0918
 2677W        W 6877   3.457  10.354   1.312  0.0573 -0.0401  0.1281
 2678W        W 6878   7.154   8.716  10.924 -0.0334  0.1218 -0.2351
 2679W        W 6879   2.880   2.668   2.766 -0.2719  0.0712  0.0572
 2680W        W 6880   8.465   7.574   1.730 -0.2563 -0.1975 -0.0046
 2681W        W 6881   8.746   4.413   9.215 -0.0585  0.1167 -0.2691
 2682W        W 6882  10.601   5.316   4.883 -0.0853  0.0950  0.5064
 2683W        W 6883   7.512   3.471   3.227 -0.0868 -0.2449 -0.2586
 2684W        W 6884   6.330  10.145   0.666 -0.0627 -0.1391 -0.1999
 2685W        W 6885   8.951   5.298   2.293  0.0023  0.1159 -0.1634
 2686W        W 6886   0.828  10.280   3.474  0.0885  0.0279  0.1330
 2687W        W 6887   9.947   8.858  12.139 -0.1254  0.0740 -0.3701
 2688W        W 6888   2.793   0.913   0.921  0.0003 -0.0204 -0.0939
 2689W        W 6889   9.628   0.939   9.296 -0.1499  0.0376 -0.1822
 2690W        W 6890   2.396   9.867   1.589 -0.0116  0.0502 -0.3306
 2691W        W 6891  10.523  10.691  11.421  0.3825 -0.0433 -0.2078
 2692W        W 6892   8.876   3.261   2.379  0.1726 -0.1481 -0.1362
 2693W        W 6893   6.050   3.770  12.791  0.1819  0.3909 -0.4184
 2694W        W 6894   3.322   0.272   2.926 -0.2428  0.2341 -0.1731
 2695W        W 6895   6.459   2.680  12.035 -0.2257  0.2145  0.1841
 2696W        W 6896   9.059   0.832   2.661  0.2405 -0.0173  0.1057
 2697W        W 6897   0.263   9.198   9.581  0.1276 -0.0013 -0.0785
 2698W        W 6898   6.774   3.966   8.600  0.2189 -0.1146  0.0985
 2699W        W 6899  10.326  10.007   7.541  0.3126 -0.0872 -0.3821
 2700W        W 6900   2.417   8.287   2.082  0.0252  0.0783 -0.0832
 2701W        W 6901   7.883   2.756  12.036 -0.1362 -0.2532  0.1573
 2702W        W 6902   6.510   0.232   3.757 -0.4606 -0.0066  0.2187
 2703W        W 6903   2.965   1.223  12.273  0.1333 -0.0578  0.1383
 2704W        W 6904   3.556   8.192   2.642 -0.1630  0.1433 -0.2692
 2705W        W 6905   1.055   7.973   3.682  0.1437 -0.1832 -0.0980
 2706W        W 6906   9.073   7.627   2.417 -0.0195 -0.3564  0.2625
 2707W        W 6907   6.177   6.287   8.626  0.1982 -0.0981  0.1416
 2708W        W 6908   9.070   2.736   9.324 -0.0806  0.2040  0.3518
 2709W        W 6909   6.887   3.601   9.378  0.0611 -0.0733  0.1931
 2710W        W 6910   3.619   8.894   2.506  0.1428  0.1212 -0.0057
 2711W        W 6911   8.947   0.845  12.775  0.1797  0.2118 -0.0876
 2712W        W 6912   6.028   3.585   2.728 -0.0521  0.0662  0.0845
 2713W        W 6913   2.345   4.057   3.426  0.0821  0.0485 -0.0711
 2714W        W 6914   7.667   8.684   8.549  0.0672  0.1371  0.1460
 2715W        W 6915   8.124   1.372   1.997  0.3456  0.2713  0.0999
 2716W        W 6916   2.533  10.023  10.709  0.1040 -0.2133 -0.0410
 2717W        W 6917   1.882   0.837   1.487  0.3187 -0.1084  0.2246
 2718W        W 6918   0.486   0.295  10.264  0.2063 -0.3410 -0.1831
 2719W        W 6919   2.134   6.995   2.717  0.0534 -0.1537 -0.2809
 2720W        W 6920   1.196   1.164   2.433 -0.2174 -0.1424  0.0567
 2721W        W 6921   7.947   8.655  12.114  0.1191  0.4025  0.1501
 2722W        W 6922   0.704   8.336   9.314  0.0710 -0.0191 -0.3904
 2723W        W 6923   0.339   7.458   2.303  0.0318  0.0409  0.2470
 2724W        W 6924   8.288   7.382  11.127 -0.2223  0.0973  0.3838
 2725W        W 6925   6.572   5.539   1.006 -0.3360 -0.3659 -0.0060
 2726W        W 6926   3.619   8.493   8.705 -0.1431 -0.4870 -0.2143
 2727W        W 6927   2.683   0.213   9.268 -0.3351  0.0974  0.0918
 2728W        W 6928   1.865   4.294   0.825  0.3004  0.1696  0.1484
 2729W        W 6929   3.536   3.404   0.007 -0.1601  0.1917  0.4259
 2730W        W 6930   7.214   8.314  10.629 -0.0579 -0.1757 -0.0907
 2731W        W 6931   5.123   8.866  10.066 -0.2157 -0.1040  0.0369
 2732W        W 6932   7.126   7.583  11.646  0.1911  0.2959 -0.1655
 2733W        W 6933   6.964   6.409   3.238  0.0038  0.2113 -0.1545
 2734W        W 6934   7.429   1.963   4.448  0.0371  0.2447 -0.5494
 2735W        W 6935   0.214   4.903  11.203  0.0217  0.3051  0.1331
 2736W        W 6936   7.799   0.893  12.295 -0.0035  0.3572  0.0800
 2737W        W 6937   5.216   8.779   3.848 -0.1519  0.2250  0.1034
 2738W        W 6938   2.635   5.320   1.157 -0.1216 -0.4822  0.2815
 2739W        W 6939   2.477  10.094   3.117  0.0921  0.2809 -0.0310
 2740W        W 6940   8.424   3.371  10.373 -0.0225 -0.0603  0.1056
 2741W        W 6941   9.366  10.622  10.159 -0.1490  0.0104  0.0607
 2742W        W 6942   9.171   9.884   3.470 -0.0203  0.0397  0.4644
 2743W        W 6943   6.082   2.842   0.875 -0.1830 -0.0868  0.0289
 2744W        W 6944   3.710   1.254   2.864  0.0791  0.0307 -0.0186
 2745W        W 6945   1.623   2.586   2.531 -0.1066  0.1264  0.2940
 2746W        W 6946   7.395   2.141  10.136  0.1480 -0.1317  0.0080
 2747W        W 6947   4.261   0.366   9.854 -0.0701  0.0579  0.1297
 2748W        W 6948   6.509   9.875   2.653 -0.1019  0.0508 -0.1468
 2749W        W 6949   3.919  10.235   2.705  0.1609  0.0337 -0.0809
 2750W        W 6950   6.655   4.028   2.995 -0.2091  0.0752  0.0396
 2751W        W 6951   3.050   5.749   0.850 -0.2736  0.1812  0.2122
 2752W        W 6952  10.245   5.645  10.653 -0.2247  0.2241 -0.3822
 2753W        W 6953   9.248  10.287   0.671  0.0371 -0.0353  0.4852
 2754W        W 6954   8.369   6.243  12.856  0.1358  0.0493  0.0773
 2755W        W 6955   2.987   3.786  10.841  0.1636  0.1143 -0.1969
 2756W        W 6956   1.401   0.375  10.308  0.0428  0.1065  0.2388
 2757W        W 6957  10.345   6.583   1.310 -0.0181 -0.0215 -0.1513
 2758W        W 6958   6.610   8.716   3.440 -0.1612  0.1686  0.0809
 2759W        W 6959   6.592   2.600  12.541 -0.4242  0.1071 -0.5520
 2760W        W 6960   9.273   6.917   0.221  0.1448  0.2422  0.2067
 2761W        W 6961   4.850   8.442   8.009 -0.0638  0.0269 -0.1369
 2762W        W 6962   4.731   0.058  11.975  0.0911 -0.2618  0.0477
 2763W        W 6963   1.433   8.197  10.329 -0.1045 -0.2230  0.0524
 2764W        W 6964   0.137   4.316   1.381  0.0371  0.1600  0.0071
 2765W        W 6965  10.122   1.581   1.811 -0.0857  0.0772  0.0243
 2766W        W 6966   2.587   2.544   9.924  0.0764 -0.1235  0.0659
 2767W        W 6967   3.895   4.862  12.662  0.1080  0.0257  0.0518
 2768W        W 6968   0.279   1.396   1.348  0.2266  0.0914 -0.2999
 2769W        W 6969   8.296   1.610   0.800 -0.1125 -0.0088  0.0481
 2770W        W 6970   3.088   0.076   1.639  0.2713 -0.1878 -0.2802
 2771W        W 6971   1.886   9.965   2.623  0.1276  0.2081 -0.1272
 2772W        W 6972   0.870   8.315   2.487  0.0599 -0.1651 -0.3050
 2773W        W 6973   1.946   4.478  12.382 -0.1860  0.2261 -0.2824
 2774W        W 6974   2.552  10.531   7.566  0.1604 -0.0063  0.3655
 2775W        W 6975   5.778   4.661  11.137  0.3793  0.2455  0.1928
 2776W        W 6976   5.553   5.001   8.294 -0.0793  0.1738  0.0318
 2777W        W 6977  10.084   0.865   9.068 -0.0250  0.0409  0.0458
 2778W        W 6978   1.527   9.594   0.811  0.1254  0.1841 -0.2581
 2779W        W 6979   6.136   8.146   1.890 -0.1565  0.0732 -0.0602
 2780W        W 6980   1.422   7.434   1.856 -0.0353 -0.0631  0.0875
 2781W        W 6981   3.244   9.667   9.828  0.1065 -0.1206 -0.0725
 2782W        W 6982   7.488   2.772  11.633  0.0171 -0.1208  0.0742
 2783W        W 6983   7.435   2.892   8.280 -0.0749 -0.1257  0.0258
 2784W        W 6984   9.638   4.707  12.598 -0.2019 -0.1993  0.1498
 2785W        W 6985   2.277   3.675   1.619  0.0401 -0.2623  0.2663
 2786W        W 6986   8.645   3.664   0.980  0.0750 -0.0428  0.1120
 2787W        W 6987   7.892   0.925   2.876 -0.1690 -0.3696 -0.1484
 2788W        W 6988   3.629   1.465  10.558 -0.0102 -0.1315 -0.1758
 2789W        W 6989   8.475   7.444  11.685 -0.1964 -0.2097 -0.0151
 2790W        W 6990   4.286   4.188   0.023 -0.1618 -0.1817  0.1861
 2791W        W 6991   4.190   8.434   0.855  0.2631 -0.0268 -0.1868
 2792W        W 6992   9.313   0.151   8.388  0.0216 -0.0188 -0.1809
 2793W        W 6993   4.552   9.759   9.302 -0.0110  0.1335  0.2418
 2794W        W 6994   7.962   8.900   0.542 -0.0096 -0.4951  0.1462
 2795W        W 6995   0.816   9.191  10.896  0.3120  0.3355 -0.2964
 2796W        W 6996   5.167   7.952   2.672 -0.0790  0.0155 -0.1321
 2797W        W 6997   5.573   7.601  10.402 -0.2209  0.1471 -0.1682
 2798W        W 6998   3.046   4.345   3.716 -0.1896 -0.0983  0.1505
 2799W        W 6999   6.123   6.840   2.814  0.0293  0.0715 -0.0023
 2800W        W 7000   5.402   7.588   0.326 -0.1215  0.0271  0.1319
 2801W        W 7001   1.950   4.806   9.369  0.1453 -0.4502  0.0691
 2802W        W 7002   3.459   1.621   0.217  0.2680 -0.1144 -0.1412
 2803W        W 7003   4.035   1.227   1.877 -0.0048 -0.0896 -0.2584
 2804W        W 7004   1.050   5.636  10.535  0.1287 -0.2440 -0.1037
 2805W        W 7005   3.151   0.779   0.664  0.1485  0.0417  0.0949
 2806W        W 7006   6.532   5.049  12.333  0.0048  0.1126  0.1898
 2807W        W 7007   2.719   8.758  12.618 -0.3127  0.2401 -0.0658
 2808W        W 7008   2.608   4.901   3.108 -0.1768  0.0577 -0.0589
 2809W        W 7009   8.750   4.862  11.362  0.1014  0.0183 -0.2526
 2810W        W 7010   3.164   6.633   9.993 -0.0034  0.1770 -0.0960
 2811W        W 7011   3.593   8.989   1.844  0.0636  0.1692 -0.0462
 2812W        W 7012   2.978   4.354   2.347  0.2671  0.0652 -0.2055
 2813W        W 7013   7.866   2.183   0.225 -0.1137 -0.0414  0.2662
 2814W        W 7014   9.588   1.304  10.813 -0.1407  0.2337 -0.0814
 2815W        W 7015   8.894   1.123   3.074 -0.1607 -0.1298  0.4145
 2816W        W 7016   0.757   2.927   1.826  0.0544  0.0972 -0.2039
 2817W        W 7017   1.820   6.543   2.742  0.0583 -0.3656 -0.1634
 2818W        W 7018   7.741   9.799   4.665 -0.1223  0.0099  0.0263
 2819W        W 7019  10.376   8.444  12.897  0.1557 -0.0569 -0.1171
 2820W        W 7020   7.594   3.768   0.788 -0.4261 -0.1724 -0.0224
 2821W        W 7021  10.361   0.690   0.920  0.0741  0.2281 -0.0295
 2822W        W 7022   6.880   2.106   3.627  0.3205  0.1233 -0.0704
 2823W        W 7023   5.806   2.761   3.372  0.0780  0.0990 -0.0791
 2824W        W 7024   8.095   8.735  11.507  0.2558 -0.0994  0.0844
 2825W        W 7025   9.482   8.513   3.218 -0.0127  0.1666  0.1462
 2826W        W 7026   5.043   6.195   9.927  0.1528 -0.2680  0.1024
 2827W        W 7027   4.611   1.223   9.441 -0.1939 -0.1933  0.2001
 2828W        W 7028   6.324   5.345  11.999 -0.0016 -0.0990  0.1545
 2829W        W 7029   6.119   3.456   8.770 -0.2215  0.3575 -0.0424
 2830W        W 7030   5.821   7.550   0.939  0.0430 -0.1206 -0.0782
 2831W        W 7031   6.377   9.583  12.883 -0.0279 -0.0854  0.1182
 2832W        W 7032  10.173   9.469   8.374  0.3215 -0.0489  0.3335
 2833W        W 7033   1.412   8.519  12.410  0.1122  0.1233 -0.0834
 2834W        W 7034   1.198   1.423  11.378 -0.1467 -0.0297 -0.0566
 2835W        W 7035   3.478   5.412  11.455 -0.1188  0.1481 -0.2506
 2836W        W 7036  10.414   8.086   2.260  0.0470  0.0107 -0.1017
 2837W        W 7037   0.888   5.274  10.199 -0.0507 -0.2475 -0.2938
 2838W        W 7038   9.884   7.252  10.616 -0.1138  0.0182  0.2541
 2839W        W 7039   9.785   1.873   1.654 -0.2005 -0.1741 -0.2851
 2840W        W 7040   6.427   1.234  11.510 -0.0046  0.3062  0.1637
 2841W        W 7041   9.860   2.323   0.145 -0.3012 -0.1428  0.0345
 2842W        W 7042   6.060   4.814   3.825 -0.1000  0.0104  0.1265
 2843W        W 7043   7.275   6.657   8.901 -0.1760 -0.0011 -0.3308
 2844W        W 7044   6.125   0.364   1.422 -0.1746 -0.1995 -0.0210
 2845W        W 7045   5.980   4.927   0.918 -0.0145  0.2341  0.3059
 2846W        W 7046   9.963   1.344   4.079 -0.1597  0.1592 -0.1073
 2847W        W 7047   7.823   8.317   9.789  0.0381  0.0176  0.1868
 2848W        W 7048   6.771   7.063   0.600 -0.2545 -0.1039 -0.0414
 2849W        W 7049   3.402   5.505  11.932  0.0538 -0.2410  0.0245
 2850W        W 7050   5.185   0.581   1.261  0.0598  0.0543  0.2341
 2851W        W 7051   6.017   6.226   3.138  0.0631 -0.1651 -0.2059
 2852W        W 7052   7.995   3.409  12.619 -0.3588  0.1204  0.0169
 2853W        W 7053   5.210   7.638  11.973 -0.1070 -0.0907 -0.1372
 2854W        W 7054   1.550  10.127  10.391  0.0807  0.4991 -0.1400
 2855W        W 7055   4.863   3.521   8.847 -0.0401  0.1897 -0.0989
 2856W        W 7056   5.032   7.528   3.447  0.0907  0.3093 -0.0509
 2857W        W 7057   9.742   4.342   1.547 -0.0617  0.3583 -0.4767
 2858W        W 7058   5.721  10.230   9.826  0.3748  0.0831 -0.2420
 2859W        W 7059   1.198  10.269  12.809  0.0457  0.0351  0.2602
 2860W        W 7060   2.167  10.204   0.743  0.1370 -0.2720  0.1101
 2861W        W 7061   2.050   5.024  12.610 -0.2060  0.5279 -0.0549
 2862W        W 7062   3.805   1.277   3.850 -0.1331  0.0099 -0.2233
 2863W        W 7063  10.526   4.820   4.657 -0.0832 -0.1440  0.0450
 2864W        W 7064   6.652   8.941   2.958  0.0844 -0.0303 -0.0323
 2865W        W 7065   0.237  10.093   9.667 -0.1642 -0.1966 -0.0967
 2866W        W 7066   2.993   4.635   1.921 -0.1304  0.1583  0.0196
 2867W        W 7067   8.316   4.626   3.260  0.0373 -0.1393 -0.0907
 2868W        W 7068   1.972   0.479   9.581 -0.1503 -0.1814 -0.0862
 2869W        W 7069   2.632   1.833  11.371 -0.1087  0.1771 -0.1953
 2870W        W 7070   5.861   3.600   1.538  0.0306 -0.2161 -0.0341
 2871W        W 7071   2.787   7.330   8.636  0.0023 -0.3050 -0.2813
 2872W        W 7072   4.095   6.742   9.765  0.2517  0.0091 -0.3227
 2873W        W 7073   0.369   9.626  10.340  0.0801  0.2177  0.2365
 2874W        W 7074   1.943   6.280  12.106  0.1055 -0.1095  0.2244
 2875W        W 7075   4.936   6.639  11.211 -0.2088 -0.2561 -0.2439
 2876W        W 7076   8.072   0.965   2.421 -0.0034  0.3912 -0.0799
 2877W        W 7077  10.344   7.970   3.467 -0.1014 -0.2617  0.1975
 2878W        W 7078   7.996   3.442   0.461  0.0335 -0.0234  0.1029
 2879W        W 7079   7.975   5.711   0.746  0.1517  0.0802 -0.0787
 2880W        W 7080   7.739   5.596   1.220  0.0932  0.1196 -0.2441
 2881W        W 7081   4.962   4.254  10.657 -0.2018 -0.0087 -0.1123
 2882W        W 7082   6.729  10.337  11.760  0.4026  0.1997  0.3154
 2883W        W 7083   0.556   0.074  10.780 -0.1502  0.1341 -0.0561
 2884W        W 7084   7.810   0.528   1.563  0.2318 -0.2577 -0.0165
 2885W        W 7085   4.691   5.359   2.032  0.0128 -0.1559  0.4736
 2886W        W 7086   8.022   2.967   0.571 -0.0207 -0.0160  0.1949
 2887W        W 7087   3.129   1.188   8.336  0.0450  0.0865  0.1356
 2888W        W 7088   9.488  10.066   1.886  0.1046  0.3466 -0.0916
 2889W        W 7089   1.111   5.120   3.905 -0.0294 -0.0386 -0.0537
 2890W        W 7090   1.275   3.755   3.923  0.2319 -0.0608 -0.1953
 2891W        W 7091   7.746   3.781  12.370  0.1966  0.1361 -0.1133
 2892W        W 7092   3.103   7.840  12.759  0.2882 -0.0720  0.1462
 2893W        W 7093  10.605   4.752  10.539 -0.0800  0.4224 -0.1359
 2894W        W 7094   7.456   2.595   9.988 -0.1045 -0.0338  0.0111
 2895W        W 7095   3.087   0.160   0.046 -0.2232  0.2297 -0.1225
 2896W        W 7096   5.831   3.880   2.350  0.1602  0.2337  0.2589
 2897W        W 7097   0.561  10.196   8.025  0.2807 -0.1938 -0.1561
 2898W        W 7098   8.656   5.040  12.591 -0.2446 -0.2279  0.1172
 2899W        W 7099   4.071   7.720   8.837  0.1919  0.0223 -0.2061
 2900W        W 7100   9.540   0.211   3.897  0.1613  0.2617 -0.0875
 2901W        W 7101   1.771   0.918  12.087 -0.0252 -0.2280 -0.3685
 2902W        W 7102   7.359   8.442  12.789  0.1159 -0.0006  0.1898
 2903W        W 7103  10.626   8.515  10.392 -0.2799  0.1536  0.0381
 2904W        W 7104   0.558   7.931   3.669 -0.0459 -0.5494 -0.1031
 2905W        W 7105   9.095   1.748   9.813 -0.1312  0.2499  0.1648
 2906W        W 7106   3.112   5.462   9.250  0.1250  0.0183  0.3999
 2907W        W 7107  10.353   7.466  10.488 -0.1309 -0.0583  0.2119
 2908W        W 7108   5.524   1.441  12.075  0.2285 -0.3932 -0.1858
 2909W        W 7109  10.264   7.662   9.638  0.2073  0.0583 -0.1493
 2910W        W 7110   7.215  10.410   1.065  0.1022 -0.0257  0.1424
 2911W        W 7111   1.851   0.873   9.258 -0.1952  0.1930  0.4454
 2912W        W 7112   5.932   4.015   9.570  0.0942  0.0849  0.0433
 2913W        W 7113   3.984   7.221   9.620  0.2789  0.1908  0.3389
 2914W        W 7114   5.318   0.713   3.375 -0.0470  0.0817 -0.1911
 2915W        W 7115   9.301   9.788   9.108  0.0536  0.4344 -0.3692
 2916W        W 7116   4.787   5.199   8.919 -0.1186 -0.0591 -0.1005
 2917W        W 7117  10.529   5.697  12.174  0.2649  0.1367 -0.0934
 2918W        W 7118   7.281   9.171   2.338 -0.0419  0.1785  0.1888
 2919W        W 7119   0.837   1.920  12.455 -0.1150 -0.4248  0.0219
 2920W        W 7120   4.722   4.161  11.953 -0.0479  0.2503  0.0260
 2921W        W 7121   9.619   2.693   9.006  0.0488  0.1787 -0.1025
 2922W        W 7122   7.900   1.005  11.565  0.0424  0.0082  0.1481
 2923W        W 7123   5.510   7.225   9.098 -0.1994  0.1142 -0.2663
 2924W        W 7124   8.275   9.632   2.740 -0.0527 -0.0620  0.4129
 2925W        W 7125   9.501   7.486   2.681  0.0037  0.0649 -0.3188
 2926W        W 7126   0.005   0.704   3.417  0.0370 -0.0236  0.0043
 2927W        W 7127   1.356   3.713   9.762  0.2012 -0.1173  0.0008
 2928W        W 7128   5.130   4.969  12.709  0.0017 -0.2113  0.1428
 2929W        W 7129   1.103   7.310  10.778  0.0109 -0.1248 -0.0600
 2930W        W 7130   8.812   0.280  10.821 -0.1592  0.0520  0.0529
 2931W        W 7131   1.663   6.025   3.815  0.1841  0.0377 -0.3034
 2932W        W 7132   6.629   2.030   1.262  0.0742 -0.3349  0.0478
 2933W        W 7133   5.681   6.766   3.040 -0.0304  0.2187 -0.0584
 2934W        W 7134   5.609   9.103  10.710  0.1432  0.1072  0.2257
 2935W        W 7135   9.847  10.224   1.480  0.1237  0.2740  0.0088
 2936W        W 7136   1.837   0.343   3.410  0.0040  0.1714 -0.3088
 2937W        W 7137   5.472   6.557   1.394 -0.0317  0.1165 -0.0011
 2938W        W 7138   9.497  10.466   3.324  0.1844  0.2852 -0.2651
 2939W        W 7139   5.153  10.654   0.013  0.0194  0.2425  0.1878
 2940W        W 7140   4.486   5.700  11.257  0.0444 -0.0648  0.1996
 2941W        W 7141   9.736   9.348  12.896  0.3042 -0.0964  0.0416
 2942W        W 7142   3.350   5.788   9.681 -0.0405  0.0842  0.1223
 2943W        W 7143   5.001   3.898   7.984  0.0426 -0.3209 -0.0956
 2944W        W 7144   7.409   1.496   1.372 -0.1201  0.2112  0.3223
 2945W        W 7145   7.658   1.910  12.306 -0.1068 -0.3793  0.3102
 2946W        W 7146   1.696   4.247   0.236  0.1935  0.0634  0.1685
 2947W        W 7147   2.045   5.823   9.250 -0.2917 -0.1402  0.0494
 2948W        W 7148   8.526   5.559   2.465  0.0265  0.0997 -0.1672
 2949W        W 7149   4.051   0.402  12.529 -0.2986 -0.0535 -0.2482
 2950W        W 7150   7.013   5.247  11.439 -0.1492 -0.0508  0.0887
 2951W        W 7151   8.723   2.629  10.952 -0.0929  0.0293  0.0428
 2952W        W 7152  10.193   8.720   2.961  0.1195 -0.1414  0.3698
 2953W        W 7153   8.967   5.173  12.198  0.1238  0.1432  0.0889
 2954W        W 7154   5.153   2.098  12.454  0.1509 -0.3234 -0.1503
 2955W        W 7155   6.095   4.766   1.371  0.0762  0.1150 -0.0816
 2956W        W 7156   9.041   3.847   9.198  0.3323 -0.2169  0.0125
 2957W        W 7157  10.102   9.106   2.286  0.2236 -0.0103 -0.0248
 2958W        W 7158   5.381   9.316   1.449 -0.1289 -0.1213 -0.1310
 2959W        W 7159   9.611   1.366   4.512 -0.1020  0.0069 -0.0846
 2960W        W 7160   8.554   0.977   9.240 -0.2419  0.1658 -0.1494
 2961W        W 7161   3.502   7.518   3.242 -0.2404 -0.1749  0.3229
 2962W        W 7162   5.054   3.030  11.308 -0.4196  0.2333 -0.1783
 2963W        W 7163   2.698   0.311  10.809  0.0169 -0.0319 -0.1216
 2964W        W 7164   8.228  10.484  11.147 -0.1547  0.2385  0.4292
 2965W        W 7165  10.660   8.088   0.884 -0.2580  0.1036 -0.0227
 2966W        W 7166   9.955   0.513   3.167  0.4592 -0.1115 -0.4326
 2967W        W 7167   5.961   6.418   1.248 -0.0954 -0.2909 -0.2998
 2968W        W 7168   4.549   1.803   2.874  0.1261 -0.0362 -0.3500
 2969W        W 7169   2.556   5.888   0.959  0.1052 -0.3446  0.2100
 2970W        W 7170   4.718   1.886  11.669  0.1329  0.0353 -0.3339
 2971W        W 7171   1.132   2.682   2.202  0.2526  0.0780 -0.2403
 2972W        W 7172   9.654   2.145  12.474 -0.0485 -0.1156  0.1867
 2973W        W 7173   6.358   5.202   0.636  0.0735 -0.2257  0.0665
 2974W        W 7174  10.409   4.226  10.746  0.1417 -0.2464 -0.0997
 2975W        W 7175   1.367   0.390   0.249 -0.0434  0.0673 -0.4023
 2976W        W 7176  10.179   1.124  12.376  0.3641  0.4670 -0.0842
 2977W        W 7177   4.638   0.097  11.027 -0.0042 -0.0260  0.1005
 2978W        W 7178   3.001  10.659   3.202 -0.1363 -0.4017 -0.0654
 2979W        W 7179   9.108   2.665  11.278 -0.0041  0.0666 -0.0403
 2980W        W 7180   5.865   4.358   2.031  0.1337  0.0823  0.3403
 2981W        W 7181   5.661   7.166  10.655 -0.1781 -0.0312 -0.2065
 2982W        W 7182   0.069   0.572   0.452 -0.1327  0.0151  0.1558
 2983W        W 7183   2.993   2.244   9.121 -0.1062  0.0285 -0.2941
 2984W        W 7184   9.712   6.344   0.670 -0.2508 -0.1952 -0.2289
 2985W        W 7185   4.826  10.549   3.460 -0.2745  0.0039  0.0204
 2986W        W 7186   5.832   7.201   8.236 -0.0249 -0.0668 -0.2765
 2987W        W 7187   8.244   7.474   2.201  0.2583 -0.1003  0.0824
 2988W        W 7188  10.599   6.973   3.522 -0.1652 -0.0390  0.0516
 2989W        W 7189   5.795   1.345  10.583  0.0321 -0.2125  0.1714
 2990W        W 7190   7.692   7.881   1.796  0.0928  0.2083 -0.1777
 2991W        W 7191   0.306   6.524  12.604 -0.2576  0.0242  0.0441
 2992W        W 7192   2.791  10.599   1.304  0.0046  0.3375 -0.0884
 2993W        W 7193   2.113   9.641   1.916 -0.2174 -0.0927 -0.1137
 2994W        W 7194   8.753   1.819   8.781 -0.1024  0.1637 -0.0376
 2995W        W 7195   9.724   5.169   9.880  0.3262 -0.0881  0.4120
 2996W        W 7196   9.077   7.884   0.639 -0.0755 -0.1637  0.2546
 2997W        W 7197   9.295   5.980   9.790  0.0163 -0.1194  0.0656
 2998W        W 7198  10.552   6.136   1.658  0.0330  0.0669 -0.1225
 2999W        W 7199   7.903   0.425   3.784  0.1381  0.1052 -0.3384
 3000W        W 7200   8.028   2.041  10.558 -0.3632  0.2355 -0.0524
 3001W        W 7201   5.779   2.947   9.726  0.0353  0.0549  0.1596
 3002W        W 7202   3.259   1.217   9.627  0.1641 -0.1043 -0.1463
 3003W        W 7203   4.999  10.101   0.974 -0.0089  0.0346  0.0692
 3004W        W 7204   5.200   3.432   0.680 -0.0246  0.2117  0.0191
 3005W        W 7205   6.685   9.227   0.185  0.1688  0.3813 -0.1277
 3006W        W 7206   8.570   3.771   2.351 -0.2750  0.1081  0.0813
 3007W        W 7207   0.716   1.261  12.768 -0.0828 -0.0938 -0.2820
 3008W        W 7208   3.627   6.834   1.567 -0.0936 -0.2677  0.2118
 3009W        W 7209   8.715   9.594   3.029  0.0619  0.0945 -0.1171
 3010W        W 7210   9.094   4.597   3.815  0.2301  0.1027 -0.1104
 3011W        W 7211   1.299   3.582   2.482  0.0713  0.2174 -0.0703
 3012W        W 7212   7.407   1.045   2.943  0.1431 -0.1017 -0.0863
 3013W        W 7213   5.456   8.372  11.102 -0.3588 -0.2560 -0.1416
 3014W        W 7214  10.200   0.156   7.738 -0.1841  0.0986  0.0982
 3015W        W 7215   5.130   7.730   8.676 -0.2844 -0.0862  0.2645
 3016W        W 7216   6.162   6.071  12.858  0.0645 -0.1202 -0.1126
 3017W        W 7217   7.055   7.763  12.488 -0.2160 -0.2883  0.1170
 3018W        W 7218   3.752   7.078   3.971 -0.2646  0.0219  0.3587
 3019W        W 7219   2.355   9.565   3.823 -0.0173  0.0611  0.1759
 3020W        W 7220   3.326   6.093  12.590  0.0831  0.0654  0.0824
 3021W        W 7221   2.034   8.777   0.938 -0.0069  0.0888 -0.0245
 3022W        W 7222   0.013   8.778   7.954 -0.0485 -0.0182 -0.0630
 3023W        W 7223   5.137   3.517  10.270 -0.1268 -0.3206  0.3089
 3024W        W 7224   6.117   3.654   3.614  0.1708  0.0960 -0.0957
 3025W        W 7225   3.235   6.901   9.091  0.1965 -0.0689 -0.1130
 3026W        W 7226   2.559   6.656  11.717 -0.2734  0.0429 -0.2011
 3027W        W 7227   9.321   9.722   0.330 -0.0331  0.0008 -0.0934
 3028W        W 7228   5.558   4.778   1.261  0.0664  0.0535  0.0003
 3029W        W 7229   9.504   7.698   0.813 -0.3216 -0.1909  0.3107
 3030W        W 7230   2.292   1.344  11.470  0.0370  0.1386 -0.3311
 3031W        W 7231   7.316   8.660   9.878  0.0512 -0.0987  0.2175
 3032W        W 7232   5.602   9.725   2.921  0.1204 -0.1683  0.1346
 3033W        W 7233   9.547   6.160   1.748 -0.2565  0.1007 -0.2557
 3034W        W 7234   3.919   6.096  12.487  0.1112  0.0554  0.1061
 3035W        W 7235   3.209   7.254  11.640  0.1575  0.1427 -0.1971
 3036W        W 7236   8.176   3.710   8.918 -0.1882 -0.1657 -0.0544
 3037W        W 7237   6.264   8.354  11.027  0.0789 -0.1141  0.2359
 3038W        W 7238  10.121   7.841  12.397 -0.1877  0.2745 -0.1910
 3039W        W 7239   0.076   6.670  12.177  0.3153  0.1082  0.0444
 3040W        W 7240   6.176   3.982   8.865 -0.2493 -0.1212  0.1080
 3041W        W 7241   4.351   0.441   9.301 -0.4112  0.0396  0.2167
 3042W        W 7242   4.342   9.644  11.721 -0.1954  0.1346  0.0885
 3043W        W 7243   9.824   2.258   1.997  0.3574  0.2974 -0.0290
 3044W        W 7244   7.651   5.737   3.587 -0.0304 -0.0605  0.0924
 3045W        W 7245  10.131   3.107   4.552  0.2258 -0.1531  0.3258
 3046W        W 7246   5.995   8.513   3.592 -0.4603 -0.0752  0.2762
 3047W        W 7247   0.594   9.223  10.465 -0.2394  0.3810 -0.2981
 3048W        W 7248   6.923   1.515   1.367  0.2905  0.1035  0.1600
 3049W        W 7249   9.692   5.722  10.054 -0.0705  0.0910  0.0624
 3050W        W 7250   9.950   7.561  11.808 -0.1082  0.3482 -0.1863
 3051W        W 7251   2.200   2.064   0.526 -0.0219  0.1566  0.2555
 3052W        W 7252   5.437   5.311  10.096  0.1030  0.4708 -0.0195
 3053W        W 7253   9.130   2.778   1.588  0.1665  0.2432 -0.1835
 3054W        W 7254   6.130   7.920   8.221  0.3098  0.0211  0.1252
 3055W        W 7255   4.092   4.179  11.316 -0.1442  0.0263  0.0752
 3056W        W 7256   5.473   9.586   0.856 -0.0031  0.0040  0.2484
 3057W        W 7257   2.359   6.756  12.378 -0.1089 -0.2518  0.1269
 3058W        W 7258   9.125   2.814  12.685  0.1133  0.1189 -0.2438
 3059W        W 7259   4.127   6.023   3.756  0.2251 -0.0639 -0.1393
 3060W        W 7260   3.394   7.219  10.765 -0.0217  0.2945  0.3077
 3061W        W 7261   9.778   1.544   0.213  0.2279  0.1957 -0.0318
 3062W        W 7262   5.992   0.986   2.602 -0.0921 -0.0110  0.0214
 3063W        W 7263   0.349   7.049  12.399  0.4345 -0.0260  0.0178
 3064W        W 7264   2.691   1.454   8.154  0.0917  0.1713  0.1182
 3065W        W 7265   3.849  10.582   2.170  0.1252  0.0827 -0.0122
 3066W        W 7266   7.554   0.917   2.395 -0.0317 -0.0623 -0.0753
 3067W        W 7267   0.118   9.792   3.614  0.0970  0.0377 -0.1425
 3068W        W 7268   3.070   8.033   1.629  0.0279  0.3511  0.0112
 3069W        W 7269   3.056   6.835  11.884  0.2361 -0.1376  0.1674
 3070W        W 7270   6.017   2.294   3.263  0.1003 -0.2787 -0.2178
 3071W        W 7271   7.320   1.898   3.427  0.1660 -0.1045  0.0111
 3072W        W 7272   4.289   9.375  10.086 -0.3049  0.0211 -0.1777
 3073W        W 7273   6.859   2.922   2.049  0.0686  0.1050 -0.3158
 3074W        W 7274   5.032   0.617   2.185  0.2183 -0.1469 -0.0801
 3075W        W 7275   7.740   4.726  12.192  0.0252  0.0735 -0.0892
 3076W        W 7276   5.982   3.173  12.778  0.1640 -0.0153  0.1382
 3077W        W 7277   5.840   3.195   9.317 -0.4247 -0.1756  0.2805
 3078W        W 7278   6.344  10.685  11.090  0.1729 -0.0498 -0.0050
 3079W        W 7279   9.527   4.666   1.834 -0.3347 -0.0709 -0.1774
 3080W        W 7280   3.525   5.905   3.144  0.1243  0.0412  0.3113
 3081W        W 7281   9.926   9.287  12.373 -0.2727 -0.3411 -0.1562
 3082W        W 7282   5.394   4.356   2.673 -0.1553 -0.3796  0.0701
 3083W        W 7283   5.599   8.728   2.120 -0.4751  0.0858 -0.0640
 3084W        W 7284   7.927   4.367   0.113  0.2675 -0.1261 -0.0098
 3085W        W 7285   8.492   0.500   8.291 -0.0470  0.0415 -0.2526
 3086W        W 7286   5.702   2.254   7.945 -0.1393 -0.1100  0.1522
 3087W        W 7287   3.521   9.903   8.092 -0.0167  0.2511 -0.1546
 3088W        W 7288   5.607   7.786   2.350  0.1699 -0.0798  0.1499
 3089W        W 7289   8.041   4.023   1.491 -0.0669  0.2437 -0.2250
 3090W        W 7290   9.027   6.525   0.580  0.0933  0.3370 -0.0438
 3091W        W 7291   4.438   5.438  12.137  0.0640 -0.1083 -0.0560
 3092W        W 7292   9.384   4.892   9.186  0.0308  0.0247 -0.0031
 3093W        W 7293   2.741   0.923   0.256  0.1267 -0.1338 -0.1099
 3094W        W 7294   8.052  10.126   1.961 -0.0519  0.1673  0.1250
 3095W        W 7295   2.098   0.476  11.898 -0.2561  0.0402  0.3619
 3096W        W 7296   0.131   4.553   2.517 -0.2044  0.2174  0.0138
 3097W        W 7297   6.836   3.009  12.427  0.0663  0.0029 -0.1766
 3098W        W 7298   9.399   3.584   0.527  0.3215  0.2064  0.1574
 3099W        W 7299   2.263   2.574  10.660 -0.0297 -0.0740  0.0002
 3100W        W 7300   5.347   2.511  10.581 -0.0174 -0.0639  0.2545
 3101W        W 7301   9.063   7.469   0.970  0.2435 -0.2825 -0.1419
 3102W        W 7302   8.166   0.375   1.859  0.2856 -0.3594 -0.4480
 3103W        W 7303   8.428   6.054  10.339 -0.0303  0.2197  0.0234
 3104W        W 7304  10.284   0.645  12.148  0.0536 -0.2846  0.2224
 3105W        W 7305   0.850   3.175   9.652 -0.2814  0.3039  0.1678
 3106W        W 7306   1.101   0.959  11.026  0.0351  0.1897 -0.2497
 3107W        W 7307   3.999  10.630   3.033  0.0992  0.0934  0.0173
 3108W        W 7308   1.904   2.618   3.204  0.1534 -0.4602  0.0552
 3109W        W 7309   2.237   5.825   1.994 -0.0374 -0.0532  0.1672
 3110W        W 7310   2.456   8.302   4.285  0.2978  0.2371  0.0798
 3111W        W 7311   4.755   6.352   9.190  0.2796  0.2917  0.1356
 3112W        W 7312   0.551   3.650   9.015  0.1455  0.0749  0.0954
 3113W        W 7313   2.574   6.413   1.005  0.1847 -0.0464 -0.0769
 3114W        W 7314   1.146   7.649  11.231 -0.1063  0.1864 -0.1018
 3115W        W 7315   9.183   5.119   3.111 -0.1399  0.0691 -0.0692
 3116W        W 7316   8.694  10.585   9.157 -0.0545 -0.1699  0.2777
 3117W        W 7317   2.737   3.197   3.031 -0.0838 -0.3002  0.0096
 3118W        W 7318   1.966   7.138   1.550  0.0737  0.4769 -0.1245
 3119W        W 7319   3.623  10.587  10.481  0.2235 -0.1384 -0.0040
 3120W        W 7320   7.148   4.722   8.837  0.3294 -0.3144 -0.0282
 3121W        W 7321   6.345   7.978  10.710  0.2812 -0.0861 -0.0474
 3122W        W 7322   9.477   1.468   9.100  0.1269 -0.0798 -0.2991
 3123W        W 7323   1.245   6.661  10.462 -0.3607 -0.2225 -0.0420
 3124W        W 7324   2.888   9.351   3.159  0.0915 -0.0378 -0.0845
 3125W        W 7325  10.131   5.575  10.172  0.1657 -0.0804  0.1565
 3126W        W 7326   3.089   7.504   0.214 -0.4413 -0.0314  0.4898
 3127W        W 7327   8.915   4.145  11.809 -0.0038 -0.2185 -0.2399
 3128W        W 7328   8.131   4.689  10.481 -0.0292  0.0670 -0.2168
 3129W        W 7329   7.279   3.997   2.574  0.3147 -0.0140 -0.1258
 3130W        W 7330   0.031   4.329   3.600  0.0911 -0.0775  0.0563
 3131W        W 7331   5.818   5.190  10.380 -0.1629 -0.0077  0.1540
 3132W        W 7332   3.894   4.669  10.302 -0.1580 -0.1056 -0.1119
 3133W        W 7333   8.011   6.332  10.147 -0.0546  0.0842  0.0948
 3134W        W 7334   8.375   3.832   8.490 -0.1870 -0.0784  0.2159
 3135W        W 7335   1.647   7.379   2.332  0.1764  0.1651 -0.2427
 3136W        W 7336  10.170   5.415  12.542 -0.1664 -0.0064 -0.4889
 3137W        W 7337   2.610   7.534   0.242  0.1277  0.1081  0.0949
 3138W        W 7338   4.148   1.752   2.082  0.4547 -0.1072  0.3473
 3139W        W 7339  10.327   9.955   1.815 -0.3152  0.1135  0.1252
 3140W        W 7340   0.667   2.337  12.078  0.0165  0.0509 -0.2364
 3141W        W 7341   7.409   4.614   2.803 -0.1187 -0.5259  0.0416
 3142W        W 7342   3.850   6.989   2.720 -0.2260  0.0431  0.1541
 3143W        W 7343   9.988  10.351   2.125 -0.2998 -0.2912  0.1058
 3144W        W 7344   9.324   3.768  12.837 -0.2337 -0.0610  0.0086
 3145W        W 7345  10.364   3.264   8.415 -0.0996  0.0801  0.0208
 3146W        W 7346   1.565   7.723   9.755  0.0444  0.1902  0.0849
 3147W        W 7347   2.674  10.488   2.836  0.3672  0.0447 -0.1884
 3148W        W 7348   0.747   3.893   1.448 -0.0729  0.2176  0.2420
 3149W        W 7349   4.982   3.406   1.236 -0.0170  0.0723  0.6963
 3150W        W 7350   6.845   3.805   9.870 -0.1222  0.3023  0.4476
 3151W        W 7351   0.266   4.583   9.885  0.0225 -0.3548  0.1192
 3152W        W 7352   4.503  10.539   9.215 -0.3945 -0.1153  0.0066
 3153W        W 7353   5.822   5.268   0.540 -0.0780 -0.1024 -0.1813
 3154W        W 7354   7.054   9.686   9.267  0.0588  0.0819  0.0746
 3155W        W 7355   4.139   6.918   2.202 -0.1357  0.0924  0.1559
 3156W        W 7356   6.648   3.555   3.635  0.0454 -0.2444 -0.0065
 3157W        W 7357   0.417   0.591   1.557 -0.2202  0.2547 -0.0631
 3158W        W 7358  10.404   1.048   1.244  0.2109  0.0193  0.0510
 3159W        W 7359   8.562   7.705  10.873 -0.0044  0.0455 -0.1307
 3160W        W 7360   8.383   2.045  12.395  0.2895  0.0057  0.1886
 3161W        W 7361   1.016  10.687   9.606  0.1042 -0.1736  0.0751
 3162W        W 7362   1.492   4.017   2.860 -0.1971 -0.0364  0.4296
 3163W        W 7363   5.018   8.623  12.442  0.0522 -0.3240 -0.0974
 3164W        W 7364   0.850   0.649  10.546  0.1118  0.1352 -0.0192
 3165W        W 7365  10.657   9.041  12.890  0.2387 -0.2538 -0.1729
 3166W        W 7366   0.732   9.473   1.510 -0.1163 -0.2534 -0.1124
 3167W        W 7367   4.979   7.110   7.823 -0.2959  0.0538 -0.0828
 3168W        W 7368   4.511  10.255   1.071 -0.2319  0.0825 -0.1298
 3169W        W 7369   6.677   8.972   1.628  0.2235 -0.2667  0.2395
 3170W        W 7370   3.397   9.159   9.543 -0.0733 -0.0009  0.1462
 3171W        W 7371   5.816  10.419   3.060 -0.2116  0.1224  0.2318
 3172W        W 7372   6.096   9.787  10.657  0.0820  0.1837 -0.3174
 3173W        W 7373   4.800   6.462   2.752  0.3662 -0.1842 -0.0222
 3174W        W 7374   9.079   6.875  12.648  0.0336  0.0420 -0.0808
 3175W        W 7375  10.479   4.122  11.888 -0.3568  0.1523 -0.1515
 3176W        W 7376   5.388   0.042   0.511  0.2138  0.1934  0.4585
 3177W        W 7377   6.850   2.583   3.615  0.0583 -0.0879 -0.1795
 3178W        W 7378   8.587   9.392  11.783 -0.0604  0.0751  0.2584
 3179W        W 7379   7.598   3.233   0.619 -0.3160  0.0952  0.1312
 3180W        W 7380   1.005   8.064   0.777  0.0321  0.1640 -0.0474
 3181W        W 7381   8.839   3.216  10.624  0.0428 -0.0935 -0.0945
 3182W        W 7382   7.913   7.428  10.304 -0.1702 -0.0746  0.0024
 3183W        W 7383   5.350   6.364   9.109 -0.3048  0.2380  0.0939
 3184W        W 7384   3.800  10.296   1.684 -0.1305  0.2051 -0.0058
 3185W        W 7385   2.217   1.944   9.115  0.1974 -0.3154  0.1325
 3186W        W 7386   3.749   8.035   8.508 -0.3015 -0.0863 -0.1848
 3187W        W 7387   1.940   3.951   1.247  0.3114 -0.1020 -0.0616
 3188W        W 7388   0.684   7.899  11.324 -0.1154  0.0027 -0.3194
 3189W        W 7389   2.663  10.671  11.191 -0.1318  0.3391 -0.0153
 3190W        W 7390  10.145   8.312   0.962  0.2006 -0.5779 -0.1063
 3191W        W 7391   2.328   8.392   1.183 -0.1339 -0.1176  0.1467
 3192W        W 7392   5.287   4.119   3.672  0.2424 -0.1951  0.0756
 3193W        W 7393   3.750   2.672   3.486 -0.0315  0.3704  0.2385
 3194W        W 7394   4.699   9.871   1.392 -0.1055 -0.1412 -0.2074
 3195W        W 7395   9.606   4.538   3.672 -0.0073  0.0753 -0.4016
 3196W        W 7396   1.893   2.927  10.683 -0.4112  0.0734  0.0944
 3197W        W 7397   4.265   0.993  11.936 -0.1290  0.2306  0.0163
 3198W        W 7398   0.256   6.132  11.027 -0.2811 -0.0925  0.2722
 3199W        W 7399   6.634   4.652  10.878 -0.2038 -0.0401  0.0150
 3200W        W 7400   0.429   9.371  11.971  0.0058 -0.0978  0.0277
 3201W        W 7401   4.464   3.282   1.928 -0.1165  0.1936 -0.1899
 3202W        W 7402   5.175   9.325   7.939  0.1239  0.0193  0.3160
 3203W        W 7403   7.809   9.362   1.462 -0.0753 -0.0028  0.0437
 3204W        W 7404   8.829   4.963   1.090  0.0761 -0.0236 -0.1085
 3205W        W 7405   3.197   5.703  10.577 -0.0095  0.1331  0.1118
 3206W        W 7406   5.590   7.904   9.768  0.0278 -0.0960  0.1576
 3207W        W 7407   1.508   1.262   2.882  0.3029 -0.0532  0.0751
 3208W        W 7408   7.433   8.045   2.313  0.0546  0.0948  0.0361
 3209W        W 7409   6.435   3.687   8.389  0.0787 -0.1023 -0.0953
 3210W        W 7410   2.016   9.320   9.585 -0.0048  0.1567 -0.2171
 3211W        W 7411   2.407   4.398   3.020 -0.2870  0.0402  0.1164
 3212W        W 7412   9.379   2.824   0.185 -0.4263 -0.1813  0.0865
 3213W        W 7413   4.940   3.015   8.975  0.0312  0.3037 -0.1264
 3214W        W 7414   9.405   6.081   2.313  0.1864 -0.2719 -0.0674
 3215W        W 7415   3.089   3.233  11.627 -0.0084 -0.0678  0.2736
 3216W        W 7416   9.908   1.967   2.807  0.2842  0.1502  0.0500
 3217W        W 7417   1.980   7.734   2.553  0.0828  0.1036  0.2025
 3218W        W 7418   1.932   9.375   3.141  0.0464 -0.1152 -0.0696
 3219W        W 7419   9.193   9.271   8.300 -0.0579 -0.0504  0.0464
 3220W        W 7420   4.339   8.151   1.706 -0.0165  0.0711  0.1965
 3221W        W 7421   8.215   7.327  12.098 -0.1238  0.0230 -0.1420
 3222W        W 7422   2.394   8.212   8.897  0.1757  0.2926 -0.0055
 3223W        W 7423   7.781   3.009   3.419  0.1505 -0.0368 -0.0773
 3224W        W 7424   9.106   4.423  12.292  0.0382 -0.0252 -0.3436
 3225W        W 7425   3.787  10.502   8.525  0.1993  0.0882 -0.0711
 3226W        W 7426   8.608   7.644   0.483 -0.0907  0.1366 -0.0944
 3227W        W 7427   2.499   7.094   9.638  0.1039 -0.2256  0.0052
 3228W        W 7428   7.837   8.862   2.108  0.0473 -0.3491 -0.2141
 3229W        W 7429   6.490   3.164   2.799 -0.0182 -0.0278  0.2014
 3230W        W 7430   7.853   8.884  12.639  0.0905  0.0367  0.0249
 3231W        W 7431   2.401   6.046  10.970  0.1079  0.0493 -0.0688
 3232W        W 7432   2.066   4.787   3.275  0.4634  0.5764  0.1409
 3233W        W 7433   9.176   6.393   1.937 -0.0123 -0.0677  0.0057
 3234W        W 7434   6.557   1.109   1.177  0.2450 -0.1223  0.0275
 3235W        W 7435  10.639   9.402  10.576  0.1287 -0.1375 -0.0769
 3236W        W 7436   5.839   2.367   8.875  0.0379 -0.0030  0.3356
 3237W        W 7437   4.683   1.521   1.587  0.0959  0.1606 -0.1194
 3238W        W 7438   4.077   6.800   4.214 -0.0336  0.0268 -0.3241
 3239W        W 7439   9.242   1.523  12.281  0.0611  0.2612  0.0950
 3240W        W 7440   0.611   0.199   3.166 -0.2356  0.1275  0.1290
 3241W        W 7441   6.304   0.093  11.848  0.1744 -0.0595  0.0968
 3242W        W 7442   2.007   8.330   0.314 -0.2863 -0.1544  0.0628
 3243W        W 7443   5.544   4.068   4.150 -0.0414  0.1744 -0.1763
 3244W        W 7444  10.199   5.898   9.794  0.0576  0.1782  0.1276
 3245W        W 7445   6.232   1.089   0.337 -0.1796 -0.0211 -0.6980
 3246W        W 7446   0.015   3.988  11.172  0.3757  0.0887  0.1234
 3247W        W 7447   3.186   0.148   9.590  0.0725 -0.3823  0.1670
 3248W        W 7448  10.113   0.081   0.772 -0.2823 -0.0152 -0.1157
 3249W        W 7449   4.525   7.035   8.645  0.1377  0.0560 -0.1361
 3250W        W 7450   3.298   1.316   3.773  0.0156 -0.2285  0.0310
 3251W        W 7451   9.332   5.629  11.350 -0.0852 -0.0285  0.1194
 3252W        W 7452   9.255   0.079  12.308  0.1722 -0.1838  0.1087
 3253W        W 7453   9.425   8.674   0.555  0.0098 -0.0672 -0.3796
 3254W        W 7454  10.522   4.647   0.577 -0.1141  0.1587  0.1564
 3255W        W 7455   3.534   6.325  11.693 -0.0108  0.0646 -0.0139
 3256W        W 7456   1.106   1.974  10.273  0.0605 -0.1668  0.2874
 3257W        W 7457  10.426   4.698   1.511  0.1310  0.0802  0.3522
 3258W        W 7458   3.102   0.895   2.359  0.0264 -0.1869 -0.1073
 3259W        W 7459   8.274   8.717  10.497 -0.3552  0.1254 -0.2449
 3260W        W 7460  10.204   9.712   0.575 -0.0822 -0.4005 -0.0392
 3261W        W 7461   7.161   9.770   3.380 -0.2743  0.0933 -0.1867
 3262W        W 7462  10.412   8.797   1.803  0.1351  0.0090 -0.2378
 3263W        W 7463   2.572   0.190   1.825  0.0257 -0.2490 -0.0367
 3264W        W 7464   8.489   0.944   2.785  0.0974 -0.1683 -0.1777
 3265W        W 7465   0.533  10.468   9.442 -0.0008 -0.1830  0.2548
 3266W        W 7466   8.843   4.187  12.661 -0.2701  0.2831 -0.0822
 3267W        W 7467   8.267   1.368   1.448  0.6915  0.0222 -0.4796
 3268W        W 7468   2.426   1.517   8.896 -0.0998 -0.1464  0.4131
 3269W        W 7469   2.124   2.845   0.864 -0.1077  0.2597 -0.1044
 3270W        W 7470   7.015   7.465   0.252  0.0314  0.2895 -0.0900
 3271W        W 7471   4.582  10.563   9.727 -0.1261 -0.2901 -0.2008
 3272W        W 7472   2.515   8.391  11.133 -0.3073 -0.2262 -0.0705
 3273W        W 7473   9.102   7.734  12.328 -0.2052 -0.0700 -0.0814
 3274W        W 7474   9.148   5.025   9.841 -0.0171 -0.2566  0.0871
 3275W        W 7475   1.522   1.197   2.034  0.0202 -0.4246  0.3442
 3276W        W 7476   1.319   6.652  12.414  0.0131 -0.1089 -0.3014
 3277W        W 7477   4.380   4.607   0.992  0.1096  0.0643  0.2407
 3278W        W 7478   0.842   9.316  12.446  0.1275  0.1159 -0.1524
 3279W        W 7479   2.765  10.543  12.175 -0.0047 -0.0481  0.1925
 3280W        W 7480   0.393   6.879   3.342  0.0932 -0.2178 -0.0687
 3281W        W 7481   6.948   1.538  10.469  0.1359  0.0734  0.3241
 3282W        W 7482   0.585   9.679  12.772  0.1388 -0.1527 -0.0362
 3283W        W 7483   3.335   9.937   1.597  0.0001  0.3671 -0.0297
 3284W        W 7484   4.580   1.634  11.212 -0.2066 -0.1789  0.0955
 3285W        W 7485   5.710   2.688   2.521  0.1501 -0.0591  0.2226
 3286W        W 7486   8.126   0.522   2.671 -0.2026 -0.0060  0.3682
 3287W        W 7487   6.652   2.795   2.542 -0.4066  0.0246 -0.2390
 3288W        W 7488   4.930   6.275  12.128  0.1809 -0.2845  0.0212
 3289W        W 7489   3.296   0.244   8.345  0.2511 -0.0769  0.2101
 3290W        W 7490  10.405   9.565  11.613  0.1949 -0.3066 -0.0534
 3291W        W 7491   6.119   2.225   2.045 -0.3755  0.0204  0.0209
 3292W        W 7492   6.918   6.569  12.322  0.1199  0.1910 -0.0151
 3293W        W 7493   1.483   5.291   2.399 -0.1627  0.0994 -0.0840
 3294W        W 7494   4.561   3.159  11.533  0.1578  0.2181  0.2193
 3295W        W 7495   4.977   9.369   2.573  0.0781  0.1381 -0.0129
 3296W        W 7496   0.502   6.491  10.709 -0.1083  0.0872  0.1611
 3297W        W 7497   2.214   1.708   3.529  0.1012 -0.0667  0.3265
 3298W        W 7498   9.555   7.210   0.943  0.1849  0.1871 -0.0005
 3299W        W 7499   5.755   9.941   0.568 -0.3220 -0.3351 -0.2482
 3300W        W 7500   8.932   5.200  10.773  0.1829 -0.0830 -0.0721
 3301W        W 7501   0.318   3.564   2.637  0.0207  0.3604  0.0233
 3302W        W 7502   8.268   9.223  11.411 -0.0800 -0.3681  0.0326
 3303W        W 7503   5.128   3.478   3.040  0.1071  0.0172  0.0380
 3304W        W 7504   8.135   4.138   3.652  0.1073  0.0718 -0.0588
 3305W        W 7505   9.430   5.930   0.509 -0.1265  0.2316  0.0712
 3306W        W 7506   0.626   0.583   8.367  0.1612  0.1354  0.1190
 3307W        W 7507   1.770   1.665   2.773 -0.0042  0.4289 -0.1448
 3308W        W 7508   0.304   2.914   3.454 -0.2645 -0.1911  0.2339
 3309W        W 7509   8.333   9.950   0.451 -0.1087 -0.0163 -0.0269
 3310W        W 7510   6.700   2.718   9.380 -0.2069  0.0250  0.2278
 3311W        W 7511   1.555   8.162   3.668  0.1635 -0.0499 -0.0237
 3312W        W 7512   0.768   6.568  10.244 -0.1952 -0.1310 -0.2195
 3313W        W 7513   2.375   6.316  12.632 -0.1814  0.3988  0.0840
 3314W        W 7514   3.551   3.097   2.524 -0.0149  0.1800 -0.1706
 3315W        W 7515   9.550   6.153   8.856  0.0985  0.0354  0.1369
 3316W        W 7516   6.373   3.358  12.476 -0.0138 -0.1354  0.2255
 3317W        W 7517   6.256   3.205   3.570 -0.0939  0.0020 -0.0430
 3318W        W 7518   7.484   8.186   8.294  0.0928 -0.0144  0.2234
 3319W        W 7519   0.687   3.698  10.524  0.0937 -0.0217  0.2493
 3320W        W 7520   8.767   2.130   3.213  0.1346  0.1622 -0.1596
 3321W        W 7521   3.090   0.708   2.854 -0.0079 -0.1098 -0.3146
 3322W        W 7522   3.101   2.808   9.814  0.2242  0.0660 -0.2039
 3323W        W 7523   9.409   8.042   2.716  0.2592 -0.0837  0.0177
 3324W        W 7524   7.476   2.215   1.919 -0.1421 -0.0482 -0.1598
 3325W        W 7525   3.990   2.379   2.991  0.0268  0.1117 -0.2746
 3326W        W 7526   3.143   8.610   8.515  0.0967 -0.1540 -0.0561
 3327W        W 7527   9.946   8.527  12.666  0.0129  0.0522  0.0368
 3328W        W 7528   7.762   2.235   4.085 -0.0206 -0.1909 -0.0192
 3329W        W 7529   0.999   9.829   3.297 -0.3044 -0.0442 -0.4287
 3330W        W 7530   4.876   8.655   2.958 -0.0449  0.2403 -0.3081
 3331W        W 7531   5.801   1.357   2.286  0.2217  0.0636 -0.1566
 3332W        W 7532   4.721   9.263   0.776  0.0620  0.1450 -0.1901
 3333W        W 7533   8.345   8.808  10.977 -0.3028 -0.3279  0.0617
 3334W        W 7534   8.420   4.925  10.939  0.4634  0.1552 -0.1737
 3335W        W 7535   4.975   2.762   0.102 -0.3295 -0.1082 -0.0566
 3336W        W 7536   8.331   1.508  12.464 -0.1291  0.2915  0.2630
 3337W        W 7537   9.116   1.218   0.821 -0.1731  0.4244 -0.3451
 3338W        W 7538   3.930   9.779   0.451 -0.0443 -0.0420 -0.1792
 3339W        W 7539   9.211  10.206   4.400  0.3104  0.2416  0.0688
 3340W        W 7540   0.214   7.661   0.615  0.0649 -0.3181 -0.2051
 3341W        W 7541   2.465   7.557   2.637  0.0007  0.1635 -0.3836
 3342W        W 7542  10.094   6.029  10.916 -0.2608  0.1672  0.0869
 3343W        W 7543   4.170   7.550  12.875  0.3080 -0.0629 -0.0385
 3344W        W 7544   1.469   0.892   0.243 -0.2596  0.0174  0.3541
 3345W        W 7545   0.610  10.476  10.425 -0.2600 -0.1102 -0.1024
 3346W        W 7546   0.310   9.032   2.438  0.0384  0.1244 -0.1998
 3347W        W 7547   0.729   2.841   9.992 -0.0234  0.1101  0.2546
 3348W        W 7548   6.644   3.024  11.048 -0.0252  0.1715 -0.0994
 3349W        W 7549   9.379   7.943  11.017 -0.2782 -0.0479  0.1647
 3350W        W 7550   5.454   6.362   8.215 -0.0339 -0.4127  0.1152
 3351W        W 7551   8.072   1.190   9.243  0.1298  0.2668 -0.0715
 3352W        W 7552   5.030   9.472  10.657 -0.1772  0.1007 -0.1760
 3353W        W 7553   2.332   5.002   1.320  0.0265 -0.0793  0.2690
 3354W        W 7554   5.124   2.081   2.176 -0.1889 -0.2372  0.0240
 3355W        W 7555   5.214   4.799  10.103 -0.4203 -0.1448 -0.2648
 3356W        W 7556   7.187   5.652   2.271  0.0557  0.1033  0.0282
 3357W        W 7557   7.816   7.350   0.727  0.0890  0.2262 -0.2759
 3358W        W 7558   7.233   6.359   9.572  0.1034 -0.2166  0.0543
 3359W        W 7559   5.394   5.162   8.713  0.1141  0.1403  0.1217
 3360W        W 7560   8.810  10.303  12.142  0.1276 -0.0348  0.0432
 3361W        W 7561   2.274   4.818   1.815  0.4080 -0.2684 -0.2760
 3362W        W 7562   3.850   2.583   2.221 -0.3053  0.0953 -0.0355
 3363W        W 7563   7.611   2.957   8.912 -0.2180 -0.0290  0.5391
 3364W        W 7564   9.876   8.337   2.945 -0.0197  0.1863  0.0139
 3365W        W 7565   4.999   0.057   9.999  0.4467 -0.1394  0.1343
 3366W        W 7566   4.083   7.286   8.596  0.1139  0.0037 -0.2840
 3367W        W 7567   8.372   6.467  12.176 -0.2344  0.0263 -0.0691
 3368W        W 7568   6.130  10.104   2.304 -0.0013  0.0444 -0.1901
 3369W        W 7569   2.728   8.604   8.890  0.3453  0.1963 -0.0996
 3370W        W 7570   1.444   8.999   8.173  0.2216 -0.0819 -0.2509
 3371W        W 7571   2.765   3.503   0.776  0.1190 -0.1449 -0.1050
 3372W        W 7572   3.531   1.879   8.495  0.0843 -0.2738  0.1436
 3373W        W 7573   3.696   6.242  11.113 -0.1630 -0.2189  0.0844
 3374W        W 7574   1.224   8.091   0.016  0.2640  0.0838  0.2536
 3375W        W 7575  10.333   9.186  12.068  0.1035 -0.2128 -0.0208
 3376W        W 7576   3.112   3.368  12.606  0.0090  0.4753 -0.2073
 3377W        W 7577   9.998   3.377  10.224  0.0888 -0.1065  0.1931
 3378W        W 7578   3.977   1.403   2.416  0.0700 -0.1203 -0.3194
 3379W        W 7579   8.488   7.078  12.434 -0.1656  0.0731  0.0654
 3380W        W 7580   0.170   3.913   8.773  0.0112 -0.2122 -0.2554
 3381W        W 7581   2.140   3.222   9.946 -0.0927  0.1808  0.1646
 3382W        W 7582   3.993   3.530   3.350  0.1983  0.0189  0.0235
 3383W        W 7583   6.349  10.077  12.674 -0.3371  0.1799  0.2216
 3384W        W 7584   7.208   4.483  11.477 -0.2756  0.1870  0.0843
 3385W        W 7585   0.834   0.439  10.965  0.0543 -0.1418  0.1316
 3386W        W 7586   4.619   7.071   9.185  0.0988 -0.2829  0.1686
 3387W        W 7587  10.665   1.603  10.692 -0.1098  0.0054  0.1561
 3388W        W 7588   2.987   3.872   0.394 -0.1103 -0.0892  0.0696
 3389W        W 7589   8.762   2.875   3.485  0.1536  0.0957  0.0057
 3390W        W 7590   6.064   2.721   2.921 -0.0628 -0.1089 -0.2081
 3391W        W 7591   0.978   3.214   2.142  0.1936 -0.1710  0.1063
 3392W        W 7592   0.891   1.351  11.775  0.0893 -0.1575 -0.0429
 3393W        W 7593   4.060   1.053   8.726 -0.1367  0.0920  0.2042
 3394W        W 7594   2.966   0.250   8.732  0.2871 -0.1166  0.0006
 3395W        W 7595   5.848   3.706   9.084 -0.1604  0.1134  0.0454
 3396W        W 7596   4.407   8.072  12.043 -0.0804  0.2112 -0.0459
 3397W        W 7597   2.132   3.461   8.977  0.2268 -0.2462 -0.0186
 3398W        W 7598   8.048   7.230  11.598  0.2053 -0.0857  0.0973
 3399W        W 7599   2.735  10.363   3.514 -0.2349 -0.1869  0.0059
 3400W        W 7600   6.539   0.522   9.751  0.1431  0.0848 -0.2489
 3401W        W 7601   9.618  10.495  12.526  0.0078  0.1013  0.2399
 3402W        W 7602  10.451   7.854   0.512  0.0605 -0.1309 -0.0309
 3403W        W 7603   1.584   3.814   0.119 -0.0346 -0.0864  0.0492
 3404W        W 7604   0.942   2.676   9.261 -0.2298  0.1496 -0.1095
 3405W        W 7605   2.993   5.923   9.394  0.4817  0.2341  0.1274
 3406W        W 7606   8.727   4.093   8.800 -0.1725 -0.0608 -0.2968
 3407W        W 7607   1.407   0.581   1.678  0.0666  0.1036 -0.0920
 3408W        W 7608   3.965   1.589   1.523 -0.0055 -0.2412  0.0956
 3409W        W 7609   6.643   4.797   0.678  0.0055  0.1281 -0.5078
 3410W        W 7610  10.403   9.789  10.829  0.0046 -0.2261 -0.0526
 3411W        W 7611   4.250   3.583   2.460 -0.2271  0.0974  0.1381
 3412W        W 7612   6.219  10.233   9.854  0.3579  0.0012 -0.0001
 3413W        W 7613   4.089   4.866   4.324  0.0392  0.1946 -0.1783
 3414W        W 7614   0.698   4.494   3.494  0.1960 -0.2041 -0.2719
 3415W        W 7615   7.842   0.980   0.441 -0.0554  0.3171  0.3349
 3416W        W 7616   9.642   2.646  12.353  0.0227  0.0052  0.0410
 3417W        W 7617  10.677   4.131  10.386  0.2209  0.0213 -0.0308
 3418W        W 7618   6.777   6.091   9.472  0.1880 -0.1250  0.2483
 3419W        W 7619   6.170   2.958  12.313 -0.1778  0.0281 -0.3604
 3420W        W 7620   7.406   3.801   4.136 -0.1684  0.1643  0.3247
 3421W        W 7621   9.003   6.252   9.246 -0.3773 -0.1150 -0.3485
 3422W        W 7622   4.880   4.369  10.179  0.0278 -0.2703  0.2762
 3423W        W 7623   7.104   6.933   3.199  0.0005  0.2004 -0.2082
 3424W        W 7624   3.884   8.830  11.367  0.2334 -0.2664 -0.3262
 3425W        W 7625  10.590   6.426  11.314  0.0139 -0.2023  0.2101
 3426W        W 7626   6.523   7.242   8.705 -0.3857 -0.0375  0.1922
 3427W        W 7627   4.773   5.868  11.821 -0.1983  0.1159  0.0222
 3428W        W 7628   6.588   5.758   0.276 -0.2595 -0.1452 -0.1530
 3429W        W 7629   0.238   3.423   8.553  0.2791  0.3221 -0.1538
 3430W        W 7630   7.128   8.984  12.196  0.4418  0.1216  0.3766
 3431W        W 7631   8.352   2.149  12.887  0.1332  0.1485  0.1325
 3432W        W 7632   4.450   8.369   1.277 -0.0068  0.2429  0.0511
 3433W        W 7633   2.098   2.571  12.864 -0.0496  0.0247 -0.0402
 3434W        W 7634   9.056   3.761  10.540  0.1400  0.0689  0.0863
 3435W        W 7635   5.093   3.779  11.851  0.1349  0.0271  0.0204
 3436W        W 7636   6.817   0.330  11.841  0.0169  0.0035  0.1054
 3437W        W 7637   7.624   6.907  10.142  0.1303 -0.5170 -0.1670
 3438W        W 7638   7.033   7.372   8.702  0.0211 -0.1711  0.1346
 3439W        W 7639   6.707   1.722   1.782  0.3135  0.0607  0.2706
 3440W        W 7640   5.428   2.429  12.127 -0.2113  0.1779  0.1386
 3441W        W 7641   0.773   6.789   2.841  0.3517  0.2058 -0.2316
 3442W        W 7642   7.606   0.108  11.561 -0.2423 -0.1005 -0.1224
 3443W        W 7643   9.501   8.201   0.670 -0.0284  0.0372 -0.2948
 3444W        W 7644   8.399   7.749  10.399  0.0014  0.8506 -0.0241
 3445W        W 7645   2.267   5.881   3.100 -0.2497  0.1241 -0.0371
 3446W        W 7646   6.953   2.829   0.017  0.0575 -0.1120 -0.0218
 3447W        W 7647   8.221   7.628   0.773  0.0750 -0.2816 -0.0306
 3448W        W 7648   4.992  10.607  12.438 -0.0162 -0.0017  0.0043
 3449W        W 7649  10.695   6.420   0.885 -0.0019  0.1775 -0.0912
 3450W        W 7650   4.688   5.329   8.318 -0.2610 -0.0664 -0.0647
 3451W        W 7651   2.038  10.286   2.992 -0.0939 -0.0054 -0.0745
 3452W        W 7652  10.244   5.383  11.132  0.0208  0.0800 -0.1359
 3453W        W 7653   0.348   2.756   2.146 -0.1007  0.2729  0.0886
 3454W        W 7654   3.360  10.329  10.936  0.1743  0.1350  0.1179
 3455W        W 7655   3.923   6.687  10.302 -0.1665  0.0790 -0.0113
 3456W        W 7656   0.178   1.560   9.702 -0.4254  0.4084  0.3168
 3457W        W 7657   8.421   3.219   0.984 -0.0489 -0.1311 -0.1484
 3458W        W 7658   1.622   5.398  11.751 -0.0551  0.3335 -0.0566
 3459W        W 7659   6.635   5.499   9.337 -0.0201  0.0339 -0.1231
 3460W        W 7660   5.596   3.023   0.850 -0.1428 -0.0915  0.4083
 3461W        W 7661   7.486   3.665   9.484  0.3375 -0.1625 -0.0196
 3462W        W 7662   5.760   4.289   0.489 -0.0998 -0.0889  0.1684
 3463W        W 7663   8.536  10.456   1.185  0.5229 -0.0919  0.2418
 3464W        W 7664   6.610  10.548  10.128 -0.0197  0.0463 -0.0354
 3465W        W 7665   2.315   6.172  10.055  0.0242 -0.1410 -0.0588
 3466W        W 7666   5.809   7.151   2.281 -0.3984  0.1190 -0.3436
 3467W        W 7667   4.427   5.136  11.094  0.2409 -0.0626 -0.1053
 3468W        W 7668   3.114   6.460   3.938  0.2886  0.1061  0.1206
 3469W        W 7669   4.020   6.892  11.869  0.1443 -0.0805  0.0979
 3470W        W 7670   5.945   1.402   1.158 -0.0197  0.2056  0.0780
 3471W        W 7671   6.271   0.964   3.489 -0.0640  0.0448  0.1667
 3472W        W 7672   6.291   2.157   3.678 -0.3559 -0.2727 -0.1460
 3473W        W 7673   7.707   0.775   8.780  0.2801  0.0906 -0.0579
 3474W        W 7674   2.587   2.137  10.418 -0.1289 -0.1347 -0.3957
 3475W        W 7675   3.916  10.021   8.588  0.1734 -0.2642  0.1210
 3476W        W 7676   6.729   0.369  10.317 -0.0321  0.1178 -0.1221
 3477W        W 7677   9.845   0.665  11.639 -0.2889  0.0200  0.2533
 3478W        W 7678  10.684   7.351  11.691 -0.0623  0.0655 -0.1751
 3479W        W 7679   6.653   0.271  11.352  0.3414 -0.0651 -0.1466
 3480W        W 7680   9.530   4.232  12.398  0.5497 -0.2670 -0.0319
 3481W        W 7681  10.534   6.698   0.226  0.2119  0.0273  0.2091
 3482W        W 7682   6.860   5.214   0.616 -0.0800 -0.2190  0.0261
 3483W        W 7683   4.450   3.823   0.312 -0.2990 -0.2662  0.0575
 3484W        W 7684   3.154   5.743   2.905  0.1140 -0.1367  0.3540
 3485W        W 7685   7.920   1.719   0.325  0.1214 -0.2688 -0.0731
 3486W        W 7686   2.693   5.030   1.751 -0.0442 -0.3277  0.1112
 3487W        W 7687   1.986   1.422  11.939  0.3224 -0.0268  0.0784
 3488W        W 7688   7.673   2.000   1.392  0.1988 -0.1082  0.1827
 3489W        W 7689   4.025   1.170  10.965 -0.2411 -0.0745  0.3415
 3490W        W 7690   2.168  10.091   2.090 -0.0850  0.0527  0.1024
 3491W        W 7691   5.324  10.541   7.666 -0.2214 -0.3380 -0.2923
 3492W        W 7692   0.188   2.454   3.520 -0.2080  0.2117 -0.4398
 3493W        W 7693   2.042   4.820   0.990 -0.2789 -0.1294  0.1253
 3494W        W 7694   4.716   4.702   1.365  0.0256  0.1795  0.0381
 3495W        W 7695   4.538   1.989   0.146 -0.1716  0.0586  0.1738
 3496W        W 7696   7.080  10.102  11.469  0.0592 -0.0142  0.1445
 3497W        W 7697   4.503   5.520   0.619  0.0034  0.0028  0.1625
 3498W        W 7698   0.511   9.519   2.466 -0.1436  0.5031  0.2835
 3499W        W 7699   9.974   6.782   0.800 -0.4368 -0.0490  0.0080
 3500W        W 7700   8.102   3.727  10.199  0.0116  0.0362 -0.0190
 3501W        W 7701   9.093   3.669   2.249 -0.0317 -0.0820 -0.0837
 3502W        W 7702   0.015   2.796   0.893  0.1637 -0.1218  0.2849
 3503W        W 7703   6.034   7.631   3.487 -0.1884 -0.1213  0.2855
 3504W        W 7704   5.082   7.130  12.200  0.2143 -0.0421  0.2040
 3505W        W 7705   5.780   4.706   7.989 -0.0494  0.0456  0.0603
 3506W        W 7706   2.661   8.617  12.013  0.0007  0.2807 -0.1151
 3507W        W 7707   6.369   2.123  11.095  0.1334  0.1260 -0.1939
 3508W        W 7708   0.551   4.083  11.260  0.0307  0.1556  0.1127
 3509W        W 7709   3.200   3.802   3.062  0.1207  0.3289 -0.1071
 3510W        W 7710   2.409   1.408   3.136  0.0280  0.1760 -0.1314
 3511W        W 7711  10.489   7.997   1.357  0.1227 -0.3803 -0.1106
 3512W        W 7712   9.293   5.098  11.240 -0.0283  0.1112  0.2345
 3513W        W 7713  10.629   7.683   2.513 -0.1332 -0.0087 -0.3251
 3514W        W 7714   9.796   2.776  10.153  0.2078  0.0263 -0.0505
 3515W        W 7715   2.855   0.680  11.781  0.2486 -0.0172  0.2375
 3516W        W 7716   7.094   9.763  10.271 -0.1495 -0.0914  0.3096
 3517W        W 7717   1.137   1.543  12.601  0.0013 -0.0023  0.0227
 3518W        W 7718   7.340   9.893   4.365 -0.1786 -0.0851 -0.3227
 3519W        W 7719   3.238   8.808  11.901  0.4319 -0.1607 -0.1015
 3520W        W 7720   5.080   2.888  11.847 -0.0317  0.2003  0.1846
 3521W        W 7721   7.947   9.635   3.153 -0.4288 -0.0903 -0.1263
 3522W        W 7722   4.626   1.039   8.416  0.0676  0.0891 -0.2898
 3523W        W 7723   8.048   3.503  11.993 -0.1216 -0.0454 -0.1184
 3524W        W 7724  10.523   0.556   7.618  0.0080  0.3109 -0.1271
 3525W        W 7725   0.401   2.550  11.339  0.0683 -0.0302 -0.1832
 3526W        W 7726   6.415   4.498   3.806 -0.0042  0.0714  0.0017
 3527W        W 7727   7.290   9.646  10.717 -0.0226 -0.0145 -0.0852
 3528W        W 7728   0.499   6.841   1.158 -0.0147  0.2719  0.2239
 3529W        W 7729   2.009   8.646   3.640 -0.1723 -0.0118 -0.2382
 3530W        W 7730   5.755   0.004   1.332  0.1467  0.0472  0.0959
 3531W        W 7731   8.598   6.700   3.804  0.1866  0.2371 -0.0124
 3532W        W 7732   2.278   3.732   9.748  0.2070 -0.0642 -0.0216
 3533W        W 7733   1.697   8.076   7.897  0.2107  0.2775  0.0007
 3534W        W 7734   1.370   9.144   0.431 -0.2071  0.1119  0.0171
 3535W        W 7735   9.032   9.048   9.788  0.0799  0.2866  0.1708
 3536W        W 7736  10.174   1.865   0.166  0.1042  0.3572  0.2740
 3537W        W 7737   2.773   6.539   2.486  0.2768  0.1537  0.3417
 3538W        W 7738   4.007   8.466   0.330  0.2108  0.2273 -0.2781
 3539W        W 7739   8.053   1.738   8.007 -0.2615 -0.2358 -0.1539
 3540W        W 7740   3.593   2.071   2.807  0.1499  0.0484  0.0400
 3541W        W 7741   8.913   3.865  12.245 -0.2418  0.0882 -0.2972
 3542W        W 7742   6.769   2.336  10.643  0.2596 -0.2464 -0.1402
 3543W        W 7743   9.538   4.113  10.546 -0.0835 -0.0404 -0.4015
 3544W        W 7744   2.576   3.147   3.554 -0.0397 -0.1908 -0.2908
 3545W        W 7745   5.372   3.599   1.539  0.4236  0.0858 -0.0493
 3546W        W 7746   4.806   0.770  11.864 -0.0285 -0.1115 -0.3029
 3547W        W 7747   0.269   5.498   1.415  0.3001  0.0107 -0.1686
 3548W        W 7748   8.412   9.616   0.809  0.1482 -0.0398  0.1328
 3549W        W 7749  10.593   1.507   1.693 -0.0893 -0.0544  0.2303
 3550W        W 7750   1.941  10.544   3.455 -0.0740 -0.0795  0.0756
 3551W        W 7751   8.066   4.163   3.131 -0.0033 -0.1284  0.0838
 3552W        W 7752   8.819  10.678   0.078 -0.1378  0.1185  0.0518
 3553W        W 7753   3.090   7.189   9.827 -0.1698 -0.1033  0.0809
 3554W        W 7754  10.019   2.902   8.774  0.0849 -0.0236  0.0579
 3555W        W 7755   5.033   9.116  12.639 -0.1179 -0.3111 -0.0966
 3556W        W 7756   9.504   8.930   2.247  0.1634  0.3099 -0.0355
 3557W        W 7757   6.897  10.679   2.634 -0.3102  0.2364 -0.3947
 3558W        W 7758   7.998   7.071  10.842 -0.1921  0.1751 -0.1981
 3559W        W 7759   6.873   7.202   9.579  0.1553 -0.1807 -0.3314
 3560W        W 7760   1.002   4.701  11.655  0.0042 -0.1391  0.0425
 3561W        W 7761   8.789   8.322   1.256  0.2975  0.0566 -0.2109
 3562W        W 7762   9.822   0.035   0.178  0.1208 -0.1298 -0.1109
 3563W        W 7763   8.724   1.431   1.003 -0.1486  0.1318 -0.1447
 3564W        W 7764   2.785   2.351  11.293  0.0042  0.0275 -0.0452
 3565W        W 7765   7.796   7.526   9.011 -0.2565 -0.0332 -0.2111
 3566W        W 7766   7.409   0.882   0.689  0.0655  0.0600  0.1373
 3567W        W 7767  10.004   8.470   0.424 -0.0168 -0.0809  0.2452
 3568W        W 7768  10.197  10.070  10.296 -0.0579 -0.0610  0.1187
 3569W        W 7769   9.102   4.771   0.361  0.2387  0.2340 -0.0907
 3570W        W 7770   0.035   4.248   3.041  0.2983  0.0206  0.0956
 3571W        W 7771  10.213   1.421  11.476  0.2789  0.0548  0.0199
 3572W        W 7772   9.526   6.136   4.084  0.3392  0.1453  0.0508
 3573W        W 7773  10.694   4.915   5.111  0.3150  0.0623  0.1359
 3574W        W 7774   2.534   6.027   9.094 -0.0994  0.2747 -0.0348
 3575W        W 7775   9.978   4.993  11.835  0.1111  0.1667 -0.0822
 3576W        W 7776   2.500   2.530   2.263  0.0522  0.4942  0.2639
 3577W        W 7777  10.695   6.030   0.187 -0.0023  0.0830  0.0717
 3578W        W 7778   2.312   0.412   3.275 -0.0227 -0.1857 -0.2495
 3579W        W 7779   2.799   3.983   9.239 -0.1352 -0.3734  0.1158
 3580W        W 7780  10.587   4.783   2.923 -0.2928  0.1401  0.0248
 3581W        W 7781   5.801   2.415   1.582 -0.0646  0.3443 -0.1443
 3582W        W 7782  10.659   8.423   9.230 -0.0796  0.0273  0.2227
 3583W        W 7783   6.413   1.652  11.890 -0.1266  0.1332 -0.1502
 3584W        W 7784   0.926   7.205  11.612 -0.0221  0.1839  0.2047
 3585W        W 7785   3.256   8.221   8.888  0.1259 -0.0227 -0.1647
 3586W        W 7786   9.262   3.364  10.848  0.0954 -0.1168 -0.0041
 3587W        W 7787   8.294   3.714  11.328  0.1646 -0.0837 -0.0217
 3588W        W 7788   0.426   7.316  10.199  0.0474  0.1601 -0.1165
 3589W        W 7789   5.590   9.092   7.940  0.0071  0.0167 -0.1555
 3590W        W 7790   1.370   6.160   2.866  0.1522 -0.0275 -0.2546
 3591W        W 7791   8.348   4.644  12.613  0.1000  0.0053 -0.0073
 3592W        W 7792   6.972   3.947   3.777 -0.0472  0.3046  0.4301
 3593W        W 7793   2.906   2.491  12.828  0.1965  0.2125  0.0633
 3594W        W 7794   6.351   4.294   2.189  0.1442  0.1601  0.0975
 3595W        W 7795   8.746   4.581   0.653  0.0032  0.2032 -0.0464
 3596W        W 7796  10.622   2.790  10.034  0.0324 -0.1115  0.0899
 3597W        W 7797   4.565   3.250   1.424 -0.1664 -0.0432 -0.3092
 3598W        W 7798   2.179   3.522  11.385 -0.0616  0.3933 -0.0344
 3599W        W 7799   9.545   7.593   8.940  0.2123  0.0458  0.1007
 3600W        W 7800   4.024   9.338  11.483 -0.0696 -0.0229  0.0580
 3601W        W 7801   2.398   3.957  11.224 -0.1045 -0.0225 -0.2868
 3602W        W 7802   3.532   3.041   0.410  0.0669 -0.1410  0.3350
 3603W        W 7803   9.383   1.933   2.098  0.2040  0.1795 -0.0600
 3604W        W 7804   9.282   1.194  12.760 -0.0718 -0.4208  0.1736
 3605W        W 7805   1.886   6.717   0.017  0.1574  0.0315 -0.4024
 3606W        W 7806   0.469   0.018   8.123  0.0054  0.1017 -0.1195
 3607W        W 7807   2.707   9.648   1.271  0.1339 -0.2942  0.2866
 3608W        W 7808   8.430   2.485   2.493  0.1622 -0.0861 -0.0384
 3609W        W 7809   1.830   3.760  11.781 -0.1174  0.2715  0.2821
 3610W        W 7810  10.458   3.865   2.051 -0.1018  0.0147 -0.1831
 3611W        W 7811   6.438   0.112   1.060  0.1275  0.0058 -0.1907
 3612W        W 7812   5.337   0.873   4.232 -0.1009 -0.1294 -0.0168
 3613W        W 7813   8.928  10.016   9.395  0.0336  0.0347 -0.1020
 3614W        W 7814   8.561  10.212   0.054 -0.3991  0.0350 -0.1807
 3615W        W 7815   8.108   4.377   9.351 -0.1616  0.3772  0.0589
 3616W        W 7816   3.480   5.471   0.912 -0.1397  0.2570  0.4513
 3617W        W 7817   2.764   7.630   9.979 -0.2726 -0.2343 -0.1977
 3618W        W 7818   4.809   6.973   2.469  0.4156  0.3708  0.2387
 3619W        W 7819   2.902   1.955   1.220  0.1886  0.0612 -0.0813
 3620W        W 7820   8.673   9.221  12.654 -0.3792 -0.3037 -0.0281
 3621W        W 7821   4.018   9.719  10.494  0.0333  0.5056  0.0992
 3622W        W 7822   2.336   6.348  11.418 -0.0893 -0.0405  0.0196
 3623W        W 7823   2.481   1.775   0.867  0.0118  0.2115 -0.1758
 3624W        W 7824   5.542   2.070   1.826 -0.1795  0.0117 -0.1177
 3625W        W 7825   5.388   7.824   0.953 -0.0704  0.1280  0.3274
 3626W        W 7826  10.087   3.865   1.723  0.0795 -0.0841 -0.5194
 3627W        W 7827   3.098   1.914   2.937 -0.3864  0.0726  0.0748
 3628W        W 7828   7.758   9.323   4.692 -0.2697 -0.0873  0.1915
 3629W        W 7829   7.424   9.740   0.863 -0.1742  0.0237 -0.1853
 3630W        W 7830   1.732   9.102   2.377  0.0816 -0.2774  0.0781
 3631W        W 7831   3.705   3.283   1.750 -0.0320 -0.0551  0.2305
 3632W        W 7832   9.899   4.775   1.483 -0.1702 -0.2669 -0.5082
 3633W        W 7833   2.768   7.792   0.713  0.0074  0.0398 -0.1774
 3634W        W 7834   3.176   4.736  11.228  0.1189 -0.0597  0.1733
 3635W        W 7835   1.895   3.404  10.403  0.0530  0.1211 -0.1241
 3636W        W 7836   6.874   4.788  11.311  0.2590 -0.0009 -0.0833
 3637W        W 7837  10.318   1.320  10.549 -0.2121 -0.4914 -0.3604
 3638W        W 7838   4.013  10.380   1.212 -0.1455  0.2481 -0.0911
 3639W        W 7839   8.826   7.369  10.375 -0.1664 -0.2202 -0.0418
 3640W        W 7840   0.213   0.159   9.472 -0.0301  0.1160 -0.0098
 3641W        W 7841   8.790   3.356   1.363  0.2473  0.0944  0.1318
 3642W        W 7842  10.126  10.265   0.298  0.0498 -0.0150 -0.0015
 3643W        W 7843   0.911   3.953   9.797 -0.2880  0.0333 -0.0379
 3644W        W 7844   7.525   9.829  10.063 -0.1413  0.1019  0.1741
 3645W        W 7845   8.754   1.734  11.145 -0.0037  0.0590 -0.2955
 3646W        W 7846   4.545   6.576   1.081 -0.2535 -0.0266  0.2825
 3647W        W 7847   7.745   7.483   2.666 -0.0545 -0.0224  0.1346
 3648W        W 7848   1.287   2.847   9.549 -0.3096 -0.3289 -0.2831
 3649W        W 7849   4.032   2.541   8.790 -0.3083 -0.0253  0.2712
 3650W        W 7850   0.923  10.668  12.609  0.1294  0.0909 -0.0605
 3651W        W 7851   3.848   4.795   1.055  0.0119 -0.3521 -0.0920
 3652W        W 7852   8.133   7.126   1.183  0.1025  0.0604 -0.1881
 3653W        W 7853   4.616   4.064   2.505 -0.2482  0.1066  0.1528
 3654W        W 7854   1.155   0.759  10.136 -0.0429 -0.1503  0.0839
 3655W        W 7855   7.318   7.312  10.260  0.1686 -0.0721  0.0502
 3656W        W 7856   1.340   7.913   1.701  0.1352  0.0719  0.0456
 3657W        W 7857   3.117   7.429   9.068 -0.1691  0.0702  0.1351
 3658W        W 7858   1.118   1.681  12.079  0.1635  0.1482 -0.5607
 3659W        W 7859   3.541   9.843  10.825 -0.1262  0.0622 -0.2583
 3660W        W 7860   3.269   6.737   2.685  0.3819  0.1859 -0.1839
 3661W        W 7861   7.218   2.761  10.413 -0.0075  0.2744  0.3824
 3662W        W 7862   6.515   3.318   1.221  0.0614  0.3689  0.0402
 3663W        W 7863   3.126   1.352   9.167 -0.0768 -0.1756 -0.2578
 3664W        W 7864   3.615   9.291   0.357 -0.1145  0.0038  0.3422
 3665W        W 7865   2.767   4.140   8.464  0.1995  0.0856 -0.1692
 3666W        W 7866   5.511   4.060   9.396  0.0806  0.0159  0.0748
 3667W        W 7867   8.363   8.310  12.421 -0.3666  0.0238  0.0497
 3668W        W 7868   8.730   2.852   2.734 -0.3512 -0.1886  0.1738
 3669W        W 7869   2.565   3.199   1.988 -0.2764 -0.0960 -0.1538
 3670W        W 7870   0.485   4.744   7.415  0.0227  0.0545 -0.0721
 3671W        W 7871   2.106   3.453   2.084 -0.0299  0.0052  0.3902
 3672W        W 7872   4.145   1.806   0.445  0.2457 -0.0249 -0.0402
 3673W        W 7873   8.874   5.042   1.672  0.0407 -0.3350  0.0549
 3674W        W 7874   6.392   8.372   9.030 -0.0282 -0.1354  0.2448
 3675W        W 7875   4.656   7.218  12.446 -0.0186  0.0832 -0.0317
 3676W        W 7876  10.076   0.649   8.546 -0.0356 -0.0827  0.0358
 3677W        W 7877   4.141   7.955   3.667  0.2509  0.1606  0.0991
 3678W        W 7878   3.414   7.251   2.795 -0.0260  0.0279 -0.2833
 3679W        W 7879   5.996   3.736  12.288  0.3413 -0.0973 -0.2105
 3680W        W 7880   1.984   0.414   8.462 -0.1586 -0.3132  0.1655
 3681W        W 7881   9.673   6.355  10.712  0.1704 -0.2351  0.0873
 3682W        W 7882   2.433   0.268   2.271  0.1708  0.1522 -0.3269
 3683W        W 7883   1.164   5.106  10.581  0.4562  0.1170 -0.1174
 3684W        W 7884   5.744   2.857  10.448 -0.0062 -0.1239  0.0104
 3685W        W 7885   6.227   9.520  11.854 -0.2114 -0.3898  0.4426
 3686W        W 7886   6.860   0.603   1.466 -0.1227  0.0959  0.1931
 3687W        W 7887   7.549   2.754   0.147  0.0804  0.0338 -0.2162
 3688W        W 7888  10.187   1.016   3.721  0.1924 -0.1132 -0.2069
 3689W        W 7889   5.887   4.260  10.296  0.4431  0.3008 -0.0326
 3690W        W 7890   7.672  10.314   1.346  0.0243  0.1536  0.0273
 3691W        W 7891   4.736   0.410  11.486 -0.0514  0.0058  0.0792
 3692W        W 7892   5.354   2.611   8.229  0.0266 -0.0549 -0.0992
 3693W        W 7893   8.594   1.829   1.263 -0.0406 -0.1502 -0.0581
 3694W        W 7894   8.981   0.486   0.705  0.1262  0.2822 -0.3477
 3695W        W 7895   4.147   5.921   8.694 -0.1934 -0.0458 -0.1016
 3696W        W 7896   6.560   9.076  12.122  0.0344  0.0199  0.2754
 3697W        W 7897   7.014   5.058  10.706  0.1533  0.0297  0.0233
 3698W        W 7898   4.683   3.999   3.020 -0.1399 -0.1655  0.0297
 3699W        W 7899   6.162   6.050   4.038 -0.2375  0.1045  0.0346
 3700W        W 7900   4.750   3.392   7.868  0.0259 -0.2347 -0.1325
 3701W        W 7901   2.576   7.731  12.672  0.0428 -0.2110 -0.2537
 3702W        W 7902   3.703   1.275   3.365  0.1111 -0.1082 -0.0535
 3703W        W 7903   8.441   5.486  12.286  0.3895  0.1750 -0.1350
 3704W        W 7904   6.627   3.644  12.863  0.1574  0.1031 -0.0186
 3705W        W 7905  10.412   4.141  12.506 -0.0647 -0.0602  0.1839
 3706W        W 7906   4.496   8.926   9.938  0.0661 -0.2430 -0.0065
 3707W        W 7907   2.050   9.176   8.877 -0.1140  0.0373 -0.2821
 3708W        W 7908   3.598   0.951   8.700 -0.1097  0.1216  0.0205
 3709W        W 7909   3.169   8.958  12.445 -0.1365  0.5020  0.1306
 3710W        W 7910   4.229   6.106   1.939  0.0328 -0.0286  0.6205
 3711W        W 7911   5.828   0.041   9.601 -0.0295  0.2566  0.0451
 3712W        W 7912   2.650  10.603  11.669  0.2212  0.1740 -0.2725
 3713W        W 7913   2.488   2.585  12.074 -0.1661 -0.0265 -0.0429
 3714W        W 7914   2.381   9.874  12.161 -0.1223  0.1116  0.2541
 3715W        W 7915   4.380   6.769   0.408 -0.0507 -0.2522 -0.4331
 3716W        W 7916   1.512   8.955   2.882 -0.3060 -0.2173 -0.2365
 3717W        W 7917   5.152   6.519   9.563 -0.1984  0.1700 -0.4248
 3718W        W 7918   0.357   8.458   3.086  0.1712 -0.1210 -0.2973
 3719W        W 7919   5.049   6.824   9.160  0.0299  0.1644  0.1839
 3720W        W 7920   0.096   8.231   9.985 -0.0990 -0.1657  0.0621
 3721W        W 7921   9.100   5.322  11.704 -0.2198  0.1146 -0.0532
 3722W        W 7922   7.059  10.299   9.946  0.2979  0.0009  0.1127
 3723W        W 7923   0.503   8.043   2.697  0.1283  0.0057 -0.1110
 3724W        W 7924   9.325   5.913   9.337  0.0034 -0.1515  0.1178
 3725W        W 7925   2.254   9.267  10.815 -0.2754  0.0010  0.0499
 3726W        W 7926  10.420   2.260  11.766 -0.1342 -0.1127 -0.0323
 3727W        W 7927   6.549   4.669  12.671 -0.3866  0.1096 -0.1176
 3728W        W 7928   7.464   4.513  12.595  0.0386 -0.0569  0.0593
 3729W        W 7929  10.344   0.404   0.232  0.0390 -0.2110 -0.2146
 3730W        W 7930   8.380   6.741  10.783  0.2046 -0.3605 -0.0780
 3731W        W 7931  10.384   1.473   8.223 -0.1280  0.2043  0.0169
 3732W        W 7932  10.442   3.976   1.335  0.2053  0.4132  0.2065
 3733W        W 7933   3.556   3.877   0.283  0.1372 -0.0646  0.2499
 3734W        W 7934   5.975   6.930   1.195 -0.2612 -0.2110  0.2251
 3735W        W 7935   3.359   9.751  11.717 -0.0784  0.2803  0.1206
 3736W        W 7936   7.334   5.191  12.051  0.3072  0.1981 -0.2729
 3737W        W 7937   4.368   1.836   7.974  0.2632  0.2615  0.1427
 3738W        W 7938   5.008   1.933   1.472 -0.1656 -0.0126 -0.3069
 3739W        W 7939   7.047   1.288   0.900  0.1030  0.2110 -0.0605
 3740W        W 7940   4.700   3.526   2.804 -0.0314  0.0113  0.2439
 3741W        W 7941   8.215   8.672   7.629  0.0797 -0.0461 -0.0894
 3742W        W 7942   3.216   9.187   8.462 -0.1067  0.1666 -0.1540
 3743W        W 7943   1.334   9.452   1.630  0.0155  0.0608  0.0965
 3744W        W 7944   7.721   8.909   2.592  0.0451  0.0001  0.1193
 3745W        W 7945   0.608   7.508   8.786 -0.2690  0.1930 -0.3594
 3746W        W 7946   6.526   3.757   0.583 -0.0754  0.0393  0.0358
 3747W        W 7947   1.939   9.775  11.665 -0.2539  0.0712 -0.2158
 3748W        W 7948   4.698   5.896   1.971  0.3319 -0.3089  0.1737
 3749W        W 7949   6.490   1.068   9.934  0.0481 -0.1232 -0.0482
 3750W        W 7950   5.367   1.729  11.232 -0.1351  0.0734  0.1208
 3751W        W 7951   8.025   5.849   2.563  0.0140  0.4063 -0.1849
 3752W        W 7952   0.916   1.020   3.000  0.0565 -0.0543 -0.1476
 3753W        W 7953  10.116   2.082  12.163  0.1755 -0.0913  0.2442
 3754W        W 7954   1.002   2.080   3.200  0.0544  0.3392 -0.3034
 3755W        W 7955   2.858   5.996  12.428 -0.2477 -0.0552  0.1586
 3756W        W 7956   3.693   6.190   0.037  0.0942 -0.1245 -0.2182
 3757W        W 7957   7.169   9.521   8.742 -0.2354  0.0806  0.0684
 3758W        W 7958   6.080   7.577  11.466 -0.3163 -0.1197 -0.1371
 3759W        W 7959   4.053   6.970   0.039 -0.2363  0.0065  0.1127
 3760W        W 7960  10.477   3.915   3.374  0.1259 -0.1502 -0.1087
 3761W        W 7961   2.576   1.615   1.395 -0.2007 -0.3885 -0.4821
 3762W        W 7962   7.770   9.184   0.144  0.1791 -0.2022  0.0913
 3763W        W 7963   4.145  10.697  12.169  0.1520 -0.0107  0.0527
 3764W        W 7964   8.157   1.271  10.299 -0.1686  0.2276 -0.0583
 3765W        W 7965   1.991   0.820  11.031 -0.1978  0.0652  0.2859
 3766W        W 7966   6.368   9.817   9.303 -0.1668 -0.3294 -0.3581
 3767W        W 7967   3.207   6.397  12.208  0.0141 -0.0836 -0.0994
 3768W        W 7968   9.171   3.165   4.205 -0.0802  0.0516 -0.3193
 3769W        W 7969   1.535   2.763  12.416 -0.0087 -0.1055 -0.1734
 3770W        W 7970  10.422   3.705   3.828 -0.0381  0.3450 -0.0346
 3771W        W 7971   4.731   3.716  10.665  0.1112  0.0242 -0.0038
 3772W        W 7972   8.607   5.104  11.836  0.0314  0.0482  0.1189
 3773W        W 7973   7.965   4.299  12.533 -0.0194  0.3518 -0.0730
 3774W        W 7974   3.354   6.151   2.692 -0.0932  0.2853 -0.1321
 3775W        W 7975   7.416  10.164  10.414 -0.1181 -0.3925 -0.0982
 3776W        W 7976   9.381   1.599  10.474  0.2705 -0.2711 -0.0599
 3777W        W 7977   9.431   4.432   4.158 -0.1055  0.0013  0.0116
 3778W        W 7978   4.618   8.834  12.044  0.2013  0.1160 -0.0141
 3779W        W 7979   0.969   7.681  11.781 -0.3399  0.3228  0.0712
 3780W        W 7980   4.325   9.039   8.090  0.2009 -0.4283 -0.0735
 3781W        W 7981   8.671   3.037   9.584 -0.1906  0.1805 -0.0707
 3782W        W 7982  10.190   2.515   9.908 -0.1682 -0.1246 -0.1870
 3783W        W 7983   9.406   5.919   1.277  0.0918 -0.2581  0.1236
 3784W        W 7984   5.650   7.842  11.705 -0.0234 -0.1230 -0.0209
 3785W        W 7985   6.972  10.092   4.074  0.2034 -0.0707 -0.1936
 3786W        W 7986   7.221   8.189  11.748  0.0489  0.0825  0.3402
 3787W        W 7987   2.257   2.810  11.657  0.0256  0.2593 -0.1164
 3788W        W 7988   4.353   1.861   8.471 -0.0607  0.2099 -0.1173
 3789W        W 7989   4.539   6.349  12.530 -0.1311 -0.3810  0.0481
 3790W        W 7990   2.859   4.622  12.841  0.1711 -0.1664 -0.1806
 3791W        W 7991   9.202   3.271  12.876 -0.0383 -0.1931  0.0632
 3792W        W 7992   7.200   0.481  10.573  0.2779 -0.3079  0.0466
 3793W        W 7993   0.731   1.539   0.511  0.1030  0.2601 -0.0439
 3794W        W 7994   1.660   3.486  11.414  0.3312 -0.1165  0.2602
 3795W        W 7995   8.457   4.623  10.124  0.1723 -0.2263 -0.1195
 3796W        W 7996   6.631   7.994   2.778  0.1002  0.2540 -0.1955
 3797W        W 7997   0.036   7.409  12.600 -0.1653  0.1568  0.1851
 3798W        W 7998   7.493   2.387   2.536 -0.1120  0.0282 -0.0965
 3799W        W 7999  10.062   7.572   0.212 -0.2348 -0.2031  0.1921
 3800W        W 8000  10.041   2.063   3.563  0.2583  0.2372  0.2485
 3801W        W 8001   7.368   9.796   8.405 -0.1790 -0.1706  0.1633
 3802W        W 8002   0.239   9.958   4.067  0.3150 -0.3802 -0.1454
 3803W        W 8003   9.323   1.234   9.564 -0.3265  0.2522  0.1642
 3804W        W 8004   8.143   1.303   0.024  0.0478 -0.3066 -0.3449
 3805W        W 8005   6.363   8.351   4.010  0.2103  0.0096  0.2251
 3806W        W 8006   2.627   3.446   9.919  0.1348  0.0491  0.2102
 3807W        W 8007   6.152   3.379  10.969  0.0613 -0.2687 -0.1522
 3808W        W 8008   0.598   1.190   8.944  0.1189  0.3991  0.0390
 3809W        W 8009   9.242   8.969   1.741 -0.0477  0.0046  0.2070
 3810W        W 8010   9.801   6.626   9.464 -0.0560 -0.1084  0.0864
 3811W        W 8011   8.787   6.728   1.658  0.0022  0.0045  0.0522
 3812W        W 8012   9.574   4.115   3.372 -0.1080  0.0334 -0.0093
 3813W        W 8013   8.211   9.920   8.899  0.0650 -0.0154 -0.2906
 3814W        W 8014   4.924   9.420   0.098 -0.0690  0.0660  0.1974
 3815W        W 8015   7.634   6.668  11.854  0.3418 -0.2208  0.0997
 3816W        W 8016   2.352   8.751  10.706 -0.2489 -0.1686 -0.1449
 3817W        W 8017  10.329   8.689   8.564 -0.1529  0.1717  0.1492
 3818W        W 8018   8.266   3.547   1.353  0.0351 -0.0551 -0.0739
 3819W        W 8019   0.527   6.289   9.884  0.0104 -0.0264 -0.1996
 3820W        W 8020   8.028   9.128   9.623  0.1280  0.3088  0.1925
 3821W        W 8021   2.289   1.471   8.411  0.0025 -0.1094 -0.1002
 3822W        W 8022   9.524   4.958  11.648 -0.1411  0.0241 -0.1736
 3823W        W 8023   2.168   6.186   0.630 -0.0154  0.0379 -0.2456
 3824W        W 8024   2.147   0.867  12.353 -0.0177 -0.1556  0.2613
 3825W        W 8025   0.497   6.990  11.901 -0.1259 -0.0256 -0.1251
 3826W        W 8026   6.777   9.413  10.170  0.3779  0.2829  0.0699
 3827W        W 8027   5.336  10.182  10.154 -0.0149  0.1692  0.1013
 3828W        W 8028   5.615   1.272   0.558  0.0767  0.2693  0.1588
 3829W        W 8029   9.340   5.634  10.838  0.1737  0.3244  0.0667
 3830W        W 8030   3.974   3.847   3.795  0.0391  0.2507  0.3711
 3831W        W 8031   1.643   1.983  10.306 -0.1425 -0.1093 -0.0334
 3832W        W 8032   5.478   7.910  11.162 -0.0399  0.2153 -0.1456
 3833W        W 8033   6.997   5.905  12.591 -0.1902 -0.0255  0.3683
 3834W        W 8034   1.966   8.460   2.835 -0.0907 -0.1177  0.4104
 3835W        W 8035   5.158   8.339   8.865 -0.0802  0.0501  0.2719
 3836W        W 8036   3.875   6.369   8.577 -0.0937  0.0163  0.3884
 3837W        W 8037   6.623   9.692   3.188 -0.0206  0.0152 -0.0800
 3838W        W 8038   6.494   9.126   7.793  0.1951  0.0450  0.2975
 3839W        W 8039   3.231   6.678   1.814 -0.1268 -0.0134 -0.1472
 3840W        W 8040   6.364   1.667  11.321 -0.1019  0.2193  0.4102
 3841W        W 8041   5.866   2.686   2.070 -0.2407  0.1030  0.2249
 3842W        W 8042   0.429   9.789  12.312 -0.2947 -0.3771  0.2108
 3843W        W 8043   8.588   9.614  10.158 -0.0018  0.1061 -0.3706
 3844W        W 8044   3.181   4.735  10.595  0.0652  0.1911 -0.3363
 3845W        W 8045   2.176   1.059   9.617 -0.1296 -0.2860  0.1255
 3846W        W 8046   1.093   8.614   8.070 -0.2755  0.1170 -0.0686
 3847W        W 8047   3.766   5.870  11.521 -0.2477 -0.0996  0.0246
 3848W        W 8048  10.649   5.788   8.955 -0.1942 -0.0613 -0.2626
 3849W        W 8049   3.593   0.936   1.730 -0.0767  0.1807  0.1382
 3850W        W 8050   5.719   0.868   1.053 -0.2377 -0.0960  0.0226
 3851W        W 8051   9.614   0.543   2.639  0.1329  0.2304  0.0113
 3852W        W 8052   0.737  10.119   7.497  0.1561  0.0906 -0.1066
 3853W        W 8053   5.088   5.326   4.166  0.1794 -0.1675  0.4270
 3854W        W 8054   8.776   1.776   2.485 -0.3498  0.0692 -0.0958
 3855W        W 8055   8.899  10.265  10.161  0.1029  0.0139  0.4076
 3856W        W 8056   7.063   6.710   0.857 -0.1329  0.0474 -0.0225
 3857W        W 8057   4.101   9.689   9.502  0.3049 -0.1181  0.0358
 3858W        W 8058   9.967   9.941   2.397  0.2196 -0.0286 -0.2217
 3859W        W 8059   5.412   0.513  10.694  0.0489 -0.0812  0.1405
 3860W        W 8060   4.278   0.571   8.750 -0.2863  0.2701 -0.2172
 3861W        W 8061   7.652   1.414   2.140 -0.0794  0.1913 -0.0413
 3862W        W 8062   5.242   5.522  11.532  0.1300 -0.1067 -0.0248
 3863W        W 8063   0.634   0.224   9.181  0.0880 -0.2289  0.0212
 3864W        W 8064   7.464   2.721   2.100  0.1835  0.0168 -0.1798
 3865W        W 8065   4.794   7.279   1.583  0.0841 -0.7095  0.1198
 3866W        W 8066   8.197   9.103   2.512 -0.2227  0.0951 -0.1746
 3867W        W 8067   5.567   4.334   9.901 -0.0743 -0.2710 -0.1388
 3868W        W 8068   4.236   9.159   0.988  0.4404 -0.0155  0.1456
 3869W        W 8069   4.408   2.565  11.135  0.1113 -0.0413 -0.1541
 3870W        W 8070   5.564   9.041  12.015  0.1697 -0.0444  0.1083
 3871W        W 8071   2.610   6.970   0.527 -0.2164  0.2796 -0.0793
 3872W        W 8072   6.559   5.703   4.210  0.1915  0.3608 -0.2572
 3873W        W 8073   6.648   5.155  11.082 -0.0370  0.0394 -0.1011
 3874W        W 8074   4.726   1.524  12.289 -0.1422  0.1516  0.2275
 3875W        W 8075   5.690   5.539  10.749 -0.2224 -0.2494  0.3138
 3876W        W 8076   4.349   0.636   3.732 -0.0832  0.1969  0.4428
 3877W        W 8077   7.017   6.323   1.241 -0.0764  0.0693  0.2015
 3878W        W 8078  10.673   7.021  11.317 -0.1895  0.2018  0.2607
 3879W        W 8079   5.881   3.014   8.819 -0.0046 -0.1619  0.0870
 3880W        W 8080  10.210  10.218   9.397  0.0650  0.0886 -0.0882
 3881W        W 8081   3.715   2.067   9.686 -0.1517 -0.1148 -0.4276
 3882W        W 8082   3.333   8.725   9.749 -0.1199  0.1552  0.0524
 3883W        W 8083   9.800   6.912   1.290 -0.0104  0.1652 -0.0229
 3884W        W 8084   1.462   4.888  11.829 -0.0855  0.3333  0.0361
 3885W        W 8085   4.821   7.938   9.000 -0.1862 -0.1308  0.5636
 3886W        W 8086   8.959   7.676   1.891 -0.0244  0.1796 -0.0419
 3887W        W 8087   5.824   8.234   2.371 -0.0360  0.1454  0.0753
 3888W        W 8088   1.295   8.914   9.356  0.0158 -0.1823  0.1151
 3889W        W 8089   6.316   5.229   9.081 -0.0083  0.1668 -0.0110
 3890W        W 8090   6.450   8.482  10.576  0.0149 -0.2470  0.1382
 3891W        W 8091   4.736   7.668   9.881 -0.0942  0.4090 -0.1929
 3892W        W 8092   5.558   4.834   9.042  0.1021  0.0356 -0.0099
 3893W        W 8093   8.929   2.260   1.248 -0.1415 -0.3279 -0.2307
 3894W        W 8094   9.605   7.714   0.286 -0.1576  0.3962  0.2613
 3895W        W 8095   0.721   0.583  11.448  0.0115  0.0036  0.1560
 3896W        W 8096   4.557   0.344   4.136 -0.3338  0.0413 -0.0398
 3897W        W 8097   3.407   5.880   2.248 -0.2085 -0.2036  0.1832
 3898W        W 8098   8.940  10.658   3.096  0.0634  0.1384  0.2064
 3899W        W 8099   2.687   0.640  10.240  0.1695 -0.0686  0.1382
 3900W        W 8100   5.807   7.778   0.068 -0.0964 -0.1059 -0.0789
 3901W        W 8101   6.574   2.180   8.722 -0.1756 -0.2338  0.3686
 3902W        W 8102   3.116   0.576   1.133  0.0626  0.0328  0.3588
 3903W        W 8103   7.504   3.539  12.714  0.2659 -0.0717  0.2710
 3904W        W 8104   4.156   8.902   0.538 -0.2740  0.0057  0.2047
 3905W        W 8105   4.319   2.082  11.443 -0.0904 -0.2011 -0.1302
 3906W        W 8106   8.136   5.560   2.114 -0.0262  0.0996 -0.3616
 3907W        W 8107   1.087   7.920   2.726  0.1888 -0.2012 -0.0884
 3908W        W 8108   2.928   4.200  12.599  0.2319  0.1594  0.1037
 3909W        W 8109  10.661  10.060   0.470  0.1200 -0.1134  0.1487
 3910W        W 8110   7.051   5.109   3.548  0.2324 -0.0367 -0.4465
 3911W        W 8111   7.279   4.655  11.955 -0.2598 -0.1156 -0.0924
 3912W        W 8112   8.488   6.546  11.644 -0.0354 -0.0297 -0.0955
 3913W        W 8113   4.622   9.744   2.440  0.3560 -0.0564  0.2054
 3914W        W 8114   1.695  10.063   8.826  0.0333 -0.2286  0.1238
 3915W        W 8115   8.043   6.858  12.358 -0.2962 -0.0300 -0.2621
 3916W        W 8116   7.618   3.682   2.770  0.3067  0.2568 -0.1343
 3917W        W 8117   1.799   4.068  12.670  0.0523  0.3033  0.2207
 3918W        W 8118   7.789   3.627   1.286  0.1095 -0.2671 -0.3293
 3919W        W 8119   8.324   9.528   1.306  0.1901  0.0889  0.0718
 3920W        W 8120   4.331   0.377   1.062  0.1625 -0.1625 -0.0426
 3921W        W 8121   5.284   2.931   2.652 -0.3576 -0.0819  0.3956
 3922W        W 8122   3.527   9.415   1.192 -0.1568  0.0982 -0.2937
 3923W        W 8123   0.481   6.419  12.037  0.2771  0.1866  0.2031
 3924W        W 8124   2.766   9.109   8.654  0.1324  0.2970 -0.2118
 3925W        W 8125   9.693   1.271   1.552 -0.1784 -0.0267 -0.2651
 3926W        W 8126  10.567   2.524   0.518  0.2067 -0.0502 -0.1653
 3927W        W 8127   5.487   4.709  11.881  0.2453 -0.4064  0.2252
 3928W        W 8128   1.773   9.231  10.845 -0.1877  0.2929  0.0033
 3929W        W 8129   4.228  10.445  11.121 -0.2306  0.0583  0.0685
 3930W        W 8130   4.980   4.981   9.520 -0.0728  0.1613 -0.1542
 3931W        W 8131   8.550   1.282  11.961 -0.2568  0.2002 -0.0872
 3932W        W 8132   3.260   5.901  11.513 -0.1150 -0.2891 -0.3465
 3933W        W 8133   9.523   4.188   9.719 -0.1762 -0.3049 -0.0647
 3934W        W 8134  10.456   5.940   3.535 -0.0060 -0.0225  0.0948
 3935W        W 8135   3.900   1.134  12.715 -0.2741  0.1077 -0.1495
 3936W        W 8136   4.105   1.899  12.480  0.0085 -0.0134 -0.0105
 3937W        W 8137   0.083   7.156   9.852  0.0023  0.0192 -0.0921
 3938W        W 8138   7.287  10.522   3.658 -0.1407  0.2614  0.1027
 3939W        W 8139   8.823   7.527  11.355 -0.1662  0.3749  0.2741
 3940W        W 8140   7.651   5.076   2.893  0.0888  0.0639 -0.1021
 3941W        W 8141   5.362   4.638  11.408  0.2509 -0.0629 -0.1149
 3942W        W 8142   1.836   8.531  10.727 -0.1987  0.3188  0.0440
 3943W        W 8143   0.257   0.093   0.310 -0.1109  0.2332  0.0311
 3944W        W 8144  10.111   4.649  10.438 -0.0992 -0.0145 -0.2200
 3945W        W 8145   2.130   5.723   3.534  0.1115  0.3228 -0.1334
 3946W        W 8146   5.205   4.614   3.543 -0.1702 -0.1310  0.0287
 3947W        W 8147   9.519   6.148  10.323  0.0209  0.2032 -0.0399
 3948W        W 8148   4.544   7.537   8.895 -0.1056  0.2703  0.3940
 3949W        W 8149   5.559   5.764   1.877 -0.2037  0.1553 -0.0398
 3950W        W 8150   5.258   5.493   9.647  0.3772 -0.0497 -0.2118
 3951W        W 8151  10.216   3.485   1.442 -0.1442  0.4553  0.2588
 3952W        W 8152   9.775   3.437  11.011 -0.0715 -0.0735 -0.0166
 3953W        W 8153  10.474   0.722  10.788  0.4287  0.1214 -0.0767
 3954W        W 8154   9.707   0.852   4.475 -0.3233  0.0607  0.0132
 3955W        W 8155   5.573   6.203   9.595  0.0488  0.0951  0.4298
 3956W        W 8156   5.586   2.022   0.021  0.0004 -0.1146 -0.0520
 3957W        W 8157   2.250   9.025   1.988  0.4579  0.1928  0.0790
 3958W        W 8158   8.934   2.027   3.680 -0.1839  0.2890 -0.0444
 3959W        W 8159   3.917   9.161   1.447  0.1799 -0.3073 -0.0420
 3960W        W 8160  10.600   2.706   1.369  0.3486 -0.1563  0.1347
 3961W        W 8161   7.754   8.387  10.732  0.0398  0.1348 -0.1915
 3962W        W 8162  10.550   8.591   1.201 -0.2352 -0.1909  0.0816
 3963W        W 8163   8.168   6.939   2.109  0.2701 -0.3448  0.3748
 3964W        W 8164   1.039   1.153   9.323  0.2209  0.2320  0.3079
 3965W        W 8165   4.105   3.507  11.652  0.0328 -0.1173 -0.3063
 3966W        W 8166   3.452   5.498   4.296  0.0760  0.0146 -0.2418
 3967W        W 8167   8.119  10.327  12.741 -0.1525  0.3780 -0.0911
 3968W        W 8168   2.158   4.247  10.924  0.0642  0.0395  0.0740
 3969W        W 8169   1.338   0.205   8.829 -0.1264  0.1489  0.1085
 3970W        W 8170   6.540   1.749   3.413 -0.3109 -0.1020  0.0671
 3971W        W 8171   6.524   6.186  12.460  0.0288  0.1040 -0.0564
 3972W        W 8172   5.672   6.326   8.695  0.0661 -0.0022 -0.0766
 3973W        W 8173   7.279   8.962  12.695 -0.0997  0.1025 -0.1743
 3974W        W 8174   0.894   9.975   4.069  0.2447 -0.1934  0.0752
 3975W        W 8175   3.800   7.173  10.413  0.0275  0.0089 -0.0861
 3976W        W 8176   8.694   8.680   1.717  0.0660  0.1068 -0.1575
 3977W        W 8177   2.760   8.024   8.574 -0.0837  0.2711  0.0144
 3978W        W 8178   2.802   9.579  12.247 -0.0127  0.4485 -0.1727
 3979W        W 8179   0.842   7.654  10.060  0.0200  0.0458  0.4136
 3980W        W 8180  10.270   4.066   0.833  0.0198 -0.1082 -0.1144
 3981W        W 8181   9.985  10.237   8.826 -0.1436  0.3443  0.0859
 3982W        W 8182   6.604   2.822   0.409  0.0499 -0.1426  0.1834
 3983W        W 8183   8.764   2.285  12.207 -0.2451 -0.0718  0.0097
 3984W        W 8184   6.540   4.944   3.633 -0.0380  0.0268 -0.2822
 3985W        W 8185   5.025   8.893   3.392  0.0336  0.0344  0.0592
 3986W        W 8186   3.779   4.462   2.320 -0.3219  0.1723 -0.0074
 3987W        W 8187   7.066   6.896  10.358  0.1046 -0.0820  0.3919
 3988W        W 8188   4.312   6.650  11.206  0.1134  0.1344 -0.1690
 3989W        W 8189   8.444   9.998   2.262  0.1048  0.0917 -0.2078
 3990W        W 8190  10.328   9.714   2.644 -0.0839  0.0465  0.2367
 3991W        W 8191   9.264   6.633   3.920 -0.1025  0.0612  0.1665
 3992W        W 8192   6.823   0.176  10.845 -0.0432  0.2124 -0.0385
 3993W        W 8193   7.411   9.595   1.960 -0.0795 -0.0978 -0.0401
 3994W        W 8194   2.724   5.809  11.935 -0.1109  0.2929  0.2189
 3995W        W 8195   0.636   9.643  10.798 -0.0445  0.2459 -0.0819
 3996W        W 8196  10.254   9.550   1.418  0.0606 -0.2442  0.1920
 3997W        W 8197   1.474   2.459  12.832  0.3129  0.1638 -0.2504
 3998W        W 8198  10.196   8.292   9.045  0.0889 -0.3253 -0.2159
 3999W        W 8199   7.622   7.117  12.195 -0.1536  0.1866  0.1259
 4000W        W 8200  10.648   0.256   0.832 -0.3558 -0.1679  0.4145
 4001W        W 8201   9.823   0.246   8.364  0.1201 -0.0399  0.1217
 4002W        W 8202   7.518   5.465   0.709 -0.0226  0.0410  0.4384
 4003W        W 8203   7.575   6.266  11.108  0.1884  0.1847  0.2380
 4004W        W 8204   8.510   5.324   0.948 -0.0291 -0.0465  0.0457
 4005W        W 8205   3.956   8.639   1.389 -0.1944 -0.2849 -0.1894
 4006W        W 8206   8.179   7.957   2.459 -0.4322 -0.3268  0.0199
 4007W        W 8207   6.280   2.326   1.567 -0.2289  0.0076 -0.3184
 4008W        W 8208   4.912   5.349  11.898 -0.0706  0.0781  0.1933
 4009W        W 8209   7.505   6.452   0.874 -0.0568 -0.1072 -0.1502
 4010W        W 8210   0.493   9.966   1.418 -0.2062 -0.0896 -0.0733
 4011W        W 8211  10.399   9.817   8.979  0.0794 -0.0356  0.0220
 4012W        W 8212   1.456   5.660   0.797 -0.0835  0.2107 -0.2659
 4013W        W 8213   0.217   6.678   3.801 -0.1134 -0.3314  0.2724
 4014W        W 8214   4.055   5.327   2.641 -0.1109  0.1437  0.0931
 4015W        W 8215   9.301   4.393  12.801 -0.0990  0.2043  0.0049
 4016W        W 8216   8.939   9.506   0.687 -0.4595  0.2277 -0.3144
 4017W        W 8217   8.339   0.984  12.467  0.0446  0.0146 -0.0368
 4018W        W 8218   1.121   1.063   1.669  0.0659 -0.5014 -0.1206
 4019W        W 8219   4.332   4.482  11.977  0.2360 -0.1486  0.3438
 4020W        W 8220  10.091   4.863   3.672  0.1839  0.2268 -0.0523
 4021W        W 8221   4.729   1.945   9.901 -0.0300 -0.2637  0.2068
 4022W        W 8222   3.014   8.382  11.693  0.1118  0.1727  0.0009
 4023W        W 8223   5.148   1.629   7.708  0.2431 -0.1318 -0.0812
 4024W        W 8224   3.624   1.122   2.248  0.1525 -0.3224  0.3362
 4025W        W 8225   3.690   6.560  12.116 -0.1785 -0.1479 -0.0496
 4026W        W 8226   2.483   9.987   2.489 -0.0188  0.2679  0.2269
 4027W        W 8227   8.710   7.913   0.947  0.1185 -0.1037 -0.2271
 4028W        W 8228   4.701   8.023   4.580 -0.1234  0.2286 -0.0357
 4029W        W 8229  10.017   6.858   9.814 -0.0335 -0.0004 -0.1095
 4030W        W 8230   4.746   2.690   2.650 -0.0858  0.3816  0.1100
 4031W        W 8231  10.646   2.241   1.566 -0.3045 -0.1094 -0.2159
 4032W        W 8232  10.309  10.178  11.283  0.0545  0.2228  0.0935
 4033W        W 8233   8.405   6.059   3.733 -0.0350 -0.2269 -0.2478
 4034W        W 8234   1.924   2.475   9.323 -0.1366 -0.1902 -0.0107
 4035W        W 8235   5.599   5.269   3.087 -0.0239 -0.1884  0.1060
 4036W        W 8236   5.197   6.208   2.552 -0.2596  0.0888 -0.2096
 4037W        W 8237   8.813   9.154   3.245 -0.2777  0.0918 -0.4852
 4038W        W 8238   0.399   2.408  10.808 -0.0211  0.2035 -0.2214
 4039W        W 8239   2.653   2.643   0.847  0.0935 -0.1874  0.0497
 4040W        W 8240   4.479   3.668  11.277  0.0568  0.3007  0.2051
 4041W        W 8241   7.877   5.784  11.444 -0.0390 -0.0669  0.4445
 4042W        W 8242   2.224   5.428  12.034  0.0213 -0.1139 -0.1830
 4043W        W 8243   2.299   2.203   9.593  0.1917  0.0188  0.0982
 4044W        W 8244   1.985   5.070   2.852 -0.1587  0.0928  0.0714
 4045W        W 8245   3.905   2.785   8.417 -0.1735 -0.2503 -0.3984
 4046W        W 8246   7.882   3.480   9.257 -0.4003 -0.0238  0.0649
 4047W        W 8247   5.085   6.727  11.841  0.1242  0.2598  0.1246
 4048W        W 8248   0.329  10.440   0.637  0.0209 -0.0748  0.1674
 4049W        W 8249   9.696   1.570   2.599  0.0802  0.0845 -0.1137
 4050W        W 8250   1.225   5.462   1.189  0.0884  0.3099  0.0161
 4051W        W 8251   4.774   2.266   0.475  0.2365  0.1163 -0.2362
 4052W        W 8252   0.301   7.574   2.846 -0.2723 -0.2105 -0.0038
 4053W        W 8253   6.248   9.005  12.539  0.2836  0.0577  0.2823
 4054W        W 8254   2.415  10.153  10.175  0.3269 -0.0952 -0.0502
 4055W        W 8255   1.256   1.918   3.634 -0.1839 -0.0444 -0.1030
 4056W        W 8256   4.034   0.889   2.677 -0.0415 -0.5203  0.0944
 4057W        W 8257  10.217   7.791   0.982 -0.0902  0.0596  0.2426
 4058W        W 8258   9.851   7.632  11.316  0.1008 -0.0551  0.3511
 4059W        W 8259   8.409   1.698   0.228 -0.2043 -0.1487  0.2756
 4060W        W 8260   1.551   8.026   2.699  0.0660  0.1141  0.4015
 4061W        W 8261   5.767   6.765   0.337 -0.1658  0.2902  0.1534
 4062W        W 8262   8.260   1.356   3.658  0.0185 -0.0375 -0.0374
 4063W        W 8263   3.126   8.978   1.688  0.0276  0.1648 -0.1550
 4064W        W 8264   3.770   6.627  11.377  0.1349 -0.2377  0.2131
 4065W        W 8265   8.280   6.818   4.253 -0.0683  0.0173 -0.0602
 4066W        W 8266   6.793   1.219   2.218 -0.0154  0.0477 -0.0630
 4067W        W 8267   4.508   8.638   0.132 -0.0622  0.2770  0.1709
 4068W        W 8268   2.772   9.278  12.801 -0.1939  0.1741 -0.0489
 4069W        W 8269   9.686   7.231   0.278 -0.1428 -0.0046  0.2588
 4070W        W 8270   7.382   3.383   9.039  0.1822  0.0725 -0.3976
 4071W        W 8271   2.003   6.490   0.998  0.1580  0.2160  0.2463
 4072W        W 8272   0.224   4.704   3.255 -0.0831  0.1252  0.1721
 4073W        W 8273  10.434   9.849   8.033 -0.3256  0.1032 -0.0043
 4074W        W 8274   3.934   1.751   8.197 -0.2813  0.0598  0.0569
 4075W        W 8275  10.152   5.990   4.401 -0.3165 -0.1140  0.2743
 4076W        W 8276  10.645   5.465   3.649 -0.2248  0.0836  0.0327
 4077W        W 8277  10.199   2.145   9.511 -0.1654 -0.1095  0.1807
 4078W        W 8278   6.040   4.059   3.912  0.2283 -0.0698  0.1943
 4079W        W 8279   6.856   9.682   2.321  0.2929 -0.0334 -0.1370
 4080W        W 8280   2.389   7.602  12.217  0.1284 -0.0688  0.0646
 4081W        W 8281   2.022   2.174  12.543  0.3006  0.0318  0.1750
 4082W        W 8282   1.997   5.877   9.741  0.0660  0.1511  0.0050
 4083W        W 8283   0.963   4.682   7.296 -0.2017 -0.0125 -0.0613
 4084W        W 8284   0.383   9.430   8.562 -0.2354 -0.2283 -0.1808
 4085W        W 8285   7.877   0.983  10.694  0.0426 -0.1511 -0.0325
 4086W        W 8286   8.234   2.577   0.197  0.1832  0.0588  0.0201
 4087W        W 8287   2.566   0.218   7.969  0.0247  0.1040 -0.0785
 4088W        W 8288   9.573   3.236   9.940  0.0357  0.1079 -0.3222
 4089W        W 8289   2.813   4.388   8.884 -0.0422 -0.2665  0.0375
 4090W        W 8290   0.478   4.876  10.785  0.0650 -0.1468 -0.0254
 4091W        W 8291   7.710  10.279  10.848 -0.3449  0.3128 -0.2399
 4092W        W 8292   3.706   5.351  10.852  0.1582  0.2975 -0.2713
 4093W        W 8293  10.454   4.660  11.109 -0.0646  0.0592 -0.4561
 4094W        W 8294   3.518  10.247  11.690 -0.2387  0.1696 -0.1173
 4095W        W 8295   7.274   9.054   4.118 -0.2479 -0.0171 -0.2923
 4096W        W 8296   0.980  10.380   8.269 -0.2162 -0.2335 -0.1114
 4097W        W 8297   5.400   4.119   2.247 -0.1420  0.1550 -0.2305
 4098W        W 8298   3.925  10.227   8.085  0.0023 -0.2395  0.4648
 4099W        W 8299   8.315   0.145   2.406  0.3271 -0.2911  0.0857
 4100W        W 8300   9.296   5.053   2.530 -0.1733 -0.1650  0.0764
 4101W        W 8301   3.724   7.029   1.075 -0.0329 -0.1703  0.2223
 4102W        W 8302   1.046   9.958   1.082  0.0468  0.0089  0.0280
 4103W        W 8303   5.330  10.595   1.055 -0.1122  0.0267  0.1361
 4104W        W 8304   6.444  10.220  11.242 -0.0142  0.2816 -0.3638
 4105W        W 8305   6.900   9.196   8.198  0.0294 -0.1912 -0.1119
 4106W        W 8306   6.748   3.076   3.655  0.2658  0.2454  0.0136
 4107W        W 8307   5.294   2.531   1.681  0.0840 -0.1444 -0.0495
 4108W        W 8308  10.034   6.205   2.140 -0.3617 -0.0208 -0.3242
 4109W        W 8309   7.907   5.905  12.868  0.2559 -0.2308 -0.0565
 4110W        W 8310   6.632   3.643   2.656  0.1800  0.0187  0.0896
 4111W        W 8311   0.036   5.606   2.577  0.0869  0.0039  0.0522
 4112W        W 8312   0.181   2.968  11.403  0.1204  0.1696  0.0623
 4113W        W 8313   3.515   2.217   9.011 -0.3105 -0.0353  0.1768
 4114W        W 8314   0.141   6.228   2.641  0.0603  0.0429  0.0464
 4115W        W 8315   4.739   6.768  10.754 -0.1859 -0.0463 -0.3517
 4116W        W 8316   1.959   7.454   1.941  0.1838 -0.1236  0.0942
 4117W        W 8317   5.835   1.175  12.919  0.1596  0.0277 -0.1923
 4118W        W 8318   8.144   9.307  12.711  0.2169 -0.2525 -0.1353
 4119W        W 8319   7.287  10.038   0.498  0.0672 -0.0741 -0.0118
 4120W        W 8320   3.600   8.100   3.729  0.2690 -0.2062  0.0999
 4121W        W 8321   1.287   9.768   8.714 -0.1480  0.0105 -0.1765
 4122W        W 8322  10.096   4.914   9.514 -0.0689  0.0805 -0.1191
 4123W        W 8323   5.971   7.174   7.678 -0.0675  0.2459  0.2654
 4124W        W 8324   9.699   1.111  10.356 -0.1638 -0.1758  0.3521
 4125W        W 8325   6.103   0.914   1.393  0.0799  0.0407  0.3115
 4126W        W 8326  10.332   8.454  11.401 -0.0659  0.0562 -0.3246
 4127W        W 8327   8.925   5.259   3.528  0.0121  0.3678  0.0223
 4128W        W 8328   3.714   9.319   4.469 -0.0732 -0.0474 -0.1270
 4129W        W 8329   4.515   1.488  12.770 -0.0104 -0.3574 -0.0520
 4130W        W 8330   5.620   3.203   8.265 -0.1106  0.1356  0.0023
 4131W        W 8331   6.919   1.987  10.035 -0.2034  0.1011 -0.2582
 4132W        W 8332   7.589   6.785  12.844  0.0733 -0.2041  0.0223
 4133W        W 8333   0.289   1.623   9.182  0.0066 -0.3370  0.2890
 4134W        W 8334   4.384   1.530   8.871  0.1317  0.0870 -0.3044
 4135W        W 8335   6.110   1.283  11.113 -0.0059 -0.0199 -0.2722
 4136W        W 8336   4.862   2.379  10.131 -0.2613  0.3030  0.1247
 4137W        W 8337   2.583   3.219  11.727 -0.1650  0.1311  0.1516
 4138W        W 8338   5.067   4.953  12.186  0.1876 -0.2089 -0.2131
 4139W        W 8339   2.139   7.121   3.627 -0.2917  0.2811 -0.3456
 4140W        W 8340   3.959   8.412  12.070 -0.0275 -0.1552 -0.1463
 4141W        W 8341   7.057   2.057   8.064  0.3064 -0.3054 -0.1775
 4142W        W 8342   4.552   8.515   3.332  0.2916 -0.1311  0.1637
 4143W        W 8343   0.771   9.704   8.890 -0.0349  0.5306  0.1655
 4144W        W 8344   0.950   3.354   4.025 -0.1987  0.0020 -0.1214
 4145W        W 8345   4.113   6.822   8.837  0.1241 -0.0201 -0.0576
 4146W        W 8346   7.296   0.800  11.908  0.4429  0.1762 -0.0750
 4147W        W 8347   6.334   5.980   8.141 -0.1699  0.0369 -0.4173
 4148W        W 8348   2.425   4.070  12.650 -0.0694  0.2333  0.1286
 4149W        W 8349   1.502   3.708  12.304  0.3687 -0.0808 -0.1256
 4150W        W 8350   5.468   5.100   4.358 -0.0585  0.3817  0.1343
 4151W        W 8351   1.380   4.370  12.428 -0.2765  0.1049 -0.4299
 4152W        W 8352   8.468   2.282  11.797  0.0647 -0.0082  0.0079
 4153W        W 8353   5.910   7.597   8.536 -0.2767  0.1454  0.0809
 4154W        W 8354  10.188   1.441   2.788 -0.0777 -0.1809 -0.2292
 4155W        W 8355  10.399  10.367   9.836  0.0114 -0.2337 -0.2860
 4156W        W 8356   4.230   0.832   1.540  0.0284 -0.2582  0.1209
 4157W        W 8357   5.717   3.243  11.129 -0.1315 -0.1988 -0.1453
 4158W        W 8358   5.361   2.647   9.994 -0.0149  0.0875 -0.0735
 4159W        W 8359   4.792   7.595  10.881  0.0790 -0.0852  0.3808
 4160W        W 8360   1.465  10.272   1.470 -0.2789 -0.3960 -0.1422
 4161W        W 8361  10.569   0.186   2.749 -0.4203  0.2582  0.0799
 4162W        W 8362   0.273   6.496   3.093 -0.0732  0.2763 -0.0661
 4163W        W 8363   0.111  10.623  11.845 -0.2101  0.1766  0.0532
 4164W        W 8364   7.620   9.063   3.730 -0.3735 -0.3528  0.0499
 4165W        W 8365   8.652   7.860  12.525 -0.1204  0.1355 -0.0774
 4166W        W 8366   7.048   9.966   1.246  0.0556 -0.0756 -0.3551
 4167W        W 8367   8.207   0.716   0.626 -0.0241 -0.2188 -0.2740
 4168W        W 8368   0.436   8.836   1.347  0.3469 -0.1563 -0.0615
 4169W        W 8369   1.925   0.510   2.893 -0.0419  0.1555  0.1822
 4170W        W 8370  10.382   2.012   1.912  0.1588 -0.0585  0.1598
 4171W        W 8371   6.204   8.473   9.466 -0.0423  0.0596 -0.1143
 4172W        W 8372   2.747   4.421   1.072  0.0764 -0.2933  0.0434
 4173W        W 8373   9.741   6.052  12.786  0.2214 -0.0037  0.1547
 4174W        W 8374   3.495   5.283  12.878  0.1741  0.1435  0.0347
 4175W        W 8375   9.424   7.545   9.924  0.2628 -0.1044 -0.1998
 4176W        W 8376   8.037   2.474  11.613  0.1432 -0.2354 -0.0271
 4177W        W 8377   0.029   5.881   1.132 -0.2010  0.1587  0.0868
 4178W        W 8378   3.867   2.663   0.232  0.0721 -0.0633 -0.0404
 4179W        W 8379   9.905   6.850   8.851  0.2053  0.0570 -0.1509
 4180W        W 8380   0.529   8.820   9.830 -0.3199 -0.2285  0.3571
 4181W        W 8381   6.349   7.554   4.495  0.1095  0.1374 -0.0602
 4182W        W 8382   0.744   0.759   9.217 -0.0735  0.1485  0.1069
 4183W        W 8383   3.390   2.903   1.395 -0.2455  0.0897  0.1630
 4184W        W 8384   5.322   8.463   1.028 -0.1768 -0.2176  0.3315
 4185W        W 8385   7.215   9.109   0.900  0.2420  0.2289 -0.1863
 4186W        W 8386   3.419  10.060   8.805  0.0922  0.1320 -0.1572
 4187W        W 8387   8.864  10.381  11.349 -0.3962  0.3791 -0.1193
 4188W        W 8388  10.434   0.961   8.332 -0.0453  0.0802  0.3416
 4189W        W 8389   4.073   8.862   3.385 -0.2320 -0.0622  0.0427
 4190W        W 8390   6.834   7.337  10.066  0.1056  0.0658 -0.0839
 4191W        W 8391   3.196  10.248   7.372 -0.2347 -0.2923  0.2176
 4192W        W 8392   2.432   6.979   1.016 -0.0578 -0.0885 -0.0180
 4193W        W 8393   8.793   5.888   4.485 -0.0287 -0.0057  0.2026
 4194W        W 8394   5.523   5.801   2.542  0.1355  0.0722 -0.1050
 4195W        W 8395   6.582   8.883  10.829  0.3532 -0.3074  0.0944
 4196W        W 8396   0.768   3.566  12.916 -0.1885  0.3933  0.0578
 4197W        W 8397   3.728  10.660  11.947  0.1709  0.0661  0.0006
 4198W        W 8398   9.830   1.568  11.227  0.0681  0.1192 -0.3510
 4199W        W 8399   6.395   3.516  11.986  0.0330  0.0193  0.0187
 4200W        W 8400   5.066   3.660   9.773  0.0172 -0.1017 -0.1083
 4201W        W 8401   0.144   7.874  11.831 -0.0157 -0.2670  0.2254
 4202W        W 8402   2.509   3.098  11.239 -0.0073 -0.0975 -0.2654
 4203W        W 8403   4.339   4.384   2.889 -0.4219  0.0100  0.1149
 4204W        W 8404   7.655   8.639   9.466  0.0655  0.0999  0.1604
 4205W        W 8405   6.703   4.514  10.417  0.0038 -0.0520  0.0846
 4206W        W 8406   3.103   9.647  12.700 -0.1813  0.1023  0.0958
 4207W        W 8407   1.959   0.207   3.888  0.2282  0.1067 -0.1082
 4208W        W 8408   4.237   2.427   9.248  0.1809 -0.0329  0.0578
 4209W        W 8409   2.837   6.505   0.530  0.1191 -0.0468 -0.3723
 4210W        W 8410   2.412   3.376  10.433  0.0979 -0.1100 -0.1420
 4211W        W 8411   4.114   9.550   0.036  0.0623 -0.0690  0.4432
 4212W        W 8412   2.938   7.292   2.775  0.1349 -0.1768 -0.3498
 4213W        W 8413   3.051   6.872   2.237 -0.2761 -0.1901  0.4634
 4214W        W 8414   0.185   1.027   9.157  0.0116  0.2662  0.3430
 4215W        W 8415   9.392   6.392  11.984  0.2434 -0.1262  0.0984
 4216W        W 8416   4.881  10.059   0.140 -0.1485 -0.0534  0.3765
 4217W        W 8417   0.414   5.614   3.535  0.0365 -0.1961 -0.0523
 4218W        W 8418   9.112   3.034   1.132  0.1211 -0.1761  0.0651
 4219W        W 8419   7.139   9.855  11.883  0.1155  0.0301 -0.2847
 4220W        W 8420   2.267   8.588   1.737 -0.0013 -0.3359  0.0041
 4221W        W 8421  10.696   9.514   2.353 -0.1482  0.0113 -0.1380
 4222W        W 8422   8.038   7.618  10.735  0.0189  0.1351 -0.0646
 4223W        W 8423   1.258   4.991   2.009 -0.2256  0.0865 -0.1747
 4224W        W 8424   4.541   9.493   8.147 -0.2384 -0.0768 -0.1107
 4225W        W 8425   9.167   4.305   2.077  0.0366  0.2819  0.0343
 4226W        W 8426   2.628   5.628  10.808 -0.0499 -0.0678  0.0586
 4227W        W 8427   1.843   8.682  12.614 -0.0820 -0.1409  0.0193
 4228W        W 8428   5.318   0.188   2.239 -0.1061  0.2102  0.3157
 4229W        W 8429   0.529   2.727   0.878  0.1857  0.1057 -0.3024
 4230W        W 8430   2.520   2.220  12.487  0.3754  0.0451  0.3153
 4231W        W 8431   1.912   2.372   8.399  0.2832  0.2666  0.1126
 4232W        W 8432   8.445   8.734   3.352 -0.1459  0.1923  0.0627
 4233W        W 8433   9.104   0.658   3.361  0.2796 -0.2837  0.1342
 4234W        W 8434   3.826   9.347   9.277 -0.1763 -0.2336 -0.1971
 4235W        W 8435   9.836   2.791   0.373  0.0993 -0.0945 -0.2235
 4236W        W 8436   6.101  10.566   2.091  0.0273 -0.0182  0.0245
 4237W        W 8437   8.631  10.372   8.659 -0.3802 -0.0402  0.1341
 4238W        W 8438   7.801   8.409  12.534  0.2252 -0.2522 -0.1440
 4239W        W 8439  10.001   0.322  10.043 -0.0102  0.0513 -0.0800
 4240W        W 8440   0.603   7.387   9.707  0.4274 -0.1643  0.0272
 4241W        W 8441   5.982  10.638   9.024 -0.0130 -0.2808  0.0331
 4242W        W 8442   1.619   2.120   2.349  0.1632  0.1066 -0.0680
 4243W        W 8443   6.500   1.462  12.459 -0.0630  0.0962 -0.1899
 4244W        W 8444   5.488   8.595  10.654 -0.3630  0.1930  0.0650
 4245W        W 8445   2.689   6.466   9.932 -0.0795 -0.3330  0.0644
 4246W        W 8446   6.907   9.491  11.004 -0.0187 -0.4420 -0.0456
 4247W        W 8447   9.359   3.423  11.934  0.0400  0.0524 -0.4025
 4248W        W 8448   6.031   9.977   1.026  0.0932 -0.1021  0.0444
 4249W        W 8449   1.750   2.626   0.371  0.0790  0.1482  0.0366
 4250W        W 8450   9.540   5.520   0.798  0.1365  0.0716 -0.3072
 4251W        W 8451   5.988   1.338  11.908  0.4304  0.0299  0.1977
 4252W        W 8452   1.113   8.045   9.857 -0.0001  0.1201  0.1691
 4253W        W 8453  10.497   2.324   0.987 -0.1879  0.1125 -0.0364
 4254W        W 8454   5.671   1.734   0.848 -0.1339  0.1654 -0.3411
 4255W        W 8455   8.908   1.511  10.361 -0.1230  0.0665  0.1156
 4256W        W 8456   4.600   6.358   9.683  0.0570 -0.1557 -0.3352
 4257W        W 8457   1.963   9.898  10.293 -0.2210 -0.0862  0.0111
 4258W        W 8458   8.157   1.587   2.897  0.0184 -0.0956  0.1037
 4259W        W 8459   3.259   6.311   1.507 -0.1862 -0.2315 -0.2252
 4260W        W 8460   6.038   0.906   8.557  0.0931 -0.1765 -0.1757
 4261W        W 8461   4.772   0.495  10.154  0.0950  0.0773 -0.1759
 4262W        W 8462   5.832   3.309  10.118 -0.1630  0.0888  0.0971
 4263W        W 8463   2.471   1.260  12.289 -0.2348 -0.2147  0.0468
 4264W        W 8464   0.302   3.380   0.220 -0.0419 -0.3606  0.0283
 4265W        W 8465   4.063   2.808  12.226 -0.1412 -0.2256  0.0289
 4266W        W 8466   5.532   9.803   3.944 -0.0718 -0.3395  0.3783
 4267W        W 8467   1.449   9.726   7.804  0.0945 -0.2406 -0.2565
 4268W        W 8468   6.035   9.617   2.071  0.1715  0.1898 -0.1212
 4269W        W 8469   7.310   5.123   8.621  0.2528  0.0237  0.0907
 4270W        W 8470   3.776   2.502   9.313  0.0362 -0.1018  0.1037
 4271W        W 8471   7.017   1.313  11.826  0.0428  0.1380  0.0837
 4272W        W 8472   0.405   9.935   2.806 -0.2009 -0.4157  0.1023
 4273W        W 8473   4.567  10.253   3.850  0.0339  0.0553  0.0959
 4274W        W 8474   4.784   2.165   2.583 -0.2202  0.0589  0.1970
 4275W        W 8475   6.362   6.264   0.470  0.0683  0.0488  0.3627
 4276W        W 8476   5.530   0.052  10.597 -0.1044  0.0413 -0.1682
 4277W        W 8477   4.998   1.232  12.627  0.2209 -0.4127 -0.0327
 4278W        W 8478   6.565   7.581   0.386  0.0127  0.1011  0.3903
 4279W        W 8479   5.054   1.173  12.059  0.3728 -0.0291 -0.0588
 4280W        W 8480   3.623   6.944   9.976  0.0477  0.3219  0.1787
 4281W        W 8481   6.285   7.219   3.666  0.0338 -0.2802 -0.2332
 4282W        W 8482   6.220   1.810   1.696 -0.2250 -0.0706  0.5717
 4283W        W 8483   1.708   9.520   8.728  0.4451 -0.4250  0.1210
 4284W        W 8484   6.195   0.259   0.177 -0.1829 -0.0319 -0.2043
 4285W        W 8485   9.226   1.129  10.503  0.2941 -0.3107  0.0060
 4286W        W 8486   7.704   0.908   9.254  0.2589 -0.0110 -0.1779
 4287W        W 8487   9.171   1.981  10.263 -0.2008  0.2615  0.1448
 4288W        W 8488   7.003  10.570   8.949  0.0493  0.3872  0.0511
 4289W        W 8489   6.027  10.473   2.643 -0.1490  0.1945  0.5833
 4290W        W 8490   0.838   4.525   0.645  0.0041  0.1811 -0.2683
 4291W        W 8491   2.162   2.111   2.494 -0.1945 -0.2268  0.0191
 4292W        W 8492   4.137   6.636   1.799  0.0034  0.0708  0.0214
 4293W        W 8493   7.841   2.867  12.542  0.0805  0.2105  0.0859
 4294W        W 8494   6.276   5.469   8.656 -0.1817  0.1060 -0.0773
 4295W        W 8495   8.313   7.985  11.167  0.2163  0.1757  0.3368
 4296W        W 8496   4.473  10.111   9.763  0.2557  0.2383  0.2991
 4297W        W 8497   8.775   3.190   3.095  0.1518 -0.4088  0.0976
 4298W        W 8498   3.186   7.905   3.460 -0.0563 -0.5627  0.0222
 4299W        W 8499   7.127   6.300  11.325 -0.2209  0.2814 -0.0446
 4300W        W 8500   3.703   0.017  10.987  0.1229 -0.0010 -0.2753
 4301W        W 8501   4.390   2.840   0.329 -0.0408 -0.1640 -0.1570
 4302W        W 8502   2.131   3.789   2.421 -0.2101  0.1708  0.0189
 4303W        W 8503   8.321   8.012   8.001 -0.0628 -0.0838  0.1909
 4304W        W 8504   2.299   8.098  10.783  0.0380 -0.0162  0.3510
 4305W        W 8505  10.173   2.401   1.544 -0.0478 -0.0396  0.1789
 4306W        W 8506   3.385   3.205  12.102  0.1077  0.2895 -0.3213
 4307W        W 8507   1.985   8.910   9.865  0.0877 -0.2276  0.2203
 4308W        W 8508  10.317   9.300   3.113 -0.0390 -0.2674  0.2331
 4309W        W 8509   0.839   4.109  11.667 -0.0198  0.0325 -0.0436
 4310W        W 8510   1.108   7.817  10.754  0.0546 -0.1164  0.1062
 4311W        W 8511  10.307   5.930   2.538  0.2231  0.1259 -0.0543
 4312W        W 8512   8.075   7.714  11.470 -0.1982 -0.0122 -0.2426
 4313W        W 8513   8.102   3.761   2.825 -0.2258 -0.0362 -0.1257
 4314W        W 8514  10.100   1.066   1.766 -0.1646  0.0819 -0.0389
 4315W        W 8515   1.533  10.528  10.647 -0.2233 -0.1960  0.3270
 4316W        W 8516   3.919   4.519   9.808  0.2071  0.0440  0.1796
 4317W        W 8517   6.191   4.898   2.812 -0.3342 -0.1545  0.2882
 4318W        W 8518   2.578   9.609   9.940 -0.1625  0.1677  0.0856
 4319W        W 8519   4.924   9.885   9.764 -0.3438 -0.0739  0.0014
 4320W        W 8520   7.226   1.876   1.657  0.0002 -0.1999  0.1163
 4321W        W 8521   1.626   6.725  11.265  0.3459  0.2248 -0.2308
 4322W        W 8522   4.513   7.336   2.040 -0.1667 -0.1529 -0.0735
 4323W        W 8523  10.095   2.736   3.658  0.2112  0.0804 -0.2902
 4324W        W 8524   2.895   1.144   3.460  0.0738  0.4211 -0.1259
 4325W        W 8525   9.380   2.625   2.111  0.1689 -0.1188  0.1873
 4326W        W 8526  10.238   6.177   0.131 -0.0501 -0.0987 -0.1131
 4327W        W 8527   6.321   4.684  11.295 -0.0812 -0.3265  0.0619
 4328W        W 8528   3.769   5.531   8.724 -0.3599 -0.0167 -0.2081
 4329W        W 8529   4.579   2.462   0.023  0.0466 -0.0199 -0.0502
 4330W        W 8530   9.744   9.904  12.329 -0.0015  0.2422 -0.2942
 4331W        W 8531   8.852   1.303   2.644 -0.1816  0.1082 -0.1374
 4332W        W 8532   3.195   3.683  12.206 -0.3638  0.1181  0.1963
 4333W        W 8533   5.821   9.314  11.631 -0.0897  0.2553  0.0002
 4334W        W 8534   9.396   9.894   8.206 -0.0917 -0.1966  0.3567
 4335W        W 8535   8.438   3.832   4.006 -0.2058  0.0139  0.1478
 4336W        W 8536   4.239  10.213  10.311  0.0960 -0.1349 -0.2820
 4337W        W 8537   4.199   1.658   4.472  0.0062 -0.0871  0.2502
 4338W        W 8538   3.632   0.481  11.189 -0.2682  0.1150 -0.2212
 4339W        W 8539   7.735   1.747   3.221  0.1801 -0.0952  0.3318
 4340W        W 8540   1.290   2.724   0.330  0.2429 -0.3152  0.0967
 4341W        W 8541  10.626   6.547  10.474 -0.0094 -0.0205  0.2295
 4342W        W 8542   6.352   2.588  10.880 -0.1051 -0.2107  0.3638
 4343W        W 8543   7.866   1.034   1.418 -0.2013  0.1667  0.1968
 4344W        W 8544   7.232   2.972   7.643 -0.2247 -0.3206 -0.1760
 4345W        W 8545   3.093   3.870   3.584  0.1885 -0.0296 -0.2435
 4346W        W 8546   4.761   3.641   8.393 -0.0375 -0.0998 -0.0627
 4347W        W 8547   8.991   4.167   4.075 -0.2634  0.0464 -0.3165
 4348W        W 8548   5.184   2.242   9.736 -0.1074 -0.0097  0.0377
 4349W        W 8549   7.835   3.136   2.016 -0.3754  0.2620 -0.0798
 4350W        W 8550   9.888   4.025   2.567 -0.1895 -0.1127  0.6458
 4351W        W 8551   5.972   3.753   4.335 -0.0668 -0.0062 -0.1406
 4352W        W 8552   9.498   3.626   3.580 -0.0748 -0.0205 -0.3914
 4353W        W 8553  10.270   2.951  10.312 -0.1700 -0.1697 -0.1567
 4354W        W 8554   7.828   0.960  12.822 -0.3316  0.1741  0.1424
 4355W        W 8555   5.400   3.198   9.888  0.1178 -0.2388  0.3078
 4356W        W 8556   7.020   1.049  10.302 -0.4694 -0.0818 -0.1393
 4357W        W 8557   1.683   5.493  11.290 -0.0142  0.1104  0.3412
 4358W        W 8558   5.338   7.108   0.194 -0.4621  0.1110 -0.0042
 4359W        W 8559   3.215   8.748   2.121 -0.1946  0.0944  0.3067
 4360W        W 8560  10.006  10.217   3.875  0.0235 -0.1903  0.1679
 4361W        W 8561   6.097   0.604   2.896  0.0160  0.0811  0.2344
 4362W        W 8562   8.709   1.765  12.669 -0.0341 -0.0363 -0.2437
 4363W        W 8563   0.678   9.031   0.934 -0.0408  0.0126 -0.0040
 4364W        W 8564   9.734   8.112  12.504 -0.1407  0.0839  0.0579
 4365W        W 8565   2.822   3.128  12.160  0.2040  0.1777 -0.2269
 4366W        W 8566  10.461   9.272   0.612  0.1161  0.0657 -0.0828
 4367W        W 8567   7.183   0.386   2.976 -0.1550  0.2256 -0.1140
 4368W        W 8568   5.830   3.486  11.588  0.1352  0.0648 -0.0070
 4369W        W 8569   8.921   7.993  10.612 -0.0655 -0.1281 -0.3874
 4370W        W 8570  10.157   6.486   9.059 -0.4356 -0.0401  0.0861
 4371W        W 8571   2.827   7.831   2.990 -0.1665  0.2838  0.2235
 4372W        W 8572   4.135   1.453   9.364  0.0143 -0.2605 -0.0927
 4373W        W 8573   3.366   2.618  10.368  0.3163 -0.0380  0.1441
 4374W        W 8574   7.465   9.129   9.611  0.2185  0.1976  0.1478
 4375W        W 8575   1.140   9.592   9.175  0.3318  0.1246 -0.1499
 4376W        W 8576   7.857   5.137   2.133 -0.0299 -0.1123 -0.2038
 4377W        W 8577   7.120   3.614   2.827  0.1129  0.1945 -0.1345
 4378W        W 8578   5.307   0.961  10.299  0.0135 -0.0452  0.0925
 4379W        W 8579   5.276   5.249   9.199  0.1072  0.0713  0.4286
 4380W        W 8580   1.245   1.025  12.659 -0.0571 -0.0286 -0.0896
 4381W        W 8581   6.877   6.531   4.276 -0.0935  0.1050 -0.2429
 4382W        W 8582   2.706   1.603  12.745  0.1080 -0.0663  0.1650
 4383W        W 8583   4.470   2.671   8.908  0.0162  0.0356  0.2611
 4384W        W 8584   3.066   9.866  10.743  0.1605 -0.0831 -0.1851
 4385W        W 8585   9.842   4.611   3.219  0.2111 -0.0222  0.1828
 4386W        W 8586   7.044   0.736   1.008  0.2571 -0.0225  0.1131
 4387W        W 8587   0.725   2.360  10.266  0.1337 -0.0497 -0.2305
 4388W        W 8588   7.769   3.031   4.071  0.1795  0.1290 -0.1505
 4389W        W 8589   8.982   6.789   9.821  0.1969  0.0936 -0.3815
 4390W        W 8590   7.387   8.181  11.127  0.1278 -0.0874  0.2784
 4391W        W 8591   9.364  10.406  11.052  0.2679  0.0365  0.1235
 4392W        W 8592   7.478   3.655   0.312 -0.0254  0.1230  0.0648
 4393W        W 8593  10.646   6.398   3.484  0.2398 -0.2734  0.1156
 4394W        W 8594   4.596   9.163  10.898 -0.2536 -0.0205 -0.1025
 4395W        W 8595   7.354   1.091   9.573 -0.0102  0.2106 -0.0749
 4396W        W 8596   8.716   0.984   1.257 -0.1060  0.0074  0.0796
 4397W        W 8597   3.221   8.266   3.109  0.0830 -0.0152  0.1611
 4398W        W 8598   4.352   4.529   3.458 -0.0122  0.1186  0.3645
 4399W        W 8599   5.609   6.386  10.718 -0.2389 -0.2063 -0.0216
 4400W        W 8600   4.419   9.482  10.600  0.4128 -0.2145  0.0606
 4401W        W 8601   5.669   3.378   0.207  0.1162  0.1936 -0.0875
 4402W        W 8602   9.218   7.415   9.252  0.0017  0.0049  0.1499
 4403W        W 8603   1.615   4.945  10.509  0.1787  0.3153 -0.1824
 4404W        W 8604   1.384  10.443   8.630  0.1442  0.1794 -0.1692
 4405W        W 8605   7.966   7.059   0.281 -0.0139  0.2772 -0.1223
 4406W        W 8606   2.521   1.368   9.400 -0.0625  0.2400 -0.1524
 4407W        W 8607   6.908   0.447   2.469 -0.3021 -0.1620 -0.1575
 4408W        W 8608   3.413   0.636   9.633  0.4266 -0.1823 -0.0402
 4409W        W 8609  10.587   7.169   1.737  0.1174  0.3025 -0.0643
 4410W        W 8610   7.294   2.614   8.683  0.1298  0.2149  0.0717
 4411W        W 8611   4.478   8.838   2.031  0.3363  0.2491 -0.0627
 4412W        W 8612   0.266  10.642   9.974  0.2379 -0.1507 -0.2030
 4413W        W 8613   7.537   2.004  12.802  0.0535 -0.0561 -0.0578
 4414W        W 8614   3.138   7.788   1.067  0.3451  0.0774  0.2718
 4415W        W 8615   8.494   9.231  10.520 -0.2148  0.0412  0.0655
 4416W        W 8616   1.031   5.992   0.115 -0.0999 -0.4713 -0.0099
 4417W        W 8617   0.102   9.124   1.000  0.1668 -0.1969 -0.3653
 4418W        W 8618   3.552   2.975   3.923 -0.0325  0.3931 -0.1490
 4419W        W 8619   4.310   6.183   2.640  0.1255 -0.1583  0.1682
 4420W        W 8620   4.432   5.079   2.436  0.2749 -0.1335 -0.0734
 4421W        W 8621   7.601   4.961  11.716 -0.0208  0.0584  0.1708
 4422W        W 8622   9.421   3.061   9.263 -0.0460 -0.1152  0.0915
 4423W        W 8623   6.139   6.151   1.654 -0.0767 -0.1587 -0.0653
 4424W        W 8624   6.834   6.803   8.528  0.0499  0.0885 -0.0560
 4425W        W 8625   0.144   8.531  11.764  0.1397 -0.0101  0.1438
 4426W        W 8626   4.391   1.954  10.852  0.1157 -0.1078 -0.1370
 4427W        W 8627   6.962   5.782   1.697  0.0694  0.1405  0.1690
 4428W        W 8628   5.907   0.164   0.534 -0.0614 -0.3534  0.0045
 4429W        W 8629   1.741   3.353   1.620 -0.1622  0.1849 -0.1737
 4430W        W 8630   1.631   3.807  10.635  0.1911  0.0299 -0.3649
 4431W        W 8631   0.123   1.228   8.095 -0.0589 -0.1080  0.2561
 4432W        W 8632   5.264   6.891   0.626 -0.3334  0.2792  0.2476
 4433W        W 8633   1.927   2.030   9.934  0.1592 -0.1377  0.1221
 4434W        W 8634   0.498   3.426   3.589 -0.4499  0.0978 -0.1156
 4435W        W 8635   4.030   8.745   4.681  0.0903 -0.0612 -0.0007
 4436W        W 8636   5.480   8.588  12.112 -0.1562 -0.1736 -0.0608
 4437W        W 8637   7.236   4.667  10.981 -0.1276  0.0777  0.0772
 4438W        W 8638   7.175   6.172   9.094 -0.0042  0.3295  0.1882
 4439W        W 8639   9.595   1.713   1.206 -0.2569  0.0477 -0.1579
 4440W        W 8640   9.566   4.509   0.259  0.0273 -0.1437 -0.2558
 4441W        W 8641   8.896   3.616   0.316 -0.1527 -0.0035  0.4059
 4442W        W 8642   8.670   6.208   1.781  0.0167  0.0547 -0.4276
 4443W        W 8643   2.585   3.907  10.204 -0.1990 -0.2626 -0.1190
 4444W        W 8644   2.363   0.714   1.274 -0.0949 -0.1947  0.0460
 4445W        W 8645   3.010   0.417   3.920  0.3185 -0.1941  0.2261
 4446W        W 8646   3.421   4.248   3.286  0.0371  0.1278  0.2338
 4447W        W 8647   3.295   7.045  12.757  0.0862 -0.0269  0.2815
 4448W        W 8648   9.356   4.335  11.048 -0.2473 -0.2159  0.0709
 4449W        W 8649   3.845   4.006  12.718 -0.1269 -0.0136  0.2459
 4450W        W 8650   4.185   2.414   1.846 -0.0888 -0.2175  0.0085
 4451W        W 8651  10.257   6.952  10.468  0.0838  0.2136  0.0357
 4452W        W 8652   2.356   6.428  10.569 -0.1168  0.0033 -0.2637
 4453W        W 8653   1.085   4.396   1.079  0.1900 -0.2048  0.2764
 4454W        W 8654   0.559   1.582   8.544  0.1742 -0.0486 -0.0504
 4455W        W 8655   0.902   8.335   8.513 -0.1833 -0.0950  0.0631
 4456W        W 8656   6.986  10.178   2.560  0.1662 -0.0972  0.0305
 4457W        W 8657   3.175  10.487  12.644  0.1927 -0.1838  0.0867
 4458W        W 8658   1.834   9.737   8.128  0.0015 -0.0515 -0.0176
 4459W        W 8659   0.173   4.656   4.241 -0.0198 -0.0230 -0.2233
 4460W        W 8660   8.793   8.772   0.398 -0.2760  0.0436 -0.3391
 4461W        W 8661   3.723   3.207  12.465  0.0217 -0.1997 -0.1559
 4462W        W 8662  10.338   2.740   4.092 -0.0809  0.0026 -0.1141
 4463W        W 8663   6.430   1.717   0.378  0.0018 -0.0872  0.2667
 4464W        W 8664   2.938   5.906   1.367 -0.0459 -0.0757  0.2394
 4465W        W 8665  10.312   4.344   1.876 -0.3687 -0.2670 -0.3138
 4466W        W 8666   3.696   6.384   1.926 -0.0699 -0.0526  0.2052
 4467W        W 8667   9.358   0.776   0.697 -0.0240 -0.1865  0.1789
 4468W        W 8668   6.996   4.367   9.992  0.2539 -0.0068 -0.0670
 4469W        W 8669   2.891  10.178   0.929 -0.0097 -0.2882  0.2388
 4470W        W 8670   2.392   8.567   0.468 -0.4062 -0.2867  0.0655
 4471W        W 8671   2.720   1.767  12.264  0.2517  0.0619  0.3931
 4472W        W 8672   9.534   1.064   2.549  0.1750 -0.2251  0.1432
 4473W        W 8673   2.519   4.500   2.107  0.0426 -0.0328 -0.1411
 4474W        W 8674   9.394   0.543   2.201 -0.0801 -0.2813 -0.2606
 4475W        W 8675   4.722   8.912   2.476 -0.0004 -0.3597  0.0938
 4476W        W 8676   9.462   9.945  12.778 -0.0669  0.2031 -0.0414
 4477W        W 8677   2.396   4.466  11.743 -0.1968 -0.0499 -0.1240
 4478W        W 8678   7.651   1.381   0.681  0.1875  0.2934 -0.0593
 4479W        W 8679   1.422   3.555   2.015  0.3842  0.1789  0.1466
 4480W        W 8680   3.201  10.210  10.446 -0.0141 -0.2217  0.1804
 4481W        W 8681   7.285   5.721  12.169  0.0179 -0.1473 -0.2461
 4482W        W 8682  10.528   6.367  11.800  0.0031  0.1523  0.1281
 4483W        W 8683   8.404   9.107   8.500  0.0357  0.0180  0.2475
 4484W        W 8684   9.665   1.829   3.214 -0.0132  0.3971 -0.3926
 4485W        W 8685   7.351   1.756   2.852  0.2321 -0.1437 -0.0572
 4486W        W 8686   8.972  10.290   1.140  0.1917 -0.2400 -0.3773
 4487W        W 8687   9.914   8.163  10.359  0.1962 -0.1325 -0.2867
 4488W        W 8688   4.587   7.725  12.758  0.0444 -0.1281 -0.1225
 4489W        W 8689   3.239   4.661   0.315 -0.1100 -0.0483  0.2641
 4490W        W 8690   7.854   5.174   8.549  0.2206 -0.0002 -0.0249
 4491W        W 8691   4.491   3.115   2.559 -0.0694 -0.2388 -0.1300
 4492W        W 8692   9.979   4.690   5.534 -0.0972 -0.3037  0.0797
 4493W        W 8693   3.456   0.199  12.468  0.3264 -0.1892  0.3044
 4494W        W 8694   9.941   9.133   2.772  0.0124  0.2987 -0.1026
 4495W        W 8695   6.729   7.823  12.111  0.0881 -0.1401  0.1614
 4496W        W 8696   5.450   9.317   2.702  0.3434  0.1742  0.0861
 4497W        W 8697   4.839  10.095   2.743 -0.4482 -0.0665 -0.1913
 4498W        W 8698   4.752   5.153   0.243  0.1868  0.2661  0.1930
 4499W        W 8699   0.341   5.828  11.928 -0.2084  0.0299  0.2909
 4500W        W 8700   7.681   5.618   2.951 -0.0075 -0.3314 -0.0354
 4501W        W 8701   4.382   3.066  10.053 -0.1034 -0.0909  0.0528
 4502W        W 8702   2.149   1.228   3.721 -0.1019  0.1721  0.0601
 4503W        W 8703   5.774   0.700   8.112  0.0992  0.1207 -0.2214
 4504W        W 8704   1.983   0.948   0.108  0.0488 -0.0148 -0.0663
 4505W        W 8705   4.727   1.209   0.259 -0.1508  0.0489 -0.0833
 4506W        W 8706   7.055   2.814   0.749 -0.1451 -0.0375  0.0244
 4507W        W 8707   7.765   1.252   8.833 -0.1567  0.0886  0.1050
 4508W        W 8708   7.255   2.176   9.661  0.2638 -0.2134 -0.0250
 4509W        W 8709   4.571   4.680  10.952  0.0575  0.2124  0.0328
 4510W        W 8710   4.229   2.669  11.589  0.0610 -0.3415 -0.0284
 4511W        W 8711   7.739   8.046   9.190 -0.0401 -0.2316  0.0493
 4512W        W 8712   5.779   8.991   1.735 -0.0655 -0.3131  0.0425
 4513W        W 8713   6.851   3.375   7.652 -0.1455  0.0415  0.0321
 4514W        W 8714   9.967   3.837  10.576  0.0037 -0.2606 -0.3109
 4515W        W 8715   3.612   1.605   9.533 -0.1197  0.0961 -0.1491
 4516W        W 8716   9.436   6.598   2.854  0.0543 -0.1432  0.0903
 4517W        W 8717   2.594   0.329  12.017  0.3026  0.1519  0.2244
 4518W        W 8718   7.855   7.525   7.582  0.2669  0.3853  0.0032
 4519W        W 8719   7.338   6.195   3.604  0.0439  0.0631  0.0125
 4520W        W 8720   6.266   7.731   1.614  0.2155 -0.2473  0.0802
 4521W        W 8721   5.510   7.660   3.680 -0.2314  0.2212 -0.1290
 4522W        W 8722   0.155   5.670  10.766 -0.1419 -0.1362 -0.1120
 4523W        W 8723   6.409   0.467  10.852  0.0735 -0.1036 -0.0514
 4524W        W 8724  10.176   3.157  11.798 -0.0163 -0.0509  0.1478
 4525W        W 8725   9.302   3.393  11.382  0.0537  0.0240 -0.1418
 4526W        W 8726   3.604   8.149   0.420 -0.4040  0.4114 -0.3606
 4527W        W 8727   6.275  10.536  12.802  0.2079 -0.0925 -0.1713
 4528W        W 8728   8.677   8.181   1.726  0.1427  0.3801 -0.0571
 4529W        W 8729   8.203   6.263   2.923 -0.1697  0.3510 -0.2257
 4530W        W 8730   3.173   8.821   3.915 -0.1450  0.1415 -0.0659
 4531W        W 8731   2.146   1.185   2.117 -0.0829 -0.0712 -0.3611
 4532W        W 8732   1.093   3.468   1.656  0.0140 -0.4265  0.3756
 4533W        W 8733   4.993   1.219   2.199  0.2052  0.2455 -0.2097
 4534W        W 8734   4.437   5.156  10.331 -0.1743  0.0751  0.1796
 4535W        W 8735   5.123   5.523   8.578  0.1142  0.0154 -0.0930
 4536W        W 8736   0.711   6.114  12.391 -0.3196 -0.0440 -0.1500
 4537W        W 8737   5.718   8.395   0.481 -0.0831  0.1099 -0.1995
 4538W        W 8738   7.503   9.646   0.335 -0.0136  0.0757 -0.0423
 4539W        W 8739   3.165   2.243  11.598  0.2543 -0.1411  0.0732
 4540W        W 8740  10.308   3.741   0.468  0.1151 -0.3294 -0.1300
 4541W        W 8741  10.606   6.104  10.653 -0.2033  0.1669  0.3413
 4542W        W 8742   5.257   0.138   1.568  0.1988  0.0513 -0.0691
 4543W        W 8743   3.497   2.387  11.910  0.2273 -0.2575  0.1523
 4544W        W 8744   0.090   8.528  12.668 -0.0128  0.3815 -0.0289
 4545W        W 8745  10.205   6.665  12.733  0.1263 -0.0277  0.0713
 4546W        W 8746   0.859   9.193   2.682 -0.0376 -0.3833 -0.0292
 4547W        W 8747  10.144  10.166  12.233  0.0725  0.4738  0.3910
 4548W        W 8748   4.440   4.086  12.480 -0.2296 -0.1729 -0.1612
 4549W        W 8749   4.226   1.330  12.365  0.0358 -0.1732  0.0323
 4550W        W 8750   4.581   6.368  10.508 -0.0806  0.0376  0.0318
 4551W        W 8751   5.173   5.625   2.215 -0.0124  0.1485 -0.0421
 4552W        W 8752   7.046   8.193  12.193 -0.1499  0.2301 -0.0346
 4553W        W 8753   7.652   3.599   2.259 -0.1585  0.1434  0.3039
 4554W        W 8754   9.182   4.499  10.000 -0.1154 -0.0374 -0.1762
 4555W        W 8755   2.427   2.642  11.133 -0.0720  0.1075 -0.3266
 4556W        W 8756   0.698   8.728  10.704  0.0434  0.0708 -0.2763
 4557W        W 8757  10.087   4.842   0.953 -0.2053 -0.1729 -0.2291
 4558W        W 8758   5.966   2.541  11.961 -0.1150  0.1102 -0.0764
 4559W        W 8759   9.455   4.626   2.338 -0.0429  0.1732 -0.1386
 4560W        W 8760   9.460   6.922  12.090  0.3369  0.2253  0.2186
 4561W        W 8761   9.216  10.092  10.500 -0.0481 -0.0249 -0.0174
 4562W        W 8762   6.937   9.085  11.213  0.0911 -0.1107  0.2466
 4563W        W 8763   6.384  10.649  12.315  0.2916  0.0028  0.1102
 4564W        W 8764   1.896  10.375   8.486  0.1309  0.1297 -0.0301
 4565W        W 8765   7.342   6.435   2.390  0.0881 -0.1368 -0.2428
 4566W        W 8766   7.437   0.259   2.366 -0.2002 -0.0308  0.0508
 4567W        W 8767   0.896   6.043   4.245 -0.1134  0.0712 -0.0977
 4568W        W 8768   5.673   0.887  10.692 -0.1158  0.1609  0.1307
 4569W        W 8769   5.999   6.585   9.584 -0.1222  0.3042  0.1855
 4570W        W 8770   4.799  10.009  10.590  0.0817  0.0726  0.5010
 4571W        W 8771   4.981   5.003  11.105 -0.3012  0.0134 -0.2122
 4572W        W 8772   2.064   1.683  10.236 -0.1533 -0.1921 -0.2312
 4573W        W 8773   9.625   4.808   2.770  0.4780  0.2729 -0.1424
 4574W        W 8774   5.203   3.960   8.600  0.1025  0.1610 -0.1514
 4575W        W 8775   8.918   8.216  12.640  0.1141 -0.0552 -0.0478
 4576W        W 8776   3.157   6.869   0.286 -0.2583 -0.4973  0.2008
 4577W        W 8777   1.959   5.948  11.330  0.0373  0.0889 -0.1562
 4578W        W 8778   7.061   8.329   3.273 -0.1009 -0.3820  0.1621
 4579W        W 8779   5.125   2.559   0.658 -0.1172  0.1547 -0.1424
 4580W        W 8780   1.193   5.704  12.436  0.4180 -0.0281 -0.0780
 4581W        W 8781   5.858   3.444   0.664  0.0799  0.0281 -0.2954
 4582W        W 8782   2.540   9.434   1.996  0.4451  0.0353 -0.2305
 4583W        W 8783   6.134   0.939  10.665 -0.1493  0.0273 -0.1097
 4584W        W 8784   7.603  10.478   3.233  0.0756 -0.1029  0.0137
 4585W        W 8785   1.756   2.966  12.919  0.0072 -0.1574 -0.0581
 4586W        W 8786   3.988   6.597  12.611  0.1300  0.0234 -0.3433
 4587W        W 8787   7.695   8.411   3.789 -0.1194 -0.2734  0.1293
 4588W        W 8788   4.676   9.307   2.158 -0.2172  0.1272 -0.1507
 4589W        W 8789   0.042   5.121   0.195 -0.0163 -0.3533  0.2285
 4590W        W 8790   0.577   7.229   1.892 -0.1124  0.0713 -0.1417
 4591W        W 8791   6.729   9.112   1.089  0.0847  0.2787  0.2999
 4592W        W 8792   1.640   7.407  10.751 -0.5396  0.3244 -0.1128
 4593W        W 8793   2.902   8.394   1.917  0.2325  0.1586 -0.1531
 4594W        W 8794   6.792   4.246   0.877  0.2502 -0.2133 -0.1427
 4595W        W 8795   1.789   7.994  10.629 -0.1411 -0.1768 -0.4261
 4596W        W 8796   4.415   4.674  10.445  0.1817  0.1164 -0.1033
 4597W        W 8797   8.682   7.157   9.198 -0.3988 -0.1621  0.1986
 4598W        W 8798   4.611   6.173   8.008  0.2431 -0.0298 -0.1788
 4599W        W 8799   1.081   1.153   0.703  0.0160  0.2074  0.0677
 4600W        W 8800   4.171   4.640  11.247 -0.1840  0.2792  0.2704
 4601W        W 8801   7.557   0.382  10.207  0.2520  0.0221  0.0539
 4602W        W 8802   3.602   4.371   0.599  0.1780 -0.0779  0.0329
 4603W        W 8803   6.012   3.901  11.781  0.2157  0.0750  0.1477
 4604W        W 8804   6.727   4.741   1.553  0.1064  0.2107 -0.2417
 4605W        W 8805   8.941  10.115   2.514  0.3146 -0.0055 -0.1537
 4606W        W 8806   4.712   5.672   4.328 -0.2743  0.1736 -0.0753
 4607W        W 8807   4.019   3.875   1.213 -0.0793  0.0118  0.0576
 4608W        W 8808   9.328   1.799   4.418  0.0197 -0.4602 -0.2653
 4609W        W 8809   5.576   9.960  12.347  0.0524  0.1095 -0.0070
 4610W        W 8810   4.244   9.173   9.441 -0.4032 -0.1356  0.2020
 4611W        W 8811   6.067   3.863   0.418  0.0152  0.0571 -0.1654
 4612W        W 8812   1.293   0.188  12.249 -0.1916 -0.1029  0.0260
 4613W        W 8813   8.586   3.953   2.991  0.0093 -0.2079  0.0350
 4614W        W 8814   3.295   3.507   0.720 -0.0740 -0.4337  0.2010
 4615W        W 8815   4.285   8.060   3.192  0.2173 -0.0227 -0.1248
 4616W        W 8816   3.727   2.079   2.272 -0.1053 -0.0967  0.2412
 4617W        W 8817   6.242   8.913  11.176 -0.0431  0.1672 -0.2283
 4618W        W 8818   0.583   1.892   2.146 -0.4461  0.0633 -0.0140
 4619W        W 8819   1.586   1.273   0.530  0.1442 -0.0578  0.0987
 4620W        W 8820   5.531   1.940  10.750  0.3459 -0.1475  0.0427
 4621W        W 8821   1.157   7.083   8.726  0.3162 -0.1951 -0.2035
 4622W        W 8822   8.510   6.139   9.334  0.3366 -0.0520  0.0130
 4623W        W 8823   5.542   6.823   2.585 -0.0778  0.1039  0.1205
 4624W        W 8824   1.978  10.069   1.508  0.0803  0.1408 -0.0913
 4625W        W 8825   4.575   3.726   1.681 -0.0491  0.1486 -0.0285
 4626W        W 8826  10.261   7.088   1.223 -0.1360  0.1948 -0.0011
 4627W        W 8827   5.481   8.762   9.187 -0.2395  0.0052 -0.0166
 4628W        W 8828   0.657   9.568   0.339  0.1605 -0.3880  0.0815
 4629W        W 8829   0.025   8.115   1.846 -0.2003  0.1527 -0.1629
 4630W        W 8830   7.471   5.045  11.223 -0.2203  0.1366  0.0374
 4631W        W 8831   3.511   0.453   4.054  0.1918 -0.1969  0.0449
 4632W        W 8832   7.793   6.611   4.420  0.1963 -0.0289  0.2452
 4633W        W 8833   4.390   8.201   0.397  0.2169 -0.0877 -0.1970
 4634W        W 8834   2.504   6.895  10.483  0.1894 -0.1787 -0.3801
 4635W        W 8835   7.055   3.938  11.431 -0.1861 -0.0133 -0.0239
 4636W        W 8836   1.837   3.676   2.878 -0.1580  0.0400 -0.1693
 4637W        W 8837   1.197   3.237   3.034  0.0971 -0.0547 -0.0534
 4638W        W 8838   1.321   3.293   0.845  0.0576  0.0222  0.1993
 4639W        W 8839   0.550   1.372   3.011  0.0649  0.0900  0.1027
 4640W        W 8840   6.953  10.585  12.762 -0.1303  0.0924 -0.1097
 4641W        W 8841   5.623   6.588  11.613 -0.1144  0.0197  0.1087
 4642W        W 8842   6.186   3.398   0.239 -0.0874 -0.2839  0.2439
 4643W        W 8843   9.296   2.519  10.186  0.1368  0.0605  0.0267
 4644W        W 8844   1.442   5.001  11.064 -0.3013  0.3510  0.1124
 4645W        W 8845   9.367   3.848  10.914 -0.2282  0.0210  0.1172
 4646W        W 8846   1.748   2.649   8.867  0.3045 -0.3102  0.2574
 4647W        W 8847   1.178   3.679   0.386  0.3307 -0.2154  0.2631
 4648W        W 8848   4.646   0.488   8.343  0.0366  0.3050 -0.0626
 4649W        W 8849   1.830   4.722  10.083 -0.1266 -0.0397  0.1524
 4650W        W 8850  10.631   2.123   4.205 -0.1336  0.0846  0.2414
 4651W        W 8851   0.858   8.225  10.956  0.2649 -0.0619  0.0099
 4652W        W 8852   7.577   1.846  10.723 -0.0221  0.1485 -0.1774
 4653W        W 8853   5.133   9.213   8.861  0.0617  0.1507  0.1218
 4654W        W 8854   9.715   6.202   2.706  0.4004 -0.0078 -0.0470
 4655W        W 8855   9.213   9.665   8.620 -0.0421 -0.2014  0.2405
 4656W        W 8856   0.331   8.836   1.922  0.1667 -0.1795 -0.2395
 4657W        W 8857   8.681   9.407   0.307  0.2073  0.0926  0.1020
 4658W        W 8858   8.857   6.336   3.614  0.1036  0.0564  0.0683
 4659W        W 8859   9.894   4.810   0.070  0.0879 -0.2819 -0.0249
 4660W        W 8860   9.118   7.138   3.906 -0.4400 -0.1207 -0.2071
 4661W        W 8861   4.941   6.186   0.409 -0.0685  0.2455  0.3437
 4662W        W 8862   2.601   0.543   0.574  0.2483  0.0024 -0.0068
 4663W        W 8863   2.852   3.479   1.296 -0.0061 -0.0772  0.1116
 4664W        W 8864   5.545   0.347  12.194 -0.0283 -0.0045 -0.3427
 4665W        W 8865   9.336   5.559  12.109  0.1009 -0.2383  0.1974
 4666W        W 8866   2.281   0.112   2.732 -0.3205 -0.3278  0.0448
 4667W        W 8867   1.528   0.910  11.452  0.0461 -0.0515 -0.2968
 4668W        W 8868   5.109   2.888  12.408 -0.1475 -0.1494 -0.2207
 4669W        W 8869   8.500   5.027  10.422 -0.1923  0.2594  0.0636
 4670W        W 8870   9.743   2.702   0.843  0.0089 -0.0665  0.1777
 4671W        W 8871   0.444   0.853   3.221  0.1924 -0.3925  0.0131
 4672W        W 8872   7.230   5.583   9.919 -0.1243 -0.0659 -0.0654
 4673W        W 8873   8.174   0.667   9.242 -0.4841 -0.1190  0.0013
 4674W        W 8874   7.465   7.589   8.665 -0.0965  0.0464 -0.4289
 4675W        W 8875   6.265   7.832  11.918 -0.0615 -0.2544  0.2730
 4676W        W 8876   1.072   4.255   3.745 -0.0758 -0.3561 -0.1717
 4677W        W 8877   3.683   7.178   9.015  0.0955 -0.0516  0.2185
 4678W        W 8878   3.287   3.869  12.749 -0.2957  0.0618  0.1965
 4679W        W 8879   2.521   8.167   1.593 -0.2243 -0.0825  0.3146
 4680W        W 8880   3.923   5.187  10.443  0.2169  0.3010  0.0409
 4681W        W 8881   7.007   1.596   3.702 -0.4658  0.5048  0.0335
 4682W        W 8882   5.734   8.207   0.980 -0.0948 -0.1329 -0.1309
 4683W        W 8883   1.441   8.264   0.555 -0.3418 -0.0374 -0.0682
 4684W        W 8884   7.383   0.536   9.055  0.0161 -0.0204 -0.0834
 4685W        W 8885   9.336   3.665   9.583 -0.0207 -0.2086  0.0719
 4686W        W 8886   3.099   0.443   3.379  0.0874  0.2872  0.0428
 4687W        W 8887   3.271   8.424  10.774 -0.2160  0.1386  0.1798
 4688W        W 8888   0.768   0.853  12.037 -0.0855 -0.1213  0.3015
 4689W        W 8889   0.734   0.510   2.254 -0.0251  0.2510  0.0799
 4690W        W 8890   3.255   3.204  11.117  0.0967 -0.0934  0.0741
 4691W        W 8891   4.292   0.293   2.124 -0.1660  0.4570  0.2855
 4692W        W 8892   1.681   6.489   0.672  0.0446 -0.0251  0.1595
 4693W        W 8893   8.865   5.910  10.018  0.0805 -0.2110 -0.2146
 4694W        W 8894   1.402   9.022  12.067  0.2265  0.1249 -0.0372
 4695W        W 8895   2.315   9.068   3.789  0.0982 -0.0287 -0.1447
 4696W        W 8896   0.558   0.536   0.377 -0.0443  0.1000 -0.2205
 4697W        W 8897   9.180   5.452   9.231  0.0601  0.0431  0.0621
 4698W        W 8898   4.654   2.867   7.873  0.0303 -0.0438 -0.1761
 4699W        W 8899   5.378   1.635   2.292 -0.0193 -0.3372 -0.0279
 4700W        W 8900   4.240   1.309   0.328 -0.2256  0.0666  0.3233
 4701W        W 8901   2.835   7.626   1.588 -0.6999 -0.0456  0.0003
 4702W        W 8902   6.992   5.381  12.445 -0.1413 -0.0353 -0.0805
 4703W        W 8903   0.740   5.910   3.231  0.0028 -0.3976 -0.1060
 4704W        W 8904   6.395  10.065   3.401  0.1951 -0.0412  0.2455
 4705W        W 8905   2.194   2.945   8.951 -0.2564 -0.0284  0.0876
 4706W        W 8906   7.811   7.528   3.885  0.4017 -0.1155 -0.1906
 4707W        W 8907   6.989   6.103   2.463  0.2095 -0.1122  0.2222
 4708W        W 8908   1.126   1.283   0.229 -0.3124 -0.1800  0.0817
 4709W        W 8909   1.659   4.062  11.422  0.1302  0.0343  0.0867
 4710W        W 8910   6.242   8.081   0.053 -0.1064 -0.0685  0.1957
 4711W        W 8911   5.976  10.155  11.077 -0.1821  0.2323  0.1273
 4712W        W 8912   8.818   5.534  11.143 -0.1496 -0.0081  0.3268
 4713W        W 8913   4.400   0.901  10.184 -0.0311 -0.0772  0.1435
 4714W        W 8914   7.821   4.121   1.929 -0.1351 -0.1689  0.0025
 4715W        W 8915   2.642   4.460  12.306  0.2090 -0.2928 -0.1593
 4716W        W 8916   3.102   8.096   0.284  0.2109  0.0955 -0.2696
 4717W        W 8917   3.037   4.655   3.209  0.0580  0.0043 -0.1532
 4718W        W 8918   0.527   4.062  10.168 -0.2523 -0.4086 -0.0232
 4719W        W 8919   2.346   4.671  10.041  0.1047  0.0555  0.1756
 4720W        W 8920   4.664   0.960  12.370 -0.2751  0.1145 -0.1793
 4721W        W 8921   8.440   5.971   2.168  0.2724 -0.2468  0.0807
 4722W        W 8922   1.659   2.046   0.558  0.0378  0.2217 -0.1631
 4723W        W 8923   9.377   9.833   2.338  0.0300 -0.0900 -0.0180
 4724W        W 8924   9.823   4.023  11.201  0.3634 -0.0309  0.1545
 4725W        W 8925   4.160   6.193   9.540 -0.0394 -0.2295  0.0141
 4726W        W 8926   7.737  10.215   0.845 -0.1537  0.1080  0.4707
 4727W        W 8927   5.031   1.257   8.791  0.0841  0.2467 -0.1708
 4728W        W 8928   2.481   1.843   4.140 -0.2792 -0.1778  0.1934
 4729W        W 8929   4.483   5.684   3.835 -0.2934  0.0733 -0.4767
 4730W        W 8930   9.815   5.640   1.372 -0.2077  0.0767 -0.0446
 4731W        W 8931   1.574   6.618  11.987  0.0216  0.3150 -0.2513
 4732W        W 8932   6.472   5.578   1.591 -0.4349 -0.2686 -0.0750
 4733W        W 8933  10.613   3.273  11.088 -0.0462  0.0298 -0.0690
 4734W        W 8934   5.365   3.216   3.930  0.4330  0.1174 -0.1628
 4735W        W 8935   5.147   2.087  10.447 -0.0390 -0.1513 -0.1395
 4736W        W 8936   4.372   8.566  10.754 -0.0021  0.2512  0.2253
 4737W        W 8937   5.256   4.849   1.756  0.2542  0.2357 -0.0251
 4738W        W 8938   5.465   2.559   3.108  0.1063 -0.2114  0.0183
 4739W        W 8939   7.052   3.725   8.921  0.1110 -0.0177  0.0159
 4740W        W 8940   5.223  10.583   8.996 -0.0294  0.1786 -0.2174
 4741W        W 8941   3.507   1.636   3.128 -0.1927 -0.1272  0.0155
 4742W        W 8942   2.480   0.505  11.492  0.0789 -0.0619  0.2323
 4743W        W 8943   2.549  10.636   0.856 -0.0565 -0.2017 -0.0019
 4744W        W 8944   0.839   9.339   8.480  0.3463 -0.0734 -0.0114
 4745W        W 8945   6.654   9.978  10.075 -0.1894 -0.0423  0.3179
 4746W        W 8946  10.371   3.098   2.093 -0.1420 -0.0368  0.0789
 4747W        W 8947   6.155   0.119  10.034 -0.2014 -0.2556 -0.0509
 4748W        W 8948   2.059   2.711   9.793  0.2007 -0.1340  0.0259
 4749W        W 8949   6.522   1.958  12.404 -0.0467 -0.0745 -0.1549
 4750W        W 8950   9.020  10.382   3.521  0.1978 -0.1528 -0.0298
 4751W        W 8951   7.135   2.050  12.414 -0.0512  0.0497 -0.0170
 4752W        W 8952   8.336   8.948  11.874  0.1506  0.2840  0.0194
 4753W        W 8953   0.917   9.081   8.063  0.0309  0.1609  0.0760
 4754W        W 8954   8.131   9.645   7.731 -0.4501 -0.0107 -0.0763
 4755W        W 8955   5.424   2.415   0.295  0.0298 -0.1739 -0.0928
 4756W        W 8956   2.880   0.591   9.650  0.0790  0.0085  0.1810
 4757W        W 8957   6.564   2.772  11.532 -0.1067 -0.0463  0.0666
 4758W        W 8958   9.800   5.141  10.399 -0.3335  0.1810 -0.2769
 4759W        W 8959   7.350   7.256   9.708  0.1210 -0.0298  0.2145
 4760W        W 8960   7.750   1.847   4.812  0.2144 -0.1680 -0.3831
 4761W        W 8961   1.973   7.549   3.514  0.3052  0.1517  0.1308
 4762W        W 8962   2.450   1.618  11.832 -0.0904 -0.2971  0.1786
 4763W        W 8963   3.994   9.745   8.120  0.1547  0.0929 -0.4592
 4764W        W 8964   0.153   7.520  11.233 -0.0413  0.1743 -0.1836
 4765W        W 8965   5.028   7.764   8.193  0.0856 -0.1274 -0.1837
 4766W        W 8966   4.131   4.781   2.759  0.3325 -0.1548 -0.2233
 4767W        W 8967   7.568   5.020   4.265 -0.2855  0.1672 -0.1606
 4768W        W 8968   1.857   9.290  12.646 -0.3188  0.0117 -0.1240
 4769W        W 8969   2.272   3.268   9.431  0.0569  0.1678 -0.0048
 4770W        W 8970   1.849   5.182   0.093  0.0602 -0.2763 -0.1168
 4771W        W 8971  10.428   1.863   2.632  0.1367 -0.0096 -0.1235
 4772W        W 8972   7.329   7.285   9.145 -0.0544  0.2835 -0.0680
 4773W        W 8973   6.182   9.844   1.461 -0.3780  0.1133  0.0273
 4774W        W 8974  10.055   8.111   9.562  0.0299  0.1053 -0.0167
 4775W        W 8975   5.448   9.835   4.420  0.2127 -0.4300 -0.4214
 4776W        W 8976   8.845   5.815   3.860 -0.0751  0.2122 -0.0586
 4777W        W 8977   5.557  10.246   0.205 -0.0013  0.1146 -0.4728
 4778W        W 8978   5.404  10.337   1.493 -0.3323 -0.0377  0.3497
 4779W        W 8979   3.681   7.830   9.555 -0.0547 -0.2940 -0.0926
 4780W        W 8980   5.371   2.482   8.719 -0.4454 -0.0775 -0.2945
 4781W        W 8981  10.216   4.628   6.239 -0.1520 -0.0295 -0.1208
 4782W        W 8982   6.153   3.896   1.919 -0.3294  0.0388 -0.1154
 4783W        W 8983  10.615   5.161   1.762  0.2515  0.2561 -0.0558
 4784W        W 8984   1.532   8.820  11.234 -0.0619  0.0229 -0.1853
 4785W        W 8985   1.884   7.386   3.047  0.0197 -0.1209  0.1360
 4786W        W 8986   6.657   6.662  11.479  0.1284  0.0197 -0.2012
 4787W        W 8987   4.683   2.852  12.132 -0.1709  0.1788 -0.2458
 4788W        W 8988   4.237   8.516   3.712  0.0007  0.6528  0.0606
 4789W        W 8989   9.082   1.765  11.471 -0.2838 -0.0598 -0.1943
 4790W        W 8990   3.864   8.857  11.881  0.1377  0.0037  0.0074
 4791W        W 8991   4.188   3.125  11.130  0.0068  0.0823  0.0408
 4792W        W 8992   3.152   8.480  12.752  0.0419  0.2369 -0.2016
 4793W        W 8993   7.425   5.332   3.254 -0.1172  0.2132 -0.1831
 4794W        W 8994   1.373   0.338   9.824 -0.1568 -0.1820  0.0126
 4795W        W 8995   2.232   3.621  12.730  0.2070  0.0269  0.1451
 4796W        W 8996   7.705   2.002   9.337 -0.1154  0.0623  0.1047
 4797W        W 8997   1.835   7.923  10.079  0.0327  0.2134  0.1210
 4798W        W 8998   9.173   8.818   7.594 -0.0062 -0.3097  0.0239
 4799W        W 8999   4.900   3.732   4.580 -0.1241  0.2959 -0.1007
 4800W        W 9000   5.038   8.797   4.315 -0.1249 -0.0450  0.1866
 4801W        W 9001   0.128   0.115   3.352 -0.1203 -0.5102 -0.0755
 4802W        W 9002   5.771   1.445   8.669 -0.0616 -0.0085 -0.0980
 4803W        W 9003   0.532   0.045   3.657  0.1833  0.0608  0.1086
 4804W        W 9004   5.277   5.765  11.950  0.0424  0.4258 -0.1017
 4805W        W 9005   1.124   2.212  11.120 -0.1169 -0.3534 -0.0891
 4806W        W 9006   3.370   0.574  11.670  0.0952  0.0758 -0.0943
 4807W        W 9007   1.303   0.323   1.116 -0.0741 -0.0693  0.0553
 4808W        W 9008  10.066   0.307  11.889  0.0905  0.0705  0.0191
 4809W        W 9009   7.793   6.746   9.639  0.3932 -0.0887 -0.3437
 4810W        W 9010   5.389   4.476  10.403 -0.2051 -0.0372  0.0260
 4811W        W 9011   6.627   1.558   9.959 -0.0013  0.0616 -0.1817
 4812W        W 9012   5.048   5.481   1.692 -0.2604  0.1909  0.1165
 4813W        W 9013   4.196   2.559   3.420  0.1023  0.0209 -0.0454
 4814W        W 9014   8.298   8.064   0.515 -0.2754 -0.2524  0.0978
 4815W        W 9015   6.597   0.058   8.232  0.3421  0.0788  0.2188
 4816W        W 9016   2.942   8.890  10.537 -0.0364 -0.0131  0.0470
 4817W        W 9017   8.565   1.757  10.054 -0.0219 -0.1335  0.1487
 4818W        W 9018   7.348   6.688   1.293  0.2884  0.1970  0.1776
 4819W        W 9019   1.874   5.303   9.369 -0.0136  0.4577  0.2167
 4820W        W 9020   3.627   9.980  12.098  0.2865  0.0005 -0.2917
 4821W        W 9021   6.610   0.781   3.070 -0.0957  0.1928  0.0297
 4822W        W 9022  10.143   5.537   0.984 -0.2773 -0.1130 -0.2080
 4823W        W 9023   5.157   6.177   3.591 -0.0102  0.2414 -0.2774
 4824W        W 9024   8.798   1.254  12.407 -0.1523 -0.0201  0.2850
 4825W        W 9025   1.709   5.966   0.468  0.2027  0.2679 -0.1319
 4826W        W 9026   1.176   6.101   2.002  0.3293 -0.2437  0.1344
 4827W        W 9027   3.932   1.419  11.955 -0.0336 -0.0163 -0.1077
 4828W        W 9028  10.392   2.463   3.341  0.1735  0.0198  0.0658
 4829W        W 9029   4.314   3.933   3.450  0.0690  0.2884  0.1882
 4830W        W 9030  10.507   0.740   9.357 -0.2939  0.0300  0.0948
 4831W        W 9031   8.451   3.323   2.692  0.0949  0.3494 -0.2093
 4832W        W 9032   3.452   5.231  10.374  0.1303  0.1593  0.0624
 4833W        W 9033   5.555   8.002   4.080  0.0799  0.1977 -0.0719
 4834W        W 9034   8.799   4.574   1.478 -0.1366 -0.0522 -0.0202
 4835W        W 9035   4.617   4.891  11.451  0.0445 -0.1038 -0.0062
 4836W        W 9036   7.171   3.870  10.226  0.1847  0.1013  0.1640
 4837W        W 9037   4.230  10.421   3.423 -0.0246  0.0662 -0.0777
 4838W        W 9038   7.654   0.109   1.005 -0.0144  0.3211  0.0626
 4839W        W 9039   2.244   6.565   1.411 -0.0871  0.3636 -0.2601
 4840W        W 9040   3.171   0.038   3.653  0.1526 -0.0414 -0.1472
 4841W        W 9041   6.252   7.218   2.423 -0.0387 -0.5894  0.2163
 4842W        W 9042   6.277   7.893  12.436 -0.1421 -0.2094  0.4215
 4843W        W 9043   5.215   0.109  10.989  0.0733  0.0483 -0.0867
 4844W        W 9044   1.775   1.476  11.375 -0.1819  0.1048  0.2370
 4845W        W 9045   4.794  10.210   9.341 -0.1708  0.1295 -0.0107
 4846W        W 9046   6.362   2.954   2.032 -0.2878  0.0464  0.0233
 4847W        W 9047   3.823   0.778  10.059  0.0638 -0.0204  0.4304
 4848W        W 9048   1.060   0.413  11.805  0.0033  0.2926 -0.0404
 4849W        W 9049   1.808   0.785   0.568 -0.4531 -0.2191  0.1133
 4850W        W 9050   5.698   9.213   9.029 -0.3541 -0.3032  0.1408
 4851W        W 9051   6.990   7.031   1.894  0.0609  0.0188  0.1409
 4852W        W 9052   5.896   1.931  11.231  0.2337 -0.0571 -0.0887
 4853W        W 9053   1.674   2.825   1.585 -0.1600  0.1012 -0.2473
 4854W        W 9054   3.676   7.449   9.987  0.0095 -0.2870  0.0442
 4855W        W 9055   1.063   4.900   0.919 -0.0899 -0.0154 -0.0798
 4856W        W 9056   3.414   9.244  12.772 -0.1830 -0.2427 -0.0630
 4857W        W 9057   2.261   1.856   0.000  0.2023  0.1696 -0.5300
 4858W        W 9058   4.154   3.457   1.508 -0.0693 -0.0743  0.0861
 4859W        W 9059   5.570   8.426   3.799 -0.0746  0.0062  0.0172
 4860W        W 9060   9.745   4.142  12.891 -0.0051 -0.2408 -0.0675
 4861W        W 9061   1.398   4.072   1.903 -0.0127  0.0546 -0.0933
 4862W        W 9062   4.203   3.794   2.937  0.2604  0.1268 -0.0407
 4863W        W 9063   7.873   7.581   0.084 -0.1608 -0.3830 -0.1274
 4864W        W 9064   7.483   3.220   2.601 -0.0795 -0.2888 -0.0692
 4865W        W 9065   5.720   3.529   3.173 -0.4058 -0.0005 -0.1333
 4866W        W 9066   0.436  10.392   8.488 -0.3717 -0.1332 -0.0299
 4867W        W 9067   0.028   7.306   3.151  0.0156  0.2547 -0.0165
 4868W        W 9068   6.186   6.726  11.761  0.0587  0.1568 -0.1757
 4869W        W 9069   0.171   6.093   3.803 -0.1694 -0.1565  0.1155
 4870W        W 9070   0.317   9.321  12.624 -0.0285  0.2447  0.0747
 4871W        W 9071   1.449   8.630   1.055 -0.1874  0.3847  0.1100
 4872W        W 9072   7.845   8.070  12.888  0.0555 -0.2160 -0.0664
 4873W        W 9073   6.147   7.456  10.580  0.2108 -0.1216  0.1078
 4874W        W 9074   2.580   6.174   1.527  0.1298 -0.0383  0.0526
 4875W        W 9075  10.642   3.493   1.702 -0.1376 -0.0760  0.0421
 4876W        W 9076  10.347   7.261   8.888 -0.1462 -0.1675  0.0281
 4877W        W 9077   3.798   7.241  12.684  0.1551  0.2896 -0.0477
 4878W        W 9078   5.747   5.543  11.270 -0.1714  0.1235  0.1037
 4879W        W 9079   2.727  10.136  11.180 -0.5585  0.0454 -0.1556
 4880W        W 9080   7.149   5.457   1.057  0.0381  0.4573  0.2097
 4881W        W 9081   2.598   3.526   2.337 -0.2050  0.2256  0.0755
 4882W        W 9082   9.871   2.268   1.205 -0.1002 -0.0123 -0.0954
 4883W        W 9083   0.156   0.624   4.276 -0.2443  0.2477  0.4508
 4884W        W 9084   2.311   9.356  12.155 -0.1855  0.2258 -0.1963
 4885W        W 9085  10.441   8.336   0.523 -0.2688 -0.0715 -0.0272
 4886W        W 9086   1.747   0.936  12.595  0.2755  0.1815 -0.0414
 4887W        W 9087   7.887   4.632   2.993 -0.1672 -0.2641 -0.0758
 4888W        W 9088   6.631  10.407  10.786 -0.4230  0.0625  0.0475
 4889W        W 9089   5.471   4.366   3.174  0.1883 -0.0739  0.2472
 4890W        W 9090   4.018   1.665  11.032 -0.0672  0.0026 -0.0627
 4891W        W 9091   8.367   7.204  10.512  0.0242  0.0963 -0.0737
 4892W        W 9092  10.649   7.616   2.027 -0.1789 -0.0235 -0.1907
 4893W        W 9093  10.111   4.875   2.917  0.2259  0.0296  0.1450
 4894W        W 9094   6.757   3.029   1.587 -0.0804 -0.2986  0.1928
 4895W        W 9095   7.770   2.142   9.800 -0.2148 -0.1220 -0.2000
 4896W        W 9096   8.749   6.515   2.743  0.1444  0.2153 -0.2148
 4897W        W 9097   6.931   4.638   3.731  0.0697  0.1392 -0.1313
 4898W        W 9098   9.252   4.641   3.195 -0.1345  0.1437  0.1826
 4899W        W 9099   1.451   7.583   9.309 -0.2907 -0.2464  0.1136
 4900W        W 9100   3.132   6.735  10.761  0.0580  0.1699 -0.0961
 4901W        W 9101   3.209   6.403   0.087 -0.1007 -0.0503 -0.2290
 4902W        W 9102   6.793   8.324  10.051  0.1750  0.1692 -0.1573
 4903W        W 9103   6.837   4.812  11.829  0.1630  0.0764 -0.0892
 4904W        W 9104   8.330   8.888   2.005 -0.0807 -0.5019 -0.2322
 4905W        W 9105   6.230   8.448  11.590  0.0749 -0.0838  0.1177
 4906W        W 9106   4.002   4.110   0.434  0.1586 -0.0300 -0.0086
 4907W        W 9107   3.240   3.692  11.685 -0.0021 -0.1763  0.1103
 4908W        W 9108   0.695   9.204  11.409  0.1254 -0.3296  0.1656
 4909W        W 9109   3.453   4.777   2.123  0.1919 -0.0525 -0.3550
 4910W        W 9110   6.502   0.342  12.617 -0.2309  0.1091 -0.1710
 4911W        W 9111   5.802   5.283   2.643 -0.2692  0.0991  0.2013
 4912W        W 9112   3.517   2.330   1.387 -0.1531  0.1201  0.4804
 4913W        W 9113   7.692   0.048   9.676 -0.3491  0.0958 -0.3450
 4914W        W 9114   1.941  10.273   9.911  0.0145  0.1983 -0.2360
 4915W        W 9115   2.327   7.474  11.322 -0.3186  0.1958 -0.3018
 4916W        W 9116   0.512   9.774  11.255 -0.0899  0.1121  0.1935
 4917W        W 9117   0.270   4.651   0.315  0.2878  0.1164 -0.1600
 4918W        W 9118   4.127   7.690   9.834  0.2718 -0.0892  0.3665
 4919W        W 9119   3.416   8.642  11.512 -0.0650 -0.3417 -0.1712
 4920W        W 9120   1.046   1.442   3.733  0.2960  0.1575  0.4275
 4921W        W 9121   0.689   2.478   8.905  0.0392  0.0440  0.0453
 4922W        W 9122   0.801   4.873   1.810 -0.1444  0.2260  0.3057
 4923W        W 9123   2.133   0.645   3.670 -0.0426 -0.1410 -0.0225
 4924W        W 9124   9.752   3.914   0.714 -0.0335 -0.2971  0.0933
 4925W        W 9125   5.286   4.026  10.182  0.2492 -0.2239 -0.3953
 4926W        W 9126   6.298   9.693   0.429 -0.0989 -0.2768  0.1439
 4927W        W 9127   4.507   6.451   2.231  0.2629 -0.3413 -0.3047
 4928W        W 9128   5.252   0.899  10.954  0.0471 -0.0748  0.0068
 4929W        W 9129   8.771   5.614  12.657  0.5987  0.0955  0.4900
 4930W        W 9130   6.583   5.581  12.645 -0.0491 -0.3840 -0.3344
 4931W        W 9131   5.821   4.647   8.537  0.0922  0.0211 -0.0926
 4932W        W 9132   2.511   5.710  11.278 -0.2460  0.1174  0.3254
 4933W        W 9133   5.080   4.177   9.684 -0.2831 -0.2167  0.1389
 4934W        W 9134   9.304   1.858   2.716  0.0430  0.3022  0.1648
 4935W        W 9135   6.513  10.516   9.146 -0.2950  0.0834 -0.1832
 4936W        W 9136   2.436   5.847   0.046  0.0235  0.1421 -0.0694
 4937W        W 9137   0.641   9.893   9.876  0.4222  0.0581 -0.2567
 4938W        W 9138   7.319   3.060   3.046  0.0767 -0.3881 -0.1282
 4939W        W 9139   3.958   2.951   0.639 -0.0837 -0.4095  0.1331
 4940W        W 9140   2.100   6.544   3.598 -0.0718  0.0398  0.2268
 4941W        W 9141   1.968   2.344  11.048  0.2322  0.2335 -0.1928
 4942W        W 9142   5.997   2.224  10.747  0.0468 -0.1459 -0.0023
 4943W        W 9143   2.139   7.720  10.432 -0.1365 -0.2520  0.2283
 4944W        W 9144   1.098   9.680  12.071 -0.2313 -0.1172 -0.0613
 4945W        W 9145   2.255   6.592   2.457  0.1985 -0.0262  0.1811
 4946W        W 9146   2.163   0.894   8.536 -0.0759 -0.1933 -0.0698
 4947W        W 9147   9.706   5.677  12.504 -0.1153  0.1224  0.1568
 4948W        W 9148   5.653  10.521   2.380  0.1327 -0.2962  0.0246
 4949W        W 9149   6.509  10.215   0.252 -0.0795  0.2176  0.1927
 4950W        W 9150   0.936   0.908   8.139 -0.0151  0.0963  0.3071
 4951W        W 9151   1.474   4.557  11.394 -0.1368 -0.1844 -0.3468
 4952W        W 9152   5.144   4.787   2.555  0.0850 -0.0901  0.0199
 4953W        W 9153   7.766   9.481  11.357 -0.0608  0.0477 -0.0145
 4954W        W 9154   9.684   2.214  10.303 -0.5213 -0.0701  0.1863
 4955W        W 9155   3.694   2.553   9.888  0.1168 -0.0688 -0.0148
 4956W        W 9156   6.555   3.797   1.557  0.0214 -0.3067 -0.0457
 4957W        W 9157   4.474   4.643   3.964 -0.0559 -0.0448 -0.1483
 4958W        W 9158   3.746   0.268   9.812 -0.3614 -0.3390  0.0808
 4959W        W 9159   5.455   8.791  11.621 -0.0038  0.1753 -0.1590
 4960W        W 9160   3.938   3.157   2.232 -0.4528 -0.1277  0.2108
 4961W        W 9161   7.302  10.287   9.264  0.1354  0.4450  0.2584
 4962W        W 9162   5.431   6.936  11.214  0.0656 -0.4888 -0.2948
 4963W        W 9163   2.365   4.907   9.607  0.0010 -0.2737  0.0623
 4964W        W 9164  10.045   7.065   3.670  0.2821  0.1557 -0.3394
 4965W        W 9165   8.694   7.994   8.927 -0.1726  0.4461  0.0133
 4966W        W 9166   5.014   6.956   8.715 -0.1042  0.0143 -0.1686
 4967W        W 9167   9.982   7.307   0.663 -0.0996  0.3619  0.2394
 4968W        W 9168   8.778   5.688  10.622  0.1878  0.1177 -0.0428
 4969W        W 9169   6.295   0.518   0.626 -0.1179  0.3025 -0.0161
 4970W        W 9170   3.070   8.938   0.078  0.0332 -0.1050 -0.0509
 4971W        W 9171   5.672   8.052   8.737  0.1474 -0.0148  0.0839
 4972W        W 9172   4.061   4.319   3.856  0.0258 -0.3275  0.4531
 4973W        W 9173   1.662   2.775   3.715  0.2752  0.0960 -0.3636
 4974W        W 9174   3.056   1.509   1.537 -0.0637 -0.1840  0.1507
 4975W        W 9175   9.777   1.358   9.785 -0.0748 -0.1346  0.0700
 4976W        W 9176   4.792   9.918  12.503  0.1141 -0.3079  0.0445
 4977W        W 9177   0.993   2.741   2.917 -0.1686  0.3414  0.1551
 4978W        W 9178   7.566  10.621   0.506  0.3480 -0.1143 -0.0201
 4979W        W 9179   5.044   3.806  11.045  0.2020  0.0440  0.1652
 4980W        W 9180   8.458   7.185   0.741  0.2687  0.1858  0.0116
 4981W        W 9181   2.056   8.630  11.157 -0.0838 -0.1317  0.0760
 4982W        W 9182   0.321   5.905   2.236 -0.0547  0.0136 -0.2690
 4983W        W 9183   5.383   5.911   8.605  0.5215  0.3960  0.1391
 4984W        W 9184   4.794   7.481   2.439  0.0061 -0.0181  0.1598
 4985W        W 9185   1.127   2.581   1.180  0.0546  0.3032 -0.1977
 4986W        W 9186   8.832   5.772  12.151 -0.2447  0.1887 -0.3554
 4987W        W 9187   8.027   3.646  10.685 -0.0571  0.0863  0.0224
 4988W        W 9188   7.626   1.250  10.027  0.0093  0.3273  0.2122
 4989W        W 9189   1.290   1.048   4.125 -0.0096 -0.1342 -0.4038
 4990W        W 9190   1.981   9.328  10.155 -0.3144  0.3782 -0.0173
 4991W        W 9191   5.062   3.719   4.005  0.3066 -0.2124 -0.1925
 4992W        W 9192   8.377   5.535   9.800  0.0005  0.1136  0.0432
 4993W        W 9193   5.889   0.933   2.008  0.0443 -0.3188  0.2230
 4994W        W 9194   2.831   2.480   1.328  0.1306  0.2904  0.0312
 4995W        W 9195   9.536   7.291  11.044  0.1099 -0.0323  0.0130
 4996W        W 9196  10.661   6.879  12.625 -0.2225  0.1579  0.1034
 4997W        W 9197   4.572   1.126   3.629 -0.0052  0.3444  0.3481
 4998W        W 9198   3.756   4.333   9.348  0.2036 -0.1286 -0.0645
 4999W        W 9199   2.759   9.996  12.565 -0.0816 -0.2099 -0.1915
 5000W        W 9200   1.399   2.399   3.414 -0.0234 -0.1428  0.0232
 5001W        W 9201   3.341   8.732   2.969 -0.2336  0.0361  0.0702
 5002W        W 9202   3.284   9.753   3.198 -0.1603 -0.0025 -0.2263
 5003W        W 9203   2.189   7.107   0.230  0.2029 -0.3333  0.2730
 5004W        W 9204   4.664   5.345   9.874  0.3166  0.1348 -0.2831
 5005W        W 9205   0.451   3.958   4.365  0.2383  0.1505 -0.1469
 5006W        W 9206   6.396  10.625   0.608  0.0750  0.1025  0.2350
 5007W        W 9207   1.323   9.293  10.692  0.1126 -0.1156 -0.0073
 5008W        W 9208   8.367   5.676   9.167 -0.1630  0.0020  0.4424
 5009W        W 9209   1.689   8.639   9.490  0.0627  0.2308  0.0188
 5010W        W 9210   1.366   2.908   9.046  0.1347 -0.1719 -0.0617
 5011W        W 9211   0.756   7.529   2.682 -0.1536 -0.1071 -0.0720
 5012W        W 9212   2.990   6.888  12.435 -0.1523 -0.0426 -0.1196
 5013W        W 9213   1.524   8.285   9.872  0.1939  0.1855 -0.0596
 5014W        W 9214   9.626   9.492   2.797 -0.0573 -0.0981 -0.0978
 5015W        W 9215   3.443   0.166   1.351  0.2978 -0.2972 -0.1835
 5016W        W 9216   6.194   6.760   9.978 -0.0192 -0.0274  0.1761
 5017W        W 9217   4.533   0.193   2.927 -0.0914 -0.3150  0.1156
 5018W        W 9218   2.258   4.189  12.119 -0.0231 -0.0932 -0.1833
 5019W        W 9219   6.775   8.489   1.876 -0.2663 -0.0923 -0.2801
 5020W        W 9220   7.910   9.866   8.160 -0.3001 -0.1217 -0.0085
 5021W        W 9221   8.334   5.210   1.747  0.2248  0.0898 -0.1358
 5022W        W 9222  10.556   2.233   2.335 -0.2381 -0.0406 -0.0751
 5023W        W 9223   6.211   1.612  10.770 -0.0891 -0.3394 -0.2246
 5024W        W 9224   7.264   1.876   9.250 -0.3383  0.3310 -0.3550
 5025W        W 9225   0.776   6.806   2.105 -0.0496  0.1553  0.0159
 5026W        W 9226   8.884   9.517   9.612  0.1673 -0.1760 -0.1085
 5027W        W 9227   0.820   2.340  11.544 -0.1198 -0.2097 -0.3887
 5028W        W 9228   5.837   7.094   9.702  0.1458  0.1416 -0.4025
 5029W        W 9229   4.720   0.325   3.647 -0.0410 -0.1514 -0.1459
 5030W        W 9230   1.764   1.770  12.687  0.0328 -0.2371 -0.0838
 5031W        W 9231  10.559   2.683   1.916 -0.2709  0.0157  0.1118
 5032W        W 9232   7.822   8.872  10.626 -0.2124 -0.2384  0.0755
 5033W        W 9233   4.137   6.235  10.037 -0.0872 -0.0656 -0.2301
 5034W        W 9234   7.161   0.190   0.876 -0.0174  0.0351  0.3165
 5035W        W 9235   0.408   8.278  10.545 -0.3786 -0.4468 -0.0469
 5036W        W 9236   5.048   3.858   2.644  0.0527  0.0531 -0.1010
 5037W        W 9237   3.160   6.967   1.328 -0.0894 -0.1315  0.3668
 5038W        W 9238   9.441   9.300   0.861  0.2157 -0.1625 -0.0390
 5039W        W 9239   2.784   9.792   3.378  0.1744  0.2009  0.1330
 5040W        W 9240   9.086   1.858   9.167  0.0883  0.0758  0.1506
 5041W        W 9241   8.258   1.456   4.228  0.2199 -0.1403 -0.2251
 5042W        W 9242   1.861   8.587   1.438  0.1181  0.2247  0.2369
 5043W        W 9243   7.512   4.218  12.105  0.1997 -0.3657  0.1400
 5044W        W 9244   3.081   1.718   8.276  0.3494 -0.1024  0.1648
 5045W        W 9245   0.054   8.672   0.704  0.0730  0.1385 -0.0269
 5046W        W 9246   8.811   7.032   0.157  0.0545  0.1601  0.0061
 5047W        W 9247   2.601   3.983  11.812  0.0272  0.1974  0.0832
 5048W        W 9248   9.405   2.685   4.349 -0.2962 -0.1834  0.0624
 5049W        W 9249   9.850   4.250   4.551  0.0159  0.0202  0.1203
 5050W        W 9250   5.837   5.228   3.609  0.1034  0.1219 -0.1090
 5051W        W 9251   5.214  10.335   9.671  0.0457 -0.0109  0.2134
 5052W        W 9252   8.364  10.352   3.406 -0.4038  0.2390  0.0553
 5053W        W 9253   7.275   0.633  12.362 -0.0724  0.2784 -0.1097
 5054W        W 9254   5.619   6.716   9.368  0.2713  0.2605 -0.0648
 5055W        W 9255   4.472   9.643   0.976  0.0391 -0.2642  0.3224
 5056W        W 9256   5.506   3.558   1.063  0.1345 -0.0700  0.1165
 5057W        W 9257   5.343   2.620   1.100  0.1174 -0.0084  0.1363
 5058W        W 9258   9.786   6.329  11.305 -0.2645 -0.1002  0.0616
 5059W        W 9259   8.426   0.694   2.218 -0.0198  0.2440  0.0147
 5060W        W 9260   3.574   8.245  11.156  0.1418 -0.1764 -0.0169
 5061W        W 9261  10.028   1.815   0.904  0.0242 -0.1778  0.0050
 5062W        W 9262   9.426   4.364   0.672  0.2187 -0.2950 -0.2980
 5063W        W 9263   2.801   7.937   2.524 -0.3982  0.2698  0.1438
 5064W        W 9264   4.361   7.641   2.879 -0.0299  0.0145 -0.0036
 5065W        W 9265   6.490   9.628   9.776 -0.0627 -0.1249  0.1762
 5066W        W 9266   4.452  10.581   1.394  0.1136 -0.0584 -0.0336
 5067W        W 9267   3.641   7.538   8.577 -0.1602 -0.1993 -0.2391
 5068W        W 9268   3.880   9.539  12.017  0.1325 -0.0139  0.0365
 5069W        W 9269   8.781   1.465   2.091 -0.4510  0.3826  0.0559
 5070W        W 9270   1.863   0.027   0.190  0.0811  0.0616 -0.1329
 5071W        W 9271   8.239   3.367   4.316  0.1179  0.2666 -0.1590
 5072W        W 9272   1.119   8.159  11.935  0.1774  0.0211  0.0556
 5073W        W 9273   9.400   5.194   0.387 -0.1254  0.0552  0.1393
 5074W        W 9274   5.335   7.406   2.500 -0.1890  0.1187  0.0594
 5075W        W 9275   1.761   2.757  10.193  0.2840  0.2746 -0.3890
 5076W        W 9276  10.633   1.368  11.762 -0.1360 -0.2932  0.1034
 5077W        W 9277   7.525   6.599  12.382 -0.3022  0.1659 -0.0506
 5078W        W 9278   6.433   6.820   9.500 -0.0929  0.0722 -0.1129
 5079W        W 9279   6.155   0.367  11.386 -0.0157 -0.0988  0.1074
 5080W        W 9280   5.113   3.356  10.898 -0.0113  0.3434 -0.0012
 5081W        W 9281   4.571   9.716   2.989 -0.2935  0.3172  0.0324
 5082W        W 9282   4.387   0.443   7.913 -0.1585  0.1119 -0.0334
 5083W        W 9283   9.166   1.715   0.670  0.2961 -0.1528 -0.0029
 5084W        W 9284   4.115   6.160   8.176 -0.1328  0.1342 -0.2583
 5085W        W 9285   3.558   4.636   1.561 -0.0166 -0.0982 -0.0667
 5086W        W 9286   0.783   6.860  12.411 -0.1676  0.2308  0.1835
 5087W        W 9287  10.552   9.623   0.989 -0.3704 -0.4023 -0.0952
 5088W        W 9288   0.008   4.087   4.106 -0.3227 -0.1479  0.1615
 5089W        W 9289  10.248   3.566   9.835 -0.1705 -0.0015 -0.0536
 5090W        W 9290   7.433   2.390  12.056 -0.0386  0.1070  0.1034
 5091W        W 9291   8.885   0.793  11.623  0.0019 -0.0741 -0.1275
 5092W        W 9292   7.261   3.745   7.946 -0.0274 -0.1234  0.0858
 5093W        W 9293   8.293   2.542  12.241  0.0245 -0.1979  0.3679
 5094W        W 9294   4.078   1.409  10.243 -0.1599  0.0260  0.0189
 5095W        W 9295   8.356   4.322   1.729  0.0571 -0.1117 -0.1924
 5096W        W 9296   4.564   4.036   9.701 -0.2172 -0.0628  0.2454
 5097W        W 9297   4.521   3.137   0.877 -0.0524 -0.1422 -0.0060
 5098W        W 9298   5.255   2.305  11.051  0.2760  0.1713 -0.0960
 5099W        W 9299   1.328   9.070   0.910 -0.1988  0.1473  0.3031
 5100W        W 9300   8.727   8.724   8.461 -0.1340 -0.0586  0.1885
 5101W        W 9301   3.636   1.962  12.756  0.1630 -0.0836  0.1169
 5102W        W 9302   7.453   3.699  11.176 -0.1536  0.1267 -0.2951
 5103W        W 9303   0.535   5.942   1.553  0.1863 -0.2003 -0.2067
 5104W        W 9304   8.359   1.390   9.613 -0.2557  0.2298  0.0251
 5105W        W 9305   9.201   8.980  10.694 -0.0268 -0.0243 -0.3841
 5106W        W 9306   6.949   9.538   1.003 -0.1363  0.0565  0.1356
 5107W        W 9307   3.087   4.639  12.343 -0.0320  0.2631 -0.0987
 5108W        W 9308   1.350   8.233  10.831 -0.0174 -0.0689 -0.0139
 5109W        W 9309   7.909   5.283  11.427 -0.2651 -0.1790 -0.5226
 5110W        W 9310   7.945   6.948   2.635  0.2467  0.5003 -0.1141
 5111W        W 9311   8.552   2.713  11.453 -0.1520 -0.2423 -0.0649
 5112W        W 9312   1.633   8.050   9.374  0.2607 -0.1519 -0.0910
 5113W        W 9313   9.776   6.792   3.330 -0.0121 -0.1361 -0.1120
 5114W        W 9314   8.976   2.355  10.561 -0.3279 -0.1010 -0.1569
 5115W        W 9315   7.708   1.372   2.715  0.1856 -0.0712 -0.2531
 5116W        W 9316   3.800   8.837   9.502 -0.0443 -0.2555 -0.2794
 5117W        W 9317   0.019   3.442   9.084 -0.0516  0.2048 -0.0123
 5118W        W 9318   0.906   9.141  11.956  0.3137 -0.0215  0.6293
 5119W        W 9319   5.027   3.936   2.005 -0.2201 -0.1111 -0.1413
 5120W        W 9320   5.864   1.695   9.723  0.1677 -0.1217 -0.0044
 5121W        W 9321   7.947   3.300   0.976  0.0068  0.1375  0.1293
 5122W        W 9322   1.647   9.553  10.474 -0.1272  0.0784 -0.1077
 5123W        W 9323   8.104   5.042  12.371 -0.1795 -0.0234 -0.0010
 5124W        W 9324   7.479   0.836  10.303  0.0218  0.0584 -0.3150
 5125W        W 9325   8.440   8.490   8.123  0.0422  0.1560 -0.0705
 5126W        W 9326   5.707   5.112  10.986  0.0761 -0.2127  0.0123
 5127W        W 9327   2.242   2.118   1.971  0.2269 -0.1216  0.1490
 5128W        W 9328   7.473   6.941   0.471  0.0941  0.0586 -0.1176
 5129W        W 9329  10.570   7.157   2.233 -0.0477 -0.0832 -0.1652
 5130W        W 9330   2.260   9.455   8.473  0.0648  0.0865 -0.3060
 5131W        W 9331   6.119   0.759  12.841  0.1072 -0.0398 -0.1218
 5132W        W 9332   4.218   2.335  10.618  0.0362  0.3026  0.2143
 5133W        W 9333   2.222   7.297  11.792  0.0995  0.0385  0.0360
 5134W        W 9334   2.955   2.319   3.143 -0.3786  0.0083 -0.1799
 5135W        W 9335   9.820   7.553   1.744 -0.0937 -0.2533  0.2289
 5136W        W 9336   9.065   2.481   0.265  0.2951  0.3841 -0.3733
 5137W        W 9337   0.305   2.865   0.420 -0.0306  0.1849 -0.1759
 5138W        W 9338   4.347   3.341   8.196 -0.1160  0.0379  0.4283
 5139W        W 9339   3.978   6.504   0.860  0.1124  0.1038  0.2739
 5140W        W 9340   0.946   2.168   9.240  0.0217  0.0838  0.0662
 5141W        W 9341   6.077   5.455   0.016 -0.1505 -0.2061  0.0507
 5142W        W 9342   8.732   0.812  12.107 -0.1931  0.1147  0.1733
 5143W        W 9343   6.293  10.249  10.414  0.0068  0.0391 -0.0234
 5144W        W 9344   4.683   4.349   4.291 -0.2181 -0.0034  0.0014
 5145W        W 9345   2.580   8.060   9.510 -0.1216 -0.1201 -0.0964
 5146W        W 9346   8.979   8.228   9.961  0.3040  0.2967 -0.0563
 5147W        W 9347   4.871  10.049   3.258 -0.1051  0.3401 -0.1876
 5148W        W 9348   7.692   7.918  10.375 -0.1885 -0.0454 -0.0657
 5149W        W 9349   6.683   1.256   0.222  0.0317  0.2928 -0.1597
 5150W        W 9350   1.589   2.958   2.187 -0.1755 -0.2818  0.1128
 5151W        W 9351   7.537   0.204   1.868 -0.1769  0.3073  0.1465
 5152W        W 9352   0.755   2.098   0.382 -0.2812  0.0672  0.7113
 5153W        W 9353   3.316   9.220  10.540  0.1043 -0.3237 -0.3204
 5154W        W 9354   3.994   5.653   9.186  0.1852 -0.3108  0.0741
 5155W        W 9355   8.294   3.588   0.099  0.2497  0.0448 -0.1516
 5156W        W 9356   2.289   7.794  11.707  0.1677  0.1250  0.0715
 5157W        W 9357   5.112   1.698   1.017 -0.0625 -0.3337 -0.3804
 5158W        W 9358   6.894   7.445  11.195 -0.0909 -0.0644  0.2180
 5159W        W 9359   0.036   4.827  11.819  0.2897 -0.1394  0.0632
 5160W        W 9360   6.085   0.925   9.050  0.1066  0.1472  0.0763
 5161W        W 9361  10.255   4.585  11.912 -0.0739 -0.0431 -0.0637
 5162W        W 9362   3.382   4.979   9.203  0.0165 -0.6030 -0.1562
 5163W        W 9363   3.465   0.398   0.868 -0.2598  0.0164 -0.0232
 5164W        W 9364   9.247   0.509  10.852 -0.2122  0.2454 -0.0863
 5165W        W 9365   1.886   1.669   0.272  0.1509 -0.1490 -0.3927
 5166W        W 9366   3.895   2.052   1.267 -0.3712 -0.1448  0.0101
 5167W        W 9367   2.050  10.174   8.055 -0.0074  0.0499 -0.1896
 5168W        W 9368   8.674   9.101  12.180  0.0098  0.1860 -0.3392
 5169W        W 9369   6.528   0.313   1.701  0.0284  0.1289 -0.4290
 5170W        W 9370   1.159   7.128  12.597  0.1254 -0.0801 -0.0921
 5171W        W 9371   8.133   9.237  12.223 -0.1328 -0.1300 -0.0664
 5172W        W 9372   7.235   6.223  12.206 -0.0386  0.0826 -0.0960
 5173W        W 9373   0.427   7.831  10.164  0.2258  0.1535 -0.0595
 5174W        W 9374   9.902   6.423  11.896 -0.0021 -0.0027  0.0098
 5175W        W 9375   3.169   9.353  10.981  0.2984  0.1439  0.3642
 5176W        W 9376   0.531   5.096   0.429  0.1366 -0.2786  0.0749
 5177W        W 9377  10.420   8.671   2.534 -0.2689  0.1327 -0.1660
 5178W        W 9378   4.899   6.800   0.241  0.1169 -0.0694  0.3078
 5179W        W 9379   7.806   2.064   8.829 -0.3328  0.1921 -0.0765
 5180W        W 9380   6.901   8.630  10.479 -0.2295 -0.0839  0.0400
 5181W        W 9381   7.412   9.683   1.393 -0.3107 -0.0742 -0.0287
 5182W        W 9382   2.214   9.846   9.696  0.1425 -0.0412  0.1792
 5183W        W 9383   4.269   6.280   3.270 -0.1485  0.0195  0.0048
 5184W        W 9384   2.306   4.518  12.718 -0.0276  0.1248 -0.2188
 5185W        W 9385   7.337   8.515   9.074  0.0762 -0.2671  0.2031
 5186W        W 9386   1.442  10.512   9.181  0.0779  0.0928  0.0341
 5187W        W 9387   0.297   9.085   4.134  0.1182  0.0408 -0.1880
 5188W        W 9388   6.377   0.609  11.751  0.1681 -0.1612  0.0524
 5189W        W 9389   4.307   5.306   1.443 -0.0826  0.0522  0.1386
 5190W        W 9390   0.400   0.701   3.715 -0.3330 -0.0569 -0.1150
 5191W        W 9391   6.627   0.166   2.188 -0.0458 -0.0740  0.1493
 5192W        W 9392   7.400   4.732   9.307  0.0189  0.0619  0.0057
 5193W        W 9393   2.199   6.104   1.178  0.0764 -0.0223  0.3616
 5194W        W 9394   4.791   6.882   1.908 -0.0998 -0.0711 -0.1784
 5195W        W 9395   6.588   6.869   4.000  0.0197  0.0134 -0.1818
 5196W        W 9396   5.763   5.700   0.346  0.4833  0.0107  0.1171
 5197W        W 9397   0.858   7.397  12.222 -0.2808  0.0387 -0.0870
 5198W        W 9398   9.671   3.179   2.797 -0.0551  0.0144 -0.0209
 5199W        W 9399   3.892   0.335  11.662 -0.0407 -0.0517  0.0427
 5200W        W 9400   3.186   4.268   2.844 -0.2155  0.0691  0.0452
 5201W        W 9401   8.348   8.586   0.506 -0.1858 -0.1138  0.1468
 5202W        W 9402  10.506   1.959  10.374 -0.0517  0.1536  0.0148
 5203W        W 9403   3.276   1.450  10.121  0.0440 -0.2453 -0.2144
 5204W        W 9404   1.248   9.419   2.458  0.0565 -0.1074  0.4129
 5205W        W 9405   0.043   8.990  12.358 -0.0216 -0.0504  0.1150
 5206W        W 9406   4.909   8.577   1.266  0.4791  0.0010  0.3150
 5207W        W 9407   6.130  10.291   9.342  0.1090  0.3757 -0.1250
 5208W        W 9408   1.571   7.827  11.052  0.1965  0.1227  0.4301
 5209W        W 9409   3.581   5.018  11.866  0.0085  0.0160  0.2639
 5210W        W 9410   4.252   3.231  12.598  0.2090 -0.0029  0.1711
 5211W        W 9411   5.532   0.027   4.020 -0.0362  0.1848 -0.1200
 5212W        W 9412   8.240   5.497  11.799 -0.2727  0.4487 -0.1014
 5213W        W 9413   5.442   7.466  12.420  0.1148  0.2074  0.0626
 5214W        W 9414   7.085   8.895   3.592 -0.1784  0.0352 -0.1449
 5215W        W 9415   9.206   7.366   0.488 -0.1311 -0.0398 -0.0216
 5216W        W 9416   6.690   1.792  12.865  0.1187  0.0290  0.1230
 5217W        W 9417   9.771   8.209  10.838 -0.1305  0.0228  0.0171
 5218W        W 9418   4.810   0.664   8.757  0.2464  0.0937 -0.1865
 5219W        W 9419   4.428   9.042  11.541 -0.0659  0.0267 -0.1548
 5220W        W 9420   9.317   8.477   9.212  0.0297  0.0677 -0.4088
 5221W        W 9421   4.807   9.289  10.222 -0.0894 -0.0737 -0.1505
 5222W        W 9422   8.505   7.368  10.019 -0.1454  0.0417  0.2464
 5223W        W 9423   2.973   3.791   9.821 -0.0404 -0.0242  0.1620
 5224W        W 9424   8.762   3.207  12.730 -0.0850  0.2130  0.3790
 5225W        W 9425   9.254   9.484   1.837 -0.3356 -0.1024 -0.1779
 5226W        W 9426   0.971   7.660   3.227  0.0177  0.3591  0.0272
 5227W        W 9427   3.510   5.391   2.173 -0.0234 -0.1263 -0.0258
 5228W        W 9428   0.815   2.512   3.340 -0.0948 -0.3346  0.1426
 5229W        W 9429   0.861   9.880   2.435 -0.1021  0.1336 -0.0247
 5230W        W 9430   5.138   1.356  10.726  0.2626  0.1598 -0.0459
 5231W        W 9431   5.180   5.139   1.365 -0.3032 -0.3559 -0.1125
 5232W        W 9432   6.145  10.534   3.451  0.1795  0.0173  0.3216
 5233W        W 9433   1.259   5.701  11.964 -0.0625  0.1213 -0.0728
 5234W        W 9434   1.089   5.361   2.704  0.1164 -0.1916 -0.1520
 5235W        W 9435   8.864  10.481   9.607  0.3919 -0.2599 -0.1745
 5236W        W 9436   2.541   2.306   9.178  0.2575 -0.4381  0.1906
 5237W        W 9437   7.518  10.235   2.566 -0.0226 -0.1484 -0.2803
 5238W        W 9438   8.134   0.372  11.462 -0.3691  0.0811 -0.1360
 5239W        W 9439   5.238   5.421  11.030  0.2020  0.2369  0.1297
 5240W        W 9440   7.231   3.190  11.715  0.2355 -0.0096 -0.0490
 5241W        W 9441   5.052   6.277  10.911 -0.3445 -0.0204 -0.0542
 5242W        W 9442   3.985   4.188  12.255  0.2656 -0.0596 -0.0529
 5243W        W 9443   5.543   6.311   7.712  0.0577 -0.3500  0.4728
 5244W        W 9444   7.650   9.393   4.191 -0.2384 -0.1500  0.1602
 5245W        W 9445   6.413   9.385   2.372  0.5287 -0.3009  0.0414
 5246W        W 9446   7.688   4.365   9.080 -0.0328 -0.0613  0.0615
 5247W        W 9447   6.987   1.870   2.164 -0.2135 -0.0649  0.3115
 5248W        W 9448   4.387   8.284   9.220  0.2044  0.0669 -0.2998
 5249W        W 9449   5.583   9.432   9.458  0.0527 -0.1212 -0.3642
 5250W        W 9450   7.386   1.576  12.512 -0.2854 -0.2838  0.1107
 5251W        W 9451   7.947   6.557  11.017 -0.0089  0.1171  0.1108
 5252W        W 9452   5.551   9.564   1.824  0.1130  0.0375  0.1789
 5253W        W 9453   9.761   7.910   9.912 -0.2662  0.3408  0.0633
 5254W        W 9454   5.885   4.328   9.151  0.0637 -0.2165  0.0954
 5255W        W 9455   6.201   7.382   2.930  0.3203  0.1713 -0.1777
 5256W        W 9456   4.528   1.804   9.464 -0.0289  0.2793 -0.0550
 5257W        W 9457   1.614   5.945  11.730 -0.2179 -0.0596 -0.2501
 5258W        W 9458   4.734   4.552  12.368  0.0714  0.0599  0.2654
 5259W        W 9459   2.356   8.138   2.631 -0.1099 -0.0570 -0.0698
 5260W        W 9460   0.277   7.217   1.436  0.0535 -0.3290 -0.1546
 5261W        W 9461   7.938   1.523  10.686 -0.4036 -0.0432 -0.1318
 5262W        W 9462   4.497   6.617  11.749 -0.1802 -0.1130 -0.0493
 5263W        W 9463   4.517   5.905   9.107  0.1264 -0.3413 -0.2493
 5264W        W 9464   6.753   2.485  11.195  0.0376  0.1189  0.3101
 5265W        W 9465   5.321   7.917  10.196  0.2505 -0.2740 -0.1059
 5266W        W 9466   6.178   1.907   4.132  0.4528  0.0500  0.1395
 5267W        W 9467   9.699   7.207   8.553 -0.0071 -0.1437 -0.0224
 5268W        W 9468   5.729   4.818   1.779 -0.2280  0.2439 -0.2572
 5269W        W 9469   6.426   8.046  11.319 -0.0698  0.4679  0.1223
 5270W        W 9470  10.505   3.298   0.607 -0.1946  0.1018  0.3066
 5271W        W 9471   4.845   5.839  12.283  0.0509 -0.1489  0.1940
 5272W        W 9472   0.332  10.218  12.512 -0.0747 -0.2603 -0.1441
 5273W        W 9473   7.988   0.104   0.560 -0.0227  0.1471 -0.1277
 5274W        W 9474   6.511   1.191   1.681  0.2937 -0.3165  0.1315
 5275W        W 9475   0.457   6.524   2.421  0.1508 -0.1630  0.0169
 5276W        W 9476   9.260   5.022  12.864  0.3940  0.2479  0.1127
 5277W        W 9477   3.630   8.609   0.729  0.2133  0.5509  0.0671
 5278W        W 9478   8.105   3.312   3.788  0.1114  0.1179 -0.1384
 5279W        W 9479   4.850   2.633   1.210  0.0017  0.2039 -0.0846
 5280W        W 9480   3.471   7.799   1.479  0.0971  0.1186  0.0827
 5281W        W 9481  10.611   4.481   8.872  0.2452  0.0700  0.1436
 5282W        W 9482   3.308  10.400   1.825 -0.2528  0.0897 -0.0569
 5283W        W 9483   4.870   2.106   3.107  0.1619  0.0775  0.0052
 5284W        W 9484   1.601   8.532   0.074 -0.0319  0.0192 -0.2667
 5285W        W 9485   8.359   6.592   0.859 -0.2350  0.1344  0.1599
 5286W        W 9486   8.582   5.313   3.912  0.2784 -0.1353 -0.1182
 5287W        W 9487   1.436   1.289  11.779 -0.0296  0.2611  0.0318
 5288W        W 9488   2.376   6.337   1.937  0.0518 -0.2049 -0.0992
 5289W        W 9489   2.080   6.328   9.179  0.0015  0.4206  0.3582
 5290W        W 9490   4.813  10.243  10.100 -0.1657  0.2072 -0.2749
 5291W        W 9491   5.695   4.482  12.585 -0.2383  0.0746 -0.0209
 5292W        W 9492   4.751   6.530   7.624 -0.1381 -0.1294  0.0178
 5293W        W 9493   1.433   9.465   8.319  0.1238  0.2288 -0.1309
 5294W        W 9494   2.035   9.739  10.749 -0.3786  0.1288  0.1002
 5295W        W 9495   7.501   6.195  11.736  0.1044 -0.2079 -0.2304
 5296W        W 9496  10.001   8.325  12.185  0.0306 -0.1270 -0.1416
 5297W        W 9497   5.401   2.785   9.139  0.1388  0.1580 -0.0954
 5298W        W 9498   9.863   2.872  12.749 -0.1455  0.0034  0.4121
 5299W        W 9499   8.119   1.907   1.442 -0.2230  0.1659 -0.0238
 5300W        W 9500   7.840   5.539  10.987  0.2457  0.1063  0.2571
 5301W        W 9501   6.201   2.565  10.418 -0.0407 -0.1525  0.2070
 5302W        W 9502   5.164   0.355  11.711  0.2430 -0.1176  0.0198
 5303W        W 9503   3.878   2.430  12.527  0.1374  0.1869 -0.1745
 5304W        W 9504  10.101   5.225   1.410  0.2171 -0.3135  0.2455
 5305W        W 9505   0.243   4.944   1.312 -0.1289  0.0381  0.1591
 5306W        W 9506   0.010   5.723   4.473  0.1549 -0.1305  0.3310
 5307W        W 9507   4.739   2.615  11.488  0.3028 -0.0310 -0.2529
 5308W        W 9508   8.445   6.810   0.386 -0.2794 -0.1752  0.0911
 5309W        W 9509   0.334   2.299  11.755 -0.0538 -0.0677  0.5366
 5310W        W 9510   5.082   7.339   2.048  0.2592 -0.1462 -0.2082
 5311W        W 9511   1.806   2.147   0.080 -0.0133  0.0321 -0.0692
 5312W        W 9512   7.311   9.411  12.376  0.1062  0.0188  0.2349
 5313W        W 9513   6.293   7.653  11.051 -0.2235 -0.0892  0.2376
 5314W        W 9514   3.608   7.858  11.524 -0.0350  0.0321  0.0927
 5315W        W 9515   7.959   2.691   9.138  0.1116 -0.0318 -0.2525
 5316W        W 9516   2.461   3.200   1.514 -0.0324 -0.2920  0.2728
 5317W        W 9517   8.235   0.224  12.024  0.2968 -0.1691 -0.1506
 5318W        W 9518   8.334   9.011   1.442  0.4815  0.4117 -0.2670
 5319W        W 9519   2.787   0.471   1.496  0.1592 -0.1711  0.1098
 5320W        W 9520   2.615   4.002   0.731  0.1529 -0.1077 -0.3854
 5321W        W 9521   7.886   2.549   8.671  0.0929  0.1972 -0.1047
 5322W        W 9522   2.488   1.744   2.315  0.1901  0.1143  0.1610
 5323W        W 9523  10.175   5.221   0.148 -0.2025 -0.4373 -0.1786
 5324W        W 9524   7.109   6.065  10.865 -0.2184  0.2890 -0.4514
 5325W        W 9525   8.265   2.743   3.845 -0.1370 -0.0571 -0.1402
 5326W        W 9526   3.055   5.436   2.488 -0.0482 -0.0047  0.1436
 5327W        W 9527   7.168   5.585   3.627  0.0793 -0.1098  0.0272
 5328W        W 9528   4.830   1.582   9.067  0.1443  0.1668 -0.0591
 5329W        W 9529   1.481   8.949   3.363  0.0861 -0.0534 -0.0459
 5330W        W 9530  10.508   3.434   0.146 -0.0978  0.0894  0.2114
 5331W        W 9531   3.354   4.566   8.983 -0.2080  0.0948 -0.0474
 5332W        W 9532   3.108   5.002   2.861 -0.1216  0.1596  0.0955
 5333W        W 9533   0.896   0.471   8.847  0.1566  0.0323  0.0340
 5334W        W 9534   4.761   3.787  12.803 -0.3460 -0.0092 -0.1436
 5335W        W 9535   2.831   6.560  10.444  0.2155  0.0337  0.3068
 5336W        W 9536   1.043   7.455   9.051  0.1048 -0.0021  0.4328
 5337W        W 9537   3.785   6.294   1.423 -0.1556 -0.0108  0.4694
 5338W        W 9538   1.449   9.963  12.358 -0.3104  0.1845  0.1780
 5339W        W 9539   4.018   3.276   4.264 -0.1259  0.1197  0.0545
 5340W        W 9540   9.427   7.186   1.560 -0.0586  0.2874 -0.1830
 5341W        W 9541   1.609   3.802   0.676  0.0426 -0.0696 -0.0086
 5342W        W 9542   5.008   8.059   1.092  0.0974  0.0653 -0.1036
 5343W        W 9543   5.945   8.014  11.249  0.0719 -0.0173 -0.1758
 5344W        W 9544   6.379   5.924   9.060  0.1636  0.0372  0.0448
 5345W        W 9545  10.157   5.952  12.011 -0.0817 -0.0765 -0.2449
 5346W        W 9546   5.332   1.779   0.461  0.0918 -0.0299 -0.0573
 5347W        W 9547   4.924   0.516  11.019 -0.0004 -0.0763  0.2186
 5348W        W 9548  10.404   5.080   3.370  0.1848 -0.2578  0.0407
 5349W        W 9549   3.611   7.665   9.033  0.1895  0.1448 -0.2870
 5350W        W 9550   2.659   7.857  11.040 -0.1547  0.0819 -0.2428
 5351W        W 9551   1.416   3.009  10.554 -0.0151  0.2196  0.1119
 5352W        W 9552   8.127   9.429   0.330 -0.0065  0.0929 -0.0508
 5353W        W 9553   2.252   0.849  10.126  0.0382  0.5150 -0.1623
 5354W        W 9554   8.019   8.693   1.095 -0.0708 -0.1342  0.1198
 5355W        W 9555   5.320   5.687   0.601  0.0331  0.1883 -0.1105
 5356W        W 9556   3.828   3.253   8.203  0.0809 -0.0605 -0.0474
 5357W        W 9557   0.718   5.069  12.909 -0.0016 -0.2099  0.1856
 5358W        W 9558   8.947   5.206   0.619 -0.3125 -0.3532  0.2230
 5359W        W 9559   2.241   2.187  11.433 -0.3244 -0.0828 -0.2738
 5360W        W 9560   4.598   6.051  10.108  0.3334 -0.1000  0.0476
 5361W        W 9561   0.278   4.745   1.747 -0.4750 -0.1110  0.2130
 5362W        W 9562   3.994   3.669   0.201  0.1737 -0.0027  0.2724
 5363W        W 9563   0.519   8.888  12.390 -0.2563 -0.0682  0.0496
 5364W        W 9564   2.698   0.271   3.015  0.0731 -0.0667 -0.0860
 5365W        W 9565   6.508   0.961   2.582  0.4309 -0.1235  0.3503
 5366W        W 9566   9.575   0.180   9.339 -0.1326  0.0414 -0.1838
 5367W        W 9567   7.317   2.807   1.228  0.0853  0.3369 -0.0447
 5368W        W 9568   6.730  10.243  12.417 -0.0653 -0.2394  0.1834
 5369W        W 9569   1.873   6.762   9.388  0.0204 -0.0180 -0.0241
 5370W        W 9570   9.038   8.414  11.872 -0.2526 -0.0531  0.0229
 5371W        W 9571   5.387   3.001   7.663  0.2425  0.1434 -0.0510
 5372W        W 9572   1.375   8.482   2.854  0.0975 -0.0275  0.1985
 5373W        W 9573   4.779   6.379   1.803 -0.0676 -0.0936  0.1286
 5374W        W 9574   7.889   3.130  11.645  0.0025 -0.1811  0.1337
 5375W        W 9575   3.859   0.560   1.324  0.0459 -0.1713 -0.1289
 5376W        W 9576   1.823   8.779   1.907 -0.2260 -0.0703  0.1240
 5377W        W 9577  10.465   9.232   8.712  0.0936 -0.0981  0.0127
 5378W        W 9578   0.975   5.038   0.406 -0.2742 -0.0414  0.0344
 5379W        W 9579  10.418   8.656   4.411 -0.5079  0.1127  0.2293
 5380W        W 9580   8.958   3.743   1.754  0.1760  0.0391  0.2762
 5381W        W 9581   1.305   6.939   2.300  0.3068  0.0684  0.2011
 5382W        W 9582   1.094   2.464   9.861 -0.0581 -0.1262  0.1451
 5383W        W 9583   6.964   8.162  12.884  0.3263 -0.0054 -0.1503
 5384W        W 9584   9.472   9.090  11.520 -0.1478  0.0283 -0.0656
 5385W        W 9585   1.077   7.165   2.731  0.1515  0.4333  0.0458
 5386W        W 9586  10.019   3.438   8.833 -0.1493  0.1200  0.1151
 5387W        W 9587   3.257  10.096   9.286  0.0646  0.1948  0.0509
 5388W        W 9588   4.071   2.891   9.176  0.2026  0.0018  0.1852
 5389W        W 9589  10.157   9.248   1.818  0.1838  0.3027  0.0981
 5390W        W 9590   7.714   4.361   0.596 -0.0241  0.3641  0.0713
 5391W        W 9591   4.160   4.811   1.451 -0.0899  0.0547  0.1958
 5392W        W 9592   4.720   4.890   0.674  0.3085 -0.1169  0.2278
 5393W        W 9593   1.523   1.310   1.468 -0.3278 -0.3645 -0.0842
 5394W        W 9594   2.186   0.073  11.560  0.1231 -0.0261 -0.0337
 5395W        W 9595   4.285   5.263   4.033 -0.0542  0.1383 -0.0089
 5396W        W 9596   7.365   2.884  12.147  0.3202  0.1375  0.1142
 5397W        W 9597   9.526   6.734  11.523  0.0783  0.1900  0.2147
 5398W        W 9598   6.192   4.971  10.898  0.0280  0.2043  0.0622
 5399W        W 9599   8.942   2.211   2.214 -0.1054 -0.1729 -0.1384
 5400W        W 9600   3.065   3.332   9.705 -0.0191 -0.1070  0.1617
 5401W        W 9601   0.055   9.664   9.463 -0.1545  0.2274  0.1791
 5402W        W 9602   1.654   3.919   2.370  0.1234  0.2525 -0.0445
 5403W        W 9603   2.850   8.198  10.703 -0.0058 -0.0082  0.0748
 5404W        W 9604   2.952   3.378   0.345 -0.0060  0.1681 -0.0640
 5405W        W 9605   8.251   0.076   2.958 -0.1973  0.3048 -0.3424
 5406W        W 9606   6.211   3.101  11.758 -0.2408  0.3066 -0.0146
 5407W        W 9607   6.975   6.050   9.990  0.2293 -0.2173 -0.1468
 5408W        W 9608   9.729   7.691  10.781 -0.1403 -0.2334  0.1395
 5409W        W 9609   7.605   9.069  12.244  0.1339  0.1511  0.2264
 5410W        W 9610   5.369   4.405   0.885  0.1066 -0.0969 -0.2703
 5411W        W 9611   7.313   0.425   7.872  0.1889  0.1504 -0.0004
 5412W        W 9612   7.099   1.430   1.912  0.1226  0.3494  0.1335
 5413W        W 9613   8.954   9.252  10.223 -0.4779 -0.0986 -0.2419
 5414W        W 9614   2.075   3.363  10.844 -0.2237 -0.1405  0.0885
 5415W        W 9615   5.442   8.047   1.387 -0.0748  0.0426  0.2287
 5416W        W 9616   8.377  10.479   0.509 -0.3698  0.2718  0.1768
 5417W        W 9617   5.842   9.264   9.897  0.2324  0.1867 -0.3690
 5418W        W 9618   4.697   9.290  12.254 -0.1133 -0.3310  0.0057
 5419W        W 9619  10.643   1.727  11.365 -0.0242 -0.1634  0.2153
 5420W        W 9620   9.464   8.136   9.591  0.0555 -0.1230  0.1905
 5421W        W 9621   1.462   2.657   8.426 -0.0183  0.0605 -0.0936
 5422W        W 9622  10.150   5.542  11.645  0.1468 -0.2149 -0.0077
 5423W        W 9623   7.450   2.668   4.081 -0.1357  0.1313 -0.0617
 5424W        W 9624   9.687   8.521   1.063 -0.0649 -0.0175 -0.1531
 5425W        W 9625   2.908   9.772   9.393 -0.0934 -0.1943 -0.2432
 5426W        W 9626   8.109   9.365   3.859 -0.2762  0.2299 -0.1157
 5427W        W 9627   7.447  10.155   9.688 -0.2679 -0.0609 -0.0583
 5428W        W 9628   0.172   4.401  10.999 -0.1772 -0.0360  0.1610
 5429W        W 9629   8.588   3.327  11.499  0.2027  0.0186  0.3148
 5430W        W 9630   3.853   2.163   0.762 -0.2839  0.2282  0.1460
 5431W        W 9631   0.169   9.115  10.153  0.3610  0.0802 -0.0741
 5432W        W 9632   3.665   5.271   8.283 -0.0528  0.3254 -0.0307
 5433W        W 9633   9.498   2.996  11.067  0.0277 -0.2832  0.1488
 5434W        W 9634   7.207   1.359   2.495 -0.1761 -0.1516  0.1118
 5435W        W 9635   5.758   8.769  11.195  0.1089  0.0082  0.2913
 5436W        W 9636   2.100   3.866   0.781  0.3612  0.0896 -0.0825
 5437W        W 9637   3.886   5.831  12.071  0.0032 -0.2379 -0.0034
 5438W        W 9638   8.020   0.840   1.893  0.3314  0.0238 -0.1868
 5439W        W 9639  10.617   5.196  12.640 -0.1348  0.2861  0.0535
 5440W        W 9640   8.628   8.214   4.192 -0.1381  0.2266 -0.0129
 5441W        W 9641   6.004   1.782  11.675  0.0505 -0.0161 -0.0312
 5442W        W 9642   2.591   0.869   2.259 -0.0244  0.0185  0.0212
 5443W        W 9643   2.492   9.496   9.374 -0.1838  0.3805 -0.0449
 5444W        W 9644   2.545   9.214   2.846  0.0059  0.1131  0.1941
 5445W        W 9645   1.553   0.523  11.848  0.0206  0.0167 -0.1233
 5446W        W 9646   3.338   4.229  11.479 -0.1480  0.3483  0.3655
 5447W        W 9647   5.337   8.614   1.720 -0.1611  0.3188 -0.3122
 5448W        W 9648   7.511   4.082  11.584 -0.0653 -0.0522  0.2498
 5449W        W 9649   2.086   8.866   9.310  0.0725 -0.2710  0.0995
 5450W        W 9650   0.387   7.100  12.893 -0.0678  0.1918  0.1340
 5451W        W 9651  10.215   9.419   0.159 -0.0292  0.4990  0.3332
 5452W        W 9652   3.455   4.050   2.507 -0.0372 -0.0247  0.2738
 5453W        W 9653   8.341   5.683   2.947 -0.2324 -0.0509 -0.4142
 5454W        W 9654   0.731   1.358   1.553 -0.1360 -0.1791 -0.0916
 5455W        W 9655   7.960   3.154   2.502 -0.0720  0.1489 -0.0913
 5456W        W 9656   9.114   2.218   9.644  0.0472  0.0949 -0.2776
 5457W        W 9657   6.448   4.020   3.596 -0.1567  0.2294  0.2138
 5458W        W 9658   0.078   1.578   0.698  0.5738  0.0338 -0.1786
 5459W        W 9659   4.122   2.726   9.659 -0.1251  0.1504  0.0154
 5460W        W 9660   2.349   6.553   2.991 -0.0860  0.1764  0.2141
 5461W        W 9661   6.402   0.812  11.244 -0.2701  0.2219  0.2391
 5462W        W 9662   5.216   1.360   9.976  0.0302 -0.1137 -0.4312
 5463W        W 9663   3.917   6.170   2.964  0.0292 -0.0428  0.0345
 5464W        W 9664   8.781   2.293   8.508  0.0781 -0.0459 -0.1973
 5465W        W 9665   5.141   1.522  11.622 -0.2666 -0.3908 -0.1639
 5466W        W 9666   2.162   1.762  11.183 -0.1323 -0.1004  0.3086
 5467W        W 9667   9.627   2.595   1.636  0.2094  0.0471 -0.2867
 5468W        W 9668   9.261   5.038   1.991  0.3127 -0.0165  0.1542
 5469W        W 9669   8.197   4.496  12.158  0.0041 -0.3130 -0.0348
 5470W        W 9670   1.910   4.234   3.186 -0.0178 -0.4927 -0.1994
 5471W        W 9671   9.148   4.547   2.685  0.1335  0.1166 -0.1309
 5472W        W 9672   8.786   0.560   9.085  0.0653  0.1360  0.1922
 5473W        W 9673   5.167   9.643  12.648  0.1166 -0.1166  0.2532
 5474W        W 9674   6.222   7.179  12.161  0.1011 -0.0587  0.2416
 5475W        W 9675   0.650   4.187   2.395 -0.4579  0.0319  0.1976
 5476W        W 9676   0.337   2.365   0.618  0.0402  0.0057  0.1072
 5477W        W 9677   0.682   1.590   9.774 -0.0558 -0.1792  0.2755
 5478W        W 9678   7.824   9.082  11.725  0.0105 -0.2727 -0.2308
 5479W        W 9679   8.118   1.728  12.069  0.2463 -0.0492  0.0487
 5480W        W 9680   6.180   5.509   9.686 -0.2827 -0.0387 -0.1506
 5481W        W 9681   2.038   9.947   4.005 -0.3104  0.1147 -0.0810
 5482W        W 9682   9.945   3.233   1.061 -0.4953 -0.0728  0.2942
 5483W        W 9683   4.952   4.090  12.458 -0.4402 -0.0971  0.0585
 5484W        W 9684   2.196   9.548   0.555 -0.4225  0.2569  0.0057
 5485W        W 9685   6.419   6.775   8.940 -0.2379  0.2029  0.0895
 5486W        W 9686   5.802   8.686   0.935 -0.1158  0.1820  0.0369
 5487W        W 9687   4.084   4.076   9.643  0.1069 -0.0499 -0.1153
 5488W        W 9688   2.065   5.172  10.058  0.0185  0.1382  0.2498
 5489W        W 9689   6.896   3.512   8.359  0.0274  0.0338  0.1781
 5490W        W 9690   5.481   1.383   3.051 -0.1514  0.2258  0.3220
 5491W        W 9691   0.620   6.739   1.608 -0.2497 -0.0038 -0.0610
 5492W        W 9692   1.524   2.457   1.966  0.0159  0.1045 -0.4807
 5493W        W 9693   6.498   9.671   1.938  0.1603  0.1047  0.1477
 5494W        W 9694   7.123   5.692   9.397  0.2180  0.2114 -0.0471
 5495W        W 9695   8.438   9.435   8.883  0.3463 -0.3053  0.3610
 5496W        W 9696   2.266   4.234   1.683  0.3156 -0.0747  0.0072
 5497W        W 9697   1.043  10.246  10.609  0.2699 -0.2521  0.0807
 5498W        W 9698   3.402   8.488   1.734 -0.0173  0.1762 -0.1831
 5499W        W 9699   0.567   7.885  12.236  0.3006  0.0211  0.0481
 5500W        W 9700   4.981   2.629   3.140  0.1969  0.0902 -0.1452
 5501W        W 9701   8.748   7.327   2.116  0.1640 -0.0501  0.1227
 5502W        W 9702   5.315   5.926  12.420 -0.1575  0.3058 -0.1628
 5503W        W 9703  10.574  10.567   0.523  0.1494  0.1764  0.0598
 5504W        W 9704   5.392   4.219  11.120  0.1304  0.1048 -0.2842
 5505W        W 9705   3.875   2.148  10.159 -0.1787 -0.0399 -0.1650
 5506W        W 9706   5.952   8.311  12.046 -0.1908  0.0845 -0.1123
 5507W        W 9707   8.008   5.813  10.625  0.2724 -0.0293 -0.1667
 5508W        W 9708   6.651   1.840  10.805  0.3761  0.0940  0.1334
 5509W        W 9709   7.860   2.760  11.159 -0.1094 -0.3436  0.0587
 5510W        W 9710   6.752   9.769   0.251 -0.1841 -0.0179  0.3586
 5511W        W 9711   4.513   9.169   0.115  0.2858 -0.2036 -0.2050
 5512W        W 9712   6.951   1.398  12.658  0.0079 -0.1381  0.0279
 5513W        W 9713   4.789   5.470  12.740 -0.3223  0.3811 -0.3570
 5514W        W 9714   0.545   2.806  12.810  0.3009 -0.0925 -0.1205
 5515W        W 9715   2.662   5.293  12.229 -0.0013 -0.1907  0.2303
 5516W        W 9716   6.456   3.583   3.194  0.1617  0.0428 -0.2452
 5517W        W 9717   9.825   5.935   0.894  0.3146 -0.2935  0.0782
 5518W        W 9718   4.346   2.294  12.378  0.2164  0.0410 -0.1082
 5519W        W 9719   3.624   0.783   0.385 -0.0662 -0.1237 -0.3048
 5520W        W 9720   1.602   4.407   2.359  0.0644  0.0314 -0.2118
 5521W        W 9721   5.750   8.035   2.849 -0.0090 -0.1698 -0.1063
 5522W        W 9722   4.324   8.289   7.607 -0.1013 -0.2080 -0.0269
 5523W        W 9723   6.015  10.431   0.355 -0.1224  0.3731 -0.1261
 5524W        W 9724   2.541   2.739   1.819  0.3245  0.0337 -0.1022
 5525W        W 9725   4.990   6.014   8.283  0.1547 -0.2847 -0.0918
 5526W        W 9726   4.561   2.666   9.815 -0.2856 -0.0025 -0.0442
 5527W        W 9727   0.630   1.201   3.493  0.4963 -0.1145 -0.2797
 5528W        W 9728   5.777   4.188  10.842 -0.0153 -0.0756 -0.0011
 5529W        W 9729   2.444   0.198  10.239 -0.1701  0.0743 -0.0003
 5530W        W 9730   1.818   3.522   9.453  0.1926 -0.0374  0.0690
 5531W        W 9731   1.190   6.563  11.146  0.0196 -0.0519  0.0459
 5532W        W 9732   0.105   8.156  11.372  0.4078  0.4087  0.2441
 5533W        W 9733   2.648   4.878  11.472  0.4129 -0.0458  0.3887
 5534W        W 9734   8.284   2.520  11.090 -0.0189  0.0639 -0.1495
 5535W        W 9735   6.585   5.155   0.024  0.0462 -0.2993 -0.0469
 5536W        W 9736   2.839   0.507   8.214  0.2262  0.3775 -0.1317
 5537W        W 9737   9.457   3.710  12.370  0.3564  0.0122 -0.2734
 5538W        W 9738   1.738   3.829   3.785  0.3474 -0.0181  0.1010
 5539W        W 9739   9.358   1.394  11.347  0.1161 -0.1518 -0.0130
 5540W        W 9740   7.006   2.494  10.063  0.2936  0.0978 -0.3219
 5541W        W 9741   1.096   4.341   3.228 -0.1480  0.2955 -0.0504
 5542W        W 9742   2.197   4.520   0.286  0.4561  0.0801 -0.2008
 5543W        W 9743   8.124   5.232   1.226  0.1212  0.0219  0.1141
 5544W        W 9744  10.039   3.101   9.807 -0.1601  0.0859 -0.3672
 5545W        W 9745   3.849   4.705   8.996  0.2133 -0.1537 -0.2816
 5546W        W 9746   6.637   8.030   1.841 -0.2268 -0.1389  0.1140
 5547W        W 9747   3.322   0.832   7.540 -0.0105  0.0276  0.1122
 5548W        W 9748   2.180   1.887   2.978 -0.1491  0.1733 -0.1213
 5549W        W 9749   3.126  10.230   7.845 -0.2195  0.0454 -0.1423
 5550W        W 9750   8.269   8.392   1.952 -0.4079 -0.2528 -0.1262
 5551W        W 9751   1.979   0.398  10.189  0.1289  0.0878 -0.2476
 5552W        W 9752   7.688   3.245  12.263 -0.0053 -0.0356  0.1909
 5553W        W 9753   2.379   5.364   0.256 -0.2035  0.1388 -0.4053
 5554W        W 9754   4.810   3.119   0.447 -0.0612 -0.1175  0.0325
 5555W        W 9755   8.485   8.823   1.028 -0.0978  0.1117 -0.0275
 5556W        W 9756   9.264  10.377   8.336 -0.2760  0.0781 -0.1841
 5557W        W 9757   8.240   5.085  12.916 -0.1475 -0.2519  0.1360
 5558W        W 9758   6.753  10.164   3.037 -0.0506  0.2626 -0.2559
 5559W        W 9759   3.993  10.562   7.683  0.0047  0.3959 -0.0753
 5560W        W 9760   6.874   5.318   1.883  0.0523 -0.1026 -0.1744
 5561W        W 9761   8.685   4.431   9.706  0.1521  0.2967 -0.0104
 5562W        W 9762   9.461   3.534   1.983 -0.1493  0.3645 -0.0980
 5563W        W 9763   2.493   9.488   8.885 -0.0218  0.2671  0.2751
 5564W        W 9764  10.113   1.511  12.065 -0.4785  0.3269  0.4675
 5565W        W 9765   4.922   9.764   0.536  0.0667  0.1288 -0.0618
 5566W        W 9766   8.281   1.239   0.495  0.0851  0.0101 -0.0044
 5567W        W 9767   5.137   5.337   8.126 -0.0245 -0.1418  0.0261
 5568W        W 9768   3.663   7.579   3.746 -0.3864  0.2498 -0.3069
 5569W        W 9769   7.168   7.149   1.400  0.3248 -0.2565  0.0776
 5570W        W 9770   5.580   5.774   9.355  0.0434 -0.0381  0.2780
 5571W        W 9771   5.744   8.690   2.598 -0.5327  0.1719  0.3884
 5572W        W 9772   8.210   2.233   3.842 -0.0606 -0.3649 -0.0159
 5573W        W 9773   5.120   0.598   9.594 -0.3518 -0.5145 -0.2102
 5574W        W 9774   9.741   3.433   1.517 -0.1277  0.2854 -0.0948
 5575W        W 9775   3.517   7.932  10.692 -0.1941  0.1006  0.3209
 5576W        W 9776   9.371   7.714   3.142 -0.0945 -0.1320 -0.0158
 5577W        W 9777   9.441   3.893   1.614  0.0359 -0.0119 -0.0150
 5578W        W 9778   2.324  10.515   3.789  0.0739 -0.0132  0.0402
 5579W        W 9779   1.032   1.369   8.364 -0.3023  0.0787 -0.0344
 5580W        W 9780   0.757  10.418   0.451 -0.0336  0.0484  0.1385
 5581W        W 9781   1.486  10.038   8.362  0.0836  0.2313  0.1242
 5582W        W 9782   7.668   6.016  12.439 -0.0536  0.1962  0.1586
 5583W        W 9783   2.452   8.473   3.824  0.1516  0.1631 -0.1247
 5584W        W 9784   7.937   2.987   9.982  0.2023 -0.3169 -0.3892
 5585W        W 9785   5.256   5.494  12.830 -0.3939 -0.0399 -0.0367
 5586W        W 9786   3.113   1.727   0.656  0.0244 -0.0540 -0.3263
 5587W        W 9787  10.673   3.420   3.477  0.1427  0.3184  0.0559
 5588W        W 9788   7.479   8.017  12.486 -0.0891  0.0193 -0.3211
 5589W        W 9789   8.658   7.791   9.845 -0.1023  0.5575 -0.1981
 5590W        W 9790   0.865   8.137   1.907  0.1797  0.1208 -0.0455
 5591W        W 9791   3.648   9.875   3.734  0.1732 -0.1255  0.0334
 5592W        W 9792   6.020   0.133   3.054 -0.0011  0.0075 -0.3751
 5593W        W 9793   6.318   9.022   9.748 -0.0101 -0.3034 -0.1056
 5594W        W 9794   1.577   1.211  10.971  0.0662 -0.3741  0.0531
 5595W        W 9795   9.581   8.258   0.134  0.1321  0.0369 -0.2532
 5596W        W 9796   8.266   0.100   9.360  0.2092 -0.0190 -0.1388
 5597W        W 9797   3.065   7.725  10.804  0.0287 -0.0136  0.0393
 5598W        W 9798   1.708   1.202   9.633  0.0656  0.0619  0.1463
 5599W        W 9799   3.423  10.338   2.317  0.0194  0.1681  0.2912
 5600W        W 9800   3.499   8.509   9.264 -0.0386  0.0151 -0.1068
 5601W        W 9801   9.584   1.052   1.001 -0.1746  0.0365 -0.2383
 5602W        W 9802   4.961   5.973   9.484  0.2940 -0.2247 -0.0795
 5603W        W 9803   7.953  10.290   0.359  0.0910  0.2352 -0.0101
 5604W        W 9804   5.425   8.511   7.570  0.1323 -0.3017  0.1531
 5605W        W 9805   7.824  10.064   8.626  0.1516 -0.1506  0.0579
 5606W        W 9806   0.221   6.875   1.997 -0.3494  0.3936  0.0739
 5607W        W 9807  10.410   5.884   0.720  0.1489 -0.1429  0.0981
 5608W        W 9808   7.863   9.217   2.892 -0.0640  0.2547 -0.0000
 5609W        W 9809   3.013   8.376   9.301  0.3173  0.2782  0.3262
 5610W        W 9810  10.481   6.767   2.970 -0.3382 -0.2143 -0.2891
 5611W        W 9811   2.679   4.808  10.397 -0.0960  0.0334  0.0640
 5612W        W 9812   0.545   3.974   2.855 -0.0697 -0.2949  0.1394
 5613W        W 9813   4.954   5.888  11.297 -0.0561 -0.3926  0.2218
 5614W        W 9814   8.557  10.551  10.657 -0.1013  0.2444  0.2215
 5615W        W 9815   7.182   3.858   1.091 -0.1305 -0.1161  0.2360
 5616W        W 9816   5.022   6.454   0.808  0.1069 -0.2594  0.1607
 5617W        W 9817   3.299   0.330   2.414  0.1542  0.0009 -0.0361
 5618W        W 9818   4.954   6.653   1.441 -0.0811 -0.2068  0.0142
 5619W        W 9819   7.671   7.126   8.730 -0.1289 -0.2230 -0.1136
 5620W        W 9820   5.356   3.567   3.517  0.2743 -0.2023  0.2444
 5621W        W 9821   8.345  10.229   9.227 -0.0677  0.1357 -0.1143
 5622W        W 9822   4.033   7.941   2.689  0.0518  0.0823  0.0322
 5623W        W 9823   9.033   3.395  12.329 -0.0338  0.3057 -0.0617
 5624W        W 9824   9.070   0.279  11.641  0.0723 -0.0570 -0.1489
 5625W        W 9825   0.818   0.381  12.254 -0.0204 -0.1479 -0.0566
 5626W        W 9826   1.783   7.880   8.881 -0.1705 -0.1170 -0.4349
 5627W        W 9827   2.451   6.518   0.183 -0.0986 -0.3162 -0.2219
 5628W        W 9828   1.215   8.118   8.110 -0.0434 -0.1296  0.0420
 5629W        W 9829   6.365   5.140   4.479 -0.0999 -0.2481  0.1782
 5630W        W 9830   5.204   7.054   3.851  0.4463  0.2483 -0.0927
 5631W        W 9831  10.071   5.712   0.040 -0.0306 -0.0543 -0.1811
 5632W        W 9832   3.304  10.492  12.143  0.0884 -0.1368  0.0985
 5633W        W 9833   1.539   0.239   8.381  0.2054  0.2691  0.0396
 5634W        W 9834   8.061   0.390   8.850  0.3371  0.2187 -0.1723
 5635W        W 9835   6.962   9.356   9.712 -0.1777  0.0672  0.5824
 5636W        W 9836   9.408   7.428   2.083 -0.1534 -0.3021 -0.3704
 5637W        W 9837   9.780  10.399   4.254  0.0906 -0.2758 -0.2014
 5638W        W 9838  10.600   0.853   3.914  0.0945 -0.1639  0.1007
 5639W        W 9839   2.296   3.061  12.153  0.1619 -0.1441 -0.0352
 5640W        W 9840   3.006   7.361  12.123 -0.1774  0.2463  0.1250
 5641W        W 9841   8.238   4.708   9.679  0.0617 -0.0376  0.0900
 5642W        W 9842   2.417   9.564  12.578  0.4048 -0.0545  0.1100
 5643W        W 9843   3.092   0.282  12.004 -0.1103 -0.0382  0.2541
 5644W        W 9844   3.582   4.921   9.892  0.2497 -0.1720  0.0514
 5645W        W 9845   0.766   1.709   0.016 -0.1145 -0.0994  0.0699
 5646W        W 9846   4.580   8.541   8.864 -0.0929  0.0589 -0.0690
 5647W        W 9847   8.828  10.638   2.572  0.0064  0.0729  0.3164
 5648W        W 9848   5.246   7.182  11.618 -0.3703  0.2471 -0.0101
 5649W        W 9849   9.371   5.480   3.362 -0.1412 -0.0237 -0.0496
 5650W        W 9850   0.247   1.639   3.372  0.0996  0.1460 -0.1903
 5651W        W 9851   4.896   5.183  10.268  0.0214  0.0053  0.1464
 5652W        W 9852   8.575   9.091   3.733  0.1567 -0.2278 -0.0224
 5653W        W 9853   1.483   5.106   9.093  0.0982  0.2024 -0.1007
 5654W        W 9854   2.047   7.946   1.756  0.0777  0.0699 -0.0231
 5655W        W 9855   4.091   3.636   1.977 -0.2877  0.0230  0.0646
 5656W        W 9856   6.734   5.596  10.839 -0.1837 -0.3054 -0.0501
 5657W        W 9857   5.496   1.902   9.489  0.2549 -0.0898  0.1383
 5658W        W 9858   1.021   9.110   8.988 -0.1933  0.1333 -0.1402
 5659W        W 9859   7.457   6.822   2.822  0.0660  0.1176 -0.0065
 5660W        W 9860   0.139   9.384  11.524  0.1488 -0.1415  0.1321
 5661W        W 9861   9.525   0.298   9.868  0.1274 -0.1661 -0.0008
 5662W        W 9862   3.955   5.408  11.281 -0.0870  0.5736 -0.3452
 5663W        W 9863   6.507   2.505   2.891  0.1879  0.3262  0.3861
 5664W        W 9864  10.680   6.682   2.499 -0.0574  0.2113 -0.2617
 5665W        W 9865   2.863   8.762   3.108 -0.1053  0.2563 -0.0470
 5666W        W 9866   5.290   9.097   8.400 -0.3173 -0.3431  0.0181
 5667W        W 9867   4.699   2.306   9.476  0.2128 -0.3661  0.0687
 5668W        W 9868   1.696   4.144  12.057 -0.0378 -0.0712  0.1587
 5669W        W 9869   0.567   3.685   0.986 -0.0778 -0.5812 -0.0637
 5670W        W 9870   0.813   4.435  10.051 -0.4411  0.1122 -0.2528
 5671W        W 9871   9.265   2.974  10.326  0.2229  0.1218  0.5129
 5672W        W 9872   7.655   8.226   8.750  0.2078  0.0921  0.3651
 5673W        W 9873   7.945   0.032   1.542  0.1720 -0.0461  0.0313
 5674W        W 9874   4.411   7.574   4.791  0.0691  0.2511 -0.3345
 5675W        W 9875   4.280   7.661   2.347 -0.0460  0.1039  0.2250
 5676W        W 9876  10.292   0.386   9.054 -0.2983 -0.1946 -0.2285
 5677W        W 9877   9.235   9.870   0.910 -0.0728 -0.2433 -0.1161
 5678W        W 9878   8.361   8.361   9.106  0.1590 -0.0359  0.1193
 5679W        W 9879   4.263   9.219  11.963 -0.3225  0.3558  0.0512
 5680W        W 9880   7.874   3.238  10.928 -0.1127  0.0837 -0.2447
 5681W        W 9881   4.729   7.089  11.497 -0.0978 -0.1047 -0.2400
 5682W        W 9882   4.290  10.110   1.511  0.1087  0.1991 -0.1170
 5683W        W 9883   6.538  10.624   9.638 -0.0492 -0.1399  0.3615
 5684W        W 9884  10.642   5.589   3.166 -0.1006 -0.3386 -0.1777
 5685W        W 9885   7.912   9.767   0.629  0.0002  0.0083 -0.3643
 5686W        W 9886   8.969   7.248  11.835 -0.3356  0.1754  0.0495
 5687W        W 9887   8.078   5.937   3.326 -0.1182  0.1941 -0.4243
 5688W        W 9888   4.762   5.676   7.947  0.2403 -0.1901  0.0037
 5689W        W 9889   3.884   6.906   0.540 -0.0246 -0.3468  0.3407
 5690W        W 9890  10.089   5.328   2.469  0.2465  0.0185 -0.1387
 5691W        W 9891   4.207   9.592   1.398 -0.0213  0.0490 -0.2052
 5692W        W 9892   5.993   7.380  12.555  0.2218 -0.0186  0.0125
 5693W        W 9893   3.761   6.060   0.973 -0.2202  0.1284 -0.0434
 5694W        W 9894   9.198   1.065  12.112  0.3414  0.1192  0.0526
 5695W        W 9895   0.610   8.741   2.705  0.1234 -0.0636 -0.4352
 5696W        W 9896   1.070  10.387   2.438 -0.0657  0.0612  0.1895
 5697W        W 9897   6.781   7.130   3.535  0.0467  0.0506 -0.1050
 5698W        W 9898   1.187   4.838   2.481  0.0927  0.0025  0.3187
 5699W        W 9899   4.897   0.947  11.423  0.1531 -0.0670  0.0398
 5700W        W 9900   6.263   5.636   2.039 -0.1230  0.0209 -0.0308
 5701W        W 9901   4.204   7.241  10.129  0.3528 -0.0992  0.0864
 5702W        W 9902   0.344   3.207   9.892 -0.2167 -0.2518  0.0172
 5703W        W 9903   2.043   7.203  12.243  0.0990  0.2690 -0.1089
 5704W        W 9904   9.412   5.552   2.262 -0.2664  0.1849  0.0743
 5705W        W 9905   3.338   2.437   2.129 -0.2313 -0.0084  0.2376
 5706W        W 9906   0.559   9.721   9.371  0.0062  0.2576  0.1120
 5707W        W 9907   0.131   4.267   2.079  0.0192 -0.0655  0.1314
 5708W        W 9908   1.506   9.980   3.625 -0.0507  0.1041 -0.1795
 5709W        W 9909   0.765   2.296   1.832  0.1730  0.1032  0.0077
 5710W        W 9910   9.932   8.743   1.992  0.0385 -0.0673 -0.0444
 5711W        W 9911   1.127  10.081  10.063 -0.2624  0.2048 -0.2191
 5712W        W 9912  10.228   9.111  11.544  0.2273  0.0363 -0.0439
 5713W        W 9913   7.675   9.959   3.352 -0.0635 -0.0470  0.0242
 5714W        W 9914   5.364  10.596   3.179  0.0865  0.1862 -0.0959
 5715W        W 9915   3.142   9.348  11.976  0.0821  0.1258  0.1312
 5716W        W 9916   4.228   5.159   0.329 -0.1641 -0.0213  0.2361
 5717W        W 9917   2.131   6.769   0.604  0.0457 -0.0876 -0.0477
 5718W        W 9918   2.731   8.313   2.926  0.1341 -0.0495  0.2196
 5719W        W 9919   9.516   8.000   8.676  0.0170  0.1382  0.0450
 5720W        W 9920   9.129   2.007  12.497  0.2908  0.0990 -0.0345
 5721W        W 9921   7.234   1.021   1.359 -0.1339  0.2413 -0.1153
 5722W        W 9922   8.646   9.409   7.660  0.2660  0.1827  0.0894
 5723W        W 9923   7.895   6.344  12.100  0.0639  0.0288 -0.0922
 5724W        W 9924   4.628   2.923  12.741 -0.2192  0.0172 -0.1471
 5725W        W 9925   2.421   8.537   9.892  0.2211  0.1050 -0.3037
 5726W        W 9926   2.360   9.376   0.980 -0.1148  0.0498 -0.0199
 5727W        W 9927   3.618   4.847  10.840  0.1684  0.0817  0.0327
 5728W        W 9928   8.067   7.290   2.995 -0.0820  0.0635 -0.0666
 5729W        W 9929   7.262   8.156   1.817 -0.2794  0.0216 -0.1289
 5730W        W 9930   9.584   1.810  10.008  0.0590  0.1959  0.4340
 5731W        W 9931   0.452   7.856   1.894  0.0379 -0.0430 -0.4570
 5732W        W 9932   5.952   6.007  11.022  0.3831 -0.0095 -0.1044
 5733W        W 9933   5.924   1.562   9.239  0.3055  0.0950 -0.0677
 5734W        W 9934   9.080   4.803  11.900  0.1958 -0.1950 -0.3759
 5735W        W 9935   4.775   4.166   9.208 -0.0350 -0.3183 -0.1243
 5736W        W 9936   4.324   3.685   9.418 -0.1822  0.0426 -0.2518
 5737W        W 9937   1.638   4.278   9.964  0.1811  0.0857  0.1864
 5738W        W 9938   0.925   6.409   0.901  0.0304 -0.4328  0.3760
 5739W        W 9939   6.613   9.577   1.474  0.4060  0.0771  0.0861
 5740W        W 9940   7.836   0.972   0.900  0.0496  0.1381  0.0848
 5741W        W 9941   9.614  10.242   0.222  0.1364  0.1030  0.0601
 5742W        W 9942   7.302   3.076   5.236 -0.1785 -0.0730  0.1573
 5743W        W 9943   9.037   8.436   2.807  0.1032 -0.1674  0.1021
 5744W        W 9944   8.296   3.274   4.804  0.1094 -0.2744  0.1527
 5745W        W 9945   4.803   3.248  10.503 -0.2750 -0.2005  0.0331
 5746W        W 9946   0.891   1.942   2.562 -0.1575 -0.2775  0.0173
 5747W        W 9947   0.528   3.131   4.151 -0.0126 -0.0647 -0.0235
 5748W        W 9948   8.120   6.633   9.298  0.1511 -0.0964 -0.2682
 5749W        W 9949   3.188   6.308   9.647 -0.1691 -0.0066  0.0606
 5750W        W 9950   0.307   9.324   2.038  0.1243  0.2732 -0.0286
 5751W        W 9951   3.805   1.109   8.283 -0.2216  0.0545 -0.2483
 5752W        W 9952   7.413   4.023  12.653  0.2882 -0.1097  0.1553
 5753W        W 9953   4.002   5.856   1.397  0.1895 -0.1463  0.2261
 5754W        W 9954   1.879   6.395  11.600 -0.4920  0.1766 -0.1808
 5755W        W 9955   0.305   1.968  10.640 -0.1172 -0.1807  0.1195
 5756W        W 9956   3.085   1.938   3.966 -0.2291 -0.0313 -0.0170
 5757W        W 9957   7.895   8.838   1.562  0.1598 -0.0728 -0.1008
 5758W        W 9958   7.376   4.023   2.099 -0.0142  0.0131  0.0559
 5759W        W 9959   7.340   3.570   1.722 -0.1538 -0.2549 -0.2763
 5760W        W 9960   5.772   5.702   0.830  0.0641 -0.1402 -0.0383
 5761W        W 9961   5.750   0.409  11.673 -0.0255 -0.1723  0.0797
 5762W        W 9962   3.408   0.487  10.143  0.1949  0.2561 -0.1839
 5763W        W 9963   1.058   8.474  10.523 -0.2847  0.1056 -0.1467
 5764W        W 9964   9.525  10.327   2.308 -0.0244  0.4671  0.0155
 5765W        W 9965   0.266   6.313   1.323  0.0865 -0.0870 -0.1694
 5766W        W 9966   0.835   3.882   3.400 -0.1682 -0.0446  0.1707
 5767W        W 9967   7.895   6.795   0.722  0.3219  0.0084 -0.1256
 5768W        W 9968   1.752  10.354   1.951  0.2694  0.3096 -0.3946
 5769W        W 9969   1.205   2.958   3.471 -0.3380  0.1772  0.2025
 5770W        W 9970   6.788   7.930   3.235  0.0017 -0.0093  0.2572
 5771W        W 9971   3.705   2.634   1.668 -0.1325  0.1531 -0.3422
 5772W        W 9972   0.094   9.661   9.934 -0.0346 -0.1331 -0.2080
 5773W        W 9973   4.138   4.901  10.788  0.1995  0.0318  0.1807
 5774W        W 9974   0.287   8.336   8.401 -0.1725 -0.0030 -0.0059
 5775W        W 9975   9.684   6.454   3.708 -0.2836  0.0205 -0.1405
 5776W        W 9976   6.074   3.875  10.016  0.1253 -0.0107 -0.3085
 5777W        W 9977   2.436   2.998  10.759 -0.1084 -0.1601  0.0261
 5778W        W 9978   6.156  10.437   1.140 -0.2197  0.1092  0.0889
 5779W        W 9979  10.452   1.477   3.532  0.1793  0.1540  0.1239
 5780W        W 9980   1.807   0.076  11.991  0.0935 -0.0410 -0.0464
 5781W        W 9981   1.612   0.762   2.517 -0.2093 -0.1017  0.1003
 5782W        W 9982   6.134   1.426  10.042 -0.0804  0.0303 -0.5642
 5783W        W 9983   4.883   3.062   9.954  0.0577  0.0117 -0.0271
 5784W        W 9984   4.377   9.977  11.304 -0.3284  0.5056 -0.0624
 5785W        W 9985   1.194   5.687   3.176  0.0213  0.1363  0.0005
 5786W        W 9986   0.864   5.547   4.116  0.0891 -0.0496  0.4887
 5787W        W 9987   0.082  10.199   8.146 -0.2264 -0.0409 -0.2849
 5788W        W 9988  10.475   1.761   4.484  0.0162 -0.0019  0.0103
 5789W        W 9989   2.602   3.835  12.287  0.0355  0.0392 -0.1354
 5790W        W 9990   4.233  10.574   1.878 -0.3786  0.4533  0.3474
 5791W        W 9991   5.085  10.007   9.047  0.0604  0.2348 -0.0076
 5792W        W 9992   9.373   5.295  10.195  0.0738 -0.0415 -0.0852
 5793W        W 9993   5.657  10.046   7.181 -0.1053  0.1698  0.3243
 5794W        W 9994   9.817   2.466   3.977  0.3220 -0.0958 -0.3033
 5795W        W 9995   4.481   8.740   9.384 -0.0443  0.0750 -0.2449
 5796W        W 9996   6.776   8.102  10.501  0.0329  0.0775  0.3735
 5797W        W 9997   6.554   7.518   3.302 -0.1665 -0.0870  0.2015
 5798W        W 9998   3.552   3.025   0.917  0.1213  0.0442  0.4947
 5799W        W 9999   3.030   1.446   3.121  0.0490 -0.3391 -0.1783
 5800W        W10000   2.949   0.247  10.048 -0.2234  0.1811 -0.2529
 5801W        W10001   9.754   1.813  11.680  0.0993 -0.2468 -0.1149
 5802W        W10002   7.911   6.123   1.188 -0.3010 -0.1956  0.1765
 5803W        W10003   2.692   8.240  12.673 -0.1490  0.1325  0.1173
 5804W        W10004   0.890   0.043   1.099 -0.1487  0.1743  0.0051
 5805W        W10005  10.177   2.980   1.632 -0.0885  0.1401  0.3208
 5806W        W10006   7.192   7.195   2.757  0.2429 -0.1862  0.2638
 5807W        W10007   9.956  10.178  12.718 -0.0513 -0.2404 -0.1137
 5808W        W10008   0.168   3.848   9.339 -0.3890  0.0423  0.0183
 5809W        W10009   1.949   6.987   9.860  0.1219 -0.0457  0.1305
 5810W        W10010   6.852   3.327   3.150  0.3432 -0.0007 -0.0306
 5811W        W10011   0.732  10.144  12.849 -0.0421 -0.0621 -0.3678
 5812W        W10012   3.022   5.956   8.865 -0.2586  0.0523 -0.1769
 5813W        W10013   9.206   4.536   8.920  0.0851 -0.2585  0.2438
 5814W        W10014  10.604   0.848  11.665 -0.1725 -0.1443  0.1086
 5815W        W10015   8.951   3.099  11.145  0.2269 -0.2477 -0.0123
 5816W        W10016   9.749   4.370  10.181 -0.2060  0.1226 -0.0451
 5817W        W10017  10.432   3.683  10.431  0.0801  0.2836  0.0454
 5818W        W10018   0.353   2.040  11.195 -0.1651 -0.0322 -0.1995
 5819W        W10019   9.246   8.423   8.692  0.4557  0.0330 -0.2031
 5820W        W10020   6.455   0.628   1.132  0.1655 -0.0552 -0.0927
 5821W        W10021   8.842   8.019  11.158 -0.0947  0.3527 -0.0959
 5822W        W10022   6.385   6.380   9.236  0.2313 -0.0255 -0.1387
 5823W        W10023   4.782   2.468  12.478  0.1348 -0.0883 -0.1465
 5824W        W10024   1.158   2.369   8.838  0.1625 -0.0087 -0.1016
 5825W        W10025   3.687   1.719   0.709  0.1216 -0.0133 -0.3334
 5826W        W10026   3.358   9.214   2.984  0.2836  0.2441  0.1721
 5827W        W10027   6.614   2.102   2.423  0.2516  0.1539  0.2514
 5828W        W10028   7.373   1.635   8.869  0.3698 -0.1842 -0.1771
 5829W        W10029   3.582   7.942  10.089 -0.3251  0.0718  0.2417
 5830W        W10030  10.464   2.985   9.581  0.1685 -0.3748  0.0807
 5831W        W10031   6.865   8.708   9.015 -0.0800  0.0594  0.1663
 5832W        W10032   9.842   7.706  10.307  0.0258 -0.1352  0.2170
 5833W        W10033   8.454   6.401  11.138 -0.0935 -0.1926 -0.0391
 5834W        W10034   6.968   2.525  12.242 -0.3698  0.1555 -0.0379
 5835W        W10035   2.904   7.516   2.300 -0.0731  0.0669  0.0023
 5836W        W10036   1.183   2.391   2.607  0.1012 -0.3434 -0.0450
 5837W        W10037   5.156   4.501   1.320 -0.1436 -0.0410 -0.0874
 5838W        W10038   4.985   0.214  10.523  0.0924 -0.0226  0.0951
 5839W        W10039   8.411   8.490  11.958  0.0383  0.2263 -0.1791
 5840W        W10040   9.277   3.370   1.453 -0.5095  0.0522 -0.2878
 5841W        W10041   8.338   1.770   1.853  0.0019 -0.0202 -0.0395
 5842W        W10042   0.139   6.734  10.935 -0.3746 -0.2078  0.1170
 5843W        W10043  10.633   0.631   1.351 -0.6146  0.0760  0.1620
 5844W        W10044   1.111   2.796  12.762  0.1350 -0.0912 -0.0046
 5845W        W10045  10.226   6.331   0.740  0.1010 -0.1477  0.0821
 5846W        W10046   6.265   5.540  11.094  0.1711  0.0279  0.1449
 5847W        W10047   7.022   5.402   0.056  0.2755  0.0788  0.0406
 5848W        W10048   3.421   3.639  10.105  0.0545  0.1685  0.2569
 5849W        W10049   9.691   4.729  11.133  0.0443 -0.0508  0.2341
 5850W        W10050   6.340   3.240   0.721 -0.3379 -0.0954 -0.0538
 5851W        W10051   5.320   1.655  12.493  0.1504  0.0015 -0.0667
 5852W        W10052   8.209   7.036   8.967 -0.0190  0.1052 -0.0566
 5853W        W10053   2.460   1.384  10.051 -0.1785 -0.2233  0.1144
 5854W        W10054   3.095   6.235   0.963  0.2606 -0.1196  0.1745
 5855W        W10055   3.911   7.694  10.383 -0.0883 -0.1678 -0.0358
 5856W        W10056   6.123   3.277   8.277  0.0543  0.0902  0.1148
 5857W        W10057   0.400   8.780   9.273  0.2573 -0.2781  0.0896
 5858W        W10058   8.833   1.311   9.931 -0.1307 -0.2624  0.1259
 5859W        W10059   9.109   8.471   1.988  0.1379  0.0355  0.2460
 5860W        W10060   2.553   7.068   2.365 -0.0715  0.4879 -0.0994
 5861W        W10061   0.331   4.499  10.422  0.2249  0.0720 -0.2854
 5862W        W10062   1.757   0.322  10.670 -0.0627 -0.0338  0.0387
 5863W        W10063   7.447   4.316  10.173  0.2568 -0.0092 -0.2894
 5864W        W10064   9.524   2.310   9.339 -0.1538 -0.1788 -0.1178
 5865W        W10065   7.966   5.590   4.794 -0.0134 -0.1619 -0.1276
 5866W        W10066   2.163   4.054  11.630 -0.2685 -0.0326 -0.0152
 5867W        W10067   4.138   0.847   0.528  0.3123  0.0177 -0.2407
 5868W        W10068   1.880   6.349  10.459  0.1415 -0.0922  0.2568
 5869W        W10069   4.276   8.541  11.654 -0.1225  0.3231  0.0157
 5870W        W10070   9.089   9.906   9.875  0.0692 -0.1070 -0.1205
 5871W        W10071   2.109   8.664   2.388  0.0665  0.3362  0.0769
 5872W        W10072   3.917   4.730   7.684  0.2076  0.1119  0.0956
 5873W        W10073   7.055   8.842   9.500  0.1468 -0.0952 -0.2413
 5874W        W10074   0.162   2.199   3.057  0.2350  0.0320  0.0381
 5875W        W10075   1.908   8.283   0.816  0.1838 -0.0582  0.1455
 5876W        W10076   7.273   8.176   9.929  0.1310  0.0480  0.3605
 5877W        W10077   5.361   8.062  10.668 -0.1143  0.0852 -0.0637
 5878W        W10078   0.267   5.194   2.296 -0.0322  0.0290 -0.2934
 5879W        W10079   0.923   0.184   2.625  0.2184  0.0148 -0.2511
 5880W        W10080   3.691   6.774  10.770  0.2862 -0.1448  0.1500
 5881W        W10081   1.523   6.663   9.070  0.0719 -0.0542  0.1997
 5882W        W10082   0.143   0.033  10.477  0.1393 -0.0070 -0.0900
 5883W        W10083   4.046   9.010   3.860  0.0145  0.0467 -0.0755
 5884W        W10084   7.911   6.269   9.614 -0.1660 -0.0288 -0.0747
 5885W        W10085   7.625   1.338   0.129  0.0526 -0.1517 -0.2333
 5886W        W10086   2.875  10.219   8.692  0.4166  0.1999 -0.2101
 5887W        W10087   2.965   4.945   1.269  0.0569 -0.0211 -0.3000
 5888W        W10088   1.401   3.716   3.299  0.0844 -0.0204 -0.2955
 5889W        W10089   5.734   3.167   2.816  0.2216  0.0887  0.1424
 5890W        W10090   6.598   2.171  11.601  0.0877 -0.1546 -0.0301
 5891W        W10091   2.624   0.947   8.231  0.1009 -0.3423  0.0046
 5892W        W10092   0.456   3.273   9.360  0.1504 -0.2634  0.1150
 5893W        W10093   5.294   9.114   2.114  0.2472 -0.1395 -0.0503
 5894W        W10094   6.157   0.985   0.856  0.1232 -0.2181 -0.0211
 5895W        W10095   6.217   4.708  10.302  0.2825 -0.1699  0.2283
 5896W        W10096   5.298   7.033   9.582  0.0829 -0.3015 -0.1744
 5897W        W10097   7.580   2.350   1.061 -0.0801 -0.3340  0.0889
 5898W        W10098   5.269   7.326   0.864 -0.0633 -0.4120 -0.4105
 5899W        W10099   6.117   6.839   3.869  0.0065 -0.0589  0.2616
 5900W        W10100   7.369   7.914   3.042  0.1987  0.2044 -0.0444
 5901W        W10101   5.141   9.406   9.834  0.0378  0.1017  0.1236
 5902W        W10102   4.229   1.492   3.563  0.1773  0.2413  0.2347
 5903W        W10103   4.111   8.034   2.102 -0.0592 -0.2397  0.0281
 5904W        W10104   5.000   7.343   0.449 -0.0580  0.7004  0.0259
 5905W        W10105   6.451   6.423   2.915 -0.1067 -0.1077 -0.0883
 5906W        W10106   1.113  10.611   3.001 -0.0313 -0.0363  0.0384
 5907W        W10107   4.938   2.664   8.589  0.1672 -0.0604 -0.0893
 5908W        W10108   8.008   3.960   0.393  0.0077  0.0500 -0.0599
 5909W        W10109   9.565  10.682   1.228 -0.2855  0.2396 -0.2049
 5910W        W10110   9.796   0.425   9.015 -0.0897 -0.4548 -0.0484
 5911W        W10111   7.049   7.878   1.060 -0.0658 -0.0997  0.0783
 5912W        W10112   1.339   1.664   1.773 -0.3056 -0.0672 -0.0383
 5913W        W10113   5.747  10.461   0.762  0.0464  0.0009 -0.4001
 5914W        W10114   6.093   9.575   3.234  0.0310 -0.2945 -0.1590
 5915W        W10115   2.589   4.845   0.854 -0.0860  0.0188  0.0890
 5916W        W10116   6.641   3.802  11.109  0.0896  0.0483 -0.0394
 5917W        W10117   2.329   1.072   9.028 -0.0444 -0.1050  0.1174
 5918W        W10118   5.042   0.224   8.649 -0.0604 -0.1557 -0.0142
 5919W        W10119   3.202   8.827   9.010  0.3181  0.0073  0.1769
 5920W        W10120   6.470   0.537   8.458 -0.3113  0.2828 -0.1606
 5921W        W10121   8.617   8.206   8.495  0.0251 -0.3934  0.1626
 5922W        W10122   8.792   1.015  10.323  0.0668 -0.0679  0.0459
 5923W        W10123   8.985   2.573   3.017  0.0990  0.1871 -0.0398
 5924W        W10124  10.146   4.240   0.316 -0.4899  0.0337 -0.2661
 5925W        W10125   7.422   1.888   3.949 -0.0121  0.0753  0.1422
 5926W        W10126   7.421   2.554  11.167 -0.0346  0.0482  0.0346
 5927W        W10127   0.767   1.244  11.281 -0.1324  0.0094 -0.2961
 5928W        W10128   9.528   8.112   1.571 -0.3134 -0.0623  0.2689
 5929W        W10129   5.242   0.444  10.180 -0.0087 -0.1706  0.3235
 5930W        W10130   3.799   2.329  11.467 -0.3068 -0.3257  0.2811
 5931W        W10131   5.716   5.442  12.517 -0.1188 -0.1837 -0.3660
 5932W        W10132   8.472   9.180   9.917  0.1945  0.1572 -0.2346
 5933W        W10133  10.089   8.422   1.423  0.1170 -0.0850 -0.1230
 5934W        W10134   0.620   0.068   1.546  0.0317  0.0361 -0.2776
 5935W        W10135   1.308   4.450  12.886  0.0115 -0.1755  0.1183
 5936W        W10136   5.675   2.148  12.501  0.3117 -0.3516  0.0352
 5937W        W10137   2.136   6.785  11.926  0.0412 -0.0459  0.0831
 5938W        W10138   4.976   9.484   8.403 -0.1304 -0.0710  0.1274
 5939W        W10139   2.720   0.880  10.757 -0.0421 -0.0120  0.0541
 5940W        W10140   4.616  10.238   1.860 -0.0136  0.1341 -0.0953
 5941W        W10141  10.198   0.204   1.965  0.0122 -0.0933 -0.0957
 5942W        W10142   2.856   0.968   9.236 -0.2294 -0.1818  0.1138
 5943W        W10143   3.720   8.979   8.434  0.0412  0.3003  0.1647
 5944W        W10144   2.941   5.265  10.490 -0.0702  0.0950 -0.0148
 5945W        W10145   9.194   1.829   3.153  0.1228 -0.0108  0.1401
 5946W        W10146  10.307   8.608  11.846  0.1555 -0.0374 -0.2219
 5947W        W10147   7.992   5.212  10.446  0.0218  0.1196 -0.0667
 5948W        W10148   1.898   6.959   1.104  0.0068  0.0661  0.0878
 5949W        W10149   9.464   8.558   2.603 -0.2328 -0.2075 -0.2096
 5950W        W10150   0.844   5.889   0.604  0.0393 -0.3146 -0.1705
 5951W        W10151   7.139   1.213   0.376 -0.1542 -0.1943  0.0694
 5952W        W10152   6.590   3.591   8.848 -0.0173 -0.3322 -0.2186
 5953W        W10153   7.941   2.705   2.313 -0.2513  0.0441 -0.0988
 5954W        W10154  10.212   1.432   0.549 -0.1739  0.0056  0.1741
 5955W        W10155  10.467  10.158  12.621  0.0045 -0.2384 -0.2243
 5956W        W10156   2.159   8.413  10.358  0.4262  0.1508 -0.1153
 5957W        W10157   9.641   8.964   9.206  0.2384 -0.0910  0.2008
 5958W        W10158   5.960   4.479   3.051  0.1324 -0.1453 -0.1951
 5959W        W10159   3.253   7.894   9.317 -0.1997 -0.1225 -0.2528
 5960W        W10160  10.620   1.107   0.756  0.0202 -0.0743  0.3194
 5961W        W10161   8.804   9.781   1.254 -0.0872 -0.3111  0.1235
 5962W        W10162  10.502   8.894  11.008 -0.2026 -0.2431 -0.1996
 5963W        W10163   0.722   4.643   1.325 -0.0229 -0.1847 -0.2362
 5964W        W10164   8.342   7.850   0.022 -0.0030 -0.0143 -0.0371
 5965W        W10165  10.499   1.094   2.624  0.3549  0.1233 -0.0328
 5966W        W10166   2.207   9.679   2.851 -0.0867  0.0769  0.1643
 5967W        W10167   2.390   9.563  10.420 -0.2591  0.2134 -0.1633
 5968W        W10168   0.566   5.142   3.926  0.0016 -0.0328  0.3316
 5969W        W10169   6.254   3.861  10.808  0.3105 -0.0855  0.2623
 5970W        W10170   0.023   8.091   0.101 -0.1870 -0.1896  0.0664
 5971W        W10171   4.605   8.238  10.148  0.1739  0.0511 -0.1833
 5972W        W10172   7.599   8.628  11.111 -0.0319 -0.1323  0.0050
 5973W        W10173   9.548   0.265  11.813 -0.3696 -0.3712 -0.1708
 5974W        W10174   8.689   9.901   8.885 -0.0383 -0.0415 -0.0799
 5975W        W10175   6.816   8.364  10.955 -0.0985  0.0282  0.0661
 5976W        W10176   5.534   4.964  12.340 -0.0957 -0.0139 -0.0363
 5977W        W10177   4.104  10.099   2.105  0.0451  0.0611  0.0135
 5978W        W10178   4.890   5.610   0.325  0.1418  0.0001 -0.0227
 5979W        W10179   6.696   2.852  10.377 -0.0199 -0.0468  0.1142
 5980W        W10180   5.510   1.413   9.520  0.0929 -0.1096 -0.2167
 5981W        W10181   9.832  10.032   0.614  0.0939 -0.1569  0.1581
 5982W        W10182   1.384   2.337  11.545  0.1118  0.0998  0.0499
 5983W        W10183   0.885  10.160  12.329 -0.0148 -0.0710  0.1007
 5984W        W10184   6.277   2.661   8.697 -0.0108 -0.1667  0.1075
 5985W        W10185   1.117   3.463  10.728  0.0691  0.0633 -0.3169
 5986W        W10186   9.727   7.828   2.237 -0.0178  0.0149  0.0093
 5987W        W10187   2.861   6.345   2.959 -0.3572 -0.0382  0.3595
 5988W        W10188   1.531   8.609   2.348  0.0533 -0.2282 -0.1574
 5989W        W10189   7.020   7.900   0.502 -0.0783  0.2809 -0.2132
 5990W        W10190   4.384   9.821   8.504  0.1262  0.0485  0.2278
 5991W        W10191   5.294   7.801  12.743  0.0692  0.0033 -0.1052
 5992W        W10192   4.712   5.189   1.154 -0.0707 -0.0362  0.3094
 5993W        W10193   5.427   1.407   4.057 -0.0682 -0.0587  0.0268
 5994W        W10194   8.973   5.370   4.311  0.0471 -0.0699 -0.3056
 5995W        W10195   7.249   3.156   1.574 -0.2003  0.0342  0.4168
 5996W        W10196   1.237   0.477   4.004  0.0890 -0.0469 -0.1252
 5997W        W10197   6.940   0.170   4.425 -0.0470 -0.1080 -0.0610
 5998W        W10198   5.875   0.016  12.068 -0.1435  0.3523 -0.0808
 5999W        W10199   6.985   9.312   3.128  0.0654 -0.0045  0.1859
 6000W        W10200   1.757   3.496   1.064 -0.1182  0.1295  0.2525
 6001W        W10201   9.015   6.709  12.185  0.1555  0.0194  0.1151
 6002W        W10202   9.339  10.316   9.653 -0.0999 -0.0493 -0.0511
 6003W        W10203   3.367   8.201   9.737 -0.0836  0.2300 -0.2876
 6004W        W10204  10.543   1.574   0.269 -0.1438 -0.3811  0.0109
 6005W        W10205   7.245   4.030   0.608 -0.0413 -0.0750 -0.0925
 6006W        W10206   7.317   6.718  11.417  0.2179 -0.0482 -0.0130
 6007W        W10207   1.248   3.241   8.530  0.0795 -0.1304 -0.2603
 6008W        W10208   3.697   9.382   3.334  0.0220 -0.2964 -0.2742
 6009W        W10209   6.465   3.345  11.449 -0.1712  0.3811  0.0573
 6010W        W10210   2.758   6.407  10.914 -0.1350  0.0390 -0.3600
 6011W        W10211   9.951   3.624   4.079  0.1237 -0.1848  0.2767
 6012W        W10212   2.296   4.854  12.217  0.0326  0.0080  0.0398
 6013W        W10213   6.260   3.025  10.097 -0.1235  0.0127  0.2851
 6014W        W10214   5.826   9.450  10.362  0.3363 -0.1780  0.2031
 6015W        W10215   8.270   6.857  11.312 -0.0272 -0.3063 -0.0647
 6016W        W10216   7.181   4.952  12.781 -0.0960  0.0458 -0.0120
 6017W        W10217   2.604   5.156   2.630  0.4220 -0.2980  0.0218
 6018W        W10218   5.287   0.344  12.635  0.0554  0.2334  0.3192
 6019W        W10219   3.325   3.076  10.155  0.0522 -0.0513 -0.2636
 6020W        W10220   6.634   8.001   0.824 -0.0761 -0.1415  0.0795
 6021W        W10221   2.725   3.739  12.839 -0.1382 -0.3478 -0.1507
 6022W        W10222   5.889   5.008  11.931  0.2701  0.0061  0.2688
 6023W        W10223   1.382   0.414   2.277  0.0921 -0.0082  0.0257
 6024W        W10224   1.833   4.666  12.909 -0.2447 -0.1344 -0.0772
 6025W        W10225   1.075   8.908  11.501  0.1117 -0.3042  0.0969
 6026W        W10226   7.490   3.992   1.482 -0.2905  0.0533 -0.1292
 6027W        W10227   1.540   6.332   3.477 -0.1170  0.0615  0.1419
 6028W        W10228   3.695   5.225  12.294 -0.1124  0.0651 -0.2564
 6029W        W10229   2.273   6.980   9.198 -0.0119 -0.1557  0.1393
 6030W        W10230   6.737   6.404  11.032 -0.2132 -0.0275  0.0671
 6031W        W10231   7.356   5.543   1.541 -0.0607 -0.0759 -0.0360
 6032W        W10232   5.869   1.753   2.017 -0.0640 -0.0201 -0.2630
 6033W        W10233   9.485   3.765   2.995 -0.1726 -0.0309 -0.0107
 6034W        W10234   9.769   3.292  11.540 -0.0948 -0.0682  0.0703
 6035W        W10235   5.606   0.260   3.385  0.0309 -0.0087 -0.0279
 6036W        W10236   0.611   5.403  10.703 -0.1731 -0.0734 -0.1803
 6037W        W10237   4.412   0.111   7.538 -0.1477 -0.3261 -0.2067
 6038W        W10238   7.527  10.440   8.814  0.1161  0.2104  0.0838
 6039W        W10239   9.633   0.796  10.751  0.1385 -0.0989  0.1398
 6040W        W10240   2.711   8.468   2.449  0.0476  0.1472 -0.0538
 6041W        W10241   2.002   9.758   0.931  0.2076  0.4168  0.2529
 6042W        W10242   1.661   9.519   2.731 -0.1122  0.0860 -0.0440
 6043W        W10243   9.915   7.305   2.872 -0.0276  0.0127 -0.4134
 6044W        W10244   7.895   1.510   9.655 -0.1947 -0.0005  0.1133
 6045W        W10245   5.103   6.280  11.652  0.1005  0.2559  0.0511
 6046W        W10246   1.430   7.927  11.571  0.2664 -0.1252 -0.0110
 6047W        W10247   1.460   1.320   9.030  0.2408  0.1323  0.0754
 6048W        W10248   4.915   9.506   1.645 -0.0700 -0.2422  0.1276
 6049W        W10249   1.296  10.273   3.911 -0.1576 -0.0237 -0.3744
 6050W        W10250   9.204   7.064  10.239  0.0857  0.0375 -0.3299
 6051W        W10251   4.279   1.328   8.276  0.2033 -0.0807  0.0356
 6052W        W10252   9.326   7.356  12.823 -0.1120  0.1315 -0.0106
 6053W        W10253   5.246   7.087   1.693  0.0687  0.2532  0.1253
 6054W        W10254   4.571   8.750   7.670  0.1220  0.3098 -0.3244
 6055W        W10255   3.899   0.059   1.531 -0.1554  0.2072 -0.0931
 6056W        W10256   6.357   0.076  10.556 -0.2868 -0.1239 -0.3578
 6057W        W10257   2.539   3.891  10.674 -0.1680 -0.0522 -0.2581
 6058W        W10258   2.842   2.174   0.736 -0.1767  0.0069 -0.1319
 6059W        W10259   1.834   5.295   3.397  0.2391 -0.2280  0.3299
 6060W        W10260   1.595   2.465   9.836 -0.1567 -0.0127  0.1512
 6061W        W10261   0.959  10.008  11.075  0.0449 -0.4876 -0.2371
 6062W        W10262   5.681   1.699   1.468  0.0559 -0.0424  0.0100
 6063W        W10263   4.659   3.770  12.230 -0.0570 -0.1873  0.1473
 6064W        W10264   6.026   9.624   2.577 -0.1693 -0.2971 -0.4469
 6065W        W10265   8.438   1.715  10.500 -0.2587  0.3297 -0.0001
 6066W        W10266   2.559   5.524   9.173  0.3894 -0.2592  0.2706
 6067W        W10267   2.335   5.460   9.623  0.3170  0.0464 -0.0519
 6068W        W10268   3.117   7.835  11.662  0.1851  0.1210 -0.1997
 6069W        W10269   6.256   0.791   8.090  0.0279  0.1216 -0.0625
 6070W        W10270   5.199   0.909   0.939  0.0708  0.0720  0.1991
 6071W        W10271  10.570   2.207   0.114 -0.2232  0.1137  0.3226
 6072W        W10272   2.777   1.065   1.434  0.0440 -0.1807 -0.1395
 6073W        W10273   9.324   6.422   1.066 -0.2496  0.1752  0.1953
 6074W        W10274   7.081   9.823   9.770 -0.0424 -0.1443 -0.1815
 6075W        W10275   4.953   3.937   1.174 -0.0192 -0.2012 -0.1919
 6076W        W10276   7.895   2.340  12.630  0.1772 -0.0809  0.0340
 6077W        W10277   9.544   4.312   2.916 -0.0583  0.1142 -0.1823
 6078W        W10278   4.788   6.165   1.177  0.1046 -0.0493  0.2102
 6079W        W10279   8.015   2.374   1.266  0.1055 -0.0953 -0.1575
 6080W        W10280   6.067   9.310  10.910  0.1360  0.1074  0.1888
 6081W        W10281   3.485   1.861  11.820 -0.0576  0.0257 -0.1825
 6082W        W10282   7.405   9.952   3.845 -0.1095 -0.2086 -0.2485
 6083W        W10283   4.658   9.137   8.658 -0.0876 -0.1743  0.2569
 6084W        W10284   9.676  10.630   1.800  0.0917 -0.4306 -0.4623
 6085W        W10285   5.829   9.480   3.692  0.0956 -0.1528  0.1032
 6086W        W10286   2.187   1.934   1.427 -0.1906  0.1493 -0.4186
 6087W        W10287   6.556   2.514   2.083 -0.2703  0.1483  0.2131
 6088W        W10288   0.497   9.511   1.016 -0.1373 -0.0130 -0.1851
 6089W        W10289   6.335   9.148   1.934 -0.1263  0.1293 -0.1953
 6090W        W10290   9.857   7.322   9.695  0.3400  0.0335 -0.2967
 6091W        W10291   3.171   8.474   2.552 -0.3681 -0.2438 -0.1029
 6092W        W10292   9.043   0.189   9.343 -0.1363 -0.0742  0.3299
 6093W        W10293   7.553   6.460   0.369 -0.2863 -0.0020 -0.0701
 6094W        W10294   7.429   3.348   1.138  0.0417  0.1196 -0.3783
 6095W        W10295   0.972   2.791   8.618  0.0750  0.2444 -0.1656
 6096W        W10296  10.596   2.849   2.909  0.0321 -0.0854 -0.2234
 6097W        W10297   5.761   9.976   1.660  0.1812 -0.0967 -0.0299
 6098W        W10298   4.572   2.653   0.765 -0.2013 -0.2293 -0.0396
 6099W        W10299   0.891  10.641  12.042  0.0892 -0.1678  0.0805
 6100W        W10300   2.287   0.944   3.265 -0.1691  0.1921 -0.1397
 6101W        W10301   4.069  10.407   8.976 -0.1885 -0.1149 -0.0529
 6102W        W10302   9.337   6.464   9.630  0.1676  0.0618 -0.0846
 6103W        W10303   8.094   0.541  12.657 -0.3016  0.2025 -0.3033
 6104W        W10304   8.356   3.474   3.156  0.0288 -0.3721 -0.2164
 6105W        W10305   8.189   8.550   9.528  0.1948  0.0229  0.0099
 6106W        W10306   5.087   1.865  12.040  0.1484 -0.2070  0.0818
 6107W        W10307   2.439   0.954  11.867  0.1849 -0.1431 -0.1663
 6108W        W10308   3.538  10.617   7.551  0.3118  0.4894 -0.0421
 6109W        W10309   8.959   2.676  11.785  0.0433  0.2344  0.1271
 6110W        W10310   9.411   4.082   2.451  0.1140 -0.1383 -0.0506
 6111W        W10311   9.263   6.189  11.378  0.2601 -0.2162  0.1479
 6112W        W10312   6.583   6.998   1.616  0.0506 -0.3112  0.2509
 6113W        W10313   4.395   5.881  12.597  0.0849  0.1544 -0.0633
 6114W        W10314   1.424   0.715   9.492  0.1273 -0.0427  0.0188
 6115W        W10315   7.371   7.819  12.009  0.1900  0.0519  0.0191
 6116W        W10316   8.153   1.967  11.560  0.1811 -0.1774 -0.1048
 6117W        W10317   9.877   3.156   9.220  0.3592  0.2146  0.0831
 6118W        W10318   6.869   5.315  11.935  0.0320 -0.1945 -0.2772
 6119W        W10319   8.927   5.807   2.344  0.1830 -0.1531  0.1728
 6120W        W10320   7.470   9.233   3.286 -0.0077 -0.1546  0.1716
 6121W        W10321   3.149   8.684   0.967 -0.0539  0.1797 -0.0947
 6122W        W10322   4.425  10.226   2.426 -0.0749  0.0387  0.3328
 6123W        W10323  10.114   4.974  10.859  0.0684  0.1099 -0.0196
 6124W        W10324  10.154   1.785   9.033  0.0081 -0.0657 -0.1284
 6125W        W10325   0.072   8.808   3.507  0.5108 -0.1671 -0.2362
 6126W        W10326   4.140  10.490  12.796  0.2211  0.2124  0.0428
 6127W        W10327   5.932   2.086   9.292  0.0253 -0.1981  0.5487
 6128W        W10328   1.723   0.577   1.047  0.2357  0.1635  0.1819
 6129W        W10329  10.411   1.511   2.275  0.1212  0.2094  0.0453
 6130W        W10330   8.380   5.992  11.956  0.0588 -0.2486 -0.0150
 6131W        W10331   1.646   0.214   1.927  0.1143 -0.1738  0.4434
 6132W        W10332   7.129   9.197   9.170  0.0283  0.1353  0.1544
 6133W        W10333   1.184   0.887   1.209  0.2044  0.1072 -0.1325
 6134W        W10334   0.268  10.188  10.166 -0.1232 -0.1917  0.3654
 6135W        W10335   7.813   7.906  11.053 -0.4826 -0.0035 -0.4516
 6136W        W10336   8.532   3.429  12.095  0.0560 -0.3202  0.0222
 6137W        W10337  10.070   2.146  10.788  0.0576 -0.0562  0.0135
 6138W        W10338   0.123   5.182  10.771  0.0684  0.0115  0.0120
 6139W        W10339   4.235   9.349   3.066  0.0031 -0.1258  0.3906
 6140W        W10340   4.437   7.720  10.269  0.4438 -0.2077 -0.0617
 6141W        W10341   6.816   4.193   0.335 -0.0826  0.1731  0.0102
 6142W        W10342   3.701   9.467   9.861  0.0896  0.1862 -0.1403
 6143W        W10343   9.572   8.551   7.816 -0.1149  0.0238  0.4178
 6144W        W10344   0.090   1.575   2.773 -0.0551 -0.0453 -0.3493
 6145W        W10345   2.583   7.090  11.515  0.5650 -0.2564  0.2182
 6146W        W10346   5.880   2.250   2.772  0.1716 -0.0241  0.1147
 6147W        W10347   2.978   6.334  11.766  0.1223  0.0125  0.1685
 6148W        W10348   8.289   6.469   2.414  0.0929 -0.1663 -0.0059
 6149W        W10349   7.770   3.204   0.128  0.2953  0.0291  0.0631
 6150W        W10350   2.750   3.613  11.449  0.0091 -0.0614 -0.0002
 6151W        W10351   4.014   8.587   9.110 -0.0044 -0.3130  0.1879
 6152W        W10352   6.590   1.362   9.122  0.1771  0.0136 -0.0713
 6153W        W10353  10.111   5.341   9.097  0.3096 -0.2644 -0.0935
 6154W        W10354   5.245   7.492   9.851  0.0727 -0.0640 -0.1729
 6155W        W10355   2.656   2.180  11.781  0.2313 -0.0676  0.2935
 6156W        W10356   5.008   1.359  11.180 -0.0058 -0.0632  0.2836
 6157W        W10357   8.791   3.126  10.059  0.0887 -0.0267 -0.1814
 6158W        W10358   9.419   2.263   3.064 -0.2805  0.2948 -0.1929
 6159W        W10359   9.625   6.262   3.222  0.2408  0.3106 -0.1269
 6160W        W10360   9.120   3.193   3.700  0.0201 -0.3559  0.4221
 6161W        W10361   6.649   0.078   8.713  0.1816 -0.1281 -0.0149
 6162W        W10362   6.649   6.016   2.035  0.0216  0.1115 -0.0153
 6163W        W10363   5.759   1.616  12.679 -0.1122  0.1353  0.2229
 6164W        W10364   6.684   8.553   9.608 -0.1443 -0.0849  0.0559
 6165W        W10365   1.021   4.569  12.133  0.1487  0.1686 -0.1529
 6166W        W10366   1.504   9.321   9.622  0.2110  0.0238  0.0592
 6167W        W10367   7.862   3.601   1.774 -0.0197  0.1063  0.0248
 6168W        W10368   2.652   9.842   8.495 -0.0705  0.1007  0.2464
 6169W        W10369  10.531   8.096   9.611  0.2690  0.0981  0.1804
 6170W        W10370   6.483   4.618   0.231  0.0450 -0.0198  0.3553
 6171W        W10371   8.642   8.263   0.161  0.0411 -0.1301  0.2059
 6172W        W10372   0.277   1.474   0.020  0.0652  0.1974  0.0500
 6173W        W10373   1.576   2.308  12.191 -0.3271 -0.3201 -0.1682
 6174W        W10374   0.561   6.011   1.013  0.1046 -0.1680  0.0593
 6175W        W10375   0.912  10.306   1.443 -0.0165  0.0336 -0.0832
 6176W        W10376   9.587   9.806   3.191  0.0784 -0.0759  0.0919
 6177W        W10377   0.266   0.611  12.067  0.0042  0.0258  0.1842
 6178W        W10378   0.498   2.092   3.361 -0.1635 -0.1002  0.3894
 6179W        W10379   2.675   0.094  12.599 -0.3680  0.0606 -0.0314
 6180W        W10380   9.042   9.920   1.637 -0.2785 -0.0549 -0.0188
 6181W        W10381   4.992   7.647  10.435  0.3161 -0.0512  0.0634
 6182W        W10382   0.564   5.725  10.282  0.2578  0.0068  0.4090
 6183W        W10383   4.116   7.762   8.342 -0.1435 -0.1916  0.0524
 6184W        W10384   2.267   3.349   3.167  0.1895 -0.2853 -0.2859
 6185W        W10385   2.999   3.021   0.814 -0.3556 -0.1387 -0.0577
 6186W        W10386   6.859   1.625  12.177 -0.1663  0.1734  0.1729
 6187W        W10387   7.325   3.341  10.837  0.3096  0.0083  0.3985
 6188W        W10388   6.175   2.520   0.484 -0.1124  0.1401 -0.2969
 6189W        W10389   1.111   0.692   2.584  0.0060 -0.1322  0.2502
 6190W        W10390   9.018   2.319   0.724  0.0022 -0.4274 -0.1601
 6191W        W10391   3.604   9.142  12.227 -0.1826  0.2052  0.0705
 6192W        W10392  10.202  10.237   2.783  0.0084 -0.0027  0.0164
 6193W        W10393   0.721   2.845   2.513 -0.0885 -0.0677  0.1990
 6194W        W10394   1.561   4.642   0.975 -0.4264 -0.2857 -0.1439
 6195W        W10395   8.856   2.394  12.716 -0.1357 -0.0532  0.0256
 6196W        W10396   6.511   6.869   2.101  0.0007 -0.2629 -0.0356
 6197W        W10397   3.232   5.335  10.978  0.0670  0.1320 -0.0136
 6198W        W10398   3.794   9.277  10.331 -0.0343  0.1201  0.0160
 6199W        W10399   8.518   9.238   9.406  0.2272 -0.1862  0.0461
 6200W        W10400   1.379   6.839   0.003  0.2007 -0.1149 -0.2575
 6201W        W10401   9.669   1.429   0.751  0.1698  0.0973  0.0586
 6202W        W10402   0.598   4.899   0.903 -0.0649  0.2183 -0.3222
 6203W        W10403   4.129   8.782  12.329  0.1863  0.3314  0.1220
 6204W        W10404   1.420   3.388  10.232 -0.0386 -0.2150  0.0359
 6205W        W10405   1.625   4.469   9.515  0.1749 -0.0853 -0.1756
 6206W        W10406   3.453   6.999  12.284 -0.3700 -0.2471  0.2373
 6207W        W10407  10.615   7.221  10.834  0.1942  0.3074  0.1168
 6208W        W10408   6.570   0.981  12.569  0.0566  0.1236  0.1220
 6209W        W10409   2.802   3.775   2.724 -0.0895  0.0163  0.0049
 6210W        W10410   7.263   1.083   3.687 -0.1391 -0.1560  0.0097
 6211W        W10411   6.182   2.409  11.466  0.1298  0.0112 -0.1011
 6212W        W10412   8.426   1.297   3.207  0.0535 -0.2305  0.0246
 6213W        W10413   1.632   6.983   0.423 -0.1881 -0.2118 -0.0871
 6214W        W10414   8.590   6.301   0.438  0.1742  0.1248  0.2425
 6215W        W10415   3.779   5.383   9.945  0.0932  0.2106 -0.0763
 6216W        W10416   3.774   7.902   4.187 -0.1926  0.0364 -0.0276
 6217W        W10417   6.996   5.732   0.641 -0.1998  0.1918  0.0896
 6218W        W10418   2.011   7.338   9.500  0.0042  0.3075 -0.0774
 6219W        W10419   0.390   0.379  11.181  0.5839 -0.1143 -0.0107
 6220W        W10420   0.078   9.480   3.961 -0.0523 -0.1705  0.0638
 6221W        W10421   3.385   1.213  12.602  0.2531  0.0054 -0.0176
 6222W        W10422   0.947   9.566  11.239 -0.1063 -0.0354 -0.4207
 6223W        W10423   7.674   1.255  11.140 -0.1756  0.1638  0.0258
 6224W        W10424   3.746   6.964   4.501 -0.2486  0.2030  0.1629
 6225W        W10425   8.084   8.206  10.227  0.0321 -0.3256  0.3401
 6226W        W10426   4.297  10.340   8.459 -0.0049  0.5040  0.2862
 6227W        W10427   5.136   8.015   3.689  0.1612  0.0960 -0.1157
 6228W        W10428   5.394   0.984  11.416  0.1467 -0.0401 -0.2215
 6229W        W10429   4.768   5.057   1.665 -0.0115 -0.1533  0.1652
 6230W        W10430   9.579   9.050   9.737 -0.3457 -0.0186 -0.0550
 6231W        W10431   5.962   2.135   7.417  0.0580  0.0897  0.1456
 6232W        W10432   0.923   7.610   1.762  0.0080  0.0384 -0.0603
 6233W        W10433   8.844  10.663   0.639 -0.2501 -0.1083 -0.0141
 6234W        W10434   6.672   7.020  12.383 -0.0759 -0.3683  0.2230
 6235W        W10435   0.282   6.693  10.157 -0.2240 -0.3520  0.0299
 6236W        W10436   7.308   2.397   3.677  0.1842  0.0966 -0.2161
 6237W        W10437   7.632   5.003   9.698  0.0721 -0.0813 -0.1705
 6238W        W10438   3.234   5.278   3.798 -0.0632 -0.0006  0.0396
 6239W        W10439   3.908   0.666   9.048 -0.2426 -0.0024 -0.1851
 6240W        W10440   4.077   5.818   3.301  0.1485  0.1038  0.1480
 6241W        W10441   8.463   1.570   9.156  0.2351  0.0053 -0.0182
 6242W        W10442   2.920   7.875  12.299 -0.0754  0.4792 -0.3382
 6243W        W10443   0.329   0.077   1.129  0.0883 -0.1079  0.1360
 6244W        W10444   0.818   6.455  12.809 -0.1792  0.1555  0.1321
 6245W        W10445   5.257  10.090   7.478  0.2070 -0.3899 -0.2804
 6246W        W10446   0.826   1.782  11.128 -0.0137 -0.3190 -0.0518
 6247W        W10447   8.045   0.005   3.450  0.1910 -0.2756  0.0541
 6248W        W10448   4.789   7.075   3.534  0.1331 -0.0250  0.1994
 6249W        W10449   3.768   3.602   2.439  0.0443 -0.1949  0.0319
 6250W        W10450   9.892   0.898   2.837  0.0679 -0.1447 -0.1337
 6251W        W10451   9.098  10.253   0.138 -0.1969 -0.1398 -0.0267
 6252W        W10452   1.489   7.307  11.225 -0.0071  0.0266  0.0998
 6253W        W10453   8.588   0.961   4.611 -0.0612 -0.1336  0.0958
 6254W        W10454   0.365   1.401  10.420 -0.2004 -0.2155 -0.0544
 6255W        W10455   7.671   8.746   3.293  0.2876  0.2436 -0.0910
 6256W        W10456   8.170   8.001   9.464  0.0908 -0.0007 -0.0949
 6257W        W10457   3.424   0.883   9.155 -0.2692  0.0980  0.1990
 6258W        W10458   1.713   5.467  12.626 -0.1064  0.0646  0.0517
 6259W        W10459  10.092   7.651   2.566 -0.0127 -0.1741 -0.3316
 6260W        W10460   5.599   9.799  12.834 -0.0283  0.0950  0.2561
 6261W        W10461   1.956   2.564   2.174 -0.1164 -0.0134  0.0579
 6262W        W10462   7.051   8.426   0.376 -0.3380 -0.0006 -0.0307
 6263W        W10463   8.266   6.790  12.826  0.2479  0.0100 -0.0474
 6264W        W10464   3.689  10.109   3.204  0.1062 -0.2041  0.0092
 6265W        W10465   9.707   5.234  12.791 -0.1381  0.0364 -0.0278
 6266W        W10466   3.994   8.110   7.956 -0.0654 -0.2764 -0.0738
 6267W        W10467   7.785   9.546  10.893  0.5273  0.0805  0.0224
 6268W        W10468   2.439   8.015   0.273 -0.0677 -0.0777  0.0439
 6269W        W10469   5.086   3.225  12.853  0.0632  0.0521 -0.0623
 6270W        W10470   2.768   4.572   2.745 -0.1037  0.3547 -0.1183
 6271W        W10471   5.167  10.358  10.673  0.4208  0.1044  0.1567
 6272W        W10472   1.972   8.950  10.471  0.1160  0.1874  0.1587
 6273W        W10473   2.522   5.449   2.139  0.1722 -0.0811 -0.1664
 6274W        W10474   6.411   2.615   3.841 -0.0855 -0.0304 -0.3854
 6275W        W10475   6.891   3.490   4.068  0.0777 -0.0015 -0.2103
 6276W        W10476   4.546   6.808  12.709  0.0511 -0.0747  0.0236
 6277W        W10477  10.080   8.051   0.045  0.5047 -0.0252 -0.0304
 6278W        W10478   6.717   7.501   2.747 -0.1782 -0.0203 -0.0646
 6279W        W10479   1.315   6.685   2.731 -0.2914  0.4652 -0.0917
 6280W        W10480   1.650   9.609   2.248 -0.0201 -0.0824 -0.2142
 6281W        W10481   0.939   1.227  12.282 -0.1185 -0.3714  0.0033
 6282W        W10482   3.147   5.638   3.464 -0.0131  0.2043  0.2840
 6283W        W10483  10.417   0.796   3.004 -0.2562  0.1180  0.3343
 6284W        W10484   8.840   6.317   2.295  0.1414 -0.3356 -0.1646
 6285W        W10485   2.808   6.054  10.606 -0.0416 -0.1066  0.0075
 6286W        W10486   6.343   1.941   0.797 -0.0071 -0.0348  0.0656
 6287W        W10487   6.977   1.027  12.269 -0.2208  0.1697 -0.1703
 6288W        W10488   8.921   0.430   2.276  0.1797 -0.0071 -0.1682
 6289W        W10489  10.456   2.224  12.575 -0.2562  0.2456  0.1019
 6290W        W10490   5.093   8.997  12.125  0.1230 -0.5193  0.2185
 6291W        W10491   2.132  10.501  10.336 -0.0271 -0.0663 -0.2502
 6292W        W10492   3.709   4.902   0.196 -0.2297  0.4848 -0.0107
 6293W        W10493   4.241  10.243   0.275  0.0795  0.0916 -0.0410
 6294W        W10494   7.222   1.677   0.089  0.1092 -0.0851  0.2457
 6295W        W10495   4.242   2.586  10.175  0.0434 -0.2355  0.0756
 6296W        W10496   4.816   0.874   7.937 -0.0367 -0.2632  0.0312
 6297W        W10497   3.355   9.122  10.061  0.2235 -0.0148 -0.1672
 6298W        W10498   0.287   8.417   9.599 -0.1685 -0.0138 -0.0376
 6299W        W10499   1.338  10.403   3.396 -0.1406 -0.3838 -0.2433
 6300W        W10500   8.349   1.784   3.433  0.1202 -0.0344 -0.0481
 6301W        W10501   8.592   4.715   1.942 -0.1560 -0.0748  0.4223
 6302W        W10502   8.453   5.293  11.341 -0.2393  0.2093 -0.0606
 6303W        W10503   8.231   5.970  12.437  0.0665  0.4508 -0.1002
 6304W        W10504   4.957  10.421   1.374  0.1853 -0.1193  0.0877
 6305W        W10505   7.163   1.303   8.219 -0.0101 -0.3920 -0.2566
 6306W        W10506   4.358   2.031   3.300 -0.0257  0.1528 -0.1365
 6307W        W10507   7.698   9.505  12.691 -0.0790  0.0449  0.1925
 6308W        W10508   0.560   7.143  10.820 -0.0596 -0.3517  0.0400
 6309W        W10509   1.772   7.148  11.594 -0.5202  0.1209  0.2383
 6310W        W10510  10.033   7.920   1.514 -0.0687  0.1891  0.1430
 6311W        W10511   7.488   8.566   1.669  0.2723  0.1892  0.2949
 6312W        W10512  10.279   6.420  12.285 -0.0768 -0.0299 -0.0338
 6313W        W10513   4.665   7.820   1.355 -0.3102  0.4566  0.1892
 6314W        W10514   5.523   9.681   9.891 -0.3215 -0.4062 -0.1260
 6315W        W10515   4.141   6.537  10.764 -0.0509 -0.0525 -0.2392
 6316W        W10516   9.412   9.535   3.676  0.1101  0.2237  0.2162
 6317W        W10517   3.364   7.552  11.183 -0.2855  0.2173  0.0358
 6318W        W10518   5.283   6.593  12.323  0.0237 -0.0206 -0.0484
 6319W        W10519   9.792   8.920   0.772 -0.0174 -0.1268  0.2214
 6320W        W10520   1.680   8.806   8.990 -0.1799 -0.0352 -0.3848
 6321W        W10521   8.641   1.194   0.056  0.0463  0.0405  0.2348
 6322W        W10522   7.725   2.596   1.709  0.0892 -0.1826  0.1713
 6323W        W10523   2.210  10.123   3.535 -0.0170 -0.0839 -0.3314
 6324W        W10524   3.781   3.825  10.491  0.1500 -0.3236 -0.3285
 6325W        W10525   6.438   8.687  12.885 -0.2328 -0.2157 -0.3103
 6326W        W10526  10.539   5.936  10.188  0.1113  0.1499 -0.2202
 6327W        W10527   3.094   2.835  12.485  0.0203 -0.1122  0.0627
 6328W        W10528   7.208   5.450  11.007 -0.0780 -0.0503  0.0756
 6329W        W10529   2.115   7.303   2.351 -0.2220  0.1112 -0.0779
 6330W        W10530   0.542   7.484  12.623  0.3201  0.2895 -0.1026
 6331W        W10531   3.933   0.343   0.537 -0.1800  0.0456  0.0223
 6332W        W10532   6.239   6.396  10.749  0.0501 -0.0045  0.0468
 6333W        W10533   9.588   3.615   2.455 -0.1645  0.0527 -0.2580
 6334W        W10534   7.769   9.046   7.619  0.2120  0.1422 -0.2810
 6335W        W10535   1.605   2.840  11.963  0.0256  0.0845  0.2778
 6336W        W10536   6.571   5.864   8.592 -0.1102  0.1067  0.1201
 6337W        W10537   5.313   4.280   9.008  0.0871  0.3468  0.0159
 6338W        W10538   7.524   2.403   9.082  0.0632  0.0873 -0.2067
 6339W        W10539  10.210   4.448   9.259 -0.2884  0.1088  0.4011
 6340W        W10540   4.499   7.336   0.662  0.0833  0.0276  0.0619
 6341W        W10541   6.741   0.269   3.116 -0.1622 -0.1196  0.0338
 6342W        W10542   9.325   1.729  10.989 -0.1605 -0.0711  0.1301
 6343W        W10543   3.071   2.182  12.211 -0.0355 -0.2132 -0.1266
 6344W        W10544   1.944   4.193   2.683  0.2529  0.2399 -0.0781
 6345W        W10545   0.527   8.405   2.102 -0.1266  0.0303 -0.1926
 6346W        W10546   3.795   0.840   0.895  0.4742  0.2373 -0.0367
 6347W        W10547   9.615   2.584  11.858 -0.0162  0.1472 -0.1645
 6348W        W10548   7.498   7.249   3.134  0.0266  0.2500 -0.0050
 6349W        W10549   9.767   5.747   9.555  0.0013  0.2154 -0.2218
 6350W        W10550  10.084   4.351   1.238 -0.0097  0.2618 -0.0011
 6351W        W10551   7.998  10.303   2.973 -0.0171  0.4233 -0.1330
 6352W        W10552   0.078   0.456   9.880  0.1896 -0.0679 -0.4314
 6353W        W10553   8.057   1.236  11.994  0.1612 -0.2033  0.0282
 6354W        W10554   2.757   1.069   2.776  0.2022 -0.2111  0.0012
 6355W        W10555   2.987   0.254  11.443  0.0811  0.0685 -0.3269
 6356W        W10556   5.525   1.177  12.517 -0.0368  0.0344 -0.0630
 6357W        W10557   8.489   0.504   1.018 -0.1589  0.0145 -0.0797
 6358W        W10558   0.957   6.102  11.317 -0.2379  0.2023 -0.1722
 6359W        W10559   0.878   9.142   0.404  0.0578  0.1183  0.0621
 6360W        W10560   3.524  10.509   0.115 -0.0621  0.0286 -0.0011
 6361W        W10561   1.750  10.405   0.546 -0.3325 -0.3166  0.0688
 6362W        W10562   4.855  10.589   0.877  0.0507  0.3464  0.3424
 6363W        W10563   1.204   7.581   1.217 -0.1007  0.2063 -0.2578
 6364W        W10564   0.299   5.114   2.842  0.2979  0.0743 -0.0395
 6365W        W10565   3.443   3.625   2.022 -0.2755  0.1316  0.0633
 6366W        W10566   9.356   4.052   0.315  0.0244 -0.2503  0.0778
 6367W        W10567   9.816   3.891   4.967  0.0129 -0.3169 -0.1365
 6368W        W10568  10.317   4.370   4.452 -0.0532 -0.2193 -0.0661
 6369W        W10569   9.549   0.474   3.468 -0.1447 -0.0315 -0.0443
 6370W        W10570   3.700   4.398  11.132  0.1293  0.0614 -0.1109
 6371W        W10571   7.405   5.249   2.002  0.3658 -0.2470  0.1131
 6372W        W10572   8.087   8.772   2.998  0.2490 -0.2070 -0.0765
 6373W        W10573   6.025   2.875   4.384  0.0624 -0.1947  0.2425
 6374W        W10574   8.765   3.498   4.219 -0.0297  0.0796  0.1833
 6375W        W10575   5.617   6.288   3.416  0.0671 -0.5084  0.2526
 6376W        W10576   0.030   6.128  12.280 -0.0017 -0.0367 -0.3434
 6377W        W10577   9.702   3.069   3.485 -0.0322 -0.0692 -0.1772
 6378W        W10578   0.031   8.797   2.920 -0.1360  0.0191  0.1367
 6379W        W10579   4.821   1.239   1.177  0.0685  0.1528 -0.0159
 6380W        W10580   7.864   4.746   1.143 -0.3493 -0.1323  0.1225
 6381W        W10581   8.128   4.903  11.877 -0.0971  0.1430  0.2494
 6382W        W10582   9.400   3.592   4.059 -0.0273  0.1512 -0.0967
 6383W        W10583   9.912   0.599   0.113  0.1437 -0.1459 -0.0146
 6384W        W10584   7.177   6.333   7.941  0.2756  0.1324  0.0971
 6385W        W10585   2.228   7.814   9.246  0.2430 -0.1627 -0.3267
 6386W        W10586   3.710   3.887   2.945  0.4506 -0.1370 -0.0715
 6387W        W10587  10.189   7.533  10.959  0.0226  0.0237  0.3455
 6388W        W10588   5.802   4.387   1.553 -0.0740  0.0902  0.1146
 6389W        W10589   7.132   8.527  11.374 -0.0305  0.2935  0.1409
 6390W        W10590   1.478   5.245   1.559 -0.2942  0.2514 -0.1100
 6391W        W10591   3.677   3.645  11.959  0.0181 -0.1436 -0.0571
 6392W        W10592   4.879   0.753  12.880 -0.2430 -0.0377  0.1745
 6393W        W10593  10.555   1.961   9.898 -0.0442  0.1350 -0.0057
 6394W        W10594   3.110   1.312   7.383 -0.0294  0.2070  0.3874
 6395W        W10595  10.505   9.505   7.666 -0.2304 -0.0948 -0.0338
 6396W        W10596   5.034   2.173   0.018  0.1337  0.0002 -0.2729
 6397W        W10597   1.295   2.954   4.024  0.1926 -0.0349  0.0618
 6398W        W10598   8.229   2.860   2.774 -0.1293  0.2384  0.0646
 6399W        W10599   3.499   4.869   0.697  0.3820  0.0199  0.0289
 6400W        W10600   7.329   8.979   0.277 -0.1679 -0.0271 -0.0330
 6401W        W10601   7.790   5.445   9.904 -0.1847  0.3397  0.1421
 6402W        W10602   0.725  10.352   1.942  0.0471  0.0363  0.1797
 6403W        W10603   7.225   4.282   3.518 -0.1123  0.1206  0.2796
 6404W        W10604   1.694   4.514   6.371 -0.1949 -0.0320 -0.0224
 6405W        W10605   5.041   9.737  10.209  0.3818  0.0167  0.1218
 6406W        W10606   1.100   7.787   8.613  0.1427  0.0135 -0.3487
 6407W        W10607   8.597   5.027   9.791  0.0305  0.1664 -0.1774
 6408W        W10608   9.704   3.028  12.051 -0.1072  0.2882 -0.3307
 6409W        W10609   0.429   3.302  11.718  0.0312  0.1364 -0.1871
 6410W        W10610   9.040   1.000   0.337 -0.3208 -0.1471 -0.0298
 6411W        W10611   9.443   0.643   8.512  0.1111  0.2106  0.2829
 6412W        W10612   8.245   2.124  10.057 -0.2670  0.0416 -0.2559
 6413W        W10613   7.825   5.671   1.754 -0.0297 -0.2672  0.0379
 6414W        W10614   3.157   0.579   4.354  0.0151 -0.1431  0.1760
 6415W        W10615   2.384   9.092   3.312 -0.0713  0.3502  0.3406
 6416W        W10616   6.230   7.958   0.556 -0.0790 -0.1492 -0.1790
 6417W        W10617  10.120  10.697  12.381  0.1166 -0.2813  0.2038
 6418W        W10618   8.035   0.793  10.160  0.1530 -0.0400  0.0359
 6419W        W10619   3.873   0.098   0.985  0.0413 -0.1302 -0.1030
 6420W        W10620   1.962   7.316   0.649 -0.0571 -0.0666  0.1982
 6421W        W10621   2.636   9.384   0.355 -0.1105 -0.0003 -0.0436
 6422W        W10622   0.785   6.325   1.827  0.1731 -0.1977 -0.0393
 6423W        W10623   0.301   1.854   0.355  0.4362 -0.1918  0.0399
 6424W        W10624   4.215   5.140   0.933  0.1233  0.0334  0.0679
 6425W        W10625   9.044   7.786  10.149  0.4057 -0.0367 -0.1126
 6426W        W10626   2.790   1.732   9.185 -0.2276 -0.0863 -0.1025
 6427W        W10627   8.497   9.748   9.305 -0.3006 -0.2176 -0.0327
 6428W        W10628   9.024   9.465  12.894 -0.1129 -0.1419  0.1183
 6429W        W10629   4.892  10.133   2.237  0.3084 -0.0027 -0.0031
 6430W        W10630   1.602   2.836   1.057  0.0225 -0.0373 -0.0765
 6431W        W10631   1.883   9.153  12.181  0.4207  0.0361  0.0771
 6432W        W10632   1.295   4.265  11.826  0.4022 -0.1111 -0.1359
 6433W        W10633   8.341   2.921  11.887 -0.0964 -0.1460  0.0019
 6434W        W10634   8.084   4.133  10.522  0.0058  0.1192  0.4124
 6435W        W10635   2.025   4.228   2.178  0.0379 -0.0347 -0.0715
 6436W        W10636   3.293   0.947   3.216  0.1395 -0.0361  0.1192
 6437W        W10637  10.348   2.599   9.130  0.1507  0.0482  0.1085
 6438W        W10638   9.892   5.112  11.348  0.0821 -0.2110 -0.0267
 6439W        W10639   8.185   6.329  10.640 -0.0188  0.0468 -0.3031
 6440W        W10640   8.023   4.084  12.005 -0.1415 -0.2124  0.0365
 6441W        W10641   0.146   8.913   8.485  0.1653 -0.3416  0.1589
 6442W        W10642   4.617   6.420   0.107 -0.0229 -0.2891  0.1189
 6443W        W10643   6.218   0.425   8.911 -0.0464 -0.1582 -0.1812
 6444W        W10644   7.121  10.277   1.644  0.2707  0.0856 -0.1125
 6445W        W10645   1.539   7.899   8.423 -0.0283 -0.2158 -0.2129
 6446W        W10646   2.466   5.461   1.624 -0.1933 -0.1191 -0.0770
 6447W        W10647   4.751   1.584   8.541 -0.0987  0.0550  0.1169
 6448W        W10648   6.976   2.614  11.794  0.1613  0.1313 -0.1159
 6449W        W10649   4.798   3.859  10.121 -0.1629  0.0163 -0.1940
 6450W        W10650   8.810   4.900   2.807 -0.0634 -0.4657 -0.1188
 6451W        W10651   6.593   8.256   8.561  0.2092  0.1966 -0.1718
 6452W        W10652   5.735   3.949   0.861  0.1458 -0.4058 -0.1308
 6453W        W10653   0.234   1.984  12.723  0.2315  0.0325  0.1349
 6454W        W10654   6.446   9.446  12.424  0.0452 -0.1208 -0.0206
 6455W        W10655   7.045   3.663   2.268  0.3861 -0.2104 -0.2609
 6456W        W10656   4.890   4.754  10.534 -0.0115 -0.1029  0.2586
 6457W        W10657   5.065   8.106  12.174  0.2988 -0.0601  0.0550
 6458W        W10658   8.498   0.330   0.448 -0.2406  0.1134  0.1233
 6459W        W10659   7.319   4.282   8.680 -0.1393 -0.1339 -0.0349
 6460W        W10660   6.207   3.453  10.402 -0.2124  0.0636 -0.3291
 6461W        W10661   3.394   7.366   1.145 -0.0151 -0.4206  0.1202
 6462W        W10662   7.648   5.320   0.065  0.0359  0.3365  0.3186
 6463W        W10663   4.304   0.675  11.584  0.0235  0.2675 -0.0476
 6464W        W10664   8.751   9.332   1.600 -0.2191 -0.1700  0.2566
 6465W        W10665   5.604   6.396   2.361  0.3301  0.2940  0.1281
 6466W        W10666   0.542   1.150   9.467 -0.1533 -0.1012  0.3632
 6467W        W10667   7.197   5.534   2.785  0.1599 -0.0724  0.0021
 6468W        W10668   7.513   6.002   2.506 -0.2651  0.3049 -0.0127
 6469W        W10669   4.150   9.280  12.554  0.0739 -0.2201 -0.1026
 6470W        W10670  10.309   6.912  12.264 -0.0291  0.0007  0.0666
 6471W        W10671   7.231   7.865   8.995  0.0220 -0.0975 -0.0896
 6472W        W10672   3.811   7.503  10.821 -0.0801  0.0573  0.1159
 6473W        W10673   5.198   0.803  12.329 -0.1376 -0.2378 -0.2291
 6474W        W10674   2.724   6.076  11.438 -0.1477  0.1714  0.1628
 6475W        W10675   7.670   9.561   8.787 -0.0249 -0.1089  0.1661
 6476W        W10676   2.086   6.837  11.440 -0.1336 -0.0325  0.4012
 6477W        W10677   8.273   7.733   2.990 -0.0447 -0.2027 -0.2255
 6478W        W10678   8.610   8.743   2.824 -0.1169  0.1307  0.0412
 6479W        W10679   5.631   4.641   0.159 -0.3331  0.0958 -0.1102
 6480W        W10680   4.775   6.061   2.413 -0.0979 -0.0034 -0.3732
 6481W        W10681   0.643   7.832   8.399 -0.1261  0.2899 -0.1640
 6482W        W10682   3.496   1.503   1.100  0.0218 -0.1701 -0.3830
 6483W        W10683   3.011   5.357   2.000  0.0729  0.1702 -0.0081
 6484W        W10684   2.165   0.026   9.794  0.2180 -0.1777  0.1343
 6485W        W10685   1.323   9.419  12.467 -0.0121  0.0117 -0.3927
 6486W        W10686   9.014   6.206   8.752 -0.0183  0.2336 -0.0218
 6487W        W10687   1.701   9.858   3.145 -0.0495  0.2214  0.1186
 6488W        W10688   3.328   9.487   3.643 -0.2667  0.0821 -0.0837
 6489W        W10689  10.110   2.750   1.156 -0.2053  0.4549  0.0721
 6490W        W10690   6.053   1.432   7.786 -0.1234 -0.0906 -0.2455
 6491W        W10691   4.228   5.775  11.678  0.0534 -0.1191 -0.2219
 6492W        W10692   9.296   7.480  10.486  0.1713 -0.1243  0.0969
 6493W        W10693   6.146   3.720  11.303 -0.0467 -0.2218  0.0053
 6494W        W10694   3.616   0.890  10.884 -0.0601 -0.0592 -0.1032
 6495W        W10695   2.954   1.759  11.794  0.3933 -0.0891  0.2828
 6496W        W10696  10.635   1.202  12.673 -0.0592 -0.1626  0.2951
 6497W        W10697   8.423   4.515   0.197  0.4261 -0.2529 -0.3928
 6498W        W10698   6.376   4.507   3.304  0.0138 -0.1902  0.0691
 6499W        W10699   1.996   6.129   1.631 -0.0708  0.0195  0.2987
 6500W        W10700   7.354   6.845   9.384 -0.0028  0.0059 -0.0811
 6501W        W10701   0.760   5.609  12.178  0.0461  0.0390  0.3118
 6502W        W10702   0.763   6.408   0.384  0.2670  0.1738 -0.2073
 6503W        W10703   1.571   6.151   1.070 -0.1104  0.1590 -0.1846
 6504W        W10704   2.257   1.391   2.658 -0.0491 -0.1899  0.0370
 6505W        W10705   4.618   5.514   2.695  0.1767 -0.2017  0.1435
 6506W        W10706   0.538   7.975   3.201 -0.0044  0.3757 -0.0010
 6507W        W10707   3.888   1.101   1.306  0.0013  0.1636  0.0088
 6508W        W10708   3.645  10.099   0.914  0.0976 -0.0046 -0.1216
 6509W        W10709   7.614   5.948   9.847 -0.1424 -0.0753  0.0502
 6510W        W10710   7.504   8.024   1.409 -0.3455  0.2452  0.1080
 6511W        W10711   7.369   6.928   2.319  0.2655  0.0096 -0.0581
 6512W        W10712   5.877   9.935  10.196 -0.1088  0.2703  0.2515
 6513W        W10713   0.356   0.262   8.611  0.0684  0.0095  0.0962
 6514W        W10714   3.423   2.023  10.375  0.1246  0.0690 -0.1121
 6515W        W10715   3.998   1.915  11.885  0.1171 -0.0528 -0.0982
 6516W        W10716   1.185   3.738  11.743 -0.0976 -0.2363  0.0431
 6517W        W10717   4.463   4.128   0.824 -0.2954 -0.3341 -0.0555
 6518W        W10718   9.366  10.091  11.618 -0.0001 -0.4109  0.1539
 6519W        W10719   5.809   8.424   9.052  0.0135 -0.1566 -0.3647
 6520W        W10720   4.225   8.136  10.575  0.0260 -0.0033  0.1957
 6521W        W10721   2.581   3.711   8.816 -0.1445  0.2791 -0.2578
 6522W        W10722   0.172   9.531   1.368 -0.0313  0.1245 -0.1783
 6523W        W10723   9.400   2.128   1.421  0.0675 -0.2085 -0.1187
 6524W        W10724   9.040   8.810   2.444 -0.0758 -0.2094 -0.1431
 6525W        W10725   8.455   5.937  10.842  0.1888 -0.2418  0.2147
 6526W        W10726   9.394   6.575  11.047 -0.1013  0.1645  0.1908
 6527W        W10727   0.697   7.995   8.945  0.4538 -0.1472  0.1552
 6528W        W10728   4.379   1.729  12.060  0.0502  0.0990 -0.2550
 6529W        W10729   4.607   7.637  11.396 -0.1673 -0.1855  0.0073
 6530W        W10730   5.764   5.933  12.683 -0.0766  0.1905 -0.2922
 6531W        W10731   6.627   6.870  11.924 -0.1719 -0.1233  0.0355
 6532W        W10732   4.894   5.381   3.680  0.0467  0.1141  0.1942
 6533W        W10733   5.344   5.727   4.403 -0.0314  0.3069 -0.2033
 6534W        W10734   8.466   0.219   1.454 -0.0790 -0.2022 -0.1831
 6535W        W10735   8.679   7.048  11.485 -0.0012 -0.0943  0.2485
 6536W        W10736   0.370   0.119   2.706  0.4475  0.0877  0.1293
 6537W        W10737   4.651   7.919   2.575  0.1188 -0.1897 -0.2380
 6538W        W10738   5.609  10.438   9.305  0.0269 -0.0054 -0.2406
 6539W        W10739   7.606   9.259   0.655 -0.0189 -0.2243 -0.1103
 6540W        W10740   6.361   8.546   1.604 -0.0194 -0.2735 -0.0015
 6541W        W10741   3.048   3.170   2.630  0.1629 -0.2190  0.2045
 6542W        W10742   3.787   5.772   8.076 -0.0305 -0.0079 -0.0785
 6543W        W10743   7.498  10.074  12.104 -0.1204  0.2244  0.1760
 6544W        W10744  10.676   5.058   9.938 -0.0274 -0.0519 -0.0478
 6545W        W10745   0.764   3.296   8.592 -0.0239 -0.0335 -0.0534
 6546W        W10746   7.799   7.263   2.228  0.4749  0.1320  0.3148
 6547W        W10747   3.278   2.160   0.488 -0.1822  0.0333  0.0014
 6548W        W10748   1.232   4.705   9.310 -0.3942 -0.1924  0.0779
 6549W        W10749   5.238   3.904  12.892  0.0111 -0.1444 -0.1991
 6550W        W10750   9.979   6.542  10.266 -0.0077 -0.1534  0.4471
 6551W        W10751   7.116   6.958   0.090 -0.1068 -0.3054 -0.1826
 6552W        W10752   2.929   7.213   3.244  0.2643  0.1860 -0.1293
 6553W        W10753   7.677   4.486   9.622 -0.2179 -0.0778 -0.1555
 6554W        W10754   5.001   8.503  11.886 -0.0461  0.1104  0.1822
 6555W        W10755   4.535   2.297   8.615 -0.2506 -0.0018 -0.0479
 6556W        W10756   4.996   1.693   1.903  0.0232  0.0430 -0.0506
 6557W        W10757   6.848   9.627  12.708  0.0511 -0.1777 -0.0460
 6558W        W10758   2.784   6.644   1.444  0.0538 -0.5524  0.0455
 6559W        W10759   2.614   6.094   0.404 -0.1213  0.1065 -0.1589
 6560W        W10760   0.698   7.558  10.524  0.2086  0.1342 -0.3037
 6561W        W10761   8.358   3.077  11.158  0.2551  0.0286 -0.2549
 6562W        W10762   9.358   3.098   8.295  0.1526 -0.0812 -0.1735
 6563W        W10763   3.315   2.228   4.375 -0.0282 -0.0079 -0.2926
 6564W        W10764   4.932   3.031   2.159 -0.2180  0.0296 -0.1019
 6565W        W10765   6.720   6.258   8.891 -0.2267 -0.2521 -0.1135
 6566W        W10766  10.595   9.255   8.151  0.1413 -0.2545 -0.1050
 6567W        W10767   2.980   9.548  11.441  0.0594 -0.1657  0.1224
 6568W        W10768   1.854  10.660   1.453  0.1828 -0.0853  0.1311
 6569W        W10769   3.250   7.702   9.788  0.0490 -0.2372  0.1953
 6570W        W10770   6.313   1.247   8.429 -0.0826  0.0065  0.0402
 6571W        W10771   3.555   1.384  11.071  0.1248 -0.1173 -0.1602
 6572W        W10772   7.941   8.026   0.940 -0.0800  0.2259  0.0139
 6573W        W10773   5.852   9.161   2.344 -0.0032  0.1221 -0.2289
 6574W        W10774   3.963   1.851  10.551 -0.0302 -0.0811 -0.2787
 6575W        W10775   4.671   6.310  11.377  0.3359  0.0301  0.2363
 6576W        W10776   7.277   4.400   1.794 -0.2025  0.0497  0.1199
 6577W        W10777   2.332   6.584   9.523 -0.0031  0.1099 -0.2463
 6578W        W10778   5.219   0.433   0.210 -0.2456  0.0037 -0.0103
 6579W        W10779   8.276   8.649  10.034 -0.2563 -0.1447 -0.1879
 6580W        W10780   5.168   0.971   1.719 -0.1702 -0.1613  0.0263
 6581W        W10781   9.304   2.349  12.144  0.2112  0.2956 -0.0013
 6582W        W10782   1.389   5.273  12.260  0.1675 -0.0883  0.3011
 6583W        W10783   9.831   3.991   2.077  0.1449  0.1007 -0.2172
 6584W        W10784   6.624   7.661  11.564  0.0168  0.1350 -0.0139
 6585W        W10785   4.752   9.256   4.436  0.1105  0.0027 -0.3558
 6586W        W10786   9.378   0.962  11.663  0.2673 -0.0567  0.1101
 6587W        W10787   4.697   8.482   1.753 -0.0321 -0.1101 -0.0169
 6588W        W10788   7.406   6.555   3.222 -0.0415 -0.3849 -0.2250
 6589W        W10789   0.062   9.739  12.686  0.0098  0.1762 -0.1322
 6590W        W10790   0.353   8.436   1.015 -0.5035  0.0021 -0.0169
 6591W        W10791   4.774   6.477   3.266 -0.0773  0.0130 -0.1130
 6592W        W10792   8.651   9.259   1.043  0.0647 -0.1587  0.0979
 6593W        W10793   9.033   1.020   9.178 -0.1354 -0.0115  0.2996
 6594W        W10794   3.549   5.118   2.589 -0.1413  0.0946  0.0892
 6595W        W10795   9.883   3.507  12.694  0.0889  0.1108 -0.0255
 6596W        W10796   9.914   5.487   0.484  0.1428  0.1789  0.2751
 6597W        W10797   4.862  10.516   2.976 -0.3723 -0.0006 -0.0329
 6598W        W10798   2.791   7.068   9.094 -0.0390 -0.0257  0.0778
 6599W        W10799   9.325   1.406   0.353  0.0480 -0.2514 -0.1187
 6600W        W10800  10.695  10.410   2.618  0.0678 -0.1345 -0.1135
 6601W        W10801  10.490   7.358   0.586 -0.2060  0.2384 -0.0086
 6602W        W10802   7.958   7.923  12.379 -0.0688 -0.3933 -0.0223
 6603W        W10803   8.249   0.715  11.970 -0.2845 -0.0048 -0.0945
 6604W        W10804   4.480   0.712  11.109  0.0554 -0.0300  0.1641
 6605W        W10805   5.182   1.417   1.492  0.0008 -0.2960 -0.1757
 6606W        W10806   7.457   4.203   0.192 -0.3181  0.1176 -0.0209
 6607W        W10807   1.758   5.486   9.825  0.3525  0.2233 -0.0251
 6608W        W10808   4.464  10.174   4.397  0.1595 -0.0658  0.0962
 6609W        W10809   4.200   7.003  12.408  0.5281  0.2061  0.2258
 6610W        W10810   1.717   0.525  12.865  0.2079 -0.0718 -0.2661
 6611W        W10811   0.163   4.037   2.538  0.1723 -0.4169  0.0600
 6612W        W10812   2.270  10.299  11.172  0.2178  0.0264  0.0512
 6613W        W10813   5.940   4.388   0.963 -0.1787  0.0703  0.0303
 6614W        W10814   8.333   4.789   1.464  0.0454 -0.2644  0.2321
 6615W        W10815   3.620   8.803  10.390 -0.0218 -0.1692 -0.1736
 6616W        W10816   9.999  10.394   7.488 -0.0105 -0.0172 -0.5682
 6617W        W10817   9.263   0.944  11.170 -0.0023  0.1769  0.0939
 6618W        W10818   5.154   8.377   3.360 -0.4838 -0.0486  0.0256
 6619W        W10819   3.436   4.540   1.038  0.3901  0.0537 -0.3188
 6620W        W10820  10.183   1.162  10.093 -0.0788  0.0363  0.2198
 6621W        W10821   7.249   6.275   2.857  0.1189 -0.0144 -0.2609
 6622W        W10822   1.817   3.693   9.980 -0.1334  0.1502 -0.1543
 6623W        W10823   9.908   3.919  12.425 -0.0653  0.0135  0.2889
 6624W        W10824   4.875   0.432   0.735 -0.0895 -0.2955 -0.1281
 6625W        W10825   4.907   1.676   2.475  0.0649 -0.0281  0.1308
 6626W        W10826   3.697   8.481   9.945  0.0358 -0.0792 -0.0204
 6627W        W10827   4.390   9.712  12.213 -0.1938 -0.1435  0.2471
 6628W        W10828   6.274   4.278  11.876  0.2186 -0.1103  0.1776
 6629W        W10829   5.742   1.410  11.463 -0.0152 -0.0902 -0.4810
 6630W        W10830   9.576   7.856  11.713  0.1513 -0.0300 -0.2716
 6631W        W10831   3.876   1.303   4.338 -0.0582  0.0431 -0.0477
 6632W        W10832   7.025   8.328   0.869 -0.2265 -0.0283  0.3918
 6633W        W10833   3.380   9.503   8.849 -0.0785 -0.1284  0.1703
 6634W        W10834   2.982  10.127   2.397 -0.0538  0.1185 -0.0172
 6635W        W10835   8.073   8.572   2.464 -0.0390 -0.1778 -0.1665
 6636W        W10836   1.795   4.991  11.453 -0.1225  0.1188  0.2146
 6637W        W10837  10.519  10.557   9.334  0.2630  0.0260  0.3514
 6638W        W10838   7.443   7.058   0.940 -0.0079 -0.3513 -0.0224
 6639W        W10839   8.632   7.879   2.230  0.0534 -0.1364 -0.3110
 6640W        W10840   3.777  10.206  11.194  0.0472  0.1827  0.1861
 6641W        W10841   5.067   9.682  12.176 -0.2177 -0.1279  0.3340
 6642W        W10842   1.685   6.082   2.040 -0.1929  0.1189  0.3683
 6643W        W10843   2.352   1.381   0.165  0.2242 -0.1019  0.3791
 6644W        W10844   3.210   2.683   9.168  0.1290 -0.0277 -0.1237
 6645W        W10845   5.796   4.638   9.570 -0.0807  0.2491 -0.0569
 6646W        W10846   8.520   0.228   8.840 -0.1471  0.0197  0.1591
 6647W        W10847   7.157   8.282   2.765 -0.1665  0.2108 -0.2232
 6648W        W10848  10.207   7.959  10.696 -0.1802 -0.0627  0.0562
 6649W        W10849   4.762   6.940   0.746 -0.0173  0.0984  0.1830
 6650W        W10850   9.992   4.727   4.610  0.2207  0.1998 -0.2425
 6651W        W10851   9.600   7.681  12.248 -0.1567 -0.0007  0.2405
 6652W        W10852   6.196   8.613   2.203 -0.2765  0.3147 -0.0197
 6653W        W10853   1.009   4.196   0.233 -0.0939 -0.1452 -0.1358
 6654W        W10854   3.213   3.657   9.363  0.0934  0.1160 -0.0183
 6655W        W10855   6.026   6.369   3.662 -0.1997 -0.1828  0.0600
 6656W        W10856   1.680   3.170   9.842  0.0119  0.1987 -0.0124
 6657W        W10857   9.854   9.701   1.718 -0.0690  0.0073  0.0958
 6658W        W10858   3.409   9.445   1.774 -0.0337 -0.3406 -0.1870
 6659W        W10859  10.105   8.588  10.391  0.3086  0.3929 -0.2439
 6660W        W10860   7.453   0.254   3.483 -0.0005  0.1325 -0.0059
 6661W        W10861   5.904   1.489   2.836  0.2328 -0.1570 -0.1710
 6662W        W10862   0.658   7.941  12.814 -0.0188 -0.2936  0.0238
 6663W        W10863   3.690   4.651  12.176 -0.1871  0.2985  0.0065
 6664W        W10864   7.005   9.739   2.833  0.3318  0.1198 -0.1028
 6665W        W10865   3.221   9.549   2.643 -0.2394  0.1018 -0.2256
 6666W        W10866   5.174  10.440   2.533 -0.1876  0.0948 -0.1149
 6667W        W10867   6.167   3.715   0.963 -0.0411  0.1177  0.0871
 6668W        W10868   4.358   3.507   3.753  0.0384  0.0383 -0.1128
 6669W        W10869   6.322   2.403   9.123 -0.0162  0.1692 -0.0953
 6670W        W10870   2.011   0.008   0.986 -0.0835 -0.0588  0.0119
 6671W        W10871   4.420   9.317   2.633 -0.1353  0.1691  0.0885
 6672W        W10872   6.447   7.417   1.915 -0.3971 -0.0613 -0.1456
 6673W        W10873   6.692   3.683  10.384 -0.4002 -0.0301 -0.3094
 6674W        W10874   9.651   8.552  11.861  0.2402  0.0447 -0.1206
 6675W        W10875   6.975   2.273   9.145  0.0135  0.2298 -0.1002
 6676W        W10876   6.154   9.602   4.540 -0.0995  0.2383 -0.0264
 6677W        W10877   6.343   5.136   1.614 -0.4563  0.1233 -0.0680
 6678W        W10878   7.725   4.743  10.135  0.0540  0.1985 -0.0899
 6679W        W10879   5.265  10.696  12.026 -0.2046  0.1248  0.0093
 6680W        W10880   7.274   1.634   0.561  0.1324 -0.2661 -0.0329
 6681W        W10881   2.614   4.590   1.528  0.3207  0.0398 -0.2975
 6682W        W10882   4.771   3.751   3.459  0.0243 -0.5798 -0.0866
 6683W        W10883   9.973   6.824   2.823 -0.0544 -0.1823  0.1339
 6684W        W10884   4.217   1.153   9.796  0.0026  0.3755 -0.0422
 6685W        W10885  10.145   3.223  11.270 -0.0854  0.0804  0.0123
 6686W        W10886   4.427   6.362   1.494  0.0074  0.1868  0.0758
 6687W        W10887   2.349  10.695  10.725 -0.0224  0.2282 -0.0404
 6688W        W10888   5.630   1.063   1.513  0.2270 -0.0440  0.0612
 6689W        W10889   8.547   8.197   7.636 -0.0102  0.0712  0.2880
 6690W        W10890   6.553   6.437   2.365  0.0016  0.2168 -0.2695
 6691W        W10891   7.499   7.487   0.431 -0.1248  0.1306  0.0086
 6692W        W10892   7.632   5.155  12.533  0.4208 -0.2051 -0.0107
 6693W        W10893   8.551   4.392  10.597  0.0493 -0.0551 -0.1552
 6694W        W10894   9.241   1.516   4.033 -0.0050 -0.0687  0.2484
 6695W        W10895   2.375   4.335  10.492 -0.2533 -0.1848  0.2626
 6696W        W10896  10.386   0.218   9.591 -0.1401  0.1851  0.0153
 6697W        W10897   7.834   1.252   3.321 -0.3428 -0.0328  0.1275
 6698W        W10898   2.395   9.823   8.013  0.4151 -0.0050  0.3448
 6699W        W10899   5.098   1.340   0.670  0.2198 -0.0572 -0.2339
 6700W        W10900   6.331   2.388   1.069  0.2709  0.1345 -0.1160
 6701W        W10901   7.823   7.719   3.164 -0.1615 -0.2889  0.1121
 6702W        W10902   2.398   2.856   3.094  0.3252  0.1332 -0.1601
 6703W        W10903   7.967   6.801   1.696  0.1030 -0.0858 -0.1350
 6704W        W10904   7.051   2.893  11.361  0.1952 -0.2165  0.1771
 6705W        W10905   8.602   4.775  12.195 -0.0360 -0.1903  0.0549
 6706W        W10906   2.768   4.717   9.805 -0.0256  0.1062 -0.3640
 6707W        W10907   3.580   6.608   8.931 -0.1337 -0.1900  0.0481
 6708W        W10908   9.680   9.079  10.690  0.1133  0.0947 -0.2826
 6709W        W10909  10.607   8.898   9.388 -0.2908 -0.0377 -0.0270
 6710W        W10910   6.739   5.315   8.817  0.3376  0.2038 -0.1970
 6711W        W10911   8.215   5.256   8.930  0.0082  0.0710 -0.1149
 6712W        W10912   0.704   9.573   7.977  0.2215 -0.0676  0.0429
 6713W        W10913   4.259   4.545  12.498 -0.0851  0.3044 -0.2422
 6714W        W10914   6.160   7.053   0.348  0.0104 -0.1726 -0.1574
 6715W        W10915   6.512   7.709   2.294 -0.1148  0.0050 -0.0551
 6716W        W10916   3.156   2.592   1.026  0.1632  0.2474  0.0062
 6717W        W10917   5.192   5.272   2.752 -0.2382 -0.1054  0.2391
 6718W        W10918   9.555   4.763   9.683  0.0893 -0.0022  0.5201
 6719W        W10919   3.026   9.312   9.193 -0.0089  0.3656 -0.2480
 6720W        W10920   2.265   9.003  12.561 -0.1071 -0.2877 -0.2949
 6721W        W10921   8.754  10.009   0.787  0.0533  0.1979  0.1507
 6722W        W10922   1.520   1.616   0.855  0.0773 -0.0871  0.1366
 6723W        W10923   6.464   6.005  10.051  0.4324 -0.1511 -0.2007
 6724W        W10924   6.983   9.832   1.786  0.3891 -0.0335  0.2042
 6725W        W10925   2.279   3.564   3.759  0.3073  0.0941  0.4856
 6726W        W10926  10.568   2.021   3.482  0.0815  0.0531 -0.0417
 6727W        W10927   8.920   9.217   2.734 -0.1292 -0.1069 -0.1668
 6728W        W10928   6.323  10.048  11.692 -0.3768  0.1862  0.1060
 6729W        W10929  10.187   1.168   3.232 -0.2220  0.2256  0.3443
 6730W        W10930   8.089   9.135  10.244  0.1495  0.2829  0.1209
 6731W        W10931  10.526  10.049   1.312 -0.0548 -0.3608  0.0662
 6732W        W10932   3.990   2.016   8.754 -0.0118  0.0486  0.1141
 6733W        W10933   2.896   7.249  10.464 -0.0339  0.0730 -0.0650
 6734W        W10934   7.397   8.599   7.762  0.3025 -0.1210 -0.1655
 6735W        W10935   6.731   0.488   8.029 -0.2730 -0.0712 -0.0346
 6736W        W10936   9.251   4.335   1.584  0.2914  0.1518  0.0878
 6737W        W10937   9.212   1.502   2.337  0.3574  0.0142 -0.2734
 6738W        W10938   6.168   4.969   3.333 -0.1120 -0.0889 -0.1260
 6739W        W10939   9.044   4.196   3.394  0.0760  0.1583  0.2477
 6740W        W10940   2.908   5.955   2.423  0.2278  0.4886 -0.1276
 6741W        W10941   3.123   0.848  10.066  0.0011 -0.1753  0.2474
 6742W        W10942   4.038   9.605  11.008 -0.0062  0.0947  0.5304
 6743W        W10943   0.094   4.442  12.144 -0.1277 -0.3139 -0.0498
 6744W        W10944   4.352   2.923  10.658  0.0521  0.4707 -0.2041
 6745W        W10945   2.199   8.720   4.134 -0.2116 -0.0230  0.0924
 6746W        W10946   7.007   5.512   8.414  0.4677 -0.1695  0.2214
 6747W        W10947   1.084   2.471  12.373  0.3378  0.0640 -0.1921
 6748W        W10948   6.206  10.563   1.596  0.0787 -0.3813  0.2530
 6749W        W10949   0.764   3.606  11.414  0.2128  0.0166 -0.3058
 6750W        W10950   0.156   1.194   3.608  0.0739 -0.1800 -0.1016
 6751W        W10951   4.491   3.680   1.138  0.1352  0.2060 -0.1011
 6752W        W10952   1.604   5.026   3.801  0.0561 -0.2846 -0.3344
 6753W        W10953   9.119   4.077   2.907  0.1669  0.0435  0.0261
 6754W        W10954  10.533   4.639  12.533  0.0342  0.1497 -0.0388
 6755W        W10955   7.892   1.534   1.131  0.1327 -0.1362 -0.0185
 6756W        W10956   7.795   5.056   1.602  0.2705  0.1450 -0.0131
 6757W        W10957   6.066   7.069   7.193  0.1083 -0.0168  0.1303
 6758W        W10958   4.540   8.393  12.362 -0.2272  0.0045 -0.3103
 6759W        W10959   9.576   8.735   0.094 -0.0175  0.0572 -0.0139
 6760W        W10960   5.808  10.057   8.438 -0.0953 -0.0580  0.3659
 6761W        W10961   4.629   1.945  12.536  0.0028  0.0931 -0.3013
 6762W        W10962   6.502   9.867  12.142  0.1076  0.0519  0.0035
 6763W        W10963   7.571   0.957   8.252 -0.1786  0.3084 -0.0724
 6764W        W10964   5.688   6.087   4.370 -0.1375 -0.0752  0.2148
 6765W        W10965  10.499   4.513   1.035 -0.0373 -0.1646 -0.3302
 6766W        W10966   3.392   7.999  12.390 -0.1517 -0.0884  0.0494
 6767W        W10967   0.195   7.682   1.530  0.1267  0.0711  0.1577
 6768W        W10968   2.126   3.803   8.603 -0.1356  0.1155 -0.0713
 6769W        W10969   1.312   6.294  11.681  0.0716 -0.0331 -0.2270
 6770W        W10970   5.751   2.404  11.117  0.1778  0.0909 -0.2241
 6771W        W10971   8.780   1.433   0.490  0.1664  0.0516 -0.1567
 6772W        W10972   1.099   2.771  11.408  0.0161  0.0888  0.0271
 6773W        W10973   0.160   2.271  10.088 -0.0690  0.1425 -0.0488
 6774W        W10974   8.250   4.402   1.148  0.2742  0.2802  0.0766
 6775W        W10975   6.218   8.402  12.539  0.0179 -0.2825 -0.1084
 6776W        W10976   6.372   4.085   0.049 -0.1392 -0.1173  0.0966
 6777W        W10977   9.203   3.015   2.810 -0.1225  0.1135  0.1053
 6778W        W10978   6.959   3.545   1.430  0.0365 -0.0046  0.1934
 6779W        W10979   5.262  10.190  12.719  0.1912  0.1012 -0.2747
 6780W        W10980   6.202   4.194  12.472 -0.0537  0.2678 -0.2604
 6781W        W10981   9.091   3.977   0.779  0.1501  0.2755  0.0972
 6782W        W10982   6.726   2.255   9.617 -0.3027 -0.1867 -0.2724
 6783W        W10983   2.584   5.719   2.735  0.1596 -0.3247 -0.2215
 6784W        W10984   3.521   6.174   8.191 -0.1432 -0.2110 -0.0504
 6785W        W10985   3.238   5.806   1.742 -0.1350 -0.0249  0.3108
 6786W        W10986   3.287   6.186  10.791  0.2790 -0.0816 -0.0990
 6787W        W10987   4.107   9.581   8.913  0.0425  0.1075 -0.1069
 6788W        W10988   2.360   2.767   1.343 -0.0909 -0.0030  0.0954
 6789W        W10989   0.816   2.553  11.062 -0.0577  0.0266 -0.0786
 6790W        W10990   4.330   2.828   1.219 -0.2504  0.1951  0.0635
 6791W        W10991   4.152   4.044   8.442 -0.0945  0.0984  0.2071
 6792W        W10992   3.986   1.975   9.290  0.2444  0.3665  0.2212
 6793W        W10993   1.809   1.412   3.264  0.0505 -0.2423 -0.3269
 6794W        W10994   0.702   3.691  11.898  0.1465 -0.1900  0.0398
 6795W        W10995   0.717   5.965   9.073 -0.0671  0.1377  0.2793
 6796W        W10996   3.717   2.318  10.630  0.1741 -0.0478  0.0251
 6797W        W10997   2.869   5.571   0.303  0.4595  0.0115 -0.1642
 6798W        W10998   8.189   3.007   9.501 -0.0505 -0.3352  0.1371
 6799W        W10999   3.822   5.859   9.724 -0.3030  0.0169 -0.0857
 6800W        W11000   7.214   7.343  12.156 -0.4187 -0.0288 -0.1415
 6801W        W11001   9.834   3.483  12.048 -0.0788 -0.0525  0.0842
 6802W        W11002   4.994   9.380  11.250  0.2289 -0.3336 -0.1835
 6803W        W11003   1.464   1.833  11.663 -0.0755  0.2361  0.0896
 6804W        W11004   9.186   9.368   1.294 -0.0991 -0.0160  0.0946
 6805W        W11005   9.756   8.028   1.116  0.1938  0.2209 -0.1528
 6806W        W11006   3.794   6.738   3.230 -0.0261 -0.1178  0.0912
 6807W        W11007   3.740   0.264   0.028 -0.2145 -0.0040  0.3597
 6808W        W11008   3.913   5.375   3.127  0.2812 -0.0314 -0.0576
 6809W        W11009   2.263   5.890  10.499  0.0151 -0.0003  0.2162
 6810W        W11010  10.605   2.110  10.914 -0.0282  0.0011  0.3245
 6811W        W11011   1.232  10.273   1.942  0.1209 -0.4351  0.0505
 6812W        W11012   1.655   0.206   0.717  0.0422 -0.0308  0.1705
 6813W        W11013   1.599   7.479   0.320 -0.3246 -0.0806  0.1098
 6814W        W11014   4.113   2.757   4.293  0.1169 -0.0677 -0.2962
 6815W        W11015   5.735   7.604   3.081 -0.3411 -0.1064  0.1672
 6816W        W11016   4.934   8.782   0.008 -0.0016  0.0977 -0.4003
 6817W        W11017   3.431   0.430   8.804 -0.0490 -0.1385 -0.0780
 6818W        W11018   8.154   7.993   8.820 -0.3767 -0.1553  0.0089
 6819W        W11019   7.411   5.998  10.286 -0.0556  0.0700 -0.0306
 6820W        W11020   7.987   6.322   0.732 -0.0640  0.0411 -0.0241
 6821W        W11021   5.192  10.692   8.124  0.0658  0.0609 -0.0942
 6822W        W11022   9.846   9.814   0.173 -0.2177  0.0684 -0.1263
 6823W        W11023   0.013  10.629   8.460  0.0298  0.0960  0.1517
 6824W        W11024   7.541   4.260   8.164 -0.0422 -0.0399 -0.3574
 6825W        W11025   3.715   3.846   9.398  0.0589  0.3227 -0.0321
 6826W        W11026   0.494   1.222   9.993 -0.1687  0.4339 -0.0833
 6827W        W11027   6.356   5.855   2.556  0.0300  0.1459  0.0228
 6828W        W11028   3.984   2.385  12.010 -0.0371  0.0133 -0.0745
 6829W        W11029   1.146   9.669   9.690  0.2706 -0.3264  0.4599
 6830W        W11030   1.108   8.788   2.532 -0.0592  0.0072 -0.0829
 6831W        W11031   5.388   0.529  11.291  0.1347 -0.1370 -0.0351
 6832W        W11032   9.019  10.265   8.913  0.1479 -0.1624  0.4163
 6833W        W11033   5.965   9.509   0.774 -0.1397 -0.0161  0.0904
 6834W        W11034  10.267   3.768  10.993 -0.1314 -0.1188  0.0095
 6835W        W11035   1.036   7.240   9.892  0.0026  0.3389  0.1550
 6836W        W11036   6.533   4.547  12.178  0.1726  0.2132  0.0794
 6837W        W11037   4.766   4.295   0.014  0.0652 -0.0817  0.1687
 6838W        W11038   7.296  10.325  12.540 -0.0564  0.1863  0.2295
 6839W        W11039   0.102   2.951   4.393  0.2698  0.3766 -0.3104
 6840W        W11040   7.534   1.363  12.023 -0.0162 -0.1544  0.1867
 6841W        W11041  10.581   0.283  12.070 -0.0424  0.4652 -0.1552
 6842W        W11042   5.499   6.331  12.719 -0.0281 -0.0418  0.0320
 6843W        W11043   1.832   7.579  11.909  0.3823 -0.0560  0.1946
 6844W        W11044   0.189   8.500  10.967 -0.0227  0.0492  0.1093
 6845W        W11045   4.360   5.149   3.142 -0.0933 -0.0802  0.2158
 6846W        W11046   6.151   6.715   3.329 -0.0467 -0.2005  0.2207
 6847W        W11047  10.412   2.336   3.817  0.1831  0.2640 -0.2784
 6848W        W11048   8.565   7.265   3.093  0.0782 -0.1749  0.2457
 6849W        W11049   2.925   8.859   9.981 -0.1745  0.1631  0.0045
 6850W        W11050   3.515   9.512  11.302  0.2200 -0.1129  0.2335
 6851W        W11051   6.948   2.369   8.439 -0.1270 -0.0551  0.0918
 6852W        W11052   3.655   0.300   3.283  0.0369 -0.1328 -0.0041
 6853W        W11053   6.643   0.299   9.187 -0.0353  0.0071 -0.0016
 6854W        W11054   0.430   4.156   3.315  0.5048 -0.0966 -0.0451
 6855W        W11055   8.452   2.706  12.684  0.1595  0.2304 -0.1867
 6856W        W11056   3.431   4.335  12.517  0.1387 -0.0301  0.0282
 6857W        W11057   3.678   1.129  12.251  0.0311  0.1208 -0.0122
 6858W        W11058   1.653   3.313   3.155 -0.4584  0.1427  0.1041
 6859W        W11059   5.156   7.241   2.947 -0.2480  0.0729  0.1428
 6860W        W11060   3.274   2.244  11.125  0.4316 -0.0688 -0.0688
 6861W        W11061   9.116   7.794   9.594  0.2439  0.0068 -0.1921
 6862W        W11062   5.866   5.130   9.303 -0.2021  0.0425 -0.0061
 6863W        W11063   5.666   4.424   3.693  0.0457 -0.0360  0.4236
 6864W        W11064   4.400  10.003  12.747 -0.0331 -0.2299 -0.3849
 6865W        W11065   5.120   3.386   2.555  0.1059  0.1543  0.2276
 6866W        W11066   4.183   8.878   2.622  0.2373 -0.3732 -0.2163
 6867W        W11067   7.184   6.628  10.864 -0.0256  0.3738  0.0846
 6868W        W11068   0.902   4.283  12.636  0.1930 -0.1870 -0.1457
 6869W        W11069   0.896   8.713   9.524 -0.1826 -0.1924 -0.0596
 6870W        W11070   6.746   0.123   0.266 -0.1644 -0.0277 -0.0799
 6871W        W11071   3.069   9.277   1.164  0.0647 -0.2595  0.0907
 6872W        W11072   5.531   4.819   0.645 -0.1788 -0.1066  0.1478
 6873W        W11073   6.854   0.035  12.271  0.2545 -0.0225  0.0157
 6874W        W11074   3.263  10.541   8.702  0.1929  0.1837  0.0606
 6875W        W11075   5.275   2.241   2.692 -0.0061  0.0296 -0.0592
 6876W        W11076   2.381  10.395  12.443  0.1778  0.0146 -0.2124
 6877W        W11077   3.071   5.436   1.418 -0.1507 -0.2221 -0.2140
 6878W        W11078   1.863   9.237   8.339  0.1020 -0.0507 -0.0053
 6879W        W11079   8.871   7.760   0.062 -0.1985 -0.5936 -0.0495
 6880W        W11080   5.355   3.685  11.404  0.0039 -0.0010 -0.0439
 6881W        W11081   9.873   7.221  12.279  0.0273  0.1523 -0.1150
 6882W        W11082   9.766   7.164  11.466 -0.0740 -0.2218 -0.4170
 6883W        W11083   0.314   2.594   1.656 -0.2939  0.3118  0.0229
 6884W        W11084   0.614   0.633   2.801  0.0243 -0.1281  0.1092
 6885W        W11085   2.270   3.381   2.678 -0.2184 -0.0976  0.1462
 6886W        W11086   5.564  10.192   8.849  0.1340 -0.0617  0.5225
 6887W        W11087   2.335   5.914  12.270  0.2729  0.1433 -0.2434
 6888W        W11088   4.865   6.619   3.756  0.1912  0.0224  0.2670
 6889W        W11089   0.272   9.665   0.639 -0.2123 -0.0384  0.2071
 6890W        W11090   9.506  10.046  10.082 -0.1224 -0.0197 -0.0535
 6891W        W11091   4.243   4.277   9.248  0.0152 -0.2062  0.2900
 6892W        W11092   7.035   0.340   3.621  0.1193 -0.1542  0.0148
 6893W        W11093   9.800   5.364  10.907  0.1114 -0.1516  0.1901
 6894W        W11094   2.880  10.610   8.328 -0.0551 -0.1536  0.0006
 6895W        W11095  10.611   5.905  11.667 -0.0603  0.0782 -0.1881
 6896W        W11096  10.450   0.950   2.141  0.1578  0.3228  0.1303
 6897W        W11097   6.243   3.977   2.540 -0.2887  0.1347  0.2676
 6898W        W11098   7.852   5.271  12.016 -0.0831  0.1603 -0.0276
 6899W        W11099   3.952   1.603  12.879  0.0532  0.0065  0.3005
 6900W        W11100   4.156   9.394   8.461 -0.1049 -0.1390 -0.0289
 6901W        W11101   8.895   9.474   9.084 -0.1332  0.0968  0.1296
 6902W        W11102   0.984   7.111   1.004 -0.0270  0.3141 -0.0349
 6903W        W11103   2.680   0.779  12.324 -0.2754  0.1175 -0.1686
 6904W        W11104   6.846   5.262   1.373  0.0228 -0.0429 -0.1753
 6905W        W11105  10.433   6.704  10.028 -0.0501  0.1146  0.0373
 6906W        W11106   6.562   7.405   4.054 -0.1820  0.3481 -0.0081
 6907W        W11107   7.952   6.148   2.128 -0.0612  0.1313  0.0635
 6908W        W11108   0.843   4.929  11.249 -0.0796  0.0747  0.0707
 6909W        W11109   6.255   4.436   8.668  0.2168  0.2377  0.0734
 6910W        W11110   6.207   8.026   7.732  0.0648 -0.2592 -0.0244
 6911W        W11111   1.987   3.117   1.273 -0.2556 -0.0066 -0.0344
 6912W        W11112   3.855   3.325   3.773  0.0283  0.0107  0.2033
 6913W        W11113   1.645   5.732   1.430  0.1841  0.0236 -0.1351
 6914W        W11114   5.296   2.585  11.477  0.2796  0.0647 -0.0165
 6915W        W11115  10.432   4.285   2.412  0.2344  0.1294 -0.2075
 6916W        W11116   1.934   2.337   0.829 -0.0320  0.1479 -0.5355
 6917W        W11117   0.607   5.927  10.706  0.3259  0.0295 -0.0161
 6918W        W11118   4.465   4.132   2.027  0.3073  0.0181  0.0986
 6919W        W11119   0.294   5.661  12.398 -0.2079  0.0779  0.0838
 6920W        W11120   5.664   2.364  10.252 -0.0910  0.0311 -0.1049
 6921W        W11121   0.825   0.662   3.415  0.0794 -0.2497 -0.0698
 6922W        W11122   3.385   1.455   8.750  0.0916  0.0388  0.0345
 6923W        W11123   4.719   0.067   1.784  0.0108  0.0488 -0.0071
 6924W        W11124   6.346  10.455   2.998  0.0324  0.2136  0.2587
 6925W        W11125   3.897   6.472   2.435 -0.3369  0.0650 -0.2395
 6926W        W11126   9.142  10.490  11.782 -0.1918  0.1352  0.0920
 6927W        W11127   0.210   8.934  10.725 -0.1318 -0.1209  0.1193
 6928W        W11128   7.896   4.896   0.376  0.0821  0.1139 -0.2452
 6929W        W11129   3.051   3.038   3.762 -0.0364  0.1194  0.4500
 6930W        W11130   6.204   2.091  12.038 -0.1995 -0.2472 -0.3753
 6931W        W11131   9.286   5.938  12.855 -0.1004  0.1001  0.1236
 6932W        W11132   0.754   3.287   1.210  0.1051  0.2820 -0.0771
 6933W        W11133   2.982   3.541  10.278 -0.1336  0.1732  0.0424
 6934W        W11134  10.565   3.157  12.092 -0.0749 -0.1587  0.0166
 6935W        W11135   5.798   0.845  11.141  0.1816 -0.1172  0.0331
 6936W        W11136   7.777   1.429   1.627  0.0773  0.0576 -0.0066
 6937W        W11137   2.342   5.065   9.129  0.1293  0.2488  0.0734
 6938W        W11138   7.865   4.842   3.447 -0.1469 -0.3677 -0.0127
 6939W        W11139   2.153   3.809  10.392 -0.0555  0.1662 -0.0504
 6940W        W11140   8.052   5.419   0.330 -0.1063  0.2671 -0.1416
 6941W        W11141   6.731   4.509   8.530 -0.1943  0.0595 -0.0518
 6942W        W11142   7.182   3.498   3.648  0.2653  0.1477  0.0459
 6943W        W11143   0.902   3.530  10.019 -0.2101  0.2109 -0.4725
 6944W        W11144   9.916   8.247   2.491  0.0643  0.2509 -0.0291
 6945W        W11145   6.186   8.751   3.111 -0.0389 -0.2028 -0.2358
 6946W        W11146   0.256   3.833   3.673  0.0424 -0.1429  0.0959
 6947W        W11147   2.652   3.017   9.719 -0.1552  0.0807  0.0385
 6948W        W11148   3.052   3.289   2.150  0.0958 -0.2098 -0.1007
 6949W        W11149   6.076   7.590   9.569  0.0435  0.1407 -0.0062
 6950W        W11150   0.988   8.061   1.374 -0.0323  0.1307 -0.2002
 6951W        W11151   4.738   3.601   2.223 -0.0155  0.2332 -0.0255
 6952W        W11152   4.146   1.284   3.055  0.0736 -0.1267  0.1362
 6953W        W11153   4.291   5.105  12.760  0.0969 -0.0565  0.0519
 6954W        W11154   0.652   0.031   2.222  0.2094 -0.1649 -0.3329
 6955W        W11155   6.550   4.998   7.809 -0.1064  0.4225  0.4484
 6956W        W11156   0.525   5.402   9.882 -0.0976  0.1871 -0.2209
 6957W        W11157   1.240   4.974  10.102 -0.2138  0.1713  0.0665
 6958W        W11158   2.052   9.823   9.203 -0.2593 -0.1718 -0.2292
 6959W        W11159   0.447   5.228   1.771 -0.1961  0.0963 -0.1480
 6960W        W11160   8.901   8.916   1.340  0.0916  0.1714 -0.0470
 6961W        W11161   7.687   9.992  12.584  0.0065 -0.1143 -0.3394
 6962W        W11162   8.203   3.697   9.657  0.2088 -0.0208 -0.1887
 6963W        W11163   2.512   8.939   0.130  0.1559 -0.1251  0.0572
 6964W        W11164   3.153   9.469   0.231  0.0111  0.0871  0.0653
 6965W        W11165   0.677   6.526  11.206  0.2042 -0.0638  0.1548
 6966W        W11166   1.541  10.143   0.203 -0.4357 -0.1906 -0.2095
 6967W        W11167   3.309   7.017  10.303 -0.3907  0.0870 -0.1962
 6968W        W11168   8.278   2.082   0.506  0.0131 -0.4448 -0.1501
 6969W        W11169   0.903   5.580   3.616  0.1465  0.1352 -0.0291
 6970W        W11170   7.799   7.433  11.157  0.0313  0.1468 -0.2836
 6971W        W11171   7.761   0.382  12.204  0.0862 -0.2146  0.0978
 6972W        W11172   6.659   3.773   1.083  0.3293  0.3339 -0.0793
 6973W        W11173   0.366   4.976  10.329  0.1743  0.0166  0.0483
 6974W        W11174   1.090   8.685  11.027  0.0120 -0.4617 -0.3370
 6975W        W11175   7.447   8.763  11.858  0.1564  0.1043 -0.3354
 6976W        W11176   2.605  10.558   8.965 -0.3905 -0.0441  0.1826
 6977W        W11177   4.349   1.997  10.232 -0.2976 -0.4016 -0.2724
 6978W        W11178   2.322   4.449   0.741  0.1717  0.2552  0.0040
 6979W        W11179   8.654   0.609  10.051 -0.2417 -0.2367 -0.3513
 6980W        W11180   5.326   2.644   2.207 -0.0477  0.2141 -0.3478
 6981W        W11181   8.845   4.636  12.857 -0.0302  0.0548 -0.0295
 6982W        W11182   5.409   7.316   8.595  0.0532  0.0749 -0.1422
 6983W        W11183   2.195   5.324   0.901 -0.0405 -0.2593  0.0317
 6984W        W11184   8.784   6.359   0.978  0.1105  0.0972  0.0686
 6985W        W11185   5.440   0.435   8.289 -0.1314 -0.1969 -0.1381
 6986W        W11186   9.333   5.563   4.798  0.0218  0.0942 -0.2631
 6987W        W11187   6.462   8.821   8.785  0.3523 -0.2447  0.0656
 6988W        W11188   0.204  10.484   1.991 -0.2222  0.1046 -0.1774
 6989W        W11189   4.948   7.798   0.692  0.3380 -0.0944 -0.1198
 6990W        W11190   9.532   2.898   3.942  0.0342  0.2492  0.4051
 6991W        W11191  10.316  10.560  11.903 -0.0249  0.4275  0.1548
 6992W        W11192   3.474   7.394   9.477  0.3909  0.2601  0.0144
 6993W        W11193   1.437   6.339   0.166  0.0719 -0.1945 -0.1199
 6994W        W11194   1.011   1.496   8.869 -0.1321  0.0432 -0.2044
 6995W        W11195   5.975   9.713  11.324 -0.1038  0.2257 -0.0269
 6996W        W11196   7.974   5.782   9.556 -0.0248 -0.1623 -0.0706
 6997W        W11197   8.573   5.558   0.439 -0.0154 -0.0136 -0.1040
 6998W        W11198   7.839   4.009   9.537  0.2592 -0.1668 -0.1387
 6999W        W11199   2.195   8.134   3.463 -0.4195  0.0488  0.0988
 7000W        W11200   9.232   7.261   3.426 -0.0466 -0.1221  0.0147
 7001W        W11201   4.077   4.066   2.524  0.1055  0.0095 -0.2904
 7002W        W11202   0.305   2.004   9.611 -0.1920 -0.1635  0.2046
 7003W        W11203   0.672   8.592  12.790  0.2677  0.1372  0.0765
 7004W        W11204   1.147   3.012  12.240  0.1697  0.1293 -0.0516
 7005W        W11205   0.092   3.609  10.811  0.1043  0.0330 -0.0701
 7006W        W11206   7.498   2.727   0.667 -0.1254  0.2180  0.0701
 7007W        W11207   8.270   2.902   1.354 -0.2337  0.3045 -0.1650
 7008W        W11208   2.298   8.422  11.613  0.0668  0.0121 -0.1236
 7009W        W11209   7.997   0.433   1.113 -0.2754  0.1582  0.2739
 7010W        W11210   5.948   4.410   2.571  0.0037  0.1937  0.0099
 7011W        W11211   9.767   5.826   3.461  0.0182  0.2579  0.1472
 7012W        W11212   2.726   7.008   0.015 -0.0087  0.0867  0.0149
 7013W        W11213   1.396  10.451  11.893  0.0601 -0.0382  0.0971
 7014W        W11214   5.382   7.161   3.362 -0.1608  0.2132  0.0368
 7015W        W11215   2.756   8.485   7.536  0.0392 -0.2186  0.0067
 7016W        W11216   9.223   2.904  12.178  0.1110 -0.1023 -0.4772
 7017W        W11217   9.833   9.693  10.279  0.0258  0.1383 -0.0044
 7018W        W11218   7.825  10.554   9.172  0.1291  0.1989 -0.0060
 7019W        W11219   5.563   6.311  12.037  0.3634 -0.1775  0.1354
 7020W        W11220   1.490   5.003   2.910  0.0026 -0.0777 -0.1742
 7021W        W11221   4.241   6.963   0.894 -0.1683 -0.1463  0.0596
 7022W        W11222   3.232   1.708  12.702 -0.2175  0.0055  0.0208
 7023W        W11223   4.918   0.537   1.727 -0.1134 -0.5372 -0.1514
 7024W        W11224   6.481   1.577   4.346 -0.0508  0.0364  0.0332
 7025W        W11225   3.027   4.618   9.352  0.1604  0.2964  0.4335
 7026W        W11226   3.131   3.409   3.372  0.0389 -0.0665  0.1201
 7027W        W11227   6.078   1.888   2.475 -0.2040 -0.4372  0.3321
 7028W        W11228   3.831   3.370  10.389  0.0921  0.1260  0.1669
 7029W        W11229   2.474   0.187   8.493 -0.0338  0.5049 -0.2181
 7030W        W11230   6.133   1.926   0.004 -0.0785  0.2752 -0.1276
 7031W        W11231   6.977   2.865   8.360 -0.0231  0.1854  0.0018
 7032W        W11232   7.620   3.397   3.789 -0.3636  0.2194 -0.0678
 7033W        W11233   5.897   8.053   9.402  0.0522  0.0960  0.4644
 7034W        W11234   0.662   3.740   0.447  0.1646  0.1132 -0.1637
 7035W        W11235  10.443   4.487  10.048 -0.2410 -0.2075 -0.2135
 7036W        W11236   5.494   9.557   8.312 -0.0199  0.1198 -0.4161
 7037W        W11237   7.184   3.172   0.322  0.0523  0.0164 -0.3479
 7038W        W11238  10.308   1.513   9.756  0.1891  0.1563  0.3090
 7039W        W11239   2.706   2.150   2.695 -0.1854  0.3755 -0.1967
 7040W        W11240   7.030   1.768   8.463  0.1453 -0.2050  0.1840
 7041W        W11241   9.936   6.524   1.657  0.2022 -0.0437  0.0421
 7042W        W11242   5.981   3.531   9.678 -0.0722  0.1207  0.0816
 7043W        W11243  10.051   1.073   0.834  0.0108  0.1525 -0.0947
 7044W        W11244   0.450   0.676   8.851 -0.1623  0.3073 -0.1059
 7045W        W11245   1.591   5.480   2.864  0.6289  0.1467  0.1542
 7046W        W11246   9.488  10.205  12.074  0.0010  0.0019 -0.0268
 7047W        W11247   3.576   8.280  12.819  0.1765 -0.1152 -0.0282
 7048W        W11248   7.985  10.655   2.065 -0.1979 -0.1929 -0.0957
 7049W        W11249   3.089   1.829   3.482  0.1334 -0.3215  0.0131
 7050W        W11250   7.286   3.944   4.962  0.1671  0.1454 -0.1162
 7051W        W11251   9.144   7.066  10.765 -0.1834  0.1019 -0.1305
 7052W        W11252  10.643   1.098   9.788 -0.1271 -0.1215  0.1001
 7053W        W11253   6.899   2.813   3.177  0.1958 -0.0039 -0.1159
 7054W        W11254   5.257   7.521   1.371  0.1201  0.2147 -0.1220
 7055W        W11255   3.146   2.302  10.664 -0.4734 -0.1290 -0.2254
 7056W        W11256   5.297   3.270  12.093  0.1437 -0.0608  0.0295
 7057W        W11257   6.445   0.255   2.684  0.0106  0.0826  0.0377
 7058W        W11258   4.921   9.186   3.922 -0.1765 -0.0834  0.1308
 7059W        W11259   1.833   1.879   8.322  0.1687 -0.3261  0.1854
 7060W        W11260   2.126   2.366  10.200 -0.1726  0.2301 -0.0641
 7061W        W11261   0.094   7.664   9.600  0.0005 -0.0286  0.2723
 7062W        W11262   1.959   6.871   3.211  0.0160  0.1391 -0.1332
 7063W        W11263   4.480   4.345  11.537 -0.2879  0.2860 -0.1548
 7064W        W11264   2.145   9.347  11.668 -0.0918 -0.0170  0.1302
 7065W        W11265   2.086   8.179   9.720 -0.2142 -0.0301  0.1993
 7066W        W11266   4.427   7.457   3.409 -0.0281  0.0057  0.1251
 7067W        W11267   2.589   2.254   7.741 -0.2639  0.1226  0.0181
 7068W        W11268   5.472   4.652   2.204 -0.3152  0.0286  0.0465
 7069W        W11269   4.718   2.309  10.713  0.0641 -0.1575 -0.1962
 7070W        W11270   0.921   6.036  10.270 -0.1583 -0.3488  0.2375
 7071W        W11271   2.289   5.955  11.728 -0.1536  0.4229 -0.1587
 7072W        W11272   8.894   9.998  11.693 -0.3709 -0.0776 -0.3643
 7073W        W11273   8.364   9.932   3.154 -0.0651  0.3227  0.1864
 7074W        W11274   3.551   2.866  12.755  0.1166 -0.1537 -0.0455
 7075W        W11275   7.173   3.566   4.558 -0.0273 -0.0956  0.3332
 7076W        W11276  10.380   2.796  11.482  0.1097  0.1208 -0.0232
 7077W        W11277   7.423   4.205  11.080  0.1089  0.3184 -0.2485
 7078W        W11278   5.428   8.280  12.550  0.0923 -0.0046  0.1056
 7079W        W11279   9.166   0.658   1.214  0.1554 -0.0300 -0.2462
 7080W        W11280   4.148   0.159   8.400 -0.2716 -0.1632 -0.2111
 7081W        W11281   5.343   6.909   8.312  0.1606  0.1702 -0.1787
 7082W        W11282   1.385   7.377  11.775  0.0885  0.0965  0.3932
 7083W        W11283   3.008   1.820   2.421  0.3789  0.1077 -0.0794
 7084W        W11284   0.631   4.732  12.431 -0.3455  0.1227 -0.2422
 7085W        W11285   9.130   8.391   0.284 -0.2633  0.5746  0.0098
 7086W        W11286   8.420   9.489   8.111  0.0467  0.0356  0.2137
 7087W        W11287   0.363   2.411   0.149 -0.0235 -0.2371  0.0053
 7088W        W11288   1.996   1.847  11.677  0.1978 -0.1265 -0.3272
 7089W        W11289   7.703   8.946  10.004  0.0133 -0.3386  0.0412
 7090W        W11290   2.332   3.825   2.941 -0.2167 -0.1263 -0.2399
 7091W        W11291   9.303  10.357   2.839  0.0976  0.0202 -0.2085
 7092W        W11292   8.617   1.793  11.692 -0.0890 -0.2568 -0.0026
 7093W        W11293   4.097   4.370   8.007  0.2998  0.4206 -0.0161
 7094W        W11294   1.444   1.102   8.503 -0.1873 -0.1103 -0.2904
 7095W        W11295   8.319   6.513   8.877  0.2439  0.0587 -0.0318
 7096W        W11296   2.761   6.814   2.870 -0.0673 -0.0185 -0.0885
 7097W        W11297   0.571   4.026   0.003 -0.0226 -0.2490 -0.3357
 7098W        W11298   6.901   8.181   8.974  0.2899 -0.1535 -0.0968
 7099W        W11299   6.661   0.609  12.188 -0.1409 -0.2107  0.0259
 7100W        W11300   7.316   0.223  11.072 -0.1894 -0.0882  0.3537
 7101W        W11301   4.699   0.950   0.735 -0.3447  0.1653 -0.0105
 7102W        W11302   3.117   2.257   1.639  0.1881  0.1447 -0.2069
 7103W        W11303   6.914   4.289   1.337 -0.1104  0.0719 -0.0837
 7104W        W11304   8.328   7.051   9.575  0.0798 -0.1897 -0.2239
 7105W        W11305   2.023   1.586   9.738 -0.1488  0.0478  0.0692
 7106W        W11306   9.728   8.562   8.874  0.1295 -0.0900  0.0438
 7107W        W11307   6.685   6.859   9.954 -0.2450 -0.3166  0.1976
 7108W        W11308   5.501   5.648   3.542 -0.0101  0.1290 -0.2480
 7109W        W11309   9.252   2.912   3.332 -0.1031  0.0163  0.0932
 7110W        W11310   0.332   5.553   9.435  0.1900 -0.2704  0.1678
 7111W        W11311   3.929   6.667   3.693  0.3348 -0.0184 -0.0793
 7112W        W11312   4.831   5.431   9.371  0.1245 -0.1794 -0.3392
 7113W        W11313   3.152   9.033  11.440  0.0327 -0.0623 -0.1251
 7114W        W11314   9.584   7.000   2.551 -0.1142  0.2798  0.1894
 7115W        W11315   7.659   2.980   4.542  0.4340  0.2862  0.0553
 7116W        W11316   8.615   2.229  11.361 -0.1046  0.0486 -0.1068
 7117W        W11317  10.124   0.989   9.603 -0.0650  0.0559  0.0453
 7118W        W11318   0.030   9.705   7.219 -0.0036 -0.0516 -0.0276
 7119W        W11319   0.930   5.856   2.766 -0.2992 -0.0334  0.2375
 7120W        W11320   0.260   2.934  12.338 -0.3660 -0.3248 -0.2117
 7121W        W11321   2.724   8.208   3.398  0.1299  0.2446  0.0815
 7122W        W11322   9.628   3.260   4.370 -0.2916 -0.0730 -0.0988
 7123W        W11323   1.081   8.782   0.078  0.1678 -0.0445  0.0504
 7124W        W11324   2.961   5.156  12.911 -0.0860 -0.0799 -0.0469
 7125W        W11325   6.975   0.791   9.870 -0.0434  0.1690  0.2488
 7126W        W11326   8.069   9.515   9.239 -0.3502  0.0499 -0.1228
 7127W        W11327   1.798  10.417  11.561 -0.3230 -0.1020  0.3104
 7128W        W11328   4.331   7.627   1.700  0.1222 -0.0730  0.2198
 7129W        W11329   8.049   9.282   0.974  0.1768  0.0491  0.0478
 7130W        W11330   5.532   8.609   8.623  0.1383  0.1432  0.1664
 7131W        W11331   3.883   5.191   9.057  0.0315 -0.1426 -0.1261
 7132W        W11332   9.335   7.602  11.375  0.1632  0.2539  0.1363
 7133W        W11333   3.402   6.642   3.606  0.0196 -0.0523  0.0577
 7134W        W11334   6.340   6.851  11.062  0.2502 -0.1549 -0.1104
 7135W        W11335   0.996   6.273  10.751 -0.4492  0.0127  0.0675
 7136W        W11336   7.776   0.230   3.054 -0.1781  0.1377 -0.0114
 7137W        W11337   1.600   4.201  10.926 -0.0247  0.2706  0.1470
 7138W        W11338   4.099   3.646  12.273  0.1686 -0.0743 -0.0749
 7139W        W11339   1.684   8.313   1.904 -0.4722  0.1431 -0.1015
 7140W        W11340   0.347   7.939  10.938  0.0179  0.0820  0.3052
 7141W        W11341   8.172   8.207  11.594  0.1099 -0.0885 -0.0368
 7142W        W11342  10.173   4.106   4.006  0.0267 -0.0697 -0.1181
 7143W        W11343   7.627   0.460   0.633  0.2297 -0.1374 -0.0944
 7144W        W11344   0.129   1.823  11.786 -0.4863 -0.0139 -0.3160
 7145W        W11345   6.341   6.696   8.418 -0.3352 -0.1780  0.0063
 7146W        W11346   7.836   6.859   3.253 -0.2166 -0.1502  0.3234
 7147W        W11347   7.588   2.888  10.747 -0.0483  0.1203  0.1644
 7148W        W11348   7.787   7.124   9.294 -0.0115  0.4740 -0.2450
 7149W        W11349   3.923   4.147  10.180  0.0125 -0.0596 -0.1863
 7150W        W11350   5.434   8.875   1.307 -0.0200  0.0636  0.3186
 7151W        W11351   9.390   9.344  11.034  0.0947  0.0785 -0.3580
 7152W        W11352   3.527   0.395  10.626  0.1786  0.1080  0.1254
 7153W        W11353   5.470  10.651  11.458  0.0958  0.0168 -0.1464
 7154W        W11354   8.375   9.637   1.828 -0.0752  0.0021 -0.0728
 7155W        W11355  10.501   6.929  11.798  0.0383 -0.0324  0.0622
 7156W        W11356   1.818   4.686   1.996 -0.0878 -0.0600  0.0114
 7157W        W11357   1.533   3.014  11.497  0.0790 -0.1230 -0.2253
 7158W        W11358   5.524   7.081  12.002  0.0309  0.1463 -0.0138
 7159W        W11359   3.590   2.890   9.537  0.1550  0.1141 -0.3313
 7160W        W11360   8.614   2.504   9.552  0.0392  0.0061 -0.0012
 7161W        W11361   0.152   1.337   8.685  0.2926  0.1826 -0.2740
 7162W        W11362   6.180   3.925   4.798  0.0195  0.1720 -0.0561
 7163W        W11363   2.101   1.335   0.668 -0.3508  0.2158 -0.3115
 7164W        W11364   5.799   8.941  12.912 -0.0041  0.3044  0.1539
 7165W        W11365   0.366   0.597   9.475  0.3108  0.1760  0.3741
 7166W        W11366   8.792   8.648  12.285 -0.1188 -0.2984 -0.0759
 7167W        W11367   7.877   2.266  11.103  0.3590 -0.1522 -0.1592
 7168W        W11368   4.453   4.053   3.937 -0.0448 -0.0780 -0.2387
 7169W        W11369   5.848   8.044  10.298  0.0798  0.1643  0.2844
 7170W        W11370  10.403   7.662   3.003 -0.0244  0.1366 -0.0458
 7171W        W11371   1.782   5.836  10.224 -0.0192  0.3268 -0.0636
 7172W        W11372   5.631   6.592   0.909 -0.1471  0.2055 -0.0695
 7173W        W11373   5.374   2.514  12.633 -0.0717 -0.4518  0.1246
 7174W        W11374   9.477   7.386  11.883 -0.0472 -0.1576  0.1303
 7175W        W11375  10.529   1.349   9.203 -0.0174 -0.2564  0.1503
 7176W        W11376   5.511   5.466   4.017 -0.1902  0.0259 -0.1870
 7177W        W11377   6.563   2.849   0.996 -0.2060 -0.0077  0.2952
 7178W        W11378   0.000  10.140   9.217  0.0407 -0.1676 -0.1323
 7179W        W11379   4.708   0.691   1.195 -0.2884 -0.0013 -0.0797
 7180W        W11380   3.327   4.533  11.873  0.1261 -0.1854  0.1847
 7181W        W11381   6.833   9.160  12.572 -0.0878  0.2858  0.2324
 7182W        W11382   2.832  10.423  10.763  0.0066 -0.1573 -0.0278
 7183W        W11383   1.730   9.696   9.927  0.1652  0.3133 -0.3535
 7184W        W11384   9.564   5.801   3.026  0.1651  0.0408  0.1206
 7185W        W11385   5.978   0.918  11.555 -0.0600  0.0959 -0.1798
 7186W        W11386   8.542   3.803  10.519 -0.1126 -0.1040 -0.0547
 7187W        W11387   7.993   7.387   1.762  0.0609 -0.1198 -0.0356
 7188W        W11388   9.154   5.888  11.774  0.0629  0.1975 -0.1726
 7189W        W11389   8.575   6.008   2.676  0.2978  0.0586  0.2372
 7190W        W11390   0.022  10.188   8.694 -0.1562 -0.2231  0.2962
 7191W        W11391   8.798   7.315  12.703  0.1059  0.0231  0.1328
 7192W        W11392   6.908   8.754  12.897  0.0356 -0.0725 -0.0181
 7193W        W11393   8.428   4.063   9.908 -0.2402  0.1001  0.0328
 7194W        W11394   9.779   9.467   2.300 -0.0709  0.0359  0.2318
 7195W        W11395   9.943   9.677   8.820 -0.2508  0.0945 -0.2383
 7196W        W11396   8.926   0.078   1.177  0.1934 -0.1276  0.0944
 7197W        W11397   2.266   8.957   8.403  0.1048  0.1458  0.2340
 7198W        W11398   3.159   8.584   0.426 -0.1371 -0.1372  0.0928
 7199W        W11399   4.216   6.669   2.818 -0.1954 -0.1582 -0.2541
 7200W        W11400  10.013   3.389   1.908  0.1709  0.0337 -0.0083
 7201W        W11401   4.288   6.587   8.423  0.1589  0.0993  0.1836
 7202W        W11402   5.476   4.025  12.481  0.0301  0.1131  0.1751
 7203W        W11403   0.542   4.555  11.421  0.1675  0.0297 -0.2312
 7204W        W11404  10.440   4.113   9.549  0.1262  0.1852 -0.2523
 7205W        W11405   2.799   5.533   9.666 -0.0946 -0.0063  0.1019
 7206W        W11406  10.609   0.448  10.346 -0.4700 -0.2666 -0.0434
 7207W        W11407   3.300   0.742  12.237 -0.1766 -0.1812 -0.0178
 7208W        W11408   1.263   2.088   1.078  0.0346 -0.0327 -0.0781
 7209W        W11409   2.261   7.527   3.927  0.0022  0.1403 -0.1739
 7210W        W11410   5.748   5.813  12.128 -0.1005  0.1590  0.1352
 7211W        W11411   4.016   7.624   3.271 -0.0492 -0.0953 -0.1024
 7212W        W11412   1.099   8.563  10.031  0.0431  0.2025  0.1933
 7213W        W11413   6.308   7.154   0.804  0.0567  0.0453  0.0978
 7214W        W11414   1.639   2.040  11.240 -0.2160  0.0723  0.1430
 7215W        W11415   8.580   8.341   3.119  0.2724  0.1250  0.1160
 7216W        W11416   3.242   1.850   9.322  0.0056 -0.1861 -0.1418
 7217W        W11417   2.856   1.959  10.881  0.0610  0.2723 -0.0977
 7218W        W11418   7.497   0.661   1.128 -0.1249  0.3938 -0.2048
 7219W        W11419   7.415   9.321   8.335  0.0839  0.1460 -0.2264
 7220W        W11420   9.674   7.215  10.169  0.4401  0.0656 -0.0242
 7221W        W11421   0.429   1.632  12.447  0.0570  0.2501 -0.1955
 7222W        W11422   7.542   4.811   0.792  0.1686 -0.0589 -0.1361
 7223W        W11423   8.923   9.687   8.103 -0.0086 -0.1247 -0.1200
 7224W        W11424   6.690   8.698  12.409  0.1298  0.0568 -0.2836
 7225W        W11425   5.775   7.502   9.977  0.0808  0.0589  0.0361
 7226W        W11426  10.021   4.497   9.736 -0.1681  0.4914  0.0038
 7227W        W11427   1.814   7.578  12.407  0.0489 -0.2136  0.2968
 7228W        W11428   6.832   1.752   9.527 -0.0892  0.0645  0.3450
 7229W        W11429   0.993   0.748   0.214 -0.0739  0.3942  0.1560
 7230W        W11430  10.690   2.992   8.698  0.0493 -0.1133 -0.1954
 7231W        W11431  10.228   1.992  11.325  0.0892 -0.3350 -0.0420
 7232W        W11432   5.892   2.626  12.908  0.4235  0.1303  0.0208
 7233W        W11433  10.304   6.054   1.189 -0.1332 -0.0530  0.2907
 7234W        W11434   2.632   0.400   1.036  0.1188  0.2240  0.0832
 7235W        W11435   3.687   5.703  12.653  0.3222 -0.3431  0.0076
 7236W        W11436   8.276   5.650   8.562 -0.0430 -0.0776 -0.3212
 7237W        W11437   4.476   2.327   2.912  0.2777  0.0423  0.0392
 7238W        W11438   8.979   8.971   9.248  0.2541  0.1976 -0.3384
 7239W        W11439   7.677  10.584  12.021  0.0894 -0.0856  0.0425
 7240W        W11440   5.712   9.041   0.469 -0.1144 -0.1806  0.2237
 7241W        W11441   9.637   0.131   2.973 -0.0875 -0.0156  0.0358
 7242W        W11442   5.353   8.166   0.148  0.3399 -0.1163 -0.0633
 7243W        W11443   9.929   1.562  10.299  0.2022 -0.0673 -0.2290
 7244W        W11444   0.692   9.952   0.665  0.1955 -0.2334 -0.1410
 7245W        W11445   2.024   0.018  12.469 -0.0716  0.0220 -0.1027
 7246W        W11446   5.303   4.336   1.799  0.2080 -0.1044  0.1370
 7247W        W11447   2.133   0.018   8.076 -0.1109 -0.4395 -0.0351
 7248W        W11448   1.946   1.397   1.248  0.1096 -0.3663  0.0513
 7249W        W11449   9.689   6.860  12.756  0.0338 -0.0550  0.2195
 7250W        W11450   1.824   7.372  10.123  0.1235 -0.2374  0.2570
 7251W        W11451   9.700   7.720   9.435 -0.1017  0.0450  0.0465
 7252W        W11452   7.262   9.626  11.365  0.1547  0.2314 -0.0095
 7253W        W11453   6.802   1.271   9.595  0.0790  0.2922 -0.0832
 7254W        W11454   3.774   4.035   2.065  0.1774 -0.2019 -0.0826
 7255W        W11455  10.594  10.492   1.062 -0.0023  0.0035  0.1184
 7256W        W11456   3.910   5.373  11.789  0.1602 -0.1785  0.0159
 7257W        W11457   2.657   8.591   8.431  0.1396 -0.0274 -0.3787
 7258W        W11458   6.783   4.343   4.112 -0.0515  0.1573 -0.0930
 7259W        W11459   8.359  10.175  11.484  0.0469  0.0428 -0.4348
 7260W        W11460   4.612   7.283  10.528 -0.2941  0.1240  0.1294
 7261W        W11461   6.263   8.960   8.260 -0.0719 -0.1337  0.0263
 7262W        W11462   2.735  10.405  12.889 -0.0696  0.0625 -0.1268
 7263W        W11463   3.755   1.250   9.081  0.0609 -0.0690  0.1298
 7264W        W11464   5.991   9.070   3.482 -0.1899 -0.0832 -0.0464
 7265W        W11465   6.228  10.211   8.821  0.3598  0.2151 -0.1375
 7266W        W11466   6.334   8.991   0.726  0.2501  0.1504  0.0294
 7267W        W11467   5.868   3.786  10.487  0.0567 -0.0399  0.0569
 7268W        W11468   9.075   9.032  11.793  0.2168  0.0112  0.1041
 7269W        W11469   7.170   6.435   8.437  0.0236 -0.1547 -0.3816
 7270W        W11470   5.895   2.807  10.894 -0.1777  0.0137 -0.0628
 7271W        W11471   7.504   7.266  11.597 -0.0496 -0.0910  0.3866
 7272W        W11472   8.606   4.242  12.280  0.2789  0.0343  0.0013
 7273W        W11473   0.909   7.322   2.193 -0.1091 -0.1076 -0.0053
 7274W        W11474  10.095   0.451   2.657 -0.0101  0.3946 -0.2647
 7275W        W11475  10.189   6.359   9.628 -0.0919  0.0781 -0.3512
 7276W        W11476   4.072   6.674   1.289  0.0035 -0.2240 -0.0143
 7277W        W11477  10.341   1.780  11.775 -0.2117 -0.2833 -0.1439
 7278W        W11478  10.485   5.780   4.044  0.0910 -0.4136  0.0460
 7279W        W11479   3.511   0.004  11.461 -0.3400  0.2080  0.0124
 7280W        W11480   3.703   8.131   9.069  0.3533 -0.0383 -0.1429
 7281W        W11481   8.301   1.141   0.974  0.0034  0.1163 -0.1667
 7282W        W11482   9.854   3.683   0.225 -0.2150  0.0679  0.1982
 7283W        W11483   6.205   3.996   3.154  0.2517  0.1859 -0.3446
 7284W        W11484   2.873   6.472  12.606 -0.0554 -0.3746  0.0794
 7285W        W11485   5.863   4.549  11.576 -0.1509  0.0338  0.3830
 7286W        W11486   3.780   2.853  11.309 -0.1237  0.3162 -0.0488
 7287W        W11487   4.632   7.757   8.488  0.1038  0.0595  0.0188
 7288W        W11488   9.643   2.710   2.973  0.1728  0.0080  0.2049
 7289W        W11489   2.942   2.767   2.180 -0.3382 -0.0805  0.3959
 7290W        W11490   7.912   5.004  10.944  0.0783  0.1385  0.0029
 7291W        W11491   8.540   8.357  10.932 -0.0912 -0.1176  0.0852
 7292W        W11492   6.503   2.353  10.066 -0.1105  0.1414  0.0758
 7293W        W11493   1.462   9.113   8.681  0.4677 -0.1593 -0.0014
 7294W        W11494   9.233   1.644   1.662 -0.1318  0.2861 -0.0412
 7295W        W11495   3.575   3.733   3.477  0.0132  0.2274 -0.3994
 7296W        W11496   7.025   3.749  10.718 -0.2024 -0.0445 -0.3115
 7297W        W11497   2.213   5.728   0.568  0.0906 -0.1710 -0.0291
 7298W        W11498   6.211   8.524   0.458  0.0537 -0.0546  0.0714
 7299W        W11499   7.374   7.699  11.195  0.0739  0.0280 -0.4644
 7300W        W11500   4.694   4.087   8.590 -0.0114  0.3158  0.0169
 7301W        W11501   6.608   1.760   3.931  0.1208  0.2499 -0.0210
 7302W        W11502   1.724   6.801  10.304  0.2763  0.2836 -0.0941
 7303W        W11503   5.077   6.144   7.766  0.0414  0.1051 -0.0250
 7304W        W11504   3.316   6.269   9.175 -0.0630 -0.0644  0.1048
 7305W        W11505   3.904   5.680  10.498 -0.1929  0.2738  0.0344
 7306W        W11506   8.522   2.254  10.653  0.3055 -0.2050 -0.0230
 7307W        W11507   1.188   0.516  11.321 -0.0169 -0.1964  0.1103
 7308W        W11508   3.572   4.124   3.738  0.1831  0.1186  0.0193
 7309W        W11509   8.120  10.377   9.648  0.1379  0.2518  0.1748
 7310W        W11510   6.552  10.100   1.457 -0.0691 -0.0717  0.1288
 7311W        W11511   6.134   5.647  12.430  0.1107  0.0233  0.3318
 7312W        W11512   7.238   3.344  12.260  0.0819  0.1521 -0.2477
 7313W        W11513   6.005   5.223   1.941  0.3532 -0.1060  0.0549
 7314W        W11514   2.739   6.945  10.061  0.0088  0.1207 -0.3110
 7315W        W11515   1.206   8.061  12.442  0.0687 -0.1384 -0.0713
 7316W        W11516   7.003   6.438  10.298 -0.0781  0.1389 -0.1609
 7317W        W11517   7.395   1.057  12.590 -0.0105 -0.3587  0.5605
 7318W        W11518   8.111  10.644  10.619  0.0413 -0.2640  0.1402
 7319W        W11519   4.576   8.697   8.371 -0.0265  0.1379  0.4251
 7320W        W11520   8.046   6.369  11.538  0.2053 -0.1375 -0.1625
 7321W        W11521   6.721   7.564  10.508  0.0279  0.1842  0.1080
 7322W        W11522   3.167   6.173  10.306 -0.1873 -0.0923  0.0272
 7323W        W11523   7.236   1.458   3.246  0.0444  0.0553  0.0403
 7324W        W11524   5.898   3.284  12.078 -0.0163  0.0650  0.0562
 7325W        W11525   7.420   2.136   0.577 -0.1901 -0.1332  0.0402
 7326W        W11526   4.924   4.491  11.235  0.0719 -0.1967  0.0355
 7327W        W11527   5.439   2.202   0.729  0.1967  0.1833 -0.3281
 7328W        W11528   7.519   4.012   3.129  0.1057  0.0670 -0.1242
 7329W        W11529   3.975   5.384   2.124 -0.4613  0.3336  0.0827
 7330W        W11530  10.255   7.850  10.102  0.0636  0.0845  0.4111
 7331W        W11531   5.314   8.177   8.388  0.3187  0.1861 -0.1093
 7332W        W11532   8.648   6.936   1.131  0.1498 -0.0644 -0.0065
 7333W        W11533   7.866   4.484  11.699  0.3008  0.1148  0.1539
 7334W        W11534   0.851   3.892   1.938 -0.2214 -0.1054 -0.0069
 7335W        W11535   9.337   4.951   0.808 -0.3165  0.1177 -0.1498
 7336W        W11536   6.153   0.445  12.154  0.1469 -0.1656  0.1010
 7337W        W11537   7.465   7.514   1.102 -0.1543  0.1572  0.1862
 7338W        W11538   6.910  10.393   4.470 -0.2156  0.1230  0.0785
 7339W        W11539   3.605   5.389   9.472 -0.1693 -0.0822  0.1602
 7340W        W11540   6.721   7.765  12.844  0.0835  0.0434 -0.5234
 7341W        W11541   9.185   5.727  10.317  0.0607  0.0800 -0.5463
 7342W        W11542  10.216   9.097  10.679  0.0386 -0.0552  0.1272
 7343W        W11543   7.542   2.216   3.039 -0.3555  0.4940  0.2362
 7344W        W11544   8.630   1.871   5.139 -0.3141 -0.0317  0.1859
 7345W        W11545   4.566   2.911   3.519  0.0330 -0.2340  0.2356
 7346W        W11546   4.074   2.714   2.586 -0.0416 -0.5010 -0.1970
 7347W        W11547   7.586   2.381  10.579  0.1400  0.0213  0.1655
 7348W        W11548   3.922   5.907   2.345 -0.1896 -0.1538 -0.3574
 7349W        W11549   9.886   4.834   9.073 -0.3639 -0.0445  0.1217
 7350W        W11550   7.149   3.841  12.235 -0.5256  0.1519  0.1989
 7351W        W11551   0.935  10.160   9.507 -0.0501 -0.1283  0.0370
 7352W        W11552   1.783   3.016   9.318  0.3507 -0.0040 -0.1425
 7353W        W11553   5.672   0.805   9.337 -0.1150  0.0278  0.1182
 7354W        W11554   5.112   3.641  12.453 -0.2268  0.0692 -0.0897
 7355W        W11555   2.632   6.790   1.937  0.0590 -0.1209  0.0749
 7356W        W11556   0.094   0.412  11.597  0.1858 -0.0737  0.3842
 7357W        W11557   0.959   3.212  11.729  0.1135  0.1297 -0.2881
 7358W        W11558   0.837   5.863   5.018  0.0992 -0.0073 -0.1031
 7359W        W11559   6.733   0.358   0.760  0.1560  0.1782 -0.0459
 7360W        W11560   4.386   2.783   2.174  0.1551 -0.0047 -0.1152
 7361W        W11561   0.805   9.641   2.889  0.1199 -0.2876  0.3662
 7362W        W11562   1.472   7.220   0.900  0.1674  0.0505  0.2140
 7363W        W11563   5.970   9.587   8.671  0.2872  0.1633  0.1210
 7364W        W11564   5.481   5.779  10.098  0.4228 -0.0759 -0.1110
 7365W        W11565   2.084   2.982   1.774 -0.1349 -0.0816  0.0292
 7366W        W11566   5.414   8.385   2.811  0.2175 -0.1482 -0.0125
 7367W        W11567   0.717   1.220  10.739 -0.1641  0.0991 -0.0120
 7368W        W11568   4.536   8.818   4.586 -0.2513  0.2609  0.0046
 7369W        W11569   5.284   5.189   3.454 -0.0778  0.0364  0.2137
 7370W        W11570   6.439   8.121   9.723 -0.2526  0.1907 -0.0051
 7371W        W11571   5.799   2.654  12.404  0.2444 -0.1743 -0.0699
 7372W        W11572   8.976   8.629   3.251  0.1706  0.1533 -0.4479
 7373W        W11573   2.799   9.359  10.645  0.0170  0.1149  0.1849
 7374W        W11574   1.059   0.172   0.626  0.0102 -0.1396 -0.0319
 7375W        W11575   1.888   5.737   0.961 -0.0828 -0.1115  0.3669
 7376W        W11576   8.821   4.186  10.213 -0.3124  0.3840 -0.2875
 7377W        W11577   4.020   6.476   0.361  0.0741  0.0167  0.1960
 7378W        W11578   5.011   5.756   3.307 -0.2207 -0.3608 -0.1798
 7379W        W11579   4.284   9.426   0.551  0.4160  0.1536 -0.0835
 7380W        W11580   7.251   8.420   4.011 -0.0378 -0.1944  0.2061
 7381W        W11581   2.941   0.491   2.113 -0.0338  0.1228 -0.1294
 7382W        W11582   9.932   4.146  11.852  0.3449 -0.2060 -0.0149
 7383W        W11583   0.539  10.605  12.874 -0.0352  0.1107 -0.2569
 7384W        W11584   1.528   4.855  12.472 -0.0935  0.2332  0.1320
 7385W        W11585   2.757   8.493   0.172 -0.0261  0.1780 -0.0077
 7386W        W11586   2.755   7.513   9.378 -0.4764  0.1578 -0.0871
 7387W        W11587   2.431   0.746   1.810 -0.1849 -0.0857  0.2608
 7388W        W11588   6.999   7.517   8.195  0.1279  0.0755  0.2294
 7389W        W11589   0.031   2.189   8.384  0.2091  0.0796  0.0050
 7390W        W11590   3.770   6.219  10.541 -0.3681 -0.0200  0.1960
 7391W        W11591   6.278   7.359   1.283 -0.0883  0.0912 -0.1528
 7392W        W11592   9.299   0.602   8.988  0.0768  0.3665  0.1575
 7393W        W11593   6.828   2.541   1.277  0.5547 -0.2541 -0.1072
 7394W        W11594   8.566   0.425  11.678 -0.0576  0.0485  0.1923
 7395W        W11595   6.126   3.003  11.241 -0.1656  0.0060 -0.2592
 7396W        W11596   2.170   6.995   2.002  0.0684  0.1053 -0.1240
 7397W        W11597   6.062   1.887   8.848 -0.2026  0.1359  0.1281
 7398W        W11598   9.066   2.752   3.930  0.0043  0.3115 -0.0277
 7399W        W11599  10.000  10.306   3.329  0.0342 -0.1099 -0.0044
 7400W        W11600   5.308   8.284   2.252 -0.1157 -0.2292 -0.1975
 7401W        W11601   4.068   4.890  11.709  0.0231  0.1252 -0.1289
 7402W        W11602   3.944   4.272   1.559 -0.0815  0.0703 -0.1511
 7403W        W11603   1.582   9.799   1.243  0.0716 -0.1302  0.2933
 7404W        W11604   6.818   2.869   7.874  0.1921  0.0023 -0.0705
 7405W        W11605   8.951   2.198  11.716  0.2069  0.1196  0.0457
 7406W        W11606   5.514   5.132   2.252 -0.2247 -0.2160  0.0001
 7407W        W11607   2.176   9.486   2.379 -0.0515  0.4722 -0.1648
 7408W        W11608   3.602   5.107   3.549 -0.0570 -0.1149 -0.1599
 7409W        W11609   8.391  10.459  10.200  0.0464 -0.0991 -0.2151
 7410W        W11610   6.436   4.471   1.123  0.1297 -0.1214  0.2042
 7411W        W11611   9.842   9.407   3.313 -0.0665 -0.1734 -0.1318
 7412W        W11612   4.561   9.824  10.228  0.0638 -0.0706 -0.2502
 7413W        W11613   0.779   8.404  12.313  0.0794  0.0030 -0.1598
 7414W        W11614   9.325   3.991  10.109  0.4446 -0.1045  0.1390
 7415W        W11615  10.587   9.155   1.454  0.1596  0.1869  0.2086
 7416W        W11616   9.118   2.495   3.504 -0.1618  0.0145 -0.1970
 7417W        W11617   8.357   9.426  10.994  0.2741 -0.2645  0.1972
 7418W        W11618   4.136   4.003  11.807 -0.3760 -0.2118 -0.0973
 7419W        W11619   9.949   8.948   8.397  0.1974  0.3497 -0.2424
 7420W        W11620   2.995   1.505   0.240 -0.1150 -0.2861  0.1726
 7421W        W11621   4.659  10.191   0.597 -0.1623  0.1220 -0.2115
 7422W        W11622   9.376   4.983   3.606 -0.1607  0.0333 -0.2890
 7423W        W11623   9.788   9.426   9.240  0.0290  0.0714  0.2468
 7424W        W11624   6.637  10.506   1.848 -0.1702 -0.2077 -0.0166
 7425W        W11625   6.678   7.510   0.994 -0.2106 -0.2629  0.0090
 7426W        W11626   7.267   9.227  10.154  0.2901 -0.0813 -0.0439
 7427W        W11627   5.791   5.953  10.448 -0.0389 -0.5250 -0.1331
 7428W        W11628   0.796   3.171  12.610  0.0011 -0.0488 -0.3646
 7429W        W11629   7.880   3.141   1.485 -0.0066 -0.1237  0.1859
 7430W        W11630   6.760  10.166   9.480  0.2849  0.0012 -0.1409
 7431W        W11631   6.238   1.398   8.859 -0.0430 -0.1153 -0.2466
 7432W        W11632  10.678   8.741   9.907  0.0899 -0.0166 -0.0879
 7433W        W11633   7.805   1.574  11.649  0.0038 -0.2904 -0.0897
 7434W        W11634   7.752   0.443   4.261 -0.0108  0.0301 -0.1928
 7435W        W11635   9.220   8.413  10.961 -0.2047  0.2835 -0.0829
 7436W        W11636  10.246   7.273  11.409 -0.1336  0.4116 -0.0080
 7437W        W11637   6.171   6.908   8.047 -0.1901  0.1658 -0.0247
 7438W        W11638   1.322   0.833   9.019  0.0845  0.3046  0.1737
 7439W        W11639   1.438   6.941  10.818  0.0027  0.2543 -0.4027
 7440W        W11640   3.353   4.184   1.850 -0.1413  0.2975 -0.3685
 7441W        W11641   9.940   2.390   3.154  0.1241  0.3944  0.0225
 7442W        W11642   1.190   9.370   7.236  0.0935  0.2822  0.0630
 7443W        W11643  10.006   2.787   2.020  0.2529 -0.2904 -0.2872
 7444W        W11644   0.563   4.221  12.118 -0.0367 -0.1138  0.3222
 7445W        W11645   3.619   8.714   0.242  0.0103 -0.2181 -0.0160
 7446W        W11646   9.701   1.693  12.235 -0.0822 -0.0972  0.2045
 7447W        W11647   9.203   7.097   8.860  0.1762  0.0138  0.1012
 7448W        W11648   8.450   2.295   1.004  0.0856 -0.0772 -0.0344
 7449W        W11649   9.751   0.454   1.853 -0.1761  0.0276  0.3242
 7450W        W11650   2.213   0.373  11.072  0.1723 -0.1447  0.2040
 7451W        W11651  10.324   0.907   0.419  0.2487  0.2642 -0.0133
 7452W        W11652   1.213   5.165  11.507 -0.0519 -0.3741 -0.1738
 7453W        W11653   5.363   3.554   2.099 -0.1447  0.0790 -0.0531
 7454W        W11654   7.780   4.196   1.073 -0.0654 -0.1537  0.1312
 7455W        W11655   6.451   7.109  10.353  0.2429  0.0507  0.3448
 7456W        W11656   5.412   3.063   3.126  0.0310 -0.6082 -0.2400
 7457W        W11657   6.162   9.074  10.329  0.0449 -0.0529 -0.1298
 7458W        W11658   7.908   7.183  12.739 -0.1051  0.1618 -0.1019
 7459W        W11659  10.370   9.860   0.105  0.1030 -0.0641  0.1497
 7460W        W11660   6.883   3.229   0.840  0.0295 -0.2481  0.0801
 7461W        W11661   9.352   1.327  10.061  0.1968 -0.0717  0.0027
 7462W        W11662  10.359   5.791   2.010  0.1340 -0.0069  0.1503
 7463W        W11663   2.560   2.885   8.522 -0.4499  0.0074 -0.0193
 7464W        W11664   9.784   0.930   3.444  0.1580 -0.0690 -0.2538
 7465W        W11665   7.902   9.061  11.064  0.0364  0.1055 -0.0853
 7466W        W11666   8.068   9.589   8.518 -0.0020  0.2171  0.0866
 7467W        W11667   8.985   1.409  10.870 -0.1970  0.0696  0.3339
 7468W        W11668   1.443   5.450  10.315  0.3277  0.2546 -0.0440
 7469W        W11669   8.653   3.652  10.078 -0.1564 -0.1186 -0.1512
 7470W        W11670   5.019   8.065  11.150  0.1029  0.2183 -0.2370
 7471W        W11671   6.684  10.391   1.031 -0.3172  0.1061  0.0503
 7472W        W11672   3.303   1.146   0.189  0.0344  0.0733 -0.2089
 7473W        W11673   9.904   3.866   1.180  0.0858  0.0143 -0.0103
 7474W        W11674   1.169   6.723   1.414  0.0719  0.5647  0.0173
 7475W        W11675   0.737   7.446  11.144 -0.3144 -0.1732  0.1520
 7476W        W11676   9.309  10.692   0.320  0.1143 -0.0610 -0.0805
 7477W        W11677   8.356   8.304   0.965 -0.0653  0.0598 -0.0662
 7478W        W11678   2.567   2.971   2.572 -0.3464 -0.2145  0.0557
 7479W        W11679   8.120   9.596   2.247 -0.1603  0.4890 -0.0848
 7480W        W11680   9.917   4.453   0.685 -0.0809  0.1324 -0.0936
 7481W        W11681   9.101   7.068  11.275  0.0878 -0.0205 -0.2614
 7482W        W11682  10.465   7.748  12.779  0.0390 -0.1202 -0.1187
 7483W        W11683   4.492   8.803   1.451 -0.1302  0.0100  0.0885
 7484W        W11684   9.391   7.993  10.430 -0.0977  0.2323 -0.3934
 7485W        W11685   1.486   8.117   1.210  0.0526 -0.0029 -0.1556
 7486W        W11686   4.009   0.272  10.263 -0.0855 -0.3101 -0.0998
 7487W        W11687   3.721   1.592  12.427 -0.0269  0.1049 -0.4815
 7488W        W11688   1.205   2.131   1.591  0.1214  0.0593 -0.0002
 7489W        W11689   0.836   4.293   4.264 -0.2847 -0.2931  0.0316
 7490W        W11690   0.344   5.445  12.851  0.2498  0.2289  0.0714
 7491W        W11691   5.558   9.206  11.199  0.0576  0.0308  0.0304
 7492W        W11692   3.042   7.980  10.246 -0.1287 -0.0909  0.1137
 7493W        W11693   9.378   4.054  11.925 -0.2507  0.1931  0.1896
 7494W        W11694   7.956   5.324   3.213 -0.0575 -0.2258  0.0217
 7495W        W11695   5.266   8.849  11.042  0.0161  0.2837  0.2469
 7496W        W11696   2.503   4.542   9.260 -0.2237 -0.1334  0.0125
 7497W        W11697   0.365   0.899  11.636 -0.0676 -0.1492 -0.0098
 7498W        W11698   7.086   5.861   0.162 -0.0479 -0.1819 -0.1060
 7499W        W11699   4.174   2.915   1.736 -0.0458  0.0130  0.2093
 7500W        W11700   3.453   0.637   2.109 -0.0183 -0.1344 -0.1216
 7501W        W11701   4.541   5.590   3.328 -0.2929  0.0123  0.1403
 7502W        W11702   0.454   9.203   2.902  0.4787 -0.2502 -0.1173
 7503W        W11703   6.634  10.321   8.519 -0.3633 -0.0471  0.0703
 7504W        W11704   0.977   8.812   3.176  0.1219  0.1659  0.1860
 7505W        W11705   7.404   9.083  11.392 -0.1244 -0.0612 -0.1157
 7506W        W11706   9.798  10.396   8.419  0.0371  0.3975 -0.0587
 7507W        W11707   5.541   5.596   8.247 -0.0029  0.1667  0.0168
 7508W        W11708   7.445   5.990   1.990 -0.1426  0.0004  0.3338
 7509W        W11709   4.564   5.023   3.578  0.1434  0.2153  0.2306
 7510W        W11710   6.545   9.855   1.029 -0.0595  0.0343 -0.0499
 7511W        W11711   7.214   7.876  10.339  0.0515  0.0368  0.1645
 7512W        W11712   0.005   8.982  11.809 -0.0292  0.0717 -0.2308
 7513W        W11713   2.676   1.257   1.849 -0.0199  0.0379 -0.0714
 7514W        W11714   0.682   2.753  12.329  0.2121  0.0166  0.0733
 7515W        W11715  10.377  10.493  10.580  0.0587 -0.1557 -0.2428
 7516W        W11716   7.455   3.617  11.845 -0.0688  0.0328  0.0520
 7517W        W11717   5.571   9.622   2.313  0.1579 -0.2459  0.1795
 7518W        W11718  10.078   6.074  10.404 -0.3078 -0.0965  0.1247
 7519W        W11719   6.188   4.632   0.587  0.2266 -0.3523 -0.3209
 7520W        W11720   0.207   9.435   0.171  0.4557  0.0579  0.2172
 7521W        W11721   0.182   5.436  10.293 -0.0423  0.0312  0.0662
 7522W        W11722   4.360   7.152   2.581  0.0604  0.0943  0.1273
 7523W        W11723   4.844   7.370   1.094 -0.3807  0.0907  0.0072
 7524W        W11724   4.159   9.427   3.551 -0.2131  0.0180  0.1332
 7525W        W11725   3.849   9.294   8.057 -0.0142  0.4478  0.1454
 7526W        W11726   1.702   8.685   0.586  0.2444 -0.1220  0.2097
 7527W        W11727   8.289   3.881  12.357  0.3573  0.0537  0.0453
 7528W        W11728   5.702   8.397  11.605  0.1149  0.1206  0.0393
 7529W        W11729   8.760   8.737  10.164 -0.2452 -0.0579  0.0129
 7530W        W11730   2.869   7.364   1.166 -0.1994  0.0942 -0.0664
 7531W        W11731   0.577   1.856   2.945  0.0683  0.0448 -0.1429
 7532W        W11732   1.093   8.459   3.492 -0.0404 -0.0205 -0.1868
 7533W        W11733   7.893   1.779  10.139  0.0187 -0.1264 -0.1581
 7534W        W11734   5.695   2.601   0.627 -0.0315  0.1726  0.1422
 7535W        W11735   0.615   4.183   1.048  0.1539 -0.1556 -0.2030
 7536W        W11736   0.536   4.663   2.165  0.0664  0.1990 -0.0253
 7537W        W11737   5.907  10.247  12.642 -0.0320  0.2397 -0.3265
 7538W        W11738   5.515   7.923  12.251 -0.1460  0.1043  0.1706
 7539W        W11739   9.996   0.144  10.606 -0.2729 -0.3185 -0.0483
 7540W        W11740   4.727   1.546   3.264 -0.0254 -0.2174  0.0688
 7541W        W11741   1.196   9.295   2.986 -0.1418 -0.1482 -0.1893
 7542W        W11742   4.068   8.120  10.024  0.1830 -0.0198 -0.2091
 7543W        W11743   8.267   4.353   0.612 -0.0609  0.0669 -0.2495
 7544W        W11744   9.553   0.984   2.018 -0.2831 -0.1516 -0.2169
 7545W        W11745   6.586   6.111   1.473  0.1969  0.1792 -0.1220
 7546W        W11746   3.622   7.695   0.107  0.0090 -0.1535  0.1618
 7547W        W11747   7.167   5.204   9.593  0.0042 -0.2443  0.0641
 7548W        W11748  10.194   1.737   3.210  0.3105  0.2588 -0.0871
 7549W        W11749   2.727   7.901   2.014 -0.2770 -0.0944  0.0428
 7550W        W11750   5.526   5.098  11.445  0.1308 -0.3633  0.1189
 7551W        W11751   0.137  10.291  11.505 -0.1464  0.2596  0.0923
 7552W        W11752   9.266   4.961   4.128 -0.1055  0.0284 -0.0086
 7553W        W11753   8.732   6.127  12.549  0.0688 -0.1039  0.1037
 7554W        W11754   4.265   0.100   3.877 -0.1379 -0.0143  0.1476
 7555W        W11755   3.727   1.032   9.555 -0.1509 -0.2064 -0.2229
 7556W        W11756   3.792   0.805   3.163 -0.1227  0.0439  0.1246
 7557W        W11757   7.062   2.204   3.133 -0.0115 -0.0657  0.2265
 7558W        W11758   0.199   8.405   2.588  0.0676 -0.3210  0.0582
 7559W        W11759   3.567   3.510   1.234  0.3274 -0.3253  0.1114
 7560W        W11760   6.933   9.295  11.678  0.1743  0.0990 -0.0853
 7561W        W11761  10.363   5.221  10.467  0.0075  0.0788 -0.1262
 7562W        W11762   1.635   1.579   9.975  0.2033 -0.1083  0.1878
 7563W        W11763   3.589   1.725   3.681 -0.0899 -0.1759 -0.1776
 7564W        W11764   2.561   7.798   1.154 -0.0900 -0.1882  0.0725
 7565W        W11765   9.760   6.577   2.363  0.1060  0.0338  0.0644
 7566W        W11766   7.153   5.164   4.035  0.2316 -0.3978  0.0502
 7567W        W11767   0.334   2.380   9.252 -0.0628 -0.0698 -0.2012
 7568W        W11768   3.883   2.573   1.069 -0.0191 -0.1389  0.0268
 7569W        W11769   0.595   6.272   2.811  0.1130 -0.0639  0.0406
 7570W        W11770   9.849   3.470   3.215 -0.2663  0.0567 -0.1790
 7571W        W11771   5.601  10.259  11.949 -0.1423  0.1415  0.0128
 7572W        W11772   4.090   5.467  12.499  0.1480  0.1009 -0.0270
 7573W        W11773   2.693   2.690   8.976  0.1225  0.3689  0.2374
 7574W        W11774   4.826   5.979  12.876 -0.1299  0.0497  0.1707
 7575W        W11775   2.275   7.756   3.066  0.0800 -0.0466 -0.0124
 7576W        W11776   3.741   9.099   0.875  0.1254 -0.0355  0.2400
 7577W        W11777   5.446   9.700  11.336 -0.1443 -0.0540  0.0627
 7578W        W11778  10.664   0.292   3.818 -0.2552 -0.1014 -0.0345
 7579W        W11779  10.659   7.106  10.309 -0.0828 -0.3817  0.1415
 7580W        W11780   3.438   0.948  10.441  0.0294  0.1992  0.0868
 7581W        W11781   2.937   2.995   1.300  0.0091 -0.2550 -0.1634
 7582W        W11782   6.021   9.211  12.132  0.0484 -0.0203 -0.0270
 7583W        W11783   1.798   6.841   2.341 -0.2443  0.0898 -0.1822
 7584W        W11784   1.484   6.336  10.172 -0.1882  0.0663 -0.0636
 7585W        W11785   8.480   3.838  11.789  0.0462  0.1690  0.1972
 7586W        W11786   6.660   8.668  11.322  0.1115 -0.4802  0.1366
 7587W        W11787   9.052   5.504   1.057  0.1118  0.0654  0.3734
 7588W        W11788   5.637   0.658   8.720  0.1748  0.1905 -0.2071
 7589W        W11789   5.070   6.033  10.440  0.1607 -0.1348 -0.0495
 7590W        W11790   1.707   0.678   8.758  0.2423 -0.1508 -0.1410
 7591W        W11791  10.577   7.730  12.267  0.2121 -0.0501 -0.0232
 7592W        W11792   8.611   4.294   3.730  0.1273 -0.1163 -0.0221
 7593W        W11793   4.113   7.163   3.084 -0.3230  0.0001 -0.3653
 7594W        W11794   3.459  10.526   3.101 -0.1496 -0.2127 -0.2323
 7595W        W11795   4.529   0.079   8.764 -0.3277  0.0936  0.0021
 7596W        W11796   8.579   4.475  11.631 -0.1572  0.2863  0.2164
 7597W        W11797   9.639   8.605   1.606 -0.0740  0.0948  0.1395
 7598W        W11798   8.149   9.895  10.092 -0.1846 -0.1397 -0.0056
 7599W        W11799   0.960   0.303  10.117 -0.0603  0.2719  0.0728
 7600W        W11800   7.224   8.568   2.194 -0.1068 -0.1228 -0.1518
 7601W        W11801   1.467   6.191   1.576 -0.2337 -0.3396 -0.1547
 7602W        W11802   4.326   4.715   9.538  0.1105  0.0833  0.1499
 7603W        W11803   8.114   5.025  10.011  0.0977  0.2078 -0.0569
 7604W        W11804   4.715   6.728  12.237  0.3556 -0.3225  0.1175
 7605W        W11805   7.099   1.414  10.015 -0.0317 -0.0849  0.1343
 7606W        W11806  10.014  10.677   9.160  0.2487 -0.2342 -0.3111
 7607W        W11807   9.365   6.627   1.570 -0.0652 -0.2500  0.1082
 7608W        W11808   4.985   5.008   2.142 -0.2306 -0.1220 -0.2637
 7609W        W11809   9.232   6.491  10.581  0.3075 -0.0878  0.3660
 7610W        W11810   2.878   5.418   3.086  0.0459 -0.3067 -0.3978
 7611W        W11811   5.739   7.669   1.394 -0.0030 -0.1339  0.1031
 7612W        W11812   8.912  10.076   3.083  0.2044  0.0670  0.0836
 7613W        W11813   8.118   5.514   3.610 -0.3104  0.3814  0.2848
 7614W        W11814   6.251   4.457   9.437  0.1891 -0.2747  0.2108
 7615W        W11815   6.005   1.964   1.158 -0.0879  0.0605  0.3458
 7616W        W11816   4.479   7.098   9.699 -0.0493  0.0768  0.0369
 7617W        W11817   7.974   3.156  10.459  0.0583 -0.2317  0.1604
 7618W        W11818   3.707   3.781   1.625 -0.2500 -0.1231  0.0325
 7619W        W11819   7.901   8.366   0.613 -0.2074 -0.4296  0.2283
 7620W        W11820   4.811  10.393   8.809 -0.1903 -0.2615 -0.1409
 7621W        W11821  10.247   1.317  12.908  0.0696  0.1420 -0.1782
 7622W        W11822   2.428   8.697   2.813  0.1785  0.2084  0.2685
 7623W        W11823   2.806   8.367   0.707 -0.2811 -0.0269  0.0420
 7624W        W11824   8.646   2.441   3.939  0.3433 -0.0891  0.2988
 7625W        W11825   2.644   9.144   1.565  0.1887 -0.0664  0.1258
 7626W        W11826   7.788   0.056   8.505 -0.3094  0.6345  0.2203
 7627W        W11827   2.254   2.098  12.079  0.1871  0.0703  0.1192
 7628W        W11828   0.907   2.313   0.807  0.1137  0.0335  0.0604
 7629W        W11829   1.118   2.647   1.693  0.0718  0.2229 -0.0265
 7630W        W11830   4.560   2.965   9.418  0.0737  0.0434 -0.0521
 7631W        W11831   3.985   2.174  11.034 -0.0237  0.0734  0.0517
 7632W        W11832   4.379   5.707   0.181  0.0389 -0.0299  0.1431
 7633W        W11833   2.850   4.362  10.203  0.0546  0.0278 -0.0663
 7634W        W11834   9.453   6.352   0.179 -0.0755  0.1744 -0.2497
 7635W        W11835   6.712   8.181  11.674 -0.0251 -0.2767  0.0654
 7636W        W11836   7.641   1.398   7.895  0.3725 -0.0407  0.0778
 7637W        W11837   6.911   1.983   0.453  0.1453  0.1279 -0.0835
 7638W        W11838   4.630   6.005   2.973  0.0395  0.2336  0.0696
 7639W        W11839   8.859   1.224  11.315  0.1282  0.1850  0.0648
 7640W        W11840   2.871   1.289  10.389  0.1250 -0.1005 -0.1211
 7641W        W11841   8.932   0.550   1.703 -0.0909  0.1759 -0.2943
 7642W        W11842   4.409   5.257   9.192  0.4145 -0.0941 -0.4857
 7643W        W11843   0.616   0.237   9.758  0.1041  0.1336 -0.3603
 7644W        W11844   3.910   3.468  11.084  0.2029 -0.0940  0.0515
 7645W        W11845  10.586   7.873  10.996 -0.0504  0.1914  0.0252
 7646W        W11846   3.664  10.673   2.667  0.0558  0.2495  0.0368
 7647W        W11847   3.207   6.415  11.232  0.1755 -0.1511  0.5200
 7648W        W11848   0.243   7.993   9.249  0.4418 -0.0018 -0.0107
 7649W        W11849   0.159   8.516   1.602 -0.0077 -0.1881 -0.0041
 7650W        W11850   5.862   7.532  12.071  0.0385 -0.1027  0.1984
 7651W        W11851   8.419   7.320   0.088 -0.2017  0.0278 -0.1132
 7652W        W11852   7.054   5.103   2.968  0.2335  0.0508 -0.2082
 7653W        W11853   8.295   1.452  11.527 -0.0239 -0.2171 -0.1910
 7654W        W11854   8.901   9.031   2.056  0.1542 -0.1460  0.2721
 7655W        W11855   1.257   3.357  12.713  0.0244 -0.0840 -0.1168
 7656W        W11856   9.111   1.752   1.142  0.2833  0.1183 -0.0075
 7657W        W11857   4.052  10.519   9.888 -0.3184 -0.2740 -0.0747
 7658W        W11858   2.597   0.650   8.679 -0.1818  0.0753  0.3693
 7659W        W11859  10.563   6.787   9.558  0.1524  0.0476 -0.0324
 7660W        W11860   1.700  10.652  10.167  0.1427 -0.1952  0.2107
 7661W        W11861   9.281   5.996  12.391  0.1786  0.0249 -0.0081
 7662W        W11862   3.814   9.932   9.127 -0.2125 -0.1151  0.1480
 7663W        W11863   5.894  10.029   3.433  0.0006 -0.1640 -0.2651
 7664W        W11864   3.961   4.788   3.262 -0.1295 -0.0378 -0.0187
 7665W        W11865   4.070   3.329   2.909 -0.3487  0.0288 -0.1649
 7666W        W11866   8.264   3.054  12.358  0.2379 -0.2038  0.1643
 7667W        W11867   3.345   3.499  10.625 -0.0259  0.0096  0.1770
 7668W        W11868   1.442   3.367  11.920 -0.3193  0.0839  0.0188
 7669W        W11869  10.329   6.876   8.538  0.0674  0.0872  0.0263
 7670W        W11870   9.732   1.494   2.084  0.0003  0.2311  0.2789
 7671W        W11871   8.261   6.783   2.964 -0.2624  0.1875 -0.1684
 7672W        W11872   9.834   1.429   8.756  0.1469 -0.1906 -0.1028
 7673W        W11873   6.976   2.804   4.051 -0.1588  0.0202  0.1839
 7674W        W11874   8.576   4.582   8.737 -0.0849 -0.1742 -0.1723
 7675W        W11875   3.716   4.399   0.115 -0.1326  0.1430  0.1429
 7676W        W11876   3.815   2.050   1.765 -0.0544 -0.2463 -0.2247
 7677W        W11877   3.322   7.287   2.278 -0.2686 -0.1663 -0.0913
 7678W        W11878   6.110   5.396   1.079 -0.2812 -0.0523 -0.0040
 7679W        W11879   6.366   1.973  10.421 -0.0005 -0.1072  0.0166
 7680W        W11880  10.139   6.847   2.274 -0.0078 -0.2427  0.0012
 7681W        W11881   4.650   3.204  11.035  0.0235 -0.1591 -0.1049
 7682W        W11882   1.521   1.340  12.334  0.3153 -0.3395  0.0665
 7683W        W11883   6.301   1.467   9.570  0.0294  0.1719  0.1489
 7684W        W11884   9.023   3.692   3.275  0.0731  0.2393 -0.0129
 7685W        W11885   8.040   1.805  12.763  0.0278 -0.0392 -0.2447
 7686W        W11886   9.003   3.305   9.257  0.3809 -0.0538 -0.3312
 7687W        W11887   5.958   6.622   8.958  0.0174  0.2262 -0.3507
 7688W        W11888   4.299   1.334   4.049  0.1079 -0.1784  0.1968
 7689W        W11889   2.518   9.875   0.812 -0.1985 -0.0974  0.2681
 7690W        W11890   6.623   5.471   2.832  0.3392 -0.1764 -0.1289
 7691W        W11891   4.680   7.867   2.012  0.0637 -0.0908  0.0683
 7692W        W11892   4.309   3.413  10.686 -0.2330 -0.0346  0.0993
 7693W        W11893   2.635   0.992   9.836  0.0145  0.2429 -0.0982
 7694W        W11894   4.769   4.535   9.585  0.1015 -0.5161 -0.0777
 7695W        W11895   2.892   9.295   9.696  0.2953  0.1893  0.0851
 7696W        W11896   8.428   0.318  10.380  0.1714  0.1598 -0.4125
 7697W        W11897   2.867   2.211   2.145  0.1715 -0.2116  0.1988
 7698W        W11898   7.522   9.970  11.163  0.1798 -0.1617  0.1333
 7699W        W11899   6.343   0.748   1.796 -0.2563  0.3596 -0.0184
 7700W        W11900   1.217   4.176   9.497 -0.3437 -0.1351  0.1626
 7701W        W11901   5.852   1.582   0.269 -0.0460 -0.1718 -0.0088
 7702W        W11902   9.894  10.094  10.735 -0.1847 -0.2744  0.0059
 7703W        W11903   9.448   0.495  11.336  0.0236 -0.1085 -0.0092
 7704W        W11904   7.955   3.716   3.359 -0.1809  0.0351 -0.2642
 7705W        W11905   4.132   9.055  11.045 -0.2054  0.1395  0.1720
 7706W        W11906   5.611   3.762   9.942  0.0040 -0.0746  0.1360
 7707W        W11907   7.295   9.905  12.840  0.0766  0.0460  0.0034
 7708W        W11908  10.143   6.491  10.758 -0.0394  0.1139  0.1718
 7709W        W11909   1.902   6.415   9.800  0.0478  0.1194 -0.2072
 7710W        W11910   5.435   7.726   9.038 -0.1438  0.0138  0.0449
 7711W        W11911   6.465   9.313  11.199 -0.0970 -0.0759 -0.2176
 7712W        W11912  10.320   6.890  11.033  0.3495 -0.0533  0.0472
 7713W        W11913   8.215   7.079   8.066  0.1378  0.2475  0.0450
 7714W        W11914   7.467   8.066   0.847 -0.2915  0.0447 -0.3345
 7715W        W11915   2.882   7.444  11.230  0.3164 -0.0445  0.3830
 7716W        W11916   1.147   2.067   2.104 -0.3382  0.2886 -0.1589
 7717W        W11917   5.366   9.285   3.756  0.3302  0.2527 -0.1289
 7718W        W11918   1.466   8.878   9.839 -0.1210  0.2202 -0.0086
 7719W        W11919   0.986   2.010   9.702  0.2095 -0.0888 -0.0569
 7720W        W11920   0.387   1.859   1.662  0.2410 -0.0373  0.0823
 7721W        W11921  10.033   0.703  10.465 -0.0943  0.1392 -0.0294
 7722W        W11922   8.034   8.417  11.125  0.0303  0.1411 -0.0911
 7723W        W11923   8.187   3.509   2.246 -0.1476 -0.0524  0.2439
 7724W        W11924   9.251   5.452  12.603  0.2430  0.1269  0.0496
 7725W        W11925   5.957   0.426   0.988 -0.0376 -0.1017  0.2709
 7726W        W11926   4.645   4.948  11.957 -0.3089 -0.4078 -0.3113
 7727W        W11927   1.963   8.830   3.171  0.3809 -0.1406  0.1484
 7728W        W11928   4.785   0.264  12.853  0.0573  0.2065 -0.0196
 7729W        W11929   7.024   3.812   3.290 -0.3036 -0.0853 -0.0855
 7730W        W11930   9.248   5.506   3.872 -0.0246  0.4128  0.2845
 7731W        W11931  10.237   9.628   2.144  0.0332  0.2058  0.2055
 7732W        W11932   9.673   5.146   1.160 -0.0799 -0.1202 -0.0915
 7733W        W11933   1.651   1.836   1.351 -0.1572  0.1942 -0.0920
 7734W        W11934   8.049   9.119   3.394  0.1190  0.0215 -0.1191
 7735W        W11935   7.531   6.916  10.616 -0.0617  0.0761  0.4441
 7736W        W11936   2.450   7.279   3.021  0.1699  0.1176 -0.1447
 7737W        W11937   8.445   2.108   2.174 -0.1377 -0.1764 -0.0373
 7738W        W11938   7.922   5.561  12.486  0.0740  0.0671  0.2095
 7739W        W11939  10.697   4.733   2.108 -0.1115 -0.0493 -0.3037
 7740W        W11940   0.597   8.353  10.003 -0.1285 -0.4253 -0.1425
 7741W        W11941   4.504   2.045   9.072 -0.1783  0.2355 -0.0371
 7742W        W11942   8.812   0.998   2.239  0.0337  0.0873 -0.0482
 7743W        W11943   3.969  10.485  11.554 -0.2157  0.1005  0.0338
 7744W        W11944   5.909   9.172   2.879  0.0691  0.2200  0.0735
 7745W        W11945   0.303   6.058   9.387  0.0170 -0.0512 -0.2866
 7746W        W11946   1.372   4.221   0.659 -0.3409 -0.1891  0.0255
 7747W        W11947   0.207  10.564   8.955 -0.0533  0.1355 -0.1191
 7748W        W11948   1.189   4.088   2.360  0.0719  0.0151 -0.1301
 7749W        W11949   8.713   2.725   1.207  0.2063 -0.3317  0.1098
 7750W        W11950   9.112   6.944   2.012 -0.0644  0.0503 -0.0256
 7751W        W11951   4.947   4.006  11.459 -0.2224  0.1024  0.2701
 7752W        W11952   2.851  10.434  10.207  0.4236  0.1341 -0.1814
 7753W        W11953   1.115   9.318   0.038  0.2444 -0.1300  0.0836
 7754W        W11954   8.678   1.690   2.994  0.1153  0.1867 -0.0427
 7755W        W11955   7.769   4.235   2.696  0.0613  0.4005 -0.0988
 7756W        W11956   3.075   6.049   8.329 -0.1473 -0.1261 -0.0174
 7757W        W11957   8.412   6.031   9.825  0.1860 -0.0247 -0.2877
 7758W        W11958   4.146   9.043   8.840  0.3660  0.2077  0.1920
 7759W        W11959   1.395  10.296   9.729  0.0154  0.1181  0.2289
 7760W        W11960   3.563   3.375   2.917 -0.1137 -0.0871  0.1704
 7761W        W11961   0.491   1.820  10.240  0.1038 -0.1413  0.0751
 7762W        W11962   7.247   4.819   9.925  0.1137 -0.0260 -0.1334
 7763W        W11963   0.151   1.675   8.283 -0.1483 -0.1125 -0.0410
 7764W        W11964   6.025   5.637  10.175  0.1081 -0.0995 -0.0189
 7765W        W11965   0.823   9.390   2.040 -0.0867 -0.0380 -0.1421
 7766W        W11966   3.821   9.917   1.364  0.1691 -0.1472  0.0307
 7767W        W11967   4.029   7.862   1.347  0.0151 -0.1275  0.0069
 7768W        W11968   0.611   1.832  12.020 -0.0296 -0.0728 -0.0208
 7769W        W11969   1.216   5.354  12.738 -0.0258  0.2341 -0.0307
 7770W        W11970   0.608   2.378  12.611 -0.2814  0.2275 -0.1221
 7771W        W11971   4.479   7.550   9.420  0.1087 -0.1025 -0.0192
 7772W        W11972   2.831   4.955  10.883  0.2620 -0.0556  0.1257
 7773W        W11973   7.624   5.267   3.829  0.0863 -0.2230 -0.1253
 7774W        W11974   2.270   8.568  12.843 -0.3382 -0.0949  0.2897
 7775W        W11975   4.873   2.706  10.957  0.1008 -0.0871 -0.1019
 7776W        W11976   1.107   0.186   4.428  0.3601  0.0086  0.1158
 7777W        W11977   8.046   5.814  10.117  0.2032 -0.0806  0.0418
 7778W        W11978   2.908   6.773   0.921 -0.1954  0.1619 -0.1500
 7779W        W11979   9.880   8.855   3.274 -0.0417  0.0602 -0.0985
 7780W        W11980   4.003   4.695   0.576  0.0224  0.1025 -0.0484
 7781W        W11981   7.729   9.945   2.232 -0.4087 -0.2200 -0.1818
 7782W        W11982   7.399   5.841  11.271  0.0204  0.4827  0.0153
 7783W        W11983   9.133   7.959   9.110 -0.0244  0.3092 -0.1822
 7784W        W11984   2.711   0.766   3.135  0.2355 -0.1304  0.0789
 7785W        W11985   2.088   9.097   2.780  0.1005  0.0933  0.1324
 7786W        W11986   0.646   3.418  10.971 -0.1663  0.0364  0.0107
 7787W        W11987   9.600   8.604  10.535  0.2505  0.1013 -0.3432
 7788W        W11988   3.696   7.403  11.588  0.1367  0.2150 -0.1040
 7789W        W11989   2.833   1.733   1.969  0.2165 -0.1602 -0.2282
 7790W        W11990   3.815   7.680   1.908  0.1133  0.0263 -0.3323
 7791W        W11991   6.226   2.366   9.593  0.0956 -0.1697 -0.1198
 7792W        W11992   8.959   6.935   2.996  0.4619  0.1662  0.1328
 7793W        W11993   0.597   4.297   1.708 -0.1729  0.3665 -0.3463
 7794W        W11994   0.737   5.201  12.433  0.1114 -0.2125 -0.1461
 7795W        W11995   3.820   6.123   9.073  0.1063 -0.2241  0.1174
 7796W        W11996   7.838  10.084   9.237  0.0420 -0.1900 -0.3034
 7797W        W11997   8.883  10.509   1.621  0.0943 -0.0293  0.1092
 7798W        W11998   3.629   5.606   2.649 -0.0297 -0.3780 -0.0584
 7799W        W11999   2.512   4.237   9.708  0.0074  0.4849 -0.2183
 7800W        W12000   6.127   2.278   8.323 -0.1065  0.1398 -0.0765
 7801W        W12001   5.763   8.455   3.105  0.3501 -0.1199  0.1228
 7802W        W12002   5.113   4.085   4.342 -0.0171 -0.0716 -0.0353
 7803W        W12003   1.008   3.463   3.543 -0.1018  0.1716  0.1676
 7804W        W12004   9.288   9.228   0.377 -0.1613  0.2243 -0.0686
 7805W        W12005   7.414   7.465   1.748  0.2475 -0.1936 -0.1057
 7806W        W12006   8.164   4.820  11.397  0.0608 -0.4561 -0.0106
 7807W        W12007   7.345   7.487   2.357  0.1991 -0.0180  0.1909
 7808W        W12008   7.364   8.570  12.328  0.0542  0.0859 -0.5527
 7809W        W12009   6.378   8.192  10.225  0.2826  0.3031 -0.0715
 7810W        W12010   1.672   0.028   9.634 -0.0445 -0.1107  0.1207
 7811W        W12011   8.879   5.933   0.621 -0.1883  0.0640  0.0655
 7812W        W12012   0.530   2.771  11.852 -0.1268  0.3914  0.2657
 7813W        W12013   4.646   5.050  12.425 -0.0091  0.5253  0.1687
 7814W        W12014   2.490  10.063   8.964 -0.0022  0.1549 -0.0223
 7815W        W12015   2.895   0.930   4.073  0.0323 -0.0678  0.1176
 7816W        W12016  10.417   8.808   0.350  0.0486  0.0601  0.0402
 7817W        W12017   2.681   9.201  11.718 -0.0187  0.0474  0.1195
 7818W        W12018   5.300   5.977   0.127 -0.0619  0.1410 -0.0730
 7819W        W12019   9.681   0.305  12.381 -0.0514  0.0158  0.2825
 7820W        W12020   6.643   8.599   0.688  0.1065 -0.2318  0.0461
 7821W        W12021   5.814   0.723   3.436 -0.2551 -0.2000  0.0141
 7822W        W12022   4.800   2.188  11.241  0.1343  0.0233 -0.0930
 7823W        W12023   4.951   0.747  10.571 -0.1008 -0.3085 -0.2000
 7824W        W12024   3.384   0.244   0.435  0.0758 -0.0926  0.1969
 7825W        W12025   8.163   7.494   9.396 -0.1475 -0.1313  0.0268
 7826W        W12026   1.159   9.775  12.781  0.1415 -0.0254  0.1378
 7827W        W12027   0.976   9.846   8.296  0.1274  0.0381  0.0264
 7828W        W12028   1.899  10.346   9.410 -0.1057 -0.1046 -0.0567
 7829W        W12029  10.208   2.855   0.681 -0.2373  0.2451  0.0928
 7830W        W12030   1.446   1.623   8.573 -0.1745  0.2170  0.0196
 7831W        W12031   2.819   8.925   0.553  0.0833  0.2142  0.1067
 7832W        W12032   9.598   6.846  10.506 -0.2306  0.2928 -0.0398
 7833W        W12033   2.648   5.166  10.073 -0.0324  0.3278  0.0461
 7834W        W12034   6.916   0.815   9.284  0.2916 -0.0700  0.2464
 7835W        W12035   2.402   3.916   2.026 -0.1719 -0.2347 -0.1892
 7836W        W12036   3.782   9.696   2.939 -0.0680  0.0427  0.0555
 7837W        W12037   9.942   4.501   2.219  0.0895  0.0454 -0.0490
 7838W        W12038   8.687   8.528  11.402  0.2384  0.3904 -0.0145
 7839W        W12039   3.483   4.769   3.148  0.3234  0.0077 -0.1651
 7840W        W12040   1.607   5.027   9.746 -0.0983  0.0680  0.0727
 7841W        W12041   6.795   7.835  10.071  0.1555  0.1072  0.1770
 7842W        W12042   8.983   4.006   9.785 -0.3819 -0.1728  0.0394
 7843W        W12043   0.716   2.062   1.291 -0.2429  0.0615 -0.0144
 7844W        W12044   7.232   4.060   9.710 -0.0816 -0.1243  0.2280
 7845W        W12045   2.335  10.236   1.195 -0.0566 -0.0061  0.0213
 7846W        W12046   1.435   0.796   2.986  0.0988 -0.0875 -0.1863
 7847W        W12047   1.825   0.781  10.528 -0.2471 -0.1012 -0.0573
 7848W        W12048   1.746   9.392  11.394 -0.1037  0.0586 -0.0455
 7849W        W12049   4.644   8.461   4.312  0.1689  0.0110  0.2432
 7850W        W12050   1.904   6.594   1.888 -0.0660 -0.1053 -0.2906
 7851W        W12051   6.520  10.401   2.551 -0.1097  0.2893  0.2216
 7852W        W12052   0.060   5.212   4.277  0.4040 -0.1613 -0.1562
 7853W        W12053   0.844   3.100   0.223 -0.0951  0.0422  0.2159
 7854W        W12054   2.252   1.691  12.433 -0.1140  0.1777 -0.1569
 7855W        W12055   0.793   1.659   3.345 -0.1139  0.1009 -0.0092
 7856W        W12056   1.833   4.546  11.802  0.1431 -0.2465 -0.1573
 7857W        W12057   3.316   5.253   0.429  0.1373  0.1406 -0.0313
 7858W        W12058   1.433   5.962   9.854 -0.2680 -0.1039  0.1698
 7859W        W12059   1.742   9.258   1.902 -0.0293 -0.2724 -0.0654
 7860W        W12060   8.408   9.907  11.983  0.1893 -0.3451  0.0866
 7861W        W12061   7.171   4.285   9.162  0.2005 -0.3026 -0.2025
 7862W        W12062   3.599   3.407   9.663 -0.0853  0.1008  0.1240
 7863W        W12063   6.756   7.324  11.967  0.3885 -0.5626  0.0466
 7864W        W12064   8.571   8.261  10.397  0.3378  0.1019  0.1287
 7865W        W12065   8.327   0.475   3.546 -0.0247  0.1388 -0.0817
 7866W        W12066  10.192   3.347  10.715 -0.1089  0.0679 -0.1358
 7867W        W12067   2.323   1.614   1.842 -0.0402  0.0107  0.0903
 7868W        W12068  10.346   3.366   3.085 -0.0531 -0.0098 -0.1590
 7869W        W12069   2.911   3.042   9.312  0.2732 -0.0125 -0.2236
 7870W        W12070   5.732   4.784  10.147 -0.0899  0.2065 -0.0349
 7871W        W12071   3.454   6.550   1.098 -0.1787 -0.0318  0.2360
 7872W        W12072   6.037   3.313   4.043  0.0234 -0.1309 -0.1776
 7873W        W12073   0.966   4.235  10.533 -0.0338 -0.0967  0.1036
 7874W        W12074   9.220   0.583  12.066 -0.4561 -0.0113  0.2260
 7875W        W12075   7.886  10.360  10.247 -0.0028 -0.1511  0.2516
 7876W        W12076   0.824   8.462   1.164  0.1390 -0.1631  0.0298
 7877W        W12077   5.099   0.907   0.375  0.0955 -0.2340  0.0256
 7878W        W12078   0.213  10.331   4.415 -0.1429  0.0068  0.2140
 7879W        W12079   7.878   3.818  12.850 -0.1009 -0.1003  0.3890
 7880W        W12080   4.163   1.012   9.266  0.0272 -0.0365 -0.0661
 7881W        W12081   9.233   6.708   3.373 -0.1501  0.2054 -0.4330
 7882W        W12082   3.821   0.869  11.807  0.0794  0.2717 -0.0146
 7883W        W12083   7.512   5.620  11.737 -0.3182  0.1100  0.1072
 7884W        W12084   1.359   1.872   9.036 -0.0817 -0.1089  0.0544
 7885W        W12085   4.895   8.277   9.323  0.3440 -0.3375 -0.0569
 7886W        W12086   8.496   0.448  12.401  0.1554 -0.0199 -0.0693
 7887W        W12087  10.271   9.461  10.321  0.2028 -0.0886  0.1011
 7888W        W12088   4.948   2.427  11.898 -0.1104  0.2132 -0.1911
 7889W        W12089   2.700   8.738  11.485 -0.1167  0.0309 -0.1836
 7890W        W12090   1.022   8.894   1.311  0.2190 -0.2392 -0.0999
 7891W        W12091   2.847   7.918   9.078 -0.4100 -0.1130  0.2477
 7892W        W12092   5.030   1.523   9.584 -0.0734  0.3251 -0.2163
 7893W        W12093   7.063   4.465  12.875 -0.0362  0.1296  0.2050
 7894W        W12094   5.560   7.461   1.845  0.1451  0.2401  0.0400
 7895W        W12095   4.134   8.452  11.188 -0.0217  0.0912 -0.0024
 7896W        W12096   2.156   4.126   3.883 -0.2071  0.2862  0.0846
 7897W        W12097   6.055   1.704  12.286  0.1822 -0.1481 -0.5715
 7898W        W12098   7.485   7.303  12.911  0.3752 -0.0480  0.2869
 7899W        W12099  10.083   5.380   1.902 -0.0517 -0.0609  0.0732
 7900W        W12100  10.233   1.699  10.910 -0.0773 -0.1269 -0.0039
 7901W        W12101   1.388   1.124   7.987  0.1848 -0.1683  0.3190
 7902W        W12102   3.457   5.815   1.300  0.2157 -0.0450 -0.3299
 7903W        W12103   6.557   5.431  11.553  0.1616 -0.1546 -0.1384
 7904W        W12104   3.363  10.686  10.007  0.1840 -0.1833 -0.0340
 7905W        W12105   4.329   0.234   0.172 -0.0031 -0.0382  0.0572
 7906W        W12106   0.531   5.992   0.240 -0.2184  0.2329  0.0802
 7907W        W12107   8.800   1.773  12.169  0.1918  0.4782 -0.3425
 7908W        W12108   2.578   4.530   3.533 -0.1608 -0.3117  0.3999
 7909W        W12109   1.018   5.047   9.566 -0.0792 -0.0533  0.0634
 7910W        W12110   1.751   2.441  10.584 -0.2489 -0.0038  0.3491
 7911W        W12111   5.994   9.931   0.112 -0.4180  0.0873  0.3002
 7912W        W12112   7.596   3.975   3.698  0.3551 -0.0256  0.1468
 7913W        W12113   9.687   3.171  10.532  0.1302  0.0994  0.2765
 7914W        W12114   1.464   9.965  11.797 -0.0966  0.1898  0.3122
 7915W        W12115  10.321   7.738   4.009 -0.2329 -0.3162  0.1447
 7916W        W12116   4.724   8.509   9.761 -0.2107  0.1536 -0.1508
 7917W        W12117   5.936   0.224  12.550 -0.0225  0.0134 -0.0175
 7918W        W12118   6.069   6.708   1.687 -0.0690 -0.1074 -0.0302
 7919W        W12119   9.662   8.323  11.349  0.2208 -0.3354 -0.0495
 7920W        W12120   1.968   6.232   3.135 -0.0817  0.0329 -0.1878
 7921W        W12121   2.690   8.456  10.303 -0.2221  0.1964  0.1002
 7922W        W12122   2.610   9.675  11.738  0.0121 -0.0065  0.2923
 7923W        W12123   6.153   9.329   9.421 -0.0208 -0.0865 -0.1163
 7924W        W12124   8.975   1.123   3.783 -0.5183  0.1227 -0.0684
 7925W        W12125   2.332   0.037   0.001 -0.1104  0.1477  0.0192
 7926W        W12126   3.524  10.100   0.401 -0.1818 -0.1269  0.1457
 7927W        W12127   1.446   6.710   3.178 -0.0719  0.0461 -0.0382
 7928W        W12128   3.653   4.167   7.762  0.2753 -0.0069  0.0954
 7929W        W12129   1.857   6.741  12.383 -0.0097 -0.0334 -0.1520
 7930W        W12130   9.854   0.741  12.545 -0.2549 -0.4479  0.0132
 7931W        W12131   0.652   9.388   9.953 -0.1574 -0.0863  0.1600
 7932W        W12132   2.974   9.798   8.917 -0.2161 -0.1796  0.0468
 7933W        W12133   1.794   9.134   0.675  0.0368 -0.2286  0.2147
 7934W        W12134   9.344   7.859  12.739  0.0682 -0.2305 -0.0981
 7935W        W12135  10.546   0.631   2.511 -0.0927  0.0408  0.1309
 7936W        W12136   1.114   7.043   1.836 -0.2635  0.2152 -0.0151
 7937W        W12137  10.153   8.015  11.205 -0.0296  0.0432  0.1378
 7938W        W12138   2.403   0.458   9.834  0.3659  0.0033  0.1066
 7939W        W12139   7.887  10.268  11.356  0.0826 -0.5380  0.0203
 7940W        W12140   8.148   3.128   9.001 -0.0468 -0.1037 -0.1292
 7941W        W12141   0.442   6.560   0.748 -0.3255 -0.0837 -0.0615
 7942W        W12142   8.588   0.838   3.411 -0.1716  0.3233 -0.1621
 7943W        W12143   3.987   8.982   2.169 -0.0173  0.0880 -0.0635
 7944W        W12144  10.437   3.111  12.711  0.5886 -0.0273  0.3225
 7945W        W12145  10.335   8.244   2.812 -0.2642 -0.1252  0.2393
 7946W        W12146   8.826   4.760   3.355 -0.0971 -0.0131  0.2905
 7947W        W12147  10.295   1.890   1.386 -0.1848 -0.0233 -0.2949
 7948W        W12148   0.489   7.033  11.398 -0.0450  0.0121 -0.2176
 7949W        W12149   9.862   9.470   9.777  0.1381  0.0421  0.1295
 7950W        W12150   6.790   1.273   2.934  0.1666  0.0701 -0.1060
 7951W        W12151   5.159   6.897   1.098 -0.0310  0.1974  0.1587
 7952W        W12152   3.555   6.987   7.925  0.0850  0.3489  0.1095
 7953W        W12153   0.283   3.882   1.624  0.0398  0.0481 -0.1013
 7954W        W12154   0.139   3.496   1.232 -0.0420  0.0840  0.1779
 7955W        W12155   9.741   6.210   9.837 -0.1136 -0.3239 -0.1940
 7956W        W12156  10.055   0.047   3.970 -0.3567 -0.0074 -0.0111
 7957W        W12157   2.599   2.208   1.692 -0.0080  0.1084 -0.0419
 7958W        W12158   8.591  10.065   1.762 -0.1565  0.1096  0.3928
 7959W        W12159   1.221  10.581  10.112 -0.1812 -0.1555 -0.2397
 7960W        W12160   8.741   1.315   8.830  0.0251  0.0706  0.5903
 7961W        W12161   0.621   7.925   9.678 -0.2573 -0.4964  0.6263
 7962W        W12162   7.016   0.197   1.840  0.0090 -0.1340 -0.0954
 7963W        W12163   3.444   2.199   3.710  0.3531 -0.1283  0.1648
 7964W        W12164   8.779   6.162  11.523  0.1399 -0.1178 -0.1333
 7965W        W12165  10.413   9.590   3.475  0.0225  0.0048 -0.1039
 7966W        W12166   9.784   5.235   3.595 -0.3927  0.0973  0.0746
 7967W        W12167   2.274   8.915   1.352 -0.1057  0.0643 -0.2084
 7968W        W12168   7.530   1.011   1.820  0.1710 -0.1339  0.1791
 7969W        W12169  10.047   5.940   3.004  0.0363  0.3983  0.0136
 7970W        W12170   4.708   2.835   1.762  0.0472 -0.2799  0.1171
 7971W        W12171   4.306   3.583   8.635  0.1743 -0.1322  0.1683
 7972W        W12172   6.520   2.689   8.265  0.1312 -0.0885  0.3506
 7973W        W12173   9.075   2.297   1.728 -0.1035  0.1233  0.2583
 7974W        W12174   5.511   5.272   1.786 -0.1976 -0.1041  0.2099
 7975W        W12175   2.327  10.470   1.655 -0.1682 -0.3775  0.1049
 7976W        W12176   9.056   0.999   8.585 -0.2142 -0.2387  0.0210
 7977W        W12177   8.593  10.425   2.195  0.1458 -0.1245 -0.1000
 7978W        W12178   3.498   5.793  11.091  0.1567 -0.2655 -0.2058
 7979W        W12179   8.583   3.962   1.442 -0.0933 -0.1193  0.0421
 7980W        W12180   1.748   4.517   3.716 -0.0714  0.0995  0.2270
 7981W        W12181   4.351   2.886   3.027 -0.1720 -0.0779 -0.0256
 7982W        W12182   4.293   0.652   3.229 -0.1019 -0.1963 -0.1494
 7983W        W12183   0.071   5.397  11.748  0.1486 -0.0681  0.2081
 7984W        W12184   7.503   3.049  10.164 -0.2949 -0.0948 -0.0380
 7985W        W12185   5.669   3.645   3.921 -0.0100  0.0209  0.1580
 7986W        W12186   5.406   1.242   2.579 -0.0633 -0.0601  0.0794
 7987W        W12187   5.872   2.698   9.275 -0.4341  0.1468 -0.0275
 7988W        W12188   6.865   9.984   0.702 -0.2680 -0.2441 -0.0291
 7989W        W12189   9.899   0.088   3.462 -0.1312  0.1364 -0.0289
 7990W        W12190   4.107   7.864   9.318  0.0330  0.3941 -0.2687
 7991W        W12191   5.723  10.153  10.633 -0.1595 -0.4500  0.1872
 7992W        W12192   6.584   0.526   4.278 -0.3930 -0.0207  0.0469
 7993W        W12193  10.306   1.246   8.703 -0.1093 -0.1284  0.2134
 7994W        W12194   7.638   8.493   2.793 -0.0220 -0.0771 -0.1900
 7995W        W12195   1.355   7.200  10.353 -0.0971 -0.1849 -0.4846
 7996W        W12196   2.460   8.995   9.591  0.1297 -0.1557 -0.0916
 7997W        W12197   6.716   0.800  10.626  0.2007 -0.3345 -0.2110
 7998W        W12198   7.596   6.641   8.438 -0.3149  0.1309  0.1668
 7999W        W12199   8.426   7.069   1.676 -0.2947 -0.1742  0.5491
 8000W        W12200   5.797   7.663  10.848 -0.2134 -0.1095  0.1648
 8001W        W12201   1.297   1.963   2.861  0.3189  0.0477 -0.1336
 8002W        W12202   9.307   1.822  11.953  0.0762 -0.0174 -0.2129
 8003W        W12203   8.652   6.599  12.575  0.2551  0.0788 -0.0580
 8004W        W12204  10.616  10.592  12.398 -0.1435  0.1132 -0.1111
 8005W        W12205   7.354   0.032   1.425 -0.1458  0.2478  0.2762
 8006W        W12206   1.209   5.684  11.475 -0.0265 -0.1833  0.2222
 8007W        W12207   2.228  10.663   0.529  0.0309  0.0999  0.0724
 8008W        W12208   9.155   3.174   9.705  0.1518  0.0465  0.0894
 8009W        W12209   2.330   2.732   9.370 -0.2645 -0.0594  0.1138
 8010W        W12210   5.244   3.040  10.392 -0.4244 -0.0508 -0.3415
 8011W        W12211   7.480   9.638   2.979 -0.1104  0.0842 -0.0495
 8012W        W12212   2.054   1.309  12.713  0.0588 -0.1788  0.3629
 8013W        W12213   9.519   4.821  10.191  0.3064  0.0505  0.3630
 8014W        W12214   8.045  10.289   2.458 -0.2494 -0.0092 -0.0476
 8015W        W12215   4.306  10.553   0.663 -0.2049  0.1196 -0.0621
 8016W        W12216  10.112   9.805   3.147  0.0032  0.1410  0.0720
 8017W        W12217   3.280   1.072   1.376 -0.0193  0.0036  0.0606
 8018W        W12218   7.168   4.712  10.394  0.0931  0.1039  0.0293
 8019W        W12219   1.040   7.603   9.540 -0.2343 -0.1525 -0.2497
 8020W        W12220   2.259   7.770   2.156 -0.2119 -0.0842  0.3013
 8021W        W12221   9.872   6.405   1.156  0.2901  0.1296 -0.1386
 8022W        W12222   0.456   5.850   4.714 -0.1358 -0.1210 -0.0281
 8023W        W12223   0.418   8.134   1.489 -0.3801 -0.0771  0.2341
 8024W        W12224   5.918   5.614   1.623 -0.1710  0.2734 -0.0481
 8025W        W12225   8.604  10.678   3.660  0.2082 -0.0853 -0.1539
 8026W        W12226   6.664   0.743   2.135 -0.0494 -0.0067  0.2023
 8027W        W12227   0.512   5.110  11.619  0.2193  0.0440  0.0877
 8028W        W12228  10.173   5.381   4.198 -0.3260  0.0118 -0.0792
 8029W        W12229   3.500   1.645   2.608 -0.1513 -0.1665 -0.0115
 8030W        W12230   0.957   2.837  10.480  0.1509  0.1875  0.0944
 8031W        W12231   5.147   6.750  10.221 -0.3749 -0.2078  0.4078
 8032W        W12232   3.078   2.315  10.058 -0.0956 -0.3023 -0.0419
 8033W        W12233   8.320   0.836   0.120  0.2929 -0.1312 -0.3073
 8034W        W12234   1.278   9.820   2.837  0.5549 -0.0384  0.0237
 8035W        W12235   6.969   3.435  11.271 -0.4388 -0.2061  0.2884
 8036W        W12236   5.003   7.153  11.133  0.2823 -0.0049  0.0595
 8037W        W12237   3.152   2.287   2.596 -0.1171 -0.0480  0.0929
 8038W        W12238   6.042   6.172   7.537 -0.1118 -0.0539 -0.1312
 8039W        W12239  10.108   0.059   2.989  0.0773 -0.1145  0.0523
 8040W        W12240   6.092  10.230  12.112  0.1370  0.1268  0.2093
 8041W        W12241   2.532   0.972  11.210 -0.0256 -0.1189 -0.1194
 8042W        W12242   4.214   0.217   3.367  0.3479 -0.2064 -0.0327
 8043W        W12243  10.440   0.343   3.219  0.0035 -0.0923  0.4535
 8044W        W12244  10.076  10.477   1.157  0.2187  0.0578  0.0968
 8045W        W12245   6.994   7.106  11.569 -0.0781 -0.0942 -0.1801
 8046W        W12246   0.584   9.796   1.892  0.2198 -0.1750  0.1180
 8047W        W12247  10.006   3.755   3.572  0.1060  0.1670 -0.3543
 8048W        W12248   2.815   5.068   9.394  0.2193 -0.1883 -0.2737
 8049W        W12249   6.678   4.286   9.655  0.0738  0.1810  0.0650
 8050W        W12250   8.128  10.104  10.716  0.2815 -0.2185 -0.2853
 8051W        W12251   1.242   8.112   2.219  0.3208 -0.1511 -0.3224
 8052W        W12252   9.020   8.166   2.393  0.1832 -0.1177  0.2621
 8053W        W12253   4.907   5.915   0.802 -0.2528  0.2422  0.2529
 8054W        W12254   8.856   7.510   8.843 -0.2015  0.0167 -0.2279
 8055W        W12255   5.530   3.545   9.467 -0.2203  0.3605 -0.2349
 8056W        W12256   6.016   3.284   1.176  0.0798 -0.0197  0.1206
 8057W        W12257   9.767   5.752  10.550  0.0208 -0.0487  0.0269
 8058W        W12258   3.645   3.856  10.948  0.0168 -0.0027 -0.0773
 8059W        W12259   8.296   0.746   1.433 -0.0640 -0.0948  0.1037
 8060W        W12260   4.469   5.646   1.100  0.1110 -0.2033 -0.1018
 8061W        W12261   0.600   2.379   9.798 -0.1292  0.0217  0.2950
 8062W        W12262   4.998   9.543   1.032  0.0577  0.2938 -0.3180
 8063W        W12263   8.106   4.466  10.933  0.2114 -0.2540 -0.0896
 8064W        W12264   3.790   1.289  11.505  0.1002  0.0309 -0.1004
 8065W        W12265   4.234   6.216  12.859  0.0906 -0.0080 -0.3280
 8066W        W12266  10.454   3.702   8.608 -0.0807  0.0417  0.2675
 8067W        W12267   6.919   0.647  11.100  0.1322 -0.0102 -0.6167
 8068W        W12268   6.992   3.610   0.573 -0.5943 -0.3322  0.1017
 8069W        W12269   6.867   7.298   2.344 -0.0170  0.0070  0.0350
 8070W        W12270   0.760   4.523   9.504 -0.1617 -0.4038 -0.2504
 8071W        W12271   3.134   3.853   1.486 -0.0103  0.0263 -0.1862
 8072W        W12272  10.261   0.929  11.302  0.1498 -0.0542  0.0580
 8073W        W12273   4.697   6.592   8.784 -0.0597  0.0870  0.2352
 8074W        W12274   9.091   9.482  11.568 -0.0361 -0.1498  0.0745
 8075W        W12275   1.797   0.007   2.937 -0.1106  0.0016  0.0373
 8076W        W12276   8.805   2.168   2.722  0.2357 -0.2079 -0.0452
 8077W        W12277   3.609   6.356   9.999 -0.0614  0.2678 -0.0263
 8078W        W12278   4.093   7.348   0.396 -0.1383 -0.3948  0.1474
 8079W        W12279   8.988   6.675  11.654  0.0638  0.1727  0.0718
 8080W        W12280   8.807   0.214  12.128  0.0610 -0.0616  0.0382
 8081W        W12281   7.004   8.667   4.415  0.2952  0.0467  0.2870
 8082W        W12282   1.777   3.362   2.491  0.1151 -0.0364 -0.0311
 8083W        W12283   9.070   9.389  12.070  0.1542 -0.0527  0.0459
 8084W        W12284   8.857   2.303   4.328 -0.0151  0.0383 -0.1083
 8085W        W12285   6.777   3.090  11.945 -0.0397  0.1803  0.0661
 8086W        W12286   2.312   3.546  11.943  0.1166  0.4727 -0.1342
 8087W        W12287   2.047   7.261  10.562 -0.3306  0.1990  0.3472
 8088W        W12288   3.438   2.950   2.033  0.1410  0.1389  0.1590
 8089W        W12289   3.020   9.920   0.485 -0.0648  0.2144 -0.1548
 8090W        W12290   3.065   0.555  10.539 -0.1120  0.1073 -0.1415
 8091W        W12291   9.463   2.079   0.939 -0.0546 -0.3888 -0.3978
 8092W        W12292   1.851   8.347   4.016 -0.1064  0.1897  0.4171
 8093W        W12293   3.512   3.665   8.938 -0.3011 -0.1189  0.2583
 8094W        W12294   5.090   4.731   0.334  0.2359 -0.0442 -0.0539
 8095W        W12295   0.671   0.967   1.903 -0.3714  0.0855 -0.1549
 8096W        W12296  10.432   3.866   2.754 -0.2655 -0.0707 -0.1459
 8097W        W12297  10.376   4.546   3.277 -0.1073 -0.2307 -0.1594
 8098W        W12298   6.197   1.441   3.689 -0.3900 -0.2898  0.0762
 8099W        W12299   4.812   3.290   3.877  0.2969  0.0190  0.4948
 8100W        W12300   7.019  10.030  10.945  0.0728  0.1323 -0.0224
 8101W        W12301   8.976   3.745   3.772 -0.0375 -0.0057 -0.0080
 8102W        W12302   5.616   3.146  12.455  0.0300 -0.1149 -0.0360
 8103W        W12303   9.216   8.981  12.894  0.1988  0.0011 -0.1491
 8104W        W12304   5.811   3.030   4.821 -0.0414  0.0022 -0.1330
 8105W        W12305   2.195   2.452   8.871 -0.1521  0.0486  0.0062
 8106W        W12306  10.052   8.671  10.935 -0.1996  0.2181 -0.1956
 8107W        W12307   5.931   7.118  10.222 -0.0837  0.0881 -0.3696
 8108W        W12308   7.948   9.837   0.066  0.0855 -0.0677  0.0287
 8109W        W12309   8.843   8.542   8.967 -0.0471 -0.0420 -0.1857
 8110W        W12310   9.607   1.630  12.723 -0.3176  0.0356  0.3778
 8111W        W12311   1.299   3.238   0.279  0.0037 -0.1015  0.0619
 8112W        W12312   2.229   9.645  11.205 -0.0867  0.1882  0.0577
 8113W        W12313   5.634   8.865  10.266  0.1234 -0.0660  0.0399
 8114W        W12314   6.948   6.654   2.164 -0.2617  0.4869 -0.0242
 8115W        W12315   0.836   4.712   3.955  0.1202 -0.0285  0.0372
 8116W        W12316   4.660   1.107  10.864 -0.0008  0.1306  0.0711
 8117W        W12317   4.427   6.456   3.711 -0.0223  0.1452  0.0744
 8118W        W12318   5.984   7.234   1.664 -0.0656 -0.3087  0.2135
 8119W        W12319   4.216  10.127  11.861  0.1557 -0.0778 -0.0524
 8120W        W12320   6.881   1.749   0.873  0.0310  0.3213 -0.1854
 8121W        W12321   5.771   4.245  12.117  0.1460  0.4348  0.0729
 8122W        W12322   0.377   0.303   1.952 -0.0854  0.0998  0.0910
 8123W        W12323   8.783   8.344   0.656 -0.0470 -0.3959 -0.0829
 8124W        W12324   1.955   3.467   0.253  0.2048  0.1494  0.0894
 8125W        W12325   4.304  10.056  10.757 -0.1372 -0.0514  0.0458
 8126W        W12326   7.400  10.678   2.776 -0.1562 -0.0971  0.1755
 8127W        W12327   6.209   2.483   2.486 -0.0318 -0.1317 -0.0956
 8128W        W12328   3.831   3.291   9.086  0.2923 -0.2382 -0.1852
 8129W        W12329   1.661   7.773   0.940  0.1661 -0.3036  0.0036
 8130W        W12330   8.226   5.728   1.239 -0.0723  0.1254  0.1963
 8131W        W12331   4.547   2.569   3.977  0.1309 -0.1334 -0.1975
 8132W        W12332   0.569   7.082   2.491 -0.2017 -0.1760 -0.0578
 8133W        W12333   1.107   2.526   3.783  0.0388 -0.1305  0.1182
 8134W        W12334   3.840   9.749   1.833  0.1145  0.5803  0.0973
 8135W        W12335   7.776   3.425   9.881 -0.0318 -0.0606 -0.0703
 8136W        W12336   5.608   7.440  11.388  0.0662  0.1045  0.0860
 8137W        W12337   0.478   0.393  12.664 -0.0888  0.1672  0.1197
 8138W        W12338   4.589   9.472   9.689  0.1310  0.2041  0.3514
 8139W        W12339   6.376   1.936   9.826  0.1450  0.0690  0.0403
 8140W        W12340   0.043  10.374   0.062  0.1345 -0.2087 -0.3280
 8141W        W12341   2.428   2.664   3.575 -0.0952  0.0238 -0.2204
 8142W        W12342   3.335   2.087   0.951 -0.1538  0.2071 -0.2456
 8143W        W12343   1.338   0.040  11.074  0.1055  0.2114 -0.0612
 8144W        W12344   2.315   2.588   0.483  0.3592  0.3814 -0.0147
 8145W        W12345   9.818   0.860  12.063  0.1279 -0.2665 -0.1040
 8146W        W12346   9.163   7.799   3.575  0.1371  0.2033 -0.0375
 8147W        W12347   3.168   4.243   0.095 -0.1203  0.4697 -0.0304
 8148W        W12348   4.488   8.068   9.631 -0.1008 -0.0804 -0.0637
 8149W        W12349   4.252   6.552  12.201 -0.1487 -0.0454  0.0644
 8150W        W12350   1.462   1.670   8.035 -0.1677  0.1996  0.2851
 8151W        W12351   4.615   4.584   1.843 -0.0120 -0.2371  0.0889
 8152W        W12352   4.348   2.126   3.783  0.2312 -0.1461 -0.0091
 8153W        W12353   3.541   2.061  12.254 -0.2870 -0.1153  0.0199
 8154W        W12354   6.121   2.284  12.531 -0.2888  0.1757 -0.2653
 8155W        W12355   6.406   0.941   9.429  0.0693  0.1311  0.0993
 8156W        W12356   5.641   8.103   1.826  0.1033 -0.1245  0.0381
 8157W        W12357   0.188   9.814  10.812  0.4372  0.0127 -0.0287
 8158W        W12358   4.988   1.675  12.881 -0.1187 -0.2597  0.1445
 8159W        W12359   7.776   7.755   2.267 -0.2197 -0.0997  0.2853
 8160W        W12360   3.928   8.958   9.976  0.0213  0.1019 -0.1845
 8161W        W12361   9.230   8.593   9.713  0.3267  0.0774  0.2619
 8162W        W12362   5.359   9.811   0.329  0.2113  0.1291 -0.1402
 8163W        W12363   6.239   5.752   0.673  0.1474 -0.1112  0.2415
 8164W        W12364   7.163  10.573   2.244  0.1815 -0.1274  0.1080
 8165W        W12365  10.656   2.369   9.589  0.1609 -0.0456 -0.3531
 8166W        W12366   6.908   5.224  10.139  0.2855 -0.1238 -0.0450
 8167W        W12367  10.068   6.002   1.615 -0.1141 -0.1821  0.3054
 8168W        W12368   7.762   9.819  10.459  0.0081 -0.1819 -0.1913
 8169W        W12369   8.402   4.048  10.917 -0.1036 -0.1409  0.1901
 8170W        W12370   0.137   3.992  12.370 -0.2665  0.3965 -0.0112
 8171W        W12371   4.218   3.047   8.707  0.3003  0.1333  0.3943
 8172W        W12372   6.610   6.683   3.513  0.1976 -0.1537  0.1185
 8173W        W12373   5.015   7.353   9.020 -0.0067  0.0348 -0.0715
 8174W        W12374   9.666   5.360   2.775  0.2801 -0.1419  0.1209
 8175W        W12375  10.456   8.195  12.438  0.0723  0.1031 -0.2591
 8176W        W12376   7.840   9.458  10.006 -0.1928  0.3226  0.2571
 8177W        W12377   1.824   1.299  10.534 -0.1412  0.1713 -0.3847
 8178W        W12378   0.495  10.290  11.993  0.0365  0.0367 -0.1548
 8179W        W12379   2.195   9.475   0.069  0.0138  0.1607 -0.3620
 8180W        W12380   7.329   7.743   0.001 -0.0677 -0.3442  0.3642
 8181W        W12381   3.606   8.798  12.691  0.1874 -0.0276 -0.1319
 8182W        W12382   6.236   4.751   1.914 -0.2385  0.1599  0.4329
 8183W        W12383   6.464   5.114   2.092 -0.0517  0.0614  0.0721
 8184W        W12384   6.077   1.682   8.312  0.3648 -0.3802  0.0896
 8185W        W12385   6.003   2.581   9.968  0.0256  0.1853 -0.1695
 8186W        W12386   3.727   9.798   2.425 -0.0283 -0.1616 -0.0628
 8187W        W12387   3.882   7.481   2.777  0.0638 -0.2278 -0.2748
 8188W        W12388   1.670   0.388   9.185  0.1151 -0.2707 -0.0954
 8189W        W12389   9.145   2.523   2.570 -0.0403  0.0159  0.1904
 8190W        W12390   7.415   9.318  11.852  0.2716 -0.1589  0.2907
 8191W        W12391   9.749   0.961   0.409  0.1819 -0.1091  0.0157
 8192W        W12392   8.580  10.628  12.494  0.0951  0.1994 -0.2047
 8193W        W12393   1.447   9.447   3.397 -0.3315 -0.4202  0.0077
 8194W        W12394   9.455   8.934   1.245  0.0100 -0.0559 -0.1106
 8195W        W12395  10.466   0.335   8.552 -0.1946  0.1135 -0.2457
 8196W        W12396   1.450   1.999   9.798 -0.6162 -0.1289 -0.0193
 8197W        W12397   9.172   2.394   8.950  0.4679 -0.0686  0.0768
 8198W        W12398   0.984   5.109  11.997  0.3425  0.1190  0.1478
 8199W        W12399   9.107   1.184   1.825  0.0732 -0.0388  0.4139
 8200W        W12400   0.337   6.019  12.711  0.0802  0.0200 -0.0641
 8201W        W12401   0.113   1.283   2.283  0.0014  0.0170  0.0553
 8202W        W12402   3.326   2.359   9.553 -0.1026 -0.1178  0.0031
 8203W        W12403   8.177   8.958   9.182  0.2008 -0.0568 -0.0843
 8204W        W12404   9.795  10.565  12.002 -0.2340 -0.4171 -0.2047
 8205W        W12405   2.824   3.563  11.949 -0.0038 -0.1110  0.0660
 8206W        W12406   9.105   7.254  12.315 -0.0482 -0.2510  0.3047
 8207W        W12407   5.993   4.858   2.316  0.0751 -0.0715 -0.4252
 8208W        W12408   3.346   8.871   8.095  0.1825 -0.0697  0.0050
 8209W        W12409   0.165   3.745   3.101 -0.2148 -0.0430  0.0344
 8210W        W12410   5.722   0.435   0.095  0.4657  0.1679  0.0469
 8211W        W12411   9.986   0.545   9.472 -0.0918 -0.0325  0.2549
 8212W        W12412   4.033   6.288  11.814 -0.1121  0.2059 -0.2932
 8213W        W12413   8.607   0.476  12.859  0.4775  0.0258 -0.0137
 8214W        W12414   8.736   5.904   1.173 -0.1121 -0.3748  0.0676
 8215W        W12415   0.057   3.835   0.010 -0.1708 -0.3795 -0.1131
 8216W        W12416   5.312   4.605   9.457  0.1563  0.2750 -0.0980
 8217W        W12417   7.513   6.423  10.006  0.0844  0.0196  0.0458
 8218W        W12418   1.891   5.738  12.182  0.0653 -0.0581 -0.0824
 8219W        W12419   9.379   3.323   3.156 -0.0402 -0.1035 -0.0018
 8220W        W12420   0.188   4.864  12.303  0.0921 -0.0536 -0.0392
 8221W        W12421   5.390   0.776  11.873  0.0591  0.0347 -0.0939
 8222W        W12422   5.079   8.136   1.771  0.0406  0.3127  0.0399
 8223W        W12423   6.633   4.653   8.998  0.0091  0.3285 -0.0575
 8224W        W12424   6.375   2.812   3.325  0.0842  0.0873  0.1376
 8225W        W12425   6.871   9.878   4.571  0.1239 -0.1250  0.1300
 8226W        W12426   9.218   9.392   3.123  0.1624  0.1736  0.0984
 8227W        W12427   5.655   2.151   2.333 -0.1264 -0.0691 -0.0250
 8228W        W12428   9.959   7.963   0.601  0.3871 -0.2228  0.1298
 8229W        W12429   7.359   8.811  10.499 -0.0396 -0.0052  0.1221
 8230W        W12430   4.521   9.697   0.262 -0.4693 -0.1093  0.1199
 8231W        W12431   7.906   0.989   9.699 -0.1542 -0.2400 -0.1327
 8232W        W12432  10.096   9.345   0.944  0.1225  0.2596 -0.0339
 8233W        W12433   5.845   1.890  10.331 -0.2436  0.0328 -0.1862
 8234W        W12434  10.197   3.278   3.637  0.2231 -0.0243 -0.1912
 8235W        W12435  10.610   9.936   3.097  0.1356  0.2234 -0.0506
 8236W        W12436   8.917   4.234   0.269  0.2185  0.2795  0.1997
 8237W        W12437   3.687  10.496  12.563  0.3011 -0.0116 -0.0781
 8238W        W12438   2.265   9.062   0.523 -0.0608  0.2691 -0.0598
 8239W        W12439   0.521   3.332   2.196  0.1623  0.0126 -0.0740
 8240W        W12440   7.054   6.248   1.817 -0.0201  0.1926 -0.3495
 8241W        W12441   1.464  10.064   0.729  0.0539  0.0297  0.1181
 8242W        W12442  10.097   5.391   9.670  0.2580 -0.1228  0.0270
 8243W        W12443   2.021   7.636  10.943  0.0356 -0.1481 -0.1667
 8244W        W12444   9.450   3.982   8.894  0.2161  0.2493  0.0159
 8245W        W12445   9.955  10.131   9.816  0.0951  0.0224 -0.0553
 8246W        W12446   5.413   9.007   9.681  0.1023 -0.1969 -0.0824
 8247W        W12447   4.023   6.349   4.111 -0.1123  0.0262  0.2402
 8248W        W12448   4.427   7.368   8.263  0.1263  0.1472 -0.0180
 8249W        W12449   0.245   0.567  10.733 -0.2114  0.0452  0.0258
 8250W        W12450   0.170   7.535  10.582 -0.1090  0.0696 -0.0061
 8251W        W12451   4.736   2.788  10.372  0.1598 -0.1132  0.0912
 8252W        W12452   1.774   3.457  12.702  0.1447 -0.0909 -0.2476
 8253W        W12453   9.040   2.723   9.788 -0.0326 -0.2081  0.0745
 8254W        W12454   6.031   9.769  12.414  0.1607 -0.2469  0.0659
 8255W        W12455  10.106   2.719   2.721 -0.4281 -0.0474 -0.3653
 8256W        W12456   4.361   7.541  11.796  0.3789 -0.1022 -0.3120
 8257W        W12457   2.948   9.572   1.698 -0.0005 -0.1533 -0.3210
 8258W        W12458  10.210   4.052  10.053  0.0448  0.3294  0.0050
 8259W        W12459   3.562   7.215   1.854  0.0512 -0.1474  0.1363
 8260W        W12460   0.342   5.049   9.558 -0.1472 -0.1920 -0.2426
 8261W        W12461   8.768   4.802   4.791 -0.0891 -0.0550  0.1493
 8262W        W12462   3.383   8.295   7.798 -0.1713  0.4295  0.2123
 8263W        W12463   2.944   1.463   1.007 -0.1891  0.2350 -0.0895
 8264W        W12464   9.701   5.866  11.164 -0.0367 -0.0054  0.2704
 8265W        W12465   5.073   9.612   2.095  0.0045  0.0941 -0.1876
 8266W        W12466   0.729   8.354   0.276 -0.1772 -0.0728 -0.3378
 8267W        W12467   2.325   9.096  11.268  0.1711  0.0963 -0.0344
 8268W        W12468   4.294   3.696  12.737 -0.1192 -0.2642  0.0144
 8269W        W12469   3.114  10.517   2.700  0.0080  0.1563  0.1015
 8270W        W12470   7.379   8.128   9.455  0.0493 -0.0149  0.0793
 8271W        W12471   1.501  10.247  11.067  0.1992  0.0201  0.0959
 8272W        W12472   5.604   6.764  10.411  0.1499  0.2952  0.1265
 8273W        W12473   9.785   8.540   9.442 -0.3000  0.0912  0.3411
 8274W        W12474   2.550   6.667   8.909  0.3285  0.0119 -0.0988
 8275W        W12475   9.734   2.393   4.846 -0.0763 -0.1110 -0.1413
 8276W        W12476   6.530   3.041  12.829 -0.2462  0.1154  0.1665
 8277W        W12477   4.304   2.326   2.405  0.1743  0.0298 -0.0888
 8278W        W12478   1.053   8.563   2.068 -0.5210 -0.0565  0.1517
 8279W        W12479   2.957   1.839  10.276  0.2174 -0.1345 -0.0210
 8280W        W12480   5.323   1.600   9.065 -0.4050  0.1716 -0.0685
 8281W        W12481   0.744   5.613   1.240  0.0138 -0.1598  0.1723
 8282W        W12482   0.243   8.657   0.264 -0.1581  0.3463 -0.0268
 8283W        W12483   5.498   4.037   1.289 -0.0114 -0.0929 -0.1877
 8284W        W12484   9.513   9.686  11.406 -0.0386  0.0717 -0.1426
 8285W        W12485   9.421   9.478  10.468 -0.1678  0.0462 -0.1623
 8286W        W12486   8.740   2.781  12.310 -0.0866  0.1960  0.3131
 8287W        W12487   5.249   3.931   3.167 -0.1817 -0.0206 -0.0186
 8288W        W12488   3.564   0.744  12.662  0.2100 -0.1555  0.1191
 8289W        W12489   7.787   1.813   1.921  0.2337 -0.4020 -0.0347
 8290W        W12490   4.200   4.910  12.217  0.0159 -0.0951  0.4932
 8291W        W12491   4.426   6.855  10.279  0.4229  0.0438  0.0274
 8292W        W12492   9.067   4.495  11.462  0.2127 -0.0294 -0.3798
 8293W        W12493   0.172   2.490  12.353  0.1304  0.4773 -0.0199
 8294W        W12494   0.766   5.122   1.341  0.2791 -0.0428 -0.2819
 8295W        W12495   9.480   9.694  11.949  0.0909  0.3153 -0.1821
 8296W        W12496   0.192   7.975  12.564  0.0630  0.0337 -0.0402
 8297W        W12497   7.202   2.228  11.560 -0.2251  0.2292 -0.1403
 8298W        W12498   4.777   1.927   3.577 -0.5608 -0.2639  0.0590
 8299W        W12499   2.849   6.010   9.892  0.0473 -0.0438 -0.2461
 8300W        W12500   3.051   4.672   0.793  0.0563 -0.3965  0.0734
 8301W        W12501   9.963   2.356  11.569  0.2102  0.1287 -0.1022
 8302W        W12502   6.715   6.080  10.595 -0.0495 -0.1281  0.0232
 8303W        W12503   7.900   5.139   0.805  0.1016  0.0232 -0.0750
 8304W        W12504   9.949   9.205  11.128 -0.0143 -0.2317 -0.2235
 8305W        W12505   7.726   4.473   1.553 -0.0947  0.1640  0.1635
 8306W        W12506  10.032   7.101   1.780  0.0238 -0.1826  0.0201
 8307W        W12507   2.175   4.834   3.780 -0.1022  0.1354 -0.4028
 8308W        W12508   8.203   7.928   1.917  0.0363 -0.0084 -0.0579
 8309W        W12509   0.246   6.981   2.831  0.3011  0.2735  0.2436
 8310W        W12510   4.728   9.754  11.014  0.1329  0.0265  0.2328
 8311W        W12511   8.905   6.580  11.175  0.0748  0.1207 -0.3366
 8312W        W12512   5.746   4.032   2.923 -0.1182  0.1207  0.1426
 8313W        W12513   0.283   3.547  11.246 -0.1230 -0.0115 -0.1559
 8314W        W12514   4.469   0.577  12.682 -0.0101 -0.2930 -0.0964
 8315W        W12515   0.021   3.389   2.230 -0.0351 -0.2124 -0.0585
 8316W        W12516   6.102   5.876   1.233 -0.1448  0.0239 -0.2469
 8317W        W12517   7.841   9.792   1.662  0.0110  0.4494  0.3801
 8318W        W12518   3.687   1.784  11.380  0.1507 -0.2072 -0.0395
 8319W        W12519   9.967   4.549   4.100  0.0242 -0.0145  0.0354
 8320W        W12520  10.398   8.696  12.343  0.3388  0.0424  0.1963
 8321W        W12521   6.222   5.852  11.492 -0.2631 -0.1204  0.4390
 8322W        W12522   5.445   5.218  11.908 -0.0192 -0.1709 -0.2665
 8323W        W12523   2.048   7.945   1.247 -0.1828  0.1610  0.1627
 8324W        W12524   1.376   3.737  11.080  0.1135  0.0986 -0.0293
 8325W        W12525   4.504   1.346   2.104  0.1318  0.0099 -0.0655
 8326W        W12526   1.026   3.507  12.241 -0.1281 -0.0914 -0.0531
 8327W        W12527   9.099   7.750  11.800  0.1952  0.1203  0.0749
 8328W        W12528   5.115  10.185  12.234 -0.3073 -0.0444  0.2972
 8329W        W12529   5.162   6.093   1.598 -0.1268 -0.2781  0.3025
 8330W        W12530   2.492   7.086   1.523 -0.0650  0.1199 -0.0904
 8331W        W12531   0.917   0.564   1.733  0.0483  0.0589  0.0503
 8332W        W12532   7.419  10.622  10.074 -0.1135 -0.0337 -0.2401
 8333W        W12533   4.355   1.957   1.610 -0.2723  0.0215 -0.0967
 8334W        W12534   9.599   3.056   1.810  0.0925  0.0061  0.0112
 8335W        W12535   8.538   8.939   8.929 -0.3768 -0.3390  0.1467
 8336W        W12536   3.923   9.552   0.947  0.0113 -0.3201 -0.1035
 8337W        W12537   9.611   4.625   1.109 -0.1323 -0.0145  0.1375
 8338W        W12538  10.505  10.088   2.248 -0.2409 -0.1020 -0.2338
 8339W        W12539   6.904   6.591   9.259 -0.0935  0.2258 -0.0336
 8340W        W12540   8.416   0.734  11.102 -0.1944  0.2749  0.1101
 8341W        W12541   4.600   0.670   0.347  0.3681  0.0723 -0.2058
 8342W        W12542   8.628   6.775   2.165  0.0176  0.1714  0.0452
 8343W        W12543   0.974   0.990   8.721 -0.1456  0.2705  0.0419
 8344W        W12544   6.212   0.630   3.857  0.0066 -0.2790  0.0202
 8345W        W12545   1.930   8.198   2.398 -0.0635 -0.0897 -0.1695
 8346W        W12546   9.163   5.913   1.916  0.1158 -0.2607  0.2383
 8347W        W12547   3.671   8.951   9.001  0.0659 -0.0848 -0.1669
 8348W        W12548   5.878   7.155   3.324  0.0513 -0.2229 -0.1387
 8349W        W12549   4.119   7.093  10.777 -0.0065  0.2442  0.0905
 8350W        W12550   1.684   6.368  12.611 -0.0968  0.1703 -0.2309
 8351W        W12551   9.602   1.194  12.384 -0.1145 -0.0288 -0.0488
 8352W        W12552   4.472   0.024  10.223  0.2070  0.0014 -0.2256
 8353W        W12553   9.258   4.857   1.424  0.0070  0.1174 -0.0571
 8354W        W12554   5.670   9.625  10.886  0.0783  0.1664  0.1874
 8355W        W12555   9.324  10.324   1.534  0.1787 -0.1268 -0.3342
 8356W        W12556   4.895   8.532  10.852 -0.1760  0.0101  0.0575
 8357W        W12557   2.646   1.836   3.215 -0.6026 -0.0587  0.0452
 8358W        W12558   6.982   4.006   1.753 -0.4938  0.0642 -0.1342
 8359W        W12559   3.836   5.630   0.191  0.0013  0.2099  0.1366
 8360W        W12560   8.070   0.500   9.734  0.0363 -0.0126 -0.1845
 8361W        W12561   5.100   5.529  10.537 -0.0010  0.0399 -0.2057
 8362W        W12562   2.330   9.998  12.824 -0.0494  0.1183  0.1471
 8363W        W12563   1.909  10.187  11.991 -0.0317 -0.0834  0.0191
 8364W        W12564   0.245   3.546  12.122  0.2942  0.2694 -0.2976
 8365W        W12565   0.892   6.802  10.782 -0.1868 -0.0401 -0.0292
 8366W        W12566   4.109   1.879   2.537 -0.1201  0.1141 -0.0996
 8367W        W12567   5.698   7.238   3.786 -0.3721 -0.0547  0.2087
 8368W        W12568   7.032   9.883  12.361  0.0571 -0.1478  0.1648
 8369W        W12569  10.079   1.657  12.519  0.1901 -0.1320  0.0174
 8370W        W12570   2.838   3.260  10.787 -0.3616  0.1900 -0.0677
 8371W        W12571   9.903   7.500   1.234 -0.1319 -0.0939 -0.2064
 8372W        W12572   2.109   2.995   0.319 -0.0295 -0.0933  0.0344
 8373W        W12573   7.859   1.974   0.791 -0.0140 -0.0337  0.0281
 8374W        W12574  10.001   3.938   3.056 -0.1136 -0.0187 -0.1612
 8375W        W12575   9.174   5.110   4.708 -0.2541  0.1527 -0.1749
 8376W        W12576   9.827   1.758   9.454 -0.1595  0.0993 -0.1064
 8377W        W12577   6.963   1.806   4.317  0.0367  0.1004  0.2181
 8378W        W12578   5.584   0.459   3.818 -0.2542 -0.1067 -0.3787
 8379W        W12579   0.445  10.192  11.022 -0.1298  0.1628  0.0604
 8380W        W12580   9.953   8.983   0.291  0.0787  0.0475 -0.0605
 8381W        W12581   7.934  10.247  12.301  0.0865  0.0371 -0.0931
 8382W        W12582   1.904   2.459   4.227 -0.0449 -0.0489 -0.2012
 8383W        W12583   1.603   2.260   3.879 -0.1453  0.0039  0.0289
 8384W        W12584   7.288   3.147   4.197  0.1565 -0.0233 -0.2655
 8385W        W12585   5.242   6.753  10.798  0.0391  0.2448  0.2734
 8386W        W12586   2.401   6.780  11.038  0.2221 -0.1354 -0.2633
 8387W        W12587   4.424   0.526  12.121 -0.0044 -0.0859  0.0587
 8388W        W12588   8.790   2.044   0.271 -0.1645 -0.0562 -0.0280
 8389W        W12589   0.789   6.459   9.431 -0.1368  0.3298  0.1042
 8390W        W12590   6.409   3.030   9.082 -0.0960  0.2530  0.2775
 8391W        W12591   2.714   0.198   3.536 -0.0889  0.2219 -0.0735
 8392W        W12592   7.138   6.794   9.854  0.0819  0.4487  0.0543
 8393W        W12593   9.988   9.002   4.358 -0.0902 -0.1950  0.1354
 8394W        W12594   7.768   7.993   2.698 -0.1875  0.3264  0.0032
 8395W        W12595   8.339   1.996   2.676  0.1449 -0.0385 -0.1332
 8396W        W12596   5.904   6.176   0.731  0.0264  0.2623 -0.3895
 8397W        W12597   5.675   6.037   1.411  0.2944  0.0109 -0.1302
 8398W        W12598   4.827   6.733   9.883  0.1936 -0.1319  0.1785
 8399W        W12599   9.675   5.269   9.316 -0.0414  0.1605  0.2095
 8400W        W12600   4.475   3.882   8.965  0.2867  0.1899 -0.0320
 8401W        W12601   3.234   7.684   1.921  0.2368 -0.1371  0.0683
 8402W        W12602   2.805   7.037  10.910  0.0618 -0.3430 -0.1352
 8403W        W12603   9.304   0.162   0.797 -0.0086  0.0657 -0.0076
 8404W        W12604   8.153   9.745  12.384  0.2434 -0.6696  0.3634
 8405W        W12605   2.793   4.361  10.698  0.1369  0.1465 -0.3047
 8406W        W12606   0.699   5.441   3.078 -0.1103 -0.0531 -0.1978
 8407W        W12607   5.144   4.780   3.061 -0.1117 -0.0896 -0.0623
 8408W        W12608   9.475   8.935   8.536 -0.2583  0.3647  0.0584
 8409W        W12609   6.739   5.500   3.332  0.2298  0.0482 -0.0233
 8410W        W12610   4.498   4.488   0.439  0.2582 -0.2404 -0.1912
 8411W        W12611   6.820   2.225   1.692  0.0161  0.3264 -0.1762
 8412W        W12612   8.760   7.095   3.542  0.2382 -0.2325 -0.3559
 8413W        W12613   3.739   8.333  10.417  0.0100  0.0310 -0.0786
 8414W        W12614   2.497   7.951   3.821 -0.0279 -0.2248  0.3071
 8415W        W12615   4.025   8.030   0.055 -0.0221 -0.0587  0.1130
 8416W        W12616   3.219   9.950  11.258  0.0275 -0.0527  0.2479
 8417W        W12617   3.609   6.836   2.186  0.1703 -0.1345 -0.1556
 8418W        W12618  10.442   1.094   7.816  0.1802 -0.0542 -0.0666
 8419W        W12619   8.188   8.402  12.868 -0.1155  0.0568 -0.0893
 8420W        W12620   7.800   8.635   0.169 -0.0877  0.1322  0.0426
 8421W        W12621   4.951   7.844   0.216  0.1500  0.3590 -0.2931
 8422W        W12622   8.956   6.959   0.721  0.1017 -0.0111 -0.1850
 8423W        W12623  10.337   7.355  12.013 -0.0335 -0.1399  0.2022
 8424W        W12624   2.400  10.346   8.467  0.0812  0.0317  0.0848
 8425W        W12625   2.196   5.062   2.273  0.2571 -0.3351  0.0044
 8426W        W12626   5.501   9.669   8.887  0.1278 -0.2706  0.0431
 8427W        W12627   7.846   0.040   0.020  0.0033 -0.0284 -0.0933
 8428W        W12628   1.448   8.948  12.642 -0.0970 -0.1477  0.0705
 8429W        W12629   6.715   4.091  12.627  0.4653  0.0896  0.4560
 8430W        W12630   6.247   1.433  12.882 -0.1121  0.0225  0.0750
 8431W        W12631   2.825   2.069   9.620  0.0498  0.1159  0.0633
 8432W        W12632   8.888   4.870   9.390 -0.3858  0.0423 -0.2698
 8433W        W12633   6.045   7.113   8.743 -0.0885 -0.0523  0.1017
 8434W        W12634   4.242   9.816   3.885 -0.2354 -0.1023 -0.1653
 8435W        W12635   9.324   7.940   2.037  0.2396 -0.0758  0.1607
 8436W        W12636   0.881   5.771   9.830 -0.1587  0.2021 -0.0140
 8437W        W12637  10.300   8.931   3.464 -0.3007 -0.3534 -0.0734
 8438W        W12638   2.725   9.757   0.094 -0.1690 -0.4404 -0.2647
 8439W        W12639   5.210   9.849   2.553  0.1230  0.2116 -0.3123
 8440W        W12640   6.063   5.168  11.389 -0.2850  0.1274  0.0456
 8441W        W12641   6.327   6.625  12.285  0.1588  0.1152 -0.3570
 8442W        W12642   2.889   6.043   0.004 -0.2298  0.0111  0.0106
 8443W        W12643   9.643   6.880   2.030 -0.1293 -0.2136 -0.3776
 8444W        W12644   5.846   9.127   1.129 -0.1472  0.0858 -0.1840
 8445W        W12645   6.781   4.281   3.409 -0.0850  0.1817  0.1366
 8446W        W12646   1.717   7.181  12.792  0.1116 -0.0398 -0.2374
 8447W        W12647   3.145   1.623  10.645  0.3390  0.1244  0.0954
 8448W        W12648   4.850   4.449   0.929  0.0995 -0.0859  0.0373
 8449W        W12649   7.374  10.356   4.132 -0.3945 -0.2466  0.1077
 8450W        W12650   9.393   9.013   2.776  0.0469 -0.0447 -0.0401
 8451W        W12651   8.645   0.168   7.887 -0.0793  0.1803 -0.2675
 8452W        W12652   3.585   5.852   0.555 -0.6619 -0.3221  0.0471
 8453W        W12653   8.991   6.020  10.922 -0.0667 -0.0896 -0.0175
 8454W        W12654   4.108   1.020   3.502  0.0320 -0.1464  0.1261
 8455W        W12655   2.288  10.558  12.016 -0.0343  0.0773  0.0905
 8456W        W12656   1.248   2.919  10.071  0.1176 -0.2893  0.0670
 8457W        W12657   6.267   8.884   1.259 -0.2240  0.1731  0.0313
 8458W        W12658   5.573   3.349  10.577  0.3945 -0.0579  0.1015
 8459W        W12659   8.347   5.453  10.825 -0.0258  0.1393 -0.1064
 8460W        W12660   2.380   8.437  12.362  0.0421  0.0305  0.1408
 8461W        W12661   5.251   0.693   9.014  0.0591  0.1293 -0.0204
 8462W        W12662   0.733   8.911   2.185 -0.0027 -0.0127 -0.0182
 8463W        W12663   5.677   8.072   7.528 -0.4530  0.2200  0.1242
 8464W        W12664   9.874   0.207  11.463  0.1699 -0.0751 -0.0403
 8465W        W12665   6.954   6.713   1.511  0.1406  0.0811  0.0311
 8466W        W12666   4.619   7.078   2.989  0.0565  0.2125 -0.0958
 8467W        W12667   1.226   9.727   2.040  0.0040  0.2481  0.1378
 8468W        W12668   4.996   0.800   3.793 -0.0205  0.1362  0.1095
 8469W        W12669   2.336   4.808  10.915 -0.2513 -0.4123 -0.1817
 8470W        W12670   9.494   3.622  10.392 -0.1648 -0.2664 -0.0047
 8471W        W12671   9.847   5.785   2.335  0.1611  0.0575  0.0795
 8472W        W12672  10.594   3.344  10.124 -0.1114  0.3324  0.1167
 8473W        W12673   7.476   6.183  12.892  0.3858 -0.2523  0.1842
 8474W        W12674   8.296   7.502   3.485 -0.0146  0.3997  0.1261
 8475W        W12675   1.003   6.315   3.156  0.0840 -0.2372  0.2805
 8476W        W12676   1.221   2.225   0.361 -0.3563 -0.1290  0.0375
 8477W        W12677   9.247   8.055   1.149 -0.1381  0.0314  0.3219
 8478W        W12678   9.586   4.611  10.634 -0.2737 -0.0017  0.2328
 8479W        W12679   4.637   8.227  11.531 -0.0570  0.3383  0.0982
 8480W        W12680   5.234   5.436  12.300 -0.2656  0.1891 -0.0013
 8481W        W12681   5.238  10.284   0.597 -0.0438 -0.1427  0.7049
 8482W        W12682   9.446   2.107   3.613 -0.1031 -0.0192  0.2548
 8483W        W12683   5.407   0.208   2.738 -0.1705 -0.2952 -0.0929
 8484W        W12684   5.816   6.744  12.205 -0.1208  0.1202 -0.0103
 8485W        W12685  10.284   8.996  10.089 -0.2941 -0.4309 -0.0320
 8486W        W12686  10.678   2.660  12.801 -0.0624  0.2493 -0.0726
 8487W        W12687   6.249   5.416  10.612 -0.1990  0.0562 -0.1472
 8488W        W12688   7.405   0.769  10.946  0.1885 -0.1219 -0.0570
 8489W        W12689   7.146   1.654  10.904 -0.3037 -0.1857  0.1725
 8490W        W12690   4.215   2.223   9.710 -0.0985  0.0708  0.1280
 8491W        W12691   1.672  10.250   7.733  0.0190  0.0567  0.1543
 8492W        W12692   3.903   4.266   3.306  0.1247  0.1320  0.1711
 8493W        W12693   8.348   8.857  12.515 -0.1550 -0.2582 -0.1170
 8494W        W12694   9.194   9.770   2.794 -0.0627 -0.0022 -0.1240
 8495W        W12695   8.627   3.008   9.018  0.0741 -0.1412 -0.0347
 8496W        W12696   4.471   3.352   3.301  0.0639 -0.1577 -0.1073
 8497W        W12697   4.438   8.898   3.057  0.1898 -0.0249  0.2439
 8498W        W12698   9.853   8.676   9.890  0.0297  0.0230  0.0844
 8499W        W12699   1.349   0.653   0.687  0.1578  0.1592  0.2076
 8500W        W12700   0.253   6.071   0.619  0.0273 -0.0659  0.0173
 8501W        W12701   1.158   1.477  10.899 -0.1837  0.0306 -0.0570
 8502W        W12702   2.631   1.330   0.611  0.2924 -0.3687  0.1175
 8503W        W12703   2.326   9.559   3.332  0.0769 -0.0302  0.0505
 8504W        W12704   3.077   4.400   1.433  0.1893  0.1250  0.0707
 8505W        W12705   6.184   7.992   8.786 -0.1258  0.2101  0.2675
 8506W        W12706   2.706   0.039   0.339  0.0255 -0.2538  0.2249
 8507W        W12707   1.449   8.834  10.608  0.2157  0.1998  0.3055
 8508W        W12708   0.857   6.656  11.689 -0.2547  0.2591  0.2721
 8509W        W12709   7.822   6.683   8.904  0.2010  0.0736  0.1131
 8510W        W12710   1.634   4.517   2.844  0.0106  0.1342  0.0668
 8511W        W12711  10.349   0.270   1.219  0.0878  0.2783 -0.2822
 8512W        W12712   9.673   5.697   1.815 -0.1630  0.1236 -0.2082
 8513W        W12713  10.141   8.267   1.891  0.0331  0.0575 -0.0769
 8514W        W12714   6.688   8.616   1.231  0.1083  0.0487  0.0978
 8515W        W12715   3.518   2.604   0.651  0.1526 -0.2000 -0.1405
 8516W        W12716   7.424   3.046  12.665 -0.1031 -0.2019  0.2078
 8517W        W12717   7.279   5.100   2.503  0.2395 -0.2416  0.1316
 8518W        W12718  10.656   9.816  11.268  0.2543 -0.0757  0.1000
 8519W        W12719   5.539   3.858   0.357 -0.0861 -0.1432 -0.2508
 8520W        W12720  10.551   5.666  12.721  0.1002 -0.2820  0.2150
 8521W        W12721   2.728   5.728  10.269  0.2343  0.0964 -0.0526
 8522W        W12722   4.220   5.734   2.851  0.0473  0.3876  0.1860
 8523W        W12723   0.105   0.394   9.011 -0.1364 -0.0814  0.1174
 8524W        W12724   6.549   5.019  10.504 -0.0763  0.0279 -0.0547
 8525W        W12725   3.068   0.503   9.123 -0.0666 -0.1397 -0.3403
 8526W        W12726  10.016   1.862   2.270  0.3494 -0.1560 -0.2118
 8527W        W12727   5.850   3.102   1.780 -0.1306  0.1310 -0.0183
 8528W        W12728   0.628   7.660   9.263 -0.0585  0.0013 -0.2515
 8529W        W12729  10.318   8.537   9.587  0.2976 -0.2270 -0.0453
 8530W        W12730   6.418   4.446   2.771  0.1122 -0.3984  0.2032
 8531W        W12731   2.434   7.351  10.853 -0.1597 -0.0028  0.2055
 8532W        W12732   6.259   7.490   0.021  0.2021  0.1524  0.1797
 8533W        W12733   6.759   0.927   0.571 -0.0057  0.2288 -0.0296
 8534W        W12734   1.058   0.911  11.599  0.1797  0.1799  0.2876
 8535ION    NA+12735   5.086   5.790   2.809  0.0943  0.1496  0.1789
 8536ION    NA+12736   9.058   7.752   4.058  0.0993 -0.1880  0.2966
 8537ION    NA+12737   0.413   0.552   0.858  0.0119 -0.1527  0.2390
 8538ION    NA+12738   4.634   3.369   0.070  0.3693 -0.0867  0.0646
 8539ION    NA+12739   9.094   3.446   0.848 -0.0473  0.0994  0.0858
 8540ION    NA+12740   8.602  10.618  11.734 -0.3935  0.0921 -0.0273
 8541ION    NA+12741   5.169   9.469   4.207 -0.2436  0.2079 -0.1465
 8542ION    NA+12742   8.551   8.248   2.618 -0.0529 -0.2684 -0.1825
 8543ION    NA+12743   7.892   7.282   9.808  0.2717 -0.3862 -0.1556
 8544ION    NA+12744   6.923   8.835   7.823  0.0273 -0.1378 -0.4048
 8545ION    NA+12745   6.630   6.684  12.711 -0.2356  0.1630 -0.0395
 8546ION    NA+12746   0.485   1.449   1.980 -0.0553  0.0411  0.3038
 8547ION    NA+12747   6.237   8.936   2.602  0.0269  0.0375 -0.1365
 8548ION    NA+12748   0.123   4.986   0.759 -0.3929  0.3013 -0.3855
 8549ION    NA+12749  10.037   5.402   3.127  0.2021  0.2944 -0.2953
 8550ION    NA+12750   4.671   5.734   8.650 -0.0409  0.2888  0.1526
 8551ION    NA+12751   6.225   6.610   0.148  0.0767 -0.1508  0.0988
 8552ION    NA+12752   3.796   8.955   3.041 -0.1320  0.1011 -0.0107
 8553ION    NA+12753   1.095   5.580   2.258 -0.2033  0.2684  0.0365
 8554ION    NA+12754   7.539   0.047  12.520  0.1757  0.2144  0.0955
 8555ION    NA+12755   6.109   9.330   1.547 -0.0931  0.0570  0.0997
 8556ION    NA+12756   9.507   9.838   9.555 -0.0126 -0.0893 -0.5729
 8557ION    NA+12757   6.596   2.246   3.254  0.1009 -0.1031  0.1504
 8558ION    NA+12758   5.284   4.282   0.413 -0.1215  0.0521 -0.1631
 8559ION    NA+12759   2.226   7.756   8.695  0.0500 -0.1724 -0.2695
 8560ION    NA+12760   9.293   8.549  12.657 -0.2127  0.1959 -0.2760
 8561ION    NA+12761   6.830   6.909  11.107  0.0161 -0.0638 -0.3012
 8562ION    NA+12762   2.395   4.136   8.962 -0.4465  0.1489 -0.1623
 8563ION    NA+12763  10.160   6.679  11.517 -0.1291  0.1830  0.0059
 8564ION    NA+12764   8.663   6.373  10.644 -0.2000 -0.2535  0.0940
 8565ION    NA+12765   4.846   1.760   0.554 -0.3625  0.0935  0.0134
 8566ION    NA+12766   6.085   5.104  12.571  0.1108  0.2607  0.1494
 8567ION    NA+12767   5.976   6.025   2.176  0.2069  0.1624  0.1725
 8568ION    NA+12768   6.588   9.420   0.710 -0.0804 -0.1121 -0.0047
 8569ION    NA+12769   6.570   4.015  12.147 -0.3038  0.0870  0.2690
 8570ION    NA+12770   1.419   6.582   1.912  0.0732  0.1433 -0.2219
 8571ION    NA+12771   9.381   9.510  12.472 -0.1209  0.1910  0.1691
 8572ION    NA+12772   9.141   2.762   4.820  0.1006  0.3387  0.0528
 8573ION    NA+12773  10.489   8.434   3.295  0.0162  0.2593  0.0056
 8574ION    NA+12774   5.780   7.093   0.762  0.0367  0.2007  0.4036
 8575ION    NA+12775   6.779   1.650   2.574 -0.1462 -0.2985  0.0198
 8576ION    NA+12776   0.631   3.581   3.102  0.1593  0.0401 -0.2157
 8577ION    NA+12777   5.048   9.555   7.467 -0.2588 -0.0394  0.0047
 8578ION    NA+12778   6.903   8.203   2.287  0.1294 -0.1349  0.1161
 8579ION    NA+12779   1.170   3.341  11.302  0.1800  0.1602 -0.4096
 8580ION    NA+12780  10.152   9.177   7.964  0.1443  0.0829  0.1699
 8581ION    NA+12781   5.234   4.491  12.299 -0.2082 -0.1026 -0.1644
 8582ION    NA+12782   2.232   9.271   4.257  0.0320  0.0340  0.1129
 8583ION    NA+12783   6.578   7.594   9.690 -0.2386  0.3985 -0.3590
 8584ION    NA+12784   0.983   1.480   2.820  0.0196  0.0452 -0.2379
 8585ION    NA+12785   3.633   4.926  11.397 -0.2871  0.0811  0.2786
 8586ION    NA+12786   4.095   7.197   1.744 -0.2162 -0.1633 -0.0157
 8587ION    NA+12787   3.011   5.870  11.081 -0.2073 -0.2852 -0.2032
 8588ION    NA+12788   5.433   7.172  10.152 -0.0653  0.0095 -0.3104
 8589ION    NA+12789   1.896  10.274  12.647 -0.1625  0.0121  0.2613
 8590ION    NA+12790   4.913   7.308   9.526 -0.2144 -0.3702 -0.0560
 8591ION    NA+12791   1.335   9.169   3.826 -0.1475 -0.2247  0.3292
 8592ION    NA+12792   2.729   9.505   2.454  0.1419  0.0120 -0.2015
 8593ION    NA+12793   5.101   9.473   9.240  0.0431 -0.1803 -0.4156
 8594ION    NA+12794   8.231   7.529  12.527  0.0553 -0.0204 -0.1372
 8595ION    NA+12795   1.016   5.835   1.585 -0.0311 -0.0025  0.0603
 8596ION    NA+12796   5.075   3.085   8.115 -0.0599 -0.0949 -0.2667
 8597ION    NA+12797   5.583   3.605   8.688 -0.1568  0.0374  0.2357
 8598ION    NA+12798   5.791   0.713  12.483  0.1691 -0.1905 -0.1216
 8599ION    NA+12799   8.041   0.046   4.373  0.0206 -0.0738 -0.0373
 8600ION    NA+12800   6.645   6.321   3.906  0.1336 -0.1024 -0.0971
 8601ION    NA+12801   3.300   7.820   4.000 -0.1826 -0.0464  0.2375
 8602ION    NA+12802   9.014   1.865   8.307 -0.2274  0.1829  0.0326
 8603ION    NA+12803   6.091   6.216  12.235 -0.3217 -0.1573 -0.1287
 8604ION    NA+12804   9.599   0.146  10.915 -0.1073 -0.1920  0.2803
 8605ION    NA+12805   1.833   4.344  10.430 -0.0920  0.1376  0.2070
 8606ION    NA+12806   8.880   8.808   4.153 -0.0119 -0.1228 -0.1550
 8607ION    NA+12807   6.459   9.389  10.614  0.3819  0.1319 -0.0420
 8608ION    NA+12808   3.638   3.297  11.503  0.0106  0.0953  0.0690
 8609ION    NA+12809   9.882   9.399  11.720 -0.0512  0.0901 -0.2654
 8610ION    NA+12810   1.078   3.985  12.253  0.2653 -0.5608 -0.0190
 8611ION    NA+12811  10.428   9.284   9.729  0.4764  0.1273 -0.0223
 8612ION    NA+12812   1.144   6.016   3.606 -0.2579  0.1683 -0.4020
 8613ION    NA+12813   9.826   6.169   9.312 -0.3444  0.3064 -0.1608
 8614ION    NA+12814   8.370   9.001   0.091 -0.0392 -0.2164 -0.1553
 8615ION    NA+12815   6.022   8.116   1.394  0.1413 -0.1240 -0.1540
 8616ION    NA+12816   0.522   2.915  10.871 -0.2493 -0.3608  0.0498
 8617ION    NA+12817   6.054  10.011   2.920 -0.1240  0.0946 -0.0453
 8618ION    NA+12818   9.623   2.946   1.286  0.2472 -0.0500 -0.4092
 8619ION    NA+12819   7.417   4.846   3.261  0.2545  0.3949  0.3015
 8620ION    NA+12820   5.126   8.964  10.572  0.1093 -0.1165  0.1867
 8621ION    NA+12821   8.960   3.660  11.798 -0.0637  0.1903 -0.1929
 8622ION    NA+12822   8.098   4.739   1.946 -0.0872 -0.0253  0.1437
 8623ION    NA+12823   3.716   5.956   4.397 -0.4403  0.1533 -0.0130
 8624ION    NA+12824   3.695   2.464   8.046 -0.0528 -0.1501 -0.0359
 8625ION    CL-12825   4.514   1.424   0.770  0.2983  0.2284 -0.1104
 8626ION    CL-12826   5.240   3.911   0.755  0.0226  0.1883 -0.0558
 8627ION    CL-12827   7.970   1.645   9.101 -0.2057 -0.0897 -0.0898
 8628ION    CL-12828   0.125   2.605   4.002 -0.1463  0.1243 -0.4568
 8629ION    CL-12829   9.556   7.050   9.215  0.1725 -0.1437 -0.3232
 8630ION    CL-12830   6.005   6.505  12.627 -0.0491  0.1115 -0.3295
 8631ION    CL-12831   0.685   6.017   3.783 -0.0886  0.0002  0.0455
 8632ION    CL-12832   0.760   5.207   2.159  0.1960 -0.4421  0.0739
 8633ION    CL-12833   5.590   4.813   3.305  0.0913 -0.0160 -0.0894
 8634ION    CL-12834   7.548   7.617   9.441 -0.0335  0.3867  0.4648
 8635ION    CL-12835   8.667  10.015   3.584  0.0013 -0.1247 -0.2757
 8636ION    CL-12836   0.172  10.063   0.942 -0.1939  0.2503  0.2582
 8637ION    CL-12837   5.620   3.166   2.305 -0.1401  0.4721  0.0525
 8638ION    CL-12838   6.336   4.836  11.753 -0.0801 -0.3024  0.1216
 8639ION    CL-12839  10.032   9.034   9.525  0.0504  0.0179 -0.0454
 8640ION    CL-12840   1.408   4.945   0.025 -0.3850 -0.1496 -0.0002
 8641ION    CL-12841  10.163   5.556   3.692 -0.0067  0.1204  0.3388
 8642ION    CL-12842   2.256   1.983   8.538 -0.2354  0.0374  0.1917
 8643ION    CL-12843   9.489   3.160   0.811  0.0595  0.4223 -0.3685
 8644ION    CL-12844   7.813   2.565   3.654  0.1773  0.1604  0.0598
 8645ION    CL-12845   9.789   3.496   9.547  0.2826  0.2450  0.1389
 8646ION    CL-12846   0.533   1.557   2.504 -0.2608  0.0869 -0.2036
 8647ION    CL-12847   9.544  10.545  11.524  0.0820  0.1297  0.0680
 8648ION    CL-12848   3.207  10.211   8.328  0.1083 -0.3302 -0.0466
 8649ION    CL-12849   8.833   8.672  12.784  0.2995  0.0332  0.1503
 8650ION    CL-12850   6.328   9.411   1.117 -0.2239 -0.0524  0.0912
 8651ION    CL-12851   2.052   1.426   9.293  0.0926 -0.1197 -0.1181
 8652ION    CL-12852   3.670   8.486   3.378 -0.0291 -0.1127 -0.1562
 8653ION    CL-12853   1.585  10.476  12.344  0.0030  0.0673 -0.1531
 8654ION    CL-12854  10.637   5.451   0.891 -0.0504  0.1429  0.2123
 8655ION    CL-12855   4.293   5.405   8.743  0.2471 -0.1577 -0.1687
 8656ION    CL-12856   3.220   4.235  10.986 -0.0230  0.0750  0.0359
 8657ION    CL-12857   8.403   9.106   0.634  0.0574  0.1010 -0.0789
 8658ION    CL-12858   6.423   7.308   9.295  0.2302 -0.2795  0.2782
 8659ION    CL-12859   2.577   0.618   2.669 -0.1442  0.1005 -0.4902
 8660ION    CL-12860   2.209   4.434   1.229 -0.2301  0.2440 -0.2377
 8661ION    CL-12861   6.864   1.761   3.062 -0.0433 -0.2472  0.2028
 8662ION    CL-12862   9.259   2.249   4.046  0.0824  0.1680  0.0515
 8663ION    CL-12863   0.200   3.242   3.042  0.1840 -0.2879  0.2219
 8664ION    CL-12864   0.246   4.520   0.807 -0.1010  0.3621  0.2414
 8665ION    CL-12865   4.870   9.375   3.454  0.1079 -0.0130  0.1201
 8666ION    CL-12866   6.112   6.656   0.696 -0.4909  0.0775 -0.3581
 8667ION    CL-12867   4.678   8.800  10.405  0.0236  0.1521  0.0256
 8668ION    CL-12868   3.055   9.035   2.579  0.2545  0.3396 -0.0138
 8669ION    CL-12869   1.659   7.019   1.916 -0.1309  0.0686  0.0661
 8670ION    CL-12870   4.006   3.189   0.105  0.0059  0.3503 -0.2490
 8671ION    CL-12871   9.008   4.858  10.345 -0.0509  0.3220  0.0433
 8672ION    CL-12872   3.876   9.277   2.685  0.2369 -0.0380 -0.2630
 8673ION    CL-12873   1.316   3.294   9.396 -0.0182  0.0588  0.1018
 8674ION    CL-12874   5.754   4.115  12.914  0.0334 -0.1696 -0.0516
 8675ION    CL-12875   7.107   6.471  12.769 -0.1017 -0.0724 -0.4211
 8676ION    CL-12876   2.905   5.463  11.334  0.1808 -0.0242  0.1981
 8677ION    CL-12877   9.600   8.962  12.553  0.2228 -0.2148 -0.1616
 8678ION    CL-12878   5.844   5.580   2.273  0.0760  0.0695 -0.1656
 8679ION    CL-12879   9.924   1.482   3.587  0.0900  0.1636 -0.2659
 8680ION    CL-12880   1.939   9.760  12.304  0.3226 -0.5773 -0.0357
 8681ION    CL-12881   7.011   9.197  10.603  0.2058 -0.2694 -0.0641
 8682ION    CL-12882   9.809   9.959   9.215 -0.2208 -0.1604  0.1735
 8683ION    CL-12883   9.624   5.972  11.730 -0.0219  0.0736 -0.2961
 8684ION    CL-12884   0.504   9.919   8.498  0.0095  0.2758 -0.1635
 8685ION    CL-12885   7.010   0.914   2.666  0.1977 -0.2233 -0.0442
 8686ION    CL-12886   0.564   1.081   0.282 -0.0412  0.2531  0.1778
 8687ION    CL-12887   9.748   7.384   3.365  0.0078  0.1195  0.2076
 8688ION    CL-12888   6.526   8.069   1.377 -0.0831  0.1953  0.0183
 8689ION    CL-12889   8.340  10.424  12.125  0.0499 -0.0022  0.1814
 8690ION    CL-12890   8.836   6.307   9.700 -0.2925  0.0302 -0.1496
 8691ION    CL-12891   9.037   9.109   8.776 -0.1113 -0.2534  0.0030
 8692ION    CL-12892  10.471   4.527   3.955 -0.4992 -0.1013 -0.2036
 8693ION    CL-12893   8.657   3.064   3.956 -0.0632  0.0305 -0.3250
 8694ION    CL-12894   0.693   3.095  11.317  0.0394  0.0485  0.0212
 8695ION    CL-12895   8.562   5.623   3.444  0.0718 -0.4631 -0.1370
 8696ION    CL-12896   6.665   8.491   2.607 -0.0088 -0.2029  0.2290
 8697ION    CL-12897   8.627   0.387   3.173  0.0210 -0.1269  0.2634
 8698ION    CL-12898   0.082   9.305   3.448 -0.3518  0.0951 -0.1490
 8699ION    CL-12899  10.160   1.064  11.800 -0.1681  0.0922  0.2247
 8700ION    CL-12900   2.132   4.121  10.024  0.2802 -0.2698 -0.2999
 8701ION    CL-12901   5.608   7.500   9.490  0.1336  0.1734  0.0712
 8702ION    CL-12902   4.239   7.986  11.514  0.0438  0.0907 -0.1452
 8703ION    CL-12903   7.075   9.498   0.522  0.1009 -0.0550 -0.1431
 8704ION    CL-12904   3.140   7.693   8.615 -0.0723  0.0188  0.0040
 8705ION    CL-12905   5.723   6.318   1.834 -0.1350 -0.1216 -0.3514
 8706ION    CL-12906   5.560   7.155   1.226 -0.3316 -0.0679 -0.1480
 8707ION    CL-12907   3.238   2.930   3.094 -0.0251 -0.1732  0.1587
 8708ION    CL-12908   6.099   6.292   2.587  0.1469  0.3365  0.4261
 8709ION    CL-12909   5.153   6.680   2.961 -0.2329 -0.0154  0.0199
 8710ION    CL-12910   6.850  10.034   8.909  0.0237  0.1249 -0.1809
 8711ION    CL-12911   5.698  10.069   2.562  0.1270  0.1461 -0.2580
 8712ION    CL-12912   5.076   8.547  11.372  0.0003  0.3881 -0.1678
 8713ION    CL-12913   9.394   9.485   9.944 -0.0691  0.0168  0.0448
 8714ION    CL-12914   6.644   6.769  10.716  0.3650  0.1665  0.2279
  10.69731  10.69731  12.92179
