Protein in INSANE! Membrane UpperLeaflet>POPC=1.0 LowerLeaflet>POPC=1.0
12676
    1AU     AUC    1   5.749   5.858   6.007
    1AU     AUC    2   6.013   5.854   5.848
    1AU     AUC    3   6.004   5.847   6.155
    1AU     AUC    4   5.503   5.858   5.845
    1AU     AUC    5   5.486   5.881   6.152
    1AU     AUC    6   5.606   6.119   6.005
    1AU     AUC    7   5.915   6.110   5.983
    1AU     AUC    8   5.590   5.604   6.020
    1AU     AUC    9   5.884   5.598   6.035
    1AU     AUC   10   5.737   5.712   6.271
    1AU     AUC   11   5.775   6.025   6.256
    1AU     AUC   12   5.750   5.689   5.752
    1AU     AUC   13   5.740   5.991   5.741
    1AU     AUC   14   6.259   5.841   5.683
    1AU     AUC   15   6.271   5.852   5.991
    1AU     AUC   16   6.263   5.848   6.301
    1AU     AUC   17   5.243   5.848   5.688
    1AU     AUC   18   5.230   5.882   5.990
    1AU     AUC   19   5.239   5.906   6.314
    1AU     AUC   20   5.468   6.391   6.003
    1AU     AUC   21   5.772   6.385   5.993
    1AU     AUC   22   6.064   6.375   5.991
    1AU     AUC   23   5.402   5.354   6.034
    1AU     AUC   24   5.723   5.332   6.019
    1AU     AUC   25   6.038   5.332   6.044
    1AU     AUC   26   5.714   5.560   6.523
    1AU     AUC   27   5.752   5.872   6.535
    1AU     AUC   28   5.779   6.184   6.521
    1AU     AUC   29   5.750   5.510   5.518
    1AU     AUC   30   5.760   5.829   5.482
    1AU     AUC   31   5.741   6.140   5.474
    1AU     AUC   32   6.017   5.708   6.433
    1AU     AUC   33   6.024   6.003   6.422
    1AU     AUC   34   6.019   5.678   5.589
    1AU     AUC   35   6.020   5.988   5.572
    1AU     AUC   36   5.478   5.738   6.437
    1AU     AUC   37   5.498   6.046   6.432
    1AU     AUC   38   5.500   5.684   5.579
    1AU     AUC   39   5.491   5.997   5.578
    1AU     AUC   40   6.169   6.118   5.822
    1AU     AUC   41   6.183   6.096   6.141
    1AU     AUC   42   5.338   6.122   5.848
    1AU     AUC   43   5.346   6.150   6.167
    1AU     AUC   44   6.158   5.584   5.860
    1AU     AUC   45   6.163   5.590   6.177
    1AU     AUC   46   5.321   5.604   5.851
    1AU     AUC   47   5.322   5.629   6.189
    1AU     AUC   48   5.610   6.286   6.271
    1AU     AUC   49   5.932   6.284   6.241
    1AU     AUC   50   5.564   5.444   6.274
    1AU     AUC   51   5.886   5.444   6.297
    1AU     AUC   52   5.596   6.271   5.735
    1AU     AUC   53   5.914   6.256   5.722
    1AU     AUC   54   5.571   5.442   5.758
    1AU     AUC   55   5.900   5.422   5.776
    1AU    AUSL   56   6.090   5.804   6.600
    1AU    AUSL   57   6.051   5.375   6.653
    1AU     AUL   58   6.282   5.460   6.910
    1AU       S   59   6.320   5.090   6.591
    1AU     LIG   60   6.180   4.826   6.913
    1AU     LIG   61   6.320   4.464   7.154
    1AU     LIG   62   6.585   4.202   7.450
    1AU     LIG   63   6.665   3.925   7.837
    1AU     LIG   64   6.731   3.740   8.278
    1AU     LIG   65   6.956   3.576   8.656
    1AU       S   66   6.158   5.829   7.160
    1AU     LIG   67   6.320   5.642   7.521
    1AU     LIG   68   6.633   5.448   7.790
    1AU     LIG   69   6.960   5.494   8.114
    1AU     LIG   70   7.310   5.472   8.420
    1AU     LIG   71   7.631   5.577   8.737
    1AU     LIG   72   7.906   5.611   9.103
    1AU    AUSL   73   5.813   5.649   6.878
    1AU    AUSL   74   5.700   6.054   6.795
    1AU     AUL   75   5.755   6.021   7.217
    1AU       S   76   5.886   5.648   7.015
    1AU     LIG   77   6.003   5.292   7.298
    1AU     LIG   78   6.199   5.148   7.738
    1AU     LIG   79   6.255   4.950   8.204
    1AU     LIG   80   6.274   4.761   8.674
    1AU     LIG   81   6.431   4.671   9.131
    1AU     LIG   82   6.561   4.839   9.558
    1AU       S   83   5.393   5.763   7.152
    1AU     LIG   84   5.305   5.674   7.623
    1AU     LIG   85   5.108   5.608   8.052
    1AU     LIG   86   5.031   5.752   8.497
    1AU     LIG   87   5.115   6.014   8.896
    1AU     LIG   88   4.982   6.258   9.280
    1AU     LIG   89   4.698   6.444   9.616
    1AU    AUSL   90   6.094   6.177   6.786
    1AU    AUSL   91   6.420   6.036   6.475
    1AU     AUL   92   6.391   5.899   6.784
    1AU       S   93   6.108   6.204   6.984
    1AU     LIG   94   6.365   6.252   7.363
    1AU     LIG   95   6.434   6.463   7.784
    1AU     LIG   96   6.459   6.659   8.220
    1AU     LIG   97   6.507   6.774   8.690
    1AU     LIG   98   6.632   6.838   9.159
    1AU     LIG   99   6.583   6.824   9.635
    1AU       S  100   6.706   6.105   6.515
    1AU     LIG  101   6.966   6.107   6.896
    1AU     LIG  102   7.205   6.341   7.236
    1AU     LIG  103   7.478   6.642   7.493
    1AU     LIG  104   7.769   6.753   7.868
    1AU     LIG  105   8.189   6.836   8.119
    1AU     LIG  106   8.553   7.045   8.363
    1AU    AUSL  107   6.287   5.879   5.373
    1AU    AUSL  108   6.060   6.275   5.322
    1AU     AUL  109   6.406   6.200   4.946
    1AU       S  110   6.347   5.894   5.237
    1AU     LIG  111   6.605   5.769   4.846
    1AU     LIG  112   6.658   5.585   4.430
    1AU     LIG  113   6.799   5.472   3.987
    1AU     LIG  114   7.183   5.514   3.680
    1AU     LIG  115   7.562   5.658   3.403
    1AU     LIG  116   7.720   5.723   2.952
    1AU       S  117   6.058   6.327   5.168
    1AU     LIG  118   6.357   6.676   5.047
    1AU     LIG  119   6.709   6.743   4.720
    1AU     LIG  120   7.032   6.857   4.357
    1AU     LIG  121   7.232   7.075   3.970
    1AU     LIG  122   7.418   7.433   3.702
    1AU     LIG  123   7.502   7.910   3.607
    1AU    AUSL  124   6.024   5.558   5.212
    1AU    AUSL  125   6.366   5.492   5.506
    1AU     AUL  126   6.377   5.470   5.158
    1AU       S  127   6.493   5.070   5.375
    1AU     LIG  128   6.612   4.876   4.973
    1AU     LIG  129   6.852   4.522   4.770
    1AU     LIG  130   7.098   4.286   4.437
    1AU     LIG  131   7.507   4.343   4.177
    1AU     LIG  132   7.855   4.458   3.862
    1AU     LIG  133   8.221   4.283   3.608
    1AU       S  134   6.105   5.797   4.948
    1AU     LIG  135   6.209   5.426   4.683
    1AU     LIG  136   6.334   5.225   4.258
    1AU     LIG  137   6.397   5.174   3.783
    1AU     LIG  138   6.370   5.058   3.304
    1AU     LIG  139   6.406   5.024   2.813
    1AU     LIG  140   6.635   5.008   2.376
    1AU    AUSL  141   5.867   5.917   5.384
    1AU    AUSL  142   5.614   5.656   5.165
    1AU     AUL  143   5.825   5.443   5.071
    1AU       S  144   5.573   5.751   4.822
    1AU     LIG  145   5.469   5.460   4.469
    1AU     LIG  146   5.243   5.208   4.122
    1AU     LIG  147   5.059   4.920   3.767
    1AU     LIG  148   4.987   4.781   3.305
    1AU     LIG  149   4.803   4.910   2.879
    1AU     LIG  150   4.669   5.125   2.459
    1AU       S  151   6.009   5.888   5.012
    1AU     LIG  152   6.209   5.905   4.495
    1AU     LIG  153   6.321   5.703   4.059
    1AU     LIG  154   6.472   5.651   3.606
    1AU     LIG  155   6.532   5.814   3.165
    1AU     LIG  156   6.722   6.172   2.915
    1AU     LIG  157   6.823   6.378   2.503
    1AU    AUSL  158   5.306   5.936   6.728
    1AU    AUSL  159   5.448   6.347   6.636
    1AU     AUL  160   5.488   6.246   6.926
    1AU       S  161   5.228   5.939   7.174
    1AU     LIG  162   4.913   5.604   7.294
    1AU     LIG  163   4.759   5.409   7.721
    1AU     LIG  164   4.526   5.316   8.156
    1AU     LIG  165   4.194   5.301   8.537
    1AU     LIG  166   3.984   5.461   8.956
    1AU     LIG  167   3.619   5.729   9.159
    1AU       S  168   5.036   6.317   6.863
    1AU     LIG  169   5.031   6.581   7.261
    1AU     LIG  170   4.963   6.858   7.650
    1AU     LIG  171   4.830   6.963   8.097
    1AU     LIG  172   4.777   7.275   8.452
    1AU     LIG  173   4.571   7.641   8.683
    1AU     LIG  174   4.320   8.050   8.762
    1AU    AUSL  175   5.609   5.730   6.529
    1AU    AUSL  176   5.068   5.667   6.515
    1AU     AUL  177   5.114   5.783   6.755
    1AU       S  178   4.910   5.350   6.727
    1AU     LIG  179   4.484   5.154   6.585
    1AU     LIG  180   4.095   4.909   6.720
    1AU     LIG  181   3.917   4.629   7.065
    1AU     LIG  182   3.728   4.337   7.385
    1AU     LIG  183   3.422   4.178   7.706
    1AU     LIG  184   3.126   4.285   8.068
    1AU       S  185   5.407   5.650   7.106
    1AU     LIG  186   5.297   5.261   7.320
    1AU     LIG  187   5.210   5.165   7.783
    1AU     LIG  188   5.007   5.115   8.221
    1AU     LIG  189   4.860   4.890   8.630
    1AU     LIG  190   4.847   4.752   9.095
    1AU     LIG  191   4.742   4.936   9.516
    1AU    AUSL  192   5.354   5.803   5.458
    1AU    AUSL  193   5.500   5.380   5.449
    1AU     AUL  194   5.322   5.490   5.148
    1AU       S  195   5.327   5.832   4.822
    1AU     LIG  196   5.014   5.698   4.494
    1AU     LIG  197   4.808   5.481   4.106
    1AU     LIG  198   4.594   5.204   3.763
    1AU     LIG  199   4.224   5.114   3.452
    1AU     LIG  200   3.937   5.221   3.080
    1AU     LIG  201   3.808   5.549   2.744
    1AU       S  202   5.037   5.090   5.308
    1AU     LIG  203   4.742   4.742   5.278
    1AU     LIG  204   4.396   4.514   5.069
    1AU     LIG  205   4.163   4.292   4.719
    1AU     LIG  206   4.236   4.086   4.273
    1AU     LIG  207   4.314   3.784   3.886
    1AU     LIG  208   4.152   3.444   3.575
    1AU    AUSL  209   5.550   6.089   5.171
    1AU    AUSL  210   5.118   6.147   5.447
    1AU     AUL  211   5.143   5.931   5.223
    1AU       S  212   5.052   6.392   5.227
    1AU     LIG  213   4.687   6.616   4.977
    1AU     LIG  214   4.517   6.709   4.525
    1AU     LIG  215   4.419   6.865   4.074
    1AU     LIG  216   4.103   7.020   3.751
    1AU     LIG  217   3.648   7.157   3.743
    1AU     LIG  218   3.405   7.548   3.670
    1AU       S  219   5.547   6.007   4.958
    1AU     LIG  220   5.502   5.994   4.401
    1AU     LIG  221   5.269   5.748   4.048
    1AU     LIG  222   5.069   5.813   3.615
    1AU     LIG  223   5.108   6.053   3.187
    1AU     LIG  224   5.132   6.209   2.724
    1AU     LIG  225   4.937   6.291   2.288
    1AU    AUSL  226   6.375   6.477   5.937
    1AU    AUSL  227   6.404   6.224   5.584
    1AU     AUL  228   6.526   6.674   5.738
    1AU       S  229   6.533   6.334   5.373
    1AU     LIG  230   6.871   6.343   5.036
    1AU     LIG  231   7.159   6.466   4.675
    1AU     LIG  232   7.494   6.584   4.355
    1AU     LIG  233   7.932   6.572   4.150
    1AU     LIG  234   8.297   6.838   4.004
    1AU     LIG  235   8.474   7.024   3.593
    1AU       S  236   6.829   6.336   5.855
    1AU     LIG  237   7.307   6.451   5.992
    1AU     LIG  238   7.815   6.508   6.010
    1AU     LIG  239   8.306   6.594   6.002
    1AU     LIG  240   8.685   6.930   6.008
    1AU     LIG  241   8.989   7.328   6.012
    1AU     LIG  242   9.218   7.731   6.173
    1AU    AUSL  243   6.598   5.889   5.731
    1AU    AUSL  244   6.596   5.736   6.155
    1AU     AUL  245   6.869   5.674   5.923
    1AU       S  246   6.823   6.109   5.768
    1AU     LIG  247   7.289   5.985   5.800
    1AU     LIG  248   7.784   6.051   5.777
    1AU     LIG  249   8.272   6.140   5.714
    1AU     LIG  250   8.759   6.081   5.675
    1AU     LIG  251   9.198   6.287   5.672
    1AU     LIG  252   9.568   6.582   5.495
    1AU       S  253   6.898   5.269   6.170
    1AU     LIG  254   7.290   5.039   6.227
    1AU     LIG  255   7.694   4.802   6.247
    1AU     LIG  256   8.087   4.565   6.266
    1AU     LIG  257   8.512   4.412   6.217
    1AU     LIG  258   8.876   4.348   6.481
    1AU     LIG  259   9.217   4.454   6.797
    1AU    AUSL  260   6.382   6.076   6.060
    1AU    AUSL  261   6.280   6.411   6.343
    1AU     AUL  262   6.526   6.413   6.205
    1AU       S  263   6.572   6.310   6.637
    1AU     LIG  264   6.973   6.547   6.632
    1AU     LIG  265   7.190   6.788   6.982
    1AU     LIG  266   7.388   7.121   7.264
    1AU     LIG  267   7.608   7.571   7.275
    1AU     LIG  268   7.844   8.001   7.356
    1AU     LIG  269   8.099   8.379   7.523
    1AU       S  270   6.847   6.137   6.047
    1AU     LIG  271   7.186   6.078   6.327
    1AU     LIG  272   7.657   6.093   6.278
    1AU     LIG  273   8.142   6.126   6.205
    1AU     LIG  274   8.632   6.188   6.158
    1AU     LIG  275   9.116   6.307   6.193
    1AU     LIG  276   9.465   6.580   6.403
    1AU    AUSL  277   5.097   6.432   6.074
    1AU    AUSL  278   5.140   6.159   6.419
    1AU     AUL  279   5.104   6.606   6.344
    1AU       S  280   4.931   6.235   6.616
    1AU     LIG  281   4.589   6.434   6.996
    1AU     LIG  282   4.538   6.653   7.435
    1AU     LIG  283   4.388   6.736   7.904
    1AU     LIG  284   4.033   6.811   8.255
    1AU     LIG  285   3.596   7.018   8.387
    1AU     LIG  286   3.215   7.275   8.548
    1AU       S  287   4.734   6.476   6.113
    1AU     LIG  288   4.623   6.908   6.280
    1AU     LIG  289   4.388   7.354   6.145
    1AU     LIG  290   3.998   7.681   6.151
    1AU     LIG  291   3.535   7.879   6.075
    1AU     LIG  292   3.106   8.121   6.131
    1AU     LIG  293   2.693   8.148   6.413
    1AU    AUSL  294   5.175   6.086   5.850
    1AU    AUSL  295   5.262   6.496   5.688
    1AU     AUL  296   4.996   6.421   5.709
    1AU       S  297   4.611   6.384   5.974
    1AU     LIG  298   4.437   6.495   5.555
    1AU     LIG  299   4.016   6.736   5.429
    1AU     LIG  300   3.519   6.794   5.319
    1AU     LIG  301   3.050   6.942   5.241
    1AU     LIG  302   2.584   6.778   5.229
    1AU     LIG  303   2.129   6.932   5.119
    1AU       S  304   5.096   6.670   5.314
    1AU     LIG  305   4.988   7.035   5.020
    1AU     LIG  306   4.910   7.431   4.779
    1AU     LIG  307   4.532   7.687   4.776
    1AU     LIG  308   4.389   8.084   4.600
    1AU     LIG  309   4.030   8.330   4.404
    1AU     LIG  310   3.801   8.732   4.289
    1AU    AUSL  311   4.876   6.019   6.143
    1AU    AUSL  312   4.928   5.760   5.794
    1AU     AUL  313   4.778   6.019   5.755
    1AU       S  314   4.577   5.580   5.920
    1AU     LIG  315   4.233   5.502   6.275
    1AU     LIG  316   3.755   5.395   6.351
    1AU     LIG  317   3.311   5.218   6.226
    1AU     LIG  318   2.905   5.056   5.925
    1AU     LIG  319   2.398   5.039   5.869
    1AU     LIG  320   1.964   4.935   5.647
    1AU       S  321   4.687   6.088   6.224
    1AU     LIG  322   4.446   6.401   6.507
    1AU     LIG  323   4.045   6.586   6.711
    1AU     LIG  324   3.557   6.703   6.750
    1AU     LIG  325   3.071   6.818   6.733
    1AU     LIG  326   2.644   7.042   6.784
    1AU     LIG  327   2.203   6.874   6.840
    1AU    AUSL  328   6.443   5.339   6.082
    1AU    AUSL  329   6.392   5.556   6.465
    1AU     AUL  330   6.694   5.603   6.415
    1AU       S  331   6.594   5.080   6.056
    1AU     LIG  332   6.837   4.765   6.269
    1AU     LIG  333   7.244   4.530   6.145
    1AU     LIG  334   7.677   4.338   6.008
    1AU     LIG  335   8.131   4.155   5.954
    1AU     LIG  336   8.493   3.900   6.146
    1AU     LIG  337   8.855   3.830   6.490
    1AU       S  338   6.427   5.233   6.542
    1AU     LIG  339   6.713   4.866   6.782
    1AU     LIG  340   6.842   4.547   7.128
    1AU     LIG  341   7.102   4.303   7.459
    1AU     LIG  342   7.457   4.232   7.787
    1AU     LIG  343   7.801   4.255   8.136
    1AU     LIG  344   8.216   4.224   8.389
    1AU    AUSL  345   6.284   5.668   5.871
    1AU    AUSL  346   6.205   5.197   5.772
    1AU     AUL  347   6.549   5.405   5.699
    1AU       S  348   6.641   5.250   6.107
    1AU     LIG  349   7.002   4.960   5.802
    1AU     LIG  350   7.488   4.805   5.776
    1AU     LIG  351   7.983   4.683   5.778
    1AU     LIG  352   8.435   4.492   5.700
    1AU     LIG  353   8.836   4.456   5.459
    1AU     LIG  354   9.222   4.698   5.526
    1AU       S  355   6.434   4.955   5.588
    1AU     LIG  356   6.435   4.547   5.326
    1AU     LIG  357   6.631   4.171   5.083
    1AU     LIG  358   6.863   3.790   4.878
    1AU     LIG  359   7.088   3.336   4.873
    1AU     LIG  360   7.505   3.103   4.760
    1AU     LIG  361   7.976   3.120   4.620
    1AU    AUSL  362   5.015   5.381   5.988
    1AU    AUSL  363   5.111   5.480   5.558
    1AU     AUL  364   4.848   5.584   5.532
    1AU       S  365   5.012   5.152   5.553
    1AU     LIG  366   4.540   5.166   5.510
    1AU     LIG  367   4.222   4.993   5.236
    1AU     LIG  368   3.968   4.764   4.930
    1AU     LIG  369   3.682   4.492   4.690
    1AU     LIG  370   3.400   4.425   4.308
    1AU     LIG  371   3.150   4.420   3.894
    1AU       S  372   4.729   5.364   5.924
    1AU     LIG  373   4.392   5.089   6.023
    1AU     LIG  374   3.949   5.041   6.045
    1AU     LIG  375   3.617   4.817   6.280
    1AU     LIG  376   3.151   4.695   6.202
    1AU     LIG  377   2.736   4.436   6.090
    1AU     LIG  378   2.517   4.033   5.926
    1AU    AUSL  379   5.190   5.749   6.136
    1AU    AUSL  380   5.276   5.355   6.319
    1AU     AUL  381   4.890   5.552   6.308
    1AU       S  382   4.997   5.163   6.523
    1AU     LIG  383   4.781   4.873   6.279
    1AU     LIG  384   4.375   4.647   6.383
    1AU     LIG  385   4.096   4.353   6.672
    1AU     LIG  386   3.840   4.052   6.974
    1AU     LIG  387   3.638   3.718   7.276
    1AU     LIG  388   3.535   3.237   7.349
    1AU       S  389   4.616   5.643   5.963
    1AU     LIG  390   4.127   5.463   5.777
    1AU     LIG  391   3.638   5.436   5.846
    1AU     LIG  392   3.147   5.511   5.856
    1AU     LIG  393   2.850   5.425   6.251
    1AU     LIG  394   2.373   5.363   6.314
    1AU     LIG  395   1.941   5.238   6.496
    1AU    AUSL  396   5.803   6.547   6.538
    1AU    AUSL  397   5.471   6.328   6.222
    1AU     AUL  398   5.504   6.626   6.614
    1AU       S  399   5.103   6.455   6.768
    1AU     LIG  400   4.870   6.830   6.829
    1AU     LIG  401   4.772   7.100   7.216
    1AU     LIG  402   4.681   7.554   7.397
    1AU     LIG  403   4.543   8.035   7.432
    1AU     LIG  404   4.271   8.436   7.502
    1AU     LIG  405   3.835   8.570   7.651
    1AU       S  406   5.858   6.932   6.496
    1AU     LIG  407   5.993   7.096   6.881
    1AU     LIG  408   6.058   7.529   7.047
    1AU     LIG  409   6.113   7.870   7.382
    1AU     LIG  410   6.094   8.158   7.777
    1AU     LIG  411   5.941   8.505   8.080
    1AU     LIG  412   5.870   8.963   8.202
    1AU    AUSL  413   5.548   6.727   6.171
    1AU    AUSL  414   5.999   6.701   5.756
    1AU     AUL  415   5.687   6.956   5.921
    1AU       S  416   5.695   7.006   6.379
    1AU     LIG  417   5.803   7.448   6.556
    1AU     LIG  418   5.776   7.872   6.753
    1AU     LIG  419   5.517   8.270   6.803
    1AU     LIG  420   5.399   8.733   6.891
    1AU     LIG  421   5.327   9.206   7.024
    1AU     LIG  422   5.171   9.646   7.138
    1AU       S  423   6.027   7.039   5.591
    1AU     LIG  424   6.376   7.274   5.394
    1AU     LIG  425   6.480   7.729   5.264
    1AU     LIG  426   6.772   8.133   5.223
    1AU     LIG  427   6.853   8.615   5.219
    1AU     LIG  428   6.872   9.092   5.198
    1AU     LIG  429   6.850   9.567   5.130
    1AU    AUSL  430   5.949   6.558   6.145
    1AU    AUSL  431   5.937   6.181   6.409
    1AU     AUL  432   6.132   6.568   6.544
    1AU       S  433   6.513   6.353   6.738
    1AU     LIG  434   6.733   6.529   7.108
    1AU     LIG  435   6.970   6.756   7.461
    1AU     LIG  436   7.204   6.895   7.864
    1AU     LIG  437   7.251   7.131   8.291
    1AU     LIG  438   7.299   7.538   8.559
    1AU     LIG  439   7.448   7.876   8.875
    1AU       S  440   6.038   6.880   6.217
    1AU     LIG  441   6.264   7.245   6.460
    1AU     LIG  442   6.351   7.702   6.643
    1AU     LIG  443   6.658   8.117   6.695
    1AU     LIG  444   6.826   8.598   6.739
    1AU     LIG  445   6.663   9.053   6.749
    1AU     LIG  446   6.701   9.523   6.872
    1AU    AUSL  447   5.703   5.292   6.442
    1AU    AUSL  448   6.066   5.413   6.235
    1AU     AUL  449   5.890   5.177   6.702
    1AU       S  450   5.777   4.751   6.574
    1AU     LIG  451   5.796   4.387   6.824
    1AU     LIG  452   5.449   4.086   6.827
    1AU     LIG  453   5.347   3.641   6.879
    1AU     LIG  454   5.349   3.286   7.191
    1AU     LIG  455   5.378   3.094   7.637
    1AU     LIG  456   5.449   2.804   8.012
    1AU       S  457   6.349   5.052   6.455
    1AU     LIG  458   6.373   4.585   6.504
    1AU     LIG  459   6.603   4.261   6.773
    1AU     LIG  460   6.896   4.004   7.077
    1AU     LIG  461   7.203   3.652   7.260
    1AU     LIG  462   7.518   3.272   7.352
    1AU     LIG  463   7.926   3.009   7.388
    1AU    AUSL  464   5.511   5.048   6.167
    1AU    AUSL  465   5.416   5.422   6.717
    1AU     AUL  466   5.444   5.081   6.531
    1AU       S  467   5.589   4.655   6.447
    1AU     LIG  468   5.396   4.268   6.323
    1AU     LIG  469   5.195   3.851   6.422
    1AU     LIG  470   5.007   3.428   6.535
    1AU     LIG  471   4.745   3.026   6.543
    1AU     LIG  472   4.617   2.638   6.775
    1AU     LIG  473   4.686   2.203   6.898
    1AU       S  474   5.145   5.294   6.807
    1AU     LIG  475   4.834   4.890   6.904
    1AU     LIG  476   4.456   4.603   6.949
    1AU     LIG  477   4.244   4.258   7.210
    1AU     LIG  478   4.042   3.947   7.517
    1AU     LIG  479   4.044   3.696   7.928
    1AU     LIG  480   4.034   3.612   8.398
    1AU    AUSL  481   5.960   5.012   6.222
    1AU    AUSL  482   5.471   5.039   5.748
    1AU     AUL  483   5.652   4.804   6.020
    1AU       S  484   5.396   4.714   5.624
    1AU     LIG  485   5.090   4.415   5.551
    1AU     LIG  486   5.080   3.950   5.640
    1AU     LIG  487   5.090   3.483   5.520
    1AU     LIG  488   4.838   3.071   5.426
    1AU     LIG  489   4.672   2.642   5.269
    1AU     LIG  490   4.655   2.226   5.051
    1AU       S  491   5.913   4.820   6.392
    1AU     LIG  492   5.933   4.317   6.331
    1AU     LIG  493   5.723   3.883   6.444
    1AU     LIG  494   5.665   3.406   6.529
    1AU     LIG  495   5.904   2.965   6.526
    1AU     LIG  496   6.106   2.564   6.713
    1AU     LIG  497   6.273   2.180   6.928
    1AU    AUSL  498   5.742   6.518   5.439
    1AU    AUSL  499   6.045   6.288   5.766
    1AU     AUL  500   6.123   6.601   5.505
    1AU       S  501   5.790   6.812   5.257
    1AU     LIG  502   6.063   7.090   5.033
    1AU     LIG  503   6.171   7.514   4.891
    1AU     LIG  504   6.113   7.794   4.509
    1AU     LIG  505   6.056   8.104   4.152
    1AU     LIG  506   6.017   8.533   3.973
    1AU     LIG  507   6.040   8.859   3.632
    1AU       S  508   6.485   6.305   5.469
    1AU     LIG  509   6.782   6.746   5.325
    1AU     LIG  510   7.115   6.867   5.008
    1AU     LIG  511   7.393   7.147   4.736
    1AU     LIG  512   7.635   7.580   4.706
    1AU     LIG  513   7.831   8.015   4.596
    1AU     LIG  514   7.844   8.432   4.352
    1AU    AUSL  515   5.643   6.490   5.847
    1AU    AUSL  516   5.528   6.193   5.566
    1AU     AUL  517   5.476   6.681   5.589
    1AU       S  518   5.828   6.977   5.487
    1AU     LIG  519   5.892   7.460   5.345
    1AU     LIG  520   5.953   7.909   5.172
    1AU     LIG  521   5.779   8.366   5.085
    1AU     LIG  522   5.459   8.742   4.985
    1AU     LIG  523   5.416   9.223   4.854
    1AU     LIG  524   4.990   9.416   4.748
    1AU       S  525   5.326   6.489   5.187
    1AU     LIG  526   5.154   6.622   4.759
    1AU     LIG  527   4.964   6.929   4.419
    1AU     LIG  528   4.899   7.020   3.935
    1AU     LIG  529   4.878   7.365   3.596
    1AU     LIG  530   4.555   7.676   3.440
    1AU     LIG  531   4.243   7.909   3.148
    1AU    AUSL  532   5.828   5.129   5.486
    1AU    AUSL  533   5.405   5.428   5.860
    1AU     AUL  534   5.468   5.133   5.442
    1AU       S  535   5.019   5.028   5.686
    1AU     LIG  536   4.674   4.741   5.778
    1AU     LIG  537   4.263   4.604   5.563
    1AU     LIG  538   3.934   4.367   5.253
    1AU     LIG  539   3.691   4.029   4.976
    1AU     LIG  540   3.417   3.606   4.866
    1AU     LIG  541   3.261   3.294   4.529
    1AU       S  542   5.725   4.757   5.405
    1AU     LIG  543   5.471   4.480   5.158
    1AU     LIG  544   5.302   4.067   5.192
    1AU     LIG  545   5.340   3.620   5.086
    1AU     LIG  546   5.374   3.289   4.754
    1AU     LIG  547   5.362   3.122   4.300
    1AU     LIG  548   5.478   2.832   3.946
    1AU    AUSL  549   5.813   5.227   5.904
    1AU    AUSL  550   5.943   5.503   5.606
    1AU     AUL  551   5.989   4.984   5.716
    1AU       S  552   5.629   4.708   5.582
    1AU     LIG  553   5.581   4.235   5.615
    1AU     LIG  554   5.553   3.765   5.542
    1AU     LIG  555   5.636   3.314   5.415
    1AU     LIG  556   5.977   2.953   5.420
    1AU     LIG  557   6.282   2.593   5.323
    1AU     LIG  558   6.505   2.199   5.133
    1AU       S  559   6.241   5.061   5.317
    1AU     LIG  560   6.095   4.788   5.018
    1AU     LIG  561   6.329   4.463   4.778
    1AU     LIG  562   6.590   4.134   4.550
    1AU     LIG  563   6.741   3.929   4.155
    1AU     LIG  564   6.918   3.721   3.774
    1AU     LIG  565   7.221   3.574   3.454
    2POPC   NC3  566   1.398   2.500   7.915
    2POPC   PO4  567   1.147   3.078   8.135
    2POPC   GL1  568   1.238   2.976   7.716
    2POPC   GL2  569   0.907   2.830   7.694
    2POPC   C1A  570   1.251   2.701   7.317
    2POPC   D2A  571   1.465   2.700   6.944
    2POPC   C3A  572   1.349   2.741   6.537
    2POPC   C4A  573   1.644   2.977   6.302
    2POPC   C1B  574   0.880   3.043   7.295
    2POPC   C2B  575   1.005   3.045   6.864
    2POPC   C3B  576   0.856   2.873   6.476
    2POPC   C4B  577   1.093   2.782   6.087
    3POPC   NC3  578   2.746   1.958   8.083
    3POPC   PO4  579   3.225   2.307   7.721
    3POPC   GL1  580   3.010   1.910   7.608
    3POPC   GL2  581   2.663   1.744   7.627
    3POPC   C1A  582   3.010   1.909   7.187
    3POPC   D2A  583   3.117   2.008   6.793
    3POPC   C3A  584   2.999   1.876   6.466
    3POPC   C4A  585   3.070   1.958   6.104
    3POPC   C1B  586   2.531   2.030   7.314
    3POPC   C2B  587   2.583   2.116   6.877
    3POPC   C3B  588   2.504   2.034   6.458
    3POPC   C4B  589   2.615   2.149   6.027
    4POPC   NC3  590   8.558   5.194   8.160
    4POPC   PO4  591   9.039   5.465   8.211
    4POPC   GL1  592   8.927   5.267   7.789
    4POPC   GL2  593   8.962   4.908   7.673
    4POPC   C1A  594   8.943   5.278   7.301
    4POPC   D2A  595   9.193   5.188   6.894
    4POPC   C3A  596   9.044   5.255   6.443
    4POPC   C4A  597   8.787   5.285   6.056
    4POPC   C1B  598   9.000   4.778   7.190
    4POPC   C2B  599   8.857   4.829   6.732
    4POPC   C3B  600   8.849   4.809   6.279
    4POPC   C4B  601   8.938   4.518   5.951
    5POPC   NC3  602   1.405   0.521   8.059
    5POPC   PO4  603   0.845   0.825   7.971
    5POPC   GL1  604   1.016   0.463   7.700
    5POPC   GL2  605   1.243   0.151   7.749
    5POPC   C1A  606   0.914   0.374   7.264
    5POPC   D2A  607   0.832   0.555   6.855
    5POPC   C3A  608   0.839   0.187   6.610
    5POPC   C4A  609   0.866  11.482   6.235
    5POPC   C1B  610   1.426   0.370   7.373
    5POPC   C2B  611   1.339   0.535   6.945
    5POPC   C3B  612   1.235   0.500   6.499
    5POPC   C4B  613   1.270   0.258   6.135
    6POPC   NC3  614   7.881   2.567   7.972
    6POPC   PO4  615   7.600   3.134   8.010
    6POPC   GL1  616   7.514   2.822   7.662
    6POPC   GL2  617   7.152   2.739   7.672
    6POPC   C1A  618   7.517   2.756   7.186
    6POPC   D2A  619   7.382   2.874   6.742
    6POPC   C3A  620   7.594   2.770   6.329
    6POPC   C4A  621   7.640   2.915   5.884
    6POPC   C1B  622   7.173   2.429   7.363
    6POPC   C2B  623   7.175   2.418   6.909
    6POPC   C3B  624   7.101   2.524   6.462
    6POPC   C4B  625   7.269   2.480   6.045
    7POPC   NC3  626   2.125   5.681   8.144
    7POPC   PO4  627   1.653   6.118   8.053
    7POPC   GL1  628   1.661   5.955   7.663
    7POPC   GL2  629   2.019   5.923   7.657
    7POPC   C1A  630   1.643   6.136   7.240
    7POPC   D2A  631   1.820   6.017   6.866
    7POPC   C3A  632   1.688   6.069   6.447
    7POPC   C4A  633   1.730   5.696   6.235
    7POPC   C1B  634   1.865   5.672   7.294
    7POPC   C2B  635   2.029   5.557   6.887
    7POPC   C3B  636   2.135   5.797   6.516
    7POPC   C4B  637   2.189   5.785   6.058
    8POPC   NC3  638   0.404   5.431   8.140
    8POPC   PO4  639   0.052   4.913   8.109
    8POPC   GL1  640   0.223   4.994   7.783
    8POPC   GL2  641   0.555   5.027   7.858
    8POPC   C1A  642   0.106   4.852   7.358
    8POPC   D2A  643   0.178   4.659   6.952
    8POPC   C3A  644  11.491   4.792   6.587
    8POPC   C4A  645   0.212   4.865   6.240
    8POPC   C1B  646   0.549   5.158   7.447
    8POPC   C2B  647   0.507   5.045   7.031
    8POPC   C3B  648   0.463   5.148   6.573
    8POPC   C4B  649   0.614   5.186   6.152
    9POPC   NC3  650  11.218   5.257   8.118
    9POPC   PO4  651  11.052   4.626   8.339
    9POPC   GL1  652  11.116   4.792   7.843
    9POPC   GL2  653  11.258   5.121   7.654
    9POPC   C1A  654  11.057   4.790   7.370
    9POPC   D2A  655  11.068   5.071   6.971
    9POPC   C3A  656  10.956   4.894   6.584
    9POPC   C4A  657  11.081   4.833   6.183
    9POPC   C1B  658  11.398   5.314   7.282
    9POPC   C2B  659   0.057   5.214   6.864
    9POPC   C3B  660  11.423   5.276   6.387
    9POPC   C4B  661  11.177   5.296   5.963
   10POPC   NC3  662  11.367   8.177   7.903
   10POPC   PO4  663  10.656   8.325   8.036
   10POPC   GL1  664  10.950   8.317   7.630
   10POPC   GL2  665  11.325   8.401   7.477
   10POPC   C1A  666  10.906   8.323   7.180
   10POPC   D2A  667  10.891   8.492   6.794
   10POPC   C3A  668  11.036   8.189   6.579
   10POPC   C4A  669  10.982   8.047   6.195
   10POPC   C1B  670  11.350   8.019   7.249
   10POPC   C2B  671  11.453   8.087   6.844
   10POPC   C3B  672  11.472   7.974   6.455
   10POPC   C4B  673  11.410   8.295   6.199
   11POPC   NC3  674   3.543   2.435   8.032
   11POPC   PO4  675   4.203   2.544   8.268
   11POPC   GL1  676   3.961   2.526   7.782
   11POPC   GL2  677   3.611   2.748   7.634
   11POPC   C1A  678   3.849   2.430   7.341
   11POPC   D2A  679   3.648   2.684   7.073
   11POPC   C3A  680   3.759   2.556   6.689
   11POPC   C4A  681   3.761   2.818   6.367
   11POPC   C1B  682   3.214   2.822   7.322
   11POPC   C2B  683   3.092   2.949   6.886
   11POPC   C3B  684   3.225   2.842   6.449
   11POPC   C4B  685   3.429   3.170   6.194
   12POPC   NC3  686   4.799   7.989   8.038
   12POPC   PO4  687   5.155   7.578   7.939
   12POPC   GL1  688   5.039   7.884   7.586
   12POPC   GL2  689   5.115   8.220   7.689
   12POPC   C1A  690   4.944   7.916   7.119
   12POPC   D2A  691   5.131   7.905   6.688
   12POPC   C3A  692   4.810   7.958   6.347
   12POPC   C4A  693   4.422   8.078   6.092
   12POPC   C1B  694   5.226   8.312   7.244
   12POPC   C2B  695   5.017   8.390   6.828
   12POPC   C3B  696   5.191   8.316   6.380
   12POPC   C4B  697   5.260   7.957   6.080
   13POPC   NC3  698   8.470   0.950   7.988
   13POPC   PO4  699   7.759   1.061   8.131
   13POPC   GL1  700   8.012   1.100   7.755
   13POPC   GL2  701   7.828   1.345   7.542
   13POPC   C1A  702   8.113   0.920   7.349
   13POPC   D2A  703   7.959   1.031   6.917
   13POPC   C3A  704   8.247   0.957   6.592
   13POPC   C4A  705   8.295   1.084   6.180
   13POPC   C1B  706   8.151   1.412   7.212
   13POPC   C2B  707   8.235   1.482   6.786
   13POPC   C3B  708   7.951   1.356   6.456
   13POPC   C4B  709   7.759   1.629   6.156
   14POPC   NC3  710   1.109   9.563   8.094
   14POPC   PO4  711   0.855  10.187   8.130
   14POPC   GL1  712   1.026   9.936   7.751
   14POPC   GL2  713   1.398   9.860   7.749
   14POPC   C1A  714   0.867   9.927   7.331
   14POPC   D2A  715   1.130   9.890   6.958
   14POPC   C3A  716   1.056   9.630   6.592
   14POPC   C4A  717   1.143   9.861   6.226
   14POPC   C1B  718   1.305   9.631   7.374
   14POPC   C2B  719   1.518   9.524   6.971
   14POPC   C3B  720   1.571   9.648   6.566
   14POPC   C4B  721   1.481   9.483   6.167
   15POPC   NC3  722   1.267  10.553   8.182
   15POPC   PO4  723   0.728  10.689   7.824
   15POPC   GL1  724   0.980  10.430   7.646
   15POPC   GL2  725   1.346  10.408   7.680
   15POPC   C1A  726   1.066  10.380   7.230
   15POPC   D2A  727   1.294  10.498   6.896
   15POPC   C3A  728   1.140  10.264   6.559
   15POPC   C4A  729   0.906  10.318   6.189
   15POPC   C1B  730   1.552  10.235   7.288
   15POPC   C2B  731   1.595  10.074   6.848
   15POPC   C3B  732   1.616  10.138   6.390
   15POPC   C4B  733   1.394  10.351   6.084
   16POPC   NC3  734   3.605   9.376   8.252
   16POPC   PO4  735   3.065   9.219   7.992
   16POPC   GL1  736   3.423   9.462   7.760
   16POPC   GL2  737   3.664   9.750   7.821
   16POPC   C1A  738   3.443   9.550   7.315
   16POPC   D2A  739   3.328   9.718   6.904
   16POPC   C3A  740   3.299   9.514   6.480
   16POPC   C4A  741   3.208   9.510   6.041
   16POPC   C1B  742   3.732   9.966   7.390
   16POPC   C2B  743   3.818   9.937   6.918
   16POPC   C3B  744   3.771   9.741   6.479
   16POPC   C4B  745   3.690   9.735   6.013
   17POPC   NC3  746  10.463   1.257   8.275
   17POPC   PO4  747  10.365   1.823   7.956
   17POPC   GL1  748  10.306   1.512   7.643
   17POPC   GL2  749  10.457   1.180   7.718
   17POPC   C1A  750  10.547   1.411   7.250
   17POPC   D2A  751  10.682   1.236   6.866
   17POPC   C3A  752  10.630   1.566   6.609
   17POPC   C4A  753  10.509   1.556   6.212
   17POPC   C1B  754  10.136   1.123   7.365
   17POPC   C2B  755  10.214   1.025   6.947
   17POPC   C3B  756  10.240   1.208   6.540
   17POPC   C4B  757  10.256   1.074   6.090
   18POPC   NC3  758   3.821  11.339   8.157
   18POPC   PO4  759   3.281   0.054   7.841
   18POPC   GL1  760   3.630  11.394   7.678
   18POPC   GL2  761   3.549  11.052   7.683
   18POPC   C1A  762   3.754  11.339   7.273
   18POPC   D2A  763   3.716  11.046   6.947
   18POPC   C3A  764   3.683  11.199   6.577
   18POPC   C4A  765   3.721   0.020   6.300
   18POPC   C1B  766   3.291  11.075   7.285
   18POPC   C2B  767   3.228  10.915   6.849
   18POPC   C3B  768   3.257  11.020   6.399
   18POPC   C4B  769   3.591  11.001   6.085
   19POPC   NC3  770  11.333   6.250   8.093
   19POPC   PO4  771  11.257   6.914   7.977
   19POPC   GL1  772  11.253   6.710   7.612
   19POPC   GL2  773  11.265   6.353   7.607
   19POPC   C1A  774  11.139   6.842   7.198
   19POPC   D2A  775  11.104   7.011   6.786
   19POPC   C3A  776  11.209   6.800   6.340
   19POPC   C4A  777  10.894   6.942   5.958
   19POPC   C1B  778  11.216   6.348   7.187
   19POPC   C2B  779  11.046   6.501   6.812
   19POPC   C3B  780  11.062   6.304   6.447
   19POPC   C4B  781  11.473   6.235   6.274
   20POPC   NC3  782  10.423   0.267   8.413
   20POPC   PO4  783  10.969   0.046   8.121
   20POPC   GL1  784  10.754   0.234   7.737
   20POPC   GL2  785  10.400   0.357   7.765
   20POPC   C1A  786  10.591   0.243   7.285
   20POPC   D2A  787  10.511  11.497   6.916
   20POPC   C3A  788  10.570   0.223   6.536
   20POPC   C4A  789  10.688   0.192   6.109
   20POPC   C1B  790  10.266   0.613   7.364
   20POPC   C2B  791  10.406   0.559   6.919
   20POPC   C3B  792  10.268   0.684   6.513
   20POPC   C4B  793  10.220   0.418   6.186
   21POPC   NC3  794   6.951   1.118   7.958
   21POPC   PO4  795   6.259   1.164   8.033
   21POPC   GL1  796   6.509   0.974   7.678
   21POPC   GL2  797   6.288   0.751   7.481
   21POPC   C1A  798   6.850   1.065   7.338
   21POPC   D2A  799   6.785   1.232   6.940
   21POPC   C3A  800   6.545   0.976   6.687
   21POPC   C4A  801   6.561   1.206   6.328
   21POPC   C1B  802   6.340   1.101   7.185
   21POPC   C2B  803   6.287   1.465   6.900
   21POPC   C3B  804   6.354   1.668   6.480
   21POPC   C4B  805   6.205   1.488   6.099
   22POPC   NC3  806   8.936  11.026   7.980
   22POPC   PO4  807   9.311  10.498   7.930
   22POPC   GL1  808   9.185  10.811   7.596
   22POPC   GL2  809   9.090  11.206   7.554
   22POPC   C1A  810   8.950  10.832   7.216
   22POPC   D2A  811   8.653  10.762   6.883
   22POPC   C3A  812   8.685  10.980   6.509
   22POPC   C4A  813   8.980  10.978   6.237
   22POPC   C1B  814   8.691  11.242   7.351
   22POPC   C2B  815   8.786  11.288   6.921
   22POPC   C3B  816   8.684   0.001   6.531
   22POPC   C4B  817   8.749  11.427   6.083
   23POPC   NC3  818   0.477   1.091   7.868
   23POPC   PO4  819   0.795   1.615   7.988
   23POPC   GL1  820   0.698   1.480   7.605
   23POPC   GL2  821   0.302   1.487   7.618
   23POPC   C1A  822   0.597   1.558   7.186
   23POPC   D2A  823   0.506   1.319   6.828
   23POPC   C3A  824   0.486   1.602   6.496
   23POPC   C4A  825   0.306   1.547   6.100
   23POPC   C1B  826   0.160   1.235   7.265
   23POPC   C2B  827  11.467   1.089   6.909
   23POPC   C3B  828   0.089   1.235   6.503
   23POPC   C4B  829   0.474   1.068   6.309
   24POPC   NC3  830   4.238   8.606   8.176
   24POPC   PO4  831   4.050   9.225   8.164
   24POPC   GL1  832   4.077   9.004   7.788
   24POPC   GL2  833   4.396   8.893   7.728
   24POPC   C1A  834   4.052   8.910   7.327
   24POPC   D2A  835   4.179   8.595   7.003
   24POPC   C3A  836   4.125   8.706   6.545
   24POPC   C4A  837   4.079   8.488   6.151
   24POPC   C1B  838   4.551   8.853   7.282
   24POPC   C2B  839   4.433   9.006   6.844
   24POPC   C3B  840   4.543   8.955   6.395
   24POPC   C4B  841   4.676   9.152   6.027
   25POPC   NC3  842   3.541   1.357   8.168
   25POPC   PO4  843   3.212   0.702   8.051
   25POPC   GL1  844   3.245   0.895   7.641
   25POPC   GL2  845   3.507   1.144   7.561
   25POPC   C1A  846   3.153   1.032   7.221
   25POPC   D2A  847   3.356   1.075   6.819
   25POPC   C3A  848   3.158   1.098   6.414
   25POPC   C4A  849   3.172   1.468   6.140
   25POPC   C1B  850   3.815   1.402   7.279
   25POPC   C2B  851   3.978   1.530   6.854
   25POPC   C3B  852   3.924   1.471   6.409
   25POPC   C4B  853   3.633   1.190   6.347
   26POPC   NC3  854   5.637   9.701   8.246
   26POPC   PO4  855   6.080  10.148   8.208
   26POPC   GL1  856   6.098   9.841   7.801
   26POPC   GL2  857   5.787   9.642   7.741
   26POPC   C1A  858   6.009   9.879   7.307
   26POPC   D2A  859   6.178   9.755   6.878
   26POPC   C3A  860   5.943   9.822   6.486
   26POPC   C4A  861   6.013   9.882   6.052
   26POPC   C1B  862   5.653   9.505   7.317
   26POPC   C2B  863   5.626   9.641   6.876
   26POPC   C3B  864   5.492   9.535   6.445
   26POPC   C4B  865   5.720   9.458   6.043
   27POPC   NC3  866  11.119  10.419   8.016
   27POPC   PO4  867  10.751   9.915   7.772
   27POPC   GL1  868  11.114  10.096   7.601
   27POPC   GL2  869  11.137  10.470   7.519
   27POPC   C1A  870  11.217  10.038   7.178
   27POPC   D2A  871  10.942  10.070   6.817
   27POPC   C3A  872  11.170  10.269   6.537
   27POPC   C4A  873  11.220  10.123   6.132
   27POPC   C1B  874  10.844  10.757   7.300
   27POPC   C2B  875  11.007  10.645   6.916
   27POPC   C3B  876  11.114  10.825   6.533
   27POPC   C4B  877  11.328  10.630   6.225
   28POPC   NC3  878   5.446   0.129   7.905
   28POPC   PO4  879   5.013   0.590   8.228
   28POPC   GL1  880   5.204   0.548   7.771
   28POPC   GL2  881   5.121   0.281   7.537
   28POPC   C1A  882   5.360   0.624   7.281
   28POPC   D2A  883   5.079   0.363   6.987
   28POPC   C3A  884   5.168   0.324   6.552
   28POPC   C4A  885   5.285   0.646   6.295
   28POPC   C1B  886   4.871   0.649   7.386
   28POPC   C2B  887   4.632   0.677   7.018
   28POPC   C3B  888   4.767   0.673   6.586
   28POPC   C4B  889   4.796   0.972   6.254
   29POPC   NC3  890   8.690   2.595   8.033
   29POPC   PO4  891   8.204   2.911   7.999
   29POPC   GL1  892   8.531   2.894   7.628
   29POPC   GL2  893   8.769   2.583   7.527
   29POPC   C1A  894   8.822   3.033   7.284
   29POPC   D2A  895   8.918   3.342   6.947
   29POPC   C3A  896   8.971   3.196   6.521
   29POPC   C4A  897   8.678   3.033   6.185
   29POPC   C1B  898   9.088   2.610   7.175
   29POPC   C2B  899   8.961   2.706   6.764
   29POPC   C3B  900   9.057   2.712   6.336
   29POPC   C4B  901   9.057   2.557   5.914
   30POPC   NC3  902   7.379  10.608   8.208
   30POPC   PO4  903   7.714  10.792   7.668
   30POPC   GL1  904   7.358  10.560   7.565
   30POPC   GL2  905   7.398  10.252   7.769
   30POPC   C1A  906   7.269  10.395   7.158
   30POPC   D2A  907   6.993  10.431   6.825
   30POPC   C3A  908   7.156  10.639   6.482
   30POPC   C4A  909   7.501  10.660   6.218
   30POPC   C1B  910   7.682  10.154   7.433
   30POPC   C2B  911   7.616  10.058   7.004
   30POPC   C3B  912   7.512  10.260   6.617
   30POPC   C4B  913   7.473  10.132   6.191
   31POPC   NC3  914  10.241   4.560   7.643
   31POPC   PO4  915  10.089   4.046   7.904
   31POPC   GL1  916   9.968   4.143   7.495
   31POPC   GL2  917   9.664   4.275   7.544
   31POPC   C1A  918  10.012   4.304   7.057
   31POPC   D2A  919  10.140   4.674   6.777
   31POPC   C3A  920  10.032   4.603   6.338
   31POPC   C4A  921   9.778   4.255   6.217
   31POPC   C1B  922   9.494   4.133   7.144
   31POPC   C2B  923   9.321   3.924   6.765
   31POPC   C3B  924   9.316   4.135   6.389
   31POPC   C4B  925   9.334   4.591   6.309
   32POPC   NC3  926   0.339   2.077   7.965
   32POPC   PO4  927   0.977   2.347   7.886
   32POPC   GL1  928   0.846   2.025   7.606
   32POPC   GL2  929   0.505   1.941   7.525
   32POPC   C1A  930   0.764   2.151   7.175
   32POPC   D2A  931   0.478   1.974   6.888
   32POPC   C3A  932   0.700   2.080   6.543
   32POPC   C4A  933   0.848   1.922   6.167
   32POPC   C1B  934   0.145   1.829   7.280
   32POPC   C2B  935   0.091   1.612   6.892
   32POPC   C3B  936  11.487   1.762   6.470
   32POPC   C4B  937   0.281   2.045   6.254
   33POPC   NC3  938   9.435   5.666   8.244
   33POPC   PO4  939   9.918   6.049   8.148
   33POPC   GL1  940   9.975   5.820   7.759
   33POPC   GL2  941  10.136   6.044   7.585
   33POPC   C1A  942   9.916   5.667   7.313
   33POPC   D2A  943   9.859   5.806   6.873
   33POPC   C3A  944   9.735   5.598   6.493
   33POPC   C4A  945   9.865   5.675   6.080
   33POPC   C1B  946   9.828   6.175   7.243
   33POPC   C2B  947   9.679   6.274   6.792
   33POPC   C3B  948   9.694   6.098   6.370
   33POPC   C4B  949   9.438   5.929   6.045
   34POPC   NC3  950   5.067   1.078   8.166
   34POPC   PO4  951   5.656   0.718   8.093
   34POPC   GL1  952   5.426   0.985   7.725
   34POPC   GL2  953   5.169   1.264   7.705
   34POPC   C1A  954   5.377   1.122   7.275
   34POPC   D2A  955   5.065   0.968   6.980
   34POPC   C3A  956   5.190   1.053   6.579
   34POPC   C4A  957   5.255   1.168   6.141
   34POPC   C1B  958   4.900   1.325   7.329
   34POPC   C2B  959   4.763   1.426   6.908
   34POPC   C3B  960   4.897   1.446   6.467
   34POPC   C4B  961   4.997   1.600   6.048
   35POPC   NC3  962   7.736   9.197   8.085
   35POPC   PO4  963   8.448   9.246   8.034
   35POPC   GL1  964   8.306   9.065   7.655
   35POPC   GL2  965   7.983   9.106   7.643
   35POPC   C1A  966   8.197   8.828   7.260
   35POPC   D2A  967   8.069   8.678   6.809
   35POPC   C3A  968   8.336   8.646   6.406
   35POPC   C4A  969   8.331   8.755   5.955
   35POPC   C1B  970   7.816   9.166   7.247
   35POPC   C2B  971   7.991   9.181   6.844
   35POPC   C3B  972   8.014   9.050   6.402
   35POPC   C4B  973   7.856   8.975   5.960
   36POPC   NC3  974   8.898  10.391   8.107
   36POPC   PO4  975   8.471  11.008   8.008
   36POPC   GL1  976   8.623  10.673   7.645
   36POPC   GL2  977   8.898  10.376   7.603
   36POPC   C1A  978   8.563  10.420   7.236
   36POPC   D2A  979   8.600  10.250   6.813
   36POPC   C3A  980   8.376  10.546   6.493
   36POPC   C4A  981   8.549  10.707   6.083
   36POPC   C1B  982   9.085  10.331   7.183
   36POPC   C2B  983   9.119  10.583   6.806
   36POPC   C3B  984   8.878  10.495   6.441
   36POPC   C4B  985   8.964  10.119   6.258
   37POPC   NC3  986   7.106   8.824   7.949
   37POPC   PO4  987   7.781   8.606   8.180
   37POPC   GL1  988   7.748   8.659   7.751
   37POPC   GL2  989   7.540   8.880   7.695
   37POPC   C1A  990   7.716   8.645   7.274
   37POPC   D2A  991   7.586   8.870   6.891
   37POPC   C3A  992   7.410   8.646   6.564
   37POPC   C4A  993   7.774   8.608   6.328
   37POPC   C1B  994   7.328   8.990   7.321
   37POPC   C2B  995   7.131   9.077   6.935
   37POPC   C3B  996   7.133   9.093   6.492
   37POPC   C4B  997   7.389   8.986   6.155
   38POPC   NC3  998   0.577  11.027   8.084
   38POPC   PO4  999   1.143  10.958   8.427
   38POPC   GL1 1000   1.178  10.955   7.888
   38POPC   GL2 1001   0.946  11.193   7.718
   38POPC   C1A 1002   1.223  10.861   7.386
   38POPC   D2A 1003   1.205  11.053   6.938
   38POPC   C3A 1004   1.230  10.846   6.520
   38POPC   C4A 1005   0.951  10.881   6.166
   38POPC   C1B 1006   1.155  11.385   7.336
   38POPC   C2B 1007   1.436   0.018   6.992
   38POPC   C3B 1008   1.322  11.492   6.577
   38POPC   C4B 1009   1.319  11.264   6.209
   39POPC   NC3 1010   9.340   8.521   8.086
   39POPC   PO4 1011   9.247   7.857   8.045
   39POPC   GL1 1012   9.546   8.041   7.710
   39POPC   GL2 1013   9.732   8.351   7.719
   39POPC   C1A 1014   9.693   8.027   7.265
   39POPC   D2A 1015   9.832   7.755   6.905
   39POPC   C3A 1016   9.630   7.825   6.479
   39POPC   C4A 1017   9.718   7.799   6.036
   39POPC   C1B 1018   9.642   8.539   7.335
   39POPC   C2B 1019   9.533   8.427   6.912
   39POPC   C3B 1020   9.706   8.452   6.497
   39POPC   C4B 1021   9.544   8.252   6.135
   40POPC   NC3 1022   1.147   1.296   7.999
   40POPC   PO4 1023   1.720   0.866   8.080
   40POPC   GL1 1024   1.479   0.951   7.736
   40POPC   GL2 1025   1.529   1.279   7.649
   40POPC   C1A 1026   1.578   0.875   7.297
   40POPC   D2A 1027   1.732   0.860   6.867
   40POPC   C3A 1028   1.392   0.977   6.584
   40POPC   C4A 1029   1.020   0.954   6.300
   40POPC   C1B 1030   1.248   1.286   7.313
   40POPC   C2B 1031   1.293   1.394   6.874
   40POPC   C3B 1032   0.959   1.372   6.566
   40POPC   C4B 1033   0.816   1.411   6.146
   41POPC   NC3 1034   8.008   3.327   8.029
   41POPC   PO4 1035   8.320   3.821   7.914
   41POPC   GL1 1036   8.335   3.423   7.662
   41POPC   GL2 1037   7.994   3.485   7.532
   41POPC   C1A 1038   8.378   3.276   7.246
   41POPC   D2A 1039   8.422   3.567   6.901
   41POPC   C3A 1040   8.516   3.439   6.495
   41POPC   C4A 1041   8.318   3.393   6.110
   41POPC   C1B 1042   7.926   3.432   7.069
   41POPC   C2B 1043   8.035   3.287   6.635
   41POPC   C3B 1044   7.826   3.254   6.226
   41POPC   C4B 1045   7.473   3.396   5.950
   42POPC   NC3 1046  11.134   9.763   8.011
   42POPC   PO4 1047  10.822   9.208   7.820
   42POPC   GL1 1048  11.008   9.529   7.549
   42POPC   GL2 1049  11.361   9.635   7.572
   42POPC   C1A 1050  10.813   9.683   7.167
   42POPC   D2A 1051  10.650   9.462   6.797
   42POPC   C3A 1052  10.658   9.699   6.431
   42POPC   C4A 1053  10.858   9.774   6.034
   42POPC   C1B 1054  11.406   9.562   7.145
   42POPC   C2B 1055  11.158   9.592   6.802
   42POPC   C3B 1056  11.182   9.689   6.412
   42POPC   C4B 1057  11.319   9.551   6.029
   43POPC   NC3 1058  11.106   7.267   8.225
   43POPC   PO4 1059  11.113   7.793   7.851
   43POPC   GL1 1060  11.222   7.329   7.652
   43POPC   GL2 1061  10.949   7.120   7.595
   43POPC   C1A 1062  11.464   7.212   7.261
   43POPC   D2A 1063   0.085   6.929   6.913
   43POPC   C3A 1064   0.003   7.174   6.522
   43POPC   C4A 1065  11.364   7.531   6.265
   43POPC   C1B 1066  10.986   7.442   7.232
   43POPC   C2B 1067  11.034   7.758   6.902
   43POPC   C3B 1068  10.878   7.666   6.500
   43POPC   C4B 1069  10.963   7.245   6.364
   44POPC   NC3 1070   1.532   8.046   8.170
   44POPC   PO4 1071   0.902   8.137   8.233
   44POPC   GL1 1072   1.156   8.187   7.807
   44POPC   GL2 1073   1.134   8.545   7.661
   44POPC   C1A 1074   1.407   8.158   7.390
   44POPC   D2A 1075   1.534   8.313   6.953
   44POPC   C3A 1076   1.606   8.184   6.542
   44POPC   C4A 1077   1.364   8.125   6.173
   44POPC   C1B 1078   0.948   8.375   7.283
   44POPC   C2B 1079   1.073   8.113   6.991
   44POPC   C3B 1080   1.097   8.214   6.605
   44POPC   C4B 1081   0.878   8.286   6.235
   45POPC   NC3 1082   3.317   3.409   8.021
   45POPC   PO4 1083   2.681   3.233   8.060
   45POPC   GL1 1084   2.692   3.222   7.634
   45POPC   GL2 1085   2.507   3.536   7.591
   45POPC   C1A 1086   2.921   3.303   7.233
   45POPC   D2A 1087   2.784   3.380   6.790
   45POPC   C3A 1088   2.949   3.363   6.358
   45POPC   C4A 1089   2.938   3.806   6.158
   45POPC   C1B 1090   2.348   3.317   7.249
   45POPC   C2B 1091   2.152   3.505   6.925
   45POPC   C3B 1092   2.369   3.624   6.598
   45POPC   C4B 1093   2.434   3.275   6.377
   46POPC   NC3 1094  10.754   8.837   8.075
   46POPC   PO4 1095  11.313   9.342   8.155
   46POPC   GL1 1096  11.329   9.127   7.740
   46POPC   GL2 1097  11.181   8.794   7.784
   46POPC   C1A 1098  11.459   9.072   7.311
   46POPC   D2A 1099  11.252   9.094   6.900
   46POPC   C3A 1100  11.473   9.190   6.504
   46POPC   C4A 1101  11.198   9.072   6.177
   46POPC   C1B 1102  11.045   8.783   7.341
   46POPC   C2B 1103  11.345   8.600   7.007
   46POPC   C3B 1104  11.336   8.657   6.550
   46POPC   C4B 1105  10.980   8.587   6.259
   47POPC   NC3 1106   0.638   3.020   8.111
   47POPC   PO4 1107   0.194   2.501   8.079
   47POPC   GL1 1108   0.395   2.728   7.751
   47POPC   GL2 1109   0.546   2.450   7.623
   47POPC   C1A 1110   0.404   2.842   7.308
   47POPC   D2A 1111   0.498   2.982   6.914
   47POPC   C3A 1112   0.211   3.000   6.587
   47POPC   C4A 1113   0.427   2.942   6.208
   47POPC   C1B 1114   0.292   2.335   7.281
   47POPC   C2B 1115   0.358   2.479   6.885
   47POPC   C3B 1116   0.348   2.505   6.476
   47POPC   C4B 1117   0.687   2.452   6.200
   48POPC   NC3 1118   5.419   0.403   8.335
   48POPC   PO4 1119   5.962   0.216   7.915
   48POPC   GL1 1120   5.693   0.366   7.578
   48POPC   GL2 1121   5.776   0.623   7.588
   48POPC   C1A 1122   5.534   0.160   7.206
   48POPC   D2A 1123   5.650   0.386   6.836
   48POPC   C3A 1124   5.655   0.153   6.486
   48POPC   C4A 1125   5.415  11.416   6.216
   48POPC   C1B 1126   6.017   0.401   7.222
   48POPC   C2B 1127   6.194   0.650   6.958
   48POPC   C3B 1128   6.098   0.719   6.578
   48POPC   C4B 1129   5.877   0.518   6.211
   49POPC   NC3 1130  10.727   4.895   8.184
   49POPC   PO4 1131  10.765   5.519   8.101
   49POPC   GL1 1132  10.757   5.227   7.703
   49POPC   GL2 1133  10.499   5.003   7.714
   49POPC   C1A 1134  10.641   5.023   7.237
   49POPC   D2A 1135  10.518   5.073   6.808
   49POPC   C3A 1136  10.447   4.907   6.428
   49POPC   C4A 1137  10.650   5.089   6.129
   49POPC   C1B 1138  10.243   5.269   7.407
   49POPC   C2B 1139  10.165   5.392   6.955
   49POPC   C3B 1140  10.180   5.343   6.480
   49POPC   C4B 1141   9.857   5.168   6.174
   50POPC   NC3 1142   8.099  10.701   7.904
   50POPC   PO4 1143   8.513  10.237   7.923
   50POPC   GL1 1144   8.237  10.265   7.592
   50POPC   GL2 1145   8.105  10.554   7.415
   50POPC   C1A 1146   8.152  10.081   7.200
   50POPC   D2A 1147   8.053  10.249   6.814
   50POPC   C3A 1148   8.233  10.014   6.561
   50POPC   C4A 1149   8.443  10.120   6.217
   50POPC   C1B 1150   7.763  10.542   7.107
   50POPC   C2B 1151   7.543  10.738   6.826
   50POPC   C3B 1152   7.868  10.690   6.559
   50POPC   C4B 1153   7.944  10.343   6.292
   51POPC   NC3 1154   9.917   1.723   7.994
   51POPC   PO4 1155   9.298   1.577   8.274
   51POPC   GL1 1156   9.431   1.890   7.830
   51POPC   GL2 1157   9.732   2.130   7.726
   51POPC   C1A 1158   9.440   1.951   7.333
   51POPC   D2A 1159   9.718   1.889   6.933
   51POPC   C3A 1160   9.535   1.940   6.517
   51POPC   C4A 1161   9.327   1.785   6.147
   51POPC   C1B 1162   9.847   2.262   7.293
   51POPC   C2B 1163   9.521   2.373   6.966
   51POPC   C3B 1164   9.514   2.458   6.514
   51POPC   C4B 1165   9.868   2.260   6.260
   52POPC   NC3 1166  10.479   2.252   8.178
   52POPC   PO4 1167  10.790   1.723   8.299
   52POPC   GL1 1168  10.774   2.076   7.804
   52POPC   GL2 1169  10.397   2.091   7.554
   52POPC   C1A 1170  10.812   2.137   7.310
   52POPC   D2A 1171  10.558   1.898   6.994
   52POPC   C3A 1172  10.545   2.076   6.553
   52POPC   C4A 1173  10.544   2.065   6.104
   52POPC   C1B 1174  10.104   1.813   7.307
   52POPC   C2B 1175  10.117   1.532   6.962
   52POPC   C3B 1176  10.129   1.722   6.572
   52POPC   C4B 1177  10.099   1.825   6.153
   53POPC   NC3 1178   2.870   5.769   8.208
   53POPC   PO4 1179   3.279   6.130   8.014
   53POPC   GL1 1180   2.898   5.987   7.745
   53POPC   GL2 1181   2.581   5.716   7.703
   53POPC   C1A 1182   2.893   5.845   7.327
   53POPC   D2A 1183   2.973   6.045   6.962
   53POPC   C3A 1184   3.026   5.763   6.621
   53POPC   C4A 1185   3.114   5.884   6.200
   53POPC   C1B 1186   2.403   5.714   7.227
   53POPC   C2B 1187   2.547   5.585   6.763
   53POPC   C3B 1188   2.604   5.833   6.340
   53POPC   C4B 1189   2.488   6.204   6.177
   54POPC   NC3 1190   8.941   9.279   8.086
   54POPC   PO4 1191   8.946   9.943   8.206
   54POPC   GL1 1192   8.824   9.861   7.730
   54POPC   GL2 1193   8.807   9.509   7.644
   54POPC   C1A 1194   8.749   9.940   7.272
   54POPC   D2A 1195   8.953   9.849   6.832
   54POPC   C3A 1196   8.681   9.732   6.454
   54POPC   C4A 1197   8.682   9.605   5.975
   54POPC   C1B 1198   9.117   9.578   7.290
   54POPC   C2B 1199   9.196   9.323   6.931
   54POPC   C3B 1200   9.180   9.327   6.514
   54POPC   C4B 1201   9.120   9.630   6.207
   55POPC   NC3 1202   9.737   0.225   7.955
   55POPC   PO4 1203   9.210  11.390   8.057
   55POPC   GL1 1204   9.281   0.157   7.705
   55POPC   GL2 1205   9.410   0.501   7.632
   55POPC   C1A 1206   9.494   0.066   7.310
   55POPC   D2A 1207   9.469   0.301   6.931
   55POPC   C3A 1208   9.355   0.096   6.568
   55POPC   C4A 1209   9.318   0.312   6.188
   55POPC   C1B 1210   9.760   0.512   7.310
   55POPC   C2B 1211   9.861   0.639   6.859
   55POPC   C3B 1212   9.747   0.436   6.462
   55POPC   C4B 1213   9.759   0.497   6.015
   56POPC   NC3 1214   0.156   8.184   8.417
   56POPC   PO4 1215   0.284   7.921   7.852
   56POPC   GL1 1216   0.306   8.175   7.558
   56POPC   GL2 1217   0.644   8.268   7.663
   56POPC   C1A 1218   0.355   8.117   7.142
   56POPC   D2A 1219   0.611   8.205   6.840
   56POPC   C3A 1220   0.394   8.267   6.509
   56POPC   C4A 1221   0.361   8.076   6.139
   56POPC   C1B 1222   0.753   7.899   7.350
   56POPC   C2B 1223   0.749   7.709   6.903
   56POPC   C3B 1224   0.740   7.864   6.454
   56POPC   C4B 1225   0.758   7.870   5.931
   57POPC   NC3 1226   0.583   4.095   7.932
   57POPC   PO4 1227   0.408   3.428   8.112
   57POPC   GL1 1228   0.433   3.599   7.720
   57POPC   GL2 1229   0.570   3.263   7.629
   57POPC   C1A 1230   0.423   3.833   7.325
   57POPC   D2A 1231   0.651   3.895   6.925
   57POPC   C3A 1232   0.477   3.836   6.547
   57POPC   C4A 1233   0.652   3.730   6.134
   57POPC   C1B 1234   0.244   3.335   7.310
   57POPC   C2B 1235   0.363   3.472   6.912
   57POPC   C3B 1236   0.586   3.345   6.535
   57POPC   C4B 1237   0.234   3.439   6.244
   58POPC   NC3 1238   5.186  10.956   8.112
   58POPC   PO4 1239   4.976   0.057   7.972
   58POPC   GL1 1240   4.824  11.362   7.615
   58POPC   GL2 1241   4.952  11.072   7.672
   58POPC   C1A 1242   5.066  11.376   7.234
   58POPC   D2A 1243   5.254  11.364   6.832
   58POPC   C3A 1244   4.907  11.388   6.530
   58POPC   C4A 1245   4.920  11.461   6.102
   58POPC   C1B 1246   5.104  10.875   7.299
   58POPC   C2B 1247   5.232  10.818   6.874
   58POPC   C3B 1248   5.229  10.998   6.447
   58POPC   C4B 1249   5.218  10.964   5.987
   59POPC   NC3 1250   2.928   0.281   8.075
   59POPC   PO4 1251   2.465   0.816   7.958
   59POPC   GL1 1252   2.779   0.648   7.691
   59POPC   GL2 1253   2.601   0.348   7.666
   59POPC   C1A 1254   2.997   0.542   7.307
   59POPC   D2A 1255   2.909   0.291   6.936
   59POPC   C3A 1256   2.814   0.434   6.527
   59POPC   C4A 1257   2.882   0.228   6.156
   59POPC   C1B 1258   2.479   0.441   7.234
   59POPC   C2B 1259   2.300   0.719   6.904
   59POPC   C3B 1260   2.213   0.763   6.475
   59POPC   C4B 1261   2.490   0.732   6.059
   60POPC   NC3 1262   8.986   1.256   8.136
   60POPC   PO4 1263   8.339   1.375   8.078
   60POPC   GL1 1264   8.671   1.356   7.718
   60POPC   GL2 1265   8.882   1.081   7.647
   60POPC   C1A 1266   8.663   1.334   7.242
   60POPC   D2A 1267   8.861   1.269   6.816
   60POPC   C3A 1268   8.610   1.387   6.455
   60POPC   C4A 1269   8.666   1.343   5.975
   60POPC   C1B 1270   9.127   1.107   7.242
   60POPC   C2B 1271   9.234   0.804   6.950
   60POPC   C3B 1272   9.237   0.993   6.586
   60POPC   C4B 1273   9.074   1.291   6.280
   61POPC   NC3 1274   2.321  10.406   7.940
   61POPC   PO4 1275   1.718  10.691   8.102
   61POPC   GL1 1276   1.858  10.516   7.714
   61POPC   GL2 1277   1.867  10.135   7.732
   61POPC   C1A 1278   1.820  10.681   7.309
   61POPC   D2A 1279   1.675  10.843   6.922
   61POPC   C3A 1280   1.890  10.706   6.559
   61POPC   C4A 1281   1.831  10.653   6.130
   61POPC   C1B 1282   2.071  10.218   7.336
   61POPC   C2B 1283   1.996  10.374   6.931
   61POPC   C3B 1284   2.107  10.199   6.524
   61POPC   C4B 1285   2.064  10.231   6.081
   62POPC   NC3 1286   0.293   4.553   8.257
   62POPC   PO4 1287   0.081   4.056   7.959
   62POPC   GL1 1288   0.049   4.441   7.744
   62POPC   GL2 1289   0.383   4.527   7.740
   62POPC   C1A 1290   0.185   4.321   7.320
   62POPC   D2A 1291   0.176   4.085   6.953
   62POPC   C3A 1292   0.169   4.276   6.577
   62POPC   C4A 1293   0.239   4.077   6.189
   62POPC   C1B 1294   0.579   4.638   7.368
   62POPC   C2B 1295   0.683   4.506   6.949
   62POPC   C3B 1296   0.527   4.636   6.573
   62POPC   C4B 1297   0.563   4.463   6.177
   63POPC   NC3 1298   1.171   8.846   8.078
   63POPC   PO4 1299   1.553   9.471   8.096
   63POPC   GL1 1300   1.383   9.248   7.728
   63POPC   GL2 1301   1.050   9.103   7.658
   63POPC   C1A 1302   1.368   9.136   7.276
   63POPC   D2A 1303   1.110   9.207   6.922
   63POPC   C3A 1304   1.344   9.169   6.573
   63POPC   C4A 1305   1.188   9.093   6.194
   63POPC   C1B 1306   0.929   8.881   7.295
   63POPC   C2B 1307   1.179   8.692   6.935
   63POPC   C3B 1308   1.095   8.703   6.497
   63POPC   C4B 1309   0.791   8.764   6.151
   64POPC   NC3 1310   9.809  10.855   8.072
   64POPC   PO4 1311  10.153   0.034   8.109
   64POPC   GL1 1312   9.956  11.248   7.762
   64POPC   GL2 1313   9.590  11.186   7.689
   64POPC   C1A 1314   9.936  11.154   7.295
   64POPC   D2A 1315   9.743  11.302   6.878
   64POPC   C3A 1316   9.922  11.100   6.492
   64POPC   C4A 1317   9.827  10.735   6.253
   64POPC   C1B 1318   9.442  11.050   7.234
   64POPC   C2B 1319   9.265  11.089   6.799
   64POPC   C3B 1320   9.432  11.138   6.371
   64POPC   C4B 1321   9.260  11.326   5.982
   65POPC   NC3 1322   0.752   7.756   7.983
   65POPC   PO4 1323   1.410   7.684   7.905
   65POPC   GL1 1324   1.110   7.571   7.657
   65POPC   GL2 1325   1.138   7.232   7.805
   65POPC   C1A 1326   1.191   7.673   7.234
   65POPC   D2A 1327   1.457   7.793   6.925
   65POPC   C3A 1328   1.243   7.729   6.584
   65POPC   C4A 1329   1.129   7.655   6.206
   65POPC   C1B 1330   1.200   7.174   7.345
   65POPC   C2B 1331   0.957   7.137   6.931
   65POPC   C3B 1332   1.014   7.203   6.477
   65POPC   C4B 1333   1.455   7.279   6.342
   66POPC   NC3 1334   8.911   0.258   8.131
   66POPC   PO4 1335   9.179   0.834   8.082
   66POPC   GL1 1336   8.908   0.585   7.736
   66POPC   GL2 1337   8.715   0.251   7.668
   66POPC   C1A 1338   8.860   0.680   7.297
   66POPC   D2A 1339   8.648   0.820   6.902
   66POPC   C3A 1340   8.734   0.892   6.418
   66POPC   C4A 1341   8.636   0.803   5.940
   66POPC   C1B 1342   8.961   0.174   7.309
   66POPC   C2B 1343   8.857   0.320   6.924
   66POPC   C3B 1344   9.010   0.493   6.586
   66POPC   C4B 1345   8.796   0.419   6.231
   67POPC   NC3 1346   4.304   3.010   8.214
   67POPC   PO4 1347   3.677   3.141   8.039
   67POPC   GL1 1348   4.025   3.049   7.746
   67POPC   GL2 1349   4.348   2.830   7.696
   67POPC   C1A 1350   4.013   2.941   7.318
   67POPC   D2A 1351   4.150   2.773   6.926
   67POPC   C3A 1352   4.233   2.947   6.505
   67POPC   C4A 1353   4.418   3.097   6.118
   67POPC   C1B 1354   4.346   2.478   7.331
   67POPC   C2B 1355   4.174   2.274   6.923
   67POPC   C3B 1356   4.228   2.435   6.509
   67POPC   C4B 1357   4.574   2.597   6.256
   68POPC   NC3 1358   9.940   9.321   8.092
   68POPC   PO4 1359   9.782   8.701   8.070
   68POPC   GL1 1360   9.724   8.949   7.703
   68POPC   GL2 1361   9.356   8.895   7.678
   68POPC   C1A 1362   9.970   9.004   7.315
   68POPC   D2A 1363   9.932   8.752   6.911
   68POPC   C3A 1364   9.908   8.927   6.456
   68POPC   C4A 1365  10.008   9.157   6.024
   68POPC   C1B 1366   9.372   8.937   7.209
   68POPC   C2B 1367   9.449   8.906   6.740
   68POPC   C3B 1368   9.406   8.869   6.349
   68POPC   C4B 1369   9.184   8.471   6.409
   69POPC   NC3 1370  11.463   3.620   8.116
   69POPC   PO4 1371  10.727   3.553   7.927
   69POPC   GL1 1372  10.839   3.507   7.542
   69POPC   GL2 1373  11.145   3.342   7.656
   69POPC   C1A 1374  10.815   3.749   7.185
   69POPC   D2A 1375  10.892   3.621   6.765
   69POPC   C3A 1376  10.752   3.875   6.438
   69POPC   C4A 1377  10.969   3.716   6.045
   69POPC   C1B 1378  11.249   3.114   7.298
   69POPC   C2B 1379  11.346   3.256   6.875
   69POPC   C3B 1380  11.256   3.289   6.419
   69POPC   C4B 1381  11.044   3.036   6.107
   70POPC   NC3 1382   1.213   5.978   7.929
   70POPC   PO4 1383   0.883   5.435   8.088
   70POPC   GL1 1384   0.997   5.592   7.675
   70POPC   GL2 1385   1.350   5.539   7.692
   70POPC   C1A 1386   0.879   5.477   7.243
   70POPC   D2A 1387   0.685   5.497   6.856
   70POPC   C3A 1388   0.937   5.379   6.492
   70POPC   C4A 1389   1.054   5.467   6.051
   70POPC   C1B 1390   1.307   5.755   7.283
   70POPC   C2B 1391   1.234   5.602   6.863
   70POPC   C3B 1392   1.255   5.766   6.440
   70POPC   C4B 1393   1.329   5.919   6.035
   71POPC   NC3 1394   9.863   6.548   8.049
   71POPC   PO4 1395  10.506   6.353   7.935
   71POPC   GL1 1396  10.538   6.337   7.564
   71POPC   GL2 1397  10.798   6.514   7.529
   71POPC   C1A 1398  10.387   6.236   7.174
   71POPC   D2A 1399  10.564   6.313   6.769
   71POPC   C3A 1400  10.274   6.549   6.554
   71POPC   C4A 1401   9.978   6.528   6.262
   71POPC   C1B 1402  10.681   6.642   7.169
   71POPC   C2B 1403  10.637   6.817   6.814
   71POPC   C3B 1404  10.723   6.720   6.403
   71POPC   C4B 1405  10.420   6.758   6.082
   72POPC   NC3 1406   2.868   1.028   8.028
   72POPC   PO4 1407   3.070   1.604   8.074
   72POPC   GL1 1408   3.005   1.366   7.667
   72POPC   GL2 1409   2.699   1.174   7.594
   72POPC   C1A 1410   2.859   1.434   7.212
   72POPC   D2A 1411   2.728   1.640   6.867
   72POPC   C3A 1412   2.789   1.431   6.520
   72POPC   C4A 1413   2.637   1.636   6.185
   72POPC   C1B 1414   2.636   0.944   7.242
   72POPC   C2B 1415   2.845   0.821   6.869
   72POPC   C3B 1416   2.692   0.930   6.484
   72POPC   C4B 1417   2.395   1.197   6.307
   73POPC   NC3 1418   9.640   7.614   8.031
   73POPC   PO4 1419   9.733   6.985   7.980
   73POPC   GL1 1420   9.620   7.306   7.622
   73POPC   GL2 1421   9.817   7.626   7.552
   73POPC   C1A 1422   9.471   7.477   7.196
   73POPC   D2A 1423   9.460   7.415   6.722
   73POPC   C3A 1424   9.325   7.093   6.375
   73POPC   C4A 1425   9.374   6.854   5.953
   73POPC   C1B 1426   9.959   7.325   7.220
   73POPC   C2B 1427  10.008   7.293   6.764
   73POPC   C3B 1428   9.809   7.280   6.374
   73POPC   C4B 1429   9.873   7.014   6.020
   74POPC   NC3 1430  10.511   3.924   8.075
   74POPC   PO4 1431  10.647   4.549   7.885
   74POPC   GL1 1432  10.709   4.413   7.517
   74POPC   GL2 1433  10.488   4.132   7.573
   74POPC   C1A 1434  10.739   4.278   7.116
   74POPC   D2A 1435  10.643   4.569   6.830
   74POPC   C3A 1436  10.656   4.455   6.431
   74POPC   C4A 1437  10.642   4.605   6.013
   74POPC   C1B 1438  10.343   3.939   7.230
   74POPC   C2B 1439  10.455   3.943   6.847
   74POPC   C3B 1440  10.249   4.187   6.598
   74POPC   C4B 1441  10.306   4.165   6.211
   75POPC   NC3 1442   4.908  10.355   8.140
   75POPC   PO4 1443   5.483  10.003   7.949
   75POPC   GL1 1444   5.270  10.274   7.672
   75POPC   GL2 1445   5.076  10.577   7.717
   75POPC   C1A 1446   5.163  10.197   7.228
   75POPC   D2A 1447   5.049  10.247   6.784
   75POPC   C3A 1448   4.983   9.953   6.394
   75POPC   C4A 1449   4.996   9.963   5.903
   75POPC   C1B 1450   4.756  10.501   7.373
   75POPC   C2B 1451   4.652  10.629   6.929
   75POPC   C3B 1452   4.875  10.638   6.534
   75POPC   C4B 1453   5.015  10.423   6.155
   76POPC   NC3 1454   7.589   8.210   8.018
   76POPC   PO4 1455   7.014   8.382   7.882
   76POPC   GL1 1456   7.220   8.523   7.528
   76POPC   GL2 1457   7.457   8.301   7.536
   76POPC   C1A 1458   7.240   8.530   7.075
   76POPC   D2A 1459   7.176   8.209   6.764
   76POPC   C3A 1460   7.049   8.314   6.371
   76POPC   C4A 1461   7.054   8.604   6.036
   76POPC   C1B 1462   7.352   8.031   7.217
   76POPC   C2B 1463   7.559   7.886   6.839
   76POPC   C3B 1464   7.413   7.909   6.391
   76POPC   C4B 1465   7.513   7.797   5.942
   77POPC   NC3 1466   2.426  11.220   8.464
   77POPC   PO4 1467   3.048  11.389   8.303
   77POPC   GL1 1468   2.785  11.390   7.808
   77POPC   GL2 1469   2.559  11.117   7.787
   77POPC   C1A 1470   2.784  11.494   7.346
   77POPC   D2A 1471   2.896  11.290   6.941
   77POPC   C3A 1472   2.717  11.429   6.546
   77POPC   C4A 1473   2.443  11.432   6.196
   77POPC   C1B 1474   2.755  10.983   7.372
   77POPC   C2B 1475   2.696  10.837   6.956
   77POPC   C3B 1476   2.786  10.930   6.548
   77POPC   C4B 1477   2.644  10.940   6.136
   78POPC   NC3 1478   7.817   0.621   8.009
   78POPC   PO4 1479   8.506   0.504   8.092
   78POPC   GL1 1480   8.290   0.559   7.724
   78POPC   GL2 1481   8.131   0.274   7.767
   78POPC   C1A 1482   8.396   0.483   7.315
   78POPC   D2A 1483   8.200   0.568   6.953
   78POPC   C3A 1484   8.432   0.465   6.596
   78POPC   C4A 1485   8.234   0.561   6.227
   78POPC   C1B 1486   7.887   0.384   7.392
   78POPC   C2B 1487   7.856   0.189   7.008
   78POPC   C3B 1488   7.842   0.420   6.602
   78POPC   C4B 1489   7.728   0.161   6.277
   79POPC   NC3 1490   2.041   0.521   8.008
   79POPC   PO4 1491   2.456   0.056   8.157
   79POPC   GL1 1492   2.170   0.067   7.768
   79POPC   GL2 1493   1.894   0.293   7.586
   79POPC   C1A 1494   2.197  11.495   7.330
   79POPC   D2A 1495   2.419  11.488   6.957
   79POPC   C3A 1496   2.183   0.102   6.589
   79POPC   C4A 1497   2.158   0.353   6.210
   79POPC   C1B 1498   1.924   0.475   7.186
   79POPC   C2B 1499   1.789   0.362   6.767
   79POPC   C3B 1500   1.726   0.601   6.385
   79POPC   C4B 1501   1.692   0.461   5.967
   80POPC   NC3 1502  10.799   3.265   8.275
   80POPC   PO4 1503  10.126   3.334   8.236
   80POPC   GL1 1504  10.308   3.338   7.748
   80POPC   GL2 1505  10.335   3.655   7.640
   80POPC   C1A 1506  10.625   3.059   7.473
   80POPC   D2A 1507  10.807   3.237   7.091
   80POPC   C3A 1508  10.810   3.097   6.654
   80POPC   C4A 1509  10.729   3.382   6.336
   80POPC   C1B 1510  10.340   3.432   7.247
   80POPC   C2B 1511  10.203   3.499   6.836
   80POPC   C3B 1512  10.275   3.663   6.415
   80POPC   C4B 1513  10.474   3.721   6.019
   81POPC   NC3 1514  10.854   6.675   8.011
   81POPC   PO4 1515  10.688   7.327   8.070
   81POPC   GL1 1516  10.458   7.156   7.711
   81POPC   GL2 1517  10.124   7.280   7.767
   81POPC   C1A 1518  10.541   7.158   7.241
   81POPC   D2A 1519  10.690   7.316   6.827
   81POPC   C3A 1520  10.442   7.155   6.482
   81POPC   C4A 1521  10.549   7.277   6.102
   81POPC   C1B 1522  10.316   7.586   7.463
   81POPC   C2B 1523  10.333   7.612   7.006
   81POPC   C3B 1524  10.353   7.651   6.554
   81POPC   C4B 1525  10.146   7.558   6.147
   82POPC   NC3 1526   0.547   9.910   7.921
   82POPC   PO4 1527   0.790   9.218   8.074
   82POPC   GL1 1528   0.690   9.454   7.716
   82POPC   GL2 1529   0.321   9.472   7.727
   82POPC   C1A 1530   0.831   9.430   7.279
   82POPC   D2A 1531   0.653   9.689   6.907
   82POPC   C3A 1532   0.504   9.551   6.494
   82POPC   C4A 1533   0.803   9.471   6.161
   82POPC   C1B 1534   0.374   9.671   7.340
   82POPC   C2B 1535   0.261   9.996   7.063
   82POPC   C3B 1536   0.037   9.938   6.699
   82POPC   C4B 1537   0.154   9.877   6.266
   83POPC   NC3 1538   3.333   1.973   8.002
   83POPC   PO4 1539   3.919   1.643   8.231
   83POPC   GL1 1540   3.634   1.617   7.743
   83POPC   GL2 1541   3.529   1.956   7.512
   83POPC   C1A 1542   3.335   1.548   7.358
   83POPC   D2A 1543   3.464   1.689   6.998
   83POPC   C3A 1544   3.386   1.564   6.608
   83POPC   C4A 1545   3.532   1.815   6.276
   83POPC   C1B 1546   3.438   2.210   7.132
   83POPC   C2B 1547   3.276   2.469   6.811
   83POPC   C3B 1548   3.398   2.312   6.413
   83POPC   C4B 1549   3.810   2.323   6.230
   84POPC   NC3 1550   6.653  10.702   7.963
   84POPC   PO4 1551   7.075  10.246   8.170
   84POPC   GL1 1552   6.875  10.283   7.741
   84POPC   GL2 1553   6.484  10.264   7.715
   84POPC   C1A 1554   6.797  10.494   7.335
   84POPC   D2A 1555   6.516  10.565   6.983
   84POPC   C3A 1556   6.570  10.453   6.541
   84POPC   C4A 1557   6.695  10.780   6.312
   84POPC   C1B 1558   6.458  10.122   7.273
   84POPC   C2B 1559   6.610  10.048   6.840
   84POPC   C3B 1560   6.451   9.960   6.399
   84POPC   C4B 1561   6.506   9.954   5.924
   85POPC   NC3 1562   9.685   2.660   7.948
   85POPC   PO4 1563   9.089   2.430   7.908
   85POPC   GL1 1564   9.255   2.774   7.638
   85POPC   GL2 1565   9.458   2.518   7.504
   85POPC   C1A 1566   9.333   3.072   7.250
   85POPC   D2A 1567   9.428   2.881   6.841
   85POPC   C3A 1568   9.477   3.017   6.428
   85POPC   C4A 1569   9.493   2.768   6.082
   85POPC   C1B 1570   9.717   2.753   7.234
   85POPC   C2B 1571   9.974   2.636   6.890
   85POPC   C3B 1572   9.969   2.714   6.454
   85POPC   C4B 1573   9.949   2.991   6.138
   86POPC   NC3 1574   0.210   9.124   8.079
   86POPC   PO4 1575  11.490   8.540   8.162
   86POPC   GL1 1576   0.223   8.666   7.731
   86POPC   GL2 1577   0.588   8.821   7.752
   86POPC   C1A 1578   0.458   8.596   7.298
   86POPC   D2A 1579   0.670   8.700   6.888
   86POPC   C3A 1580   0.365   8.780   6.567
   86POPC   C4A 1581   0.297   8.618   6.153
   86POPC   C1B 1582   0.463   9.098   7.399
   86POPC   C2B 1583   0.535   9.186   6.942
   86POPC   C3B 1584   0.760   9.114   6.541
   86POPC   C4B 1585   0.440   9.124   6.188
   87POPC   NC3 1586   6.280   2.418   8.084
   87POPC   PO4 1587   6.904   2.416   7.998
   87POPC   GL1 1588   6.758   2.284   7.622
   87POPC   GL2 1589   6.528   2.543   7.593
   87POPC   C1A 1590   6.716   2.293   7.166
   87POPC   D2A 1591   6.663   2.505   6.771
   87POPC   C3A 1592   6.589   2.359   6.365
   87POPC   C4A 1593   6.784   2.629   6.040
   87POPC   C1B 1594   6.471   2.760   7.176
   87POPC   C2B 1595   6.420   2.958   6.746
   87POPC   C3B 1596   6.358   2.811   6.314
   87POPC   C4B 1597   6.135   2.927   5.927
   88POPC   NC3 1598   5.855  10.269   7.828
   88POPC   PO4 1599   5.361  10.537   8.245
   88POPC   GL1 1600   5.563  10.698   7.806
   88POPC   GL2 1601   5.855  10.846   7.591
   88POPC   C1A 1602   5.518  10.582   7.324
   88POPC   D2A 1603   5.617  10.434   6.890
   88POPC   C3A 1604   5.394  10.513   6.476
   88POPC   C4A 1605   5.477  10.527   5.993
   88POPC   C1B 1606   6.079  10.520   7.283
   88POPC   C2B 1607   6.116  10.272   6.908
   88POPC   C3B 1608   6.034  10.470   6.554
   88POPC   C4B 1609   5.794  10.278   6.287
   89POPC   NC3 1610   1.131   1.922   8.022
   89POPC   PO4 1611   1.587   2.333   8.310
   89POPC   GL1 1612   1.595   2.066   7.828
   89POPC   GL2 1613   1.372   1.777   7.616
   89POPC   C1A 1614   1.523   2.151   7.351
   89POPC   D2A 1615   1.269   2.211   6.990
   89POPC   C3A 1616   1.475   2.216   6.594
   89POPC   C4A 1617   1.179   2.312   6.272
   89POPC   C1B 1618   1.120   1.776   7.268
   89POPC   C2B 1619   0.958   1.782   6.880
   89POPC   C3B 1620   1.179   1.826   6.537
   89POPC   C4B 1621   1.292   1.588   6.208
   90POPC   NC3 1622   6.114   0.723   7.977
   90POPC   PO4 1623   6.865   0.643   7.963
   90POPC   GL1 1624   6.764   0.537   7.568
   90POPC   GL2 1625   6.911   0.249   7.455
   90POPC   C1A 1626   6.683   0.638   7.140
   90POPC   D2A 1627   6.613   0.438   6.777
   90POPC   C3A 1628   6.833   0.590   6.457
   90POPC   C4A 1629   6.719   0.800   6.080
   90POPC   C1B 1630   6.495   0.178   7.287
   90POPC   C2B 1631   6.376  11.491   6.914
   90POPC   C3B 1632   6.168   0.224   6.627
   90POPC   C4B 1633   6.372   0.384   6.292
   91POPC   NC3 1634   4.223   2.076   8.294
   91POPC   PO4 1635   3.782   2.052   7.923
   91POPC   GL1 1636   4.029   2.028   7.584
   91POPC   GL2 1637   4.126   1.707   7.560
   91POPC   C1A 1638   3.883   1.934   7.156
   91POPC   D2A 1639   3.739   2.028   6.723
   91POPC   C3A 1640   4.076   1.953   6.430
   91POPC   C4A 1641   4.290   2.184   6.066
   91POPC   C1B 1642   4.387   1.889   7.225
   91POPC   C2B 1643   4.406   1.796   6.790
   91POPC   C3B 1644   4.572   1.836   6.363
   91POPC   C4B 1645   4.542   1.770   5.908
   92POPC   NC3 1646   7.552  11.165   7.882
   92POPC   PO4 1647   6.832  11.163   7.960
   92POPC   GL1 1648   6.961  10.929   7.573
   92POPC   GL2 1649   7.271  11.120   7.472
   92POPC   C1A 1650   7.061  10.864   7.099
   92POPC   D2A 1651   7.225  11.128   6.783
   92POPC   C3A 1652   7.038  11.140   6.401
   92POPC   C4A 1653   7.074  10.871   5.996
   92POPC   C1B 1654   7.590  11.179   7.150
   92POPC   C2B 1655   7.802  11.194   6.776
   92POPC   C3B 1656   7.644  11.134   6.382
   92POPC   C4B 1657   7.380  11.308   6.075
   93POPC   NC3 1658   0.474  10.480   8.140
   93POPC   PO4 1659   0.094   9.924   7.938
   93POPC   GL1 1660   0.133  10.125   7.551
   93POPC   GL2 1661   0.438  10.312   7.609
   93POPC   C1A 1662   0.048  10.442   7.211
   93POPC   D2A 1663   0.259  10.626   6.826
   93POPC   C3A 1664   0.249  10.357   6.495
   93POPC   C4A 1665   0.598  10.055   6.514
   93POPC   C1B 1666   0.559  10.539   7.238
   93POPC   C2B 1667   0.803  10.722   6.930
   93POPC   C3B 1668   0.729  10.606   6.553
   93POPC   C4B 1669   0.519  10.636   6.170
   94POPC   NC3 1670   4.561   0.557   8.092
   94POPC   PO4 1671   4.035   0.160   7.878
   94POPC   GL1 1672   4.272   0.396   7.560
   94POPC   GL2 1673   4.604   0.321   7.650
   94POPC   C1A 1674   4.151   0.450   7.100
   94POPC   D2A 1675   3.846   0.311   6.735
   94POPC   C3A 1676   4.019   0.440   6.302
   94POPC   C4A 1677   4.386   0.688   6.161
   94POPC   C1B 1678   4.631   0.185   7.228
   94POPC   C2B 1679   4.561   0.225   6.786
   94POPC   C3B 1680   4.506   0.195   6.360
   94POPC   C4B 1681   4.433  11.337   6.095
   95POPC   NC3 1682   7.108   2.013   7.926
   95POPC   PO4 1683   7.744   2.124   8.119
   95POPC   GL1 1684   7.553   2.153   7.664
   95POPC   GL2 1685   7.417   1.819   7.535
   95POPC   C1A 1686   7.569   2.163   7.181
   95POPC   D2A 1687   7.407   1.973   6.783
   95POPC   C3A 1688   7.509   2.173   6.394
   95POPC   C4A 1689   7.476   2.013   5.982
   95POPC   C1B 1690   7.094   1.940   7.198
   95POPC   C2B 1691   6.892   2.019   6.753
   95POPC   C3B 1692   7.003   2.042   6.295
   95POPC   C4B 1693   6.754   2.131   5.934
   96POPC   NC3 1694  11.118   4.285   8.037
   96POPC   PO4 1695  11.048   3.660   8.330
   96POPC   GL1 1696  11.140   3.827   7.819
   96POPC   GL2 1697  10.954   3.994   7.646
   96POPC   C1A 1698  11.313   3.795   7.339
   96POPC   D2A 1699  11.176   4.021   6.911
   96POPC   C3A 1700  11.261   3.951   6.429
   96POPC   C4A 1701  10.956   4.200   6.129
   96POPC   C1B 1702  11.184   4.295   7.368
   96POPC   C2B 1703  11.180   4.534   6.959
   96POPC   C3B 1704  11.148   4.424   6.551
   96POPC   C4B 1705  11.401   4.450   6.183
   97POPC   NC3 1706   8.024   1.726   8.076
   97POPC   PO4 1707   8.531   2.168   8.027
   97POPC   GL1 1708   8.529   1.859   7.696
   97POPC   GL2 1709   8.252   1.628   7.649
   97POPC   C1A 1710   8.471   1.822   7.252
   97POPC   D2A 1711   8.278   2.006   6.895
   97POPC   C3A 1712   8.435   1.905   6.484
   97POPC   C4A 1713   8.268   1.649   6.185
   97POPC   C1B 1714   7.937   1.843   7.407
   97POPC   C2B 1715   7.807   1.730   6.997
   97POPC   C3B 1716   7.891   1.850   6.585
   97POPC   C4B 1717   8.032   2.130   6.268
   98POPC   NC3 1718  11.051   5.838   8.259
   98POPC   PO4 1719   0.106   5.988   7.831
   98POPC   GL1 1720  11.303   5.846   7.573
   98POPC   GL2 1721  11.139   5.612   7.755
   98POPC   C1A 1722  11.351   5.820   7.148
   98POPC   D2A 1723  11.237   5.581   6.790
   98POPC   C3A 1724  11.232   5.770   6.378
   98POPC   C4A 1725  11.012   5.978   6.040
   98POPC   C1B 1726  10.941   5.529   7.340
   98POPC   C2B 1727  10.752   5.504   6.946
   98POPC   C3B 1728  10.844   5.386   6.524
   98POPC   C4B 1729  10.776   5.563   6.146
   99POPC   NC3 1730   1.494   6.522   8.218
   99POPC   PO4 1731   0.901   6.347   7.971
   99POPC   GL1 1732   1.208   6.411   7.664
   99POPC   GL2 1733   1.302   6.754   7.703
   99POPC   C1A 1734   1.155   6.258   7.245
   99POPC   D2A 1735   1.310   6.118   6.829
   99POPC   C3A 1736   1.183   6.281   6.417
   99POPC   C4A 1737   1.488   6.405   6.104
   99POPC   C1B 1738   0.984   6.727   7.323
   99POPC   C2B 1739   1.153   6.639   6.888
   99POPC   C3B 1740   1.306   6.777   6.469
   99POPC   C4B 1741   1.084   6.720   6.088
  100POPC   NC3 1742   1.374   4.385   7.994
  100POPC   PO4 1743   0.731   4.603   8.097
  100POPC   GL1 1744   0.939   4.426   7.662
  100POPC   GL2 1745   1.280   4.148   7.556
  100POPC   C1A 1746   0.860   4.170   7.295
  100POPC   D2A 1747   1.110   4.081   6.911
  100POPC   C3A 1748   0.854   4.201   6.539
  100POPC   C4A 1749   1.011   4.158   6.117
  100POPC   C1B 1750   1.322   4.446   7.253
  100POPC   C2B 1751   1.273   4.550   6.833
  100POPC   C3B 1752   1.343   4.324   6.463
  100POPC   C4B 1753   1.405   4.535   6.094
  101POPC   NC3 1754   7.186   9.813   8.094
  101POPC   PO4 1755   7.292   9.250   7.932
  101POPC   GL1 1756   7.533   9.398   7.614
  101POPC   GL2 1757   7.481   9.734   7.672
  101POPC   C1A 1758   7.427   9.481   7.154
  101POPC   D2A 1759   7.526   9.387   6.726
  101POPC   C3A 1760   7.284   9.633   6.422
  101POPC   C4A 1761   7.133   9.431   6.070
  101POPC   C1B 1762   7.219   9.918   7.330
  101POPC   C2B 1763   7.136   9.936   6.851
  101POPC   C3B 1764   6.996  10.102   6.418
  101POPC   C4B 1765   7.028   9.946   5.973
  102POPC   NC3 1766   2.130   8.559   7.975
  102POPC   PO4 1767   1.500   8.514   8.087
  102POPC   GL1 1768   1.664   8.526   7.706
  102POPC   GL2 1769   1.751   8.876   7.738
  102POPC   C1A 1770   1.553   8.671   7.296
  102POPC   D2A 1771   1.673   8.911   6.902
  102POPC   C3A 1772   1.642   8.705   6.481
  102POPC   C4A 1773   1.769   8.458   6.092
  102POPC   C1B 1774   2.033   8.798   7.395
  102POPC   C2B 1775   2.195   8.858   7.036
  102POPC   C3B 1776   2.144   8.854   6.635
  102POPC   C4B 1777   2.117   8.829   6.217
  103POPC   NC3 1778   3.010   6.482   8.032
  103POPC   PO4 1779   2.461   6.001   8.108
  103POPC   GL1 1780   2.450   6.207   7.675
  103POPC   GL2 1781   2.627   6.498   7.673
  103POPC   C1A 1782   2.544   6.203   7.222
  103POPC   D2A 1783   2.500   6.077   6.773
  103POPC   C3A 1784   2.868   6.236   6.506
  103POPC   C4A 1785   2.961   6.399   6.086
  103POPC   C1B 1786   2.663   6.697   7.250
  103POPC   C2B 1787   2.627   6.549   6.835
  103POPC   C3B 1788   2.658   6.676   6.408
  103POPC   C4B 1789   2.879   6.929   6.109
  104POPC   NC3 1790   7.700   1.395   8.444
  104POPC   PO4 1791   7.176   1.545   7.944
  104POPC   GL1 1792   7.297   1.305   7.571
  104POPC   GL2 1793   7.471   0.985   7.701
  104POPC   C1A 1794   7.358   1.476   7.123
  104POPC   D2A 1795   7.489   1.472   6.661
  104POPC   C3A 1796   7.267   1.593   6.242
  104POPC   C4A 1797   7.449   1.479   5.782
  104POPC   C1B 1798   7.561   0.998   7.251
  104POPC   C2B 1799   7.235   1.005   6.924
  104POPC   C3B 1800   7.097   1.087   6.504
  104POPC   C4B 1801   7.487   1.133   6.267
  105POPC   NC3 1802   3.723  10.280   8.030
  105POPC   PO4 1803   3.264   9.842   8.148
  105POPC   GL1 1804   3.290  10.096   7.767
  105POPC   GL2 1805   3.269  10.484   7.787
  105POPC   C1A 1806   3.218  10.024   7.329
  105POPC   D2A 1807   3.364  10.223   6.949
  105POPC   C3A 1808   3.238  10.071   6.542
  105POPC   C4A 1809   3.508  10.161   6.232
  105POPC   C1B 1810   3.514  10.473   7.390
  105POPC   C2B 1811   3.756  10.540   7.003
  105POPC   C3B 1812   3.593  10.629   6.566
  105POPC   C4B 1813   3.844  10.558   6.190
  106POPC   NC3 1814   0.601   6.769   7.922
  106POPC   PO4 1815   0.223   6.406   8.282
  106POPC   GL1 1816   0.199   6.498   7.808
  106POPC   GL2 1817   0.475   6.342   7.624
  106POPC   C1A 1818   0.149   6.606   7.330
  106POPC   D2A 1819   0.140   6.397   6.906
  106POPC   C3A 1820   0.256   6.623   6.529
  106POPC   C4A 1821   0.271   6.633   6.094
  106POPC   C1B 1822   0.601   6.399   7.191
  106POPC   C2B 1823   0.621   6.734   6.894
  106POPC   C3B 1824   0.798   6.687   6.510
  106POPC   C4B 1825   0.695   6.376   6.235
  107POPC   NC3 1826   5.842  10.545   8.278
  107POPC   PO4 1827   5.607  11.219   8.075
  107POPC   GL1 1828   5.449  11.183   7.646
  107POPC   GL2 1829   5.722  11.363   7.572
  107POPC   C1A 1830   5.567  11.085   7.201
  107POPC   D2A 1831   5.921  10.905   6.991
  107POPC   C3A 1832   5.714  10.873   6.639
  107POPC   C4A 1833   5.686  10.914   6.230
  107POPC   C1B 1834   6.018  11.371   7.275
  107POPC   C2B 1835   5.861  11.407   6.899
  107POPC   C3B 1836   6.011  11.260   6.561
  107POPC   C4B 1837   5.964  11.366   6.206
  108POPC   NC3 1838   9.926   3.630   7.952
  108POPC   PO4 1839   9.873   3.045   7.813
  108POPC   GL1 1840   9.863   3.303   7.484
  108POPC   GL2 1841   9.876   3.651   7.427
  108POPC   C1A 1842   9.815   3.244   7.083
  108POPC   D2A 1843   9.869   3.116   6.734
  108POPC   C3A 1844   9.821   3.414   6.415
  108POPC   C4A 1845   9.633   3.375   6.016
  108POPC   C1B 1846   9.487   3.608   7.171
  108POPC   C2B 1847   9.401   3.405   6.763
  108POPC   C3B 1848   9.292   3.578   6.340
  108POPC   C4B 1849   9.475   3.852   6.007
  109POPC   NC3 1850   2.055   4.580   8.052
  109POPC   PO4 1851   2.036   3.985   8.118
  109POPC   GL1 1852   1.815   4.162   7.760
  109POPC   GL2 1853   2.149   4.189   7.634
  109POPC   C1A 1854   1.766   4.176   7.287
  109POPC   D2A 1855   1.647   4.167   6.835
  109POPC   C3A 1856   1.837   4.428   6.468
  109POPC   C4A 1857   1.884   4.784   6.147
  109POPC   C1B 1858   2.222   3.908   7.267
  109POPC   C2B 1859   2.150   4.020   6.840
  109POPC   C3B 1860   2.296   4.135   6.411
  109POPC   C4B 1861   2.020   4.159   6.058
  110POPC   NC3 1862  10.160   8.407   8.035
  110POPC   PO4 1863  10.346   9.088   8.162
  110POPC   GL1 1864  10.234   8.837   7.764
  110POPC   GL2 1865  10.526   8.637   7.669
  110POPC   C1A 1866  10.147   8.527   7.371
  110POPC   D2A 1867  10.418   8.502   6.984
  110POPC   C3A 1868  10.251   8.558   6.553
  110POPC   C4A 1869  10.289   8.749   6.139
  110POPC   C1B 1870  10.519   8.876   7.323
  110POPC   C2B 1871  10.730   8.971   6.969
  110POPC   C3B 1872  10.654   8.881   6.560
  110POPC   C4B 1873  10.702   9.057   6.181
  111POPC   NC3 1874   0.504   0.539   8.116
  111POPC   PO4 1875   0.316  11.405   8.086
  111POPC   GL1 1876   0.545   0.104   7.719
  111POPC   GL2 1877   0.514   0.467   7.595
  111POPC   C1A 1878   0.493   0.054   7.263
  111POPC   D2A 1879   0.394   0.279   6.874
  111POPC   C3A 1880   0.371   0.041   6.450
  111POPC   C4A 1881   0.463   0.139   5.980
  111POPC   C1B 1882   0.395   0.750   7.226
  111POPC   C2B 1883   0.365   0.807   6.773
  111POPC   C3B 1884   0.511   0.558   6.449
  111POPC   C4B 1885   0.820   0.502   6.181
  112POPC   NC3 1886  10.616   9.555   8.029
  112POPC   PO4 1887   9.930   9.766   8.213
  112POPC   GL1 1888  10.199   9.751   7.829
  112POPC   GL2 1889  10.303   9.370   7.694
  112POPC   C1A 1890  10.194   9.818   7.387
  112POPC   D2A 1891  10.013   9.625   7.038
  112POPC   C3A 1892  10.188   9.663   6.648
  112POPC   C4A 1893  10.009   9.686   6.203
  112POPC   C1B 1894  10.387   9.353   7.248
  112POPC   C2B 1895  10.239   9.157   6.854
  112POPC   C3B 1896  10.307   9.243   6.417
  112POPC   C4B 1897  10.429   9.477   6.020
  113POPC   NC3 1898   9.561  10.017   8.350
  113POPC   PO4 1899   9.282   9.584   7.941
  113POPC   GL1 1900   9.671   9.738   7.749
  113POPC   GL2 1901   9.822   9.473   7.618
  113POPC   C1A 1902   9.664   9.885   7.319
  113POPC   D2A 1903   9.514   9.729   6.922
  113POPC   C3A 1904   9.736   9.895   6.589
  113POPC   C4A 1905   9.531   9.899   6.199
  113POPC   C1B 1906   9.596   9.376   7.306
  113POPC   C2B 1907   9.727   9.241   6.942
  113POPC   C3B 1908   9.769   9.389   6.577
  113POPC   C4B 1909   9.585   9.370   6.218
  114POPC   NC3 1910  10.216  10.298   8.103
  114POPC   PO4 1911  10.869  10.108   8.253
  114POPC   GL1 1912  10.678  10.395   7.779
  114POPC   GL2 1913  10.377  10.250   7.629
  114POPC   C1A 1914  10.744  10.270   7.262
  114POPC   D2A 1915  10.523  10.396   6.896
  114POPC   C3A 1916  10.698  10.521   6.525
  114POPC   C4A 1917  10.728  10.186   6.288
  114POPC   C1B 1918  10.364  10.593   7.341
  114POPC   C2B 1919  10.096  10.706   6.994
  114POPC   C3B 1920  10.203  10.641   6.561
  114POPC   C4B 1921  10.347  10.483   6.137
  115POPC   NC3 1922  10.648   7.810   7.986
  115POPC   PO4 1923   9.968   7.957   8.010
  115POPC   GL1 1924  10.130   8.044   7.623
  115POPC   GL2 1925  10.464   8.118   7.615
  115POPC   C1A 1926  10.197   8.052   7.193
  115POPC   D2A 1927  10.001   8.234   6.877
  115POPC   C3A 1928  10.062   8.063   6.494
  115POPC   C4A 1929  10.083   8.275   6.142
  115POPC   C1B 1930  10.683   7.888   7.282
  115POPC   C2B 1931  10.602   8.029   6.853
  115POPC   C3B 1932  10.551   8.159   6.449
  115POPC   C4B 1933  10.517   7.890   6.114
  116POPC   NC3 1934   0.011   7.573   7.960
  116POPC   PO4 1935   0.631   7.234   7.898
  116POPC   GL1 1936   0.319   7.352   7.633
  116POPC   GL2 1937   0.176   7.011   7.670
  116POPC   C1A 1938   0.288   7.609   7.248
  116POPC   D2A 1939   0.049   7.584   6.848
  116POPC   C3A 1940   0.325   7.584   6.472
  116POPC   C4A 1941   0.660   7.449   6.179
  116POPC   C1B 1942   0.457   7.030   7.277
  116POPC   C2B 1943   0.463   7.261   6.881
  116POPC   C3B 1944   0.495   7.084   6.485
  116POPC   C4B 1945   0.669   6.969   6.081
  117POPC   NC3 1946   8.483   9.798   8.098
  117POPC   PO4 1947   7.830   9.600   8.277
  117POPC   GL1 1948   8.064   9.557   7.856
  117POPC   GL2 1949   7.986   9.850   7.735
  117POPC   C1A 1950   8.344   9.601   7.431
  117POPC   D2A 1951   8.442   9.687   6.944
  117POPC   C3A 1952   8.236   9.505   6.546
  117POPC   C4A 1953   8.174   9.691   6.180
  117POPC   C1B 1954   7.859   9.677   7.335
  117POPC   C2B 1955   7.929   9.693   6.903
  117POPC   C3B 1956   7.772   9.791   6.490
  117POPC   C4B 1957   7.717   9.417   6.218
  118POPC   NC3 1958   3.593   0.389   7.921
  118POPC   PO4 1959   3.797   1.038   7.952
  118POPC   GL1 1960   3.767   0.711   7.586
  118POPC   GL2 1961   3.777   0.348   7.454
  118POPC   C1A 1962   3.549   0.715   7.184
  118POPC   D2A 1963   3.344   0.544   6.813
  118POPC   C3A 1964   3.602   0.717   6.505
  118POPC   C4A 1965   3.655   0.761   6.054
  118POPC   C1B 1966   3.407   0.219   7.229
  118POPC   C2B 1967   3.371  11.451   6.903
  118POPC   C3B 1968   3.229   0.042   6.512
  118POPC   C4B 1969   3.359   0.377   6.244
  119POPC   NC3 1970  11.265   2.389   8.154
  119POPC   PO4 1971  10.727   2.718   8.215
  119POPC   GL1 1972  10.880   2.594   7.831
  119POPC   GL2 1973  11.195   2.807   7.833
  119POPC   C1A 1974  10.976   2.638   7.408
  119POPC   D2A 1975  10.864   2.738   7.025
  119POPC   C3A 1976  10.921   2.417   6.758
  119POPC   C4A 1977  10.903   2.404   6.314
  119POPC   C1B 1978  11.462   2.675   7.486
  119POPC   C2B 1979  11.436   2.720   7.030
  119POPC   C3B 1980  11.236   2.799   6.650
  119POPC   C4B 1981  11.397   2.714   6.285
  120POPC   NC3 1982   8.081  11.404   8.137
  120POPC   PO4 1983   7.762  10.875   8.189
  120POPC   GL1 1984   8.038  11.151   7.715
  120POPC   GL2 1985   7.846  11.391   7.539
  120POPC   C1A 1986   8.096  11.041   7.221
  120POPC   D2A 1987   8.305  11.109   6.826
  120POPC   C3A 1988   8.180  11.057   6.384
  120POPC   C4A 1989   7.994  10.812   6.056
  120POPC   C1B 1990   8.247  11.499   7.370
  120POPC   C2B 1991   8.380   0.092   6.975
  120POPC   C3B 1992   8.158   0.033   6.599
  120POPC   C4B 1993   8.252   0.044   6.202
  121POPC   NC3 1994   6.018   1.552   8.075
  121POPC   PO4 1995   5.349   1.575   8.088
  121POPC   GL1 1996   5.677   1.418   7.729
  121POPC   GL2 1997   5.914   1.108   7.673
  121POPC   C1A 1998   5.905   1.457   7.322
  121POPC   D2A 1999   5.754   1.368   6.921
  121POPC   C3A 2000   5.950   1.346   6.517
  121POPC   C4A 2001   5.740   1.309   6.094
  121POPC   C1B 2002   5.852   0.946   7.227
  121POPC   C2B 2003   5.594   0.888   6.859
  121POPC   C3B 2004   5.675   0.940   6.426
  121POPC   C4B 2005   6.108   0.982   6.162
  122POPC   NC3 2006  10.754   1.578   7.867
  122POPC   PO4 2007  11.352   1.938   8.069
  122POPC   GL1 2008  11.287   2.191   7.682
  122POPC   GL2 2009  11.186   1.863   7.561
  122POPC   C1A 2010  11.290   2.264   7.227
  122POPC   D2A 2011  11.488   2.118   6.881
  122POPC   C3A 2012  11.370   2.274   6.531
  122POPC   C4A 2013  11.340   2.234   6.115
  122POPC   C1B 2014  11.140   1.781   7.126
  122POPC   C2B 2015  11.021   1.928   6.731
  122POPC   C3B 2016  10.993   1.873   6.297
  122POPC   C4B 2017  10.913   1.693   5.893
  123POPC   NC3 2018   1.305   3.492   8.005
  123POPC   PO4 2019   1.047   4.062   7.985
  123POPC   GL1 2020   0.946   3.732   7.664
  123POPC   GL2 2021   1.280   3.600   7.505
  123POPC   C1A 2022   0.844   3.547   7.253
  123POPC   D2A 2023   1.133   3.549   6.910
  123POPC   C3A 2024   0.988   3.699   6.534
  123POPC   C4A 2025   1.149   3.665   6.133
  123POPC   C1B 2026   1.369   3.225   7.238
  123POPC   C2B 2027   1.495   3.183   6.782
  123POPC   C3B 2028   1.235   3.241   6.414
  123POPC   C4B 2029   1.321   3.207   5.928
  124POPC   NC3 2030   9.281  10.037   7.863
  124POPC   PO4 2031   9.782  10.410   8.238
  124POPC   GL1 2032   9.785  10.443   7.755
  124POPC   GL2 2033   9.942  10.718   7.581
  124POPC   C1A 2034   9.542  10.535   7.316
  124POPC   D2A 2035   9.582  10.246   6.946
  124POPC   C3A 2036   9.402  10.273   6.525
  124POPC   C4A 2037   9.338  10.644   6.332
  124POPC   C1B 2038   9.975  10.291   7.315
  124POPC   C2B 2039  10.102  10.112   6.928
  124POPC   C3B 2040  10.241  10.134   6.499
  124POPC   C4B 2041   9.917  10.233   6.231
  125POPC   NC3 2042  11.083   0.640   7.972
  125POPC   PO4 2043   0.159   0.849   8.074
  125POPC   GL1 2044   0.032   0.527   7.737
  125POPC   GL2 2045  11.299   0.222   7.736
  125POPC   C1A 2046   0.086   0.357   7.310
  125POPC   D2A 2047  11.430   0.547   6.938
  125POPC   C3A 2048   0.026   0.483   6.535
  125POPC   C4A 2049   0.012   0.264   6.178
  125POPC   C1B 2050  11.088   0.322   7.338
  125POPC   C2B 2051  10.984   0.207   6.919
  125POPC   C3B 2052  11.078   0.246   6.486
  125POPC   C4B 2053  11.068   0.527   6.185
  126POPC   NC3 2054   0.490   6.097   8.065
  126POPC   PO4 2055  11.473   5.626   8.221
  126POPC   GL1 2056   0.145   5.494   7.723
  126POPC   GL2 2057   0.495   5.664   7.712
  126POPC   C1A 2058   0.324   5.580   7.262
  126POPC   D2A 2059   0.341   5.892   6.965
  126POPC   C3A 2060   0.232   5.660   6.613
  126POPC   C4A 2061   0.358   5.655   6.212
  126POPC   C1B 2062   0.714   5.935   7.401
  126POPC   C2B 2063   0.849   5.963   6.969
  126POPC   C3B 2064   0.750   5.902   6.532
  126POPC   C4B 2065   0.812   5.900   6.096
  127POPC   NC3 2066  10.385   5.931   8.080
  127POPC   PO4 2067  10.911   6.277   8.276
  127POPC   GL1 2068  10.895   6.060   7.817
  127POPC   GL2 2069  10.654   5.796   7.689
  127POPC   C1A 2070  10.859   6.038   7.322
  127POPC   D2A 2071  10.958   5.994   6.884
  127POPC   C3A 2072  10.741   5.906   6.520
  127POPC   C4A 2073  10.571   6.231   6.245
  127POPC   C1B 2074  10.440   5.730   7.301
  127POPC   C2B 2075  10.372   5.843   6.872
  127POPC   C3B 2076  10.180   6.033   6.534
  127POPC   C4B 2077  10.322   5.785   6.252
  128POPC   NC3 2078   2.076   6.334   7.986
  128POPC   PO4 2079   1.748   6.870   8.059
  128POPC   GL1 2080   1.836   6.745   7.634
  128POPC   GL2 2081   1.721   6.446   7.644
  128POPC   C1A 2082   1.698   6.655   7.172
  128POPC   D2A 2083   1.655   6.495   6.737
  128POPC   C3A 2084   1.826   6.758   6.403
  128POPC   C4A 2085   2.246   6.946   6.334
  128POPC   C1B 2086   2.077   6.357   7.357
  128POPC   C2B 2087   2.140   6.389   6.949
  128POPC   C3B 2088   2.202   6.431   6.525
  128POPC   C4B 2089   2.004   6.357   6.128
  129POPC   NC3 2090  10.286   2.951   8.038
  129POPC   PO4 2091  10.023   2.351   8.081
  129POPC   GL1 2092  10.309   2.530   7.780
  129POPC   GL2 2093  10.051   2.626   7.588
  129POPC   C1A 2094  10.490   2.557   7.359
  129POPC   D2A 2095  10.443   2.408   6.949
  129POPC   C3A 2096  10.483   2.630   6.543
  129POPC   C4A 2097  10.310   2.522   6.118
  129POPC   C1B 2098  10.180   2.940   7.270
  129POPC   C2B 2099  10.372   2.995   6.913
  129POPC   C3B 2100  10.308   3.130   6.500
  129POPC   C4B 2101  10.460   3.008   6.149
  130POPC   NC3 2102   4.344  10.521   7.918
  130POPC   PO4 2103   3.715  10.729   8.052
  130POPC   GL1 2104   3.901  10.669   7.691
  130POPC   GL2 2105   3.978  10.356   7.596
  130POPC   C1A 2106   3.980  10.884   7.353
  130POPC   D2A 2107   4.211  10.932   6.989
  130POPC   C3A 2108   4.112  10.702   6.642
  130POPC   C4A 2109   4.367  10.632   6.281
  130POPC   C1B 2110   4.227  10.447   7.245
  130POPC   C2B 2111   4.240  10.263   6.857
  130POPC   C3B 2112   4.558  10.254   6.555
  130POPC   C4B 2113   4.577  10.171   6.127
  131POPC   NC3 2114   1.006   4.986   8.097
  131POPC   PO4 2115   1.640   4.766   7.999
  131POPC   GL1 2116   1.274   4.815   7.640
  131POPC   GL2 2117   1.030   5.099   7.617
  131POPC   C1A 2118   1.010   4.836   7.201
  131POPC   D2A 2119   0.920   4.940   6.770
  131POPC   C3A 2120   0.999   4.695   6.420
  131POPC   C4A 2121   1.083   4.983   6.168
  131POPC   C1B 2122   1.324   5.229   7.289
  131POPC   C2B 2123   1.415   5.043   6.896
  131POPC   C3B 2124   1.485   4.895   6.484
  131POPC   C4B 2125   1.468   5.282   6.287
  132POPC   NC3 2126   5.361   2.027   8.048
  132POPC   PO4 2127   6.012   2.040   8.089
  132POPC   GL1 2128   5.941   1.881   7.655
  132POPC   GL2 2129   5.593   1.903   7.613
  132POPC   C1A 2130   5.855   1.936   7.173
  132POPC   D2A 2131   5.924   1.820   6.733
  132POPC   C3A 2132   6.113   2.131   6.445
  132POPC   C4A 2133   5.977   2.492   6.205
  132POPC   C1B 2134   5.399   1.621   7.315
  132POPC   C2B 2135   5.265   1.473   6.888
  132POPC   C3B 2136   5.459   1.523   6.469
  132POPC   C4B 2137   5.797   1.786   6.229
  133POPC   NC3 2138  11.489  11.244   7.795
  133POPC   PO4 2139   0.177  10.858   8.284
  133POPC   GL1 2140   0.239  10.805   7.750
  133POPC   GL2 2141   0.444  11.100   7.621
  133POPC   C1A 2142   0.183  10.929   7.245
  133POPC   D2A 2143  11.477  11.038   6.831
  133POPC   C3A 2144   0.181  10.932   6.402
  133POPC   C4A 2145   0.150  10.812   5.891
  133POPC   C1B 2146   0.694  11.082   7.274
  133POPC   C2B 2147   0.499  11.175   6.884
  133POPC   C3B 2148   0.653  11.108   6.504
  133POPC   C4B 2149   0.525  11.143   6.073
  134POPC   NC3 2150   2.297   3.605   8.064
  134POPC   PO4 2151   1.689   3.257   7.941
  134POPC   GL1 2152   1.927   3.332   7.576
  134POPC   GL2 2153   1.984   3.676   7.641
  134POPC   C1A 2154   1.862   3.144   7.159
  134POPC   D2A 2155   2.004   3.012   6.765
  134POPC   C3A 2156   1.943   3.339   6.472
  134POPC   C4A 2157   1.632   3.497   6.195
  134POPC   C1B 2158   1.742   3.658   7.232
  134POPC   C2B 2159   1.670   3.661   6.787
  134POPC   C3B 2160   1.873   3.855   6.442
  134POPC   C4B 2161   2.196   3.691   6.140
  135POPC   NC3 2162   1.616   2.885   8.196
  135POPC   PO4 2163   2.223   2.455   8.042
  135POPC   GL1 2164   1.896   2.511   7.786
  135POPC   GL2 2165   1.957   2.854   7.772
  135POPC   C1A 2166   1.765   2.592   7.350
  135POPC   D2A 2167   1.821   2.348   6.962
  135POPC   C3A 2168   1.830   2.567   6.581
  135POPC   C4A 2169   1.656   2.483   6.178
  135POPC   C1B 2170   2.193   2.839   7.389
  135POPC   C2B 2171   2.312   2.519   7.068
  135POPC   C3B 2172   2.335   2.524   6.607
  135POPC   C4B 2173   2.159   2.831   6.300
  136POPC   NC3 2174   2.764   8.881   8.032
  136POPC   PO4 2175   2.504   8.426   7.756
  136POPC   GL1 2176   2.474   8.904   7.607
  136POPC   GL2 2177   2.785   9.119   7.565
  136POPC   C1A 2178   2.413   9.233   7.254
  136POPC   D2A 2179   2.600   9.113   6.841
  136POPC   C3A 2180   2.550   9.069   6.410
  136POPC   C4A 2181   2.591   8.853   6.000
  136POPC   C1B 2182   2.733   8.782   7.207
  136POPC   C2B 2183   2.592   8.586   6.789
  136POPC   C3B 2184   2.838   8.647   6.400
  136POPC   C4B 2185   3.056   9.049   6.257
  137POPC   NC3 2186   2.015   2.053   8.160
  137POPC   PO4 2187   1.506   1.594   8.056
  137POPC   GL1 2188   1.852   1.655   7.744
  137POPC   GL2 2189   2.101   1.909   7.689
  137POPC   C1A 2190   1.825   1.634   7.309
  137POPC   D2A 2191   1.592   1.812   6.952
  137POPC   C3A 2192   1.686   1.680   6.535
  137POPC   C4A 2193   1.754   1.948   6.165
  137POPC   C1B 2194   2.037   2.121   7.354
  137POPC   C2B 2195   2.115   1.913   6.960
  137POPC   C3B 2196   2.014   2.082   6.573
  137POPC   C4B 2197   2.136   2.297   6.193
  138POPC   NC3 2198   1.731  11.106   8.341
  138POPC   PO4 2199   1.700   0.188   8.032
  138POPC   GL1 2200   1.687  11.321   7.761
  138POPC   GL2 2201   1.976  11.078   7.798
  138POPC   C1A 2202   1.701  11.195   7.322
  138POPC   D2A 2203   1.923  11.300   6.938
  138POPC   C3A 2204   1.761  11.215   6.535
  138POPC   C4A 2205   1.740   0.051   6.258
  138POPC   C1B 2206   2.222  10.984   7.415
  138POPC   C2B 2207   2.197  10.862   6.985
  138POPC   C3B 2208   2.300  11.094   6.630
  138POPC   C4B 2209   2.158  11.022   6.245
  139POPC   NC3 2210   4.499  11.481   8.036
  139POPC   PO4 2211   4.713  10.778   8.042
  139POPC   GL1 2212   4.448  10.983   7.715
  139POPC   GL2 2213   4.117  11.148   7.776
  139POPC   C1A 2214   4.604  10.989   7.307
  139POPC   D2A 2215   4.635  11.237   6.953
  139POPC   C3A 2216   4.523  11.033   6.577
  139POPC   C4A 2217   4.755  10.983   6.216
  139POPC   C1B 2218   4.261  11.344   7.372
  139POPC   C2B 2219   4.150  11.448   6.964
  139POPC   C3B 2220   4.155  11.387   6.545
  139POPC   C4B 2221   4.060  11.043   6.276
  140POPC   NC3 2222   9.480   1.186   8.060
  140POPC   PO4 2223  10.070   1.288   8.050
  140POPC   GL1 2224   9.767   1.329   7.661
  140POPC   GL2 2225   9.492   1.037   7.589
  140POPC   C1A 2226   9.657   1.486   7.244
  140POPC   D2A 2227   9.346   1.461   6.887
  140POPC   C3A 2228   9.510   1.431   6.473
  140POPC   C4A 2229   9.872   1.399   6.249
  140POPC   C1B 2230   9.658   0.990   7.190
  140POPC   C2B 2231   9.753   1.142   6.799
  140POPC   C3B 2232   9.785   0.935   6.404
  140POPC   C4B 2233   9.421   0.851   6.153
  141POPC   NC3 2234   2.856  10.039   8.278
  141POPC   PO4 2235   2.716  10.672   8.047
  141POPC   GL1 2236   2.730  10.563   7.651
  141POPC   GL2 2237   2.815  10.227   7.609
  141POPC   C1A 2238   2.466  10.529   7.294
  141POPC   D2A 2239   2.495  10.360   6.892
  141POPC   C3A 2240   2.408  10.601   6.556
  141POPC   C4A 2241   2.537  10.411   6.211
  141POPC   C1B 2242   2.971  10.464   7.207
  141POPC   C2B 2243   2.976  10.482   6.738
  141POPC   C3B 2244   3.046  10.546   6.324
  141POPC   C4B 2245   2.981  10.211   6.087
  142POPC   NC3 2246   6.940   0.160   7.956
  142POPC   PO4 2247   7.689   0.131   7.987
  142POPC   GL1 2248   7.398   0.141   7.644
  142POPC   GL2 2249   7.305   0.482   7.721
  142POPC   C1A 2250   7.329   0.120   7.182
  142POPC   D2A 2251   7.444   0.083   6.720
  142POPC   C3A 2252   7.210   0.200   6.350
  142POPC   C4A 2253   7.390   0.288   5.907
  142POPC   C1B 2254   7.194   0.644   7.315
  142POPC   C2B 2255   7.139   0.504   6.888
  142POPC   C3B 2256   7.376   0.642   6.542
  142POPC   C4B 2257   7.220   0.707   6.154
  143POPC   NC3 2258   2.954   9.636   7.860
  143POPC   PO4 2259   2.417   9.973   8.102
  143POPC   GL1 2260   2.374   9.932   7.662
  143POPC   GL2 2261   2.511   9.598   7.586
  143POPC   C1A 2262   2.541   9.992   7.242
  143POPC   D2A 2263   2.880  10.016   6.935
  143POPC   C3A 2264   2.711  10.039   6.512
  143POPC   C4A 2265   2.415   9.876   6.176
  143POPC   C1B 2266   2.839   9.562   7.223
  143POPC   C2B 2267   2.863   9.537   6.770
  143POPC   C3B 2268   2.780   9.547   6.347
  143POPC   C4B 2269   2.718   9.327   5.995
  144POPC   NC3 2270   1.672   7.315   7.958
  144POPC   PO4 2271   1.947   7.820   8.324
  144POPC   GL1 2272   1.880   7.865   7.835
  144POPC   GL2 2273   2.097   8.103   7.728
  144POPC   C1A 2274   1.787   7.806   7.347
  144POPC   D2A 2275   1.935   7.924   6.886
  144POPC   C3A 2276   1.764   7.715   6.474
  144POPC   C4A 2277   1.782   7.883   6.034
  144POPC   C1B 2278   1.929   8.296   7.329
  144POPC   C2B 2279   2.015   8.425   6.896
  144POPC   C3B 2280   2.109   8.357   6.466
  144POPC   C4B 2281   2.231   8.134   6.084
  145POPC   NC3 2282   2.600   2.765   8.068
  145POPC   PO4 2283   3.109   2.339   8.224
  145POPC   GL1 2284   2.855   2.589   7.698
  145POPC   GL2 2285   2.523   2.519   7.591
  145POPC   C1A 2286   2.877   2.412   7.214
  145POPC   D2A 2287   2.784   2.564   6.831
  145POPC   C3A 2288   2.882   2.373   6.467
  145POPC   C4A 2289   3.051   2.467   6.082
  145POPC   C1B 2290   2.670   2.862   7.263
  145POPC   C2B 2291   2.508   2.974   6.839
  145POPC   C3B 2292   2.699   2.858   6.404
  145POPC   C4B 2293   2.531   2.972   5.970
  146POPC   NC3 2294  11.214   1.560   8.313
  146POPC   PO4 2295  10.837   1.036   8.084
  146POPC   GL1 2296  11.033   1.153   7.673
  146POPC   GL2 2297  11.408   1.095   7.694
  146POPC   C1A 2298  11.082   1.276   7.204
  146POPC   D2A 2299  11.146   1.441   6.741
  146POPC   C3A 2300  10.986   1.317   6.365
  146POPC   C4A 2301  10.683   1.009   6.384
  146POPC   C1B 2302  11.296   0.819   7.349
  146POPC   C2B 2303  11.000   0.806   6.978
  146POPC   C3B 2304  11.161   0.868   6.555
  146POPC   C4B 2305  11.456   0.858   6.196
  147POPC   NC3 2306   1.907   1.295   8.094
  147POPC   PO4 2307   2.341   1.720   8.096
  147POPC   GL1 2308   2.278   1.411   7.713
  147POPC   GL2 2309   2.027   1.119   7.647
  147POPC   C1A 2310   2.354   1.484   7.257
  147POPC   D2A 2311   2.400   1.259   6.840
  147POPC   C3A 2312   2.221   1.593   6.542
  147POPC   C4A 2313   1.987   1.509   6.138
  147POPC   C1B 2314   2.053   1.080   7.216
  147POPC   C2B 2315   1.901   1.346   6.885
  147POPC   C3B 2316   1.885   1.167   6.487
  147POPC   C4B 2317   1.595   1.163   6.157
  148POPC   NC3 2318  11.434  11.272   8.347
  148POPC   PO4 2319  11.242  10.856   7.855
  148POPC   GL1 2320  11.217  11.032   7.452
  148POPC   GL2 2321  10.988  11.278   7.662
  148POPC   C1A 2322  11.368  11.397   7.191
  148POPC   D2A 2323  11.455   0.047   6.790
  148POPC   C3A 2324  11.366  11.327   6.414
  148POPC   C4A 2325   0.054  11.282   6.017
  148POPC   C1B 2326  10.855  11.325   7.286
  148POPC   C2B 2327  10.988  11.169   6.945
  148POPC   C3B 2328  10.881  11.294   6.588
  148POPC   C4B 2329  10.917  11.173   6.203
  149POPC   NC3 2330   5.213   8.811   8.083
  149POPC   PO4 2331   4.655   8.433   8.082
  149POPC   GL1 2332   4.854   8.659   7.704
  149POPC   GL2 2333   4.895   9.029   7.726
  149POPC   C1A 2334   5.061   8.782   7.296
  149POPC   D2A 2335   4.925   8.935   6.895
  149POPC   C3A 2336   5.007   8.784   6.502
  149POPC   C4A 2337   4.700   8.459   6.382
  149POPC   C1B 2338   4.864   9.260   7.325
  149POPC   C2B 2339   4.757   9.407   6.914
  149POPC   C3B 2340   4.838   9.383   6.470
  149POPC   C4B 2341   5.104   9.480   6.092
  150POPC   NC3 2342   4.381   9.528   8.070
  150POPC   PO4 2343   4.493  10.113   8.043
  150POPC   GL1 2344   4.180   9.895   7.726
  150POPC   GL2 2345   4.091   9.516   7.657
  150POPC   C1A 2346   4.241   9.880   7.254
  150POPC   D2A 2347   4.566   9.874   6.900
  150POPC   C3A 2348   4.346   9.810   6.480
  150POPC   C4A 2349   4.067  10.069   6.212
  150POPC   C1B 2350   4.338   9.352   7.299
  150POPC   C2B 2351   4.235   9.477   6.873
  150POPC   C3B 2352   4.189   9.325   6.447
  150POPC   C4B 2353   4.142   9.513   6.042
  151POPC   NC3 2354   8.952   1.982   8.008
  151POPC   PO4 2355   9.210   1.439   7.778
  151POPC   GL1 2356   9.003   1.724   7.550
  151POPC   GL2 2357   8.985   2.101   7.523
  151POPC   C1A 2358   8.995   1.721   7.151
  151POPC   D2A 2359   8.753   1.757   6.842
  151POPC   C3A 2360   9.010   1.719   6.545
  151POPC   C4A 2361   8.823   1.768   6.175
  151POPC   C1B 2362   8.812   2.194   7.126
  151POPC   C2B 2363   9.095   2.177   6.771
  151POPC   C3B 2364   9.079   2.200   6.332
  151POPC   C4B 2365   8.673   2.294   6.138
  152POPC   NC3 2366  10.593  11.269   8.017
  152POPC   PO4 2367  10.257  10.755   7.998
  152POPC   GL1 2368  10.403  11.002   7.624
  152POPC   GL2 2369  10.416  11.369   7.574
  152POPC   C1A 2370  10.429  11.068   7.186
  152POPC   D2A 2371  10.568  10.902   6.866
  152POPC   C3A 2372  10.418  11.111   6.585
  152POPC   C4A 2373  10.461  10.957   6.225
  152POPC   C1B 2374  10.103   0.116   7.408
  152POPC   C2B 2375  10.040   0.195   7.007
  152POPC   C3B 2376  10.084   0.081   6.586
  152POPC   C4B 2377  10.260  11.422   6.214
  153POPC   NC3 2378   2.008   9.522   8.163
  153POPC   PO4 2379   2.323   8.978   8.078
  153POPC   GL1 2380   2.111   9.251   7.711
  153POPC   GL2 2381   1.952   9.601   7.679
  153POPC   C1A 2382   1.865   9.262   7.305
  153POPC   D2A 2383   2.001   9.320   6.888
  153POPC   C3A 2384   1.861   9.240   6.461
  153POPC   C4A 2385   2.200   9.339   6.175
  153POPC   C1B 2386   1.801   9.783   7.317
  153POPC   C2B 2387   2.048   9.852   6.957
  153POPC   C3B 2388   2.135   9.689   6.565
  153POPC   C4B 2389   1.914   9.754   6.208
  154POPC   NC3 2390   6.061  11.261   7.916
  154POPC   PO4 2391   6.189  10.637   7.918
  154POPC   GL1 2392   6.377  10.905   7.576
  154POPC   GL2 2393   6.509  11.263   7.589
  154POPC   C1A 2394   6.426  11.036   7.156
  154POPC   D2A 2395   6.671  11.060   6.790
  154POPC   C3A 2396   6.323  10.889   6.621
  154POPC   C4A 2397   6.181  10.857   6.210
  154POPC   C1B 2398   6.849  11.308   7.237
  154POPC   C2B 2399   6.922   0.035   6.855
  154POPC   C3B 2400   6.727   0.051   6.458
  154POPC   C4B 2401   6.472  11.264   6.268
  155POPC   NC3 2402   8.328   8.811   8.138
  155POPC   PO4 2403   8.980   8.812   8.167
  155POPC   GL1 2404   8.795   8.911   7.772
  155POPC   GL2 2405   8.609   8.628   7.693
  155POPC   C1A 2406   8.716   9.020   7.334
  155POPC   D2A 2407   8.583   8.795   6.949
  155POPC   C3A 2408   8.471   9.073   6.649
  155POPC   C4A 2409   8.693   9.236   6.309
  155POPC   C1B 2410   9.004   8.597   7.407
  155POPC   C2B 2411   9.064   8.632   6.945
  155POPC   C3B 2412   8.942   8.876   6.580
  155POPC   C4B 2413   8.808   8.755   6.152
  156POPC   NC3 2414   4.118   1.359   7.927
  156POPC   PO4 2415   4.640   0.999   7.969
  156POPC   GL1 2416   4.497   1.213   7.622
  156POPC   GL2 2417   4.437   0.901   7.455
  156POPC   C1A 2418   4.349   1.365   7.230
  156POPC   D2A 2419   4.366   1.101   6.890
  156POPC   C3A 2420   4.393   1.337   6.565
  156POPC   C4A 2421   4.444   1.361   6.183
  156POPC   C1B 2422   4.044   0.945   7.259
  156POPC   C2B 2423   3.862   1.015   6.861
  156POPC   C3B 2424   4.067   0.948   6.472
  156POPC   C4B 2425   4.050   1.071   6.050
  157POPC   NC3 2426   0.884   8.146   3.995
  157POPC   PO4 2427   1.441   7.772   3.945
  157POPC   GL1 2428   1.395   7.974   4.313
  157POPC   GL2 2429   1.266   8.302   4.309
  157POPC   C1A 2430   1.296   7.851   4.719
  157POPC   D2A 2431   1.221   7.555   5.039
  157POPC   C3A 2432   1.278   7.843   5.369
  157POPC   C4A 2433   1.345   7.769   5.781
  157POPC   C1B 2434   0.982   8.264   4.674
  157POPC   C2B 2435   0.884   7.981   5.014
  157POPC   C3B 2436   0.832   8.092   5.436
  157POPC   C4B 2437   1.084   8.204   5.762
  158POPC   NC3 2438   3.570   1.788   4.112
  158POPC   PO4 2439   4.098   2.245   3.887
  158POPC   GL1 2440   3.825   2.191   4.363
  158POPC   GL2 2441   3.495   2.040   4.546
  158POPC   C1A 2442   3.855   2.247   4.803
  158POPC   D2A 2443   3.533   2.026   5.074
  158POPC   C3A 2444   3.551   2.185   5.483
  158POPC   C4A 2445   3.472   2.188   5.906
  158POPC   C1B 2446   3.462   1.619   4.752
  158POPC   C2B 2447   3.595   1.425   5.138
  158POPC   C3B 2448   3.718   1.660   5.474
  158POPC   C4B 2449   3.341   1.743   5.719
  159POPC   NC3 2450   0.738   5.662   3.971
  159POPC   PO4 2451   0.890   6.280   3.921
  159POPC   GL1 2452   0.612   6.137   4.252
  159POPC   GL2 2453   0.375   5.878   4.239
  159POPC   C1A 2454   0.640   5.952   4.676
  159POPC   D2A 2455   0.765   5.818   5.097
  159POPC   C3A 2456   0.498   5.801   5.455
  159POPC   C4A 2457   0.608   5.554   5.790
  159POPC   C1B 2458   0.317   5.580   4.628
  159POPC   C2B 2459   0.178   5.734   5.048
  159POPC   C3B 2460   0.027   5.563   5.463
  159POPC   C4B 2461  11.459   5.734   5.895
  160POPC   NC3 2462   1.992   4.583   4.109
  160POPC   PO4 2463   1.660   4.189   3.782
  160POPC   GL1 2464   1.587   4.071   4.240
  160POPC   GL2 2465   1.904   4.053   4.444
  160POPC   C1A 2466   1.485   4.289   4.638
  160POPC   D2A 2467   1.784   4.429   4.917
  160POPC   C3A 2468   1.682   4.325   5.337
  160POPC   C4A 2469   1.758   4.456   5.748
  160POPC   C1B 2470   2.196   3.786   4.743
  160POPC   C2B 2471   2.266   3.817   5.211
  160POPC   C3B 2472   2.144   4.116   5.566
  160POPC   C4B 2473   2.271   4.524   5.817
  161POPC   NC3 2474   0.484   1.472   4.199
  161POPC   PO4 2475   0.403   0.998   3.723
  161POPC   GL1 2476   0.415   0.959   4.265
  161POPC   GL2 2477   0.513   1.151   4.578
  161POPC   C1A 2478   0.110   0.890   4.686
  161POPC   D2A 2479   0.218   1.176   5.044
  161POPC   C3A 2480   0.392   1.055   5.432
  161POPC   C4A 2481   0.234   1.101   5.848
  161POPC   C1B 2482   0.595   1.523   4.851
  161POPC   C2B 2483   0.569   1.518   5.285
  161POPC   C3B 2484   0.589   1.432   5.697
  161POPC   C4B 2485   0.734   0.988   5.851
  162POPC   NC3 2486   2.278   1.519   4.114
  162POPC   PO4 2487   2.550   0.902   3.912
  162POPC   GL1 2488   2.413   1.043   4.331
  162POPC   GL2 2489   2.054   1.081   4.329
  162POPC   C1A 2490   2.343   0.893   4.767
  162POPC   D2A 2491   2.072   0.909   5.153
  162POPC   C3A 2492   2.266   0.999   5.549
  162POPC   C4A 2493   2.063   1.004   5.998
  162POPC   C1B 2494   1.955   1.252   4.744
  162POPC   C2B 2495   1.840   1.359   5.182
  162POPC   C3B 2496   1.889   1.340   5.627
  162POPC   C4B 2497   1.583   1.572   5.809
  163POPC   NC3 2498   1.235   3.262   4.049
  163POPC   PO4 2499   0.804   3.674   3.755
  163POPC   GL1 2500   0.852   3.501   4.302
  163POPC   GL2 2501   1.179   3.474   4.498
  163POPC   C1A 2502   0.836   3.371   4.807
  163POPC   D2A 2503   0.989   3.555   5.230
  163POPC   C3A 2504   0.909   3.459   5.691
  163POPC   C4A 2505   0.842   3.237   6.101
  163POPC   C1B 2506   1.480   3.286   4.718
  163POPC   C2B 2507   1.506   3.454   5.083
  163POPC   C3B 2508   1.502   3.366   5.472
  163POPC   C4B 2509   1.360   3.695   5.690
  164POPC   NC3 2510   9.620   7.527   3.866
  164POPC   PO4 2511   9.801   6.995   4.007
  164POPC   GL1 2512   9.689   7.251   4.339
  164POPC   GL2 2513   9.919   7.489   4.366
  164POPC   C1A 2514   9.576   7.309   4.784
  164POPC   D2A 2515   9.322   7.515   5.134
  164POPC   C3A 2516   9.395   7.327   5.548
  164POPC   C4A 2517   9.498   7.356   5.968
  164POPC   C1B 2518  10.123   7.414   4.761
  164POPC   C2B 2519  10.055   7.080   5.079
  164POPC   C3B 2520   9.854   7.073   5.475
  164POPC   C4B 2521   9.920   7.464   5.695
  165POPC   NC3 2522  11.209   3.085   4.008
  165POPC   PO4 2523  10.897   2.424   3.985
  165POPC   GL1 2524  10.979   2.539   4.376
  165POPC   GL2 2525  11.299   2.722   4.378
  165POPC   C1A 2526  11.143   2.431   4.772
  165POPC   D2A 2527  10.914   2.558   5.104
  165POPC   C3A 2528  11.130   2.444   5.430
  165POPC   C4A 2529  11.237   2.629   5.810
  165POPC   C1B 2530  11.476   2.836   4.803
  165POPC   C2B 2531  11.301   2.895   5.204
  165POPC   C3B 2532  11.282   3.088   5.575
  165POPC   C4B 2533   0.026   3.038   5.934
  166POPC   NC3 2534  11.137   8.757   3.733
  166POPC   PO4 2535  10.932   9.085   4.333
  166POPC   GL1 2536  11.002   8.684   4.498
  166POPC   GL2 2537  11.228   8.615   4.254
  166POPC   C1A 2538  11.166   8.663   4.916
  166POPC   D2A 2539  11.265   9.027   5.140
  166POPC   C3A 2540  10.957   8.997   5.432
  166POPC   C4A 2541  10.896   8.791   5.803
  166POPC   C1B 2542  11.437   8.371   4.613
  166POPC   C2B 2543   0.056   8.358   5.095
  166POPC   C3B 2544  11.494   8.677   5.453
  166POPC   C4B 2545  11.375   8.695   5.895
  167POPC   NC3 2546   8.809   5.437   3.936
  167POPC   PO4 2547   8.521   5.988   3.950
  167POPC   GL1 2548   8.673   5.738   4.327
  167POPC   GL2 2549   9.035   5.634   4.356
  167POPC   C1A 2550   8.747   5.704   4.783
  167POPC   D2A 2551   8.678   5.433   5.142
  167POPC   C3A 2552   8.722   5.553   5.594
  167POPC   C4A 2553   8.467   5.725   5.962
  167POPC   C1B 2554   9.262   5.822   4.726
  167POPC   C2B 2555   9.108   5.761   5.174
  167POPC   C3B 2556   9.192   5.768   5.625
  167POPC   C4B 2557   8.970   5.762   6.035
  168POPC   NC3 2558   8.365   3.551   4.036
  168POPC   PO4 2559   8.111   3.993   4.245
  168POPC   GL1 2560   8.145   3.604   4.506
  168POPC   GL2 2561   8.454   3.387   4.508
  168POPC   C1A 2562   8.199   3.483   4.941
  168POPC   D2A 2563   8.521   3.536   5.260
  168POPC   C3A 2564   8.327   3.673   5.677
  168POPC   C4A 2565   7.931   3.679   5.931
  168POPC   C1B 2566   8.470   3.052   4.825
  168POPC   C2B 2567   8.297   3.055   5.248
  168POPC   C3B 2568   8.250   3.115   5.695
  168POPC   C4B 2569   8.150   2.867   6.075
  169POPC   NC3 2570   8.997   9.056   4.044
  169POPC   PO4 2571   8.425   9.128   3.697
  169POPC   GL1 2572   8.554   8.874   4.179
  169POPC   GL2 2573   8.805   8.648   4.294
  169POPC   C1A 2574   8.599   8.943   4.655
  169POPC   D2A 2575   8.655   8.694   5.002
  169POPC   C3A 2576   8.620   8.730   5.466
  169POPC   C4A 2577   8.679   9.074   5.750
  169POPC   C1B 2578   9.055   8.694   4.690
  169POPC   C2B 2579   9.113   8.569   5.146
  169POPC   C3B 2580   9.123   8.807   5.542
  169POPC   C4B 2581   9.257   8.663   5.928
  170POPC   NC3 2582  10.495   1.328   3.927
  170POPC   PO4 2583   9.993   0.809   3.995
  170POPC   GL1 2584   9.993   1.225   4.148
  170POPC   GL2 2585  10.278   1.117   4.346
  170POPC   C1A 2586  10.005   1.492   4.544
  170POPC   D2A 2587  10.196   1.396   4.932
  170POPC   C3A 2588  10.123   1.521   5.348
  170POPC   C4A 2589  10.030   1.429   5.772
  170POPC   C1B 2590  10.572   1.153   4.691
  170POPC   C2B 2591  10.528   1.095   5.154
  170POPC   C3B 2592  10.469   1.230   5.581
  170POPC   C4B 2593  10.720   1.228   5.910
  171POPC   NC3 2594   8.202   8.762   3.857
  171POPC   PO4 2595   8.545   9.369   4.145
  171POPC   GL1 2596   8.217   9.175   4.413
  171POPC   GL2 2597   8.061   8.902   4.309
  171POPC   C1A 2598   8.149   9.104   4.844
  171POPC   D2A 2599   8.355   9.067   5.201
  171POPC   C3A 2600   8.182   9.080   5.584
  171POPC   C4A 2601   8.285   9.249   6.008
  171POPC   C1B 2602   8.186   8.626   4.682
  171POPC   C2B 2603   8.200   8.581   5.144
  171POPC   C3B 2604   8.211   8.432   5.552
  171POPC   C4B 2605   7.936   8.450   5.886
  172POPC   NC3 2606   6.612   0.305   3.694
  172POPC   PO4 2607   7.079   0.608   3.893
  172POPC   GL1 2608   6.901   0.293   4.181
  172POPC   GL2 2609   6.539   0.307   4.204
  172POPC   C1A 2610   6.840   0.241   4.641
  172POPC   D2A 2611   6.873   0.423   5.082
  172POPC   C3A 2612   6.750   0.338   5.534
  172POPC   C4A 2613   6.862   0.333   6.000
  172POPC   C1B 2614   6.325   0.396   4.592
  172POPC   C2B 2615   6.342   0.513   5.036
  172POPC   C3B 2616   6.257   0.410   5.474
  172POPC   C4B 2617   6.282   0.617   5.855
  173POPC   NC3 2618   3.410   8.297   3.537
  173POPC   PO4 2619   2.956   8.125   3.937
  173POPC   GL1 2620   3.051   8.328   4.366
  173POPC   GL2 2621   3.420   8.247   4.395
  173POPC   C1A 2622   3.189   8.370   4.840
  173POPC   D2A 2623   3.353   8.135   5.238
  173POPC   C3A 2624   3.405   8.272   5.692
  173POPC   C4A 2625   3.558   8.401   6.107
  173POPC   C1B 2626   3.456   7.934   4.748
  173POPC   C2B 2627   3.682   7.749   5.119
  173POPC   C3B 2628   3.689   7.839   5.570
  173POPC   C4B 2629   3.937   8.105   5.845
  174POPC   NC3 2630   9.494   9.913   3.907
  174POPC   PO4 2631  10.041   9.427   4.013
  174POPC   GL1 2632   9.733   9.606   4.263
  174POPC   GL2 2633   9.581   9.332   4.427
  174POPC   C1A 2634   9.813   9.797   4.662
  174POPC   D2A 2635   9.819  10.018   5.060
  174POPC   C3A 2636   9.597   9.951   5.435
  174POPC   C4A 2637   9.804   9.991   5.798
  174POPC   C1B 2638   9.579   9.399   4.872
  174POPC   C2B 2639   9.890   9.481   5.205
  174POPC   C3B 2640   9.866   9.499   5.654
  174POPC   C4B 2641   9.447   9.581   5.789
  175POPC   NC3 2642   9.090   0.158   3.959
  175POPC   PO4 2643   8.594   0.623   3.746
  175POPC   GL1 2644   8.816   0.478   4.219
  175POPC   GL2 2645   8.776   0.164   4.353
  175POPC   C1A 2646   8.821   0.575   4.709
  175POPC   D2A 2647   8.663   0.762   5.121
  175POPC   C3A 2648   8.898   0.652   5.498
  175POPC   C4A 2649   9.351   0.683   5.686
  175POPC   C1B 2650   8.773   0.030   4.766
  175POPC   C2B 2651   8.838   0.244   5.133
  175POPC   C3B 2652   8.622   0.204   5.492
  175POPC   C4B 2653   8.479   0.321   5.850
  176POPC   NC3 2654   8.136   9.446   3.864
  176POPC   PO4 2655   7.734   8.896   3.866
  176POPC   GL1 2656   7.763   9.313   4.186
  176POPC   GL2 2657   8.041   9.627   4.313
  176POPC   C1A 2658   7.776   9.376   4.644
  176POPC   D2A 2659   7.736   9.312   5.060
  176POPC   C3A 2660   7.747   9.632   5.369
  176POPC   C4A 2661   7.956   9.534   5.743
  176POPC   C1B 2662   8.248   9.620   4.711
  176POPC   C2B 2663   8.208   9.545   5.144
  176POPC   C3B 2664   8.434   9.522   5.519
  176POPC   C4B 2665   8.355   9.895   5.747
  177POPC   NC3 2666   2.990   0.314   4.037
  177POPC   PO4 2667   2.446   0.105   3.804
  177POPC   GL1 2668   2.532   0.240   4.247
  177POPC   GL2 2669   2.663   0.591   4.320
  177POPC   C1A 2670   2.436   0.316   4.698
  177POPC   D2A 2671   2.238   0.448   5.064
  177POPC   C3A 2672   2.501   0.496   5.416
  177POPC   C4A 2673   2.513   0.274   5.813
  177POPC   C1B 2674   2.834   0.686   4.759
  177POPC   C2B 2675   2.975   0.635   5.211
  177POPC   C3B 2676   2.896   0.759   5.660
  177POPC   C4B 2677   3.003   0.714   6.113
  178POPC   NC3 2678   2.149  11.281   3.945
  178POPC   PO4 2679   1.593  10.951   3.714
  178POPC   GL1 2680   1.569  11.133   4.189
  178POPC   GL2 2681   1.911  11.111   4.355
  178POPC   C1A 2682   1.590  11.343   4.639
  178POPC   D2A 2683   1.898  11.192   4.976
  178POPC   C3A 2684   1.784  11.224   5.436
  178POPC   C4A 2685   1.801  11.134   5.918
  178POPC   C1B 2686   2.267  11.308   4.581
  178POPC   C2B 2687   2.421  11.341   4.977
  178POPC   C3B 2688   2.345  11.100   5.327
  178POPC   C4B 2689   2.331  11.179   5.766
  179POPC   NC3 2690  10.674   8.773   4.106
  179POPC   PO4 2691  10.073   8.513   3.972
  179POPC   GL1 2692  10.135   8.900   4.244
  179POPC   GL2 2693  10.355   8.807   4.494
  179POPC   C1A 2694   9.976   9.078   4.662
  179POPC   D2A 2695  10.159   8.876   5.041
  179POPC   C3A 2696  10.032   8.899   5.480
  179POPC   C4A 2697  10.112   8.473   5.676
  179POPC   C1B 2698  10.634   8.827   4.820
  179POPC   C2B 2699  10.702   8.667   5.142
  179POPC   C3B 2700  10.517   8.705   5.495
  179POPC   C4B 2701  10.444   9.044   5.746
  180POPC   NC3 2702   2.412  10.255   3.990
  180POPC   PO4 2703   3.056   9.969   3.897
  180POPC   GL1 2704   2.891  10.080   4.288
  180POPC   GL2 2705   2.738  10.376   4.348
  180POPC   C1A 2706   2.817   9.990   4.718
  180POPC   D2A 2707   3.033  10.152   5.096
  180POPC   C3A 2708   2.865  10.155   5.508
  180POPC   C4A 2709   2.463  10.172   5.748
  180POPC   C1B 2710   2.901  10.483   4.709
  180POPC   C2B 2711   2.583  10.427   5.024
  180POPC   C3B 2712   2.494  10.586   5.428
  180POPC   C4B 2713   2.793  10.581   5.794
  181POPC   NC3 2714  11.316   4.256   4.019
  181POPC   PO4 2715  11.291   4.908   3.791
  181POPC   GL1 2716  11.257   4.730   4.257
  181POPC   GL2 2717  11.029   4.450   4.374
  181POPC   C1A 2718  11.407   4.623   4.684
  181POPC   D2A 2719  11.173   4.445   5.041
  181POPC   C3A 2720  11.350   4.493   5.442
  181POPC   C4A 2721  11.090   4.504   5.772
  181POPC   C1B 2722  11.223   4.142   4.646
  181POPC   C2B 2723  11.361   3.950   5.051
  181POPC   C3B 2724  11.208   3.996   5.462
  181POPC   C4B 2725  11.347   4.033   5.864
  182POPC   NC3 2726   2.710  11.058   3.507
  182POPC   PO4 2727   2.941  10.491   3.895
  182POPC   GL1 2728   2.801  10.867   4.239
  182POPC   GL2 2729   2.633  11.211   4.204
  182POPC   C1A 2730   2.746  10.975   4.691
  182POPC   D2A 2731   2.888  10.822   5.109
  182POPC   C3A 2732   2.833  10.997   5.506
  182POPC   C4A 2733   3.100  10.972   5.916
  182POPC   C1B 2734   2.779  11.467   4.579
  182POPC   C2B 2735   2.838   0.155   5.003
  182POPC   C3B 2736   2.687  11.496   5.417
  182POPC   C4B 2737   2.795  11.357   5.847
  183POPC   NC3 2738   9.043   8.237   3.984
  183POPC   PO4 2739   8.458   8.386   3.986
  183POPC   GL1 2740   8.692   8.165   4.366
  183POPC   GL2 2741   9.010   7.955   4.400
  183POPC   C1A 2742   8.822   8.251   4.807
  183POPC   D2A 2743   8.579   8.231   5.199
  183POPC   C3A 2744   8.717   8.237   5.615
  183POPC   C4A 2745   8.547   8.306   6.034
  183POPC   C1B 2746   9.188   7.903   4.817
  183POPC   C2B 2747   9.020   7.937   5.246
  183POPC   C3B 2748   9.073   7.785   5.671
  183POPC   C4B 2749   8.733   7.800   5.990
  184POPC   NC3 2750   0.999  10.343   4.018
  184POPC   PO4 2751   1.655  10.260   3.884
  184POPC   GL1 2752   1.535  10.294   4.288
  184POPC   GL2 2753   1.394  10.614   4.230
  184POPC   C1A 2754   1.573  10.150   4.727
  184POPC   D2A 2755   1.604  10.360   5.146
  184POPC   C3A 2756   1.493  10.073   5.487
  184POPC   C4A 2757   1.541   9.906   5.894
  184POPC   C1B 2758   1.162  10.435   4.618
  184POPC   C2B 2759   1.083  10.585   5.015
  184POPC   C3B 2760   1.176  10.477   5.406
  184POPC   C4B 2761   1.057  10.596   5.765
  185POPC   NC3 2762   4.430   8.796   3.644
  185POPC   PO4 2763   4.215   9.218   3.975
  185POPC   GL1 2764   4.209   9.157   4.408
  185POPC   GL2 2765   4.278   8.805   4.474
  185POPC   C1A 2766   4.042   9.194   4.827
  185POPC   D2A 2767   4.189   9.370   5.224
  185POPC   C3A 2768   4.043   9.210   5.635
  185POPC   C4A 2769   4.151   8.996   6.046
  185POPC   C1B 2770   4.511   8.991   4.826
  185POPC   C2B 2771   4.567   8.947   5.233
  185POPC   C3B 2772   4.468   8.929   5.630
  185POPC   C4B 2773   4.521   8.635   5.949
  186POPC   NC3 2774  11.171   9.371   4.065
  186POPC   PO4 2775  10.705   9.994   3.984
  186POPC   GL1 2776  10.922  10.006   4.400
  186POPC   GL2 2777  11.171   9.741   4.418
  186POPC   C1A 2778  10.876   9.779   4.828
  186POPC   D2A 2779  10.874   9.566   5.237
  186POPC   C3A 2780  11.067   9.843   5.549
  186POPC   C4A 2781  11.448   9.934   5.718
  186POPC   C1B 2782  11.296   9.469   4.786
  186POPC   C2B 2783  11.426   9.561   5.208
  186POPC   C3B 2784  11.255   9.385   5.552
  186POPC   C4B 2785  10.882   9.338   5.793
  187POPC   NC3 2786   2.392   5.992   3.720
  187POPC   PO4 2787   3.070   6.169   3.868
  187POPC   GL1 2788   2.752   6.056   4.178
  187POPC   GL2 2789   2.530   5.750   4.165
  187POPC   C1A 2790   2.902   5.929   4.600
  187POPC   D2A 2791   3.157   6.053   4.975
  187POPC   C3A 2792   2.981   5.936   5.410
  187POPC   C4A 2793   2.785   5.987   5.826
  187POPC   C1B 2794   2.408   5.792   4.606
  187POPC   C2B 2795   2.304   5.860   5.063
  187POPC   C3B 2796   2.463   5.779   5.472
  187POPC   C4B 2797   2.571   5.525   5.842
  188POPC   NC3 2798  11.394   8.008   4.003
  188POPC   PO4 2799  10.709   8.253   3.856
  188POPC   GL1 2800  10.953   8.197   4.245
  188POPC   GL2 2801  11.018   7.867   4.362
  188POPC   C1A 2802  10.950   8.219   4.707
  188POPC   D2A 2803  10.813   8.160   5.110
  188POPC   C3A 2804  11.050   8.416   5.392
  188POPC   C4A 2805  11.080   8.310   5.789
  188POPC   C1B 2806  11.356   7.881   4.653
  188POPC   C2B 2807  11.265   7.911   5.054
  188POPC   C3B 2808  11.331   7.986   5.457
  188POPC   C4B 2809  11.344   7.878   5.885
  189POPC   NC3 2810   1.782   9.860   4.131
  189POPC   PO4 2811   1.165   9.940   3.843
  189POPC   GL1 2812   1.182   9.909   4.255
  189POPC   GL2 2813   1.294   9.592   4.244
  189POPC   C1A 2814   1.061   9.924   4.670
  189POPC   D2A 2815   1.180  10.067   5.060
  189POPC   C3A 2816   0.919   9.974   5.398
  189POPC   C4A 2817   1.066  10.085   5.774
  189POPC   C1B 2818   1.452   9.582   4.653
  189POPC   C2B 2819   1.465   9.494   5.085
  189POPC   C3B 2820   1.454   9.568   5.503
  189POPC   C4B 2821   1.124   9.580   5.788
  190POPC   NC3 2822   1.277   7.317   3.907
  190POPC   PO4 2823   1.570   6.806   3.730
  190POPC   GL1 2824   1.506   6.948   4.179
  190POPC   GL2 2825   1.173   6.874   4.302
  190POPC   C1A 2826   1.509   7.040   4.658
  190POPC   D2A 2827   1.657   7.189   5.078
  190POPC   C3A 2828   1.438   7.334   5.476
  190POPC   C4A 2829   1.662   7.383   5.880
  190POPC   C1B 2830   0.996   6.990   4.730
  190POPC   C2B 2831   0.837   7.065   5.167
  190POPC   C3B 2832   0.922   6.996   5.610
  190POPC   C4B 2833   1.130   7.223   5.939
  191POPC   NC3 2834   9.801   5.558   3.890
  191POPC   PO4 2835   9.247   5.295   3.995
  191POPC   GL1 2836   9.517   5.450   4.389
  191POPC   GL2 2837   9.754   5.737   4.409
  191POPC   C1A 2838   9.633   5.473   4.861
  191POPC   D2A 2839   9.600   5.687   5.283
  191POPC   C3A 2840   9.617   5.471   5.691
  191POPC   C4A 2841   9.397   5.428   6.104
  191POPC   C1B 2842   9.827   5.950   4.828
  191POPC   C2B 2843   9.879   6.118   5.242
  191POPC   C3B 2844   9.678   6.085   5.630
  191POPC   C4B 2845   9.609   6.389   5.958
  192POPC   NC3 2846   2.806   2.234   3.903
  192POPC   PO4 2847   3.425   2.223   4.077
  192POPC   GL1 2848   3.091   1.909   4.266
  192POPC   GL2 2849   2.785   2.078   4.377
  192POPC   C1A 2850   2.989   1.758   4.685
  192POPC   D2A 2851   2.930   2.101   4.936
  192POPC   C3A 2852   3.064   1.983   5.317
  192POPC   C4A 2853   3.031   2.184   5.662
  192POPC   C1B 2854   2.511   1.927   4.698
  192POPC   C2B 2855   2.549   1.825   5.104
  192POPC   C3B 2856   2.571   1.986   5.511
  192POPC   C4B 2857   2.824   1.700   5.733
  193POPC   NC3 2858   1.914   2.366   3.753
  193POPC   PO4 2859   1.840   1.653   4.056
  193POPC   GL1 2860   1.902   2.094   4.229
  193POPC   GL2 2861   2.257   2.090   4.299
  193POPC   C1A 2862   1.987   2.323   4.672
  193POPC   D2A 2863   2.272   2.284   5.031
  193POPC   C3A 2864   2.156   2.299   5.445
  193POPC   C4A 2865   1.817   2.272   5.748
  193POPC   C1B 2866   2.028   1.813   4.661
  193POPC   C2B 2867   2.040   1.827   5.104
  193POPC   C3B 2868   1.931   1.838   5.524
  193POPC   C4B 2869   2.203   1.889   5.880
  194POPC   NC3 2870   8.206   1.915   3.874
  194POPC   PO4 2871   7.695   2.363   3.859
  194POPC   GL1 2872   7.956   2.220   4.227
  194POPC   GL2 2873   8.060   1.880   4.349
  194POPC   C1A 2874   8.133   2.290   4.650
  194POPC   D2A 2875   7.911   2.287   5.032
  194POPC   C3A 2876   8.035   2.323   5.466
  194POPC   C4A 2877   8.254   2.376   5.860
  194POPC   C1B 2878   8.130   1.782   4.800
  194POPC   C2B 2879   8.109   1.515   5.162
  194POPC   C3B 2880   7.848   1.639   5.500
  194POPC   C4B 2881   7.962   1.937   5.805
  195POPC   NC3 2882   0.851   1.042   3.678
  195POPC   PO4 2883   0.883   1.637   4.038
  195POPC   GL1 2884   0.944   1.255   4.284
  195POPC   GL2 2885   1.306   1.231   4.336
  195POPC   C1A 2886   0.985   1.216   4.736
  195POPC   D2A 2887   1.059   1.498   5.087
  195POPC   C3A 2888   1.004   1.270   5.459
  195POPC   C4A 2889   1.197   1.207   5.855
  195POPC   C1B 2890   1.446   1.000   4.687
  195POPC   C2B 2891   1.305   1.025   5.097
  195POPC   C3B 2892   1.483   1.080   5.441
  195POPC   C4B 2893   1.656   0.896   5.735
  196POPC   NC3 2894  10.999  10.352   3.990
  196POPC   PO4 2895  10.924  10.922   3.799
  196POPC   GL1 2896  10.900  10.793   4.243
  196POPC   GL2 2897  11.266  10.694   4.255
  196POPC   C1A 2898  10.815  10.652   4.686
  196POPC   D2A 2899  10.806  10.809   5.099
  196POPC   C3A 2900  10.866  10.662   5.525
  196POPC   C4A 2901  10.845  10.661   6.036
  196POPC   C1B 2902  11.270  10.438   4.621
  196POPC   C2B 2903  11.048  10.310   4.993
  196POPC   C3B 2904  11.217  10.300   5.384
  196POPC   C4B 2905  11.258  10.464   5.768
  197POPC   NC3 2906   7.252   0.996   4.063
  197POPC   PO4 2907   7.800   1.487   3.913
  197POPC   GL1 2908   7.680   1.224   4.260
  197POPC   GL2 2909   7.408   1.383   4.408
  197POPC   C1A 2910   7.550   0.975   4.659
  197POPC   D2A 2911   7.191   1.060   4.942
  197POPC   C3A 2912   7.283   1.038   5.383
  197POPC   C4A 2913   7.434   0.983   5.791
  197POPC   C1B 2914   7.351   1.534   4.845
  197POPC   C2B 2915   7.216   1.549   5.289
  197POPC   C3B 2916   6.914   1.353   5.578
  197POPC   C4B 2917   7.008   1.212   5.998
  198POPC   NC3 2918   9.729   9.078   3.989
  198POPC   PO4 2919   9.236   8.654   4.041
  198POPC   GL1 2920   9.412   8.850   4.331
  198POPC   GL2 2921   9.709   8.654   4.329
  198POPC   C1A 2922   9.514   8.894   4.746
  198POPC   D2A 2923   9.332   9.014   5.102
  198POPC   C3A 2924   9.555   9.145   5.413
  198POPC   C4A 2925   9.558   9.076   5.814
  198POPC   C1B 2926   9.919   8.544   4.720
  198POPC   C2B 2927   9.721   8.622   5.138
  198POPC   C3B 2928   9.609   8.637   5.563
  198POPC   C4B 2929   9.782   8.677   6.013
  199POPC   NC3 2930   8.765  10.733   4.058
  199POPC   PO4 2931   9.061  10.122   3.968
  199POPC   GL1 2932   9.205  10.427   4.271
  199POPC   GL2 2933   8.881  10.357   4.408
  199POPC   C1A 2934   9.172  10.587   4.726
  199POPC   D2A 2935   8.932  10.249   4.998
  199POPC   C3A 2936   9.029  10.339   5.454
  199POPC   C4A 2937   9.068  10.592   5.872
  199POPC   C1B 2938   8.549  10.134   4.598
  199POPC   C2B 2939   8.474   9.990   5.025
  199POPC   C3B 2940   8.510  10.241   5.408
  199POPC   C4B 2941   8.709  10.255   5.826
  200POPC   NC3 2942   1.486   8.913   3.961
  200POPC   PO4 2943   0.905   8.616   3.976
  200POPC   GL1 2944   1.161   8.792   4.343
  200POPC   GL2 2945   1.113   9.122   4.344
  200POPC   C1A 2946   1.324   8.663   4.789
  200POPC   D2A 2947   1.202   8.408   5.189
  200POPC   C3A 2948   1.050   8.661   5.568
  200POPC   C4A 2949   1.274   8.630   5.990
  200POPC   C1B 2950   1.146   9.160   4.807
  200POPC   C2B 2951   1.349   9.004   5.234
  200POPC   C3B 2952   1.313   9.097   5.673
  200POPC   C4B 2953   0.891   9.118   5.809
  201POPC   NC3 2954   9.732   4.111   3.885
  201POPC   PO4 2955   9.806   3.466   3.941
  201POPC   GL1 2956   9.782   3.668   4.338
  201POPC   GL2 2957   9.439   3.789   4.403
  201POPC   C1A 2958   9.748   3.766   4.803
  201POPC   D2A 2959   9.520   3.864   5.184
  201POPC   C3A 2960   9.757   3.990   5.584
  201POPC   C4A 2961   9.974   3.840   5.991
  201POPC   C1B 2962   9.386   3.401   4.693
  201POPC   C2B 2963   9.521   3.300   5.113
  201POPC   C3B 2964   9.544   3.487   5.524
  201POPC   C4B 2965   9.178   3.571   5.726
  202POPC   NC3 2966   5.888   1.112   3.958
  202POPC   PO4 2967   5.404   1.574   3.889
  202POPC   GL1 2968   5.477   1.529   4.305
  202POPC   GL2 2969   5.547   1.195   4.316
  202POPC   C1A 2970   5.660   1.426   4.733
  202POPC   D2A 2971   5.467   1.424   5.114
  202POPC   C3A 2972   5.781   1.483   5.384
  202POPC   C4A 2973   5.941   1.672   5.728
  202POPC   C1B 2974   5.444   0.966   4.708
  202POPC   C2B 2975   5.499   0.832   5.121
  202POPC   C3B 2976   5.506   1.060   5.498
  202POPC   C4B 2977   5.959   1.113   5.687
  203POPC   NC3 2978   9.552   2.672   3.891
  203POPC   PO4 2979  10.172   2.543   3.824
  203POPC   GL1 2980   9.951   2.492   4.251
  203POPC   GL2 2981   9.647   2.693   4.385
  203POPC   C1A 2982  10.004   2.540   4.708
  203POPC   D2A 2983   9.886   2.302   5.059
  203POPC   C3A 2984   9.925   2.549   5.418
  203POPC   C4A 2985   9.880   2.569   5.851
  203POPC   C1B 2986   9.532   2.816   4.811
  203POPC   C2B 2987   9.395   2.561   5.163
  203POPC   C3B 2988   9.442   2.658   5.578
  203POPC   C4B 2989   9.710   3.014   5.671
  204POPC   NC3 2990  11.361   5.210   4.130
  204POPC   PO4 2991  10.769   4.851   4.201
  204POPC   GL1 2992  10.832   4.904   4.544
  204POPC   GL2 2993  10.960   5.248   4.481
  204POPC   C1A 2994  10.741   4.731   4.950
  204POPC   D2A 2995  10.975   4.806   5.323
  204POPC   C3A 2996  10.875   4.965   5.684
  204POPC   C4A 2997  10.712   5.344   5.700
  204POPC   C1B 2998  11.176   5.054   4.856
  204POPC   C2B 2999  11.471   4.906   5.134
  204POPC   C3B 3000  11.403   5.052   5.512
  204POPC   C4B 3001  11.446   4.837   5.831
  205POPC   NC3 3002  10.274   3.666   3.882
  205POPC   PO4 3003  10.905   3.998   3.941
  205POPC   GL1 3004  10.642   3.681   4.282
  205POPC   GL2 3005  10.301   3.503   4.348
  205POPC   C1A 3006  10.625   3.409   4.718
  205POPC   D2A 3007  10.544   3.593   5.133
  205POPC   C3A 3008  10.498   3.311   5.475
  205POPC   C4A 3009  10.721   3.296   5.828
  205POPC   C1B 3010  10.272   3.798   4.706
  205POPC   C2B 3011  10.120   3.891   5.133
  205POPC   C3B 3012  10.225   3.745   5.558
  205POPC   C4B 3013  10.148   3.371   5.865
  206POPC   NC3 3014   3.666   1.041   3.804
  206POPC   PO4 3015   3.606   1.613   3.695
  206POPC   GL1 3016   3.405   1.381   4.308
  206POPC   GL2 3017   3.439   1.033   4.266
  206POPC   C1A 3018   3.682   1.166   4.706
  206POPC   D2A 3019   3.831   0.927   5.117
  206POPC   C3A 3020   3.735   1.101   5.563
  206POPC   C4A 3021   3.670   1.408   5.911
  206POPC   C1B 3022   3.329   0.816   4.634
  206POPC   C2B 3023   3.319   0.988   5.050
  206POPC   C3B 3024   3.240   1.167   5.447
  206POPC   C4B 3025   3.292   1.055   5.871
  207POPC   NC3 3026   5.669   9.796   3.900
  207POPC   PO4 3027   5.450   9.255   4.170
  207POPC   GL1 3028   5.685   9.502   4.455
  207POPC   GL2 3029   5.640   9.828   4.414
  207POPC   C1A 3030   5.822   9.595   4.896
  207POPC   D2A 3031   5.747   9.479   5.351
  207POPC   C3A 3032   6.104   9.525   5.690
  207POPC   C4A 3033   6.310   9.484   6.130
  207POPC   C1B 3034   5.355   9.758   4.783
  207POPC   C2B 3035   5.237   9.578   5.226
  207POPC   C3B 3036   5.384   9.652   5.683
  207POPC   C4B 3037   5.482   9.913   6.088
  208POPC   NC3 3038   0.514  11.424   4.056
  208POPC   PO4 3039   0.800  10.777   3.918
  208POPC   GL1 3040   0.557  10.964   4.252
  208POPC   GL2 3041   0.192  11.043   4.230
  208POPC   C1A 3042   0.640  11.106   4.667
  208POPC   D2A 3043   0.748  11.257   5.082
  208POPC   C3A 3044   0.881  10.937   5.358
  208POPC   C4A 3045   0.618  10.840   5.686
  208POPC   C1B 3046   0.205  10.823   4.679
  208POPC   C2B 3047   0.355  10.879   5.162
  208POPC   C3B 3048   0.273  11.186   5.532
  208POPC   C4B 3049   0.105   0.112   5.618
  209POPC   NC3 3050   3.328  10.288   3.665
  209POPC   PO4 3051   3.721   9.882   4.035
  209POPC   GL1 3052   3.686   9.816   4.429
  209POPC   GL2 3053   3.807   9.482   4.384
  209POPC   C1A 3054   3.316   9.849   4.725
  209POPC   D2A 3055   3.274   9.690   5.119
  209POPC   C3A 3056   3.482   9.785   5.492
  209POPC   C4A 3057   3.291   9.964   5.803
  209POPC   C1B 3058   3.586   9.427   4.799
  209POPC   C2B 3059   3.649   9.347   5.258
  209POPC   C3B 3060   3.551   9.330   5.712
  209POPC   C4B 3061   3.687   9.255   6.167
  210POPC   NC3 3062   0.203   8.000   3.405
  210POPC   PO4 3063   0.312   7.816   4.073
  210POPC   GL1 3064   0.260   8.041   4.388
  210POPC   GL2 3065   0.562   8.188   4.375
  210POPC   C1A 3066   0.383   7.914   4.795
  210POPC   D2A 3067   0.256   7.759   5.163
  210POPC   C3A 3068   0.343   7.981   5.544
  210POPC   C4A 3069   0.128   8.291   5.745
  210POPC   C1B 3070   0.432   8.407   4.716
  210POPC   C2B 3071   0.598   8.394   5.062
  210POPC   C3B 3072   0.490   8.484   5.422
  210POPC   C4B 3073   0.621   8.387   5.819
  211POPC   NC3 3074   7.782  10.381   3.894
  211POPC   PO4 3075   8.366  10.764   3.820
  211POPC   GL1 3076   8.171  10.575   4.223
  211POPC   GL2 3077   8.075  10.220   4.275
  211POPC   C1A 3078   8.107  10.661   4.697
  211POPC   D2A 3079   7.881  10.765   5.108
  211POPC   C3A 3080   8.131  10.631   5.485
  211POPC   C4A 3081   8.228  10.396   5.846
  211POPC   C1B 3082   8.055  10.113   4.693
  211POPC   C2B 3083   8.092  10.298   5.090
  211POPC   C3B 3084   7.970  10.122   5.481
  211POPC   C4B 3085   7.896  10.007   5.922
  212POPC   NC3 3086   1.660   5.407   4.021
  212POPC   PO4 3087   1.859   6.026   3.789
  212POPC   GL1 3088   1.796   5.970   4.225
  212POPC   GL2 3089   1.977   5.726   4.340
  212POPC   C1A 3090   1.614   5.994   4.619
  212POPC   D2A 3091   1.631   5.976   5.041
  212POPC   C3A 3092   1.907   6.047   5.367
  212POPC   C4A 3093   1.777   5.964   5.804
  212POPC   C1B 3094   1.935   5.632   4.763
  212POPC   C2B 3095   1.932   5.536   5.187
  212POPC   C3B 3096   2.021   5.544   5.628
  212POPC   C4B 3097   1.956   5.302   6.000
  213POPC   NC3 3098   5.598  11.342   3.509
  213POPC   PO4 3099   6.173   0.158   3.814
  213POPC   GL1 3100   6.075   0.005   4.246
  213POPC   GL2 3101   5.767  11.292   4.272
  213POPC   C1A 3102   5.990   0.019   4.707
  213POPC   D2A 3103   6.085  11.218   5.047
  213POPC   C3A 3104   6.094  11.422   5.419
  213POPC   C4A 3105   6.150  11.208   5.785
  213POPC   C1B 3106   5.783  11.060   4.638
  213POPC   C2B 3107   5.623  10.946   5.043
  213POPC   C3B 3108   5.734  11.082   5.435
  213POPC   C4B 3109   5.651  11.203   5.825
  214POPC   NC3 3110   0.261   4.904   3.834
  214POPC   PO4 3111   0.867   4.556   3.908
  214POPC   GL1 3112   0.707   4.790   4.283
  214POPC   GL2 3113   0.375   4.928   4.333
  214POPC   C1A 3114   0.727   4.979   4.713
  214POPC   D2A 3115   0.767   4.839   5.136
  214POPC   C3A 3116   0.409   4.692   5.388
  214POPC   C4A 3117   0.474   4.818   5.814
  214POPC   C1B 3118   0.203   5.072   4.702
  214POPC   C2B 3119   0.397   5.254   5.058
  214POPC   C3B 3120   0.404   5.204   5.490
  214POPC   C4B 3121   0.187   5.274   5.897
  215POPC   NC3 3122   5.655   0.146   3.937
  215POPC   PO4 3123   5.470   0.858   3.937
  215POPC   GL1 3124   5.669   0.677   4.319
  215POPC   GL2 3125   5.699   0.316   4.400
  215POPC   C1A 3126   5.839   0.621   4.769
  215POPC   D2A 3127   5.844   0.404   5.166
  215POPC   C3A 3128   5.796   0.621   5.585
  215POPC   C4A 3129   5.592   0.831   5.932
  215POPC   C1B 3130   5.475   0.010   4.660
  215POPC   C2B 3131   5.624  11.446   5.090
  215POPC   C3B 3132   5.629   0.107   5.509
  215POPC   C4B 3133   5.924   0.191   5.830
  216POPC   NC3 3134   2.902   7.637   4.060
  216POPC   PO4 3135   2.322   7.975   4.015
  216POPC   GL1 3136   2.632   8.011   4.326
  216POPC   GL2 3137   2.407   7.961   4.562
  216POPC   C1A 3138   2.909   7.962   4.709
  216POPC   D2A 3139   2.849   8.119   5.155
  216POPC   C3A 3140   2.963   8.021   5.610
  216POPC   C4A 3141   2.688   7.854   5.961
  216POPC   C1B 3142   2.566   8.355   4.741
  216POPC   C2B 3143   2.422   8.385   5.181
  216POPC   C3B 3144   2.496   8.216   5.580
  216POPC   C4B 3145   2.670   8.359   5.959
  217POPC   NC3 3146   1.870   6.502   3.917
  217POPC   PO4 3147   2.468   6.399   3.883
  217POPC   GL1 3148   2.245   6.191   4.246
  217POPC   GL2 3149   2.072   6.486   4.376
  217POPC   C1A 3150   2.069   6.151   4.728
  217POPC   D2A 3151   2.235   6.420   5.068
  217POPC   C3A 3152   2.143   6.570   5.479
  217POPC   C4A 3153   1.773   6.449   5.686
  217POPC   C1B 3154   1.833   6.613   4.764
  217POPC   C2B 3155   1.725   6.609   5.196
  217POPC   C3B 3156   1.765   6.931   5.523
  217POPC   C4B 3157   2.020   6.863   5.893
  218POPC   NC3 3158   0.495   3.337   3.976
  218POPC   PO4 3159   0.105   3.903   3.941
  218POPC   GL1 3160   0.391   3.747   4.306
  218POPC   GL2 3161   0.391   3.430   4.459
  218POPC   C1A 3162   0.624   3.826   4.691
  218POPC   D2A 3163   0.371   3.795   5.072
  218POPC   C3A 3164   0.501   3.690   5.478
  218POPC   C4A 3165   0.278   3.769   5.808
  218POPC   C1B 3166   0.369   3.195   4.793
  218POPC   C2B 3167   0.493   3.301   5.164
  218POPC   C3B 3168   0.288   3.187   5.485
  218POPC   C4B 3169   0.444   3.286   5.819
  219POPC   NC3 3170  10.256   7.093   4.041
  219POPC   PO4 3171  10.924   7.363   3.988
  219POPC   GL1 3172  10.804   7.153   4.317
  219POPC   GL2 3173  10.506   7.305   4.422
  219POPC   C1A 3174  10.823   7.036   4.730
  219POPC   D2A 3175  10.671   6.916   5.135
  219POPC   C3A 3176  10.665   7.131   5.521
  219POPC   C4A 3177  10.282   7.104   5.733
  219POPC   C1B 3178  10.622   7.678   4.665
  219POPC   C2B 3179  10.451   7.760   5.062
  219POPC   C3B 3180  10.303   7.464   5.335
  219POPC   C4B 3181  10.481   7.578   5.705
  220POPC   NC3 3182  10.605   4.502   3.961
  220POPC   PO4 3183  10.128   4.044   4.097
  220POPC   GL1 3184  10.247   4.366   4.354
  220POPC   GL2 3185  10.537   4.487   4.469
  220POPC   C1A 3186  10.197   4.299   4.782
  220POPC   D2A 3187  10.432   4.320   5.096
  220POPC   C3A 3188  10.189   4.271   5.452
  220POPC   C4A 3189  10.080   4.399   5.838
  220POPC   C1B 3190  10.688   4.117   4.652
  220POPC   C2B 3191  10.851   4.028   5.063
  220POPC   C3B 3192  10.797   4.289   5.432
  220POPC   C4B 3193  10.558   4.180   5.785
  221POPC   NC3 3194   5.031   8.222   3.892
  221POPC   PO4 3195   4.774   7.688   4.132
  221POPC   GL1 3196   4.909   7.911   4.486
  221POPC   GL2 3197   4.859   8.228   4.370
  221POPC   C1A 3198   4.833   8.076   4.906
  221POPC   D2A 3199   4.603   8.241   5.259
  221POPC   C3A 3200   4.592   7.972   5.616
  221POPC   C4A 3201   4.769   7.686   5.912
  221POPC   C1B 3202   5.179   8.379   4.666
  221POPC   C2B 3203   5.293   8.212   5.095
  221POPC   C3B 3204   5.072   8.160   5.509
  221POPC   C4B 3205   4.884   8.268   5.926
  222POPC   NC3 3206   1.231   4.268   3.935
  222POPC   PO4 3207   1.228   3.722   4.086
  222POPC   GL1 3208   1.062   4.014   4.404
  222POPC   GL2 3209   1.066   4.409   4.383
  222POPC   C1A 3210   1.077   4.019   4.865
  222POPC   D2A 3211   1.329   3.951   5.237
  222POPC   C3A 3212   1.294   4.198   5.660
  222POPC   C4A 3213   1.524   4.031   6.055
  222POPC   C1B 3214   1.042   4.543   4.794
  222POPC   C2B 3215   1.142   4.427   5.192
  222POPC   C3B 3216   0.885   4.523   5.520
  222POPC   C4B 3217   0.950   4.605   5.888
  223POPC   NC3 3218   2.524   8.392   3.990
  223POPC   PO4 3219   2.694   9.090   3.933
  223POPC   GL1 3220   2.735   8.774   4.270
  223POPC   GL2 3221   2.400   8.757   4.379
  223POPC   C1A 3222   2.876   8.765   4.719
  223POPC   D2A 3223   2.860   8.635   5.140
  223POPC   C3A 3224   2.789   8.669   5.568
  223POPC   C4A 3225   3.094   8.623   5.942
  223POPC   C1B 3226   2.567   9.127   4.596
  223POPC   C2B 3227   2.598   9.170   5.051
  223POPC   C3B 3228   2.667   9.181   5.505
  223POPC   C4B 3229   3.074   9.087   5.731
  224POPC   NC3 3230  10.005   0.338   4.033
  224POPC   PO4 3231  10.660   0.129   4.188
  224POPC   GL1 3232  10.299   0.249   4.448
  224POPC   GL2 3233  10.172   0.608   4.450
  224POPC   C1A 3234  10.188   0.294   4.872
  224POPC   D2A 3235  10.349   0.488   5.235
  224POPC   C3A 3236  10.438   0.224   5.595
  224POPC   C4A 3237  10.053   0.128   5.779
  224POPC   C1B 3238  10.539   0.653   4.745
  224POPC   C2B 3239  10.819   0.677   5.114
  224POPC   C3B 3240  10.643   0.767   5.539
  224POPC   C4B 3241  10.610   0.697   5.999
  225POPC   NC3 3242   2.206   3.025   4.026
  225POPC   PO4 3243   1.759   2.794   3.672
  225POPC   GL1 3244   1.777   2.658   4.156
  225POPC   GL2 3245   2.086   2.586   4.260
  225POPC   C1A 3246   1.707   2.780   4.635
  225POPC   D2A 3247   1.635   2.942   5.071
  225POPC   C3A 3248   1.790   2.704   5.428
  225POPC   C4A 3249   1.730   2.874   5.827
  225POPC   C1B 3250   2.218   2.813   4.642
  225POPC   C2B 3251   2.140   2.882   5.079
  225POPC   C3B 3252   2.345   2.807   5.457
  225POPC   C4B 3253   2.179   2.638   5.826
  226POPC   NC3 3254   6.894   7.891   3.949
  226POPC   PO4 3255   6.995   8.434   3.845
  226POPC   GL1 3256   7.058   8.348   4.304
  226POPC   GL2 3257   7.380   8.228   4.400
  226POPC   C1A 3258   7.054   8.348   4.792
  226POPC   D2A 3259   7.280   8.343   5.203
  226POPC   C3A 3260   7.093   8.331   5.605
  226POPC   C4A 3261   7.045   8.028   5.949
  226POPC   C1B 3262   7.572   8.412   4.790
  226POPC   C2B 3263   7.779   8.306   5.200
  226POPC   C3B 3264   7.592   8.201   5.612
  226POPC   C4B 3265   7.469   8.296   6.064
  227POPC   NC3 3266   1.347   0.292   4.083
  227POPC   PO4 3267   1.172   0.915   3.961
  227POPC   GL1 3268   1.118   0.701   4.384
  227POPC   GL2 3269   0.977   0.347   4.463
  227POPC   C1A 3270   1.018   0.704   4.824
  227POPC   D2A 3271   0.803   0.885   5.159
  227POPC   C3A 3272   1.053   0.756   5.512
  227POPC   C4A 3273   1.223   0.702   5.915
  227POPC   C1B 3274   1.349   0.316   4.763
  227POPC   C2B 3275   1.238   0.381   5.187
  227POPC   C3B 3276   1.391   0.345   5.571
  227POPC   C4B 3277   1.485  11.484   5.772
  228POPC   NC3 3278  10.856   7.811   3.902
  228POPC   PO4 3279  11.460   7.682   3.676
  228POPC   GL1 3280  11.367   7.538   4.200
  228POPC   GL2 3281  11.326   7.206   4.283
  228POPC   C1A 3282  11.093   7.461   4.652
  228POPC   D2A 3283  10.850   7.413   5.082
  228POPC   C3A 3284  11.000   7.569   5.503
  228POPC   C4A 3285  10.919   7.600   5.969
  228POPC   C1B 3286  11.341   7.018   4.685
  228POPC   C2B 3287  11.183   6.887   5.069
  228POPC   C3B 3288  11.175   7.071   5.472
  228POPC   C4B 3289  11.260   7.256   5.864
  229POPC   NC3 3290   4.406   2.596   3.924
  229POPC   PO4 3291   4.000   2.955   4.054
  229POPC   GL1 3292   4.036   2.682   4.424
  229POPC   GL2 3293   4.275   2.400   4.368
  229POPC   C1A 3294   3.883   2.751   4.851
  229POPC   D2A 3295   3.684   2.658   5.259
  229POPC   C3A 3296   3.922   2.757   5.628
  229POPC   C4A 3297   4.121   2.674   6.031
  229POPC   C1B 3298   4.339   2.511   4.785
  229POPC   C2B 3299   4.178   2.484   5.186
  229POPC   C3B 3300   4.314   2.425   5.591
  229POPC   C4B 3301   4.568   2.750   5.768
  230POPC   NC3 3302   4.853  10.101   3.933
  230POPC   PO4 3303   5.504  10.225   3.933
  230POPC   GL1 3304   5.360  10.249   4.303
  230POPC   GL2 3305   5.250  10.576   4.281
  230POPC   C1A 3306   5.230  10.257   4.716
  230POPC   D2A 3307   5.009  10.419   5.065
  230POPC   C3A 3308   5.092  10.118   5.375
  230POPC   C4A 3309   5.399  10.158   5.652
  230POPC   C1B 3310   4.911  10.666   4.586
  230POPC   C2B 3311   4.812  10.896   4.976
  230POPC   C3B 3312   4.766  10.748   5.382
  230POPC   C4B 3313   5.106  10.583   5.634
  231POPC   NC3 3314  10.540   2.714   4.037
  231POPC   PO4 3315  10.795   3.317   3.935
  231POPC   GL1 3316  10.810   3.064   4.326
  231POPC   GL2 3317  10.486   2.989   4.467
  231POPC   C1A 3318  10.958   2.946   4.738
  231POPC   D2A 3319  10.831   3.102   5.143
  231POPC   C3A 3320  10.821   2.865   5.523
  231POPC   C4A 3321  10.742   2.673   5.908
  231POPC   C1B 3322  10.546   2.597   4.712
  231POPC   C2B 3323  10.424   2.383   5.109
  231POPC   C3B 3324  10.415   2.511   5.548
  231POPC   C4B 3325  10.257   2.891   5.708
  232POPC   NC3 3326   7.212  10.805   4.032
  232POPC   PO4 3327   6.905  11.425   3.810
  232POPC   GL1 3328   6.996  11.247   4.261
  232POPC   GL2 3329   7.329  11.094   4.427
  232POPC   C1A 3330   6.936  11.228   4.737
  232POPC   D2A 3331   7.007  11.422   5.158
  232POPC   C3A 3332   7.038  11.161   5.548
  232POPC   C4A 3333   6.886  11.337   5.956
  232POPC   C1B 3334   7.376  10.908   4.853
  232POPC   C2B 3335   7.475  11.203   5.182
  232POPC   C3B 3336   7.518  11.363   5.579
  232POPC   C4B 3337   7.537  10.935   5.785
  233POPC   NC3 3338   1.562   3.741   3.783
  233POPC   PO4 3339   1.699   3.160   4.078
  233POPC   GL1 3340   1.660   3.544   4.295
  233POPC   GL2 3341   2.003   3.559   4.320
  233POPC   C1A 3342   1.544   3.783   4.678
  233POPC   D2A 3343   1.786   3.929   4.999
  233POPC   C3A 3344   1.783   3.788   5.397
  233POPC   C4A 3345   1.862   3.659   5.777
  233POPC   C1B 3346   1.981   3.302   4.706
  233POPC   C2B 3347   1.999   3.383   5.132
  233POPC   C3B 3348   1.993   3.193   5.525
  233POPC   C4B 3349   2.080   3.223   5.975
  234POPC   NC3 3350   8.998   1.877   3.868
  234POPC   PO4 3351   8.449   2.323   4.007
  234POPC   GL1 3352   8.834   2.182   4.243
  234POPC   GL2 3353   8.764   1.832   4.303
  234POPC   C1A 3354   9.046   2.092   4.669
  234POPC   D2A 3355   8.969   2.263   5.082
  234POPC   C3A 3356   9.045   1.991   5.417
  234POPC   C4A 3357   9.015   2.065   5.826
  234POPC   C1B 3358   8.554   1.993   4.642
  234POPC   C2B 3359   8.570   1.846   5.059
  234POPC   C3B 3360   8.330   1.910   5.422
  234POPC   C4B 3361   8.497   1.922   5.825
  235POPC   NC3 3362   9.547   0.070   3.554
  235POPC   PO4 3363   9.245   0.604   3.887
  235POPC   GL1 3364   9.334   0.470   4.304
  235POPC   GL2 3365   9.649   0.587   4.295
  235POPC   C1A 3366   9.253   0.322   4.716
  235POPC   D2A 3367   9.222   0.590   5.067
  235POPC   C3A 3368   9.284   0.315   5.365
  235POPC   C4A 3369   9.504   0.195   5.711
  235POPC   C1B 3370   9.739   0.489   4.709
  235POPC   C2B 3371   9.734   0.364   5.132
  235POPC   C3B 3372   9.826   0.546   5.505
  235POPC   C4B 3373  10.186   0.646   5.738
  236POPC   NC3 3374   8.862   0.919   3.970
  236POPC   PO4 3375   8.543   1.598   3.831
  236POPC   GL1 3376   8.627   1.346   4.206
  236POPC   GL2 3377   8.982   1.353   4.262
  236POPC   C1A 3378   8.582   1.465   4.663
  236POPC   D2A 3379   8.614   1.317   5.103
  236POPC   C3A 3380   8.713   1.579   5.484
  236POPC   C4A 3381   9.076   1.568   5.750
  236POPC   C1B 3382   8.957   1.099   4.645
  236POPC   C2B 3383   9.130   1.103   5.054
  236POPC   C3B 3384   8.969   1.145   5.450
  236POPC   C4B 3385   9.061   1.051   5.847
  237POPC   NC3 3386   0.250   7.363   3.915
  237POPC   PO4 3387   0.890   7.024   3.914
  237POPC   GL1 3388   0.665   7.106   4.350
  237POPC   GL2 3389   0.325   7.238   4.386
  237POPC   C1A 3390   0.605   7.326   4.795
  237POPC   D2A 3391   0.345   7.244   5.190
  237POPC   C3A 3392   0.476   7.258   5.656
  237POPC   C4A 3393   0.209   7.149   6.049
  237POPC   C1B 3394   0.110   7.447   4.721
  237POPC   C2B 3395  11.367   7.407   5.111
  237POPC   C3B 3396   0.029   7.511   5.538
  237POPC   C4B 3397   0.269   7.634   5.923
  238POPC   NC3 3398   5.538   2.001   3.985
  238POPC   PO4 3399   5.942   2.387   4.112
  238POPC   GL1 3400   5.860   2.021   4.376
  238POPC   GL2 3401   5.965   1.689   4.264
  238POPC   C1A 3402   5.531   1.904   4.688
  238POPC   D2A 3403   5.319   1.921   5.107
  238POPC   C3A 3404   5.570   1.942   5.491
  238POPC   C4A 3405   5.801   2.151   5.851
  238POPC   C1B 3406   6.069   1.733   4.745
  238POPC   C2B 3407   6.024   1.898   5.186
  238POPC   C3B 3408   6.224   2.081   5.553
  238POPC   C4B 3409   6.276   1.977   5.997
  239POPC   NC3 3410   0.683   6.652   4.104
  239POPC   PO4 3411   0.096   6.909   3.981
  239POPC   GL1 3412   0.231   6.737   4.337
  239POPC   GL2 3413   0.163   6.388   4.263
  239POPC   C1A 3414   0.324   6.880   4.756
  239POPC   D2A 3415   0.446   6.743   5.134
  239POPC   C3A 3416   0.316   6.794   5.551
  239POPC   C4A 3417   0.648   6.587   5.766
  239POPC   C1B 3418   0.378   6.373   4.671
  239POPC   C2B 3419   0.467   6.226   5.092
  239POPC   C3B 3420   0.314   6.288   5.498
  239POPC   C4B 3421   0.372   6.114   5.914
  240POPC   NC3 3422  10.446   9.607   3.882
  240POPC   PO4 3423  10.858   9.112   3.812
  240POPC   GL1 3424  10.498   9.253   4.217
  240POPC   GL2 3425  10.684   9.551   4.335
  240POPC   C1A 3426  10.437   9.294   4.720
  240POPC   D2A 3427  10.531   9.176   5.181
  240POPC   C3A 3428  10.357   9.445   5.455
  240POPC   C4A 3429  10.586   9.762   5.617
  240POPC   C1B 3430  10.336   9.773   4.547
  240POPC   C2B 3431  10.258   9.765   4.995
  240POPC   C3B 3432  10.148   9.911   5.441
  240POPC   C4B 3433  10.295  10.021   5.926
  241POPC   NC3 3434   4.845  11.148   3.856
  241POPC   PO4 3435   5.523  11.058   3.858
  241POPC   GL1 3436   5.283  11.086   4.233
  241POPC   GL2 3437   5.011  11.287   4.324
  241POPC   C1A 3438   5.261  11.026   4.681
  241POPC   D2A 3439   5.148  11.279   5.025
  241POPC   C3A 3440   5.213  11.071   5.413
  241POPC   C4A 3441   5.207  11.403   5.700
  241POPC   C1B 3442   4.739  11.322   4.697
  241POPC   C2B 3443   4.634  11.472   5.114
  241POPC   C3B 3444   4.548  11.321   5.521
  241POPC   C4B 3445   4.794  11.103   5.741
  242POPC   NC3 3446  11.259   6.004   3.574
  242POPC   PO4 3447  10.983   5.625   4.059
  242POPC   GL1 3448  11.119   5.734   4.436
  242POPC   GL2 3449  11.430   5.669   4.320
  242POPC   C1A 3450  11.210   5.566   4.855
  242POPC   D2A 3451  11.050   5.370   5.272
  242POPC   C3A 3452  11.037   5.708   5.589
  242POPC   C4A 3453  10.895   6.131   5.548
  242POPC   C1B 3454   0.010   6.005   4.612
  242POPC   C2B 3455  11.252   6.084   4.957
  242POPC   C3B 3456  11.375   6.048   5.374
  242POPC   C4B 3457  11.377   6.222   5.783
  243POPC   NC3 3458   8.065  11.131   3.872
  243POPC   PO4 3459   7.653  10.757   4.180
  243POPC   GL1 3460   7.949  11.034   4.373
  243POPC   GL2 3461   8.351  11.052   4.297
  243POPC   C1A 3462   7.815  11.152   4.767
  243POPC   D2A 3463   7.978  11.274   5.144
  243POPC   C3A 3464   7.954  11.095   5.544
  243POPC   C4A 3465   7.876  11.297   5.948
  243POPC   C1B 3466   8.326  11.165   4.737
  243POPC   C2B 3467   8.397  10.974   5.129
  243POPC   C3B 3468   8.463  11.207   5.472
  243POPC   C4B 3469   8.354  11.150   5.895
  244POPC   NC3 3470   2.240   9.046   3.946
  244POPC   PO4 3471   1.628   9.340   3.940
  244POPC   GL1 3472   1.633   9.191   4.374
  244POPC   GL2 3473   1.861   8.941   4.295
  244POPC   C1A 3474   1.652   9.088   4.834
  244POPC   D2A 3475   1.815   8.761   5.154
  244POPC   C3A 3476   1.696   8.749   5.628
  244POPC   C4A 3477   1.669   8.982   6.036
  244POPC   C1B 3478   1.956   8.736   4.640
  244POPC   C2B 3479   2.288   8.785   4.907
  244POPC   C3B 3480   2.299   8.842   5.367
  244POPC   C4B 3481   2.190   9.059   5.746
  245POPC   NC3 3482   4.346   0.515   3.825
  245POPC   PO4 3483   4.165  11.370   3.942
  245POPC   GL1 3484   4.309   0.193   4.263
  245POPC   GL2 3485   4.230   0.536   4.348
  245POPC   C1A 3486   4.363   0.228   4.726
  245POPC   D2A 3487   4.137   0.291   5.103
  245POPC   C3A 3488   4.371   0.294   5.450
  245POPC   C4A 3489   4.333   0.267   5.877
  245POPC   C1B 3490   4.237   0.736   4.790
  245POPC   C2B 3491   4.482   0.737   5.191
  245POPC   C3B 3492   4.528   0.726   5.657
  245POPC   C4B 3493   4.061   0.671   5.739
  246POPC   NC3 3494   8.771   9.736   3.988
  246POPC   PO4 3495   9.355   9.371   3.955
  246POPC   GL1 3496   9.102   9.475   4.325
  246POPC   GL2 3497   9.231   9.823   4.382
  246POPC   C1A 3498   9.016   9.245   4.750
  246POPC   D2A 3499   8.855   9.124   5.198
  246POPC   C3A 3500   9.064   9.330   5.560
  246POPC   C4A 3501   9.111   9.168   6.010
  246POPC   C1B 3502   8.878   9.755   4.701
  246POPC   C2B 3503   8.795   9.622   5.138
  246POPC   C3B 3504   8.848   9.839   5.534
  246POPC   C4B 3505   9.173  10.003   5.814
  247POPC   NC3 3506   2.283   0.525   3.905
  247POPC   PO4 3507   1.776   0.123   4.047
  247POPC   GL1 3508   2.038   0.212   4.348
  247POPC   GL2 3509   2.141   0.568   4.384
  247POPC   C1A 3510   1.932   0.193   4.755
  247POPC   D2A 3511   1.767   0.151   5.138
  247POPC   C3A 3512   2.134   0.092   5.419
  247POPC   C4A 3513   2.017   0.074   5.823
  247POPC   C1B 3514   1.859   0.702   4.686
  247POPC   C2B 3515   1.649   0.648   5.064
  247POPC   C3B 3516   1.845   0.537   5.443
  247POPC   C4B 3517   2.119   0.568   5.744
  248POPC   NC3 3518  10.440   6.170   3.751
  248POPC   PO4 3519  10.604   6.780   3.983
  248POPC   GL1 3520  10.534   6.720   4.363
  248POPC   GL2 3521  10.414   6.389   4.255
  248POPC   C1A 3522  10.361   6.822   4.741
  248POPC   D2A 3523  10.213   6.555   5.060
  248POPC   C3A 3524  10.305   6.699   5.434
  248POPC   C4A 3525  10.032   6.609   5.756
  248POPC   C1B 3526  10.448   6.296   4.684
  248POPC   C2B 3527  10.345   6.029   5.013
  248POPC   C3B 3528  10.342   6.167   5.438
  248POPC   C4B 3529  10.496   6.369   5.772
  249POPC   NC3 3530   0.455   1.956   3.776
  249POPC   PO4 3531   0.124   2.274   4.179
  249POPC   GL1 3532   0.229   1.920   4.341
  249POPC   GL2 3533   0.559   1.969   4.285
  249POPC   C1A 3534   0.198   1.821   4.758
  249POPC   D2A 3535   0.382   1.946   5.117
  249POPC   C3A 3536   0.187   1.844   5.450
  249POPC   C4A 3537   0.029   2.209   5.639
  249POPC   C1B 3538   0.644   2.082   4.696
  249POPC   C2B 3539   0.666   2.351   5.055
  249POPC   C3B 3540   0.513   2.316   5.489
  249POPC   C4B 3541   0.502   1.977   5.807
  250POPC   NC3 3542   0.494   8.836   3.871
  250POPC   PO4 3543  11.441   8.416   3.798
  250POPC   GL1 3544   0.223   8.549   4.210
  250POPC   GL2 3545   0.562   8.699   4.338
  250POPC   C1A 3546   0.159   8.835   4.613
  250POPC   D2A 3547   0.306   8.830   5.058
  250POPC   C3A 3548   0.200   9.155   5.396
  250POPC   C4A 3549   0.067   9.140   5.839
  250POPC   C1B 3550   0.810   8.744   4.688
  250POPC   C2B 3551   0.891   8.809   5.085
  250POPC   C3B 3552   0.682   8.994   5.374
  250POPC   C4B 3553   0.461   8.865   5.741
  251POPC   NC3 3554  11.252  11.245   3.717
  251POPC   PO4 3555  10.826   0.139   3.679
  251POPC   GL1 3556  11.147   0.040   4.123
  251POPC   GL2 3557  11.200  11.210   4.217
  251POPC   C1A 3558  11.167   0.010   4.626
  251POPC   D2A 3559  11.041  11.261   5.031
  251POPC   C3A 3560  11.186  11.356   5.467
  251POPC   C4A 3561  11.138   0.020   5.908
  251POPC   C1B 3562  11.193  10.996   4.632
  251POPC   C2B 3563  11.307  10.783   5.013
  251POPC   C3B 3564  11.368  10.844   5.437
  251POPC   C4B 3565  11.173  10.984   5.817
  252POPC   NC3 3566   4.159   1.017   4.189
  252POPC   PO4 3567   4.639   1.405   3.838
  252POPC   GL1 3568   4.635   1.240   4.234
  252POPC   GL2 3569   4.383   1.431   4.375
  252POPC   C1A 3570   4.690   1.202   4.698
  252POPC   D2A 3571   4.572   1.218   5.115
  252POPC   C3A 3572   4.608   1.446   5.476
  252POPC   C4A 3573   4.742   1.217   5.813
  252POPC   C1B 3574   4.182   1.312   4.776
  252POPC   C2B 3575   4.098   1.354   5.210
  252POPC   C3B 3576   4.235   1.122   5.536
  252POPC   C4B 3577   4.164   1.463   5.773
  253POPC   NC3 3578   5.697  10.636   3.963
  253POPC   PO4 3579   6.049  10.029   3.964
  253POPC   GL1 3580   5.881  10.270   4.337
  253POPC   GL2 3581   6.015  10.624   4.379
  253POPC   C1A 3582   5.764  10.123   4.791
  253POPC   D2A 3583   5.580   9.960   5.193
  253POPC   C3A 3584   5.848   9.951   5.535
  253POPC   C4A 3585   5.877  10.272   5.789
  253POPC   C1B 3586   5.619  10.586   4.652
  253POPC   C2B 3587   5.521  10.457   5.097
  253POPC   C3B 3588   5.605  10.602   5.498
  253POPC   C4B 3589   5.936  10.759   5.779
  254POPC   NC3 3590   1.856  10.543   3.584
  254POPC   PO4 3591   2.428  10.893   3.842
  254POPC   GL1 3592   2.303  10.764   4.337
  254POPC   GL2 3593   1.949  10.607   4.485
  254POPC   C1A 3594   2.268  10.829   4.833
  254POPC   D2A 3595   1.978  10.726   5.191
  254POPC   C3A 3596   2.026  10.818   5.602
  254POPC   C4A 3597   2.279  10.671   5.885
  254POPC   C1B 3598   2.063  10.329   4.888
  254POPC   C2B 3599   2.219  10.144   5.258
  254POPC   C3B 3600   1.998  10.330   5.556
  254POPC   C4B 3601   1.617  10.529   5.658
  255POPC   NC3 3602   9.732  10.946   3.673
  255POPC   PO4 3603   9.571   0.130   4.004
  255POPC   GL1 3604   9.736   0.076   4.396
  255POPC   GL2 3605   9.717  11.224   4.391
  255POPC   C1A 3606   9.625  11.473   4.822
  255POPC   D2A 3607   9.461  11.353   5.245
  255POPC   C3A 3608   9.693  11.254   5.639
  255POPC   C4A 3609   9.740  11.453   6.122
  255POPC   C1B 3610   9.656  10.946   4.758
  255POPC   C2B 3611   9.410  10.843   5.123
  255POPC   C3B 3612   9.260  10.945   5.523
  255POPC   C4B 3613   9.493  10.878   5.906
  256POPC   NC3 3614   9.151   4.817   4.045
  256POPC   PO4 3615   8.606   5.030   3.920
  256POPC   GL1 3616   8.773   5.152   4.364
  256POPC   GL2 3617   9.112   5.128   4.454
  256POPC   C1A 3618   8.791   4.986   4.829
  256POPC   D2A 3619   8.654   4.927   5.266
  256POPC   C3A 3620   8.752   4.922   5.698
  256POPC   C4A 3621   8.420   4.896   6.024
  256POPC   C1B 3622   9.127   5.354   4.830
  256POPC   C2B 3623   9.127   5.241   5.261
  256POPC   C3B 3624   9.143   5.257   5.682
  256POPC   C4B 3625   9.226   4.961   5.982
  257POPC   NC3 3626   2.899   3.744   3.979
  257POPC   PO4 3627   2.659   3.157   3.963
  257POPC   GL1 3628   2.715   3.354   4.315
  257POPC   GL2 3629   2.417   3.256   4.446
  257POPC   C1A 3630   2.828   3.536   4.700
  257POPC   D2A 3631   2.972   3.381   5.086
  257POPC   C3A 3632   2.882   3.534   5.502
  257POPC   C4A 3633   3.135   3.433   5.859
  257POPC   C1B 3634   2.469   3.214   4.881
  257POPC   C2B 3635   2.472   3.283   5.302
  257POPC   C3B 3636   2.359   3.542   5.643
  257POPC   C4B 3637   2.625   3.470   5.959
  258POPC   NC3 3638   4.164  10.670   4.060
  258POPC   PO4 3639   4.490  10.153   4.196
  258POPC   GL1 3640   4.184  10.300   4.477
  258POPC   GL2 3641   3.860  10.319   4.335
  258POPC   C1A 3642   4.208  10.180   4.922
  258POPC   D2A 3643   4.585  10.141   5.191
  258POPC   C3A 3644   4.657  10.279   5.612
  258POPC   C4A 3645   4.665  10.629   5.871
  258POPC   C1B 3646   3.887  10.613   4.740
  258POPC   C2B 3647   3.881  10.514   5.177
  258POPC   C3B 3648   4.132  10.296   5.442
  258POPC   C4B 3649   4.213  10.420   5.851
  259POPC   NC3 3650   5.063   0.654   3.964
  259POPC   PO4 3651   5.232   0.021   3.748
  259POPC   GL1 3652   5.217   0.237   4.202
  259POPC   GL2 3653   4.849   0.283   4.321
  259POPC   C1A 3654   5.280   0.494   4.599
  259POPC   D2A 3655   5.327   0.352   5.040
  259POPC   C3A 3656   5.306   0.516   5.478
  259POPC   C4A 3657   5.378   0.346   5.904
  259POPC   C1B 3658   4.857   0.314   4.795
  259POPC   C2B 3659   4.860   0.416   5.252
  259POPC   C3B 3660   4.847   0.293   5.691
  259POPC   C4B 3661   4.849   0.458   6.113
  260POPC   NC3 3662   1.869   7.978   4.008
  260POPC   PO4 3663   2.083   8.611   3.978
  260POPC   GL1 3664   2.121   8.332   4.341
  260POPC   GL2 3665   1.778   8.306   4.407
  260POPC   C1A 3666   2.070   8.281   4.815
  260POPC   D2A 3667   1.749   8.246   5.132
  260POPC   C3A 3668   2.004   8.366   5.477
  260POPC   C4A 3669   2.204   8.562   5.804
  260POPC   C1B 3670   1.800   7.892   4.653
  260POPC   C2B 3671   1.718   7.717   5.079
  260POPC   C3B 3672   1.774   7.870   5.506
  260POPC   C4B 3673   1.567   8.237   5.680
  261POPC   NC3 3674   8.768   2.706   4.105
  261POPC   PO4 3675   9.327   2.990   4.119
  261POPC   GL1 3676   9.141   2.859   4.482
  261POPC   GL2 3677   9.119   2.544   4.468
  261POPC   C1A 3678   9.014   2.856   4.917
  261POPC   D2A 3679   8.924   2.727   5.344
  261POPC   C3A 3680   9.087   2.996   5.673
  261POPC   C4A 3681   9.166   3.155   6.049
  261POPC   C1B 3682   8.694   2.489   4.713
  261POPC   C2B 3683   8.461   2.341   5.103
  261POPC   C3B 3684   8.644   2.335   5.534
  261POPC   C4B 3685   8.610   2.741   5.776
  262POPC   NC3 3686   3.220  10.843   3.971
  262POPC   PO4 3687   3.322   0.008   3.995
  262POPC   GL1 3688   3.170  11.260   4.323
  262POPC   GL2 3689   3.485  11.146   4.366
  262POPC   C1A 3690   3.219  11.327   4.786
  262POPC   D2A 3691   3.279  11.153   5.183
  262POPC   C3A 3692   3.204  11.363   5.559
  262POPC   C4A 3693   3.314  11.427   6.001
  262POPC   C1B 3694   3.712  11.091   4.742
  262POPC   C2B 3695   3.763  11.019   5.171
  262POPC   C3B 3696   3.652  11.087   5.576
  262POPC   C4B 3697   3.806  10.702   5.703
  263POPC   NC3 3698  11.257   2.121   3.973
  263POPC   PO4 3699   0.150   1.606   3.918
  263POPC   GL1 3700  11.266   1.703   4.273
  263POPC   GL2 3701  10.943   1.980   4.323
  263POPC   C1A 3702  11.197   1.880   4.731
  263POPC   D2A 3703  11.351   2.075   5.111
  263POPC   C3A 3704  11.177   1.877   5.491
  263POPC   C4A 3705  11.413   1.792   5.898
  263POPC   C1B 3706  10.737   2.128   4.701
  263POPC   C2B 3707  10.839   2.053   5.103
  263POPC   C3B 3708  10.703   2.104   5.490
  263POPC   C4B 3709  10.935   2.203   5.833
  264POPC   NC3 3710   4.318   1.744   3.774
  264POPC   PO4 3711   3.843   1.356   4.113
  264POPC   GL1 3712   3.928   1.669   4.448
  264POPC   GL2 3713   4.192   1.881   4.263
  264POPC   C1A 3714   3.929   1.735   4.904
  264POPC   D2A 3715   4.019   2.018   5.225
  264POPC   C3A 3716   4.167   1.933   5.595
  264POPC   C4A 3717   3.904   1.870   5.947
  264POPC   C1B 3718   4.311   1.982   4.701
  264POPC   C2B 3719   4.439   1.758   5.101
  264POPC   C3B 3720   4.693   1.943   5.463
  264POPC   C4B 3721   4.740   2.251   5.821
  265POPC   NC3 3722   1.151   6.641   3.778
  265POPC   PO4 3723   1.524   6.446   4.209
  265POPC   GL1 3724   1.316   6.424   4.542
  265POPC   GL2 3725   0.999   6.413   4.434
  265POPC   C1A 3726   1.317   6.630   4.907
  265POPC   D2A 3727   1.292   6.877   5.254
  265POPC   C3A 3728   1.324   6.675   5.640
  265POPC   C4A 3729   1.534   6.898   5.993
  265POPC   C1B 3730   0.830   6.518   4.835
  265POPC   C2B 3731   0.880   6.549   5.278
  265POPC   C3B 3732   0.829   6.197   5.507
  265POPC   C4B 3733   1.041   6.278   5.866
  266POPC   NC3 3734   1.417   6.098   3.937
  266POPC   PO4 3735   1.189   5.455   3.959
  266POPC   GL1 3736   1.324   5.679   4.305
  266POPC   GL2 3737   1.080   5.923   4.290
  266POPC   C1A 3738   1.416   5.543   4.725
  266POPC   D2A 3739   1.243   5.659   5.126
  266POPC   C3A 3740   1.527   5.652   5.449
  266POPC   C4A 3741   1.514   5.491   5.821
  266POPC   C1B 3742   1.129   5.979   4.723
  266POPC   C2B 3743   1.170   6.185   5.093
  266POPC   C3B 3744   1.342   6.117   5.491
  266POPC   C4B 3745   1.061   5.756   5.630
  267POPC   NC3 3746   7.255   2.205   3.942
  267POPC   PO4 3747   7.099   1.583   3.670
  267POPC   GL1 3748   7.191   1.735   4.116
  267POPC   GL2 3749   7.549   1.852   4.197
  267POPC   C1A 3750   7.141   1.925   4.573
  267POPC   D2A 3751   7.134   2.004   5.053
  267POPC   C3A 3752   6.856   1.919   5.422
  267POPC   C4A 3753   7.071   1.787   5.787
  267POPC   C1B 3754   7.656   1.937   4.644
  267POPC   C2B 3755   7.654   1.856   5.086
  267POPC   C3B 3756   7.472   1.986   5.475
  267POPC   C4B 3757   7.161   2.262   5.614
  268POPC   NC3 3758  10.279   8.249   3.655
  268POPC   PO4 3759  10.048   7.703   3.922
  268POPC   GL1 3760  10.313   7.805   4.286
  268POPC   GL2 3761  10.436   8.157   4.301
  268POPC   C1A 3762  10.160   7.952   4.705
  268POPC   D2A 3763   9.913   8.112   5.047
  268POPC   C3A 3764  10.094   7.939   5.402
  268POPC   C4A 3765  10.141   7.933   5.792
  268POPC   C1B 3766  10.451   8.362   4.733
  268POPC   C2B 3767  10.334   8.335   5.180
  268POPC   C3B 3768  10.549   8.185   5.568
  268POPC   C4B 3769  10.597   8.380   5.973
  269POPC   NC3 3770   2.854   9.538   3.882
  269POPC   PO4 3771   2.201   9.818   3.883
  269POPC   GL1 3772   2.514   9.736   4.261
  269POPC   GL2 3773   2.837   9.568   4.388
  269POPC   C1A 3774   2.485   9.603   4.743
  269POPC   D2A 3775   2.763   9.656   5.103
  269POPC   C3A 3776   2.527   9.754   5.435
  269POPC   C4A 3777   2.356   9.536   5.741
  269POPC   C1B 3778   3.020   9.348   4.764
  269POPC   C2B 3779   3.089   9.239   5.218
  269POPC   C3B 3780   3.020   9.563   5.557
  269POPC   C4B 3781   2.806   9.797   5.870
  270POPC   NC3 3782   3.855  11.040   3.769
  270POPC   PO4 3783   4.539  10.802   3.810
  270POPC   GL1 3784   4.603  10.896   4.246
  270POPC   GL2 3785   4.505  11.213   4.272
  270POPC   C1A 3786   4.408  10.834   4.663
  270POPC   D2A 3787   4.369  10.636   5.066
  270POPC   C3A 3788   4.221  10.868   5.410
  270POPC   C4A 3789   4.270  10.942   5.829
  270POPC   C1B 3790   4.178  11.279   4.592
  270POPC   C2B 3791   4.188  11.250   5.032
  270POPC   C3B 3792   4.051  11.382   5.439
  270POPC   C4B 3793   3.967  11.360   5.882
  271POPC   NC3 3794   2.878   6.591   3.916
  271POPC   PO4 3795   2.915   7.173   4.051
  271POPC   GL1 3796   2.855   6.818   4.404
  271POPC   GL2 3797   2.607   6.559   4.349
  271POPC   C1A 3798   2.913   6.597   4.850
  271POPC   D2A 3799   3.051   6.447   5.296
  271POPC   C3A 3800   2.862   6.665   5.655
  271POPC   C4A 3801   2.476   6.629   5.908
  271POPC   C1B 3802   2.549   6.284   4.663
  271POPC   C2B 3803   2.680   6.185   5.066
  271POPC   C3B 3804   2.572   6.290   5.469
  271POPC   C4B 3805   2.252   6.159   5.733
  272POPC   NC3 3806   6.952   3.096   4.127
  272POPC   PO4 3807   6.811   2.420   3.989
  272POPC   GL1 3808   7.074   2.596   4.342
  272POPC   GL2 3809   7.440   2.568   4.284
  272POPC   C1A 3810   7.078   2.806   4.781
  272POPC   D2A 3811   7.279   2.887   5.204
  272POPC   C3A 3812   7.104   2.788   5.640
  272POPC   C4A 3813   7.160   2.976   6.087
  272POPC   C1B 3814   7.399   2.385   4.710
  272POPC   C2B 3815   7.433   2.397   5.160
  272POPC   C3B 3816   7.573   2.534   5.556
  272POPC   C4B 3817   7.767   2.430   5.954
  273POPC   NC3 3818   1.812   9.897   3.643
  273POPC   PO4 3819   2.094  10.147   4.301
  273POPC   GL1 3820   2.074   9.731   4.492
  273POPC   GL2 3821   2.071   9.445   4.234
  273POPC   C1A 3822   1.916   9.660   4.841
  273POPC   D2A 3823   1.784   9.884   5.120
  273POPC   C3A 3824   1.971   9.695   5.405
  273POPC   C4A 3825   2.021   9.882   5.740
  273POPC   C1B 3826   2.092   9.236   4.633
  273POPC   C2B 3827   2.084   9.235   5.085
  273POPC   C3B 3828   1.811   9.206   5.423
  273POPC   C4B 3829   1.830   9.414   5.820
  274POPC   NC3 3830   7.266   8.817   3.878
  274POPC   PO4 3831   7.063   9.390   4.128
  274POPC   GL1 3832   7.330   9.129   4.427
  274POPC   GL2 3833   7.413   8.760   4.362
  274POPC   C1A 3834   7.283   8.968   4.877
  274POPC   D2A 3835   7.318   8.847   5.307
  274POPC   C3A 3836   7.109   9.065   5.680
  274POPC   C4A 3837   6.810   9.049   6.059
  274POPC   C1B 3838   7.719   8.873   4.647
  274POPC   C2B 3839   7.771   8.811   5.051
  274POPC   C3B 3840   7.802   8.751   5.475
  274POPC   C4B 3841   7.475   8.685   5.755
  275POPC   NC3 3842   2.787   1.249   3.734
  275POPC   PO4 3843   2.665   1.751   4.006
  275POPC   GL1 3844   2.747   1.497   4.330
  275POPC   GL2 3845   2.907   1.210   4.245
  275POPC   C1A 3846   2.550   1.408   4.721
  275POPC   D2A 3847   2.342   1.327   5.089
  275POPC   C3A 3848   2.333   1.533   5.455
  275POPC   C4A 3849   2.370   1.401   5.841
  275POPC   C1B 3850   3.037   1.233   4.682
  275POPC   C2B 3851   2.824   1.131   5.089
  275POPC   C3B 3852   2.740   1.226   5.531
  275POPC   C4B 3853   2.795   1.165   5.995
  276POPC   NC3 3854   3.752   2.566   4.027
  276POPC   PO4 3855   3.198   2.484   3.684
  276POPC   GL1 3856   3.177   2.633   4.206
  276POPC   GL2 3857   3.503   2.592   4.469
  276POPC   C1A 3858   3.057   2.521   4.676
  276POPC   D2A 3859   3.241   2.448   5.129
  276POPC   C3A 3860   3.241   2.647   5.567
  276POPC   C4A 3861   3.499   2.688   5.963
  276POPC   C1B 3862   3.391   2.882   4.839
  276POPC   C2B 3863   3.425   3.128   5.232
  276POPC   C3B 3864   3.516   3.105   5.678
  276POPC   C4B 3865   3.894   3.136   5.980
  277POPC   NC3 3866   8.861  10.856   3.407
  277POPC   PO4 3867   9.023  11.121   4.008
  277POPC   GL1 3868   8.918  11.170   4.401
  277POPC   GL2 3869   9.226  11.410   4.420
  277POPC   C1A 3870   8.767  10.918   4.759
  277POPC   D2A 3871   8.897  10.724   5.151
  277POPC   C3A 3872   8.670  10.726   5.531
  277POPC   C4A 3873   8.827  11.030   5.776
  277POPC   C1B 3874   9.183  11.206   4.828
  277POPC   C2B 3875   8.918  11.227   5.190
  277POPC   C3B 3876   9.033  11.420   5.544
  277POPC   C4B 3877   9.010   0.272   5.803
  278POPC   NC3 3878   6.340   2.596   4.036
  278POPC   PO4 3879   6.522   3.202   4.117
  278POPC   GL1 3880   6.612   2.822   4.430
  278POPC   GL2 3881   6.579   2.438   4.450
  278POPC   C1A 3882   6.576   2.734   4.889
  278POPC   D2A 3883   6.763   2.950   5.240
  278POPC   C3A 3884   6.577   2.922   5.650
  278POPC   C4A 3885   6.647   3.130   6.046
  278POPC   C1B 3886   6.881   2.340   4.763
  278POPC   C2B 3887   6.937   2.475   5.191
  278POPC   C3B 3888   6.698   2.442   5.554
  278POPC   C4B 3889   6.348   2.470   5.855
  279POPC   NC3 3890   0.409   2.778   3.759
  279POPC   PO4 3891   0.131   3.088   4.208
  279POPC   GL1 3892   0.510   2.890   4.375
  279POPC   GL2 3893   0.502   2.502   4.425
  279POPC   C1A 3894   0.673   2.795   4.794
  279POPC   D2A 3895   0.527   2.809   5.195
  279POPC   C3A 3896   0.777   2.999   5.487
  279POPC   C4A 3897   0.674   2.763   5.801
  279POPC   C1B 3898   0.218   2.365   4.798
  279POPC   C2B 3899   0.117   2.492   5.196
  279POPC   C3B 3900   0.179   2.702   5.569
  279POPC   C4B 3901   0.246   2.521   5.968
  280POPC   NC3 3902  11.150   3.638   3.814
  280POPC   PO4 3903   0.030   3.136   3.681
  280POPC   GL1 3904  11.444   3.513   4.175
  280POPC   GL2 3905  11.125   3.492   4.305
  280POPC   C1A 3906  11.496   3.620   4.667
  280POPC   D2A 3907  11.496   3.368   5.069
  280POPC   C3A 3908  11.497   3.590   5.426
  280POPC   C4A 3909  11.365   3.501   5.856
  280POPC   C1B 3910  11.004   3.706   4.648
  280POPC   C2B 3911  11.043   3.551   5.034
  280POPC   C3B 3912  10.999   3.498   5.443
  280POPC   C4B 3913  10.745   3.772   5.585
  281POPC   NC3 3914   3.379  10.158   4.167
  281POPC   PO4 3915   3.696  10.756   4.110
  281POPC   GL1 3916   3.377  10.633   4.395
  281POPC   GL2 3917   3.420  10.369   4.616
  281POPC   C1A 3918   3.263  10.833   4.745
  281POPC   D2A 3919   3.392  10.637   5.096
  281POPC   C3A 3920   3.279  10.743   5.507
  281POPC   C4A 3921   3.366  10.540   5.921
  281POPC   C1B 3922   3.720  10.145   4.802
  281POPC   C2B 3923   3.532  10.137   5.128
  281POPC   C3B 3924   3.511  10.299   5.487
  281POPC   C4B 3925   3.770  10.186   5.797
  282POPC   NC3 3926   3.778   0.092   4.096
  282POPC   PO4 3927   3.937   0.699   3.930
  282POPC   GL1 3928   3.727   0.601   4.309
  282POPC   GL2 3929   3.416   0.451   4.269
  282POPC   C1A 3930   3.831   0.361   4.696
  282POPC   D2A 3931   3.695   0.023   5.013
  282POPC   C3A 3932   3.611   0.147   5.448
  282POPC   C4A 3933   3.712   0.299   5.861
  282POPC   C1B 3934   3.309   0.319   4.701
  282POPC   C2B 3935   3.498   0.513   5.077
  282POPC   C3B 3936   3.431   0.659   5.506
  282POPC   C4B 3937   3.194   0.361   5.756
  283POPC   NC3 3938   4.134   9.672   4.005
  283POPC   PO4 3939   4.827   9.613   3.858
  283POPC   GL1 3940   4.551   9.564   4.294
  283POPC   GL2 3941   4.256   9.789   4.461
  283POPC   C1A 3942   4.485   9.485   4.777
  283POPC   D2A 3943   4.705   9.446   5.201
  283POPC   C3A 3944   4.514   9.461   5.641
  283POPC   C4A 3945   4.625   9.655   6.076
  283POPC   C1B 3946   4.017   9.709   4.799
  283POPC   C2B 3947   3.888   9.795   5.176
  283POPC   C3B 3948   3.985   9.726   5.583
  283POPC   C4B 3949   4.309   9.923   5.775
  284POPC   NC3 3950  10.276  10.230   3.953
  284POPC   PO4 3951   9.968  10.797   4.064
  284POPC   GL1 3952  10.233  10.586   4.335
  284POPC   GL2 3953  10.560  10.402   4.331
  284POPC   C1A 3954  10.311  10.735   4.722
  284POPC   D2A 3955  10.392  10.507   5.060
  284POPC   C3A 3956  10.356  10.764   5.356
  284POPC   C4A 3957  10.435  10.791   5.749
  284POPC   C1B 3958  10.585  10.183   4.731
  284POPC   C2B 3959  10.618  10.067   5.180
  284POPC   C3B 3960  10.500  10.288   5.531
  284POPC   C4B 3961  10.809  10.219   5.797
  285POPC   NC3 3962   1.086   4.979   3.937
  285POPC   PO4 3963   0.433   5.321   3.999
  285POPC   GL1 3964   0.775   5.316   4.329
  285POPC   GL2 3965   1.117   5.149   4.409
  285POPC   C1A 3966   0.901   5.477   4.728
  285POPC   D2A 3967   1.151   5.172   4.978
  285POPC   C3A 3968   1.204   5.222   5.430
  285POPC   C4A 3969   0.889   5.103   5.712
  285POPC   C1B 3970   1.405   4.860   4.648
  285POPC   C2B 3971   1.478   4.789   5.105
  285POPC   C3B 3972   1.366   4.729   5.547
  285POPC   C4B 3973   1.491   4.987   5.872
  286POPC   NC3 3974   7.217   9.805   4.023
  286POPC   PO4 3975   7.904   9.881   3.899
  286POPC   GL1 3976   7.653   9.933   4.351
  286POPC   GL2 3977   7.438   9.654   4.434
  286POPC   C1A 3978   7.652   9.850   4.848
  286POPC   D2A 3979   7.322   9.877   5.173
  286POPC   C3A 3980   7.478  10.013   5.585
  286POPC   C4A 3981   7.495   9.719   5.891
  286POPC   C1B 3982   7.290   9.479   4.829
  286POPC   C2B 3983   7.297   9.372   5.280
  286POPC   C3B 3984   7.098   9.605   5.584
  286POPC   C4B 3985   6.708   9.500   5.791
  287POPC   NC3 3986   7.388   0.265   3.849
  287POPC   PO4 3987   7.673   0.897   3.873
  287POPC   GL1 3988   7.715   0.687   4.270
  287POPC   GL2 3989   7.390   0.535   4.295
  287POPC   C1A 3990   7.715   0.478   4.721
  287POPC   D2A 3991   7.719   0.243   5.189
  287POPC   C3A 3992   7.689   0.592   5.560
  287POPC   C4A 3993   7.726   0.676   6.073
  287POPC   C1B 3994   7.193   0.612   4.675
  287POPC   C2B 3995   7.364   0.598   5.086
  287POPC   C3B 3996   7.258   0.336   5.418
  287POPC   C4B 3997   7.095   0.651   5.676
  288POPC   NC3 3998   5.023   9.215   4.009
  288POPC   PO4 3999   4.831   8.617   3.766
  288POPC   GL1 4000   4.745   8.714   4.249
  288POPC   GL2 4001   4.718   9.061   4.373
  288POPC   C1A 4002   4.672   8.534   4.714
  288POPC   D2A 4003   4.947   8.575   5.092
  288POPC   C3A 4004   4.882   8.646   5.543
  288POPC   C4A 4005   5.016   8.771   5.980
  288POPC   C1B 4006   5.015   8.913   4.704
  288POPC   C2B 4007   5.047   9.066   5.152
  288POPC   C3B 4008   4.982   9.174   5.587
  288POPC   C4B 4009   5.370   9.136   5.829
  289POPC   NC3 4010   5.075   1.256   3.915
  289POPC   PO4 4011   4.632   0.741   4.095
  289POPC   GL1 4012   4.863   0.782   4.441
  289POPC   GL2 4013   5.080   1.030   4.376
  289POPC   C1A 4014   4.970   0.806   4.864
  289POPC   D2A 4015   5.075   1.099   5.104
  289POPC   C3A 4016   4.958   0.939   5.446
  289POPC   C4A 4017   5.076   0.803   5.835
  289POPC   C1B 4018   5.146   1.407   4.677
  289POPC   C2B 4019   4.943   1.580   5.077
  289POPC   C3B 4020   5.108   1.462   5.496
  289POPC   C4B 4021   5.434   1.525   5.775
  290POPC   NC3 4022   4.349   7.541   4.159
  290POPC   PO4 4023   3.780   7.641   4.230
  290POPC   GL1 4024   4.044   7.447   4.559
  290POPC   GL2 4025   4.203   7.133   4.456
  290POPC   C1A 4026   4.120   7.471   4.988
  290POPC   D2A 4027   4.265   7.796   5.257
  290POPC   C3A 4028   4.175   7.668   5.675
  290POPC   C4A 4029   3.985   7.273   5.818
  290POPC   C1B 4030   4.494   7.147   4.807
  290POPC   C2B 4031   4.595   7.378   5.200
  290POPC   C3B 4032   4.507   7.283   5.637
  290POPC   C4B 4033   4.349   6.901   5.852
  291POPC   NC3 4034   0.427   0.540   3.843
  291POPC   PO4 4035   0.101  11.487   3.882
  291POPC   GL1 4036   0.155   0.093   4.352
  291POPC   GL2 4037   0.367   0.403   4.325
  291POPC   C1A 4038   0.534   0.103   4.689
  291POPC   D2A 4039   0.747   0.288   5.043
  291POPC   C3A 4040   0.637   0.108   5.458
  291POPC   C4A 4041   0.917   0.266   5.758
  291POPC   C1B 4042   0.538   0.625   4.681
  291POPC   C2B 4043   0.338   0.653   5.102
  291POPC   C3B 4044   0.397   0.555   5.548
  291POPC   C4B 4045   0.370   0.638   5.979
  292POPC   NC3 4046  10.384   2.242   3.538
  292POPC   PO4 4047  10.170   1.663   3.898
  292POPC   GL1 4048  10.144   2.005   4.201
  292POPC   GL2 4049  10.458   2.208   4.263
  292POPC   C1A 4050  10.154   2.059   4.666
  292POPC   D2A 4051  10.338   1.889   5.040
  292POPC   C3A 4052  10.136   2.031   5.403
  292POPC   C4A 4053  10.135   2.154   5.791
  292POPC   C1B 4054  10.501   1.742   4.481
  292POPC   C2B 4055  10.723   1.610   4.872
  292POPC   C3B 4056  10.731   1.599   5.347
  292POPC   C4B 4057  10.440   1.728   5.716
  293POPC   NC3 4058   1.370   1.662   4.054
  293POPC   PO4 4059   1.468   2.231   3.791
  293POPC   GL1 4060   1.388   2.205   4.253
  293POPC   GL2 4061   1.051   2.105   4.251
  293POPC   C1A 4062   1.492   2.199   4.723
  293POPC   D2A 4063   1.694   2.245   5.153
  293POPC   C3A 4064   1.384   2.101   5.466
  293POPC   C4A 4065   1.352   2.029   5.901
  293POPC   C1B 4066   1.095   1.863   4.643
  293POPC   C2B 4067   1.060   2.037   5.049
  293POPC   C3B 4068   0.858   1.927   5.418
  293POPC   C4B 4069   1.024   1.687   5.754
  294POPC   NC3 4070   0.450  10.528   3.737
  294POPC   PO4 4071   0.643  10.064   4.085
  294POPC   GL1 4072   0.583  10.459   4.271
  294POPC   GL2 4073   0.256  10.531   4.234
  294POPC   C1A 4074   0.676  10.593   4.670
  294POPC   D2A 4075   0.691  10.265   4.972
  294POPC   C3A 4076   0.673  10.439   5.350
  294POPC   C4A 4077   0.633  10.353   5.765
  294POPC   C1B 4078   0.264  10.292   4.651
  294POPC   C2B 4079   0.155  10.415   5.076
  294POPC   C3B 4080   0.198  10.444   5.526
  294POPC   C4B 4081   0.188  10.297   5.982
  295POPC   NC3 4082   2.914   2.831   3.772
  295POPC   PO4 4083   2.390   2.466   3.864
  295POPC   GL1 4084   2.594   2.542   4.237
  295POPC   GL2 4085   2.711   2.831   4.349
  295POPC   C1A 4086   2.554   2.435   4.639
  295POPC   D2A 4087   2.591   2.671   4.978
  295POPC   C3A 4088   2.740   2.448   5.316
  295POPC   C4A 4089   2.695   2.556   5.736
  295POPC   C1B 4090   2.895   2.999   4.723
  295POPC   C2B 4091   2.986   2.890   5.170
  295POPC   C3B 4092   2.866   3.022   5.570
  295POPC   C4B 4093   3.031   2.953   5.978
  296POPC   NC3 4094   1.180  11.052   3.853
  296POPC   PO4 4095   0.894   0.171   3.993
  296POPC   GL1 4096   0.985  11.339   4.289
  296POPC   GL2 4097   1.065  10.980   4.364
  296POPC   C1A 4098   1.083  11.376   4.718
  296POPC   D2A 4099   1.343  11.361   5.088
  296POPC   C3A 4100   1.112  11.418   5.428
  296POPC   C4A 4101   0.955  11.238   5.795
  296POPC   C1B 4102   1.393  10.882   4.702
  296POPC   C2B 4103   1.485  10.872   5.162
  296POPC   C3B 4104   1.358  10.979   5.577
  296POPC   C4B 4105   1.408  10.846   5.990
  297POPC   NC3 4106   9.928   8.108   4.129
  297POPC   PO4 4107   9.314   7.864   3.930
  297POPC   GL1 4108   9.521   7.849   4.309
  297POPC   GL2 4109   9.455   8.211   4.335
  297POPC   C1A 4110   9.681   7.796   4.731
  297POPC   D2A 4111   9.821   7.590   5.148
  297POPC   C3A 4112   9.593   7.796   5.493
  297POPC   C4A 4113   9.709   8.164   5.672
  297POPC   C1B 4114   9.443   8.347   4.768
  297POPC   C2B 4115   9.447   8.195   5.202
  297POPC   C3B 4116   9.225   8.282   5.583
  297POPC   C4B 4117   9.054   8.199   5.998
  298POPC   NC3 4118   6.488  11.346   3.966
  298POPC   PO4 4119   6.453  10.712   3.977
  298POPC   GL1 4120   6.553  10.967   4.344
  298POPC   GL2 4121   6.522  11.331   4.451
  298POPC   C1A 4122   6.429  10.939   4.765
  298POPC   D2A 4123   6.617  11.065   5.130
  298POPC   C3A 4124   6.377  10.906   5.449
  298POPC   C4A 4125   6.560  10.932   5.861
  298POPC   C1B 4126   6.474  11.459   4.824
  298POPC   C2B 4127   6.515   0.058   5.181
  298POPC   C3B 4128   6.578  11.371   5.550
  298POPC   C4B 4129   6.431   0.102   5.883
  299POPC   NC3 4130  11.077   6.916   3.942
  299POPC   PO4 4131  10.904   6.233   3.758
  299POPC   GL1 4132  10.960   6.486   4.217
  299POPC   GL2 4133  11.221   6.675   4.339
  299POPC   C1A 4134  10.893   6.534   4.713
  299POPC   D2A 4135  10.717   6.406   5.139
  299POPC   C3A 4136  10.853   6.640   5.535
  299POPC   C4A 4137  10.957   6.462   5.970
  299POPC   C1B 4138  11.400   6.514   4.688
  299POPC   C2B 4139   0.026   6.486   5.082
  299POPC   C3B 4140  11.352   6.578   5.442
  299POPC   C4B 4141  11.360   6.754   5.844
  300POPC   NC3 4142  11.476   1.152   3.852
  300POPC   PO4 4143  10.856   1.056   3.870
  300POPC   GL1 4144  11.102   0.909   4.216
  300POPC   GL2 4145  11.367   1.138   4.331
  300POPC   C1A 4146  11.056   0.911   4.679
  300POPC   D2A 4147  11.010   1.224   5.012
  300POPC   C3A 4148  10.992   1.131   5.453
  300POPC   C4A 4149  11.063   0.889   5.837
  300POPC   C1B 4150  11.404   1.395   4.691
  300POPC   C2B 4151  11.388   1.563   5.118
  300POPC   C3B 4152  11.443   1.387   5.533
  300POPC   C4B 4153  11.293   1.314   5.970
  301POPC   NC3 4154  10.739   5.241   3.972
  301POPC   PO4 4155  10.291   4.824   3.784
  301POPC   GL1 4156  10.254   4.876   4.257
  301POPC   GL2 4157  10.420   5.178   4.407
  301POPC   C1A 4158  10.272   4.818   4.737
  301POPC   D2A 4159  10.131   4.719   5.169
  301POPC   C3A 4160  10.414   4.724   5.546
  301POPC   C4A 4161  10.223   4.882   5.941
  301POPC   C1B 4162  10.591   5.228   4.839
  301POPC   C2B 4163  10.556   5.134   5.253
  301POPC   C3B 4164  10.234   5.237   5.543
  301POPC   C4B 4165  10.269   5.395   5.951
  302POPC   NC3 4166   9.572   0.954   3.915
  302POPC   PO4 4167   9.312   1.537   3.908
  302POPC   GL1 4168   9.514   1.380   4.292
  302POPC   GL2 4169   9.407   1.033   4.396
  302POPC   C1A 4170   9.499   1.402   4.749
  302POPC   D2A 4171   9.716   1.243   5.104
  302POPC   C3A 4172   9.489   1.170   5.506
  302POPC   C4A 4173   9.482   1.339   5.939
  302POPC   C1B 4174   9.826   1.000   4.616
  302POPC   C2B 4175  10.076   0.864   4.982
  302POPC   C3B 4176  10.037   1.013   5.426
  302POPC   C4B 4177   9.817   0.973   5.848
  303POPC   NC3 4178   9.516  10.857   4.125
  303POPC   PO4 4179   9.826  10.245   3.836
  303POPC   GL1 4180   9.869  10.159   4.273
  303POPC   GL2 4181   9.725  10.472   4.388
  303POPC   C1A 4182  10.074  10.252   4.682
  303POPC   D2A 4183   9.885  10.532   4.987
  303POPC   C3A 4184   9.990  10.391   5.396
  303POPC   C4A 4185   9.968  10.543   5.802
  303POPC   C1B 4186   9.525  10.228   4.686
  303POPC   C2B 4187   9.421  10.333   5.119
  303POPC   C3B 4188   9.509  10.487   5.536
  303POPC   C4B 4189   9.506  10.359   5.963
  304POPC   NC3 4190   6.655   1.706   3.715
  304POPC   PO4 4191   6.321   1.258   3.947
  304POPC   GL1 4192   6.538   1.070   4.341
  304POPC   GL2 4193   6.832   0.798   4.314
  304POPC   C1A 4194   6.521   1.238   4.809
  304POPC   D2A 4195   6.578   1.589   5.150
  304POPC   C3A 4196   6.463   1.629   5.620
  304POPC   C4A 4197   6.680   1.626   6.045
  304POPC   C1B 4198   6.697   0.752   4.732
  304POPC   C2B 4199   6.750   0.909   5.157
  304POPC   C3B 4200   6.649   0.868   5.568
  304POPC   C4B 4201   6.471   1.161   5.826
  305POPC   NC3 4202  10.939   0.466   3.979
  305POPC   PO4 4203   0.057   0.714   4.047
  305POPC   GL1 4204  11.315   0.477   4.396
  305POPC   GL2 4205  10.936   0.445   4.485
  305POPC   C1A 4206  11.278   0.476   4.865
  305POPC   D2A 4207  11.322   0.843   5.120
  305POPC   C3A 4208  11.442   0.837   5.504
  305POPC   C4A 4209  11.416   0.542   5.788
  305POPC   C1B 4210  10.708   0.175   4.823
  305POPC   C2B 4211  10.800   0.159   5.227
  305POPC   C3B 4212  11.150   0.367   5.379
  305POPC   C4B 4213  10.927   0.413   5.713
  306POPC   NC3 4214   0.818   9.657   3.960
  306POPC   PO4 4215   0.282   9.237   3.938
  306POPC   GL1 4216   0.597   9.216   4.319
  306POPC   GL2 4217   0.803   9.523   4.456
  306POPC   C1A 4218   0.602   9.190   4.804
  306POPC   D2A 4219   0.545   9.481   5.151
  306POPC   C3A 4220   0.612   9.476   5.594
  306POPC   C4A 4221   0.324   9.551   5.918
  306POPC   C1B 4222   0.547   9.817   4.736
  306POPC   C2B 4223   0.316   9.938   5.135
  306POPC   C3B 4224   0.425   9.950   5.574
  306POPC   C4B 4225   0.630   9.924   6.014
  307POPC   NC3 4226  10.786   6.028   4.159
  307POPC   PO4 4227  10.185   5.812   3.902
  307POPC   GL1 4228  10.459   5.657   4.240
  307POPC   GL2 4229  10.293   5.901   4.416
  307POPC   C1A 4230  10.677   5.699   4.690
  307POPC   D2A 4231  10.825   5.836   5.093
  307POPC   C3A 4232  10.552   5.702   5.389
  307POPC   C4A 4233  10.541   5.852   5.806
  307POPC   C1B 4234  10.174   5.584   4.717
  307POPC   C2B 4235  10.092   5.597   5.169
  307POPC   C3B 4236  10.070   5.756   5.610
  307POPC   C4B 4237  10.085   6.117   5.943
  308POPC   NC3 4238  10.614  11.270   3.890
  308POPC   PO4 4239   9.933  11.364   3.673
  308POPC   GL1 4240  10.146  11.341   4.146
  308POPC   GL2 4241  10.381  11.073   4.288
  308POPC   C1A 4242  10.132  11.307   4.669
  308POPC   D2A 4243  10.009  11.398   5.145
  308POPC   C3A 4244  10.193  11.216   5.514
  308POPC   C4A 4245  10.049  11.060   5.935
  308POPC   C1B 4246  10.654  11.146   4.652
  308POPC   C2B 4247  10.512  11.230   5.066
  308POPC   C3B 4248  10.708  11.166   5.458
  308POPC   C4B 4249  10.584  11.280   5.842
  309POPC   NC3 4250   0.575   4.030   3.936
  309POPC   PO4 4251   0.184   4.532   4.086
  309POPC   GL1 4252   0.247   4.234   4.324
  309POPC   GL2 4253   0.583   4.268   4.372
  309POPC   C1A 4254   0.213   4.115   4.710
  309POPC   D2A 4255   0.169   4.360   5.060
  309POPC   C3A 4256   0.234   4.146   5.435
  309POPC   C4A 4257   0.214   4.389   5.792
  309POPC   C1B 4258   0.533   4.510   4.722
  309POPC   C2B 4259   0.666   4.288   5.081
  309POPC   C3B 4260   0.845   4.038   5.389
  309POPC   C4B 4261   0.649   4.118   5.779
  310POPC   NC3 4262   9.944   4.579   3.642
  310POPC   PO4 4263   9.385   4.405   3.984
  310POPC   GL1 4264   9.745   4.462   4.271
  310POPC   GL2 4265   9.798   4.160   4.466
  310POPC   C1A 4266   9.791   4.590   4.729
  310POPC   D2A 4267   9.792   4.304   5.109
  310POPC   C3A 4268   9.710   4.510   5.504
  310POPC   C4A 4269   9.701   4.740   5.924
  310POPC   C1B 4270   9.446   4.196   4.733
  310POPC   C2B 4271   9.220   4.272   5.128
  310POPC   C3B 4272   9.249   4.138   5.554
  310POPC   C4B 4273   9.404   4.331   5.883
  311POPC   NC3 4274   6.356  10.300   4.141
  311POPC   PO4 4275   6.955  10.190   3.948
  311POPC   GL1 4276   6.832  10.526   4.291
  311POPC   GL2 4277   6.530  10.485   4.552
  311POPC   C1A 4278   6.902  10.718   4.746
  311POPC   D2A 4279   6.639  10.565   5.123
  311POPC   C3A 4280   6.828  10.642   5.550
  311POPC   C4A 4281   6.759  10.414   5.975
  311POPC   C1B 4282   6.171  10.449   4.841
  311POPC   C2B 4283   6.061  10.424   5.293
  311POPC   C3B 4284   6.342  10.436   5.668
  311POPC   C4B 4285   6.273  10.367   6.116
  312POPC   NC3 4286   8.174   0.622   3.955
  312POPC   PO4 4287   7.820   0.032   3.866
  312POPC   GL1 4288   7.954   0.219   4.291
  312POPC   GL2 4289   8.302   0.347   4.355
  312POPC   C1A 4290   8.058   0.105   4.740
  312POPC   D2A 4291   8.342   0.105   5.089
  312POPC   C3A 4292   8.119   0.080   5.517
  312POPC   C4A 4293   7.965   0.292   5.851
  312POPC   C1B 4294   8.308   0.548   4.759
  312POPC   C2B 4295   8.089   0.556   5.083
  312POPC   C3B 4296   8.251   0.562   5.464
  312POPC   C4B 4297   8.138   0.790   5.786
  313POPC   NC3 4298   8.202   1.274   3.921
  313POPC   PO4 4299   8.484   0.831   4.229
  313POPC   GL1 4300   8.142   1.013   4.403
  313POPC   GL2 4301   8.147   1.385   4.408
  313POPC   C1A 4302   8.224   1.100   4.834
  313POPC   D2A 4303   8.219   1.007   5.240
  313POPC   C3A 4304   8.453   1.126   5.557
  313POPC   C4A 4305   8.254   1.470   5.720
  313POPC   C1B 4306   7.825   1.398   4.719
  313POPC   C2B 4307   7.708   1.184   5.103
  313POPC   C3B 4308   7.830   1.129   5.523
  313POPC   C4B 4309   7.873   1.195   5.945
  314POPC   NC3 4310   9.356   3.434   4.050
  314POPC   PO4 4311   8.617   3.156   4.037
  314POPC   GL1 4312   8.930   3.295   4.352
  314POPC   GL2 4313   8.942   3.641   4.400
  314POPC   C1A 4314   8.881   3.355   4.828
  314POPC   D2A 4315   9.001   3.281   5.270
  314POPC   C3A 4316   8.727   3.343   5.679
  314POPC   C4A 4317   8.821   3.521   6.085
  314POPC   C1B 4318   9.109   3.814   4.819
  314POPC   C2B 4319   8.995   3.793   5.260
  314POPC   C3B 4320   8.790   3.901   5.653
  314POPC   C4B 4321   8.986   4.016   6.026
  315POPC   NC3 4322   6.729  10.491   3.688
  315POPC   PO4 4323   7.402  10.565   3.697
  315POPC   GL1 4324   7.366  10.328   4.192
  315POPC   GL2 4325   7.305  10.562   4.476
  315POPC   C1A 4326   7.238  10.100   4.641
  315POPC   D2A 4327   7.093  10.328   5.035
  315POPC   C3A 4328   7.021  10.181   5.480
  315POPC   C4A 4329   7.231  10.405   5.836
  315POPC   C1B 4330   7.639  10.407   4.726
  315POPC   C2B 4331   7.597  10.296   5.122
  315POPC   C3B 4332   7.541  10.531   5.445
  315POPC   C4B 4333   7.729  10.460   5.814
  316POPC   NC3 4334   1.364   2.667   3.847
  316POPC   PO4 4335   0.817   2.972   3.958
  316POPC   GL1 4336   0.972   2.633   4.241
  316POPC   GL2 4337   1.300   2.709   4.342
  316POPC   C1A 4338   1.029   2.427   4.668
  316POPC   D2A 4339   1.251   2.548   5.059
  316POPC   C3A 4340   0.987   2.504   5.417
  316POPC   C4A 4341   0.927   2.279   5.796
  316POPC   C1B 4342   1.134   2.940   4.672
  316POPC   C2B 4343   1.133   3.065   5.112
  316POPC   C3B 4344   1.299   2.899   5.506
  316POPC   C4B 4345   1.375   2.526   5.751
  317POPC   NC3 4346   9.720   1.752   3.951
  317POPC   PO4 4347   9.263   2.286   3.924
  317POPC   GL1 4348   9.473   2.208   4.268
  317POPC   GL2 4349   9.316   1.877   4.300
  317POPC   C1A 4350   9.507   2.317   4.711
  317POPC   D2A 4351   9.432   2.048   5.074
  317POPC   C3A 4352   9.577   2.177   5.497
  317POPC   C4A 4353   9.470   2.260   5.955
  317POPC   C1B 4354   9.672   1.864   4.596
  317POPC   C2B 4355   9.834   1.757   4.998
  317POPC   C3B 4356   9.635   1.670   5.414
  317POPC   C4B 4357   9.713   1.817   5.832
  318POPC   NC3 4358   3.374   5.830   3.818
  318POPC   PO4 4359   3.615   5.332   3.825
  318POPC   GL1 4360   3.466   5.108   4.235
  318POPC   GL2 4361   3.160   4.882   4.248
  318POPC   C1A 4362   3.639   5.084   4.684
  318POPC   D2A 4363   3.761   5.223   5.119
  318POPC   C3A 4364   3.434   5.193   5.443
  318POPC   C4A 4365   3.426   4.944   5.818
  318POPC   C1B 4366   3.244   4.763   4.692
  318POPC   C2B 4367   3.486   4.781   5.101
  318POPC   C3B 4368   3.788   4.817   5.459
  318POPC   C4B 4369   3.830   4.585   5.855
  319W        W 4370  11.184  10.840   8.518
  320W        W 4371   8.594   4.369   3.159
  321W        W 4372   5.728   3.537   8.133
  322W        W 4373   6.750   6.835  11.805
  323W        W 4374   7.615   8.431   9.849
  324W        W 4375   2.203   9.693   8.617
  325W        W 4376   5.982   3.880   8.540
  326W        W 4377   0.964   5.095   2.238
  327W        W 4378   3.673   0.802   3.146
  328W        W 4379   9.287   0.753  11.235
  329W        W 4380   7.611   6.106   8.323
  330W        W 4381   8.676   5.495   8.593
  331W        W 4382  10.943   9.087   9.078
  332W        W 4383   9.791   9.393   9.115
  333W        W 4384  10.453   6.562   2.987
  334W        W 4385   7.765  10.874   2.318
  335W        W 4386  10.263   6.657  10.848
  336W        W 4387   7.494   1.367   0.151
  337W        W 4388   5.143   6.454   0.822
  338W        W 4389   0.748   4.372  11.652
  339W        W 4390   0.122   8.141  10.784
  340W        W 4391   7.989   2.323   2.933
  341W        W 4392   4.064  10.745  11.494
  342W        W 4393   3.190   7.609   9.979
  343W        W 4394   1.441   0.905   1.890
  344W        W 4395   9.697   6.621   9.994
  345W        W 4396   7.235   8.013   0.755
  346W        W 4397  10.999   5.434  10.547
  347W        W 4398   6.677   0.761   1.758
  348W        W 4399   3.254   7.025   1.765
  349W        W 4400   5.544   3.602   9.476
  350W        W 4401   1.839   9.468  11.771
  351W        W 4402   4.771   2.837   0.511
  352W        W 4403  10.004  11.485   3.183
  353W        W 4404   8.619   3.421   2.157
  354W        W 4405   1.527   7.582  10.025
  355W        W 4406   0.391   8.524  11.526
  356W        W 4407   0.949   6.984   8.254
  357W        W 4408   2.464   9.919   0.354
  358W        W 4409   6.411   3.636   8.762
  359W        W 4410   7.505   9.526   8.994
  360W        W 4411  10.635   5.067  11.985
  361W        W 4412   6.115   8.451  10.382
  362W        W 4413   1.095   1.404   9.780
  363W        W 4414   6.518   2.921  11.646
  364W        W 4415   2.304  10.828   1.380
  365W        W 4416   1.829   5.527   2.482
  366W        W 4417   9.379   8.801   2.987
  367W        W 4418   4.640  10.767   2.790
  368W        W 4419   5.205   5.459   1.814
  369W        W 4420   8.460   6.951   3.065
  370W        W 4421   7.610   6.583   9.498
  371W        W 4422   5.562   2.617   1.484
  372W        W 4423  11.202  10.496   2.821
  373W        W 4424   7.693   9.430   3.589
  374W        W 4425   5.575   6.663  10.538
  375W        W 4426   1.378   9.914   0.458
  376W        W 4427   9.841   4.748   0.728
  377W        W 4428   7.606   5.220  10.094
  378W        W 4429   2.231   3.710   2.329
  379W        W 4430   1.450   8.125   2.737
  380W        W 4431   3.750   3.729   1.275
  381W        W 4432   9.288   2.492   2.479
  382W        W 4433   5.143   3.214   1.337
  383W        W 4434   5.664   0.382  11.107
  384W        W 4435   5.387   6.047   9.827
  385W        W 4436   4.825   1.158   3.110
  386W        W 4437   9.409   4.623  11.954
  387W        W 4438   4.972  10.558  10.442
  388W        W 4439   8.648   9.878   2.601
  389W        W 4440  11.187   2.648   8.803
  390W        W 4441   2.691   5.941   1.813
  391W        W 4442   2.964   8.039   9.271
  392W        W 4443   2.716   1.978  11.763
  393W        W 4444   0.847   9.362   2.638
  394W        W 4445   5.403   4.473   3.951
  395W        W 4446   2.725   8.646   3.240
  396W        W 4447   1.721   7.910   3.536
  397W        W 4448   5.195   3.653   1.853
  398W        W 4449   6.955   7.559   1.322
  399W        W 4450   3.095   7.444   2.514
  400W        W 4451   3.775   0.488  10.686
  401W        W 4452  11.398   2.568  10.853
  402W        W 4453   5.382  10.843  10.583
  403W        W 4454   1.460   9.175   0.651
  404W        W 4455   8.682  10.511  11.723
  405W        W 4456   4.988   2.400   8.123
  406W        W 4457   3.150   6.575   1.487
  407W        W 4458   0.224   6.545  11.493
  408W        W 4459   3.320   4.759  11.062
  409W        W 4460  10.354   4.149   1.237
  410W        W 4461   3.566   5.547  11.290
  411W        W 4462   5.954  10.410  10.967
  412W        W 4463   7.601   5.080  11.921
  413W        W 4464   2.817   9.130   3.433
  414W        W 4465   6.468  10.059   3.648
  415W        W 4466   3.298   3.395   0.460
  416W        W 4467   8.220   9.060  11.278
  417W        W 4468   2.335   2.276   9.143
  418W        W 4469   8.975   5.391  11.554
  419W        W 4470   5.236   2.603  10.785
  420W        W 4471   9.992   6.635   2.768
  421W        W 4472   6.963   4.651  10.745
  422W        W 4473   4.285   6.982   0.707
  423W        W 4474  11.310   6.055  10.391
  424W        W 4475   1.288   6.477   0.183
  425W        W 4476   9.035   8.909   0.526
  426W        W 4477   6.451   4.054   9.139
  427W        W 4478   2.269   9.663  11.956
  428W        W 4479  10.994   7.487   1.478
  429W        W 4480  10.026  10.775  10.413
  430W        W 4481   3.933   0.168  11.092
  431W        W 4482   7.068   7.526   0.296
  432W        W 4483   7.824   0.869   2.637
  433W        W 4484   7.085   0.253  11.529
  434W        W 4485   8.611   2.259  11.864
  435W        W 4486   4.212   5.706   0.339
  436W        W 4487   4.255   3.766   1.378
  437W        W 4488   5.540   1.953   9.452
  438W        W 4489   8.433   7.112   1.651
  439W        W 4490   7.573   1.700   3.413
  440W        W 4491  10.011  10.834   1.325
  441W        W 4492   8.027   4.113   1.192
  442W        W 4493   5.601   9.651   9.440
  443W        W 4494   1.233   6.501   1.148
  444W        W 4495   9.467   7.912   2.854
  445W        W 4496   7.015  11.285   2.798
  446W        W 4497   5.486   4.179   2.255
  447W        W 4498   2.255   2.782   8.899
  448W        W 4499   0.959  10.896   9.843
  449W        W 4500   2.832   7.617   1.767
  450W        W 4501   4.254  11.134   3.484
  451W        W 4502   4.718   0.774  11.931
  452W        W 4503   7.685   3.694  10.444
  453W        W 4504  10.858   8.837   1.453
  454W        W 4505  10.487   0.575   1.417
  455W        W 4506   3.202   8.115   9.751
  456W        W 4507   3.147   1.632   2.491
  457W        W 4508   9.319   7.549  10.788
  458W        W 4509   2.892  11.160   2.199
  459W        W 4510   7.784   9.277  11.720
  460W        W 4511   9.528   2.605   0.435
  461W        W 4512   7.062   1.697   0.201
  462W        W 4513   4.156   8.764   8.939
  463W        W 4514   0.892   1.365   0.030
  464W        W 4515   7.158   8.870   3.168
  465W        W 4516   3.144   5.665   9.435
  466W        W 4517  10.003   7.073   0.503
  467W        W 4518   5.527   8.419   9.943
  468W        W 4519   0.672   0.958   0.314
  469W        W 4520   1.111   9.481   0.371
  470W        W 4521   7.083   4.320   0.873
  471W        W 4522   2.691  10.794   1.896
  472W        W 4523   4.330  10.777   0.025
  473W        W 4524   9.226  10.061  11.052
  474W        W 4525   3.198   6.466   8.903
  475W        W 4526   5.995   5.737  11.362
  476W        W 4527   5.914   6.052   9.820
  477W        W 4528   2.158   4.860   3.288
  478W        W 4529   9.569   1.062   9.606
  479W        W 4530  10.705   0.884  11.373
  480W        W 4531   4.727   0.646  11.022
  481W        W 4532   2.300   7.608   8.007
  482W        W 4533   2.477   4.819   8.323
  483W        W 4534   7.985   9.573   9.307
  484W        W 4535   3.764   2.551   8.720
  485W        W 4536   4.576   7.128  11.819
  486W        W 4537   3.843   9.037   8.583
  487W        W 4538   0.911   8.396   1.773
  488W        W 4539   9.462   6.520  10.430
  489W        W 4540   3.058   7.140   9.517
  490W        W 4541   5.102  10.741   9.959
  491W        W 4542   7.029   1.801  10.832
  492W        W 4543   5.111   2.332   3.238
  493W        W 4544   2.292   7.177   9.874
  494W        W 4545   3.132   1.827   3.773
  495W        W 4546   7.966   6.080   3.225
  496W        W 4547  11.454   3.399   2.742
  497W        W 4548   5.957   6.437   0.385
  498W        W 4549   4.118  11.287   2.153
  499W        W 4550   0.947   2.684   1.213
  500W        W 4551   5.513   2.727   3.264
  501W        W 4552   4.868   4.336   0.895
  502W        W 4553   9.711   3.360  10.671
  503W        W 4554   5.132   9.830   2.226
  504W        W 4555   6.137  10.818   9.994
  505W        W 4556   1.456   3.319   1.483
  506W        W 4557   7.221   0.835   9.298
  507W        W 4558   0.794   6.563   1.391
  508W        W 4559   9.852   8.478   0.645
  509W        W 4560   1.666   4.028   9.672
  510W        W 4561   4.507   5.285  11.231
  511W        W 4562  10.534  10.063   2.250
  512W        W 4563  11.426   4.715  11.900
  513W        W 4564   8.187   5.459   8.434
  514W        W 4565  10.859   9.332   1.589
  515W        W 4566   1.209   2.802   3.000
  516W        W 4567   7.450   6.577   8.512
  517W        W 4568   0.056   4.837   0.377
  518W        W 4569   2.752   8.578   0.347
  519W        W 4570   2.629   4.637   1.952
  520W        W 4571   4.654  10.238   0.928
  521W        W 4572   3.880   1.723   2.169
  522W        W 4573   7.570   2.412   2.673
  523W        W 4574   2.363   6.971  10.816
  524W        W 4575   6.336   9.527   9.680
  525W        W 4576   6.188   5.082  10.843
  526W        W 4577   3.153   8.650   9.873
  527W        W 4578   8.251   4.793   3.624
  528W        W 4579   8.866   8.555  11.256
  529W        W 4580   3.326   8.084   0.354
  530W        W 4581   7.449   2.686   1.826
  531W        W 4582   6.726   0.794   9.249
  532W        W 4583   9.740   7.547   1.316
  533W        W 4584   8.445   6.081   3.441
  534W        W 4585   0.899   5.599   9.555
  535W        W 4586   1.788  11.000  10.282
  536W        W 4587   4.941   0.082  10.320
  537W        W 4588   8.531   6.638   2.182
  538W        W 4589   1.299   7.483  10.894
  539W        W 4590   0.336   1.680   0.790
  540W        W 4591   5.629   2.810  11.029
  541W        W 4592   5.535   2.320   3.591
  542W        W 4593   6.657   8.697  11.183
  543W        W 4594   3.547   1.002   1.276
  544W        W 4595   7.427   1.302   0.933
  545W        W 4596   7.388   6.154   0.333
  546W        W 4597   0.974   8.578   8.480
  547W        W 4598  11.427   5.195   3.380
  548W        W 4599   9.162   6.100   8.176
  549W        W 4600   3.890  10.801  10.996
  550W        W 4601   0.850   7.897   1.968
  551W        W 4602  10.518   9.916   1.276
  552W        W 4603   5.616   7.151   1.700
  553W        W 4604   7.637  10.078   0.082
  554W        W 4605   2.655   7.584   0.278
  555W        W 4606   9.881   6.501   2.294
  556W        W 4607  10.943   6.482   9.612
  557W        W 4608  10.047   3.312   1.358
  558W        W 4609   1.512  11.346   0.001
  559W        W 4610   7.726   1.934   2.550
  560W        W 4611   9.432   7.036  10.733
  561W        W 4612   0.406   1.167   0.728
  562W        W 4613   5.642   7.948   2.809
  563W        W 4614   6.113  11.299   2.691
  564W        W 4615   1.200   6.574   0.661
  565W        W 4616  10.805  11.293   1.145
  566W        W 4617   4.609   7.083   9.848
  567W        W 4618  11.456   2.595   3.177
  568W        W 4619   5.563   4.169   8.658
  569W        W 4620   2.380   9.081   2.844
  570W        W 4621   2.475   8.168  11.804
  571W        W 4622   9.061  10.493  10.811
  572W        W 4623   0.978   1.866  11.988
  573W        W 4624   1.345   8.667   1.934
  574W        W 4625   6.482   7.170   3.123
  575W        W 4626   4.867   1.997   1.391
  576W        W 4627   9.876   9.790  10.373
  577W        W 4628   9.596   6.785   9.213
  578W        W 4629   1.115   5.683   0.507
  579W        W 4630   5.820  10.462   9.446
  580W        W 4631   8.019   0.570  11.423
  581W        W 4632   9.170   2.163   3.457
  582W        W 4633   6.394   5.734   2.223
  583W        W 4634   1.834   2.203   9.274
  584W        W 4635   9.497   3.138   3.634
  585W        W 4636   4.301   2.649  11.080
  586W        W 4637   5.687   8.696   9.546
  587W        W 4638  10.873   6.759  11.964
  588W        W 4639   8.169  10.967   0.745
  589W        W 4640   1.309   8.989  11.494
  590W        W 4641   2.155   1.802   2.688
  591W        W 4642   2.675   0.346   2.865
  592W        W 4643   3.229   3.719   0.051
  593W        W 4644   4.631   6.166   3.526
  594W        W 4645   9.416   4.356   9.855
  595W        W 4646   4.289   7.961  10.338
  596W        W 4647   0.808   8.933   1.358
  597W        W 4648   7.391   3.131   9.461
  598W        W 4649   5.101   9.504   9.432
  599W        W 4650   3.045   6.055  11.938
  600W        W 4651   0.504   8.563   2.007
  601W        W 4652   4.309   7.171   8.872
  602W        W 4653   9.908   1.982   1.670
  603W        W 4654   0.831   3.536   3.078
  604W        W 4655   2.744   9.367   9.912
  605W        W 4656   7.407   4.862  10.489
  606W        W 4657   4.806   6.637   1.211
  607W        W 4658   7.393   1.688  11.778
  608W        W 4659   9.439   3.149  11.495
  609W        W 4660   8.711   9.883   0.329
  610W        W 4661  10.325   9.456  10.003
  611W        W 4662   2.436   2.283  10.079
  612W        W 4663  10.763   9.526   8.799
  613W        W 4664   6.982   9.952   3.219
  614W        W 4665   3.509   5.087   3.372
  615W        W 4666   5.596   9.723   1.894
  616W        W 4667   5.568   2.429   9.229
  617W        W 4668   8.520  11.327   2.210
  618W        W 4669   6.292   7.048  10.471
  619W        W 4670   2.302   7.686  11.869
  620W        W 4671   1.413   2.813   1.969
  621W        W 4672   0.205   2.216   1.477
  622W        W 4673   4.115   6.355   8.592
  623W        W 4674   6.670   7.208  11.444
  624W        W 4675   0.239   5.354   1.491
  625W        W 4676   0.312   4.254   3.096
  626W        W 4677   3.794  10.240   0.180
  627W        W 4678   8.835   4.331   0.126
  628W        W 4679   1.376   1.025   2.797
  629W        W 4680   2.378   9.585  10.156
  630W        W 4681   7.886   9.311   0.771
  631W        W 4682  11.428   5.636  11.714
  632W        W 4683   5.692   8.500   1.383
  633W        W 4684   7.187  10.221   1.423
  634W        W 4685   2.803   9.578  11.523
  635W        W 4686   6.044   6.888   1.812
  636W        W 4687  10.991   7.425  11.383
  637W        W 4688   1.416   6.688   2.160
  638W        W 4689   3.591  10.440  10.461
  639W        W 4690   3.651   9.486   3.264
  640W        W 4691   0.729   6.744   9.063
  641W        W 4692   8.978   6.811   9.542
  642W        W 4693   8.653   6.629   1.671
  643W        W 4694  11.416   5.760   1.122
  644W        W 4695   3.622   1.820   2.654
  645W        W 4696  10.486   0.727   0.928
  646W        W 4697   1.812  10.163  11.285
  647W        W 4698   4.138   5.702  11.839
  648W        W 4699  11.282   7.457  11.791
  649W        W 4700   8.570   0.543  10.220
  650W        W 4701   6.234   9.766   0.366
  651W        W 4702   1.800   7.314   0.252
  652W        W 4703   4.091   0.450   1.415
  653W        W 4704   5.200   1.662  11.736
  654W        W 4705   8.106   7.119   9.967
  655W        W 4706   8.433   1.177  10.846
  656W        W 4707   5.105   4.465  11.221
  657W        W 4708   7.119   7.130   1.101
  658W        W 4709   0.794   1.886   2.317
  659W        W 4710   7.975   0.333   0.264
  660W        W 4711   5.140  10.042   3.148
  661W        W 4712   0.721   8.886  11.090
  662W        W 4713   5.185   1.849   3.143
  663W        W 4714   2.654   5.210   3.667
  664W        W 4715   5.749   3.162   2.123
  665W        W 4716   3.621   4.857   0.624
  666W        W 4717   8.927   3.753   0.732
  667W        W 4718   7.610   9.171   3.112
  668W        W 4719   7.461   8.145   2.064
  669W        W 4720   1.280  11.366  11.009
  670W        W 4721   0.991   3.033   9.665
  671W        W 4722   9.058   0.259  11.453
  672W        W 4723   5.788   5.747  11.848
  673W        W 4724   4.972  10.249  10.035
  674W        W 4725   3.584   7.028   9.614
  675W        W 4726   6.579  11.088  10.977
  676W        W 4727   9.594   5.503   9.439
  677W        W 4728   2.102   4.201  10.577
  678W        W 4729   7.448   4.229   1.928
  679W        W 4730   0.894   7.621   9.389
  680W        W 4731   2.458  10.364  10.078
  681W        W 4732   7.067  10.564   8.674
  682W        W 4733   7.171  11.144   0.422
  683W        W 4734   0.805   3.360  10.033
  684W        W 4735   4.710   6.169   0.800
  685W        W 4736   3.643   2.390  11.790
  686W        W 4737   2.200   6.243   2.974
  687W        W 4738   8.324   5.263   2.822
  688W        W 4739   8.806   3.791   9.067
  689W        W 4740  10.791   4.862   3.652
  690W        W 4741   5.824  10.554   0.189
  691W        W 4742   2.326  11.315   9.060
  692W        W 4743   5.694   1.794   1.004
  693W        W 4744   8.133   8.263   2.266
  694W        W 4745   2.299   1.718  11.923
  695W        W 4746   1.420   5.165   2.645
  696W        W 4747   5.490   2.656   0.947
  697W        W 4748   3.119   9.453   9.173
  698W        W 4749   2.984   4.135   0.220
  699W        W 4750   4.725   7.230   0.528
  700W        W 4751   9.999   0.850   3.502
  701W        W 4752  10.577   5.165   2.283
  702W        W 4753   8.071   4.608   9.447
  703W        W 4754   1.673   2.360   2.297
  704W        W 4755   9.272   3.270  10.927
  705W        W 4756   7.130   0.931  11.315
  706W        W 4757   9.600   8.968   0.851
  707W        W 4758   4.362   9.940  10.667
  708W        W 4759  10.657   3.202   0.681
  709W        W 4760   4.897   1.288   1.218
  710W        W 4761   1.265   9.757   9.814
  711W        W 4762   6.534   9.970   9.600
  712W        W 4763   2.182   8.643   1.632
  713W        W 4764   1.863   8.557   9.983
  714W        W 4765   9.384   9.409   2.410
  715W        W 4766   2.752   2.194   0.246
  716W        W 4767   3.117   3.164   1.797
  717W        W 4768  10.070   9.590   3.075
  718W        W 4769   0.240   0.568   0.124
  719W        W 4770   4.147   9.506  10.964
  720W        W 4771   5.085   9.402  11.062
  721W        W 4772   9.207   6.579  10.865
  722W        W 4773   8.152  10.018   9.064
  723W        W 4774   7.926   0.353  10.957
  724W        W 4775   8.039   1.454   1.865
  725W        W 4776   1.139   7.974  11.585
  726W        W 4777   7.178   3.674   1.238
  727W        W 4778   0.510   7.689   1.436
  728W        W 4779  10.318   0.247   1.025
  729W        W 4780   6.321   1.693   2.284
  730W        W 4781   2.614   5.590   3.339
  731W        W 4782   3.538   8.393  11.303
  732W        W 4783   0.689  10.394   1.362
  733W        W 4784   3.691   7.921  11.518
  734W        W 4785   5.211   3.062  11.566
  735W        W 4786   6.498   2.811   3.435
  736W        W 4787   0.745   0.655   3.223
  737W        W 4788   7.015   8.433   1.912
  738W        W 4789   5.601   7.808   9.833
  739W        W 4790   5.855  10.531   2.118
  740W        W 4791   0.493  11.028   0.666
  741W        W 4792   8.295   6.363  10.984
  742W        W 4793  11.432   7.639   9.656
  743W        W 4794   1.536   7.936  10.897
  744W        W 4795   2.219   1.253   1.010
  745W        W 4796   5.668   5.536   2.737
  746W        W 4797   9.982   8.178   1.058
  747W        W 4798   3.267  10.822   0.849
  748W        W 4799  10.855   8.660   8.795
  749W        W 4800   6.692   3.219   8.915
  750W        W 4801   2.748   4.229  11.207
  751W        W 4802  10.391   5.562   1.884
  752W        W 4803  11.406   4.553   1.690
  753W        W 4804   5.041   2.097   9.540
  754W        W 4805   8.572   7.202  11.171
  755W        W 4806  10.890   4.685   1.699
  756W        W 4807   4.785   2.661  10.979
  757W        W 4808   0.937   9.020   9.209
  758W        W 4809   7.126   4.277   9.964
  759W        W 4810   9.032  11.491   9.535
  760W        W 4811  11.451   5.678  10.743
  761W        W 4812   5.702   1.133   1.822
  762W        W 4813   0.699   0.343  10.959
  763W        W 4814  10.861   7.035   1.727
  764W        W 4815  10.135   4.490   9.867
  765W        W 4816   6.669   9.117  11.699
  766W        W 4817   2.098   6.855   3.642
  767W        W 4818   7.621   0.718   2.040
  768W        W 4819  10.019   5.674  10.638
  769W        W 4820   2.607   1.799   1.759
  770W        W 4821   4.202   1.769   3.092
  771W        W 4822   6.776   5.154   0.442
  772W        W 4823   1.943   0.679   0.209
  773W        W 4824   8.537   8.957   2.740
  774W        W 4825   5.077   6.670  10.320
  775W        W 4826   6.996   1.038   3.615
  776W        W 4827   9.672   4.987   3.878
  777W        W 4828   6.268   5.737   1.230
  778W        W 4829   0.839   5.081   1.729
  779W        W 4830   7.834   4.675  10.735
  780W        W 4831   0.034   8.585   9.445
  781W        W 4832   5.952  10.104  10.484
  782W        W 4833   4.822   5.664   2.096
  783W        W 4834  10.884   0.894   1.304
  784W        W 4835   6.693   2.607   9.393
  785W        W 4836   6.009   2.096   2.220
  786W        W 4837  10.277   0.253  10.716
  787W        W 4838  10.511   5.632  10.480
  788W        W 4839   9.380   7.667   3.436
  789W        W 4840   2.831   8.570   2.744
  790W        W 4841   1.192   9.655   1.743
  791W        W 4842   5.784  10.071   0.392
  792W        W 4843   6.597   3.183  11.183
  793W        W 4844   7.488   7.637   1.262
  794W        W 4845   5.580   1.816   3.466
  795W        W 4846   6.379  10.600  11.213
  796W        W 4847   7.420   7.693   2.317
  797W        W 4848   7.553   6.724  11.417
  798W        W 4849  10.542   6.577  10.371
  799W        W 4850   8.595   9.892   8.782
  800W        W 4851   9.120   8.973  11.152
  801W        W 4852  11.441   5.597   1.849
  802W        W 4853   0.889  10.072   0.359
  803W        W 4854   2.729   6.621  10.944
  804W        W 4855  10.351   5.122   3.146
  805W        W 4856   9.987   1.701  10.268
  806W        W 4857   6.459   3.811   9.593
  807W        W 4858   1.347   5.465   3.220
  808W        W 4859   0.066  11.339  10.667
  809W        W 4860   9.562   0.238   0.521
  810W        W 4861   5.054   0.460   0.808
  811W        W 4862   3.645   2.327   1.205
  812W        W 4863  10.008   0.255   0.273
  813W        W 4864   4.572   2.198   0.968
  814W        W 4865   2.556   8.348   0.786
  815W        W 4866   0.553   9.191   0.796
  816W        W 4867   5.924   7.827  -0.001
  817W        W 4868   6.517   5.149   1.869
  818W        W 4869   4.771   8.333   1.538
  819W        W 4870   3.206   1.384   2.047
  820W        W 4871  10.419   0.603   9.388
  821W        W 4872   3.857   0.372   9.680
  822W        W 4873   6.265   7.195   9.479
  823W        W 4874   2.225   5.229   9.488
  824W        W 4875   5.436   0.795   9.846
  825W        W 4876   0.915   8.340   3.526
  826W        W 4877   5.641   9.942  11.859
  827W        W 4878   2.178   3.383   2.797
  828W        W 4879  11.380   7.027  10.513
  829W        W 4880   2.720   4.510   0.953
  830W        W 4881   1.434   9.921   9.359
  831W        W 4882   7.040   4.832   0.748
  832W        W 4883   1.839   8.148   1.391
  833W        W 4884   7.808   4.203   8.677
  834W        W 4885  10.914   2.100   2.255
  835W        W 4886  11.307   9.929   0.752
  836W        W 4887   1.177   0.557   2.915
  837W        W 4888   7.779  10.648   0.772
  838W        W 4889   0.713   8.891   2.788
  839W        W 4890  10.010   5.649   0.975
  840W        W 4891   8.042  10.753   1.224
  841W        W 4892   6.273   9.164   3.148
  842W        W 4893   1.514   6.225   9.876
  843W        W 4894   6.427   0.296  11.663
  844W        W 4895   0.959   8.406   9.858
  845W        W 4896   6.674   9.417   1.065
  846W        W 4897  10.844   2.182   1.750
  847W        W 4898   4.216  10.793   2.480
  848W        W 4899   2.650   3.677   2.035
  849W        W 4900   7.881   0.363   2.712
  850W        W 4901   6.578   8.124  11.327
  851W        W 4902   0.667   2.144   1.733
  852W        W 4903   0.773   0.798   0.796
  853W        W 4904   1.280   3.109  11.575
  854W        W 4905  11.355   4.051   3.501
  855W        W 4906   2.360   2.452   0.460
  856W        W 4907   8.359   7.499   2.304
  857W        W 4908   1.205   9.398   9.446
  858W        W 4909   4.262  11.292  11.336
  859W        W 4910   1.757   5.077   1.682
  860W        W 4911   3.823   9.282   0.423
  861W        W 4912   3.537  11.400  11.935
  862W        W 4913   7.494   5.006   0.931
  863W        W 4914   2.559   4.630  11.796
  864W        W 4915   7.743   1.433   0.568
  865W        W 4916   7.905   1.930   0.711
  866W        W 4917   0.952   2.731   8.462
  867W        W 4918   3.185   7.487   1.069
  868W        W 4919   2.708   4.098   1.252
  869W        W 4920   6.975   0.316   2.755
  870W        W 4921   2.509   8.061   8.146
  871W        W 4922   4.901   2.835   4.029
  872W        W 4923   4.269   3.364  11.494
  873W        W 4924   2.257   3.825   1.324
  874W        W 4925  11.171   7.698   0.777
  875W        W 4926   1.014   8.897   0.423
  876W        W 4927   8.458   1.751   3.206
  877W        W 4928   1.358  10.037  11.731
  878W        W 4929   9.914   8.977   9.387
  879W        W 4930   0.340   2.730   0.040
  880W        W 4931   9.770   7.464   8.527
  881W        W 4932   3.930   2.165   2.883
  882W        W 4933   6.942   5.844  10.345
  883W        W 4934   4.219   2.202   3.374
  884W        W 4935   4.301   0.850   2.205
  885W        W 4936   7.749  10.161   0.572
  886W        W 4937   0.487   6.274   1.679
  887W        W 4938   0.306   1.878  10.296
  888W        W 4939  11.415   4.678  10.562
  889W        W 4940   3.601   0.464   2.749
  890W        W 4941   5.697   1.333   0.765
  891W        W 4942   1.155  10.422   9.500
  892W        W 4943  10.918  10.407   9.289
  893W        W 4944   6.258  10.246   0.207
  894W        W 4945   4.541  11.160   9.170
  895W        W 4946   4.187   4.697   2.816
  896W        W 4947   6.634   9.486  10.480
  897W        W 4948  11.336   7.625   9.134
  898W        W 4949  10.322   9.576  10.512
  899W        W 4950   3.892   6.164  10.662
  900W        W 4951   4.103   4.110   9.268
  901W        W 4952   1.686   9.515   8.593
  902W        W 4953   1.330   8.680   1.063
  903W        W 4954   0.862   6.372   2.944
  904W        W 4955   3.604  11.435   9.535
  905W        W 4956   4.828   8.412   2.850
  906W        W 4957   8.335  10.221   2.812
  907W        W 4958   5.574  10.592   2.974
  908W        W 4959   7.580   8.448  10.372
  909W        W 4960   0.203   1.440  11.898
  910W        W 4961   5.990   3.193   0.126
  911W        W 4962   0.638   7.066   9.487
  912W        W 4963   3.404   8.890   1.954
  913W        W 4964  11.288   8.017   3.072
  914W        W 4965   1.707   7.342   2.952
  915W        W 4966   3.083   5.278   8.209
  916W        W 4967   8.159   2.793  11.275
  917W        W 4968   9.268   0.381   2.723
  918W        W 4969   8.655   1.078   2.623
  919W        W 4970   9.378   2.153   0.315
  920W        W 4971  10.960  10.554   0.761
  921W        W 4972   2.266   9.104   9.975
  922W        W 4973   6.608   1.979   1.463
  923W        W 4974   5.760   1.653   1.914
  924W        W 4975   4.296   0.742  11.379
  925W        W 4976   6.122   3.803   0.400
  926W        W 4977   4.740   6.263  10.313
  927W        W 4978   0.319   2.274  10.905
  928W        W 4979   8.021   7.967   1.367
  929W        W 4980   6.587  10.425  10.764
  930W        W 4981   2.120   4.294   0.509
  931W        W 4982   3.183   5.536  10.517
  932W        W 4983   4.486   8.828   9.341
  933W        W 4984  10.383   2.417  10.912
  934W        W 4985   9.675   4.127   1.850
  935W        W 4986   1.552   6.361   3.515
  936W        W 4987   5.129   1.977   3.650
  937W        W 4988   3.315  10.177   2.738
  938W        W 4989   8.562   3.347   3.114
  939W        W 4990   6.189   1.389   2.689
  940W        W 4991  11.008   3.649   1.418
  941W        W 4992   8.539   6.155   9.164
  942W        W 4993  11.124   8.073   3.550
  943W        W 4994   8.044  11.442   8.924
  944W        W 4995   5.937  10.404   2.628
  945W        W 4996   3.594   6.383   2.700
  946W        W 4997   3.667   3.714   3.050
  947W        W 4998   9.420  10.521  10.286
  948W        W 4999   0.428   7.001   2.555
  949W        W 5000   2.120   9.961   2.839
  950W        W 5001   9.770   3.271  11.877
  951W        W 5002   7.610   2.223  10.926
  952W        W 5003   8.996  11.063   0.400
  953W        W 5004   9.293   5.094   1.466
  954W        W 5005   6.734   8.902   9.207
  955W        W 5006   8.282   9.147  11.781
  956W        W 5007   5.734   3.759   1.632
  957W        W 5008   1.326   3.784   2.881
  958W        W 5009   5.231   8.049   9.619
  959W        W 5010   0.980   1.658   1.449
  960W        W 5011   0.302   9.489   1.480
  961W        W 5012  10.384   3.204   2.188
  962W        W 5013   2.651  10.906   8.950
  963W        W 5014   5.750   7.175  11.287
  964W        W 5015   1.390   0.431   3.406
  965W        W 5016   8.604   5.907  10.961
  966W        W 5017   5.170   4.625  11.755
  967W        W 5018   1.022   0.636   1.754
  968W        W 5019   5.633   7.566  10.990
  969W        W 5020   2.134   5.967  10.905
  970W        W 5021   9.471   5.186   3.422
  971W        W 5022   3.772   8.030   8.916
  972W        W 5023   4.160   7.644   9.038
  973W        W 5024   7.145   2.317   3.011
  974W        W 5025   8.747   4.955  10.762
  975W        W 5026   0.803   0.192   1.861
  976W        W 5027   4.373   1.332   1.370
  977W        W 5028   6.993   2.756   9.000
  978W        W 5029   7.628   3.881   3.278
  979W        W 5030  11.494   4.273   0.163
  980W        W 5031   2.676   8.512   1.703
  981W        W 5032  10.873  10.355   0.291
  982W        W 5033   3.153   2.904   9.151
  983W        W 5034   1.364   2.775  11.008
  984W        W 5035   3.271   9.833   8.850
  985W        W 5036   5.059   5.867  11.355
  986W        W 5037   5.137   9.605   8.061
  987W        W 5038  10.946   8.096   2.689
  988W        W 5039   6.438   9.129   1.864
  989W        W 5040   5.667  10.128   8.545
  990W        W 5041   7.039   8.390   9.084
  991W        W 5042   6.011   5.555   9.647
  992W        W 5043   8.896   5.531  10.569
  993W        W 5044   7.464   3.602   0.781
  994W        W 5045   6.307   2.679   2.892
  995W        W 5046   8.088   5.535   0.692
  996W        W 5047   1.443   6.242   8.997
  997W        W 5048   6.662   0.070  10.858
  998W        W 5049   8.068   6.423   0.293
  999W        W 5050  10.573   4.501   9.603
 1000W        W 5051   9.556   3.546   2.660
 1001W        W 5052   4.179   2.840  10.028
 1002W        W 5053   0.340   4.545   9.818
 1003W        W 5054  10.004   9.083  11.519
 1004W        W 5055   2.650   6.599   2.913
 1005W        W 5056   3.317  10.492   3.199
 1006W        W 5057   9.952   1.776   3.459
 1007W        W 5058   9.403   5.549  11.753
 1008W        W 5059   7.967   9.979   3.263
 1009W        W 5060   1.228   4.560   9.856
 1010W        W 5061   9.035   9.383  11.469
 1011W        W 5062   3.602   0.418   0.044
 1012W        W 5063   3.068   3.092   8.380
 1013W        W 5064   0.246   9.121   0.064
 1014W        W 5065   8.151   8.935   0.580
 1015W        W 5066   9.747   6.628   0.413
 1016W        W 5067   9.326   9.389   9.940
 1017W        W 5068   5.232   1.933   0.727
 1018W        W 5069   3.144   2.380   2.161
 1019W        W 5070   9.315   5.913   1.945
 1020W        W 5071   0.945   1.522  11.092
 1021W        W 5072   2.886   1.622  10.475
 1022W        W 5073   3.768   0.281   9.173
 1023W        W 5074   0.408   6.460   3.284
 1024W        W 5075   1.836   3.611   9.395
 1025W        W 5076   9.846  10.017   3.234
 1026W        W 5077   5.947   0.493   9.284
 1027W        W 5078  11.370   7.030   1.710
 1028W        W 5079   7.669   2.609  11.941
 1029W        W 5080   8.444   0.252   0.455
 1030W        W 5081   5.770  10.919   9.190
 1031W        W 5082   8.436   8.093   9.090
 1032W        W 5083   0.306   5.166   3.010
 1033W        W 5084   4.814   8.911   0.940
 1034W        W 5085   0.554   3.979  11.879
 1035W        W 5086   0.410   6.277   9.766
 1036W        W 5087   8.748   1.443  11.783
 1037W        W 5088  11.256  11.184  10.284
 1038W        W 5089   2.611   8.127   2.096
 1039W        W 5090   3.636   8.420   9.727
 1040W        W 5091   7.880   6.961   2.605
 1041W        W 5092   9.575   2.370  11.093
 1042W        W 5093   6.942   0.800   1.300
 1043W        W 5094   6.237   6.355   8.552
 1044W        W 5095   2.183   8.322  10.722
 1045W        W 5096   0.919   1.372   9.071
 1046W        W 5097   2.064   6.853   9.518
 1047W        W 5098   9.790  10.275   8.952
 1048W        W 5099  11.054   7.691  10.491
 1049W        W 5100   1.198   1.947   0.706
 1050W        W 5101   8.592   9.953   1.154
 1051W        W 5102   6.050   8.167   3.060
 1052W        W 5103  11.040   9.838   0.332
 1053W        W 5104   4.802   9.797   2.632
 1054W        W 5105   6.148   1.381   1.158
 1055W        W 5106   1.757  11.251  11.106
 1056W        W 5107   9.386   6.629   0.074
 1057W        W 5108   8.297   0.262   3.017
 1058W        W 5109   2.436   0.729   0.314
 1059W        W 5110   2.585   6.144  11.042
 1060W        W 5111   3.760   0.066   0.386
 1061W        W 5112   7.968   8.971   1.583
 1062W        W 5113   6.639   8.937   0.301
 1063W        W 5114   0.888   3.399  11.444
 1064W        W 5115   0.834   6.779  10.905
 1065W        W 5116   8.160   6.659   1.771
 1066W        W 5117   2.424   4.828   1.206
 1067W        W 5118   9.413   2.439  10.633
 1068W        W 5119   5.093   2.645   1.281
 1069W        W 5120   0.887   3.664  10.886
 1070W        W 5121   7.564   7.214   0.319
 1071W        W 5122  10.131   7.900   0.681
 1072W        W 5123   6.709   9.317   9.989
 1073W        W 5124   9.854  10.117   1.821
 1074W        W 5125   2.201   4.672   0.164
 1075W        W 5126   2.215   7.935   2.379
 1076W        W 5127  11.191   6.485  11.261
 1077W        W 5128  10.944  10.019  10.063
 1078W        W 5129   1.594   2.349   1.447
 1079W        W 5130   6.512   1.716   1.002
 1080W        W 5131   1.934   1.343   9.398
 1081W        W 5132  11.378   7.233   0.801
 1082W        W 5133   9.874  10.834   9.915
 1083W        W 5134   1.179   9.566   0.865
 1084W        W 5135   0.712   2.302  11.292
 1085W        W 5136   9.515  10.372   0.027
 1086W        W 5137   9.329   7.610   1.004
 1087W        W 5138  10.871   7.189   3.087
 1088W        W 5139   6.604   1.473   1.465
 1089W        W 5140   5.516   6.685   1.829
 1090W        W 5141   9.417   1.886  11.060
 1091W        W 5142   9.288   1.415  11.842
 1092W        W 5143   4.706   7.754   2.960
 1093W        W 5144   6.529   3.748  10.924
 1094W        W 5145   5.161   8.027   3.017
 1095W        W 5146   9.517   8.878  10.812
 1096W        W 5147   9.461   1.643   1.585
 1097W        W 5148   2.918   9.494   2.177
 1098W        W 5149  11.314   5.113   2.878
 1099W        W 5150   7.614   9.318  10.483
 1100W        W 5151   2.872   0.940  11.433
 1101W        W 5152   2.282   4.366   9.823
 1102W        W 5153   3.775   7.981  11.021
 1103W        W 5154   5.146   6.672  10.838
 1104W        W 5155   9.756   7.012   0.963
 1105W        W 5156   0.180   2.833   8.997
 1106W        W 5157   3.741  10.365   2.923
 1107W        W 5158   3.201  11.364  10.616
 1108W        W 5159  10.977  10.826   2.518
 1109W        W 5160  10.820   6.323   2.772
 1110W        W 5161  11.122  11.116  11.515
 1111W        W 5162   0.382   6.019  10.756
 1112W        W 5163   8.173   2.813   1.249
 1113W        W 5164   7.499   2.637   9.032
 1114W        W 5165   7.079   7.013   2.069
 1115W        W 5166   0.343   9.030   3.112
 1116W        W 5167   9.868   1.770   1.194
 1117W        W 5168   2.907   5.485   0.722
 1118W        W 5169   7.956   8.376  11.315
 1119W        W 5170   7.925   0.675   3.121
 1120W        W 5171   8.950   8.654   2.767
 1121W        W 5172   2.092   0.857   0.691
 1122W        W 5173   8.005   3.872  10.076
 1123W        W 5174   9.369   7.428   9.849
 1124W        W 5175   0.855   0.499   8.833
 1125W        W 5176   4.745   4.357   2.932
 1126W        W 5177   7.044   5.028  11.326
 1127W        W 5178  11.013   4.080   0.613
 1128W        W 5179   4.422   1.289   2.749
 1129W        W 5180   2.549   4.210  10.218
 1130W        W 5181   6.430   2.775   1.668
 1131W        W 5182   3.295   0.440   9.427
 1132W        W 5183   7.041   2.974   9.821
 1133W        W 5184   5.181   4.030   8.355
 1134W        W 5185   0.063   2.852  11.234
 1135W        W 5186   6.837  10.736   0.582
 1136W        W 5187   2.691  10.812   9.920
 1137W        W 5188   4.565   2.210  11.932
 1138W        W 5189   7.095   6.517  11.412
 1139W        W 5190  10.252   4.043  10.418
 1140W        W 5191   7.890   5.034   1.473
 1141W        W 5192   6.338   3.290   3.257
 1142W        W 5193   4.290   4.209   2.648
 1143W        W 5194  11.364   7.505   3.189
 1144W        W 5195   1.258   6.668   9.758
 1145W        W 5196   9.458   4.037   2.842
 1146W        W 5197   4.740   4.118   8.634
 1147W        W 5198  10.035   8.615   1.930
 1148W        W 5199   0.887   7.712  10.675
 1149W        W 5200   8.983   5.615   0.980
 1150W        W 5201   0.925   0.227  10.215
 1151W        W 5202   1.170  10.201   2.836
 1152W        W 5203  10.109   3.061  10.538
 1153W        W 5204  11.039   1.165   0.537
 1154W        W 5205   4.594   2.269   2.385
 1155W        W 5206   7.340   1.457   9.062
 1156W        W 5207   3.811   0.387  10.197
 1157W        W 5208   2.498   1.760   8.813
 1158W        W 5209   6.675  10.928   8.726
 1159W        W 5210   3.836   4.624  11.355
 1160W        W 5211   6.172   2.952  10.345
 1161W        W 5212   3.051   5.548   8.872
 1162W        W 5213   0.267   3.159  10.831
 1163W        W 5214   2.439   4.626  11.307
 1164W        W 5215   0.114   1.781   8.837
 1165W        W 5216   4.239   5.027   9.564
 1166W        W 5217  10.047   1.711   2.619
 1167W        W 5218   9.066   4.280   2.597
 1168W        W 5219  11.260   3.111  10.875
 1169W        W 5220   8.365   1.755   0.861
 1170W        W 5221   1.262   8.457  11.548
 1171W        W 5222   6.925   6.213   9.130
 1172W        W 5223  11.398   3.183   1.340
 1173W        W 5224  10.649   1.853   3.935
 1174W        W 5225   1.155  10.298  10.407
 1175W        W 5226   9.075   9.003   2.000
 1176W        W 5227   8.943   1.885  11.939
 1177W        W 5228   4.283   9.940   2.781
 1178W        W 5229   8.979   6.927   1.206
 1179W        W 5230   6.870   3.103   9.373
 1180W        W 5231   6.212   8.480  11.277
 1181W        W 5232   9.427   3.583   3.152
 1182W        W 5233   8.558   2.074   1.280
 1183W        W 5234   8.502   8.052   2.761
 1184W        W 5235   9.878   9.320  10.647
 1185W        W 5236   7.472   2.791   2.333
 1186W        W 5237   8.952   7.148  10.840
 1187W        W 5238  10.802   9.789   1.871
 1188W        W 5239   4.750   9.486   8.463
 1189W        W 5240   8.139   1.788   2.263
 1190W        W 5241   8.018   6.439  11.443
 1191W        W 5242   7.593   5.321  10.607
 1192W        W 5243   7.062   9.069   0.003
 1193W        W 5244   7.116  10.983   9.022
 1194W        W 5245   8.897   4.581   8.630
 1195W        W 5246   4.175   2.595   2.996
 1196W        W 5247   5.669   3.857   0.722
 1197W        W 5248   1.261   6.546  11.278
 1198W        W 5249   8.491   8.990   3.230
 1199W        W 5250   4.135   0.471   8.830
 1200W        W 5251   8.720  10.904   0.955
 1201W        W 5252   6.555   8.449   9.683
 1202W        W 5253   2.331   8.648  10.340
 1203W        W 5254   0.505   1.021  11.831
 1204W        W 5255   0.394   4.385   1.721
 1205W        W 5256   0.424   0.477   2.080
 1206W        W 5257  11.301  10.771   0.407
 1207W        W 5258  10.518   4.803  10.013
 1208W        W 5259   1.803   1.747  10.098
 1209W        W 5260   6.477   4.730   0.388
 1210W        W 5261   1.216   4.983   3.245
 1211W        W 5262  10.343   6.268  11.241
 1212W        W 5263   6.113   9.620  10.575
 1213W        W 5264  10.895   7.893   1.787
 1214W        W 5265   3.306   8.330   8.931
 1215W        W 5266   2.294   6.167   9.324
 1216W        W 5267   9.879   5.427   8.712
 1217W        W 5268  10.407   2.145   9.580
 1218W        W 5269   1.851   0.209   2.711
 1219W        W 5270   3.373   1.290   8.785
 1220W        W 5271   7.191   7.284  10.057
 1221W        W 5272   8.577  10.778   0.471
 1222W        W 5273   6.416   7.991   8.995
 1223W        W 5274   6.638   5.426   0.043
 1224W        W 5275   7.473   1.540   2.381
 1225W        W 5276   6.668   9.516   3.251
 1226W        W 5277   3.459   8.634  11.764
 1227W        W 5278   5.915   2.934   0.844
 1228W        W 5279  10.885   5.539  10.054
 1229W        W 5280   2.420   1.781  11.404
 1230W        W 5281   7.222  10.670   0.225
 1231W        W 5282   0.028  10.892   0.897
 1232W        W 5283   3.268   7.450   2.040
 1233W        W 5284   8.904   7.583  11.099
 1234W        W 5285   6.248  10.010  10.920
 1235W        W 5286   3.731  10.922  10.005
 1236W        W 5287  10.072   9.100   1.786
 1237W        W 5288   3.801   7.043   0.506
 1238W        W 5289   9.402   7.141   1.863
 1239W        W 5290   3.626   9.382   9.234
 1240W        W 5291   3.832   9.867   1.206
 1241W        W 5292   1.314   5.322   9.431
 1242W        W 5293  11.341   8.537   8.966
 1243W        W 5294   8.231   6.370   8.790
 1244W        W 5295   6.896  11.433   3.280
 1245W        W 5296   2.389   1.328   9.136
 1246W        W 5297   6.391   9.141  11.282
 1247W        W 5298   3.129   1.843   9.532
 1248W        W 5299   6.566   2.461  11.890
 1249W        W 5300   3.728   9.823   2.053
 1250W        W 5301   6.178  11.064  11.291
 1251W        W 5302   7.142   7.073   0.563
 1252W        W 5303   2.317   9.886   1.770
 1253W        W 5304   8.497   9.412  11.055
 1254W        W 5305   5.523   5.642   9.533
 1255W        W 5306   7.640   7.993  10.146
 1256W        W 5307   1.143   0.361  11.222
 1257W        W 5308   1.325   8.136   1.928
 1258W        W 5309   7.547  10.873  11.454
 1259W        W 5310   1.691   4.558   9.575
 1260W        W 5311   8.839   1.654   2.856
 1261W        W 5312   5.147   8.633   0.324
 1262W        W 5313   5.635  10.020   1.449
 1263W        W 5314   9.866  10.290  10.335
 1264W        W 5315   9.045   3.718   8.622
 1265W        W 5316   5.657   8.657   0.463
 1266W        W 5317   2.029  11.284  11.918
 1267W        W 5318   7.434   4.001  11.937
 1268W        W 5319   4.599   6.737   2.922
 1269W        W 5320   5.356   5.073   2.629
 1270W        W 5321   9.499   3.014   2.480
 1271W        W 5322   9.150   1.234  10.041
 1272W        W 5323   0.625   0.551  10.495
 1273W        W 5324   4.544  10.363   8.516
 1274W        W 5325   1.239   3.557   9.861
 1275W        W 5326   0.745   0.069  11.397
 1276W        W 5327   0.619   7.144   1.274
 1277W        W 5328  10.424  10.831  11.002
 1278W        W 5329   1.928   5.055   2.641
 1279W        W 5330   1.462   9.735   1.271
 1280W        W 5331   3.659   2.350   0.691
 1281W        W 5332   6.718   6.858   2.382
 1282W        W 5333   8.449   7.108   0.335
 1283W        W 5334   5.280   3.303   2.247
 1284W        W 5335   0.254   2.312   9.104
 1285W        W 5336   1.752   6.876   2.737
 1286W        W 5337   5.268   0.189   0.402
 1287W        W 5338   0.059  10.291   2.374
 1288W        W 5339   6.745   9.970  10.983
 1289W        W 5340   5.990   8.476  11.766
 1290W        W 5341   8.071   7.244  11.110
 1291W        W 5342   9.816   9.417   0.685
 1292W        W 5343   2.390  11.345   0.280
 1293W        W 5344   2.375   9.425   0.399
 1294W        W 5345   8.483   5.607   3.599
 1295W        W 5346   4.256   3.562   0.914
 1296W        W 5347   6.974   2.355  10.990
 1297W        W 5348   8.431   3.275   9.475
 1298W        W 5349   9.187  10.113   0.409
 1299W        W 5350  10.179   8.600  11.579
 1300W        W 5351  11.423   8.643   9.927
 1301W        W 5352   6.513   0.638   0.061
 1302W        W 5353   6.164  10.928   3.400
 1303W        W 5354   0.151   7.197   9.816
 1304W        W 5355   2.890   7.543   2.972
 1305W        W 5356   0.421   9.003   1.736
 1306W        W 5357  10.529   8.500  11.959
 1307W        W 5358   7.198   5.667   1.083
 1308W        W 5359   3.392   5.253   9.131
 1309W        W 5360   9.904   8.155   2.819
 1310W        W 5361   2.900   5.484   1.748
 1311W        W 5362   2.405   3.316   1.184
 1312W        W 5363   3.878   1.299   8.615
 1313W        W 5364   8.714   6.664  10.830
 1314W        W 5365  10.419   1.495  10.440
 1315W        W 5366   7.155   6.503   3.170
 1316W        W 5367  11.476   6.130  11.998
 1317W        W 5368   0.181   1.059   0.267
 1318W        W 5369  11.444   3.382  10.442
 1319W        W 5370   8.886   3.229   8.574
 1320W        W 5371   0.064   6.094   1.910
 1321W        W 5372   6.004   4.101   9.437
 1322W        W 5373   9.904   3.725   0.667
 1323W        W 5374   4.646   8.534   0.449
 1324W        W 5375  10.808   3.466   2.361
 1325W        W 5376   0.465  10.006   2.211
 1326W        W 5377   5.056  11.450   0.826
 1327W        W 5378   7.265   6.193  10.594
 1328W        W 5379   3.782  11.139  11.424
 1329W        W 5380   2.658   9.321  11.944
 1330W        W 5381  10.603   7.865   0.509
 1331W        W 5382   1.707   4.865  11.034
 1332W        W 5383   6.913  11.379   9.509
 1333W        W 5384   1.873   8.831   0.285
 1334W        W 5385   8.548   2.343   2.361
 1335W        W 5386   3.663   2.859   0.727
 1336W        W 5387  10.681  11.403   0.661
 1337W        W 5388   2.863   4.183   2.660
 1338W        W 5389   3.148   0.303   1.531
 1339W        W 5390   0.269   5.531   9.814
 1340W        W 5391   6.315  10.448  10.308
 1341W        W 5392   4.926   0.658   1.680
 1342W        W 5393   0.241   3.131   0.389
 1343W        W 5394   2.949   0.135  10.179
 1344W        W 5395   0.480   3.085  11.428
 1345W        W 5396   1.981   8.115  11.906
 1346W        W 5397   4.602   7.579  11.570
 1347W        W 5398   7.316   0.522   8.915
 1348W        W 5399   6.578   7.885   2.353
 1349W        W 5400   7.546   2.287   0.779
 1350W        W 5401   3.773   5.207   0.257
 1351W        W 5402   3.703   4.491   1.896
 1352W        W 5403   8.140   4.627   8.654
 1353W        W 5404   7.851   8.462  11.943
 1354W        W 5405   5.491   8.956   8.583
 1355W        W 5406   0.865   9.234   3.141
 1356W        W 5407   2.799   2.107  10.365
 1357W        W 5408   0.509   1.309   2.650
 1358W        W 5409   5.318  11.360   1.752
 1359W        W 5410  10.279   9.496  11.351
 1360W        W 5411  10.724  10.402   1.317
 1361W        W 5412   2.781   2.393   0.779
 1362W        W 5413   8.010   6.005   4.125
 1363W        W 5414   2.319  10.870  11.799
 1364W        W 5415   6.983   1.517   0.731
 1365W        W 5416   0.012   9.919   8.818
 1366W        W 5417   0.485   3.060   9.771
 1367W        W 5418  10.636   3.911   0.285
 1368W        W 5419   2.815   3.762   9.456
 1369W        W 5420   4.597   9.482  10.697
 1370W        W 5421   5.661   1.728   2.945
 1371W        W 5422   3.407   1.417   2.885
 1372W        W 5423   5.287   9.457   8.538
 1373W        W 5424   0.219   0.324  10.760
 1374W        W 5425  10.907  10.136  11.270
 1375W        W 5426   4.616  10.067   2.213
 1376W        W 5427   4.930   0.784   9.775
 1377W        W 5428   4.046   4.617   3.541
 1378W        W 5429  10.534   7.226  11.514
 1379W        W 5430   6.792   3.658   9.175
 1380W        W 5431   4.530   4.466   9.556
 1381W        W 5432   3.812   0.388  11.576
 1382W        W 5433  10.883   4.167   1.138
 1383W        W 5434   5.222   9.911   3.644
 1384W        W 5435   4.354   1.432   9.952
 1385W        W 5436   7.473   0.820   3.396
 1386W        W 5437   9.070   0.797   2.459
 1387W        W 5438   8.542   7.584   9.278
 1388W        W 5439   3.690   2.652   9.271
 1389W        W 5440   8.551   7.541   2.791
 1390W        W 5441   9.026   4.612   1.316
 1391W        W 5442   8.587   2.587   0.527
 1392W        W 5443   6.096   3.291   1.160
 1393W        W 5444   2.739   7.955   2.630
 1394W        W 5445   3.204  10.315   0.098
 1395W        W 5446  10.611   9.829  10.900
 1396W        W 5447   7.603   4.371   1.454
 1397W        W 5448   2.388   7.861  10.738
 1398W        W 5449   8.623   6.377  11.716
 1399W        W 5450   8.958   9.630  11.015
 1400W        W 5451   5.771   0.380   0.495
 1401W        W 5452   6.075   8.091   8.592
 1402W        W 5453   6.052   7.289   4.043
 1403W        W 5454   4.087  10.966   9.039
 1404W        W 5455   0.881   3.902  11.362
 1405W        W 5456   4.344   8.834   0.748
 1406W        W 5457   2.786   2.480  11.828
 1407W        W 5458   7.787   6.664   9.983
 1408W        W 5459   9.562   2.888   9.458
 1409W        W 5460  10.086   9.003   9.860
 1410W        W 5461   3.666   0.790   8.965
 1411W        W 5462   4.738   9.062  11.468
 1412W        W 5463   8.776  10.917   2.386
 1413W        W 5464   3.864   5.265  10.560
 1414W        W 5465   6.672   3.783   0.249
 1415W        W 5466   8.036   9.611   9.868
 1416W        W 5467   9.085   5.735   2.799
 1417W        W 5468   7.672   4.166  11.032
 1418W        W 5469  10.725   9.801  11.789
 1419W        W 5470   3.141   9.095  10.150
 1420W        W 5471   5.832   5.212  11.613
 1421W        W 5472   3.376   6.064  10.668
 1422W        W 5473   6.537   6.660   1.699
 1423W        W 5474   9.551   6.160  10.818
 1424W        W 5475   6.928  10.862  10.666
 1425W        W 5476   8.138   8.979   1.095
 1426W        W 5477   3.335   8.054  10.227
 1427W        W 5478   4.224   2.323  10.458
 1428W        W 5479  10.830   2.777   9.170
 1429W        W 5480   0.474  10.966   1.191
 1430W        W 5481   0.975  11.342   1.406
 1431W        W 5482   8.914   7.320   9.531
 1432W        W 5483   2.165   3.414   1.896
 1433W        W 5484   9.156   7.080  11.940
 1434W        W 5485   2.902   7.883  11.924
 1435W        W 5486   2.372   0.550   1.980
 1436W        W 5487   1.167   9.662   2.905
 1437W        W 5488   8.842   0.736  11.473
 1438W        W 5489   2.942   3.033   3.112
 1439W        W 5490   4.274   2.827   0.362
 1440W        W 5491   4.650   4.264   9.110
 1441W        W 5492   4.715   2.957   1.431
 1442W        W 5493   5.225   5.593  10.947
 1443W        W 5494   5.769  11.073   3.069
 1444W        W 5495  11.059   6.065   9.903
 1445W        W 5496   1.259   4.813   9.402
 1446W        W 5497   2.324   4.335   8.438
 1447W        W 5498   2.412   2.714  11.554
 1448W        W 5499   5.797   7.115  10.411
 1449W        W 5500   1.292   1.101  11.111
 1450W        W 5501   8.746   4.263   9.222
 1451W        W 5502   7.437   5.191   1.842
 1452W        W 5503   5.139   1.690  11.252
 1453W        W 5504   6.590   6.133  10.037
 1454W        W 5505   6.581   4.516   2.527
 1455W        W 5506   1.188   5.667   1.333
 1456W        W 5507  10.285   0.641   0.091
 1457W        W 5508   3.081   8.846   2.361
 1458W        W 5509   3.408  10.780  10.861
 1459W        W 5510   8.108   4.119   3.142
 1460W        W 5511   3.162   3.519   2.748
 1461W        W 5512   4.717  10.928   9.691
 1462W        W 5513   9.868   0.272  10.354
 1463W        W 5514   5.687   3.381   8.941
 1464W        W 5515   9.088   4.599  10.949
 1465W        W 5516  10.672   1.780   0.880
 1466W        W 5517   5.210   3.715   1.366
 1467W        W 5518   9.100   4.179   8.869
 1468W        W 5519   9.737   5.283   1.242
 1469W        W 5520   9.949   8.133   0.280
 1470W        W 5521  10.459  10.953   3.265
 1471W        W 5522  10.078   2.381   2.930
 1472W        W 5523   1.281   2.355   1.040
 1473W        W 5524   7.099   0.284   1.307
 1474W        W 5525   2.166   2.144  10.990
 1475W        W 5526   7.365   7.179   2.472
 1476W        W 5527   0.018   9.549   2.777
 1477W        W 5528   9.133   6.592   9.089
 1478W        W 5529   3.149   8.931   9.137
 1479W        W 5530   4.109   9.541  10.439
 1480W        W 5531   1.912   2.207   0.412
 1481W        W 5532   4.816  10.579   1.299
 1482W        W 5533   6.215   6.216   3.034
 1483W        W 5534   3.716   5.402  11.780
 1484W        W 5535   0.150   8.896   2.155
 1485W        W 5536   6.060   6.194  11.931
 1486W        W 5537   0.900   6.471   1.901
 1487W        W 5538   5.161   3.622  10.986
 1488W        W 5539   9.280   6.298  11.286
 1489W        W 5540   8.967   3.256  10.493
 1490W        W 5541   4.571   0.264  11.959
 1491W        W 5542   1.757   9.183  11.341
 1492W        W 5543   9.661   0.588   9.443
 1493W        W 5544   9.757   0.778  11.426
 1494W        W 5545  10.391  11.349   1.907
 1495W        W 5546  10.831   1.314  11.090
 1496W        W 5547   3.713   3.364  10.924
 1497W        W 5548   0.468   3.840   2.306
 1498W        W 5549   4.594   0.751   0.767
 1499W        W 5550   9.022   8.088  10.178
 1500W        W 5551  10.804   0.298   0.988
 1501W        W 5552  10.153  10.391   9.935
 1502W        W 5553   8.541  11.233   0.175
 1503W        W 5554   1.042  10.523   2.451
 1504W        W 5555   5.054  11.367   2.682
 1505W        W 5556   5.458   4.051   3.623
 1506W        W 5557   1.994   9.879   9.378
 1507W        W 5558   4.932   1.236   2.609
 1508W        W 5559   6.619   2.680  10.373
 1509W        W 5560   5.160   4.012   4.034
 1510W        W 5561   9.117   6.352   8.635
 1511W        W 5562   8.901   7.421   1.224
 1512W        W 5563  10.570   4.295  10.093
 1513W        W 5564   2.174   9.138  11.999
 1514W        W 5565   8.077   5.027   4.057
 1515W        W 5566   7.618   7.126   1.239
 1516W        W 5567   1.692   6.914   3.256
 1517W        W 5568   0.060   5.970   9.940
 1518W        W 5569   4.421  10.396  11.347
 1519W        W 5570   9.506   9.887   1.239
 1520W        W 5571   5.535   9.630  11.333
 1521W        W 5572   2.651   1.071   1.278
 1522W        W 5573   3.332   2.255   9.273
 1523W        W 5574  11.059   9.434  11.729
 1524W        W 5575   2.295   2.245   0.915
 1525W        W 5576   9.030   6.783   1.961
 1526W        W 5577   7.797   5.746   9.865
 1527W        W 5578  11.094   4.476  10.889
 1528W        W 5579   8.012   4.687   2.184
 1529W        W 5580   7.376   4.700  11.023
 1530W        W 5581   4.233  11.377   2.636
 1531W        W 5582   3.665   6.616   0.269
 1532W        W 5583   5.924   0.920   8.499
 1533W        W 5584  10.864   8.194   0.224
 1534W        W 5585  10.798   1.810  10.495
 1535W        W 5586   9.412   2.638   2.008
 1536W        W 5587   1.623   1.337   9.809
 1537W        W 5588   0.515  10.519   2.345
 1538W        W 5589   9.343  11.360  11.207
 1539W        W 5590   9.993  11.438   9.533
 1540W        W 5591   2.912   5.352   0.215
 1541W        W 5592   3.362   2.592  10.650
 1542W        W 5593   4.336   3.774  11.186
 1543W        W 5594   6.597   2.235   0.975
 1544W        W 5595   2.146   1.774   9.198
 1545W        W 5596   2.179  11.409  11.421
 1546W        W 5597   4.359   0.793   0.306
 1547W        W 5598   9.576   8.048  10.085
 1548W        W 5599   4.906   8.583  10.889
 1549W        W 5600   0.606   5.911   0.710
 1550W        W 5601   3.241   4.291  11.293
 1551W        W 5602   2.252   8.608   2.996
 1552W        W 5603   1.828   0.272   9.489
 1553W        W 5604   6.371   4.023  10.483
 1554W        W 5605   4.106  11.257  10.829
 1555W        W 5606   6.010   6.118   0.864
 1556W        W 5607   0.283   1.666   9.826
 1557W        W 5608   1.445  10.235   1.366
 1558W        W 5609   3.753   6.605   9.390
 1559W        W 5610   1.150   1.837   8.964
 1560W        W 5611   7.966   0.426   1.778
 1561W        W 5612   6.262   8.809   9.989
 1562W        W 5613   8.003   4.164  11.423
 1563W        W 5614   8.589   8.413   2.014
 1564W        W 5615   8.199   6.534   3.258
 1565W        W 5616   9.620   6.950   2.293
 1566W        W 5617   0.701  11.374   0.988
 1567W        W 5618   8.789   8.694   3.758
 1568W        W 5619  11.434   9.137  10.777
 1569W        W 5620   1.297   5.987   0.068
 1570W        W 5621   8.927   6.108   0.532
 1571W        W 5622   8.503   3.389   8.904
 1572W        W 5623   4.726   8.084  11.629
 1573W        W 5624  11.276   9.651   1.727
 1574W        W 5625   6.758   8.034   9.385
 1575W        W 5626   7.129  10.478   9.197
 1576W        W 5627  10.956  10.637  11.413
 1577W        W 5628   5.485   6.132   2.301
 1578W        W 5629   6.367   6.151   2.543
 1579W        W 5630   3.278   8.565  10.392
 1580W        W 5631   2.699   5.546   2.829
 1581W        W 5632   0.309   9.466  11.330
 1582W        W 5633   3.156   6.236   3.390
 1583W        W 5634   0.583   1.478   3.646
 1584W        W 5635   0.295   7.080  11.772
 1585W        W 5636   3.671   3.853  11.814
 1586W        W 5637   9.876   0.039   1.870
 1587W        W 5638  10.400   1.288  11.355
 1588W        W 5639   6.244   7.906   0.405
 1589W        W 5640  10.997   9.999   1.454
 1590W        W 5641  10.826   1.364   9.611
 1591W        W 5642  10.454   6.489  11.975
 1592W        W 5643   0.823   1.151   3.169
 1593W        W 5644   0.909   3.795   2.566
 1594W        W 5645   9.547   2.065   2.577
 1595W        W 5646   3.150   2.089  10.759
 1596W        W 5647   4.523   0.959  10.084
 1597W        W 5648   1.354   2.316   1.913
 1598W        W 5649   8.853   4.592   2.234
 1599W        W 5650   5.785   9.020   9.940
 1600W        W 5651  11.002   9.864   2.324
 1601W        W 5652   8.851   1.735   1.028
 1602W        W 5653   8.008   7.460   1.307
 1603W        W 5654   9.050   7.631   2.893
 1604W        W 5655  10.009   6.997   8.994
 1605W        W 5656   3.381   3.384   1.412
 1606W        W 5657   9.170   7.585  11.939
 1607W        W 5658  10.619   3.612   9.643
 1608W        W 5659   8.099  10.298  11.873
 1609W        W 5660  10.077   8.875   8.907
 1610W        W 5661   6.969   4.628  11.727
 1611W        W 5662   6.579   1.147   9.600
 1612W        W 5663   6.268   8.979   2.673
 1613W        W 5664  10.004   8.953  11.009
 1614W        W 5665   8.324   6.843   0.765
 1615W        W 5666   2.828  11.383   8.799
 1616W        W 5667   2.484   0.061  10.369
 1617W        W 5668   6.645  10.927   1.337
 1618W        W 5669   4.584   9.038  11.943
 1619W        W 5670   9.407   2.883   0.877
 1620W        W 5671   5.007   2.844   3.166
 1621W        W 5672   0.176  10.339   1.414
 1622W        W 5673   9.824   4.798   2.313
 1623W        W 5674  10.084   0.387   9.733
 1624W        W 5675   3.295   9.957   1.319
 1625W        W 5676  10.912   6.456   1.325
 1626W        W 5677   6.105   3.657   1.992
 1627W        W 5678   4.149   4.257  11.198
 1628W        W 5679   0.751  10.848   3.426
 1629W        W 5680   9.381   8.048   1.809
 1630W        W 5681   0.440   6.174  11.769
 1631W        W 5682   4.249  10.111   3.313
 1632W        W 5683   9.472   3.927   2.316
 1633W        W 5684   2.851   2.599  10.494
 1634W        W 5685   0.775   4.193   0.693
 1635W        W 5686   1.807   0.915   8.662
 1636W        W 5687   3.779   3.605  11.377
 1637W        W 5688   2.179   5.689   9.122
 1638W        W 5689   8.110   5.819  10.966
 1639W        W 5690   4.994   9.510   8.943
 1640W        W 5691   3.735   7.525   3.289
 1641W        W 5692   5.621   3.678   2.106
 1642W        W 5693   5.054   3.548   2.775
 1643W        W 5694   0.058   6.696   2.387
 1644W        W 5695  10.472   3.220   2.695
 1645W        W 5696   5.653   7.625   1.953
 1646W        W 5697   7.312   0.865   8.471
 1647W        W 5698   7.994   5.012  10.364
 1648W        W 5699   4.444   1.087  11.046
 1649W        W 5700   2.663   3.293   0.225
 1650W        W 5701   0.452   0.229   3.414
 1651W        W 5702   3.220   3.606  10.550
 1652W        W 5703   3.203   6.051   9.807
 1653W        W 5704   9.892   2.852   1.126
 1654W        W 5705   0.416   8.624  10.058
 1655W        W 5706   7.101   2.835   0.457
 1656W        W 5707   8.114  10.015   2.373
 1657W        W 5708   0.826   8.368  11.279
 1658W        W 5709   6.200   5.286   2.399
 1659W        W 5710   1.893   2.265   1.853
 1660W        W 5711   3.212   5.326   2.469
 1661W        W 5712   5.800   5.043   0.392
 1662W        W 5713   5.170   9.739  11.729
 1663W        W 5714   1.380   5.761   1.799
 1664W        W 5715   2.159   9.009   8.920
 1665W        W 5716  10.526   6.983   9.076
 1666W        W 5717   5.550   7.951   8.673
 1667W        W 5718   4.731   0.950   3.636
 1668W        W 5719   6.430   2.126   9.320
 1669W        W 5720   1.272   7.638   9.018
 1670W        W 5721  11.243   2.821   1.716
 1671W        W 5722   3.428   2.240   3.000
 1672W        W 5723  10.892   3.653   0.916
 1673W        W 5724  10.989   6.172   0.552
 1674W        W 5725   0.877   8.647  10.285
 1675W        W 5726   2.680   0.522  11.240
 1676W        W 5727  11.477   8.073   2.599
 1677W        W 5728   7.308  10.757   2.141
 1678W        W 5729  10.424   0.450   8.906
 1679W        W 5730   5.499   6.674   0.395
 1680W        W 5731   2.696   0.265   0.244
 1681W        W 5732   3.517   4.001   2.013
 1682W        W 5733   9.595   2.896  11.053
 1683W        W 5734   4.596   9.359   9.388
 1684W        W 5735   8.704   5.116   0.358
 1685W        W 5736   5.115   4.071   0.090
 1686W        W 5737   1.684   9.492   9.599
 1687W        W 5738   4.780   1.461  11.532
 1688W        W 5739   5.634   9.391  11.785
 1689W        W 5740   1.817   0.468   1.186
 1690W        W 5741   2.733   3.647   3.036
 1691W        W 5742   9.987   4.840   1.259
 1692W        W 5743   9.014   4.813   2.673
 1693W        W 5744   0.062   9.426   3.292
 1694W        W 5745   4.561   4.813   0.472
 1695W        W 5746  10.699   5.748   3.660
 1696W        W 5747   7.079   9.851   2.249
 1697W        W 5748   6.138   4.891  10.386
 1698W        W 5749  10.979   0.749   0.826
 1699W        W 5750   8.457  10.037  10.355
 1700W        W 5751   2.702   3.662   1.532
 1701W        W 5752   3.837  10.260   0.691
 1702W        W 5753  11.133   0.040  11.796
 1703W        W 5754   4.475   9.317   1.266
 1704W        W 5755   4.656  10.796   1.743
 1705W        W 5756   9.069  11.355  10.553
 1706W        W 5757   4.241   7.764  10.945
 1707W        W 5758   5.502  10.779   1.188
 1708W        W 5759   7.927   3.203  11.603
 1709W        W 5760   5.517   6.823  10.053
 1710W        W 5761  10.131   5.156  10.517
 1711W        W 5762   6.246   3.187   2.167
 1712W        W 5763   8.446   5.175   3.345
 1713W        W 5764  10.828   0.752   0.325
 1714W        W 5765  10.106   6.271  11.687
 1715W        W 5766   8.928   3.559   9.951
 1716W        W 5767   4.824   6.974   2.482
 1717W        W 5768   3.343   8.144  11.808
 1718W        W 5769   1.081   7.959  11.082
 1719W        W 5770   2.251   0.952   3.153
 1720W        W 5771   4.202   8.399   9.484
 1721W        W 5772   8.135   7.847   3.071
 1722W        W 5773   7.846  11.488  10.387
 1723W        W 5774   1.485   3.726   1.167
 1724W        W 5775   7.263   4.527   8.177
 1725W        W 5776   6.189  11.220   9.092
 1726W        W 5777   7.868   5.488   1.749
 1727W        W 5778   5.594   1.718   8.968
 1728W        W 5779   2.775   2.690   1.967
 1729W        W 5780   0.423   4.071   0.357
 1730W        W 5781   2.415   8.568   8.812
 1731W        W 5782   3.846  11.126   8.616
 1732W        W 5783   8.401  10.924  11.784
 1733W        W 5784   9.522   0.096   9.369
 1734W        W 5785   5.577   7.986   3.677
 1735W        W 5786   8.976   9.991   3.021
 1736W        W 5787   0.420   0.335   1.039
 1737W        W 5788   6.321   8.022   0.917
 1738W        W 5789   6.231   4.101   8.125
 1739W        W 5790   5.200   2.568  11.784
 1740W        W 5791   3.192   8.294   3.045
 1741W        W 5792   3.062   5.561   1.236
 1742W        W 5793   0.739  10.462  10.645
 1743W        W 5794   5.337   6.930   3.558
 1744W        W 5795   5.974   4.195   3.650
 1745W        W 5796   8.879   5.072   1.132
 1746W        W 5797   6.184   4.309   0.973
 1747W        W 5798   4.685   3.724  10.804
 1748W        W 5799   6.607   7.970   8.513
 1749W        W 5800   0.929   2.919   0.752
 1750W        W 5801   1.681   3.255   1.922
 1751W        W 5802  10.917   5.534   2.201
 1752W        W 5803   9.445   4.256  10.894
 1753W        W 5804   3.685   6.171   9.666
 1754W        W 5805   3.634   3.558   9.890
 1755W        W 5806   6.317   5.381  10.432
 1756W        W 5807   9.902   4.673   8.892
 1757W        W 5808  10.809   7.636   9.016
 1758W        W 5809   4.253   5.584  10.886
 1759W        W 5810   5.718  10.496   8.910
 1760W        W 5811   5.904   3.793   2.874
 1761W        W 5812   7.232  10.101   0.432
 1762W        W 5813   3.342   9.653   3.636
 1763W        W 5814  11.448   8.059   1.876
 1764W        W 5815   5.689   4.114   0.256
 1765W        W 5816   4.159   6.674   0.297
 1766W        W 5817   6.913   0.747  10.313
 1767W        W 5818  10.460  10.537   0.571
 1768W        W 5819   2.909   2.963  11.911
 1769W        W 5820  10.028   2.553  11.280
 1770W        W 5821   4.452   6.665   3.581
 1771W        W 5822   1.331   8.936   2.398
 1772W        W 5823   2.136   3.342  10.490
 1773W        W 5824   7.943   9.157   9.661
 1774W        W 5825   3.282   4.000   2.870
 1775W        W 5826  11.146   9.485   9.529
 1776W        W 5827   2.751   3.732   8.957
 1777W        W 5828   9.096   8.063   2.251
 1778W        W 5829   7.799   2.853   2.823
 1779W        W 5830   7.506   3.137  10.918
 1780W        W 5831   8.529   0.621   1.167
 1781W        W 5832   6.537   0.799  11.564
 1782W        W 5833   6.453   2.268   2.436
 1783W        W 5834   9.663   8.690  11.318
 1784W        W 5835   3.306   9.782   2.357
 1785W        W 5836   4.607   0.363   1.390
 1786W        W 5837   6.719   1.095  11.970
 1787W        W 5838   5.217   1.009   3.476
 1788W        W 5839   4.477   5.373  10.452
 1789W        W 5840   1.002   8.523   9.372
 1790W        W 5841  10.781   8.465  10.864
 1791W        W 5842   7.106   9.763   1.220
 1792W        W 5843   1.948   2.228   9.994
 1793W        W 5844   6.521   8.362   0.222
 1794W        W 5845   3.371   9.104  11.525
 1795W        W 5846   6.020   7.909  11.011
 1796W        W 5847   6.234   6.468   9.828
 1797W        W 5848   1.228   0.961   0.936
 1798W        W 5849   1.438   3.091   9.907
 1799W        W 5850   1.699   4.560   3.335
 1800W        W 5851   4.040   6.739   2.872
 1801W        W 5852   6.033   1.834   9.508
 1802W        W 5853  10.795   9.093   2.945
 1803W        W 5854   9.780   8.456   8.971
 1804W        W 5855   1.486   8.018   0.038
 1805W        W 5856   9.404   6.658   1.047
 1806W        W 5857   9.385   4.688   3.577
 1807W        W 5858   0.659   6.723  11.783
 1808W        W 5859   2.617  10.559  11.443
 1809W        W 5860   3.803   2.158   9.051
 1810W        W 5861  10.888  10.929   9.996
 1811W        W 5862  10.945   6.646   3.179
 1812W        W 5863   8.026  10.076  10.078
 1813W        W 5864   4.672  10.884   3.307
 1814W        W 5865   1.475   9.648   0.047
 1815W        W 5866   9.508   2.664   1.475
 1816W        W 5867   4.281  10.823  10.608
 1817W        W 5868   9.239   5.164  10.723
 1818W        W 5869   3.228   3.825  11.533
 1819W        W 5870   5.699   4.262   9.951
 1820W        W 5871   4.100  10.019  10.238
 1821W        W 5872   1.282   9.137   2.867
 1822W        W 5873   2.540  10.124   3.077
 1823W        W 5874   6.630   9.440   9.247
 1824W        W 5875   1.612   5.574   0.452
 1825W        W 5876   8.908   4.152   9.695
 1826W        W 5877   9.905   7.176   2.652
 1827W        W 5878   2.481   5.319   1.008
 1828W        W 5879   4.165   3.128  11.044
 1829W        W 5880   1.392   5.794   9.608
 1830W        W 5881   1.078   2.943   3.505
 1831W        W 5882   1.715   6.650  11.007
 1832W        W 5883   1.211  10.939   9.382
 1833W        W 5884   4.124   5.227  11.540
 1834W        W 5885   0.561  10.318   8.913
 1835W        W 5886   5.016   5.782   9.577
 1836W        W 5887   1.385   3.756   1.820
 1837W        W 5888   0.226   3.521   9.884
 1838W        W 5889   9.970   0.476   8.674
 1839W        W 5890   9.517   1.945   9.012
 1840W        W 5891   4.625   3.235   0.250
 1841W        W 5892   9.181   0.468   9.551
 1842W        W 5893   3.589   4.196   3.267
 1843W        W 5894   8.535   5.380  10.942
 1844W        W 5895   5.663   8.710   1.864
 1845W        W 5896  10.037   2.708   9.366
 1846W        W 5897  10.210   3.416  10.889
 1847W        W 5898   7.964   9.444   8.781
 1848W        W 5899   0.800   8.248   2.320
 1849W        W 5900   0.731   8.096   9.247
 1850W        W 5901   9.082   6.646   2.913
 1851W        W 5902   8.543  10.347   0.180
 1852W        W 5903   6.577   2.648  11.196
 1853W        W 5904   0.243   5.877   1.470
 1854W        W 5905   1.812   2.785   1.208
 1855W        W 5906   3.475   8.439   1.634
 1856W        W 5907   3.822   4.816  10.848
 1857W        W 5908   8.082   2.657   8.459
 1858W        W 5909   1.533  11.017   0.857
 1859W        W 5910   6.729   9.895   0.365
 1860W        W 5911   5.853   6.226  11.456
 1861W        W 5912   4.638  11.263   2.947
 1862W        W 5913   7.176   9.396   1.953
 1863W        W 5914  10.654  11.392  11.783
 1864W        W 5915   2.023   6.292  11.858
 1865W        W 5916   7.474   3.346   1.580
 1866W        W 5917   5.729   4.115   3.209
 1867W        W 5918   8.120  10.828   1.731
 1868W        W 5919   2.458  10.891  10.909
 1869W        W 5920  11.270   4.270   2.994
 1870W        W 5921   7.183   2.637   9.478
 1871W        W 5922   9.261   0.759   1.870
 1872W        W 5923   7.190   3.262   3.038
 1873W        W 5924   2.202   3.701   3.269
 1874W        W 5925  10.327   3.393   9.987
 1875W        W 5926   1.326   9.198   1.954
 1876W        W 5927   3.729   2.094   8.439
 1877W        W 5928  10.273   3.918   9.900
 1878W        W 5929   6.989   5.387   2.036
 1879W        W 5930   4.581   2.722   0.979
 1880W        W 5931   6.229   3.670   1.491
 1881W        W 5932   8.364  10.816   9.514
 1882W        W 5933   4.742   5.235   0.761
 1883W        W 5934   7.108   4.534   1.714
 1884W        W 5935  11.052  11.336   0.270
 1885W        W 5936   9.724   5.939  11.731
 1886W        W 5937   6.691  10.436   9.451
 1887W        W 5938   5.299  10.954   8.978
 1888W        W 5939   6.285   2.358   1.384
 1889W        W 5940   4.642   0.596   2.465
 1890W        W 5941   0.472   2.769  10.567
 1891W        W 5942  10.883   2.002   2.747
 1892W        W 5943   6.490   6.157   0.989
 1893W        W 5944   1.939  10.164   1.985
 1894W        W 5945   1.156   0.873   9.096
 1895W        W 5946   3.489   9.579   9.676
 1896W        W 5947  10.452   2.768   2.439
 1897W        W 5948   1.246   8.036   9.363
 1898W        W 5949   0.357   0.839   2.454
 1899W        W 5950   1.694   5.544   1.425
 1900W        W 5951   3.249   8.856   3.227
 1901W        W 5952  10.048   4.992  10.034
 1902W        W 5953   2.089   1.803   1.750
 1903W        W 5954   8.438   3.270  10.417
 1904W        W 5955   3.787   3.099  11.377
 1905W        W 5956   9.038   6.074   9.051
 1906W        W 5957  11.188   5.719  11.224
 1907W        W 5958   1.789   4.594   1.503
 1908W        W 5959   8.722   2.514   2.816
 1909W        W 5960  11.349  10.562  11.100
 1910W        W 5961  10.040   2.621  10.312
 1911W        W 5962   8.247   0.915  10.393
 1912W        W 5963   5.504   2.093   2.586
 1913W        W 5964   5.609   0.375   9.629
 1914W        W 5965  10.973   5.218  11.479
 1915W        W 5966  10.112   3.608   9.514
 1916W        W 5967   0.283   7.253   2.986
 1917W        W 5968   3.325  11.336   1.436
 1918W        W 5969   6.698   6.120   8.676
 1919W        W 5970   1.438   7.067   8.409
 1920W        W 5971  11.361   5.687   9.216
 1921W        W 5972  10.114   6.057   2.235
 1922W        W 5973   5.050  10.326   2.317
 1923W        W 5974   0.415   9.821   3.454
 1924W        W 5975   9.170   9.583   0.339
 1925W        W 5976   9.006  10.490   2.185
 1926W        W 5977   1.784   8.938   1.807
 1927W        W 5978   2.226   2.743  10.074
 1928W        W 5979   4.104   4.245   1.556
 1929W        W 5980   2.238   1.958   3.810
 1930W        W 5981   4.124   3.347  10.049
 1931W        W 5982   0.179   1.472   1.699
 1932W        W 5983   8.459  10.712   2.735
 1933W        W 5984   4.634   3.857   2.815
 1934W        W 5985   6.608   8.432  10.214
 1935W        W 5986   2.991  10.450  10.118
 1936W        W 5987   3.184   1.774   9.016
 1937W        W 5988   9.582  10.775   1.017
 1938W        W 5989   3.514   8.004   0.936
 1939W        W 5990   5.417   7.826   9.173
 1940W        W 5991   4.052   2.575   2.508
 1941W        W 5992   7.691  11.036   0.458
 1942W        W 5993   3.604   2.133   0.234
 1943W        W 5994   6.570   1.258   9.075
 1944W        W 5995   8.060   8.320   2.777
 1945W        W 5996   0.888   0.374   2.369
 1946W        W 5997   6.917   3.314   0.580
 1947W        W 5998   4.195   9.074   1.697
 1948W        W 5999   3.476   0.485   3.745
 1949W        W 6000   3.675   3.556   1.792
 1950W        W 6001   9.935   4.751  10.801
 1951W        W 6002   7.215   1.869   2.690
 1952W        W 6003   8.679   3.685  11.298
 1953W        W 6004  11.424   9.877   9.317
 1954W        W 6005   9.805   0.080   1.004
 1955W        W 6006   1.479   5.098   2.128
 1956W        W 6007   2.430   6.112   8.822
 1957W        W 6008   3.372   9.502   0.397
 1958W        W 6009   8.605   5.258  11.874
 1959W        W 6010   5.997   6.063  10.967
 1960W        W 6011  10.480   3.434   0.279
 1961W        W 6012   3.097  11.349  11.114
 1962W        W 6013   8.628   8.790   1.239
 1963W        W 6014   1.765   5.972   2.207
 1964W        W 6015   1.690  10.802   9.234
 1965W        W 6016  11.285   9.766  11.368
 1966W        W 6017   5.292   8.956   0.702
 1967W        W 6018  10.560  11.354  10.934
 1968W        W 6019  11.447   7.563   1.727
 1969W        W 6020   9.921   5.586   0.028
 1970W        W 6021   1.377   1.418   3.124
 1971W        W 6022   4.774   1.704  11.987
 1972W        W 6023   6.528   7.558   1.014
 1973W        W 6024   4.985   6.537   3.599
 1974W        W 6025   3.852   3.164   1.495
 1975W        W 6026   7.125   8.850  11.059
 1976W        W 6027   3.265   2.676   1.754
 1977W        W 6028   2.261   7.910   1.200
 1978W        W 6029   3.686   0.294   3.234
 1979W        W 6030   4.156  11.216  10.291
 1980W        W 6031  10.430   5.185  11.474
 1981W        W 6032   2.832   8.817   0.781
 1982W        W 6033  10.831   3.286   9.308
 1983W        W 6034   3.952   7.119   9.262
 1984W        W 6035   3.855   3.387  11.831
 1985W        W 6036  11.395   3.114   9.994
 1986W        W 6037   2.227   8.928  11.310
 1987W        W 6038   6.220  10.803  10.759
 1988W        W 6039   2.194   2.213  11.495
 1989W        W 6040   3.268   9.053  10.637
 1990W        W 6041   1.296   5.289   1.664
 1991W        W 6042   9.747   4.602  10.193
 1992W        W 6043   3.877   8.170   8.379
 1993W        W 6044   8.135  10.429   2.028
 1994W        W 6045   6.972   8.421   0.544
 1995W        W 6046   5.541   2.362   9.744
 1996W        W 6047   0.681   6.010   1.228
 1997W        W 6048   1.685   6.703  11.993
 1998W        W 6049   6.076   8.893   1.627
 1999W        W 6050   0.627   1.829   9.027
 2000W        W 6051   2.766   1.120  10.426
 2001W        W 6052   6.058   0.398   2.281
 2002W        W 6053   8.531   9.711   1.608
 2003W        W 6054  11.442   0.905  11.856
 2004W        W 6055   7.209   7.839   9.933
 2005W        W 6056   8.628  10.025  11.079
 2006W        W 6057   3.322   2.255   9.788
 2007W        W 6058   1.795   6.418   1.935
 2008W        W 6059   3.651   8.919   9.029
 2009W        W 6060   2.246   3.670  11.274
 2010W        W 6061  10.062   0.253   1.450
 2011W        W 6062   8.255   1.543  11.294
 2012W        W 6063   2.912   1.866  11.265
 2013W        W 6064   8.397   9.577   0.030
 2014W        W 6065   0.316   7.953   9.547
 2015W        W 6066   2.703   3.466   8.520
 2016W        W 6067   1.307   9.374   3.354
 2017W        W 6068  10.794   7.054  10.863
 2018W        W 6069   3.837   7.500   0.256
 2019W        W 6070   2.012   7.698   3.170
 2020W        W 6071   1.845   1.376   1.971
 2021W        W 6072   9.399   9.375  11.867
 2022W        W 6073   1.608  10.514   1.778
 2023W        W 6074   8.014  11.449   0.896
 2024W        W 6075   8.592   0.635   2.318
 2025W        W 6076   4.267   4.551  11.703
 2026W        W 6077   2.408   7.468   4.098
 2027W        W 6078   9.539   9.838   9.063
 2028W        W 6079   8.063   5.299   3.629
 2029W        W 6080   9.638  10.953  11.306
 2030W        W 6081   8.902   3.634  10.832
 2031W        W 6082   6.118   9.485   0.773
 2032W        W 6083   2.617  10.883   0.213
 2033W        W 6084  10.472   0.366   3.170
 2034W        W 6085   1.542   2.413   0.086
 2035W        W 6086  10.876   1.234   8.586
 2036W        W 6087   9.040  11.294   2.151
 2037W        W 6088   8.158   7.529   1.820
 2038W        W 6089   3.103   1.478   3.366
 2039W        W 6090   2.240   4.929   3.804
 2040W        W 6091   0.120   6.776  10.136
 2041W        W 6092  10.377   7.007  11.957
 2042W        W 6093  10.835   6.104  11.197
 2043W        W 6094   1.669   2.791   3.190
 2044W        W 6095  10.105   2.767   8.860
 2045W        W 6096   4.812  10.074   1.371
 2046W        W 6097   5.700  11.362   8.940
 2047W        W 6098   2.787   4.559   1.467
 2048W        W 6099   4.511  11.259  11.971
 2049W        W 6100   8.967   9.488  10.296
 2050W        W 6101   3.060   7.809   0.714
 2051W        W 6102   5.669   8.149   1.808
 2052W        W 6103   6.425   3.356   9.352
 2053W        W 6104   1.099   2.208   1.485
 2054W        W 6105   5.546   5.697   0.448
 2055W        W 6106   8.905   5.925  11.420
 2056W        W 6107  11.457   6.720   0.835
 2057W        W 6108   6.731  10.430   1.474
 2058W        W 6109   4.377   6.527   0.966
 2059W        W 6110  10.783   5.148   1.400
 2060W        W 6111   0.370  10.356   9.878
 2061W        W 6112   6.952   3.769   2.287
 2062W        W 6113   4.048   7.930   0.975
 2063W        W 6114   5.518   3.292   1.684
 2064W        W 6115  11.257   0.411  11.107
 2065W        W 6116   1.781  10.404   2.785
 2066W        W 6117   0.995   9.954   1.338
 2067W        W 6118  10.457   8.954  11.285
 2068W        W 6119   9.662   8.164   9.564
 2069W        W 6120   1.904   2.513  11.762
 2070W        W 6121   5.955   6.179   8.940
 2071W        W 6122   0.651   1.632   1.876
 2072W        W 6123   2.211  11.340  10.909
 2073W        W 6124   4.193  10.288   2.397
 2074W        W 6125   5.221   9.741   4.147
 2075W        W 6126   2.935   8.382   8.100
 2076W        W 6127   2.819   2.955  10.873
 2077W        W 6128   7.393   2.993  11.744
 2078W        W 6129   5.451   4.660   0.338
 2079W        W 6130   1.868   0.248   3.262
 2080W        W 6131  10.891   5.969   2.434
 2081W        W 6132   6.939   9.909  11.469
 2082W        W 6133   5.749   4.781  10.042
 2083W        W 6134  11.472   5.070   1.837
 2084W        W 6135   8.142   2.886   8.952
 2085W        W 6136   4.133   3.038   2.714
 2086W        W 6137   3.600  11.061   0.383
 2087W        W 6138   2.296   9.045   3.348
 2088W        W 6139   1.690   1.866   0.773
 2089W        W 6140   0.299  10.050  10.638
 2090W        W 6141  10.454   5.481   9.383
 2091W        W 6142  10.819   9.673  10.439
 2092W        W 6143   1.395   1.749  11.274
 2093W        W 6144   9.240   3.874   1.843
 2094W        W 6145   2.614   3.191   1.793
 2095W        W 6146   8.574   1.833   9.538
 2096W        W 6147   8.194  11.109  10.448
 2097W        W 6148   8.222   5.067   0.479
 2098W        W 6149   2.400   5.323   0.025
 2099W        W 6150   3.173   7.957   1.313
 2100W        W 6151   3.675   7.573   9.202
 2101W        W 6152   1.305   9.445   2.410
 2102W        W 6153   7.614  10.378   9.002
 2103W        W 6154   0.070   0.552   9.796
 2104W        W 6155  10.368   2.432   0.303
 2105W        W 6156  11.052   5.983  11.651
 2106W        W 6157   1.962   3.161   9.126
 2107W        W 6158  10.004   6.174   9.900
 2108W        W 6159   6.164  10.801   2.872
 2109W        W 6160  11.460   2.766   2.183
 2110W        W 6161   7.149   7.021  11.541
 2111W        W 6162   0.045   3.336  11.355
 2112W        W 6163   5.742   0.794   2.202
 2113W        W 6164   0.201   3.186  11.862
 2114W        W 6165   3.883   1.048  11.397
 2115W        W 6166   1.900   0.251  10.858
 2116W        W 6167   6.014   4.400  10.323
 2117W        W 6168   9.334   7.587   8.834
 2118W        W 6169   3.303   5.126   9.620
 2119W        W 6170   3.408   3.256   3.148
 2120W        W 6171   3.590   9.318  10.254
 2121W        W 6172  10.156   0.259   2.790
 2122W        W 6173   3.997   8.909   9.422
 2123W        W 6174   5.515   8.287   4.091
 2124W        W 6175   2.170   8.406   2.116
 2125W        W 6176  10.419   6.543   2.434
 2126W        W 6177   8.133   9.963   0.257
 2127W        W 6178  11.330   3.914   1.027
 2128W        W 6179   0.836   7.441   1.748
 2129W        W 6180  10.520   6.783   1.341
 2130W        W 6181   1.923   9.670  11.309
 2131W        W 6182   3.280   2.250  10.290
 2132W        W 6183   8.563   2.629   3.622
 2133W        W 6184   4.613   2.427   9.590
 2134W        W 6185   3.170   9.410  11.922
 2135W        W 6186   2.103   5.609   0.334
 2136W        W 6187  10.017   1.162   2.573
 2137W        W 6188   1.051   3.642   1.460
 2138W        W 6189   9.607   9.798  10.815
 2139W        W 6190   0.776   6.138  10.390
 2140W        W 6191  10.050   0.809   9.080
 2141W        W 6192   9.206   1.270   3.219
 2142W        W 6193   9.252   8.351  11.470
 2143W        W 6194   1.891   1.928   1.276
 2144W        W 6195   4.365   4.394   0.206
 2145W        W 6196   8.655   1.764   0.427
 2146W        W 6197   9.757   6.714   1.849
 2147W        W 6198   1.660   9.411   1.620
 2148W        W 6199   4.500   8.372  10.038
 2149W        W 6200   3.768   9.681   8.837
 2150W        W 6201   3.654   0.281   2.277
 2151W        W 6202   0.454   8.856   9.295
 2152W        W 6203   2.467   3.252   3.212
 2153W        W 6204   5.071   3.007  10.027
 2154W        W 6205   5.237   8.598   3.097
 2155W        W 6206   1.431   1.740  11.777
 2156W        W 6207   9.999  10.509  11.823
 2157W        W 6208   4.573   4.225   3.408
 2158W        W 6209   4.127   2.566   0.773
 2159W        W 6210   8.280   3.691   1.881
 2160W        W 6211   0.532  10.346   1.839
 2161W        W 6212   7.863   4.094   9.348
 2162W        W 6213   0.829   3.660   9.043
 2163W        W 6214   7.061   3.353  11.046
 2164W        W 6215   1.610  10.537  10.389
 2165W        W 6216   6.608   4.562   0.869
 2166W        W 6217   5.252   1.165   9.549
 2167W        W 6218   0.101   7.071   1.242
 2168W        W 6219   2.139  11.306   2.332
 2169W        W 6220   7.032   0.385   9.431
 2170W        W 6221   2.743   5.652  11.778
 2171W        W 6222   5.556   9.451   2.311
 2172W        W 6223   0.825   4.814  10.931
 2173W        W 6224   1.752   8.059  10.070
 2174W        W 6225   2.509   9.025   1.552
 2175W        W 6226   9.622   8.458   1.639
 2176W        W 6227   8.402   2.330   3.217
 2177W        W 6228   7.034   9.717   0.733
 2178W        W 6229   9.591   7.453  11.648
 2179W        W 6230  11.237   6.065   1.492
 2180W        W 6231  10.579   6.137   2.079
 2181W        W 6232   7.697   0.665   9.281
 2182W        W 6233   1.528   9.500  10.987
 2183W        W 6234   9.984   1.728   2.117
 2184W        W 6235   3.218   6.053   1.279
 2185W        W 6236   3.783   9.267  11.258
 2186W        W 6237   5.091   5.566   0.251
 2187W        W 6238   8.650   3.748  10.384
 2188W        W 6239   0.907   9.765  11.412
 2189W        W 6240   9.904   8.873   2.364
 2190W        W 6241  11.061   3.148   0.965
 2191W        W 6242   9.797   7.489   9.043
 2192W        W 6243  10.836   7.555  10.921
 2193W        W 6244   5.493   4.092   9.526
 2194W        W 6245   7.094   7.450  11.270
 2195W        W 6246   1.786   0.508   1.720
 2196W        W 6247   9.269   0.775  10.740
 2197W        W 6248   3.711   3.271   1.022
 2198W        W 6249   8.383   6.333   0.806
 2199W        W 6250   1.783   9.031   9.788
 2200W        W 6251   3.145   0.227   0.023
 2201W        W 6252   1.372   7.106   0.068
 2202W        W 6253   2.851   7.947  10.949
 2203W        W 6254  10.470  11.379   2.959
 2204W        W 6255   0.798   9.896  10.028
 2205W        W 6256   6.462   9.981   1.826
 2206W        W 6257   6.555   0.878   3.365
 2207W        W 6258   7.674   6.329   1.175
 2208W        W 6259   7.906   5.582   0.202
 2209W        W 6260   9.402   3.761  10.809
 2210W        W 6261  10.396   7.002   2.714
 2211W        W 6262   2.274   8.469   0.191
 2212W        W 6263   5.118   7.030   1.858
 2213W        W 6264   8.466  11.325  11.204
 2214W        W 6265   5.564  10.248   3.408
 2215W        W 6266  10.448   2.752  11.888
 2216W        W 6267   6.631   0.920  11.059
 2217W        W 6268  11.013   1.346   2.909
 2218W        W 6269   7.600   3.053   3.269
 2219W        W 6270   8.901   4.233  11.649
 2220W        W 6271   1.593  10.253   0.157
 2221W        W 6272  10.591   3.559   1.853
 2222W        W 6273  11.123   9.932  10.861
 2223W        W 6274   7.534   6.245  11.509
 2224W        W 6275   4.589   9.320   0.740
 2225W        W 6276  10.305  11.124   9.248
 2226W        W 6277   5.420   3.740   3.064
 2227W        W 6278   5.605   4.837   0.813
 2228W        W 6279   0.492   0.768  10.033
 2229W        W 6280   1.472   8.658   0.561
 2230W        W 6281   7.402   5.769  11.512
 2231W        W 6282   0.434   3.565  11.626
 2232W        W 6283  10.228   3.689   3.370
 2233W        W 6284   1.385   3.556   8.966
 2234W        W 6285  10.634   7.490  10.303
 2235W        W 6286  10.814   9.076   9.579
 2236W        W 6287   3.538   4.661   0.149
 2237W        W 6288  10.574  10.562   2.314
 2238W        W 6289   6.622   6.324   9.527
 2239W        W 6290   6.209   0.653   0.468
 2240W        W 6291   6.498   7.512  10.517
 2241W        W 6292   5.184   3.540   9.124
 2242W        W 6293   4.640   2.456   1.415
 2243W        W 6294   4.053   4.783   0.288
 2244W        W 6295  10.925   6.906  11.477
 2245W        W 6296   8.096   5.935   1.558
 2246W        W 6297  10.481   4.085  11.397
 2247W        W 6298   6.742   9.809  10.075
 2248W        W 6299   8.410   3.528   9.975
 2249W        W 6300   3.312   9.335   1.299
 2250W        W 6301   8.238   1.188   9.970
 2251W        W 6302   9.764   6.049  10.354
 2252W        W 6303   2.674   1.206   3.251
 2253W        W 6304   4.253   7.197   0.231
 2254W        W 6305   3.717   1.833  10.968
 2255W        W 6306   1.780   3.738   2.621
 2256W        W 6307   7.938   9.794   0.874
 2257W        W 6308  11.272   7.263  10.966
 2258W        W 6309  10.496   7.845   2.700
 2259W        W 6310   9.410   8.510  10.436
 2260W        W 6311   6.684  10.296   9.965
 2261W        W 6312   7.095   5.155  11.809
 2262W        W 6313   2.412   9.500   2.119
 2263W        W 6314   4.319   8.562   2.905
 2264W        W 6315  10.421   7.994   0.044
 2265W        W 6316   5.563   7.123   2.202
 2266W        W 6317   2.906   7.254  10.295
 2267W        W 6318   3.827   4.582   9.040
 2268W        W 6319   0.348   0.994  10.518
 2269W        W 6320  11.209   3.682   9.980
 2270W        W 6321   6.227   3.158   2.744
 2271W        W 6322   1.186   8.762  11.942
 2272W        W 6323   3.557   8.500   2.248
 2273W        W 6324   0.071  10.099  11.099
 2274W        W 6325   0.384   6.403   9.274
 2275W        W 6326   3.728  10.506   2.440
 2276W        W 6327   1.947   4.312  11.916
 2277W        W 6328   7.916   1.431   2.617
 2278W        W 6329   2.215  10.800  10.075
 2279W        W 6330   1.234  10.946  11.851
 2280W        W 6331   7.556   4.508   0.964
 2281W        W 6332   4.585   0.682   8.965
 2282W        W 6333   7.717   8.486  10.864
 2283W        W 6334   3.407   1.768  10.449
 2284W        W 6335   8.536   8.170  10.446
 2285W        W 6336   3.368   0.285   8.361
 2286W        W 6337   6.209   7.004  11.407
 2287W        W 6338   0.449   8.128   1.707
 2288W        W 6339   4.464   0.372   3.336
 2289W        W 6340   6.318   6.955   2.679
 2290W        W 6341   2.435   6.598   0.176
 2291W        W 6342   2.965   5.126  10.005
 2292W        W 6343   5.946  10.928   0.949
 2293W        W 6344   8.996   9.099   0.028
 2294W        W 6345   0.580  11.463   2.302
 2295W        W 6346   8.767   0.390   3.268
 2296W        W 6347   4.599  10.400  10.835
 2297W        W 6348   4.264   7.625   2.713
 2298W        W 6349   1.682   9.012   8.735
 2299W        W 6350   5.496   0.197   0.893
 2300W        W 6351   5.316   6.864  11.278
 2301W        W 6352  10.271   9.876   2.650
 2302W        W 6353   2.584   8.561  11.501
 2303W        W 6354  10.915   4.337  11.348
 2304W        W 6355   1.421   2.828   0.872
 2305W        W 6356   3.124  11.366   9.678
 2306W        W 6357   7.553   7.538   9.389
 2307W        W 6358   6.637   1.968   0.047
 2308W        W 6359   8.384   5.541   1.694
 2309W        W 6360   2.186  10.006  10.386
 2310W        W 6361   2.786   7.081   0.180
 2311W        W 6362   2.375   7.615   2.781
 2312W        W 6363  11.434   7.707   2.232
 2313W        W 6364   2.754   6.032   9.539
 2314W        W 6365   6.136   0.900   2.519
 2315W        W 6366   0.066   2.701   1.316
 2316W        W 6367   7.337   0.357  11.968
 2317W        W 6368   4.526  10.440   9.814
 2318W        W 6369   9.462   5.565   1.596
 2319W        W 6370   5.611   9.941   9.978
 2320W        W 6371  10.902   0.249   8.908
 2321W        W 6372   6.202   8.457   2.655
 2322W        W 6373   6.974   6.016   1.711
 2323W        W 6374   8.420   9.472   9.018
 2324W        W 6375   6.754   8.966   8.306
 2325W        W 6376   8.371  11.202   1.175
 2326W        W 6377   6.503   3.639   0.710
 2327W        W 6378   5.599   6.911   3.109
 2328W        W 6379   8.025   6.592   2.267
 2329W        W 6380   9.436   0.018   2.358
 2330W        W 6381   1.955   4.602  11.451
 2331W        W 6382   6.493   2.765   1.152
 2332W        W 6383   1.929   7.614   1.452
 2333W        W 6384   4.510   8.204  11.150
 2334W        W 6385  10.606   9.179   0.979
 2335W        W 6386   6.449   4.345  11.414
 2336W        W 6387   3.249   1.814   0.417
 2337W        W 6388   8.973   6.746   3.778
 2338W        W 6389   1.748   8.655   1.360
 2339W        W 6390   7.467   4.683   0.493
 2340W        W 6391   3.016   0.447   2.004
 2341W        W 6392   0.742   6.729   3.525
 2342W        W 6393   8.001   5.101   0.956
 2343W        W 6394   3.707   3.080  10.094
 2344W        W 6395   9.699   6.186   0.670
 2345W        W 6396   7.794   3.777   8.960
 2346W        W 6397   2.987   9.705   9.593
 2347W        W 6398   8.136  10.885   0.225
 2348W        W 6399  10.398   5.781   1.295
 2349W        W 6400   6.099   0.426   0.920
 2350W        W 6401   0.050   2.305   0.989
 2351W        W 6402   5.699   0.894   0.025
 2352W        W 6403   9.802   4.249  11.992
 2353W        W 6404   0.212   6.758   2.942
 2354W        W 6405   0.225  10.989   9.434
 2355W        W 6406   5.470   3.243  10.781
 2356W        W 6407   2.166   6.831  11.275
 2357W        W 6408   4.084   0.470   2.965
 2358W        W 6409   2.764   5.566   2.292
 2359W        W 6410  10.908   6.479   2.282
 2360W        W 6411   8.386   2.406  10.569
 2361W        W 6412   6.280   5.198   0.530
 2362W        W 6413   8.962   7.939   1.275
 2363W        W 6414  10.844   7.251  11.941
 2364W        W 6415   5.095   2.249   8.595
 2365W        W 6416   5.857   6.731  11.986
 2366W        W 6417   3.647   5.592   1.195
 2367W        W 6418   2.870  10.050   2.498
 2368W        W 6419   7.639   9.955   1.337
 2369W        W 6420   8.140   5.788   2.094
 2370W        W 6421   7.617   2.885  10.415
 2371W        W 6422   9.100   4.097   1.361
 2372W        W 6423   6.204   4.151  10.966
 2373W        W 6424   7.760   3.461   2.943
 2374W        W 6425   6.062   9.624  11.315
 2375W        W 6426  10.401   1.162  10.834
 2376W        W 6427   7.755   4.414   3.366
 2377W        W 6428   6.258   6.522   1.282
 2378W        W 6429  10.970   2.813   3.053
 2379W        W 6430   7.238   6.606  11.879
 2380W        W 6431   7.941   2.113   3.425
 2381W        W 6432   0.370   3.176  10.263
 2382W        W 6433   0.081  11.316   2.366
 2383W        W 6434   1.588   1.796   8.543
 2384W        W 6435   4.087   3.976   0.092
 2385W        W 6436   8.509   4.682   1.870
 2386W        W 6437   9.795   1.942   3.011
 2387W        W 6438   0.888   5.541   0.946
 2388W        W 6439   7.922   3.262  10.623
 2389W        W 6440   3.257   7.875   2.744
 2390W        W 6441   1.802   5.519   1.954
 2391W        W 6442   2.871  10.522   2.309
 2392W        W 6443   5.496   3.729   9.991
 2393W        W 6444   0.081   6.980   0.392
 2394W        W 6445   1.624   7.530   8.649
 2395W        W 6446   6.666   2.408   3.195
 2396W        W 6447   8.517   1.292   0.221
 2397W        W 6448   1.857   2.762   1.724
 2398W        W 6449   3.626   1.788   0.836
 2399W        W 6450   4.577  11.307   1.906
 2400W        W 6451   0.939   5.523   1.953
 2401W        W 6452   5.294   7.078   2.677
 2402W        W 6453   7.097  10.849  11.713
 2403W        W 6454  10.756   8.511  11.390
 2404W        W 6455   9.800   7.096  11.091
 2405W        W 6456   4.668   1.708  11.077
 2406W        W 6457   9.978   6.563   0.869
 2407W        W 6458   2.925   5.085   9.060
 2408W        W 6459  10.776   4.626  10.458
 2409W        W 6460   0.299   6.288  10.267
 2410W        W 6461   3.256   6.917   0.297
 2411W        W 6462   6.183   1.449   0.651
 2412W        W 6463   1.826   7.156  11.781
 2413W        W 6464   0.765   9.368   1.724
 2414W        W 6465   4.054   1.804   9.737
 2415W        W 6466   7.392  10.819  10.929
 2416W        W 6467   0.682   0.443   0.373
 2417W        W 6468  11.144   6.919   2.193
 2418W        W 6469   5.230   2.619  11.285
 2419W        W 6470   6.552  10.536  11.834
 2420W        W 6471   9.865   6.931   8.475
 2421W        W 6472   3.348   3.624   0.947
 2422W        W 6473   7.930   1.859   9.560
 2423W        W 6474   1.294   9.952   2.410
 2424W        W 6475   9.869   7.118   9.969
 2425W        W 6476   5.379   1.202   0.319
 2426W        W 6477   6.967  10.834  11.190
 2427W        W 6478   5.441   4.322  10.399
 2428W        W 6479   1.861   7.068  10.779
 2429W        W 6480   2.244   8.063   3.474
 2430W        W 6481   5.393   2.294   0.285
 2431W        W 6482   8.958   0.069   0.474
 2432W        W 6483   8.994   5.560  11.074
 2433W        W 6484   1.864   1.208   2.915
 2434W        W 6485   2.806   5.940   0.942
 2435W        W 6486   4.348   3.912   1.862
 2436W        W 6487  10.499   9.322  10.920
 2437W        W 6488  10.096   1.449   3.057
 2438W        W 6489   8.856  10.786   9.959
 2439W        W 6490  10.939   9.958   9.545
 2440W        W 6491  10.053   4.798   1.854
 2441W        W 6492   0.588   0.431   2.790
 2442W        W 6493   8.181   9.744   2.812
 2443W        W 6494   2.224   6.684  10.056
 2444W        W 6495   0.909  10.844   1.462
 2445W        W 6496   2.709   1.447  10.001
 2446W        W 6497   9.915   9.259   8.614
 2447W        W 6498   6.515   7.851   1.450
 2448W        W 6499   0.273   4.764   3.343
 2449W        W 6500   8.361   9.176  10.605
 2450W        W 6501   3.209   3.142   0.896
 2451W        W 6502  10.919  11.474  10.015
 2452W        W 6503   8.572   5.535   9.524
 2453W        W 6504  10.579   8.995  10.003
 2454W        W 6505   1.300   1.473   0.936
 2455W        W 6506   8.530  10.339   2.337
 2456W        W 6507  11.191   5.634   3.196
 2457W        W 6508   6.000   6.694  10.219
 2458W        W 6509   7.321   3.226   1.084
 2459W        W 6510   9.537   4.634   9.257
 2460W        W 6511   3.591   5.064  11.402
 2461W        W 6512   2.934  10.554   0.483
 2462W        W 6513   6.178   1.045  11.274
 2463W        W 6514   5.694   8.764   3.283
 2464W        W 6515   2.733   0.474   0.707
 2465W        W 6516   8.483   7.649   1.423
 2466W        W 6517   3.170   4.260   1.710
 2467W        W 6518   0.108   0.376   3.010
 2468W        W 6519   8.263   5.527   4.055
 2469W        W 6520   1.660   9.463   2.772
 2470W        W 6521  10.721   1.260   0.126
 2471W        W 6522   6.595   5.064   0.921
 2472W        W 6523   2.206   9.494   9.660
 2473W        W 6524   1.323   6.151   3.004
 2474W        W 6525   1.949   4.620   2.897
 2475W        W 6526   8.997   5.919   9.830
 2476W        W 6527   2.215   6.665   2.642
 2477W        W 6528  11.041   8.704   3.193
 2478W        W 6529   8.498   4.160  11.325
 2479W        W 6530   3.182   4.998   2.993
 2480W        W 6531   3.629   9.833  10.284
 2481W        W 6532   7.797   0.284  11.783
 2482W        W 6533   6.200  10.809   9.459
 2483W        W 6534  10.566   8.185   2.314
 2484W        W 6535   5.214  11.488   2.223
 2485W        W 6536   0.532   5.035   0.239
 2486W        W 6537   3.325   4.218  11.846
 2487W        W 6538   3.882   1.728  10.283
 2488W        W 6539   3.668   0.245   0.861
 2489W        W 6540   3.239   9.765   0.847
 2490W        W 6541   7.476   8.921   9.671
 2491W        W 6542   5.262   8.758   1.165
 2492W        W 6543   2.314  11.495   2.783
 2493W        W 6544   9.016   3.113   2.322
 2494W        W 6545   1.404   0.736   1.398
 2495W        W 6546  10.859   0.019  11.321
 2496W        W 6547   8.008   1.789   2.981
 2497W        W 6548  11.287  11.229   9.262
 2498W        W 6549   9.911   5.219   0.375
 2499W        W 6550   5.518   5.346   0.041
 2500W        W 6551   3.125   9.200   9.631
 2501W        W 6552   3.625   4.907   2.228
 2502W        W 6553   1.796   7.657   9.148
 2503W        W 6554   9.324   8.465   9.889
 2504W        W 6555   8.949   6.379   0.111
 2505W        W 6556  10.587   8.959   1.896
 2506W        W 6557   3.256  11.431   0.489
 2507W        W 6558   1.084   9.376   1.330
 2508W        W 6559   5.273   0.490   3.519
 2509W        W 6560   7.142  10.798   2.626
 2510W        W 6561   2.113   7.228   3.304
 2511W        W 6562   1.708   5.058   3.095
 2512W        W 6563   5.685   5.666  10.046
 2513W        W 6564   0.077   3.606   2.052
 2514W        W 6565   0.905   7.174  11.855
 2515W        W 6566   9.672   7.980  10.941
 2516W        W 6567   1.324   3.622  11.190
 2517W        W 6568   8.261  10.906   2.297
 2518W        W 6569   1.810   4.709  10.563
 2519W        W 6570   9.824   5.677   1.984
 2520W        W 6571   3.474   8.045   9.336
 2521W        W 6572   2.612   4.136   3.116
 2522W        W 6573   6.261   1.142   9.986
 2523W        W 6574   5.503   3.768   2.569
 2524W        W 6575   3.085   8.635  11.418
 2525W        W 6576   9.506   5.735   1.120
 2526W        W 6577   8.339   4.181   9.516
 2527W        W 6578   2.265   0.279  11.961
 2528W        W 6579   6.489   4.024   3.678
 2529W        W 6580   4.714   9.738   0.990
 2530W        W 6581   2.759   6.229   1.389
 2531W        W 6582  10.978   6.605  10.683
 2532W        W 6583   1.700   4.087   0.341
 2533W        W 6584   2.924   0.310  10.717
 2534W        W 6585  10.420   9.457   1.872
 2535W        W 6586   2.749   7.570  11.300
 2536W        W 6587   0.422   3.102   1.374
 2537W        W 6588   4.685  10.380   3.171
 2538W        W 6589   0.045   9.623  10.895
 2539W        W 6590   5.648   6.201   1.815
 2540W        W 6591   6.238   8.069   9.487
 2541W        W 6592   2.636   5.106  11.272
 2542W        W 6593   6.067   2.003  11.384
 2543W        W 6594   1.337   4.174   0.006
 2544W        W 6595   6.576   7.616   1.924
 2545W        W 6596   3.733   9.389   3.839
 2546W        W 6597   0.908   7.224   9.071
 2547W        W 6598   7.542   2.301   2.183
 2548W        W 6599  11.330   6.992   3.155
 2549W        W 6600   7.124  10.518   9.861
 2550W        W 6601   8.916   9.205  10.721
 2551W        W 6602  10.344   2.770   0.850
 2552W        W 6603   8.718   6.838  11.947
 2553W        W 6604  11.077   8.982   1.005
 2554W        W 6605  10.438   0.799   9.851
 2555W        W 6606  10.414   3.668   0.734
 2556W        W 6607   1.845   5.832   9.872
 2557W        W 6608   9.787  10.641   2.802
 2558W        W 6609   9.790   0.924  11.922
 2559W        W 6610  10.867   3.482  10.848
 2560W        W 6611   8.845   5.609   9.068
 2561W        W 6612   5.730   3.645   3.452
 2562W        W 6613   3.783   9.855   8.327
 2563W        W 6614   7.492   9.200   0.240
 2564W        W 6615  10.226   5.298   3.942
 2565W        W 6616   0.199   5.646   3.255
 2566W        W 6617   1.684   5.068  11.502
 2567W        W 6618  10.404   8.114  11.471
 2568W        W 6619   6.821   7.191   3.603
 2569W        W 6620   9.652   5.071  10.366
 2570W        W 6621   0.262   1.909   0.324
 2571W        W 6622   7.072   9.501   0.276
 2572W        W 6623   3.041   4.677   9.621
 2573W        W 6624   6.389   4.662  10.016
 2574W        W 6625   4.750   0.487   9.412
 2575W        W 6626   4.910   4.384  10.336
 2576W        W 6627   7.070   1.807   3.180
 2577W        W 6628   8.919   6.303   9.496
 2578W        W 6629   9.823   9.622   2.610
 2579W        W 6630   4.609   8.353  10.550
 2580W        W 6631   4.842   5.714   1.552
 2581W        W 6632   2.225   2.057   9.607
 2582W        W 6633  11.244   5.280   8.920
 2583W        W 6634   6.481   2.725   2.185
 2584W        W 6635   9.340   8.531   0.737
 2585W        W 6636  10.315   3.169   3.710
 2586W        W 6637   2.898   2.477   9.978
 2587W        W 6638  10.541   3.691   2.946
 2588W        W 6639   3.619   7.568  10.242
 2589W        W 6640   1.764   8.436  10.465
 2590W        W 6641   4.969   3.507   0.938
 2591W        W 6642   0.981   2.640   1.746
 2592W        W 6643   3.827  10.921   9.479
 2593W        W 6644  11.408   2.143   3.458
 2594W        W 6645   8.917   5.099   9.792
 2595W        W 6646   0.022   5.562   3.755
 2596W        W 6647   7.370   6.434   0.761
 2597W        W 6648   1.256   0.922   3.309
 2598W        W 6649   3.148   0.196   2.431
 2599W        W 6650   2.731   6.899   9.909
 2600W        W 6651   8.045   3.823  11.022
 2601W        W 6652   9.702   5.219   2.554
 2602W        W 6653   7.238  10.021   8.971
 2603W        W 6654   2.271   5.738   9.604
 2604W        W 6655   3.595   1.768   9.354
 2605W        W 6656  10.966   4.801   9.349
 2606W        W 6657   8.547  11.175   3.630
 2607W        W 6658   3.932   9.349   1.341
 2608W        W 6659   8.040   9.188  10.174
 2609W        W 6660   0.912   5.346   9.077
 2610W        W 6661   0.385   7.679   1.972
 2611W        W 6662   1.634  11.341   2.431
 2612W        W 6663   9.327  10.398   1.342
 2613W        W 6664   0.842   4.829   9.077
 2614W        W 6665   3.271  10.298   0.861
 2615W        W 6666   7.187   2.250   9.159
 2616W        W 6667   9.506   1.505  10.327
 2617W        W 6668   3.785   5.066   1.235
 2618W        W 6669  10.343   7.919  10.300
 2619W        W 6670  11.000   9.352   2.082
 2620W        W 6671   1.791   0.412   0.656
 2621W        W 6672   2.847   9.924  11.947
 2622W        W 6673   0.522   3.242   2.709
 2623W        W 6674   3.901   5.595   1.639
 2624W        W 6675   9.212  10.611  11.699
 2625W        W 6676   2.194   1.742   0.872
 2626W        W 6677   2.230   6.180   2.463
 2627W        W 6678  10.970   7.519   3.500
 2628W        W 6679   7.253   5.666  10.725
 2629W        W 6680   2.892   9.040   2.913
 2630W        W 6681   1.353   5.468  11.118
 2631W        W 6682   5.654   0.732   8.922
 2632W        W 6683   0.405  10.985   2.151
 2633W        W 6684   9.489  10.608   9.369
 2634W        W 6685  10.343   2.283   1.661
 2635W        W 6686   3.149   1.647   0.910
 2636W        W 6687   4.527   3.688   9.940
 2637W        W 6688   7.914   7.113   1.671
 2638W        W 6689   2.102   4.232   8.885
 2639W        W 6690   0.391   4.788  10.274
 2640W        W 6691  10.738   8.615   0.875
 2641W        W 6692   5.410   2.824   1.919
 2642W        W 6693   3.152   7.514  10.996
 2643W        W 6694   5.576   4.084   1.253
 2644W        W 6695   4.569  11.322  10.587
 2645W        W 6696   0.980   9.761  11.940
 2646W        W 6697   3.931  10.619   1.535
 2647W        W 6698   5.072  10.321  11.017
 2648W        W 6699   4.200  10.628   3.419
 2649W        W 6700   4.724   4.279  10.810
 2650W        W 6701  10.787   1.205   2.059
 2651W        W 6702   2.497   7.593   3.307
 2652W        W 6703  10.433  10.414   9.124
 2653W        W 6704   4.691   8.854   1.434
 2654W        W 6705   4.725   3.921   1.508
 2655W        W 6706   7.719   3.997   2.795
 2656W        W 6707   7.003   3.814   0.751
 2657W        W 6708   4.245   3.282   2.275
 2658W        W 6709   5.740   7.144   0.695
 2659W        W 6710   9.505  10.578   0.496
 2660W        W 6711   9.546   0.987   0.855
 2661W        W 6712  10.329   8.364  10.578
 2662W        W 6713   0.427   6.922  11.237
 2663W        W 6714   7.989   1.708  10.051
 2664W        W 6715   8.418   5.040   8.628
 2665W        W 6716   9.848   7.640   9.905
 2666W        W 6717   1.510  10.384   3.227
 2667W        W 6718   0.846   1.006  10.329
 2668W        W 6719  10.411  11.434   3.465
 2669W        W 6720   6.206   9.925  10.045
 2670W        W 6721   9.103   8.916   1.060
 2671W        W 6722   9.822  10.361   1.236
 2672W        W 6723   6.135   2.947  11.242
 2673W        W 6724   8.897   1.012  11.007
 2674W        W 6725  11.237   0.218   2.237
 2675W        W 6726   2.809   5.083   2.680
 2676W        W 6727   8.391  11.231   2.736
 2677W        W 6728   3.186  10.966   1.796
 2678W        W 6729   1.414   3.302   9.456
 2679W        W 6730   9.520   3.653  11.638
 2680W        W 6731   9.822   2.160  10.503
 2681W        W 6732   7.301   8.937   2.171
 2682W        W 6733   7.589  11.198   8.979
 2683W        W 6734   5.790   7.755   3.263
 2684W        W 6735   7.972   0.489  10.459
 2685W        W 6736   6.965   0.481   2.258
 2686W        W 6737   1.010   9.242  11.875
 2687W        W 6738   4.759   0.971  11.457
 2688W        W 6739   7.445   0.083   2.665
 2689W        W 6740   6.963   6.696   0.858
 2690W        W 6741   6.092   7.418   2.722
 2691W        W 6742   6.618   2.668   0.657
 2692W        W 6743   6.705   3.058   2.974
 2693W        W 6744   7.158   8.923   2.657
 2694W        W 6745   6.594   8.354   1.408
 2695W        W 6746   4.777   2.916   8.681
 2696W        W 6747   8.509   6.072   0.205
 2697W        W 6748   3.847   9.882  10.757
 2698W        W 6749  10.392   1.591   1.369
 2699W        W 6750   2.377   6.048  10.447
 2700W        W 6751   0.306   4.534   8.867
 2701W        W 6752   8.428   7.132  11.646
 2702W        W 6753   1.437  10.058   1.909
 2703W        W 6754   5.636   1.463   9.397
 2704W        W 6755   3.765   0.840   9.473
 2705W        W 6756   9.820  11.295   1.419
 2706W        W 6757  10.553   2.660   9.591
 2707W        W 6758   8.132   0.515   0.846
 2708W        W 6759   8.731   3.115   3.543
 2709W        W 6760   9.925   2.385   1.345
 2710W        W 6761   7.629   9.811  10.268
 2711W        W 6762   3.322   0.689   2.325
 2712W        W 6763   6.213   1.845   1.792
 2713W        W 6764   3.231   7.793   3.259
 2714W        W 6765   5.046   9.140  10.266
 2715W        W 6766   2.426   5.183   9.028
 2716W        W 6767   7.711   5.451   3.954
 2717W        W 6768   4.087   5.728  10.437
 2718W        W 6769   2.239   4.638  10.842
 2719W        W 6770   0.664  10.239   9.474
 2720W        W 6771   8.165   6.813   9.054
 2721W        W 6772   6.087   9.585   9.223
 2722W        W 6773   5.898   3.905  10.267
 2723W        W 6774   8.999   8.139   2.745
 2724W        W 6775   0.208   6.043   2.675
 2725W        W 6776  11.135   8.828  10.508
 2726W        W 6777   5.398   0.359   1.841
 2727W        W 6778   0.415   7.858  10.493
 2728W        W 6779  10.922   9.611   3.647
 2729W        W 6780   0.430   3.887   1.799
 2730W        W 6781  11.362   9.840   9.837
 2731W        W 6782   0.716   5.532   1.473
 2732W        W 6783   0.517   8.432   9.590
 2733W        W 6784   0.625   1.913  10.689
 2734W        W 6785   7.201  10.061  10.076
 2735W        W 6786   4.533   5.798  10.160
 2736W        W 6787   7.844  10.901  10.161
 2737W        W 6788  10.071   6.562   3.316
 2738W        W 6789   7.413   0.819   1.113
 2739W        W 6790   5.605   5.163   9.708
 2740W        W 6791   9.907   3.944   2.591
 2741W        W 6792   5.580   8.440  10.461
 2742W        W 6793   8.519  10.177   1.833
 2743W        W 6794   5.208   4.951  11.125
 2744W        W 6795  10.907   8.197   9.059
 2745W        W 6796   7.465   3.476  11.903
 2746W        W 6797   7.154   5.153  10.847
 2747W        W 6798  11.336  10.274  11.526
 2748W        W 6799   0.963   1.149   1.819
 2749W        W 6800   2.202   6.473  10.916
 2750W        W 6801   5.221   4.127  10.836
 2751W        W 6802   8.895   2.301  10.491
 2752W        W 6803   2.902   7.057   2.240
 2753W        W 6804   7.797   3.089   0.074
 2754W        W 6805   8.090  11.362   0.404
 2755W        W 6806   7.534   1.182   9.463
 2756W        W 6807   4.334   8.274   2.051
 2757W        W 6808   2.672   6.729   1.380
 2758W        W 6809   6.502   3.232   1.452
 2759W        W 6810   2.397   4.705   8.834
 2760W        W 6811   7.088   9.927  11.986
 2761W        W 6812  11.124   5.722   0.725
 2762W        W 6813   5.941  10.094   1.864
 2763W        W 6814   9.593   7.954   2.347
 2764W        W 6815   5.245   4.769  10.226
 2765W        W 6816  10.022   1.336   9.024
 2766W        W 6817   5.581   0.395  11.988
 2767W        W 6818   4.801  10.385   0.304
 2768W        W 6819   7.623   8.139   1.086
 2769W        W 6820   2.243   6.126   0.353
 2770W        W 6821   2.832   9.041   1.947
 2771W        W 6822   2.243   0.396   1.496
 2772W        W 6823   2.191   4.682   2.376
 2773W        W 6824   4.027   2.061  11.893
 2774W        W 6825  10.514   1.243   2.732
 2775W        W 6826  10.219   5.112   9.062
 2776W        W 6827   7.730   4.515   2.860
 2777W        W 6828   2.130   5.052  11.226
 2778W        W 6829   3.956  10.695   0.357
 2779W        W 6830   8.664   7.855   3.194
 2780W        W 6831   2.896   9.626   1.230
 2781W        W 6832   5.536   1.242   2.397
 2782W        W 6833   7.685   4.670   8.442
 2783W        W 6834   2.554   4.209   9.397
 2784W        W 6835   6.990   7.566   0.800
 2785W        W 6836  10.278   4.561   0.932
 2786W        W 6837  10.392   8.664   2.287
 2787W        W 6838   4.635   2.768  11.882
 2788W        W 6839   6.491   2.198  10.232
 2789W        W 6840   8.308   3.180  11.959
 2790W        W 6841   8.229  10.504   8.914
 2791W        W 6842   5.778   9.851  10.919
 2792W        W 6843   8.521   9.139   0.264
 2793W        W 6844   5.320   2.262   1.780
 2794W        W 6845   8.504   4.650   1.366
 2795W        W 6846   5.513   8.931   2.328
 2796W        W 6847   5.896   1.213  10.782
 2797W        W 6848   9.757   4.493  11.223
 2798W        W 6849   6.519   0.602   2.751
 2799W        W 6850   2.906   3.258   1.302
 2800W        W 6851   7.151   9.353   3.396
 2801W        W 6852   3.211   6.294  10.254
 2802W        W 6853   5.052   6.490   1.816
 2803W        W 6854   4.480   7.951   9.340
 2804W        W 6855   5.712   7.478   9.417
 2805W        W 6856   9.435   3.368   9.740
 2806W        W 6857   9.525   1.206  11.299
 2807W        W 6858   3.722   4.609   2.617
 2808W        W 6859   5.524   3.692  10.534
 2809W        W 6860  10.096   7.627  11.782
 2810W        W 6861   0.772   6.943   1.748
 2811W        W 6862   0.422   7.919   0.731
 2812W        W 6863   5.669   0.777  11.501
 2813W        W 6864  10.962   8.215  10.270
 2814W        W 6865   9.908   0.237   2.329
 2815W        W 6866   9.856  11.321   9.041
 2816W        W 6867   8.632   9.301   1.925
 2817W        W 6868   7.169   1.874   8.805
 2818W        W 6869   4.693   9.088   8.954
 2819W        W 6870  10.094   4.690   9.375
 2820W        W 6871   1.337   4.119   1.466
 2821W        W 6872   7.159   0.388   3.417
 2822W        W 6873   2.435   0.977   2.234
 2823W        W 6874   1.357  11.400   3.490
 2824W        W 6875   3.008   7.070   8.104
 2825W        W 6876   8.491   0.208   9.027
 2826W        W 6877   0.641   5.807   9.058
 2827W        W 6878   9.988   9.796   8.775
 2828W        W 6879   6.625   1.263   2.431
 2829W        W 6880   4.543   1.806   9.029
 2830W        W 6881   0.276  11.278  11.623
 2831W        W 6882   9.001   6.843   0.379
 2832W        W 6883   6.234   8.984   0.783
 2833W        W 6884  10.645   7.023   2.229
 2834W        W 6885   8.985  10.022   1.971
 2835W        W 6886   3.693   0.633  11.153
 2836W        W 6887   7.876   1.655  11.953
 2837W        W 6888   3.121   1.117   2.528
 2838W        W 6889  11.367   1.276   8.798
 2839W        W 6890  10.247   6.157   2.732
 2840W        W 6891   0.439   3.559  11.118
 2841W        W 6892   8.533  10.212   4.059
 2842W        W 6893   5.240  10.613   1.876
 2843W        W 6894   6.616  10.947  11.536
 2844W        W 6895  10.894   6.833   2.679
 2845W        W 6896   7.481  10.501  11.813
 2846W        W 6897   5.636   6.119   9.371
 2847W        W 6898   1.782   6.011   2.730
 2848W        W 6899   2.383   7.045   2.297
 2849W        W 6900   0.258   9.927  11.566
 2850W        W 6901   2.259   3.887   2.800
 2851W        W 6902  11.462   8.450   3.295
 2852W        W 6903   7.141   6.373   9.616
 2853W        W 6904  10.453  10.569  11.532
 2854W        W 6905   1.062   7.429   2.233
 2855W        W 6906   3.984   3.716   2.172
 2856W        W 6907   8.963   6.360  10.463
 2857W        W 6908   6.578   8.526  11.652
 2858W        W 6909  10.447   1.900   2.337
 2859W        W 6910   1.268   3.334  10.325
 2860W        W 6911   6.071   7.127   2.251
 2861W        W 6912   4.523   3.947   9.501
 2862W        W 6913   0.854  10.709   2.005
 2863W        W 6914   0.397   8.843   0.459
 2864W        W 6915   3.759   2.191  10.088
 2865W        W 6916   7.091   0.418   9.956
 2866W        W 6917  11.039   3.792   1.967
 2867W        W 6918   7.126   0.335  10.996
 2868W        W 6919   7.539   6.658   3.839
 2869W        W 6920   9.624   7.811   0.039
 2870W        W 6921   5.019   8.169  11.178
 2871W        W 6922   4.901   7.985   2.556
 2872W        W 6923   1.608   5.859   8.496
 2873W        W 6924   6.103   9.668   2.083
 2874W        W 6925   1.750   4.155   1.792
 2875W        W 6926   1.061   7.372   8.597
 2876W        W 6927   5.326  10.321   0.409
 2877W        W 6928   0.506   9.944   0.023
 2878W        W 6929   8.348   8.659  11.956
 2879W        W 6930   8.668   5.617   3.121
 2880W        W 6931   5.585   4.713  11.437
 2881W        W 6932   0.765   1.886   0.452
 2882W        W 6933  10.126   4.287   0.411
 2883W        W 6934   6.627   1.936   0.555
 2884W        W 6935   5.301   7.393  11.351
 2885W        W 6936   5.458   9.139   9.451
 2886W        W 6937   5.654   0.811   3.260
 2887W        W 6938  10.336   4.222   2.569
 2888W        W 6939   2.079   8.794  10.834
 2889W        W 6940   6.068   7.106   1.349
 2890W        W 6941   4.802   3.865   3.694
 2891W        W 6942   5.949   2.352   2.691
 2892W        W 6943   9.338   3.772   9.039
 2893W        W 6944   1.709   4.651   1.993
 2894W        W 6945   4.747   2.252   9.122
 2895W        W 6946   2.213   6.635   1.151
 2896W        W 6947   0.033   7.528  10.576
 2897W        W 6948   3.960   9.313   2.882
 2898W        W 6949   1.996   4.176   2.408
 2899W        W 6950   5.160   2.346   4.029
 2900W        W 6951  10.074   2.206  10.049
 2901W        W 6952   3.326  10.273   2.229
 2902W        W 6953   3.744  10.814   3.158
 2903W        W 6954   7.041   9.130  10.535
 2904W        W 6955   7.980   2.797   2.263
 2905W        W 6956   7.056   3.801  10.809
 2906W        W 6957  10.837   2.633   0.236
 2907W        W 6958   7.176   9.571  10.325
 2908W        W 6959   2.296   9.962   2.319
 2909W        W 6960   4.137   6.474   2.019
 2910W        W 6961   7.602   4.710   1.866
 2911W        W 6962   0.390   1.364   8.956
 2912W        W 6963   0.913   3.762   2.009
 2913W        W 6964  11.348   6.242   2.359
 2914W        W 6965   6.756   8.933   2.269
 2915W        W 6966   2.107   0.729  10.847
 2916W        W 6967   2.895   4.676   8.686
 2917W        W 6968  11.016  10.463   9.791
 2918W        W 6969   7.543   3.628   9.945
 2919W        W 6970   0.719   3.078  11.878
 2920W        W 6971   7.515  10.263   3.160
 2921W        W 6972   4.214   3.405   1.760
 2922W        W 6973  10.854   9.490   9.953
 2923W        W 6974   9.553   8.357   3.154
 2924W        W 6975  11.057   4.517   8.867
 2925W        W 6976   8.349   9.509   1.019
 2926W        W 6977   0.953   0.157   9.704
 2927W        W 6978   9.043   4.759   0.279
 2928W        W 6979   6.717   3.812   1.428
 2929W        W 6980   5.174   5.986   1.889
 2930W        W 6981   0.785   3.057   3.092
 2931W        W 6982  10.332   5.510   8.386
 2932W        W 6983   0.993   7.953   0.073
 2933W        W 6984   7.555   3.650  10.947
 2934W        W 6985  11.252   0.257  10.538
 2935W        W 6986   1.911   8.400   2.671
 2936W        W 6987   1.826   3.683   1.573
 2937W        W 6988   8.404   4.765   0.008
 2938W        W 6989   4.750  11.207  11.138
 2939W        W 6990   0.928   3.110   1.499
 2940W        W 6991   7.295   9.923   2.773
 2941W        W 6992   6.924   4.144  11.505
 2942W        W 6993   3.309   2.741   9.615
 2943W        W 6994   1.126   1.927  10.856
 2944W        W 6995   0.643   9.311   9.492
 2945W        W 6996   1.808   8.313   0.356
 2946W        W 6997   7.409   4.846   1.410
 2947W        W 6998   5.399   7.036  11.748
 2948W        W 6999   4.675   3.454   1.349
 2949W        W 7000   0.779   5.090  10.432
 2950W        W 7001   9.910   3.289   3.356
 2951W        W 7002   1.763   8.137   9.382
 2952W        W 7003   3.039   4.781   3.424
 2953W        W 7004   9.670   1.979   0.719
 2954W        W 7005   0.763  10.111   0.874
 2955W        W 7006   2.752   8.359   9.626
 2956W        W 7007   3.771   7.973   9.950
 2957W        W 7008   8.691   3.025   2.726
 2958W        W 7009  10.579   8.194   9.940
 2959W        W 7010   0.464   1.855   3.287
 2960W        W 7011   1.722   9.961   9.793
 2961W        W 7012   2.759   4.761   3.877
 2962W        W 7013   9.958   9.908   9.859
 2963W        W 7014   0.013   0.193   1.353
 2964W        W 7015   6.627   4.540   1.941
 2965W        W 7016   1.712   0.001  11.569
 2966W        W 7017   5.039   4.327   9.451
 2967W        W 7018   5.136   8.985   3.552
 2968W        W 7019   8.238   3.058   3.650
 2969W        W 7020   7.673   6.612   8.979
 2970W        W 7021   7.166   7.558   2.773
 2971W        W 7022  10.275  10.400   2.720
 2972W        W 7023   7.184   4.222  11.044
 2973W        W 7024   9.712   3.737   3.538
 2974W        W 7025   2.776   0.734   1.664
 2975W        W 7026   8.598   9.034   0.810
 2976W        W 7027   5.026   3.151   1.829
 2977W        W 7028   3.115   0.738   1.282
 2978W        W 7029   4.813  10.689  11.230
 2979W        W 7030   2.218   5.245   4.220
 2980W        W 7031   7.131   0.492   0.805
 2981W        W 7032   2.804   6.113  11.496
 2982W        W 7033   2.132   0.747   9.967
 2983W        W 7034   1.836   9.996   8.868
 2984W        W 7035  10.699   8.644  10.358
 2985W        W 7036   0.517   4.994   8.381
 2986W        W 7037   4.159   2.672   9.514
 2987W        W 7038   7.147   6.376   4.014
 2988W        W 7039   7.457   9.053   1.664
 2989W        W 7040   3.214   6.588  10.730
 2990W        W 7041   0.986   4.407  11.209
 2991W        W 7042   2.272   3.780  10.259
 2992W        W 7043  11.319  10.945   3.324
 2993W        W 7044   9.951  10.912   3.218
 2994W        W 7045   5.964   0.935  10.340
 2995W        W 7046   1.258   7.661   0.858
 2996W        W 7047   6.907   7.031   1.575
 2997W        W 7048  10.786   6.052  10.324
 2998W        W 7049   8.669   0.451   9.455
 2999W        W 7050   4.726   4.769  11.001
 3000W        W 7051   9.670   3.629   1.665
 3001W        W 7052   9.386   6.450   2.100
 3002W        W 7053   5.749   9.938   2.383
 3003W        W 7054   8.481   7.842  10.980
 3004W        W 7055   4.665   3.647   0.538
 3005W        W 7056   3.721   3.530  10.413
 3006W        W 7057   9.133   2.732  10.324
 3007W        W 7058   4.277   7.750   0.423
 3008W        W 7059   0.686   1.590   9.483
 3009W        W 7060  10.470   0.396   0.530
 3010W        W 7061   0.279   5.886   9.449
 3011W        W 7062   1.099   8.233   8.900
 3012W        W 7063   9.088   1.715  11.469
 3013W        W 7064   8.911   9.104   1.520
 3014W        W 7065   4.592   0.239   0.862
 3015W        W 7066   1.343   3.685   0.189
 3016W        W 7067   9.256   5.639   3.273
 3017W        W 7068   8.427   9.001   9.867
 3018W        W 7069   4.020   7.441   0.759
 3019W        W 7070   9.045   2.239   1.147
 3020W        W 7071   8.397   4.359   2.247
 3021W        W 7072   6.032  10.487   0.661
 3022W        W 7073  11.286   1.815   1.653
 3023W        W 7074   7.148   4.836   2.125
 3024W        W 7075   2.111   4.229   3.168
 3025W        W 7076   3.266  10.841  10.364
 3026W        W 7077   0.852   5.339  11.348
 3027W        W 7078   5.537   2.792  10.011
 3028W        W 7079   1.797   1.703   3.077
 3029W        W 7080   4.483   7.598   0.914
 3030W        W 7081   1.788   6.030   9.391
 3031W        W 7082   4.193   7.601  11.877
 3032W        W 7083  11.108   9.181   3.380
 3033W        W 7084   4.013   6.660  10.374
 3034W        W 7085   6.173   7.907   2.661
 3035W        W 7086   5.432   1.874   8.522
 3036W        W 7087   0.609   3.412   1.772
 3037W        W 7088   3.554   1.248   3.341
 3038W        W 7089  11.025   1.059   2.480
 3039W        W 7090   4.650   8.062   0.200
 3040W        W 7091   7.438   4.025   9.652
 3041W        W 7092   7.061   6.731   3.623
 3042W        W 7093   8.697   6.482   3.200
 3043W        W 7094   5.974   5.945   0.372
 3044W        W 7095  10.449  10.792   1.872
 3045W        W 7096   4.794   1.970  11.517
 3046W        W 7097   1.469  10.345   9.067
 3047W        W 7098   8.047   3.278   1.613
 3048W        W 7099   6.344  10.741   2.308
 3049W        W 7100   5.512   8.386   9.072
 3050W        W 7101   3.307   9.600   4.160
 3051W        W 7102   2.123   5.602   3.880
 3052W        W 7103   3.991  11.034   1.210
 3053W        W 7104   7.019   3.226   0.072
 3054W        W 7105   7.876   0.788  10.058
 3055W        W 7106  10.198  10.384   8.637
 3056W        W 7107  11.465   4.130   2.046
 3057W        W 7108  10.051   3.467   2.886
 3058W        W 7109   6.713   7.346  11.942
 3059W        W 7110   2.621   0.870   9.022
 3060W        W 7111   2.572   9.641   2.616
 3061W        W 7112   0.876   6.821   2.724
 3062W        W 7113   1.405   1.241  11.951
 3063W        W 7114  11.373   1.315  11.531
 3064W        W 7115   2.066   4.835   9.857
 3065W        W 7116   3.258   5.058   8.657
 3066W        W 7117   5.098   3.912  10.390
 3067W        W 7118   1.233   1.215   1.385
 3068W        W 7119   9.954   2.270   9.061
 3069W        W 7120   7.462   4.987   9.658
 3070W        W 7121   8.963   9.120   3.011
 3071W        W 7122   2.212   9.981   9.866
 3072W        W 7123   4.614  11.105   2.394
 3073W        W 7124   6.674   7.819   0.113
 3074W        W 7125   1.711   8.669  11.401
 3075W        W 7126   8.580  10.707   1.948
 3076W        W 7127   9.945   1.486   1.642
 3077W        W 7128   7.857   3.685   2.414
 3078W        W 7129  10.806   3.114   0.042
 3079W        W 7130   1.622   7.393   3.480
 3080W        W 7131   7.542   6.600   2.451
 3081W        W 7132   9.594   6.590   3.094
 3082W        W 7133   8.428   0.641   1.660
 3083W        W 7134   8.327   0.135  10.390
 3084W        W 7135  11.345   8.042   8.811
 3085W        W 7136   3.068   7.040   2.872
 3086W        W 7137   9.925   0.960   3.030
 3087W        W 7138   2.115   1.278   9.998
 3088W        W 7139   1.687   4.595   2.482
 3089W        W 7140   3.713  10.031   9.797
 3090W        W 7141   0.743  10.560   0.571
 3091W        W 7142   5.163  11.059   3.474
 3092W        W 7143   0.045   8.557   1.786
 3093W        W 7144   8.004   1.948   1.231
 3094W        W 7145   1.186   3.203   0.074
 3095W        W 7146   7.573  11.488   0.657
 3096W        W 7147  11.204   2.249   1.376
 3097W        W 7148   6.773   8.621  10.684
 3098W        W 7149   3.804   3.700   0.740
 3099W        W 7150   8.709   1.395   9.269
 3100W        W 7151  10.934   5.060   3.216
 3101W        W 7152   9.381   8.406  10.969
 3102W        W 7153   4.734   1.672   2.889
 3103W        W 7154   6.294   7.253   3.598
 3104W        W 7155   5.991   6.206   2.218
 3105W        W 7156   0.306   8.805   8.782
 3106W        W 7157   2.944  10.924  10.777
 3107W        W 7158   6.854   2.353   0.320
 3108W        W 7159  11.233   0.759   3.669
 3109W        W 7160   4.076   7.081  11.728
 3110W        W 7161   9.768   1.440  11.974
 3111W        W 7162   1.491   7.785   3.107
 3112W        W 7163   3.846   2.758  10.850
 3113W        W 7164   3.301   4.709   9.051
 3114W        W 7165   2.211  10.532   3.024
 3115W        W 7166   5.525   3.602   3.921
 3116W        W 7167   9.483   3.337   9.239
 3117W        W 7168   6.208  10.728   8.946
 3118W        W 7169   1.328   3.635   2.327
 3119W        W 7170   0.999   3.161   9.142
 3120W        W 7171   6.268   8.768  10.829
 3121W        W 7172   5.501   5.558  11.396
 3122W        W 7173   1.824   2.834   2.267
 3123W        W 7174   1.014   8.450   0.732
 3124W        W 7175   3.796   9.485   2.438
 3125W        W 7176   5.199   2.561  10.296
 3126W        W 7177  10.643   4.410   0.258
 3127W        W 7178   4.038   4.940   8.184
 3128W        W 7179   2.779   4.620   9.186
 3129W        W 7180   1.655   5.116  10.299
 3130W        W 7181   8.905   9.627  11.910
 3131W        W 7182   9.982   0.759  10.553
 3132W        W 7183   2.929  10.895   2.623
 3133W        W 7184   8.892  10.978  10.867
 3134W        W 7185   7.094   8.430   2.871
 3135W        W 7186   4.339   8.056   1.401
 3136W        W 7187   4.195   9.781   2.286
 3137W        W 7188   0.956   9.349   9.916
 3138W        W 7189   1.233   8.795   8.858
 3139W        W 7190   9.834   3.618   9.938
 3140W        W 7191   4.210   3.586   9.222
 3141W        W 7192   9.360  10.005  10.387
 3142W        W 7193   8.863   9.434   8.735
 3143W        W 7194   7.646   8.120   2.532
 3144W        W 7195   1.349   8.378   1.488
 3145W        W 7196   8.646   2.627  11.016
 3146W        W 7197  11.333   9.343   1.289
 3147W        W 7198  10.701   6.092   0.982
 3148W        W 7199   1.909   7.909  10.541
 3149W        W 7200   1.925   0.856   2.135
 3150W        W 7201  10.409   9.380   2.751
 3151W        W 7202   2.756  11.294   9.319
 3152W        W 7203   4.177   0.938  11.837
 3153W        W 7204  10.240   8.600   0.970
 3154W        W 7205   6.636   7.664   2.795
 3155W        W 7206   3.587   0.488   1.329
 3156W        W 7207  10.751   4.820  11.231
 3157W        W 7208   3.198   6.405   0.305
 3158W        W 7209   6.713  11.428  11.359
 3159W        W 7210   1.117   1.596   8.438
 3160W        W 7211   3.826   8.812  11.459
 3161W        W 7212  10.464   4.699   1.397
 3162W        W 7213   5.391   6.519  11.799
 3163W        W 7214   5.178   0.756  11.254
 3164W        W 7215   1.306  11.039   0.372
 3165W        W 7216   3.198   3.872   1.367
 3166W        W 7217  11.286   5.767   8.711
 3167W        W 7218  10.443   3.102   9.030
 3168W        W 7219   1.434   0.110   3.008
 3169W        W 7220   6.285   7.659   3.167
 3170W        W 7221   7.884   4.152   0.711
 3171W        W 7222   6.708   3.681   3.283
 3172W        W 7223   3.854   6.600  11.789
 3173W        W 7224  10.689   5.662  11.435
 3174W        W 7225   4.738   9.933   9.719
 3175W        W 7226   4.058   0.932   1.212
 3176W        W 7227   9.586   4.297   3.291
 3177W        W 7228   8.512   8.688  10.555
 3178W        W 7229   0.071   8.989  10.266
 3179W        W 7230   0.746   6.378   0.860
 3180W        W 7231   4.274   9.008   3.165
 3181W        W 7232   6.279   0.149   0.511
 3182W        W 7233   5.856   3.329   3.073
 3183W        W 7234   2.258   5.309   2.990
 3184W        W 7235   6.448   5.882  10.534
 3185W        W 7236  10.368   7.193   9.983
 3186W        W 7237   9.826   5.735   0.508
 3187W        W 7238   3.534   8.463   0.639
 3188W        W 7239   8.365  10.026   0.711
 3189W        W 7240   9.187   6.506   3.382
 3190W        W 7241   9.191   8.009   8.545
 3191W        W 7242   1.966   2.710   0.215
 3192W        W 7243   1.676  10.013  10.317
 3193W        W 7244   4.488  10.956   1.269
 3194W        W 7245   6.228   5.734  10.077
 3195W        W 7246  10.559   3.670  11.805
 3196W        W 7247   9.999   1.816   8.769
 3197W        W 7248   9.940   6.152   3.607
 3198W        W 7249   6.959   1.300  10.981
 3199W        W 7250   0.323   2.926   3.296
 3200W        W 7251   8.488   5.848   0.678
 3201W        W 7252   8.868   5.453   1.466
 3202W        W 7253   3.323   2.732  10.149
 3203W        W 7254   4.646   6.684   9.131
 3204W        W 7255   8.481   7.423   9.793
 3205W        W 7256   3.677  10.182   8.955
 3206W        W 7257  10.695   9.495   9.304
 3207W        W 7258  11.335   8.377   0.234
 3208W        W 7259  10.895   7.023  10.329
 3209W        W 7260   3.585   1.378  11.166
 3210W        W 7261   2.106   4.455   3.627
 3211W        W 7262   3.140  10.375  11.136
 3212W        W 7263  11.241   9.382   0.206
 3213W        W 7264   8.081   7.953   0.356
 3214W        W 7265   5.779   0.554  10.642
 3215W        W 7266   0.427   8.162   1.174
 3216W        W 7267   1.286   4.323   1.923
 3217W        W 7268   2.087   5.100   8.083
 3218W        W 7269   4.025   7.946   2.342
 3219W        W 7270   7.020  10.808   1.696
 3220W        W 7271   9.423   9.862   1.742
 3221W        W 7272   3.386   4.277   2.444
 3222W        W 7273   1.636   0.548   9.087
 3223W        W 7274   0.356   3.500   8.868
 3224W        W 7275   8.077   7.663   9.991
 3225W        W 7276   9.152   1.450  11.037
 3226W        W 7277   0.812   1.269   1.043
 3227W        W 7278   3.785  11.008   2.623
 3228W        W 7279   7.372   2.431  11.340
 3229W        W 7280   4.101   4.705   2.302
 3230W        W 7281   2.880  10.318   3.409
 3231W        W 7282  10.903   9.588   1.143
 3232W        W 7283   3.091  10.447  10.637
 3233W        W 7284   5.811   1.681   2.455
 3234W        W 7285   2.829  10.086   1.020
 3235W        W 7286   9.738   4.784   3.215
 3236W        W 7287  10.877  11.298   2.676
 3237W        W 7288   6.725   1.256  11.457
 3238W        W 7289  11.069  10.380   2.301
 3239W        W 7290   0.978  11.273  10.447
 3240W        W 7291   9.329  11.298   1.338
 3241W        W 7292   0.919   6.982  11.379
 3242W        W 7293   9.346   1.948  10.534
 3243W        W 7294   5.461   1.418  10.970
 3244W        W 7295   1.734   2.070   2.706
 3245W        W 7296   7.803  10.097   2.775
 3246W        W 7297   3.272   7.281   9.069
 3247W        W 7298   4.851   8.221   2.114
 3248W        W 7299   2.836  10.590   0.982
 3249W        W 7300   8.660   2.102   1.833
 3250W        W 7301   5.695   5.112  11.066
 3251W        W 7302   0.657   3.290   0.965
 3252W        W 7303   6.570   1.254   1.932
 3253W        W 7304   0.840   4.015   9.441
 3254W        W 7305   6.991   9.985  10.544
 3255W        W 7306  10.893   8.565   2.212
 3256W        W 7307   3.620   7.548  10.764
 3257W        W 7308   0.299   2.646   0.545
 3258W        W 7309   9.002   1.876   1.491
 3259W        W 7310   0.459   9.487   9.931
 3260W        W 7311   0.709   5.782  11.574
 3261W        W 7312   1.449   1.949   0.253
 3262W        W 7313   9.492   2.854  11.976
 3263W        W 7314   4.900   9.571   1.438
 3264W        W 7315   2.509   7.572  10.233
 3265W        W 7316   6.555   6.716  10.765
 3266W        W 7317   0.383   4.764   9.337
 3267W        W 7318   8.916  10.013  10.642
 3268W        W 7319   2.883   7.217   1.407
 3269W        W 7320   7.079   3.595   1.777
 3270W        W 7321   1.014   0.943  11.777
 3271W        W 7322   9.952   1.247  11.562
 3272W        W 7323   1.715   5.695  10.841
 3273W        W 7324   5.421  11.312  10.349
 3274W        W 7325  10.545   4.611   9.095
 3275W        W 7326   0.314   7.155  10.802
 3276W        W 7327   5.431  10.398   9.772
 3277W        W 7328   1.415   0.791  11.509
 3278W        W 7329   9.829   9.347  10.126
 3279W        W 7330   2.702   2.641   9.133
 3280W        W 7331   4.985   5.363  11.322
 3281W        W 7332   1.726   4.786  11.928
 3282W        W 7333   8.887   2.921   0.789
 3283W        W 7334   4.516   7.836   2.225
 3284W        W 7335  11.441   0.743   1.390
 3285W        W 7336   6.697   7.975  10.450
 3286W        W 7337  11.279   1.568   9.786
 3287W        W 7338   4.858   9.348   9.846
 3288W        W 7339   1.811   8.951   2.736
 3289W        W 7340   8.192   8.508   1.388
 3290W        W 7341   4.144   4.704   1.295
 3291W        W 7342   0.844   9.773   9.532
 3292W        W 7343   0.937   6.426   2.401
 3293W        W 7344  10.370   8.360   2.757
 3294W        W 7345  10.910   5.693   1.211
 3295W        W 7346  10.078   5.241   2.187
 3296W        W 7347   5.782   1.220   2.951
 3297W        W 7348   9.577   8.876  11.810
 3298W        W 7349   1.218   6.714   9.220
 3299W        W 7350   5.198   5.096   0.993
 3300W        W 7351   1.297   2.474   3.382
 3301W        W 7352   5.293   2.553   2.803
 3302W        W 7353   2.318   4.771   0.667
 3303W        W 7354   1.967  10.882  10.785
 3304W        W 7355   2.206  11.252   0.755
 3305W        W 7356   0.292   9.012   9.757
 3306W        W 7357   1.208  11.289   9.996
 3307W        W 7358  11.206   6.267   8.898
 3308W        W 7359   3.652   1.782   3.187
 3309W        W 7360   3.232   8.492   9.403
 3310W        W 7361   0.060   2.930   9.523
 3311W        W 7362   6.446   3.323   0.317
 3312W        W 7363   5.051  10.837   2.475
 3313W        W 7364   2.792   0.243   9.562
 3314W        W 7365   0.821   5.813   0.070
 3315W        W 7366   1.997   8.004  11.058
 3316W        W 7367   8.834   0.765   9.829
 3317W        W 7368   2.373   1.373   2.860
 3318W        W 7369   9.491   7.083   0.335
 3319W        W 7370   7.393   8.898   8.382
 3320W        W 7371   0.057  10.525   1.909
 3321W        W 7372   1.787  10.300  10.788
 3322W        W 7373   0.790   7.300  10.983
 3323W        W 7374   8.134   4.264   2.658
 3324W        W 7375   0.458   2.717   2.357
 3325W        W 7376   8.239   6.691  11.884
 3326W        W 7377   6.931   2.712   1.793
 3327W        W 7378   5.732   5.608  10.933
 3328W        W 7379  11.260   0.726   8.825
 3329W        W 7380   4.767   7.963   9.773
 3330W        W 7381   4.371  10.857  11.093
 3331W        W 7382   3.244   0.941   9.588
 3332W        W 7383   2.427   2.806   0.046
 3333W        W 7384  10.387   3.145   9.541
 3334W        W 7385   3.411   4.657  11.629
 3335W        W 7386   3.931   8.823  10.958
 3336W        W 7387   2.657   7.207   2.666
 3337W        W 7388   3.536   5.507   8.712
 3338W        W 7389   9.464   8.032   9.081
 3339W        W 7390   8.049   0.834  10.862
 3340W        W 7391   8.249  10.500  10.323
 3341W        W 7392   5.146  11.464   8.980
 3342W        W 7393   9.109  10.891  10.391
 3343W        W 7394  10.816   7.985  11.198
 3344W        W 7395   0.722   2.590   9.810
 3345W        W 7396   1.870  10.536   1.318
 3346W        W 7397  11.015   4.410   3.645
 3347W        W 7398  11.361   3.126   3.179
 3348W        W 7399   2.428   7.141   8.967
 3349W        W 7400   6.503   4.333   9.583
 3350W        W 7401   1.907   3.836   0.839
 3351W        W 7402   9.544   4.608   1.385
 3352W        W 7403   7.959   9.795  11.781
 3353W        W 7404   7.534   7.709   0.443
 3354W        W 7405   5.042   6.483   0.262
 3355W        W 7406   6.426   4.142   8.622
 3356W        W 7407  10.238   9.079  10.364
 3357W        W 7408  11.283   6.552   0.299
 3358W        W 7409   6.508  10.932  10.347
 3359W        W 7410   5.073  11.332  10.757
 3360W        W 7411   4.718   4.159   9.915
 3361W        W 7412   4.663   9.244   1.781
 3362W        W 7413   8.860   6.579   0.806
 3363W        W 7414   2.482   3.229  11.738
 3364W        W 7415   8.756   8.016   9.483
 3365W        W 7416   6.467   2.760   8.960
 3366W        W 7417   3.719   5.684  10.814
 3367W        W 7418   3.194   1.413   9.803
 3368W        W 7419  10.120   7.907   2.368
 3369W        W 7420   9.886   7.009   3.114
 3370W        W 7421   7.415   5.726   1.784
 3371W        W 7422   2.680  10.445  10.934
 3372W        W 7423   2.184  10.479  11.061
 3373W        W 7424   5.178  10.216  11.931
 3374W        W 7425   8.988   6.615   2.428
 3375W        W 7426   1.862   8.916   3.623
 3376W        W 7427   9.551   2.636  11.516
 3377W        W 7428  11.431  10.255  10.113
 3378W        W 7429   3.138   1.822   2.983
 3379W        W 7430   4.912   5.687  10.525
 3380W        W 7431   4.663   3.441   9.489
 3381W        W 7432   8.047   1.068  11.332
 3382W        W 7433   0.811   9.279  11.391
 3383W        W 7434   7.353   3.635   2.697
 3384W        W 7435   1.701   6.694   8.944
 3385W        W 7436   3.786   9.779  11.264
 3386W        W 7437   5.255   0.676   9.376
 3387W        W 7438   5.711   5.095   9.206
 3388W        W 7439   7.521   9.428   9.495
 3389W        W 7440   3.009  10.376   1.846
 3390W        W 7441   9.789   0.417  10.870
 3391W        W 7442   3.706   3.331   2.718
 3392W        W 7443   8.187   5.882   9.433
 3393W        W 7444   6.944   6.425  10.952
 3394W        W 7445   2.558   8.816  11.939
 3395W        W 7446   3.750   5.048   8.808
 3396W        W 7447   2.258   1.357   0.507
 3397W        W 7448  11.077   0.832   1.792
 3398W        W 7449   7.945   0.797   0.466
 3399W        W 7450   9.448   5.509   0.256
 3400W        W 7451   5.720   7.646  11.500
 3401W        W 7452   6.822   9.440   8.038
 3402W        W 7453   4.503   8.119   0.742
 3403W        W 7454   8.865   6.197   2.731
 3404W        W 7455   0.429   4.545   0.165
 3405W        W 7456   6.250  10.260   9.218
 3406W        W 7457   8.408   7.061   2.568
 3407W        W 7458   2.676   9.224  10.405
 3408W        W 7459   1.924   7.083  10.255
 3409W        W 7460   3.605   3.796   2.511
 3410W        W 7461   3.377   5.432   0.464
 3411W        W 7462   6.075   5.417   1.918
 3412W        W 7463   3.870   0.868   1.675
 3413W        W 7464   7.400   2.178   3.466
 3414W        W 7465   5.746  10.918  10.971
 3415W        W 7466  11.368   8.136   9.838
 3416W        W 7467   0.726   6.004   2.627
 3417W        W 7468   5.794   8.501   2.318
 3418W        W 7469   0.748   3.363   2.268
 3419W        W 7470   7.473   3.339  11.380
 3420W        W 7471   6.013   0.007   3.159
 3421W        W 7472   5.221   1.220  10.574
 3422W        W 7473   7.436   8.531   0.286
 3423W        W 7474   1.817  10.075   1.034
 3424W        W 7475   3.729   7.002   3.273
 3425W        W 7476  11.113   8.474   1.181
 3426W        W 7477   4.621   6.206  11.747
 3427W        W 7478   1.656   4.298   0.814
 3428W        W 7479   8.016   4.630   1.177
 3429W        W 7480   6.787   4.042   2.699
 3430W        W 7481   9.050   3.244   1.408
 3431W        W 7482  10.655   7.978  10.696
 3432W        W 7483   0.095   1.070   9.873
 3433W        W 7484   9.266  10.303   9.005
 3434W        W 7485   7.953   8.211   9.266
 3435W        W 7486   8.050   0.929   1.820
 3436W        W 7487   6.138   6.754   3.115
 3437W        W 7488   4.524   1.268   0.867
 3438W        W 7489  11.447  10.749   9.989
 3439W        W 7490  11.296   6.509   2.807
 3440W        W 7491   4.532   1.607   8.537
 3441W        W 7492   2.280   3.840   9.169
 3442W        W 7493   8.942   9.901  11.474
 3443W        W 7494   1.907   5.938   0.689
 3444W        W 7495   2.905   9.070   0.328
 3445W        W 7496   2.325   1.044   9.561
 3446W        W 7497   5.056   0.797   1.195
 3447W        W 7498   9.334   1.278   1.231
 3448W        W 7499   8.341  10.885  10.907
 3449W        W 7500   0.310   5.731   0.072
 3450W        W 7501   6.696   4.223  10.926
 3451W        W 7502   2.335  11.369   1.422
 3452W        W 7503   3.715   1.410  10.662
 3453W        W 7504   4.007   1.462   3.445
 3454W        W 7505   8.903   9.947  10.110
 3455W        W 7506   7.143   2.380   8.651
 3456W        W 7507   0.979   2.623   9.368
 3457W        W 7508   9.394   4.388   8.518
 3458W        W 7509   3.781   1.282   9.132
 3459W        W 7510   4.650   3.374   3.669
 3460W        W 7511   8.456  10.322   9.430
 3461W        W 7512   0.756   7.080   3.155
 3462W        W 7513   4.489   0.140  11.007
 3463W        W 7514   4.396   6.625   2.455
 3464W        W 7515   5.646   8.011   1.201
 3465W        W 7516   4.958   3.931   3.203
 3466W        W 7517   6.243  10.227   2.257
 3467W        W 7518   5.612   3.079   1.223
 3468W        W 7519   0.397   2.190   2.469
 3469W        W 7520  10.926   2.152   0.393
 3470W        W 7521   7.034   6.532   1.684
 3471W        W 7522   4.602   0.939  10.595
 3472W        W 7523   5.199   2.090  10.035
 3473W        W 7524   8.092   7.879  11.314
 3474W        W 7525   6.403   7.673   4.083
 3475W        W 7526   8.150   6.176  11.851
 3476W        W 7527   8.799   4.762   3.507
 3477W        W 7528   1.895   1.687   0.341
 3478W        W 7529  11.194   3.355   1.798
 3479W        W 7530  11.009  10.839   9.013
 3480W        W 7531   3.748   7.951   1.454
 3481W        W 7532   9.134   1.698   2.439
 3482W        W 7533   0.244   1.873   9.367
 3483W        W 7534   0.378  10.883  11.270
 3484W        W 7535   5.548  10.675   0.685
 3485W        W 7536   8.808   4.046   2.193
 3486W        W 7537   2.061   6.118   8.432
 3487W        W 7538   9.582   1.480   8.758
 3488W        W 7539   0.542   5.580   2.853
 3489W        W 7540   2.399  10.836   2.310
 3490W        W 7541   8.788   5.820   1.839
 3491W        W 7542  10.501   4.674   2.795
 3492W        W 7543   1.325   6.093   2.482
 3493W        W 7544  10.380   1.358   9.903
 3494W        W 7545   7.637   8.047   0.102
 3495W        W 7546   6.553   8.973  10.374
 3496W        W 7547   8.027   7.704   9.140
 3497W        W 7548  10.439   9.809   9.626
 3498W        W 7549   6.468   1.928   9.791
 3499W        W 7550   8.948   0.836   2.979
 3500W        W 7551   7.172   2.085  10.030
 3501W        W 7552   8.305   0.235   8.519
 3502W        W 7553   3.240   7.035   9.989
 3503W        W 7554   0.974   3.751  10.359
 3504W        W 7555   5.714   6.484   8.608
 3505W        W 7556   8.935   6.038   3.215
 3506W        W 7557   6.504   6.664   0.666
 3507W        W 7558   9.357   4.381   0.968
 3508W        W 7559   6.708   0.409   0.495
 3509W        W 7560   2.410   3.730   0.838
 3510W        W 7561  11.450   0.421  11.636
 3511W        W 7562   7.620   7.549   1.771
 3512W        W 7563   1.661   1.314  10.323
 3513W        W 7564  11.014   9.435  10.866
 3514W        W 7565   6.366   9.852   8.871
 3515W        W 7566   4.191  10.520   1.049
 3516W        W 7567   2.743  10.470  11.959
 3517W        W 7568   5.612   2.226   3.089
 3518W        W 7569   5.640   0.685   1.009
 3519W        W 7570   5.310   1.353   3.088
 3520W        W 7571   3.314   8.039  10.724
 3521W        W 7572   4.322   5.068  10.821
 3522W        W 7573   2.237   2.494   3.312
 3523W        W 7574   7.288   4.602   3.482
 3524W        W 7575   1.916   9.862   0.283
 3525W        W 7576   6.076   3.686   9.146
 3526W        W 7577   7.189   7.503  11.781
 3527W        W 7578   3.729   2.625   0.268
 3528W        W 7579   6.015   8.261   3.553
 3529W        W 7580   9.500   0.487   0.960
 3530W        W 7581   5.667   3.143   3.570
 3531W        W 7582   9.439   7.035  10.213
 3532W        W 7583   3.766   4.094   9.645
 3533W        W 7584   1.687   3.103   0.425
 3534W        W 7585   3.344   5.996   8.722
 3535W        W 7586  10.737   9.038   2.414
 3536W        W 7587   1.927   1.644  10.585
 3537W        W 7588  11.348  10.372   9.036
 3538W        W 7589   4.382   4.403  10.337
 3539W        W 7590   3.374   2.830  11.584
 3540W        W 7591   4.098   7.440  11.354
 3541W        W 7592   3.815   4.499   9.997
 3542W        W 7593   1.645   0.392  11.270
 3543W        W 7594   4.824  11.362   1.328
 3544W        W 7595   9.338   9.134   8.479
 3545W        W 7596   1.996   2.024   8.778
 3546W        W 7597   3.020   4.105   0.818
 3547W        W 7598   2.862   3.673   1.030
 3548W        W 7599   6.164   9.917   2.671
 3549W        W 7600   2.188  10.825   9.150
 3550W        W 7601  10.875   6.981   9.467
 3551W        W 7602   5.215   8.538   9.476
 3552W        W 7603  11.101   3.759  10.489
 3553W        W 7604  11.216   8.290  11.206
 3554W        W 7605   0.244   7.552  11.979
 3555W        W 7606   0.356   8.128  10.041
 3556W        W 7607   4.294   5.131   2.076
 3557W        W 7608   6.098   3.659  11.918
 3558W        W 7609   6.570   2.065  11.536
 3559W        W 7610   7.167   3.196   2.508
 3560W        W 7611  10.015   4.385   1.550
 3561W        W 7612  10.240   6.602   0.414
 3562W        W 7613   8.477   3.770  11.931
 3563W        W 7614   4.935   8.422   0.890
 3564W        W 7615   9.970   1.331  11.060
 3565W        W 7616   3.543   6.214  11.991
 3566W        W 7617   2.607   7.086   3.154
 3567W        W 7618   1.479   1.203   8.383
 3568W        W 7619   0.397   5.584   1.054
 3569W        W 7620   6.003   8.424   0.774
 3570W        W 7621  10.313   4.720   2.319
 3571W        W 7622   7.707   6.667   1.547
 3572W        W 7623   6.459   8.577   3.624
 3573W        W 7624   1.713   8.358   0.922
 3574W        W 7625   0.598   7.049   8.675
 3575W        W 7626   1.389   1.393   8.839
 3576W        W 7627   9.545   6.110   8.523
 3577W        W 7628  11.345   1.577   9.227
 3578W        W 7629   5.873   5.067   2.725
 3579W        W 7630   7.606  11.468   0.157
 3580W        W 7631   1.398  10.743   1.337
 3581W        W 7632   7.948   1.500   1.011
 3582W        W 7633   2.383  10.461   3.509
 3583W        W 7634   0.413   8.448   3.547
 3584W        W 7635  11.195  11.310   8.784
 3585W        W 7636   6.127   7.635   2.225
 3586W        W 7637  11.047   2.268   0.884
 3587W        W 7638   9.471  11.236   1.836
 3588W        W 7639   9.657   6.632   3.613
 3589W        W 7640   3.352   0.426   0.493
 3590W        W 7641   6.573   5.339   1.353
 3591W        W 7642  10.138   6.943   2.256
 3592W        W 7643   6.762   1.206  10.082
 3593W        W 7644   4.490   9.556   8.915
 3594W        W 7645   3.288   0.049   3.471
 3595W        W 7646   2.835   6.697   0.506
 3596W        W 7647   1.313   1.682   2.291
 3597W        W 7648   0.812   7.098   9.990
 3598W        W 7649   2.973   7.049  10.800
 3599W        W 7650   3.819   2.598  11.350
 3600W        W 7651   8.980  10.476   9.440
 3601W        W 7652   0.310   3.402   3.132
 3602W        W 7653   2.115   8.567   0.662
 3603W        W 7654   5.234   9.867   1.159
 3604W        W 7655   3.757   8.412  10.241
 3605W        W 7656   5.334  11.335   1.254
 3606W        W 7657   3.383   9.980   3.244
 3607W        W 7658   3.821   4.367  11.818
 3608W        W 7659   2.440   7.985  11.293
 3609W        W 7660   5.494   7.017   9.560
 3610W        W 7661   6.230   5.847   8.644
 3611W        W 7662  10.280   9.414   8.985
 3612W        W 7663   4.684   6.427  10.819
 3613W        W 7664   2.897   5.277  10.863
 3614W        W 7665   3.075   2.126   3.366
 3615W        W 7666  10.047   5.671   9.676
 3616W        W 7667   3.657   4.345  10.962
 3617W        W 7668   6.578   1.217   0.897
 3618W        W 7669  10.359   1.077   1.288
 3619W        W 7670   2.108   8.096   9.011
 3620W        W 7671   2.171   7.152   2.800
 3621W        W 7672   0.738   4.678   2.453
 3622W        W 7673   3.178   5.778  11.504
 3623W        W 7674   7.529   1.536   2.914
 3624W        W 7675   3.774   7.764   2.763
 3625W        W 7676   6.241   0.060  11.251
 3626W        W 7677   1.939   6.300  11.333
 3627W        W 7678   5.252   4.253   0.536
 3628W        W 7679   5.437   3.380   0.815
 3629W        W 7680   4.050   0.667   3.438
 3630W        W 7681   7.683   7.002   2.117
 3631W        W 7682   2.650   9.362   9.411
 3632W        W 7683   2.713   3.773  11.449
 3633W        W 7684   8.441   5.305   9.054
 3634W        W 7685   5.748   6.546   9.674
 3635W        W 7686   8.393   4.180   1.789
 3636W        W 7687   8.089   8.151  10.873
 3637W        W 7688   2.339   8.632   9.797
 3638W        W 7689   4.817   1.726   0.953
 3639W        W 7690   5.327   9.900   8.893
 3640W        W 7691   3.681  10.143   1.642
 3641W        W 7692   5.467  10.197   2.043
 3642W        W 7693   9.751   6.121   2.605
 3643W        W 7694   6.917   9.382   1.508
 3644W        W 7695   0.303   4.125   0.870
 3645W        W 7696  10.704   6.614  11.115
 3646W        W 7697   6.557   1.981   8.001
 3647W        W 7698   1.931   1.400   8.865
 3648W        W 7699   7.436   4.000   2.365
 3649W        W 7700   3.180  10.039  10.370
 3650W        W 7701   4.823   2.005   0.417
 3651W        W 7702  10.130   5.703   2.979
 3652W        W 7703   4.135   0.485   0.899
 3653W        W 7704   7.875   6.231   1.930
 3654W        W 7705  10.941   6.682   8.584
 3655W        W 7706   0.659   9.290   0.292
 3656W        W 7707   6.161   3.205   9.879
 3657W        W 7708   0.954   0.175   3.234
 3658W        W 7709   2.101   2.396   1.387
 3659W        W 7710  10.830   0.319  10.820
 3660W        W 7711   8.569   4.145   1.321
 3661W        W 7712  10.566   4.981   0.930
 3662W        W 7713   5.891   7.998   9.061
 3663W        W 7714   1.733   7.372   1.868
 3664W        W 7715   1.151   3.301   1.921
 3665W        W 7716   3.578   1.373   2.403
 3666W        W 7717   8.191   2.178  10.140
 3667W        W 7718   4.600   4.828   1.509
 3668W        W 7719   0.288  10.549  10.367
 3669W        W 7720   1.055   3.295   2.676
 3670W        W 7721   9.906   7.673  11.291
 3671W        W 7722   8.589  10.464   3.177
 3672W        W 7723   6.514   4.837  11.482
 3673W        W 7724   8.104   3.621   3.323
 3674W        W 7725  10.554   2.744   3.485
 3675W        W 7726   5.551   6.160   0.142
 3676W        W 7727   1.866   6.159  10.272
 3677W        W 7728   7.373  11.020   0.876
 3678W        W 7729   1.906   9.812  10.807
 3679W        W 7730   5.177   8.857  11.236
 3680W        W 7731   3.875   9.942  11.742
 3681W        W 7732   7.063   4.438   3.931
 3682W        W 7733   2.604   1.688  10.888
 3683W        W 7734   6.857  11.326  10.452
 3684W        W 7735  11.238  10.330   1.145
 3685W        W 7736   5.502   4.077  11.259
 3686W        W 7737   7.109   9.657   9.322
 3687W        W 7738   4.377   4.320   2.150
 3688W        W 7739  10.240   5.300   2.673
 3689W        W 7740   2.256   0.729  11.704
 3690W        W 7741   8.084   9.626  10.434
 3691W        W 7742   1.778   2.274   3.201
 3692W        W 7743   6.036   3.222   1.680
 3693W        W 7744  10.862   1.747   9.254
 3694W        W 7745   2.257   6.160   1.464
 3695W        W 7746   0.191  11.365   0.993
 3696W        W 7747   9.590   5.359   0.762
 3697W        W 7748   4.227   1.889  11.222
 3698W        W 7749  10.141   3.861   1.646
 3699W        W 7750   3.210  10.455   1.375
 3700W        W 7751   4.892   8.624   9.083
 3701W        W 7752   8.668   8.285   3.484
 3702W        W 7753   3.046   3.102  10.419
 3703W        W 7754   5.321  11.169   0.342
 3704W        W 7755   8.427   6.729  11.322
 3705W        W 7756   6.711   7.135   0.797
 3706W        W 7757   6.094   1.608   9.957
 3707W        W 7758  10.103   8.474   1.453
 3708W        W 7759   7.974   0.969   9.580
 3709W        W 7760   1.167   1.480  10.327
 3710W        W 7761   5.937   9.408   1.660
 3711W        W 7762  11.407  11.499  11.356
 3712W        W 7763   1.148   4.287   2.692
 3713W        W 7764   3.121   1.285   0.539
 3714W        W 7765   9.459   3.893   0.893
 3715W        W 7766   3.097   8.465   1.982
 3716W        W 7767   3.763   4.697   3.118
 3717W        W 7768   6.187   0.802  10.818
 3718W        W 7769   4.404   1.844   2.119
 3719W        W 7770   1.333   6.571   2.693
 3720W        W 7771  10.968  10.777   2.001
 3721W        W 7772   3.036   4.638  11.987
 3722W        W 7773   6.467   9.549  10.981
 3723W        W 7774   4.076   8.660   9.903
 3724W        W 7775  10.277   3.230  11.879
 3725W        W 7776  10.124  11.483  11.832
 3726W        W 7777   4.197   8.275   0.368
 3727W        W 7778   9.914   2.204   0.328
 3728W        W 7779   1.177   4.059   9.829
 3729W        W 7780   9.457   6.758  11.264
 3730W        W 7781   1.272   7.110   1.853
 3731W        W 7782   2.861   2.308   9.489
 3732W        W 7783   3.000   0.563   9.907
 3733W        W 7784   4.251   7.239  10.887
 3734W        W 7785   0.871  10.901   2.927
 3735W        W 7786   5.505   6.572   2.673
 3736W        W 7787   6.076   4.652  11.723
 3737W        W 7788   7.168   3.681   0.288
 3738W        W 7789  10.202   6.686   9.984
 3739W        W 7790   9.027   9.562   2.744
 3740W        W 7791   0.318   2.451   1.956
 3741W        W 7792   3.776   9.997   2.545
 3742W        W 7793   0.011   5.222   9.397
 3743W        W 7794  11.480   5.286   1.001
 3744W        W 7795   4.962   5.209  10.311
 3745W        W 7796   7.102   2.902  10.316
 3746W        W 7797   9.843   0.639   2.638
 3747W        W 7798   3.519   1.332  11.691
 3748W        W 7799  11.037   8.590  11.852
 3749W        W 7800   4.158   2.344   1.281
 3750W        W 7801   9.937   6.574   9.542
 3751W        W 7802   0.377   1.375   3.189
 3752W        W 7803   4.104   3.098   0.748
 3753W        W 7804   9.969   6.691  11.943
 3754W        W 7805   1.689   1.460   1.343
 3755W        W 7806  10.691   4.030   1.625
 3756W        W 7807   0.325   7.491   1.001
 3757W        W 7808  11.451   0.452   1.815
 3758W        W 7809   0.189   3.052   0.907
 3759W        W 7810   3.694  11.098   1.697
 3760W        W 7811   2.032   6.875   0.316
 3761W        W 7812  11.444   3.884   9.541
 3762W        W 7813  10.279   6.094  10.354
 3763W        W 7814   1.450   7.832   1.418
 3764W        W 7815  11.083   1.705  11.328
 3765W        W 7816   2.279   8.134   1.672
 3766W        W 7817   3.655   7.464   2.383
 3767W        W 7818   7.995  10.261   1.036
 3768W        W 7819   1.364   5.587   2.263
 3769W        W 7820   7.357   8.534   0.878
 3770W        W 7821   5.273   8.993   2.778
 3771W        W 7822   6.044   3.102   8.124
 3772W        W 7823   6.746   3.674  10.425
 3773W        W 7824   5.996   4.199   8.934
 3774W        W 7825   9.448   1.888  11.901
 3775W        W 7826   6.446   8.117   3.834
 3776W        W 7827   9.153   3.341   0.922
 3777W        W 7828   4.207   9.283   2.180
 3778W        W 7829   4.776  10.884  10.759
 3779W        W 7830   0.843   4.630   1.466
 3780W        W 7831   4.275   2.322  11.491
 3781W        W 7832  10.007   6.398   8.533
 3782W        W 7833   1.029   7.508  11.382
 3783W        W 7834  10.117   9.739   2.183
 3784W        W 7835   6.780   6.457   1.263
 3785W        W 7836   6.152   6.540  11.183
 3786W        W 7837   2.420   9.372   1.183
 3787W        W 7838   5.540   9.409  10.796
 3788W        W 7839   1.839   0.824   9.540
 3789W        W 7840   5.700   8.849  10.817
 3790W        W 7841   6.157   0.940   9.095
 3791W        W 7842   7.003   9.557  10.835
 3792W        W 7843   5.638   1.829  10.559
 3793W        W 7844   1.790   3.561   9.922
 3794W        W 7845   4.737   1.138   1.685
 3795W        W 7846   7.420  10.227   8.541
 3796W        W 7847   4.682   7.110   1.039
 3797W        W 7848   6.550   2.878   9.885
 3798W        W 7849   9.953   6.650  11.330
 3799W        W 7850  10.812   4.683   2.270
 3800W        W 7851   5.493   4.606   1.444
 3801W        W 7852   0.168   6.054   8.966
 3802W        W 7853   7.535  10.800   9.307
 3803W        W 7854   7.994   9.496   2.359
 3804W        W 7855   2.235  10.947   3.334
 3805W        W 7856   3.642   4.156   0.235
 3806W        W 7857   0.376   8.851  10.645
 3807W        W 7858   8.598   2.731   0.025
 3808W        W 7859   9.837   6.608   1.359
 3809W        W 7860   5.132   0.177   9.496
 3810W        W 7861  11.480   8.209   1.411
 3811W        W 7862  10.036   7.097   1.383
 3812W        W 7863   7.718   5.901  10.634
 3813W        W 7864   6.257   3.592   8.178
 3814W        W 7865   5.124   6.727   3.022
 3815W        W 7866   0.608   1.286   1.495
 3816W        W 7867   4.233  10.463   2.909
 3817W        W 7868  10.928   7.723   0.092
 3818W        W 7869   1.854   1.481  11.881
 3819W        W 7870   7.217   1.232  10.489
 3820W        W 7871  10.046   8.454   3.249
 3821W        W 7872   7.950  11.469   9.504
 3822W        W 7873  10.319   8.474  11.096
 3823W        W 7874   2.392   8.926   0.431
 3824W        W 7875   1.239   4.599   3.558
 3825W        W 7876   5.475   0.844  10.352
 3826W        W 7877   1.962  10.282   0.572
 3827W        W 7878   9.272   7.126   0.804
 3828W        W 7879   2.389   1.958   1.336
 3829W        W 7880   2.714  10.541   1.465
 3830W        W 7881   2.317   7.636   9.024
 3831W        W 7882   4.834   9.022   0.403
 3832W        W 7883   1.657   3.146  10.606
 3833W        W 7884   6.034   9.242  10.920
 3834W        W 7885   8.409   2.927   1.770
 3835W        W 7886   3.444   3.387   2.249
 3836W        W 7887   0.889   0.485  11.921
 3837W        W 7888  10.747   4.553   3.237
 3838W        W 7889   1.776   7.888   1.849
 3839W        W 7890   4.629   9.820   1.778
 3840W        W 7891  11.133   5.098   0.046
 3841W        W 7892   1.644   1.769   9.083
 3842W        W 7893   5.040   2.526   9.835
 3843W        W 7894  10.419   1.000   8.772
 3844W        W 7895   2.702   1.400   2.356
 3845W        W 7896   4.751   3.274  11.761
 3846W        W 7897   5.113   8.164  10.651
 3847W        W 7898   7.719   4.293   0.263
 3848W        W 7899   8.981   8.380   0.367
 3849W        W 7900   9.584   0.291   9.863
 3850W        W 7901   4.206   7.317   1.746
 3851W        W 7902   8.746   8.541   9.042
 3852W        W 7903   3.856   7.078  10.623
 3853W        W 7904   5.112   6.022   0.491
 3854W        W 7905   6.747   8.033   9.900
 3855W        W 7906   9.703   7.661   1.814
 3856W        W 7907   6.542   1.908   3.257
 3857W        W 7908  11.052   9.401   2.604
 3858W        W 7909   2.383   1.458  10.411
 3859W        W 7910   0.919   1.411   0.575
 3860W        W 7911   4.183  11.493   3.133
 3861W        W 7912   0.089   8.916   3.540
 3862W        W 7913   0.479   6.483   2.625
 3863W        W 7914   5.672   1.369  10.340
 3864W        W 7915   3.174   3.719   3.288
 3865W        W 7916   7.125   3.559   9.577
 3866W        W 7917   8.657   1.837   2.314
 3867W        W 7918   1.800   2.586   2.740
 3868W        W 7919   3.257   0.975   1.722
 3869W        W 7920   2.587   2.712   2.911
 3870W        W 7921  10.358   6.998   1.784
 3871W        W 7922  10.003   4.325   2.176
 3872W        W 7923   0.927   5.968   2.170
 3873W        W 7924   0.848   1.070   9.489
 3874W        W 7925   5.630   5.092   1.266
 3875W        W 7926   6.813   2.437   1.395
 3876W        W 7927   7.051   6.688  10.519
 3877W        W 7928   0.080   7.198   2.152
 3878W        W 7929   2.647   9.653   0.787
 3879W        W 7930   4.230   5.223   0.029
 3880W        W 7931  11.051   2.828  11.267
 3881W        W 7932   1.202   5.642  11.583
 3882W        W 7933   5.162   7.736  10.988
 3883W        W 7934   4.413   2.092   1.664
 3884W        W 7935   5.720   8.533   2.828
 3885W        W 7936   9.424   5.659  10.828
 3886W        W 7937   4.106   7.077   9.756
 3887W        W 7938  11.320   3.387   8.674
 3888W        W 7939   8.675   2.823  10.516
 3889W        W 7940   8.488   8.572   8.580
 3890W        W 7941   4.923   2.485   0.205
 3891W        W 7942   3.953   7.955   9.424
 3892W        W 7943   3.231   2.880   2.219
 3893W        W 7944  10.785  10.161  10.528
 3894W        W 7945   2.886  10.005   9.166
 3895W        W 7946   1.209   6.603   3.235
 3896W        W 7947   7.696   0.267   3.391
 3897W        W 7948   3.373   6.661  11.216
 3898W        W 7949  10.923   1.776   3.199
 3899W        W 7950   4.076   1.293   2.353
 3900W        W 7951   6.651   2.253   8.439
 3901W        W 7952   3.767   7.194   1.491
 3902W        W 7953   1.111   6.981   1.365
 3903W        W 7954   3.707  11.478  10.513
 3904W        W 7955   2.268   4.619  10.311
 3905W        W 7956   3.858   1.360   1.438
 3906W        W 7957   7.866   8.575   0.899
 3907W        W 7958   5.423   1.146   1.147
 3908W        W 7959   0.041   3.632   1.549
 3909W        W 7960   0.473   5.399   9.347
 3910W        W 7961   5.219  10.933  11.059
 3911W        W 7962   7.024   9.489  11.734
 3912W        W 7963   1.836   0.308   2.204
 3913W        W 7964  11.284   2.548   9.297
 3914W        W 7965   0.806   1.777   0.971
 3915W        W 7966   7.105   2.127  11.877
 3916W        W 7967   5.297   5.141   0.476
 3917W        W 7968   1.824   3.879  10.986
 3918W        W 7969   0.264   1.315   9.449
 3919W        W 7970   5.854   9.646   1.185
 3920W        W 7971   5.049   3.047   2.699
 3921W        W 7972   1.217   2.303  11.192
 3922W        W 7973   7.967   4.662   0.674
 3923W        W 7974   9.638   2.360  11.927
 3924W        W 7975  11.400   6.583   3.476
 3925W        W 7976   2.774   0.749   9.486
 3926W        W 7977  10.868   3.588   8.854
 3927W        W 7978   8.561   3.852   3.188
 3928W        W 7979   5.272   2.749   0.480
 3929W        W 7980   2.170   1.304  11.514
 3930W        W 7981   2.422   8.357   2.557
 3931W        W 7982   0.242   0.792  11.464
 3932W        W 7983  11.128   1.623  10.817
 3933W        W 7984   1.469   1.876  10.467
 3934W        W 7985   2.900   6.936   9.036
 3935W        W 7986   3.140   8.290   2.466
 3936W        W 7987  10.605   7.874   3.478
 3937W        W 7988   3.504  10.579   1.832
 3938W        W 7989   2.397   9.867   1.219
 3939W        W 7990   0.736   1.173  10.802
 3940W        W 7991  11.217  10.584  11.939
 3941W        W 7992  11.247   7.866  11.485
 3942W        W 7993   5.309  10.013   2.663
 3943W        W 7994   6.107   4.756   0.727
 3944W        W 7995  11.477   4.896   1.318
 3945W        W 7996   6.543   0.837   8.760
 3946W        W 7997   3.618   6.175   0.491
 3947W        W 7998   8.479   4.021   9.964
 3948W        W 7999   2.854   9.119   1.200
 3949W        W 8000   9.925   2.843   8.381
 3950W        W 8001   8.411   4.273  11.826
 3951W        W 8002   8.907   2.632   2.169
 3952W        W 8003   7.616   0.745  11.123
 3953W        W 8004   8.239   6.454  10.074
 3954W        W 8005   9.145   1.280   9.009
 3955W        W 8006   8.326   6.970  10.772
 3956W        W 8007   8.996   6.910   8.111
 3957W        W 8008   2.855   0.366   3.558
 3958W        W 8009   9.519   6.244   9.059
 3959W        W 8010  10.341   9.423   1.380
 3960W        W 8011   8.959   8.090   8.996
 3961W        W 8012   5.003   4.699   1.233
 3962W        W 8013   2.834   5.941  10.181
 3963W        W 8014   6.253   4.277   0.473
 3964W        W 8015   5.608   3.874   9.058
 3965W        W 8016   3.648   2.529   2.075
 3966W        W 8017   2.638   9.473   3.095
 3967W        W 8018   0.525   9.842  11.053
 3968W        W 8019   7.858   2.417  10.497
 3969W        W 8020   4.200   9.985   8.870
 3970W        W 8021   2.679   0.572  10.335
 3971W        W 8022   3.448  10.137  11.475
 3972W        W 8023   9.490   1.631   0.357
 3973W        W 8024   7.737   1.265   9.943
 3974W        W 8025   3.606  10.311  10.950
 3975W        W 8026   7.732  11.076  10.664
 3976W        W 8027   4.182   3.468   0.397
 3977W        W 8028   7.514  10.353   9.558
 3978W        W 8029   1.622  10.492  11.690
 3979W        W 8030   7.586   6.122   3.785
 3980W        W 8031   9.934   2.797   2.277
 3981W        W 8032   6.660   9.926   1.349
 3982W        W 8033   6.669   3.369   9.783
 3983W        W 8034  11.311   9.012   9.589
 3984W        W 8035   2.785  10.031   1.531
 3985W        W 8036   7.213   8.466   2.384
 3986W        W 8037   9.166   5.491  10.077
 3987W        W 8038  10.703   2.351   1.262
 3988W        W 8039   5.638   4.863  11.923
 3989W        W 8040   6.129   2.312   3.205
 3990W        W 8041   0.647   5.865   9.941
 3991W        W 8042   4.637   6.809   0.211
 3992W        W 8043   2.216   3.918   1.839
 3993W        W 8044   4.519  10.788   8.811
 3994W        W 8045   0.966   6.644  10.400
 3995W        W 8046   9.253   9.012  10.347
 3996W        W 8047   0.438   0.055   0.583
 3997W        W 8048   8.573   7.964   2.261
 3998W        W 8049   1.448   9.336  10.067
 3999W        W 8050   4.331  10.402   0.546
 4000W        W 8051   4.563   0.871   1.256
 4001W        W 8052   0.313   0.706   8.671
 4002W        W 8053   7.603   9.048   1.146
 4003W        W 8054   5.442   0.394   3.032
 4004W        W 8055   0.050   5.258   2.329
 4005W        W 8056   0.830   6.262  10.891
 4006W        W 8057   9.700   9.605   0.232
 4007W        W 8058   5.247  11.397  11.272
 4008W        W 8059   0.799   4.627   1.962
 4009W        W 8060   7.648   7.562  10.423
 4010W        W 8061   8.196   0.421   3.490
 4011W        W 8062   4.465   7.118   9.349
 4012W        W 8063   4.164  10.080   1.869
 4013W        W 8064   3.119   3.645  10.056
 4014W        W 8065   9.684   0.520   3.683
 4015W        W 8066   3.360  10.990  11.683
 4016W        W 8067   1.034   5.132   0.312
 4017W        W 8068   7.855   2.404  11.486
 4018W        W 8069  10.857   5.005   0.483
 4019W        W 8070   5.023   0.462   2.163
 4020W        W 8071   6.317  11.276   1.134
 4021W        W 8072   1.906  10.867   9.691
 4022W        W 8073   3.758   5.009   1.746
 4023W        W 8074   8.738  10.428   3.659
 4024W        W 8075   6.035  10.005   0.854
 4025W        W 8076   3.542  10.656  11.336
 4026W        W 8077   5.031   3.421  10.544
 4027W        W 8078  10.866   7.714   3.040
 4028W        W 8079   3.126   7.415   0.369
 4029W        W 8080   9.582   4.937   4.373
 4030W        W 8081   4.800   7.977  10.274
 4031W        W 8082   3.317   2.707   3.227
 4032W        W 8083   0.554   0.850   1.732
 4033W        W 8084   7.477   9.735   3.221
 4034W        W 8085   2.881   4.531  10.431
 4035W        W 8086   5.107   8.977   2.006
 4036W        W 8087   5.213   3.215   8.723
 4037W        W 8088  10.302   6.944   9.545
 4038W        W 8089   9.117   3.694   9.484
 4039W        W 8090   8.812   1.296   1.261
 4040W        W 8091   2.796   1.273   9.497
 4041W        W 8092   2.131   2.909   3.016
 4042W        W 8093   5.829  10.598  10.502
 4043W        W 8094   3.749   2.638   9.830
 4044W        W 8095  10.876   3.285   9.925
 4045W        W 8096  11.082   5.086   2.422
 4046W        W 8097   8.051   0.997   3.511
 4047W        W 8098  11.005   3.125  10.412
 4048W        W 8099  11.429   2.318   0.400
 4049W        W 8100   3.320   9.347  11.062
 4050W        W 8101   5.136   1.590   9.237
 4051W        W 8102   9.558   7.530  10.328
 4052W        W 8103   4.225   2.846  11.531
 4053W        W 8104   6.591   0.439   1.373
 4054W        W 8105   0.116   8.571   1.069
 4055W        W 8106   0.041   2.345  10.392
 4056W        W 8107   0.514   3.842   3.356
 4057W        W 8108   2.630   6.192   3.297
 4058W        W 8109   2.855   2.024   1.160
 4059W        W 8110   2.872   3.330   3.528
 4060W        W 8111   8.864   0.413   1.798
 4061W        W 8112   0.519   9.298   3.504
 4062W        W 8113   8.928   5.126   2.279
 4063W        W 8114   6.169   3.065   3.737
 4064W        W 8115  11.276   5.634   9.705
 4065W        W 8116   9.162   8.087  11.934
 4066W        W 8117   7.655  11.253  11.140
 4067W        W 8118   1.769   2.466  10.893
 4068W        W 8119   2.328  11.465   3.298
 4069W        W 8120   3.318   9.640  11.477
 4070W        W 8121   6.640   7.016   0.311
 4071W        W 8122   1.296   7.637   1.845
 4072W        W 8123   9.521   8.654   8.548
 4073W        W 8124  10.030   4.857   2.785
 4074W        W 8125  10.152  11.428   0.658
 4075W        W 8126   9.621   4.089   1.346
 4076W        W 8127   4.609   2.118   8.625
 4077W        W 8128   6.710   0.413   3.197
 4078W        W 8129   9.714   1.470   0.793
 4079W        W 8130   4.635  11.487   9.548
 4080W        W 8131   6.034   1.283   2.188
 4081W        W 8132   9.837   7.493  10.785
 4082W        W 8133   7.933   5.003  11.540
 4083W        W 8134   7.918   9.469   0.188
 4084W        W 8135   5.638   5.690   1.891
 4085W        W 8136   8.228   2.272   0.905
 4086W        W 8137   2.858   9.803   3.441
 4087W        W 8138   6.735   8.968   0.819
 4088W        W 8139   6.411   9.955   3.137
 4089W        W 8140   5.445   5.901   1.467
 4090W        W 8141   8.496   8.228   0.196
 4091W        W 8142   6.362   2.318   1.897
 4092W        W 8143   0.753   3.279   0.399
 4093W        W 8144   9.561   8.947   8.979
 4094W        W 8145   8.313   3.043   9.934
 4095W        W 8146  11.059   2.908   9.606
 4096W        W 8147   4.690   2.967  11.367
 4097W        W 8148   6.585  11.344  11.854
 4098W        W 8149  10.099   2.341   8.579
 4099W        W 8150  10.425   0.367  11.681
 4100W        W 8151   0.758   4.325   9.983
 4101W        W 8152  11.268   4.849   0.809
 4102W        W 8153   8.422   2.053   2.765
 4103W        W 8154   5.538   9.726   3.291
 4104W        W 8155  10.526  10.876   1.374
 4105W        W 8156   9.002   8.675  10.739
 4106W        W 8157  11.361   8.743  11.373
 4107W        W 8158   7.059  10.090   9.579
 4108W        W 8159   0.183   0.682   3.406
 4109W        W 8160   4.927   1.862   8.273
 4110W        W 8161   7.854   1.146   2.219
 4111W        W 8162   8.024  11.280  11.897
 4112W        W 8163   6.432   6.401   9.031
 4113W        W 8164  10.617   9.517   3.220
 4114W        W 8165  11.015   4.705   2.801
 4115W        W 8166  11.494   9.819   2.235
 4116W        W 8167   8.982   2.180   9.551
 4117W        W 8168   4.588  10.991   0.405
 4118W        W 8169   7.110   2.313   2.487
 4119W        W 8170   5.747   1.275  11.361
 4120W        W 8171  10.451   0.706   3.782
 4121W        W 8172   0.018   6.162   3.164
 4122W        W 8173   5.238   5.500   1.274
 4123W        W 8174   2.653   6.989   1.814
 4124W        W 8175   5.094   7.626  10.010
 4125W        W 8176  10.871   5.463   8.595
 4126W        W 8177   0.816   5.618  10.424
 4127W        W 8178   5.592   9.580   2.795
 4128W        W 8179   3.102   8.467  10.918
 4129W        W 8180   5.559  10.200   0.910
 4130W        W 8181   1.387   1.887   1.211
 4131W        W 8182   4.159   7.562   1.315
 4132W        W 8183   3.810   0.005   1.296
 4133W        W 8184   6.141   0.850   3.024
 4134W        W 8185  11.140  10.516   1.605
 4135W        W 8186   0.952   0.537   3.662
 4136W        W 8187   9.969   3.311   0.347
 4137W        W 8188   4.273   9.079  11.237
 4138W        W 8189  11.127   3.919   0.126
 4139W        W 8190   3.797   3.131   0.304
 4140W        W 8191   0.142   3.145   1.795
 4141W        W 8192   6.493   7.352   2.407
 4142W        W 8193   4.808   6.949   3.356
 4143W        W 8194   4.534  10.299  10.327
 4144W        W 8195   9.569   2.462  10.168
 4145W        W 8196   0.757   8.757   3.290
 4146W        W 8197   9.466   6.215   1.474
 4147W        W 8198   7.002   1.786   9.289
 4148W        W 8199  11.246   3.044  11.683
 4149W        W 8200   8.106   8.124   0.839
 4150W        W 8201   6.637   1.591   2.860
 4151W        W 8202   9.024   2.249   9.045
 4152W        W 8203   8.756   4.608  11.317
 4153W        W 8204   2.290   1.795  10.053
 4154W        W 8205   1.927   5.322   9.905
 4155W        W 8206   1.065   2.310   0.229
 4156W        W 8207  11.206   6.914   9.858
 4157W        W 8208   2.106  10.918  11.308
 4158W        W 8209   7.929   4.044   1.680
 4159W        W 8210   0.924   8.425   2.815
 4160W        W 8211   8.596   1.871  11.489
 4161W        W 8212   6.953   4.686  10.237
 4162W        W 8213   7.025   1.291   9.432
 4163W        W 8214  11.237   1.345   1.907
 4164W        W 8215   4.369   5.606   1.866
 4165W        W 8216   9.104   8.506   1.790
 4166W        W 8217   5.110   9.488   2.887
 4167W        W 8218   6.020   2.887   3.263
 4168W        W 8219   2.209   7.490   0.507
 4169W        W 8220   8.266   2.695   2.697
 4170W        W 8221   8.822  11.449   2.597
 4171W        W 8222   2.539   9.003   8.545
 4172W        W 8223   4.923   2.927  10.532
 4173W        W 8224   8.852   9.504   9.775
 4174W        W 8225   5.236   7.502   9.556
 4175W        W 8226   9.223   6.092  11.770
 4176W        W 8227   8.011   8.716   9.974
 4177W        W 8228   5.503   8.071   0.268
 4178W        W 8229   9.536   1.526   9.806
 4179W        W 8230   6.117   3.804   0.996
 4180W        W 8231   1.151   7.432   3.162
 4181W        W 8232   3.762   9.003   3.259
 4182W        W 8233   4.855   1.006   0.388
 4183W        W 8234   2.467   7.993   9.378
 4184W        W 8235   2.187   8.430   1.153
 4185W        W 8236   2.046   4.252   9.390
 4186W        W 8237   4.681   5.273   0.256
 4187W        W 8238   1.413   8.635   2.810
 4188W        W 8239   4.400   9.457   2.638
 4189W        W 8240  11.329   7.768  10.995
 4190W        W 8241   6.104   5.903   1.815
 4191W        W 8242   0.360   8.048  11.764
 4192W        W 8243  10.878   8.125  11.719
 4193W        W 8244  10.848   1.503  10.104
 4194W        W 8245   8.401   9.394   9.547
 4195W        W 8246  11.430   4.389   0.655
 4196W        W 8247   5.929   4.627   9.201
 4197W        W 8248  10.477   5.051   1.793
 4198W        W 8249   5.198   3.953   0.932
 4199W        W 8250   4.666   6.946  10.886
 4200W        W 8251   1.276  10.550   3.659
 4201W        W 8252   5.413  10.351  10.275
 4202W        W 8253   7.679   2.718   9.513
 4203W        W 8254   6.654   0.926   0.470
 4204W        W 8255   8.115   8.684   1.983
 4205W        W 8256   0.803   1.058  11.300
 4206W        W 8257   1.583   0.860   0.593
 4207W        W 8258   8.537   5.587  11.399
 4208W        W 8259   4.551   7.502  10.566
 4209W        W 8260   1.486   3.063   9.033
 4210W        W 8261   2.558   8.622  11.002
 4211W        W 8262   6.345   2.345   0.354
 4212W        W 8263   9.286   4.187   9.361
 4213W        W 8264  11.239   5.352   1.440
 4214W        W 8265   4.359   6.659   9.982
 4215W        W 8266   9.637   1.057   1.665
 4216W        W 8267   9.129   8.072   0.804
 4217W        W 8268  10.464  10.318  11.027
 4218W        W 8269   9.830   9.570  11.643
 4219W        W 8270  10.441   8.496   9.058
 4220W        W 8271   3.018  10.935   1.316
 4221W        W 8272   0.741   3.824   9.903
 4222W        W 8273  10.200   7.633   1.120
 4223W        W 8274   9.107   1.731   8.750
 4224W        W 8275   9.492   8.433   2.143
 4225W        W 8276   7.409   7.577  10.879
 4226W        W 8277   0.866   9.618   2.179
 4227W        W 8278   1.953   9.588   1.213
 4228W        W 8279   4.189   6.239   9.748
 4229W        W 8280   0.533   2.608   1.512
 4230W        W 8281   5.895   5.718   2.316
 4231W        W 8282   5.059   0.484   8.942
 4232W        W 8283   7.728  10.566   0.247
 4233W        W 8284   7.673   9.045   2.606
 4234W        W 8285   7.431   2.773   0.894
 4235W        W 8286   8.237   1.332  11.754
 4236W        W 8287   2.337   8.489   9.306
 4237W        W 8288   7.955  11.332   2.493
 4238W        W 8289   4.226   6.994   1.223
 4239W        W 8290   8.541   0.173   1.470
 4240W        W 8291   9.279   4.499  11.423
 4241W        W 8292  11.339   1.213  11.015
 4242W        W 8293   3.671   1.322   9.636
 4243W        W 8294   9.092   5.808   8.611
 4244W        W 8295   9.988  10.564  11.308
 4245W        W 8296   2.285   7.254  11.555
 4246W        W 8297   4.843   2.106   1.930
 4247W        W 8298   5.239   1.203  10.060
 4248W        W 8299  11.459  10.454   3.270
 4249W        W 8300   1.760   8.402   1.821
 4250W        W 8301   6.036   3.731   3.855
 4251W        W 8302   4.140   4.755   8.653
 4252W        W 8303   8.139   9.413   1.836
 4253W        W 8304   5.853   8.964   0.026
 4254W        W 8305  11.167   4.279  10.305
 4255W        W 8306   4.046   1.472   0.954
 4256W        W 8307  11.428   7.698   1.236
 4257W        W 8308   5.269   8.440  11.526
 4258W        W 8309   4.721   4.307  11.842
 4259W        W 8310  10.000   1.682   0.344
 4260W        W 8311   8.380  10.358   1.388
 4261W        W 8312  10.507  10.852   8.842
 4262W        W 8313   0.488   9.554   2.999
 4263W        W 8314   7.404   4.122   9.131
 4264W        W 8315   1.736   5.995   3.242
 4265W        W 8316   4.307   0.250   0.414
 4266W        W 8317   6.160   7.492  11.264
 4267W        W 8318   7.171   9.130  10.044
 4268W        W 8319   2.921   0.948   2.106
 4269W        W 8320   9.389   8.931   3.616
 4270W        W 8321   2.256   2.798   2.538
 4271W        W 8322  11.223   0.030   0.879
 4272W        W 8323   6.597   3.643   1.906
 4273W        W 8324   6.155   2.487   0.837
 4274W        W 8325   2.005  10.731   0.847
 4275W        W 8326   7.962   4.045  11.907
 4276W        W 8327   7.431  10.919   9.872
 4277W        W 8328  10.934   1.252   9.109
 4278W        W 8329  10.728   6.550   1.800
 4279W        W 8330  10.368   6.037   9.523
 4280W        W 8331   8.347   2.336  11.434
 4281W        W 8332   8.398   1.535   2.667
 4282W        W 8333   3.116   2.121   2.591
 4283W        W 8334   7.570   2.550   3.172
 4284W        W 8335   7.897  10.413   8.530
 4285W        W 8336   4.952   8.988   9.476
 4286W        W 8337   5.055   8.821  11.838
 4287W        W 8338   2.736   2.215   2.979
 4288W        W 8339   6.503   5.916  11.935
 4289W        W 8340   7.566   6.892   0.794
 4290W        W 8341   5.336   0.348  11.508
 4291W        W 8342   9.156   2.807   2.846
 4292W        W 8343   1.866  11.284   2.978
 4293W        W 8344   4.229   9.545  11.994
 4294W        W 8345   8.996   4.117  11.171
 4295W        W 8346   1.773   9.187   2.269
 4296W        W 8347   6.881   9.419   2.466
 4297W        W 8348   8.373   1.591   1.362
 4298W        W 8349   7.050   6.942  11.025
 4299W        W 8350   9.145   3.091   3.264
 4300W        W 8351   3.562   9.325   0.870
 4301W        W 8352   8.380   1.154   2.179
 4302W        W 8353   6.969   4.663   1.234
 4303W        W 8354   1.801   8.876   0.897
 4304W        W 8355   3.618   1.739   1.733
 4305W        W 8356   5.620   1.756  11.466
 4306W        W 8357   4.232   3.182   9.577
 4307W        W 8358   8.550   2.838   8.624
 4308W        W 8359  10.681   2.290  10.527
 4309W        W 8360   6.346  10.666   8.412
 4310W        W 8361   9.357  10.809   9.835
 4311W        W 8362   1.723  10.883   0.016
 4312W        W 8363   2.744   5.640  11.257
 4313W        W 8364   0.141   2.402   9.621
 4314W        W 8365   4.406   8.658  10.936
 4315W        W 8366   9.103   2.385   1.672
 4316W        W 8367   0.577   2.924   1.905
 4317W        W 8368   2.408   2.534   9.625
 4318W        W 8369   2.836  11.482   3.211
 4319W        W 8370   3.643   0.752   0.849
 4320W        W 8371   1.883  10.005  11.777
 4321W        W 8372   1.860  10.593   8.769
 4322W        W 8373   0.983   0.673   9.865
 4323W        W 8374   8.564   5.352   0.802
 4324W        W 8375   6.779   7.485   8.653
 4325W        W 8376  10.414   5.523  11.887
 4326W        W 8377   5.134   7.369   2.273
 4327W        W 8378   1.229   2.632   9.870
 4328W        W 8379  10.029   6.752   4.382
 4329W        W 8380  10.731   5.146   9.011
 4330W        W 8381   4.157   6.449   4.234
 4331W        W 8382   0.659  11.119   8.570
 4332W        W 8383   5.593   8.005  10.722
 4333W        W 8384   8.687   7.123   2.132
 4334W        W 8385  10.960   0.825  10.930
 4335W        W 8386   6.849   6.143   0.245
 4336W        W 8387  10.351  11.481  11.372
 4337W        W 8388   8.496   1.639  10.018
 4338W        W 8389   3.279   3.030   2.698
 4339W        W 8390   3.549   9.048   0.046
 4340W        W 8391   8.591   9.627  10.615
 4341W        W 8392  10.007  11.319  10.535
 4342W        W 8393  10.895   5.073   9.813
 4343W        W 8394   7.142  11.414   9.959
 4344W        W 8395  10.483   6.536   0.858
 4345W        W 8396   5.491  10.967   2.139
 4346W        W 8397   9.907   9.205   0.011
 4347W        W 8398  10.183   7.996  10.925
 4348W        W 8399   0.979  10.602   9.030
 4349W        W 8400  11.390   2.275   2.381
 4350W        W 8401   5.170   1.740   1.721
 4351W        W 8402   0.383   8.505  11.022
 4352W        W 8403   0.492   8.120   2.700
 4353W        W 8404   8.482   7.194   8.892
 4354W        W 8405   8.405   5.167   1.336
 4355W        W 8406   0.325   7.468   0.482
 4356W        W 8407  10.052   7.020   3.582
 4357W        W 8408   3.073   2.578   2.788
 4358W        W 8409   5.621   7.136   0.208
 4359W        W 8410   2.275  10.986   2.793
 4360W        W 8411  11.338   9.077   2.932
 4361W        W 8412   9.338   9.371   1.320
 4362W        W 8413  11.463   4.141  10.727
 4363W        W 8414   0.974   7.971   1.497
 4364W        W 8415   1.716   9.646   3.245
 4365W        W 8416   6.559   3.423  11.823
 4366W        W 8417   4.259   0.362   9.338
 4367W        W 8418   4.172   0.045   1.709
 4368W        W 8419   8.384   4.210  10.423
 4369W        W 8420   7.580   8.580   2.818
 4370W        W 8421  10.359   1.017  10.300
 4371W        W 8422   7.576   6.696   2.947
 4372W        W 8423   6.029   4.585  10.790
 4373W        W 8424  11.440   2.167   2.887
 4374W        W 8425   9.290   6.468   0.560
 4375W        W 8426   9.878   7.904  10.486
 4376W        W 8427  10.609   1.750  11.445
 4377W        W 8428   6.270   6.579  11.674
 4378W        W 8429   6.202   1.398  10.434
 4379W        W 8430   4.533  10.925  11.581
 4380W        W 8431   9.879   8.127   1.957
 4381W        W 8432   6.093   9.191   1.216
 4382W        W 8433   5.536   7.061  10.852
 4383W        W 8434   0.543   7.370  11.428
 4384W        W 8435   0.618   4.240   2.673
 4385W        W 8436   2.053   5.671   8.651
 4386W        W 8437   3.558   1.780   9.866
 4387W        W 8438   5.442   5.649  10.497
 4388W        W 8439   6.408   9.513   1.509
 4389W        W 8440   0.868   4.609   0.973
 4390W        W 8441  10.440   7.406   3.645
 4391W        W 8442   6.273   4.136   2.747
 4392W        W 8443   2.445   2.647  11.032
 4393W        W 8444   1.697   7.403   0.733
 4394W        W 8445   1.691   3.265   0.991
 4395W        W 8446   0.015  10.873   8.955
 4396W        W 8447   7.399  10.051   0.911
 4397W        W 8448   9.540   1.037   2.389
 4398W        W 8449   1.241   4.266   0.499
 4399W        W 8450   5.604   4.355  11.804
 4400W        W 8451   8.474   2.346   9.580
 4401W        W 8452   1.838   1.015   1.582
 4402W        W 8453   8.700   2.142   0.771
 4403W        W 8454   4.511   2.201  10.928
 4404W        W 8455   1.495  11.265   9.038
 4405W        W 8456   9.931   9.167   2.786
 4406W        W 8457   8.453   4.863   0.904
 4407W        W 8458   0.446   0.262  11.762
 4408W        W 8459   5.182   7.745   1.340
 4409W        W 8460  10.481   1.735   2.868
 4410W        W 8461   7.909   6.514   0.774
 4411W        W 8462   5.986   5.248  10.056
 4412W        W 8463   4.671   5.301  11.739
 4413W        W 8464   8.683   2.114   9.983
 4414W        W 8465   1.699  11.314   9.881
 4415W        W 8466  11.444  10.290   9.596
 4416W        W 8467   2.837  11.145  10.308
 4417W        W 8468   4.508   0.354   2.005
 4418W        W 8469   5.705   9.399  10.311
 4419W        W 8470   5.627   0.276   1.378
 4420W        W 8471   7.860   0.994   0.937
 4421W        W 8472   7.750   9.927   8.779
 4422W        W 8473   1.799  10.963   1.621
 4423W        W 8474   1.271   7.986   9.876
 4424W        W 8475   4.566   9.281   3.564
 4425W        W 8476   6.040   6.625   0.846
 4426W        W 8477   8.183   7.059   2.109
 4427W        W 8478   0.333   4.841   2.156
 4428W        W 8479   4.637   9.787  10.257
 4429W        W 8480   0.420   0.263  10.088
 4430W        W 8481  11.225   0.849  11.382
 4431W        W 8482   7.603   9.893   2.345
 4432W        W 8483   5.192  10.001   8.398
 4433W        W 8484   4.073   9.270   8.985
 4434W        W 8485   5.072   2.984   0.061
 4435W        W 8486   3.490   6.004   3.061
 4436W        W 8487  10.366  10.083   0.777
 4437W        W 8488   3.121   5.268  11.349
 4438W        W 8489   0.450  10.859   9.864
 4439W        W 8490   2.293   5.518  11.066
 4440W        W 8491   6.640   0.546  10.699
 4441W        W 8492   1.197   0.516   0.450
 4442W        W 8493   3.340   7.961   1.808
 4443W        W 8494   0.977   2.905   2.201
 4444W        W 8495   2.722   5.576   9.785
 4445W        W 8496   3.501   0.561   1.858
 4446W        W 8497  10.467   1.761   3.464
 4447W        W 8498   7.651   0.397   0.957
 4448W        W 8499  10.758   2.972  10.870
 4449W        W 8500   8.301   1.440   8.967
 4450W        W 8501   7.934   8.690   9.467
 4451W        W 8502   3.367   9.980   9.356
 4452W        W 8503  10.907  10.917  10.545
 4453W        W 8504   0.228   1.946   1.907
 4454W        W 8505   0.522   9.345  10.864
 4455W        W 8506  10.647   2.601   8.711
 4456W        W 8507   6.965  10.375   2.869
 4457W        W 8508   4.583   4.797   0.987
 4458W        W 8509   8.517   3.967  10.853
 4459W        W 8510   8.340   2.155   0.388
 4460W        W 8511   0.827   7.323   2.681
 4461W        W 8512   8.205   3.760   8.646
 4462W        W 8513   3.526   7.590   0.643
 4463W        W 8514   1.629   1.052   9.128
 4464W        W 8515   6.147  10.285   8.699
 4465W        W 8516  11.281   3.783   2.420
 4466W        W 8517  10.416   0.006  10.240
 4467W        W 8518   8.485   8.095   1.163
 4468W        W 8519   0.054   9.506  11.784
 4469W        W 8520   5.259  10.363   1.400
 4470W        W 8521   5.604  10.447  11.733
 4471W        W 8522   2.875   9.582   0.332
 4472W        W 8523   8.144   2.769   0.308
 4473W        W 8524   1.411   4.671   2.900
 4474W        W 8525   2.851   6.406   9.915
 4475W        W 8526  10.821  10.889  11.856
 4476W        W 8527   8.400   9.455   8.499
 4477W        W 8528   9.441   5.343  11.251
 4478W        W 8529   8.953   5.226   3.308
 4479W        W 8530   3.412   2.206   1.721
 4480W        W 8531  10.491  10.886   2.740
 4481W        W 8532  10.434  11.281   9.754
 4482W        W 8533   1.272   4.752  10.332
 4483W        W 8534   2.646   0.041  11.267
 4484W        W 8535   8.137   2.748  11.773
 4485W        W 8536   1.325   6.998  11.046
 4486W        W 8537   1.490   6.291  11.691
 4487W        W 8538   2.173   5.781  11.876
 4488W        W 8539  11.349   9.013  11.794
 4489W        W 8540  10.043   2.950   2.775
 4490W        W 8541   4.500   2.980   3.093
 4491W        W 8542   9.971   3.195   9.236
 4492W        W 8543  10.898   3.139   1.469
 4493W        W 8544   9.199   3.652  11.252
 4494W        W 8545   3.494   2.310  11.071
 4495W        W 8546   7.982   0.308   9.907
 4496W        W 8547   2.109   0.859   9.108
 4497W        W 8548   1.909   3.132   9.633
 4498W        W 8549  10.268  11.262   1.151
 4499W        W 8550   6.671  11.358   1.979
 4500W        W 8551   4.070   2.991   9.119
 4501W        W 8552   3.961   0.986  10.836
 4502W        W 8553   1.688   2.209  11.382
 4503W        W 8554   3.188   0.704  11.850
 4504W        W 8555   3.353   6.553   9.816
 4505W        W 8556   8.731   9.043  10.269
 4506W        W 8557   5.685   4.057   8.164
 4507W        W 8558   5.860  11.004   0.455
 4508W        W 8559   0.154   0.353   2.497
 4509W        W 8560   5.569   9.718   0.720
 4510W        W 8561   1.200   3.750   3.397
 4511W        W 8562   9.020  10.574   0.247
 4512W        W 8563   2.877   1.350   8.981
 4513W        W 8564   9.527   0.991  10.342
 4514W        W 8565   6.994   1.812   1.164
 4515W        W 8566   1.204   0.212   9.107
 4516W        W 8567   8.942   7.188   1.666
 4517W        W 8568  11.214   9.358  10.390
 4518W        W 8569   9.112   9.554   3.263
 4519W        W 8570   3.895   7.005   2.453
 4520W        W 8571   3.757   7.099  10.115
 4521W        W 8572   4.633   6.408   3.995
 4522W        W 8573   4.726   7.506   9.560
 4523W        W 8574   7.030   8.764  11.577
 4524W        W 8575   1.290  10.486  10.868
 4525W        W 8576   5.689   8.454   8.580
 4526W        W 8577   9.406   1.102   0.249
 4527W        W 8578   1.984   6.979   0.836
 4528W        W 8579   1.129   7.121   9.545
 4529W        W 8580   5.823   5.282  10.554
 4530W        W 8581   6.877   8.540   1.039
 4531W        W 8582   4.055   7.540  10.518
 4532W        W 8583   6.020   2.796   1.343
 4533W        W 8584  11.468   5.136  11.592
 4534W        W 8585   6.696   9.539   1.957
 4535W        W 8586   6.870   8.148  11.787
 4536W        W 8587   4.267   6.984   2.119
 4537W        W 8588   6.087   7.391   1.777
 4538W        W 8589   6.204   0.477  10.324
 4539W        W 8590   9.630   7.972   0.774
 4540W        W 8591   9.914   3.825  10.795
 4541W        W 8592  11.217   1.334   0.050
 4542W        W 8593   5.977   2.690   9.083
 4543W        W 8594  11.364   2.492  11.541
 4544W        W 8595   3.137   6.619   2.039
 4545W        W 8596   6.260   9.071   9.091
 4546W        W 8597   6.836   0.262   0.002
 4547W        W 8598   2.296   0.948  10.402
 4548W        W 8599   7.132   0.267  10.476
 4549W        W 8600   8.082   8.429  10.436
 4550W        W 8601   7.948   3.349  10.130
 4551W        W 8602   9.628  10.488   3.334
 4552W        W 8603   2.604   8.080   8.887
 4553W        W 8604   7.902   3.198   9.635
 4554W        W 8605   9.852   6.130   1.147
 4555W        W 8606   2.459   6.546   9.628
 4556W        W 8607   4.598   9.502  11.220
 4557W        W 8608   5.973   4.403   8.451
 4558W        W 8609   7.735   7.952   9.645
 4559W        W 8610   1.212  11.434   0.951
 4560W        W 8611   6.614  10.812   9.794
 4561W        W 8612   4.676   6.298   8.784
 4562W        W 8613   8.577   9.455   2.971
 4563W        W 8614   5.025  11.044  11.554
 4564W        W 8615   4.601  11.235   0.854
 4565W        W 8616   0.024   9.946   3.150
 4566W        W 8617   4.549   3.357   2.745
 4567W        W 8618   3.333   7.142   0.745
 4568W        W 8619   2.969   9.861   2.951
 4569W        W 8620  10.723  10.324   1.846
 4570W        W 8621   7.517   7.201   2.952
 4571W        W 8622  10.460   6.508   9.342
 4572W        W 8623  11.467   6.798  10.971
 4573W        W 8624   1.298   8.784  10.540
 4574W        W 8625   3.417   9.302   8.756
 4575W        W 8626   8.825   3.050  10.045
 4576W        W 8627   9.591   5.763   9.886
 4577W        W 8628   9.453   6.085   3.445
 4578W        W 8629   2.674   2.309  11.355
 4579W        W 8630   1.474   2.648  11.499
 4580W        W 8631   9.889   8.375  10.319
 4581W        W 8632   9.712   4.766   9.714
 4582W        W 8633   8.115   2.272  11.936
 4583W        W 8634   9.829   4.124  10.043
 4584W        W 8635   2.369  10.150  11.902
 4585W        W 8636   1.327   5.555  10.521
 4586W        W 8637   7.466   1.196  10.948
 4587W        W 8638  10.049   2.788   3.284
 4588W        W 8639   2.152   6.781  11.792
 4589W        W 8640   1.711   3.952   3.323
 4590W        W 8641   5.962   9.126   2.117
 4591W        W 8642  10.476   2.724   2.961
 4592W        W 8643  10.866   8.662   0.368
 4593W        W 8644   6.537  10.604   3.221
 4594W        W 8645   9.376   0.768   1.349
 4595W        W 8646   9.278   4.018   3.593
 4596W        W 8647   4.558  10.801  10.180
 4597W        W 8648   6.426  10.746   0.910
 4598W        W 8649   9.525  11.139   8.444
 4599W        W 8650  10.875   4.037   3.296
 4600W        W 8651   0.751   8.612   8.944
 4601W        W 8652   0.399   5.667   2.366
 4602W        W 8653   4.633   3.198  10.862
 4603W        W 8654  10.277  10.087  10.584
 4604W        W 8655  11.381   4.409   1.167
 4605W        W 8656   8.030   9.928   1.872
 4606W        W 8657   9.920   4.372   2.897
 4607W        W 8658   2.223   4.855   1.698
 4608W        W 8659   6.526   0.700   9.982
 4609W        W 8660   8.630   6.654   9.207
 4610W        W 8661   5.928   3.397  10.314
 4611W        W 8662   7.189   6.160   1.216
 4612W        W 8663   4.248   6.675   9.477
 4613W        W 8664   8.628   2.077   3.590
 4614W        W 8665   7.458   4.265  11.495
 4615W        W 8666   4.243   0.572  10.887
 4616W        W 8667   9.279   3.366   0.000
 4617W        W 8668   0.308   2.678  10.079
 4618W        W 8669   3.781   2.206   9.563
 4619W        W 8670   7.434  11.278   9.475
 4620W        W 8671   0.159   2.248  11.923
 4621W        W 8672   8.038  11.305   1.991
 4622W        W 8673   1.450   8.430   9.688
 4623W        W 8674   2.343   7.674   9.749
 4624W        W 8675   4.981   2.810   2.250
 4625W        W 8676   5.574   7.122   1.193
 4626W        W 8677   5.685   4.241   2.721
 4627W        W 8678   8.848   9.479   1.164
 4628W        W 8679   8.330   0.217   2.501
 4629W        W 8680   2.790   4.731  10.912
 4630W        W 8681   5.198   9.272  11.532
 4631W        W 8682   6.037   0.390   2.807
 4632W        W 8683   4.203   7.524   9.531
 4633W        W 8684   2.348   3.453   9.483
 4634W        W 8685  11.284  11.244   1.309
 4635W        W 8686   8.370  10.942   3.193
 4636W        W 8687   1.222   2.658   8.910
 4637W        W 8688   2.637   8.643   2.202
 4638W        W 8689  10.102   9.792   0.456
 4639W        W 8690   1.855   2.018  11.915
 4640W        W 8691   5.774   1.234   8.950
 4641W        W 8692   1.842   3.748  10.503
 4642W        W 8693   4.601   3.193   9.955
 4643W        W 8694   5.661   3.665  11.020
 4644W        W 8695   6.436   8.261  10.844
 4645W        W 8696   9.333  10.809   3.061
 4646W        W 8697   1.203   3.169   8.636
 4647W        W 8698   7.712   8.586   2.312
 4648W        W 8699  10.998   8.634   9.354
 4649W        W 8700   3.135   0.801   0.768
 4650W        W 8701   4.721   9.059  10.963
 4651W        W 8702   3.148   0.865   9.092
 4652W        W 8703   6.318   8.844  11.917
 4653W        W 8704   5.156  10.558   3.336
 4654W        W 8705  11.317   2.599   9.999
 4655W        W 8706   8.063   0.976   9.069
 4656W        W 8707   6.723   7.702  11.568
 4657W        W 8708   2.161   9.818   0.754
 4658W        W 8709   0.405  10.970   2.670
 4659W        W 8710  11.057   2.609  10.472
 4660W        W 8711   7.526   5.974   0.844
 4661W        W 8712   3.181   4.358   1.210
 4662W        W 8713   2.341   4.117  11.606
 4663W        W 8714  10.047  10.241   2.289
 4664W        W 8715   7.246  10.307   2.441
 4665W        W 8716   8.180   8.519   3.407
 4666W        W 8717   1.296   9.298   8.940
 4667W        W 8718  10.933   0.871  11.845
 4668W        W 8719   6.481   0.103   2.879
 4669W        W 8720  10.368   8.990   0.075
 4670W        W 8721   2.687   1.184   0.302
 4671W        W 8722   7.831   7.714   0.865
 4672W        W 8723   7.511   4.633  10.032
 4673W        W 8724   5.662   3.589   0.269
 4674W        W 8725  10.488   3.639   1.306
 4675W        W 8726   8.265   2.446   1.949
 4676W        W 8727  11.480   9.022   9.120
 4677W        W 8728   3.241   3.359   9.435
 4678W        W 8729   1.670  10.685   0.462
 4679W        W 8730   2.284   4.367   1.464
 4680W        W 8731   0.553   7.066   0.226
 4681W        W 8732  11.027   7.158   9.005
 4682W        W 8733  10.110   9.093   0.936
 4683W        W 8734   1.497   3.251   3.597
 4684W        W 8735   4.814   0.468  11.506
 4685W        W 8736   0.836  10.908   0.203
 4686W        W 8737   9.526   2.402   0.993
 4687W        W 8738   2.869  10.937   8.477
 4688W        W 8739   5.006   9.524   3.379
 4689W        W 8740   8.081   8.466   0.411
 4690W        W 8741   0.553   2.310   0.256
 4691W        W 8742   0.836   7.407   3.570
 4692W        W 8743   8.053   2.051   8.538
 4693W        W 8744   8.522   8.487   2.513
 4694W        W 8745   6.140   6.204  10.270
 4695W        W 8746   0.315   5.279  10.260
 4696W        W 8747   9.838   9.441  11.132
 4697W        W 8748  10.328   0.737   2.795
 4698W        W 8749   2.875   5.049   2.186
 4699W        W 8750   4.975  11.066  10.327
 4700W        W 8751   4.059  10.542  10.260
 4701W        W 8752   9.596  11.015  10.306
 4702W        W 8753   2.925   4.985   1.693
 4703W        W 8754  10.121   3.768  11.251
 4704W        W 8755   5.106  10.947   1.515
 4705W        W 8756   7.510   0.580  10.654
 4706W        W 8757   6.732   6.290  10.513
 4707W        W 8758   6.223   7.099   0.869
 4708W        W 8759   0.118   4.125   2.616
 4709W        W 8760   7.031   1.447   2.144
 4710W        W 8761   2.940   6.900   0.966
 4711W        W 8762  10.570   0.785   1.875
 4712W        W 8763   9.610   1.660  11.490
 4713W        W 8764   2.444   7.030   0.568
 4714W        W 8765   3.177   9.605  10.078
 4715W        W 8766  10.453   8.984   9.234
 4716W        W 8767   5.137  10.553  11.572
 4717W        W 8768   4.774   5.240   1.274
 4718W        W 8769   8.094   0.656   2.256
 4719W        W 8770   0.590   8.687   0.922
 4720W        W 8771   3.504   4.609   3.568
 4721W        W 8772   6.098   5.183   1.038
 4722W        W 8773   2.013   9.078   1.329
 4723W        W 8774   4.828   0.988   9.311
 4724W        W 8775   0.899   2.407   0.703
 4725W        W 8776   8.607   4.643   9.518
 4726W        W 8777   7.253   9.977  11.075
 4727W        W 8778   4.269   7.125  10.274
 4728W        W 8779   7.388   0.837  10.218
 4729W        W 8780   2.582   4.251  10.728
 4730W        W 8781   0.439  10.819   1.677
 4731W        W 8782   9.746   6.629  10.856
 4732W        W 8783   5.884   6.886   3.553
 4733W        W 8784   5.616   4.541   3.483
 4734W        W 8785  10.795   9.572  11.313
 4735W        W 8786   1.561   6.916   0.520
 4736W        W 8787  10.329   3.664   2.462
 4737W        W 8788   8.858  10.999   2.901
 4738W        W 8789   6.322   0.713   9.526
 4739W        W 8790   9.869   0.433  11.805
 4740W        W 8791   6.033   2.668   9.948
 4741W        W 8792   3.157   1.021   3.045
 4742W        W 8793   1.618   0.692   9.977
 4743W        W 8794   4.733   5.240   1.788
 4744W        W 8795   1.821   0.469  11.746
 4745W        W 8796   1.693   3.366  11.938
 4746W        W 8797  11.408   6.153  10.937
 4747W        W 8798   0.706   9.603   1.049
 4748W        W 8799   6.113   7.894   1.785
 4749W        W 8800   1.277   8.299  10.688
 4750W        W 8801   2.724   0.363  11.731
 4751W        W 8802   5.562   6.712   0.904
 4752W        W 8803   0.243   6.163   0.997
 4753W        W 8804   1.705   9.559   9.099
 4754W        W 8805   7.748   6.529  11.886
 4755W        W 8806   9.964   8.007   9.166
 4756W        W 8807   1.911   7.176   8.977
 4757W        W 8808   7.361  11.267  10.387
 4758W        W 8809   4.848  10.844  11.995
 4759W        W 8810   1.346  10.679   2.834
 4760W        W 8811   8.489   9.928   3.189
 4761W        W 8812   8.139  11.420   3.432
 4762W        W 8813   8.040   0.217   1.317
 4763W        W 8814   4.700   2.221  10.062
 4764W        W 8815   2.249   5.702   2.226
 4765W        W 8816   4.332   1.897  10.169
 4766W        W 8817   9.415  10.123   9.463
 4767W        W 8818   1.412   1.476   0.426
 4768W        W 8819  10.421   5.568   8.876
 4769W        W 8820   5.718  11.393   2.290
 4770W        W 8821  10.301   5.273   1.296
 4771W        W 8822   3.633   8.255   2.704
 4772W        W 8823   2.645   9.131   2.421
 4773W        W 8824   5.015   6.201   1.414
 4774W        W 8825  11.436   4.723  10.071
 4775W        W 8826   2.512   7.187   3.662
 4776W        W 8827   0.709   7.570  10.220
 4777W        W 8828   8.038   0.468   8.916
 4778W        W 8829   1.884  11.297   3.498
 4779W        W 8830   1.049  10.511   1.031
 4780W        W 8831   0.174   9.357   0.491
 4781W        W 8832   9.048   3.409   1.891
 4782W        W 8833   9.668   3.719   0.106
 4783W        W 8834   5.974   1.674  11.816
 4784W        W 8835   9.982   5.278   1.688
 4785W        W 8836   6.102   6.406   1.765
 4786W        W 8837  10.429   5.807  10.987
 4787W        W 8838   6.588   4.334   1.396
 4788W        W 8839   8.189   3.729   2.822
 4789W        W 8840   0.814  11.328   3.626
 4790W        W 8841   3.872   9.825   3.561
 4791W        W 8842  11.252   1.204  10.256
 4792W        W 8843   5.327  10.713   0.069
 4793W        W 8844   6.258   1.526  11.416
 4794W        W 8845   3.207   7.207  11.869
 4795W        W 8846   5.945  11.078  10.399
 4796W        W 8847  11.109  11.220   2.205
 4797W        W 8848   6.074   7.566   0.752
 4798W        W 8849   6.524   9.848   0.840
 4799W        W 8850   1.918   3.314   2.365
 4800W        W 8851   2.894   2.250   1.712
 4801W        W 8852  10.026   9.919   1.373
 4802W        W 8853   2.029  10.483   0.072
 4803W        W 8854   6.172   8.680   9.441
 4804W        W 8855   0.839   2.820   2.665
 4805W        W 8856  10.845   2.254   9.241
 4806W        W 8857   4.237   1.079   3.694
 4807W        W 8858   2.222   3.131  11.295
 4808W        W 8859  10.740   0.076   2.256
 4809W        W 8860   2.536  11.365  11.785
 4810W        W 8861   1.013   1.391   2.764
 4811W        W 8862   1.286   1.051  10.080
 4812W        W 8863   3.109   1.180   0.003
 4813W        W 8864   8.542   3.579   0.410
 4814W        W 8865  11.484   3.873   0.510
 4815W        W 8866  10.435   5.307   9.883
 4816W        W 8867   2.254   5.220   8.553
 4817W        W 8868   2.674   5.070   3.182
 4818W        W 8869   6.541   3.955  11.794
 4819W        W 8870   8.499   9.382   2.458
 4820W        W 8871   8.184   2.363   1.448
 4821W        W 8872   0.197   9.524   0.970
 4822W        W 8873   3.212   1.608  10.906
 4823W        W 8874   1.975  11.462  10.440
 4824W        W 8875   7.092   9.303   8.466
 4825W        W 8876   7.263   4.279   2.756
 4826W        W 8877   9.968  11.449  11.030
 4827W        W 8878   8.387   0.832  11.686
 4828W        W 8879   4.693   3.743   9.071
 4829W        W 8880   6.019   9.608   3.064
 4830W        W 8881   9.019   1.724   9.789
 4831W        W 8882   5.737   6.413   3.101
 4832W        W 8883   6.921   2.172  10.492
 4833W        W 8884   5.450   4.508   8.294
 4834W        W 8885   2.730   7.068   8.555
 4835W        W 8886   4.667   4.820  10.497
 4836W        W 8887   7.930   6.227   9.747
 4837W        W 8888   3.588  11.279   2.186
 4838W        W 8889  11.266   2.031   9.481
 4839W        W 8890  10.292   0.503  10.229
 4840W        W 8891  10.400   8.347   0.477
 4841W        W 8892   4.525   2.397   0.504
 4842W        W 8893   6.955   8.952   1.783
 4843W        W 8894   5.101   2.596   8.973
 4844W        W 8895   6.972   2.765   2.294
 4845W        W 8896   2.608   0.958   0.769
 4846W        W 8897  10.560   3.523  11.279
 4847W        W 8898   9.644   4.087   0.447
 4848W        W 8899   6.105   8.171   1.350
 4849W        W 8900   3.121  11.305   0.970
 4850W        W 8901   0.267  10.031   0.897
 4851W        W 8902   5.702  10.497   1.633
 4852W        W 8903   6.932   2.934   0.962
 4853W        W 8904  10.456   4.873  10.811
 4854W        W 8905   3.521  10.855   1.292
 4855W        W 8906   8.036   2.306   2.408
 4856W        W 8907   8.398   0.259   1.990
 4857W        W 8908   2.413   5.108  10.801
 4858W        W 8909   1.896   9.649   2.034
 4859W        W 8910   2.262  10.504   9.623
 4860W        W 8911   3.041   9.443   2.661
 4861W        W 8912   6.780   2.608   2.735
 4862W        W 8913  10.695   5.503   3.205
 4863W        W 8914   6.843   8.018   1.089
 4864W        W 8915   3.906   8.783   0.452
 4865W        W 8916   8.563  10.862   9.047
 4866W        W 8917   9.932  10.953  10.890
 4867W        W 8918   0.232  11.321   8.795
 4868W        W 8919   9.409   7.493   2.547
 4869W        W 8920  11.421   6.554   1.341
 4870W        W 8921  10.438   3.216   3.208
 4871W        W 8922   4.849   1.799   2.369
 4872W        W 8923  10.336   4.635  11.905
 4873W        W 8924   7.569   2.037   3.023
 4874W        W 8925   6.099   8.422   1.791
 4875W        W 8926  10.868   0.602   2.291
 4876W        W 8927   3.912   1.392   2.854
 4877W        W 8928   1.444   6.098   0.567
 4878W        W 8929   6.167   5.048   0.022
 4879W        W 8930   7.043   5.167   1.165
 4880W        W 8931   2.283  10.287   1.460
 4881W        W 8932   8.970   1.261   2.229
 4882W        W 8933   8.573  10.366   9.929
 4883W        W 8934   0.719   0.584  11.442
 4884W        W 8935   1.488   4.121   2.343
 4885W        W 8936   4.088   6.333   8.069
 4886W        W 8937   8.828   2.090   3.108
 4887W        W 8938   2.176   2.342   2.286
 4888W        W 8939  10.577   0.295   9.815
 4889W        W 8940   0.774   9.492  10.395
 4890W        W 8941   3.589   7.486  11.261
 4891W        W 8942   7.719   5.079  11.053
 4892W        W 8943   3.138   6.753   8.493
 4893W        W 8944   0.927   7.960   0.562
 4894W        W 8945   5.987   2.568   3.641
 4895W        W 8946   3.191   7.606  10.504
 4896W        W 8947   8.368  10.888  10.012
 4897W        W 8948   9.573  10.895   8.936
 4898W        W 8949   3.507   8.900   9.518
 4899W        W 8950   7.785   3.619   1.900
 4900W        W 8951   2.947   1.164  10.912
 4901W        W 8952   2.314   7.431  11.073
 4902W        W 8953   7.957   5.528  10.317
 4903W        W 8954   5.195   8.611   1.655
 4904W        W 8955  11.461   2.060   9.953
 4905W        W 8956   6.618   1.449   0.374
 4906W        W 8957   2.603   5.751   0.261
 4907W        W 8958   0.858   3.574  11.942
 4908W        W 8959   3.687   6.294   8.999
 4909W        W 8960   0.871   9.543   9.079
 4910W        W 8961  10.136   6.593   3.856
 4911W        W 8962   4.667   7.478  11.077
 4912W        W 8963   7.140   8.052   0.230
 4913W        W 8964  10.014   5.180   9.546
 4914W        W 8965   0.316   1.659   2.314
 4915W        W 8966   2.883   1.410   2.854
 4916W        W 8967   1.531  10.420   2.297
 4917W        W 8968  11.421   6.973  11.446
 4918W        W 8969   9.504   3.450   2.148
 4919W        W 8970   8.964   0.885   9.341
 4920W        W 8971   3.677  10.359   1.173
 4921W        W 8972  10.891   2.216  11.441
 4922W        W 8973  10.452   0.102   9.325
 4923W        W 8974   9.273   6.073   2.439
 4924W        W 8975   6.870   7.485   3.197
 4925W        W 8976   6.261  11.324   1.657
 4926W        W 8977   6.446   5.842   9.627
 4927W        W 8978   7.240   2.733   1.361
 4928W        W 8979  10.230   6.507   1.922
 4929W        W 8980   0.777   5.760  11.037
 4930W        W 8981   5.467   2.847   2.425
 4931W        W 8982   7.533   0.473   0.451
 4932W        W 8983   1.111   6.021   0.945
 4933W        W 8984   3.648   8.525   3.153
 4934W        W 8985  10.237   1.148   0.003
 4935W        W 8986   2.793   1.905   0.660
 4936W        W 8987   3.205  10.476   9.537
 4937W        W 8988   3.926   6.959  11.159
 4938W        W 8989   7.430   1.967  10.517
 4939W        W 8990   4.243   2.390   8.859
 4940W        W 8991   3.392   9.873  11.938
 4941W        W 8992   8.755   3.833   1.715
 4942W        W 8993   8.030   6.486   2.779
 4943W        W 8994   1.159  10.451  11.976
 4944W        W 8995  10.443   7.485   0.156
 4945W        W 8996  10.844   1.567   2.442
 4946W        W 8997   9.937   8.958   0.456
 4947W        W 8998   9.631   4.203   8.980
 4948W        W 8999   2.623   1.352  11.260
 4949W        W 9000   4.197  11.028   1.697
 4950W        W 9001   7.014   0.820   3.140
 4951W        W 9002   8.517   8.831   1.723
 4952W        W 9003   1.691   3.096   2.780
 4953W        W 9004  11.485   2.874  10.445
 4954W        W 9005   8.879   7.820  10.627
 4955W        W 9006   5.926  10.449   1.175
 4956W        W 9007   2.817  11.386   2.690
 4957W        W 9008   2.602   2.436   1.291
 4958W        W 9009  10.328   7.425   2.417
 4959W        W 9010   9.326   4.811   2.285
 4960W        W 9011   2.903   5.067   1.203
 4961W        W 9012  10.369   1.658  10.965
 4962W        W 9013  10.874   6.090   3.243
 4963W        W 9014   1.276   4.303   9.403
 4964W        W 9015   1.363   0.370   2.013
 4965W        W 9016   7.181   7.917  11.466
 4966W        W 9017   3.827   8.187   1.923
 4967W        W 9018   1.711   8.127   2.289
 4968W        W 9019   5.871   7.234  11.774
 4969W        W 9020   0.633   3.269   3.509
 4970W        W 9021   2.188   5.817   3.274
 4971W        W 9022  10.297  11.416   2.443
 4972W        W 9023   6.465   0.949  10.428
 4973W        W 9024   6.511   6.204   2.032
 4974W        W 9025  10.129   5.100  11.912
 4975W        W 9026  11.005   4.970  10.793
 4976W        W 9027   8.786   6.445   8.254
 4977W        W 9028   1.745   4.990   0.782
 4978W        W 9029   6.442   5.693   0.414
 4979W        W 9030   6.658   4.940  11.964
 4980W        W 9031   6.231  10.443   1.628
 4981W        W 9032  11.062   0.504   9.895
 4982W        W 9033  10.142   3.796   0.242
 4983W        W 9034   5.229   6.727   2.265
 4984W        W 9035   9.348   5.953   9.450
 4985W        W 9036   0.395   9.031  11.603
 4986W        W 9037   2.309   3.736   0.334
 4987W        W 9038   4.917   9.959   9.219
 4988W        W 9039   9.088   5.508   9.536
 4989W        W 9040   1.741   6.746   9.899
 4990W        W 9041   4.737  11.470  11.561
 4991W        W 9042   7.052   5.543  11.196
 4992W        W 9043   2.491   4.150   2.272
 4993W        W 9044   6.678  10.997   3.575
 4994W        W 9045   7.910   5.905  11.439
 4995W        W 9046   6.727   7.978   0.594
 4996W        W 9047   3.520   7.957   2.292
 4997W        W 9048   8.384   6.069  11.395
 4998W        W 9049  11.415   6.437   9.833
 4999W        W 9050   1.971   2.678   9.372
 5000W        W 9051   7.349   9.725   8.555
 5001W        W 9052   5.792   6.668   1.398
 5002W        W 9053  11.265   2.126   8.977
 5003W        W 9054   8.261  10.559  11.428
 5004W        W 9055   0.189   8.071  11.279
 5005W        W 9056   9.984   5.128   3.508
 5006W        W 9057   0.958   9.073   3.672
 5007W        W 9058   2.873   6.533  11.941
 5008W        W 9059   7.298  10.453  11.325
 5009W        W 9060   4.009   0.186   3.597
 5010W        W 9061   8.058   6.867   1.230
 5011W        W 9062   8.609   4.047   2.718
 5012W        W 9063   3.624  11.231   0.878
 5013W        W 9064   0.690   7.743   2.420
 5014W        W 9065   5.384   9.422   3.695
 5015W        W 9066   0.998   9.620  10.899
 5016W        W 9067   7.409   2.609   9.940
 5017W        W 9068   4.168   6.054   1.669
 5018W        W 9069   7.531  11.097   2.727
 5019W        W 9070   8.547   7.426  10.712
 5020W        W 9071   6.554   6.134   8.183
 5021W        W 9072   2.681   6.455   0.930
 5022W        W 9073   3.254   2.610   0.010
 5023W        W 9074   6.530   8.445   9.166
 5024W        W 9075   2.616  11.111   1.068
 5025W        W 9076   6.741  10.316   2.418
 5026W        W 9077   3.101   1.191   1.071
 5027W        W 9078   8.738  10.344   9.003
 5028W        W 9079   5.466   3.135   9.294
 5029W        W 9080   5.940   5.784  10.497
 5030W        W 9081  10.041   3.695  11.743
 5031W        W 9082  10.005   5.599   9.173
 5032W        W 9083   8.490   2.591  10.077
 5033W        W 9084   5.287   2.143  11.484
 5034W        W 9085   0.543   2.309  10.384
 5035W        W 9086   1.352   9.499  11.547
 5036W        W 9087   6.679   8.388   2.311
 5037W        W 9088   8.158   9.494   3.301
 5038W        W 9089   9.861   8.663   2.824
 5039W        W 9090   2.561   6.678   3.470
 5040W        W 9091   1.365   1.445   1.826
 5041W        W 9092   9.813   9.334   2.172
 5042W        W 9093   5.324   5.114  11.598
 5043W        W 9094   6.703  11.444   1.439
 5044W        W 9095   8.847   8.309   8.113
 5045W        W 9096   2.758   7.913   9.884
 5046W        W 9097   1.684   1.559   2.604
 5047W        W 9098   5.787   9.140   0.548
 5048W        W 9099  10.931   5.541  11.877
 5049W        W 9100   1.442   4.545   8.990
 5050W        W 9101   5.605   6.151  10.650
 5051W        W 9102  11.276  10.750   9.450
 5052W        W 9103   9.359   1.775   1.078
 5053W        W 9104   5.269   1.375   8.596
 5054W        W 9105   9.625   3.792   9.481
 5055W        W 9106   2.445   2.939  10.513
 5056W        W 9107   3.752   8.465   9.231
 5057W        W 9108  11.150   1.490   0.950
 5058W        W 9109   8.617  10.837  10.458
 5059W        W 9110   5.595   7.641   8.253
 5060W        W 9111   1.381   5.674   2.761
 5061W        W 9112   7.555  10.935   1.345
 5062W        W 9113   0.484   1.462   0.320
 5063W        W 9114   4.515   1.272   0.003
 5064W        W 9115   0.272   7.487   2.532
 5065W        W 9116   2.467   5.297   0.512
 5066W        W 9117   7.815   5.498  11.711
 5067W        W 9118   7.595   8.905  10.173
 5068W        W 9119   3.095   1.838  10.056
 5069W        W 9120   4.011   0.466   1.953
 5070W        W 9121   7.506   0.683  11.608
 5071W        W 9122   4.093   4.815   0.801
 5072W        W 9123   9.621   1.348   2.899
 5073W        W 9124   6.659   7.543   9.148
 5074W        W 9125   3.266   7.793   8.930
 5075W        W 9126  11.466   0.766  10.799
 5076W        W 9127   1.400   5.086   8.977
 5077W        W 9128   7.075  10.447   3.341
 5078W        W 9129   1.342   2.321   2.901
 5079W        W 9130   8.779   3.139  10.977
 5080W        W 9131   1.767   7.647  11.860
 5081W        W 9132   4.054   2.199   2.194
 5082W        W 9133  10.104   1.718  11.409
 5083W        W 9134   3.349   8.677   2.746
 5084W        W 9135   7.843   7.452   3.281
 5085W        W 9136   4.614   4.405  11.349
 5086W        W 9137  11.321   9.261  11.293
 5087W        W 9138   8.566   7.183  10.257
 5088W        W 9139   3.465   7.086  10.967
 5089W        W 9140   1.935   0.263   9.991
 5090W        W 9141   2.929  10.053   0.512
 5091W        W 9142   0.526  10.899   9.006
 5092W        W 9143   1.778   6.446   2.450
 5093W        W 9144   3.600   8.861  10.014
 5094W        W 9145   8.498   2.834   3.161
 5095W        W 9146   7.002   0.708  11.778
 5096W        W 9147   9.337  11.157  11.691
 5097W        W 9148   9.329  11.109   9.354
 5098W        W 9149   2.666   5.573   9.263
 5099W        W 9150   1.372   7.891  10.402
 5100W        W 9151   4.366   9.097   8.557
 5101W        W 9152  11.119   9.607   3.093
 5102W        W 9153   0.785   6.610   0.271
 5103W        W 9154   3.812   7.994   0.518
 5104W        W 9155   2.453   9.591  11.139
 5105W        W 9156   9.022   6.290   1.772
 5106W        W 9157   4.354   7.116   2.640
 5107W        W 9158  10.796   8.228   3.156
 5108W        W 9159   6.623   9.412   0.550
 5109W        W 9160   1.361   0.452   0.945
 5110W        W 9161   4.542   3.028   1.911
 5111W        W 9162   8.604   3.634   8.354
 5112W        W 9163   4.485   5.982  10.658
 5113W        W 9164   4.507   1.460   3.349
 5114W        W 9165   3.459   9.166   2.825
 5115W        W 9166   0.822   5.302   3.177
 5116W        W 9167   0.347  11.063   3.689
 5117W        W 9168   0.238   9.458  10.425
 5118W        W 9169   1.787  10.893   2.636
 5119W        W 9170   1.983   3.187   3.419
 5120W        W 9171  11.462  10.795   2.350
 5121W        W 9172   0.389   5.404  11.664
 5122W        W 9173   1.747  11.360   1.938
 5123W        W 9174   3.735   7.606   1.877
 5124W        W 9175   7.983   6.941  11.513
 5125W        W 9176   4.598   4.370   1.708
 5126W        W 9177  10.840   0.991  10.060
 5127W        W 9178  10.616   2.236  11.879
 5128W        W 9179   5.475   5.220  10.192
 5129W        W 9180   7.441   8.860  10.666
 5130W        W 9181   4.034   3.116  10.506
 5131W        W 9182   0.731   4.320   9.053
 5132W        W 9183   3.260   6.718   9.342
 5133W        W 9184   4.500   3.734   2.328
 5134W        W 9185  10.889   2.119   3.577
 5135W        W 9186   6.542   9.827   2.329
 5136W        W 9187   0.939   1.636   3.282
 5137W        W 9188   0.949   1.883  11.477
 5138W        W 9189   1.373   9.912  11.242
 5139W        W 9190   2.644   3.776   9.938
 5140W        W 9191   3.383   3.197  11.970
 5141W        W 9192   0.982   7.918   2.842
 5142W        W 9193   8.171   4.644   3.146
 5143W        W 9194   6.036   2.853   8.590
 5144W        W 9195  10.403   7.001   3.231
 5145W        W 9196   6.205   1.784   0.268
 5146W        W 9197  11.472   9.206   1.781
 5147W        W 9198   0.418   9.573   2.475
 5148W        W 9199   5.035   4.336   3.610
 5149W        W 9200   1.576   1.888   1.700
 5150W        W 9201   2.202   0.805   1.215
 5151W        W 9202   5.240   1.240   1.612
 5152W        W 9203   3.068   5.362   3.363
 5153W        W 9204   6.053   7.442  10.750
 5154W        W 9205  10.840   2.790  10.045
 5155W        W 9206   6.176   2.138  11.871
 5156W        W 9207   4.595   4.836  11.959
 5157W        W 9208  10.592   1.367   3.204
 5158W        W 9209   0.888   8.420   1.246
 5159W        W 9210   5.707   0.943   9.400
 5160W        W 9211   6.900   4.078   1.841
 5161W        W 9212   3.610   5.206   8.306
 5162W        W 9213   8.851  11.364   1.153
 5163W        W 9214   3.721   7.469  11.743
 5164W        W 9215   9.074   2.281  10.976
 5165W        W 9216  10.000   9.824   9.323
 5166W        W 9217   4.217   5.169   1.573
 5167W        W 9218   2.468  10.365   2.606
 5168W        W 9219   1.304   4.734   0.719
 5169W        W 9220   1.267   8.134   1.053
 5170W        W 9221   1.918   4.113  10.110
 5171W        W 9222   2.705   4.633   2.452
 5172W        W 9223   7.921   8.805  11.588
 5173W        W 9224   8.557   5.752   2.638
 5174W        W 9225  10.279   7.005   0.935
 5175W        W 9226   0.902   4.175   3.534
 5176W        W 9227   0.919   5.537   2.510
 5177W        W 9228   8.782   6.088   1.008
 5178W        W 9229   1.675   4.194   2.841
 5179W        W 9230   2.127   9.467   3.028
 5180W        W 9231   5.111   7.005   0.197
 5181W        W 9232  10.752   2.681   1.657
 5182W        W 9233   9.477   5.733   8.964
 5183W        W 9234  10.849  10.409   8.765
 5184W        W 9235   3.610   4.201   1.455
 5185W        W 9236   0.434   5.491  10.750
 5186W        W 9237   6.092   7.641   1.269
 5187W        W 9238   9.709   1.304   3.436
 5188W        W 9239   3.358   4.293   9.848
 5189W        W 9240  10.947   1.065   3.362
 5190W        W 9241   8.100   1.912   9.063
 5191W        W 9242   6.079   0.942   3.525
 5192W        W 9243   0.716  10.846  10.307
 5193W        W 9244   6.945   9.608   8.855
 5194W        W 9245  10.987   2.487   2.642
 5195W        W 9246   9.246   5.295   9.090
 5196W        W 9247   0.931   4.162  10.754
 5197W        W 9248   9.535  10.386   2.379
 5198W        W 9249   3.837   6.465  11.290
 5199W        W 9250   1.838   7.549  10.947
 5200W        W 9251   3.727   6.141   2.007
 5201W        W 9252   2.685   1.765   9.290
 5202W        W 9253   8.898   4.166  10.192
 5203W        W 9254   4.980   3.068   9.151
 5204W        W 9255   6.400   6.190   0.495
 5205W        W 9256   8.631   1.877   9.026
 5206W        W 9257   9.436  10.865   2.178
 5207W        W 9258   9.102   5.208   0.030
 5208W        W 9259   4.661   9.495   0.265
 5209W        W 9260   3.389   7.041   2.335
 5210W        W 9261   2.003   6.325   9.753
 5211W        W 9262   6.783  11.134   0.891
 5212W        W 9263   4.002   1.007   9.939
 5213W        W 9264   6.135   0.506   8.807
 5214W        W 9265   9.100   6.603  11.660
 5215W        W 9266   9.436   1.361   2.011
 5216W        W 9267   9.000   8.494   8.569
 5217W        W 9268   6.536   6.785   3.464
 5218W        W 9269  10.409   5.235   0.423
 5219W        W 9270   0.791   7.120  10.511
 5220W        W 9271   2.271   5.559  10.579
 5221W        W 9272   1.509   4.993   9.826
 5222W        W 9273   0.231   2.143  11.421
 5223W        W 9274   9.195  11.408   2.920
 5224W        W 9275   7.989   1.201   0.172
 5225W        W 9276   3.334   7.037   1.260
 5226W        W 9277   3.544   8.466   1.131
 5227W        W 9278   8.934   7.316  11.539
 5228W        W 9279   2.455   4.222   0.098
 5229W        W 9280   0.869   0.331   1.330
 5230W        W 9281   5.289   1.097   9.050
 5231W        W 9282   7.952   9.348  10.875
 5232W        W 9283   1.250   8.655  11.078
 5233W        W 9284   2.627   0.106   2.221
 5234W        W 9285   3.177  10.852   0.147
 5235W        W 9286   0.644   5.489   0.429
 5236W        W 9287   1.125   1.846   9.492
 5237W        W 9288   2.046   2.910  10.840
 5238W        W 9289   8.465   4.919   2.324
 5239W        W 9290   6.670   0.433  11.226
 5240W        W 9291   9.375   9.870  11.975
 5241W        W 9292   9.643   8.543   1.141
 5242W        W 9293  11.134   8.147  10.728
 5243W        W 9294  11.019   3.971  10.969
 5244W        W 9295   9.317   2.170  11.491
 5245W        W 9296   3.203   4.777   2.512
 5246W        W 9297  11.226   0.472   0.076
 5247W        W 9298   1.468   2.761   9.438
 5248W        W 9299   9.813   2.138  11.476
 5249W        W 9300   7.578   4.137  10.167
 5250W        W 9301   0.682   7.592   3.087
 5251W        W 9302   0.941   2.767  11.373
 5252W        W 9303   6.080   2.072  10.857
 5253W        W 9304   7.233   1.486  11.346
 5254W        W 9305   1.816   8.168   3.110
 5255W        W 9306   3.915   2.796   1.155
 5256W        W 9307   8.531  10.004  11.805
 5257W        W 9308  10.370   1.261   1.782
 5258W        W 9309   1.723   0.007   0.944
 5259W        W 9310   9.262   7.610   1.540
 5260W        W 9311   9.550   8.949   9.899
 5261W        W 9312   9.124   5.405   1.917
 5262W        W 9313   3.705   3.112   9.576
 5263W        W 9314   1.739   0.747   3.128
 5264W        W 9315   7.075   6.314  10.130
 5265W        W 9316   5.153   0.750  10.747
 5266W        W 9317   2.868   2.807   1.490
 5267W        W 9318   1.353   8.898   9.488
 5268W        W 9319   4.389   9.954  11.667
 5269W        W 9320   9.358   3.859   9.925
 5270W        W 9321   2.777   0.066   1.234
 5271W        W 9322  10.777   5.384  11.011
 5272W        W 9323   1.349   7.581   0.355
 5273W        W 9324   0.029   4.782  11.037
 5274W        W 9325  11.057   3.508  11.809
 5275W        W 9326   1.224   4.657   2.300
 5276W        W 9327   4.954  10.394   9.541
 5277W        W 9328   4.292   7.052   3.202
 5278W        W 9329   3.427   6.659   0.726
 5279W        W 9330   5.715   8.536  11.321
 5280W        W 9331   9.631   5.124  11.941
 5281W        W 9332   3.399   0.243  10.937
 5282W        W 9333   6.443   3.612   2.397
 5283W        W 9334   9.122   2.426  11.894
 5284W        W 9335   2.748  10.311   9.656
 5285W        W 9336   4.851  10.071  11.457
 5286W        W 9337   8.949   2.904   1.754
 5287W        W 9338   2.866   9.445  10.864
 5288W        W 9339  11.444   1.147   3.329
 5289W        W 9340   3.449   8.844  11.078
 5290W        W 9341   0.373   4.488  10.740
 5291W        W 9342   6.214   8.653   1.189
 5292W        W 9343   2.288   5.647  10.093
 5293W        W 9344   0.471   1.778   1.390
 5294W        W 9345   0.800   6.580   9.550
 5295W        W 9346   0.901   1.369   2.274
 5296W        W 9347  10.785   4.148  11.829
 5297W        W 9348   1.216   9.764  10.312
 5298W        W 9349   4.340   6.529  11.321
 5299W        W 9350   9.146   7.111   2.340
 5300W        W 9351   1.225   6.252   9.456
 5301W        W 9352   3.337  11.291  10.139
 5302W        W 9353   5.137   0.302  10.993
 5303W        W 9354  11.441   1.692   3.196
 5304W        W 9355   1.418   3.144   2.353
 5305W        W 9356  10.842   7.430   0.493
 5306W        W 9357  10.753   6.588   0.411
 5307W        W 9358   5.174   9.941   1.699
 5308W        W 9359   9.481   4.877  11.086
 5309W        W 9360   7.024   0.984   0.807
 5310W        W 9361   2.113   1.594  11.044
 5311W        W 9362   6.187   0.890   1.893
 5312W        W 9363   7.955   1.365  10.907
 5313W        W 9364   1.591   4.221  10.537
 5314W        W 9365  10.831   8.612   2.722
 5315W        W 9366   5.271   0.696   0.275
 5316W        W 9367   3.601   9.638   1.596
 5317W        W 9368   3.342   6.690  11.836
 5318W        W 9369   8.385   1.677  10.832
 5319W        W 9370   1.480   4.514  11.302
 5320W        W 9371  10.372   1.611  11.875
 5321W        W 9372   5.222   0.345   9.982
 5322W        W 9373   9.870   2.684   9.835
 5323W        W 9374   6.625   4.055   0.975
 5324W        W 9375   1.317   6.073  10.369
 5325W        W 9376   7.677   2.162  10.091
 5326W        W 9377  10.615  11.070   2.268
 5327W        W 9378   9.746   5.250  10.839
 5328W        W 9379   0.040   5.561   2.775
 5329W        W 9380   5.821   6.065   2.701
 5330W        W 9381   6.873   9.727   3.669
 5331W        W 9382   3.893   4.215   2.303
 5332W        W 9383   9.685   0.076   2.795
 5333W        W 9384   4.668   7.347   1.996
 5334W        W 9385   3.886   0.568   0.445
 5335W        W 9386   8.693   7.381  11.982
 5336W        W 9387   5.142   3.510   0.016
 5337W        W 9388   1.422   7.539   9.501
 5338W        W 9389  11.374   5.569  10.223
 5339W        W 9390   2.380   2.974   9.360
 5340W        W 9391   9.016   1.479   0.252
 5341W        W 9392   8.013   7.444  11.564
 5342W        W 9393   8.049   8.784   2.979
 5343W        W 9394   7.666   1.516  10.517
 5344W        W 9395   5.707   2.356  11.269
 5345W        W 9396   7.974   1.886  11.062
 5346W        W 9397   1.412   0.046   0.491
 5347W        W 9398   6.643   5.000  10.557
 5348W        W 9399   0.987   1.968  10.352
 5349W        W 9400   1.748   3.507   3.085
 5350W        W 9401   0.043   9.000   0.809
 5351W        W 9402  10.123   4.232  11.006
 5352W        W 9403   3.056   7.883   8.045
 5353W        W 9404   2.030   5.100   0.359
 5354W        W 9405  10.360   1.416   2.270
 5355W        W 9406   1.379   0.278   2.523
 5356W        W 9407   0.090   5.249   8.522
 5357W        W 9408   2.696   0.869  11.895
 5358W        W 9409   2.742   0.578   2.406
 5359W        W 9410   4.710   7.913  10.794
 5360W        W 9411   0.452   4.553  11.255
 5361W        W 9412   0.971   5.795   3.045
 5362W        W 9413   9.057  10.902   1.822
 5363W        W 9414   3.749  11.475   2.829
 5364W        W 9415   6.445   1.510  11.893
 5365W        W 9416   6.632  10.438   8.915
 5366W        W 9417   4.324   4.690   9.138
 5367W        W 9418   7.344   3.331  10.492
 5368W        W 9419   9.440  10.248   0.870
 5369W        W 9420   9.074  10.792   9.039
 5370W        W 9421   1.896  11.265   9.376
 5371W        W 9422  10.241   9.618  11.984
 5372W        W 9423   0.403   4.646   0.714
 5373W        W 9424   6.083   4.607   2.703
 5374W        W 9425   8.048  10.034   9.568
 5375W        W 9426  11.414   0.133  10.072
 5376W        W 9427   4.416   2.793  10.592
 5377W        W 9428   2.837  10.804   9.426
 5378W        W 9429   5.522   4.627   9.585
 5379W        W 9430  10.331   2.884   9.993
 5380W        W 9431   5.068   0.346  11.947
 5381W        W 9432   7.519   4.018   1.070
 5382W        W 9433   6.802   7.116  10.383
 5383W        W 9434   4.595   4.631   2.510
 5384W        W 9435   7.129   5.296  10.352
 5385W        W 9436   6.247   3.880  11.395
 5386W        W 9437   2.918   6.618  11.427
 5387W        W 9438   9.895   9.589   1.730
 5388W        W 9439   9.040   8.950   8.859
 5389W        W 9440   8.963  11.460  11.957
 5390W        W 9441   7.542   9.676   0.495
 5391W        W 9442   2.670   1.452   0.851
 5392W        W 9443   1.190   8.377   0.251
 5393W        W 9444   8.103   2.368  10.985
 5394W        W 9445   1.156   9.153  11.034
 5395W        W 9446   5.711   1.453   1.417
 5396W        W 9447   6.182   3.834   3.320
 5397W        W 9448   4.144   8.245  10.748
 5398W        W 9449   8.075   6.794   9.568
 5399W        W 9450   3.859   8.701   1.831
 5400W        W 9451   9.064  11.441   3.427
 5401W        W 9452   4.179   8.881   1.233
 5402W        W 9453   6.101   1.901  10.380
 5403W        W 9454   8.638   9.526   3.480
 5404W        W 9455   3.666   7.525   9.713
 5405W        W 9456   3.567   0.966   2.692
 5406W        W 9457   1.224  10.851  10.309
 5407W        W 9458   8.842  10.410   1.146
 5408W        W 9459  11.326   4.693   2.174
 5409W        W 9460   5.232   2.734   8.484
 5410W        W 9461   4.284   5.197   1.071
 5411W        W 9462   1.736   6.458   3.022
 5412W        W 9463   0.245  11.461   9.287
 5413W        W 9464   3.252   1.276  10.502
 5414W        W 9465  10.001   8.609   0.073
 5415W        W 9466   3.395  10.980   8.397
 5416W        W 9467   5.436   9.510   1.456
 5417W        W 9468   5.501   8.926  10.342
 5418W        W 9469   6.029   4.543   9.686
 5419W        W 9470   2.897   8.132  11.464
 5420W        W 9471   8.478  11.267   8.723
 5421W        W 9472   0.835   2.359  10.805
 5422W        W 9473   9.450   4.539   0.489
 5423W        W 9474   2.431   3.232   2.294
 5424W        W 9475  10.014   2.218   2.376
 5425W        W 9476   7.237   6.140   8.702
 5426W        W 9477  10.704   0.297   2.727
 5427W        W 9478   7.564   0.447   1.463
 5428W        W 9479   7.629   9.936   9.279
 5429W        W 9480   3.666   2.688   2.843
 5430W        W 9481  10.368   6.062   9.022
 5431W        W 9482   0.405   3.706   9.397
 5432W        W 9483   8.742   6.361   9.990
 5433W        W 9484  10.971   4.580   9.918
 5434W        W 9485   5.041   4.748   0.678
 5435W        W 9486   3.862   9.895   3.053
 5436W        W 9487   9.011   3.806   2.908
 5437W        W 9488   2.167   0.895   2.647
 5438W        W 9489   7.029   5.512   1.544
 5439W        W 9490   0.007   6.146   0.530
 5440W        W 9491   4.660   9.846   3.130
 5441W        W 9492  10.667   3.099  11.547
 5442W        W 9493   9.887   2.242   9.569
 5443W        W 9494   3.168   4.242   8.841
 5444W        W 9495  10.040   0.367  11.329
 5445W        W 9496   8.035   2.660   3.358
 5446W        W 9497   3.926   5.256  11.075
 5447W        W 9498   1.149   4.246  10.299
 5448W        W 9499   0.449   1.212   2.085
 5449W        W 9500   4.315   0.263  11.504
 5450W        W 9501   3.352   0.340  10.413
 5451W        W 9502   5.879   0.519   1.761
 5452W        W 9503   5.270   7.889   2.216
 5453W        W 9504   4.659   8.512  11.926
 5454W        W 9505   8.436   7.200   1.145
 5455W        W 9506   9.472   6.546   2.597
 5456W        W 9507   8.297   3.821   9.144
 5457W        W 9508   3.294   7.962  11.211
 5458W        W 9509   8.192   3.211   8.517
 5459W        W 9510   7.394   6.116   2.137
 5460W        W 9511  10.878   5.670   9.067
 5461W        W 9512   5.969   9.165   9.495
 5462W        W 9513   5.723  11.016  11.959
 5463W        W 9514   8.932   9.992   9.600
 5464W        W 9515   5.232   1.636   9.747
 5465W        W 9516   8.992   6.436   1.298
 5466W        W 9517   4.767   9.934   0.018
 5467W        W 9518   7.688   7.556  11.946
 5468W        W 9519   0.677   2.218   1.201
 5469W        W 9520  10.938   4.288   9.322
 5470W        W 9521  10.759  11.222   8.522
 5471W        W 9522   1.291   5.253   0.763
 5472W        W 9523   7.018   9.851   1.727
 5473W        W 9524   8.082   5.406  11.277
 5474W        W 9525   1.180   5.221  10.149
 5475W        W 9526   2.700   3.290   0.746
 5476W        W 9527   7.475  10.548   1.697
 5477W        W 9528  10.019  10.454  10.817
 5478W        W 9529   6.292   6.644   2.208
 5479W        W 9530  10.279   9.185   2.281
 5480W        W 9531   2.401   2.309   1.803
 5481W        W 9532   8.851   7.639   0.783
 5482W        W 9533  10.961   4.711   1.198
 5483W        W 9534   9.809  10.986  11.798
 5484W        W 9535  11.132   2.230  11.921
 5485W        W 9536   3.903   1.601  11.487
 5486W        W 9537  11.442   4.267   8.562
 5487W        W 9538   7.580   7.035  11.830
 5488W        W 9539   5.953   2.747   1.876
 5489W        W 9540   1.825  10.887   2.129
 5490W        W 9541   6.108  10.458   3.677
 5491W        W 9542   8.717   8.984  11.538
 5492W        W 9543  10.497   4.096   3.647
 5493W        W 9544   4.596   0.457  10.429
 5494W        W 9545   5.228   0.831   2.458
 5495W        W 9546   7.359   7.617   3.231
 5496W        W 9547   9.648   2.628   2.820
 5497W        W 9548   1.809   0.423   8.486
 5498W        W 9549   8.058   6.833  10.380
 5499W        W 9550   9.309   1.106   8.538
 5500W        W 9551   6.909   2.458  11.522
 5501W        W 9552   8.622   0.740  10.676
 5502W        W 9553   0.769   7.706   8.888
 5503W        W 9554   2.175   3.639  11.815
 5504W        W 9555   9.432  10.836  10.810
 5505W        W 9556   8.875   4.341   1.749
 5506W        W 9557   4.851   7.114   8.936
 5507W        W 9558   5.317   8.299   2.609
 5508W        W 9559   0.489   3.194   9.267
 5509W        W 9560  10.513   6.156   0.353
 5510W        W 9561  10.912   6.636   9.100
 5511W        W 9562   0.958   6.163   0.433
 5512W        W 9563   5.856   1.379   0.243
 5513W        W 9564   1.325   8.943   1.503
 5514W        W 9565   7.714   2.466   1.260
 5515W        W 9566   2.723   3.012   8.777
 5516W        W 9567   9.467   9.167   0.352
 5517W        W 9568   3.672   0.871  11.839
 5518W        W 9569  10.097   5.167   0.843
 5519W        W 9570  11.079   7.396   2.037
 5520W        W 9571   1.595   8.055   8.879
 5521W        W 9572   1.567   2.887  11.946
 5522W        W 9573   4.155   1.269   9.498
 5523W        W 9574   6.078   3.243  11.631
 5524W        W 9575   6.149   6.700   9.362
 5525W        W 9576  11.353   8.896   0.316
 5526W        W 9577   4.092   9.279   0.865
 5527W        W 9578   8.028   5.215   2.362
 5528W        W 9579   6.889   1.670  11.703
 5529W        W 9580   5.295   7.141  10.411
 5530W        W 9581   9.131   8.066   3.234
 5531W        W 9582   7.223   3.780  11.325
 5532W        W 9583   7.101   8.945   1.279
 5533W        W 9584   0.366   5.040   9.776
 5534W        W 9585   9.601   8.892   1.953
 5535W        W 9586   8.437   0.284  10.888
 5536W        W 9587   3.680   4.578   1.067
 5537W        W 9588   6.128   0.322   9.817
 5538W        W 9589   1.512   5.681   0.937
 5539W        W 9590   4.401   0.821   9.596
 5540W        W 9591   3.710   3.632   0.256
 5541W        W 9592   8.775  10.320   0.637
 5542W        W 9593   0.764   4.607   8.613
 5543W        W 9594   2.668   6.460   1.861
 5544W        W 9595   0.721   6.554   8.437
 5545W        W 9596   3.183  11.473   1.928
 5546W        W 9597   9.454   9.764   0.718
 5547W        W 9598   4.491   4.330   1.227
 5548W        W 9599   8.201   3.224   2.657
 5549W        W 9600   7.794   9.071   2.091
 5550W        W 9601   8.572   8.666   0.438
 5551W        W 9602   0.798   8.353  11.823
 5552W        W 9603   9.588   5.560  10.364
 5553W        W 9604   1.306   8.304   3.194
 5554W        W 9605   5.588  10.831  10.102
 5555W        W 9606   5.058   7.602  10.512
 5556W        W 9607   2.041   2.469   8.521
 5557W        W 9608   7.677   8.580   1.370
 5558W        W 9609   5.095  10.456   2.827
 5559W        W 9610  10.969   6.650   0.858
 5560W        W 9611   2.311   2.269  11.988
 5561W        W 9612   9.988   7.657   2.804
 5562W        W 9613   3.670   1.709   8.853
 5563W        W 9614  10.312   7.131  11.057
 5564W        W 9615   2.333   0.976   1.697
 5565W        W 9616   2.585  11.064  11.361
 5566W        W 9617   5.592   0.892  11.003
 5567W        W 9618   4.411   9.837   9.328
 5568W        W 9619   6.443   6.559   0.151
 5569W        W 9620  10.833   3.068   2.002
 5570W        W 9621  10.438   1.122   9.315
 5571W        W 9622   5.953   5.727   9.174
 5572W        W 9623   2.242   2.322   2.802
 5573W        W 9624   8.091   7.837   2.562
 5574W        W 9625   7.522  10.996  11.980
 5575W        W 9626  11.382   8.550   2.793
 5576W        W 9627   4.857   3.976  11.220
 5577W        W 9628   5.598   1.933   1.494
 5578W        W 9629   0.366   2.731   2.846
 5579W        W 9630   7.651  11.374   9.936
 5580W        W 9631   7.753   8.933  11.101
 5581W        W 9632   5.973   3.973   2.378
 5582W        W 9633   5.222   7.422   0.479
 5583W        W 9634   8.171   1.936   1.738
 5584W        W 9635   8.663   8.081   8.585
 5585W        W 9636   5.048   9.325   0.008
 5586W        W 9637   6.964   4.157   3.497
 5587W        W 9638   6.509   7.344   1.489
 5588W        W 9639   6.231   0.447   3.345
 5589W        W 9640   0.397   3.581   0.171
 5590W        W 9641   7.775   7.122  10.712
 5591W        W 9642   0.077   9.789   0.260
 5592W        W 9643   9.049   2.792   0.299
 5593W        W 9644   8.161   1.654   0.380
 5594W        W 9645   2.177   3.865   9.726
 5595W        W 9646   9.532   9.590   8.609
 5596W        W 9647   3.356   8.289   8.418
 5597W        W 9648   5.481   4.384   9.120
 5598W        W 9649   0.782  10.584  11.144
 5599W        W 9650   8.945   8.588  10.230
 5600W        W 9651   5.637   7.575   1.454
 5601W        W 9652   4.261   4.060  10.727
 5602W        W 9653   4.804   1.734  10.019
 5603W        W 9654   8.564   6.698  10.354
 5604W        W 9655   4.048   9.097  10.179
 5605W        W 9656   3.833   5.288   0.787
 5606W        W 9657   8.878   9.966   3.523
 5607W        W 9658   3.675   5.891  11.645
 5608W        W 9659  10.917   3.140   3.465
 5609W        W 9660   4.764   2.611   2.753
 5610W        W 9661   4.069   0.892   2.677
 5611W        W 9662  10.306  10.512   1.061
 5612W        W 9663   3.855   4.893  11.819
 5613W        W 9664   8.621   4.465  10.832
 5614W        W 9665  10.837   0.348   1.848
 5615W        W 9666   3.704   9.459  11.764
 5616W        W 9667  10.262  10.736   9.565
 5617W        W 9668   7.873   5.107   8.654
 5618W        W 9669   9.541   1.220  10.796
 5619W        W 9670   0.347  11.370  11.101
 5620W        W 9671   9.551   0.259   1.418
 5621W        W 9672  11.378   8.112   9.316
 5622W        W 9673   6.012   8.973  10.429
 5623W        W 9674   0.386   0.855   1.159
 5624W        W 9675   6.912   1.656   9.807
 5625W        W 9676   1.335   4.074  11.513
 5626W        W 9677   9.817   7.486   0.802
 5627W        W 9678   7.890   2.775   9.976
 5628W        W 9679   2.672   8.309  10.632
 5629W        W 9680   9.385   6.593   8.249
 5630W        W 9681  11.330   0.008   2.770
 5631W        W 9682   3.741  11.295   3.334
 5632W        W 9683   3.025   7.859   2.213
 5633W        W 9684   3.715   2.944   2.395
 5634W        W 9685   3.643   6.223   3.566
 5635W        W 9686  11.457   9.862   1.281
 5636W        W 9687   7.719   5.175   0.488
 5637W        W 9688   3.151   2.414   1.310
 5638W        W 9689   0.770   7.950   9.782
 5639W        W 9690   0.509   5.799   1.886
 5640W        W 9691   9.545   3.173   1.310
 5641W        W 9692   5.960   8.288   0.239
 5642W        W 9693   2.281   9.007   2.005
 5643W        W 9694   4.586  10.319   9.048
 5644W        W 9695   7.886  11.417   2.988
 5645W        W 9696   9.439   8.170   0.356
 5646W        W 9697   4.186   6.108  11.071
 5647W        W 9698   1.408   6.981  10.537
 5648W        W 9699   8.453   6.233  10.520
 5649W        W 9700   9.307   4.985  11.588
 5650W        W 9701   0.945   3.721   0.932
 5651W        W 9702   7.998   9.023   3.435
 5652W        W 9703   0.419   9.295   9.016
 5653W        W 9704   8.670   1.257   3.118
 5654W        W 9705   8.549   4.704   9.001
 5655W        W 9706   6.471   6.229  10.956
 5656W        W 9707   2.937   4.699  11.438
 5657W        W 9708   2.285   0.547   9.516
 5658W        W 9709   6.585  11.230   2.506
 5659W        W 9710   5.642   5.147   1.772
 5660W        W 9711   6.044   6.193   8.097
 5661W        W 9712   9.838  10.598   1.988
 5662W        W 9713   3.240   3.779   9.115
 5663W        W 9714   1.171   3.262   1.071
 5664W        W 9715   9.093  11.240   9.981
 5665W        W 9716   9.599   2.895  10.477
 5666W        W 9717   5.074   3.260   0.483
 5667W        W 9718   3.366   9.268   2.296
 5668W        W 9719   5.089   7.786   0.127
 5669W        W 9720   3.075   4.118  10.802
 5670W        W 9721   3.619   1.258   0.714
 5671W        W 9722   6.569   4.157   3.162
 5672W        W 9723   7.547   0.347  10.171
 5673W        W 9724   3.614  10.518  11.812
 5674W        W 9725   9.062   2.745   1.251
 5675W        W 9726   3.853  10.853   2.105
 5676W        W 9727   6.150   9.979   1.409
 5677W        W 9728   5.233   7.939   0.865
 5678W        W 9729   7.845   1.466   9.198
 5679W        W 9730   3.382   7.685   0.043
 5680W        W 9731   7.704   1.160  11.733
 5681W        W 9732   9.929  10.738   0.275
 5682W        W 9733   7.267   7.991   9.408
 5683W        W 9734   7.592   9.748  10.768
 5684W        W 9735   3.316   5.230   1.966
 5685W        W 9736   8.442   4.715  10.413
 5686W        W 9737   3.101   0.608   2.770
 5687W        W 9738  10.490   2.306   2.624
 5688W        W 9739  10.037   0.880   9.587
 5689W        W 9740  10.230   9.363   9.499
 5690W        W 9741   9.468   2.679   3.327
 5691W        W 9742   7.391   9.091  11.443
 5692W        W 9743   8.038   3.363   9.156
 5693W        W 9744   5.833   5.540   1.433
 5694W        W 9745   2.186   5.326   3.477
 5695W        W 9746   0.694   5.711   3.467
 5696W        W 9747   4.085   1.447  11.024
 5697W        W 9748   2.666   4.141   1.768
 5698W        W 9749   5.580   8.243   3.235
 5699W        W 9750   6.637   9.969   8.122
 5700W        W 9751   3.347   1.902   1.311
 5701W        W 9752   1.002  10.965   0.810
 5702W        W 9753   6.671   6.702   2.959
 5703W        W 9754   3.885   4.381   0.615
 5704W        W 9755   2.305   0.038   9.534
 5705W        W 9756   0.073  11.388   3.245
 5706W        W 9757   9.166   6.637   9.998
 5707W        W 9758   7.916   4.156   2.185
 5708W        W 9759   9.095   4.278   3.133
 5709W        W 9760   3.228   9.894   1.846
 5710W        W 9761   2.670   6.607   2.378
 5711W        W 9762  10.398   7.061  10.508
 5712W        W 9763   6.740   2.088   2.820
 5713W        W 9764   2.721   9.061  11.484
 5714W        W 9765   4.478   6.757   8.635
 5715W        W 9766   2.111   8.631  11.740
 5716W        W 9767   7.695   3.773  11.532
 5717W        W 9768  10.418   7.640  11.227
 5718W        W 9769   4.393   0.748   1.712
 5719W        W 9770   3.895   4.386  10.508
 5720W        W 9771  10.230  10.424   1.574
 5721W        W 9772   0.074   0.970   1.833
 5722W        W 9773   2.135   7.465   1.005
 5723W        W 9774   1.154   0.250  10.693
 5724W        W 9775  11.293   1.235   1.406
 5725W        W 9776   3.465   9.678   2.825
 5726W        W 9777   3.586   2.307   2.510
 5727W        W 9778   7.651   0.182   9.149
 5728W        W 9779   1.758   1.252   3.419
 5729W        W 9780   3.185   5.711  10.995
 5730W        W 9781   6.973   4.654   0.266
 5731W        W 9782  11.007   0.200   3.138
 5732W        W 9783   4.318   8.683  11.564
 5733W        W 9784   1.210   0.627  10.348
 5734W        W 9785   9.960   1.910  11.895
 5735W        W 9786   5.637   3.247   9.817
 5736W        W 9787   2.504   8.543   8.312
 5737W        W 9788   1.312   1.060  10.598
 5738W        W 9789  10.916   3.311   2.942
 5739W        W 9790   3.968   8.410   1.358
 5740W        W 9791   8.683   7.879  11.908
 5741W        W 9792   9.318   1.765   2.932
 5742W        W 9793   9.416   4.917   0.983
 5743W        W 9794   1.906   3.625   8.876
 5744W        W 9795  11.370   8.850   1.421
 5745W        W 9796   4.224   9.978   0.872
 5746W        W 9797   2.785   1.675   0.192
 5747W        W 9798   7.217   3.824  10.310
 5748W        W 9799   7.714   8.049  11.614
 5749W        W 9800   3.144   3.673   1.840
 5750W        W 9801   5.208   9.032   9.016
 5751W        W 9802  10.629   7.685  11.687
 5752W        W 9803   2.713  10.257   8.732
 5753W        W 9804   0.052   7.467  11.358
 5754W        W 9805   0.304   1.207  11.211
 5755W        W 9806  10.880  11.245   3.363
 5756W        W 9807   5.767   1.476   8.505
 5757W        W 9808   3.284   1.357   9.295
 5758W        W 9809   6.033   6.529   2.661
 5759W        W 9810  10.940   6.251   0.058
 5760W        W 9811   3.860   3.871  10.958
 5761W        W 9812  11.360   7.179   9.402
 5762W        W 9813   0.206   1.395  10.251
 5763W        W 9814   0.792   0.844   2.189
 5764W        W 9815   1.055   6.083  11.344
 5765W        W 9816   3.176   4.950   0.397
 5766W        W 9817   0.683   8.408   0.336
 5767W        W 9818   6.707  11.386   0.374
 5768W        W 9819   9.015   0.928   0.958
 5769W        W 9820  11.280   1.134   9.472
 5770W        W 9821   0.903   4.211   2.245
 5771W        W 9822   8.112   9.250   2.819
 5772W        W 9823   9.478   2.135   1.432
 5773W        W 9824   1.256   7.559  11.851
 5774W        W 9825   2.241   6.136   1.961
 5775W        W 9826   9.430   9.353   1.841
 5776W        W 9827  10.584   6.246  10.762
 5777W        W 9828   9.416   7.026   3.335
 5778W        W 9829   8.595   6.141   1.467
 5779W        W 9830   7.081   6.078   8.209
 5780W        W 9831   0.940   5.322  10.844
 5781W        W 9832   8.942   9.579   2.229
 5782W        W 9833  11.327   7.436   0.304
 5783W        W 9834   8.745   0.427   2.756
 5784W        W 9835   6.648   3.189  10.263
 5785W        W 9836   5.984   9.966   3.450
 5786W        W 9837   5.957   4.583   0.215
 5787W        W 9838   5.730   7.380   3.629
 5788W        W 9839   6.354   8.084  11.833
 5789W        W 9840  11.366   5.745   2.336
 5790W        W 9841  10.813  10.869   0.362
 5791W        W 9842   7.007   3.715  11.808
 5792W        W 9843   6.834   2.277   2.065
 5793W        W 9844   8.159  10.445   0.485
 5794W        W 9845   2.798   1.276   1.741
 5795W        W 9846   8.539   6.676   1.188
 5796W        W 9847   8.044  10.497   2.521
 5797W        W 9848   5.624  10.993   1.632
 5798W        W 9849  11.417   4.742   9.578
 5799W        W 9850   2.877   0.387   9.083
 5800W        W 9851  10.748   4.118  10.542
 5801W        W 9852   3.123   7.144  11.358
 5802W        W 9853   4.649  10.278   2.667
 5803W        W 9854   1.278  10.066   0.917
 5804W        W 9855   5.490   3.661   8.570
 5805W        W 9856   2.306   7.215   0.067
 5806W        W 9857   6.138   9.813  11.832
 5807W        W 9858   4.074   7.532  10.019
 5808W        W 9859   5.238   8.743   4.064
 5809W        W 9860   7.416   1.001   2.886
 5810W        W 9861   0.226   1.361   1.171
 5811W        W 9862   7.146   9.610   9.821
 5812W        W 9863  10.529   2.770  10.462
 5813W        W 9864  11.373   0.727   2.241
 5814W        W 9865   1.261  10.921   3.295
 5815W        W 9866   2.478  10.802   0.700
 5816W        W 9867   0.960   9.568   8.581
 5817W        W 9868   6.726   2.305   8.953
 5818W        W 9869   2.639   0.770  10.797
 5819W        W 9870   4.586   6.198   0.284
 5820W        W 9871   3.429   0.902   0.329
 5821W        W 9872   0.563   9.484  11.800
 5822W        W 9873   5.883   2.266   1.728
 5823W        W 9874   2.790   3.335   9.746
 5824W        W 9875   2.845  10.089  11.441
 5825W        W 9876   5.132   3.301   9.617
 5826W        W 9877   0.252   4.011   8.979
 5827W        W 9878   8.197   3.675  11.499
 5828W        W 9879   6.621   0.145   0.933
 5829W        W 9880   1.791   1.365   0.759
 5830W        W 9881  11.439  10.735   3.777
 5831W        W 9882   0.069   3.853  10.303
 5832W        W 9883  10.235   4.633   3.239
 5833W        W 9884  10.432   7.982   8.954
 5834W        W 9885   5.308   8.038  10.206
 5835W        W 9886   6.970   6.628   0.332
 5836W        W 9887  10.404   6.734  11.521
 5837W        W 9888   6.155   4.563   1.696
 5838W        W 9889  10.526   7.868   1.428
 5839W        W 9890   6.281   7.963  10.042
 5840W        W 9891   4.058   6.435   1.341
 5841W        W 9892   6.717   5.569   0.834
 5842W        W 9893   0.374   0.903   2.973
 5843W        W 9894   3.092   6.226  11.079
 5844W        W 9895   7.268   4.167   0.429
 5845W        W 9896  10.136  10.270   0.287
 5846W        W 9897   6.896   2.177   9.597
 5847W        W 9898  11.039   3.805   2.856
 5848W        W 9899   6.675   0.275  10.248
 5849W        W 9900   1.813   4.380  10.965
 5850W        W 9901  10.844   1.886   9.746
 5851W        W 9902   9.109   7.706   9.284
 5852W        W 9903   0.070   0.061   0.043
 5853W        W 9904   8.278   5.687  11.820
 5854W        W 9905   0.313   9.040   1.234
 5855W        W 9906   4.365   1.750  11.693
 5856W        W 9907   4.197   8.643  10.418
 5857W        W 9908   0.823   4.847  11.467
 5858W        W 9909   6.471   7.189  10.963
 5859W        W 9910   1.759   5.316   8.426
 5860W        W 9911   7.591   0.947   1.576
 5861W        W 9912   7.148   0.151   0.395
 5862W        W 9913   3.511  10.472   9.955
 5863W        W 9914   2.359   0.334   9.066
 5864W        W 9915   9.826  10.124   2.737
 5865W        W 9916   8.227   7.655  11.961
 5866W        W 9917   4.750   6.728   0.688
 5867W        W 9918   9.451   9.299   2.915
 5868W        W 9919  11.083   5.001  10.278
 5869W        W 9920   2.857   4.220   9.813
 5870W        W 9921   3.523   3.064  10.566
 5871W        W 9922  10.915   2.658  11.731
 5872W        W 9923   7.555   1.862   0.335
 5873W        W 9924   7.558   6.677  10.460
 5874W        W 9925   1.903   5.236  10.763
 5875W        W 9926   4.673   9.518  11.722
 5876W        W 9927   7.025   4.324   2.275
 5877W        W 9928   7.079   3.398  10.078
 5878W        W 9929   5.640   5.795   1.002
 5879W        W 9930   2.823   2.848   9.585
 5880W        W 9931  10.602   7.454   1.870
 5881W        W 9932  10.504   4.987   9.483
 5882W        W 9933   7.617  10.423  10.061
 5883W        W 9934   6.276   7.550  11.758
 5884W        W 9935   5.575   8.094  11.753
 5885W        W 9936   9.139   4.152   0.508
 5886W        W 9937  11.259   3.087   9.125
 5887W        W 9938   2.812   8.368  10.144
 5888W        W 9939   7.167   9.234   0.856
 5889W        W 9940   4.208   2.316   9.887
 5890W        W 9941   3.855   6.639   9.884
 5891W        W 9942  11.061   2.714   1.224
 5892W        W 9943   0.225   7.771   2.951
 5893W        W 9944   4.013   1.461  11.964
 5894W        W 9945   5.133   4.650  10.712
 5895W        W 9946   0.292  10.717   0.314
 5896W        W 9947   7.022   7.931  10.905
 5897W        W 9948   1.756   1.790   9.588
 5898W        W 9949  10.205   1.304   3.528
 5899W        W 9950  10.871   9.137   0.533
 5900W        W 9951   8.080   1.553   3.485
 5901W        W 9952   3.632   4.694   8.470
 5902W        W 9953   7.939  10.098  10.577
 5903W        W 9954   5.174   8.069   1.744
 5904W        W 9955   1.799   9.974   2.436
 5905W        W 9956   2.348   1.918   0.404
 5906W        W 9957   6.598   8.180   2.811
 5907W        W 9958   9.848   1.216   1.230
 5908W        W 9959   2.676   3.236   2.739
 5909W        W 9960   8.945   6.858  11.257
 5910W        W 9961   6.155   0.551  11.266
 5911W        W 9962   2.901  10.451   2.884
 5912W        W 9963   9.958  10.842   8.564
 5913W        W 9964   4.627   3.898   0.991
 5914W        W 9965   9.424   9.883   9.906
 5915W        W 9966   5.206   3.745   0.475
 5916W        W 9967   3.278   2.898   0.412
 5917W        W 9968   3.248   1.323   3.857
 5918W        W 9969   0.784  11.190   1.868
 5919W        W 9970   3.722   8.405   0.169
 5920W        W 9971   4.784   8.561  11.407
 5921W        W 9972   9.980  11.342  10.036
 5922W        W 9973   3.772   0.154   8.660
 5923W        W 9974   2.179   9.409   1.666
 5924W        W 9975   9.930   3.772   2.120
 5925W        W 9976  10.897   4.054   9.778
 5926W        W 9977   5.208   7.253   3.181
 5927W        W 9978   5.105   9.472   1.891
 5928W        W 9979   9.065   3.634   2.384
 5929W        W 9980   1.094  10.406   1.678
 5930W        W 9981   1.375   1.430   9.353
 5931W        W 9982   3.339   6.654   3.657
 5932W        W 9983  10.547   7.373   9.439
 5933W        W 9984   6.236   5.592  10.891
 5934W        W 9985  11.321   6.988  11.965
 5935W        W 9986   6.071   5.616   0.758
 5936W        W 9987   4.192   7.932  11.440
 5937W        W 9988   1.266  10.886  11.230
 5938W        W 9989   0.798   3.284  10.536
 5939W        W 9990   4.187   7.823   1.828
 5940W        W 9991   2.954   8.963  11.039
 5941W        W 9992  10.923   1.643   0.449
 5942W        W 9993   4.176   0.190  10.530
 5943W        W 9994   6.381   3.646   2.891
 5944W        W 9995   0.815   7.867   1.039
 5945W        W 9996   1.726   8.945  10.307
 5946W        W 9997   7.322   6.045  11.079
 5947W        W 9998   6.827   7.185   2.751
 5948W        W 9999   8.870   2.235   0.300
 5949W        W10000   2.539   7.821   0.747
 5950W        W10001   6.761   5.484  10.679
 5951W        W10002   9.002   8.082  11.060
 5952W        W10003   3.400   1.813  11.382
 5953W        W10004   8.162   5.392   9.864
 5954W        W10005   0.852  10.699  11.633
 5955W        W10006   2.603   7.555   2.287
 5956W        W10007   2.425   2.898   3.570
 5957W        W10008   1.479   1.198   2.306
 5958W        W10009   4.696   1.963   3.314
 5959W        W10010   5.954   4.687   1.221
 5960W        W10011   8.558  10.409  10.737
 5961W        W10012   2.740   7.415  11.784
 5962W        W10013   8.644   2.823   9.621
 5963W        W10014   7.589   9.883   9.775
 5964W        W10015   4.628   4.291   3.934
 5965W        W10016   4.754   8.828   9.967
 5966W        W10017  11.158   4.311   2.479
 5967W        W10018   8.072  10.517   9.834
 5968W        W10019   1.595   9.961   2.898
 5969W        W10020   1.376  11.435   9.511
 5970W        W10021   2.587   4.130   0.577
 5971W        W10022  10.002   2.077  11.002
 5972W        W10023   4.118  11.210   0.300
 5973W        W10024   8.511   7.619  11.486
 5974W        W10025   7.698   9.574   2.785
 5975W        W10026   3.770   2.464   3.319
 5976W        W10027   7.754   1.503  11.374
 5977W        W10028   7.688   3.119   1.980
 5978W        W10029   9.867   5.402  11.557
 5979W        W10030   2.781   5.264   4.154
 5980W        W10031   8.892   0.503  11.028
 5981W        W10032   4.777   9.942   8.718
 5982W        W10033   6.299   7.028  11.924
 5983W        W10034   9.651   3.339   0.847
 5984W        W10035   0.263   6.938   9.160
 5985W        W10036   9.330   0.219   1.884
 5986W        W10037   8.531   4.658   8.290
 5987W        W10038   9.544   8.640   9.420
 5988W        W10039   2.369   0.475   3.414
 5989W        W10040   2.357   1.408   1.970
 5990W        W10041   6.983   5.655   0.341
 5991W        W10042  10.861   1.697   1.929
 5992W        W10043   0.383   4.236   9.425
 5993W        W10044   5.026  11.342  11.970
 5994W        W10045   6.223   5.278  11.305
 5995W        W10046   5.119  10.455   0.901
 5996W        W10047   9.355   8.012  10.557
 5997W        W10048   0.824  11.084  11.290
 5998W        W10049   6.022   6.945  10.903
 5999W        W10050   8.910   1.819  10.781
 6000W        W10051   8.132   9.091   9.183
 6001W        W10052   7.221   2.236   1.721
 6002W        W10053   0.019   3.823   3.057
 6003W        W10054   8.959   2.120   2.627
 6004W        W10055   3.278   6.208   2.318
 6005W        W10056   7.992   1.919  10.547
 6006W        W10057   8.460   0.787   3.235
 6007W        W10058   5.534   8.048  11.232
 6008W        W10059   3.360   4.496  10.587
 6009W        W10060   4.914   0.152   1.765
 6010W        W10061   8.099   4.934   9.068
 6011W        W10062   6.717   1.365  10.561
 6012W        W10063   6.576   8.983   1.376
 6013W        W10064   0.327   6.553   8.785
 6014W        W10065   7.748   7.080   9.205
 6015W        W10066   8.826   8.500   9.725
 6016W        W10067  10.039  10.718   9.059
 6017W        W10068   6.072   4.164  11.882
 6018W        W10069   7.978   6.827   3.619
 6019W        W10070   9.178   4.798   3.143
 6020W        W10071   9.087   2.774   3.707
 6021W        W10072   5.093   9.965   0.688
 6022W        W10073   3.645   6.608   2.244
 6023W        W10074   3.236   7.186   3.340
 6024W        W10075  10.938  10.986  11.037
 6025W        W10076   1.678  10.402   9.551
 6026W        W10077  10.822   0.583   3.452
 6027W        W10078   6.554   7.497   0.489
 6028W        W10079   5.080  10.941   2.985
 6029W        W10080   5.129   2.316   2.306
 6030W        W10081  10.655   4.081   8.948
 6031W        W10082   2.281   2.803   2.030
 6032W        W10083   9.583   6.943  11.707
 6033W        W10084   3.581   6.862   8.969
 6034W        W10085  11.283  11.177   9.768
 6035W        W10086   3.777   8.869   0.928
 6036W        W10087   6.256   6.822   3.905
 6037W        W10088   5.980   3.402   0.664
 6038W        W10089   7.821   0.761   8.549
 6039W        W10090   3.507   6.541   3.174
 6040W        W10091   2.173   9.143  10.468
 6041W        W10092   5.006   2.422   0.774
 6042W        W10093   8.917   6.204   3.694
 6043W        W10094   2.022   9.410   3.604
 6044W        W10095   6.683  11.364   9.051
 6045W        W10096   1.218   7.865   8.550
 6046W        W10097   7.674   8.198   0.583
 6047W        W10098   4.872  10.734   9.180
 6048W        W10099  10.820   4.559   0.734
 6049W        W10100   6.476   9.055   9.602
 6050W        W10101   7.292   6.677   1.254
 6051W        W10102   2.142   8.247   8.517
 6052W        W10103   0.924   4.551   3.105
 6053W        W10104   4.247   9.095  10.672
 6054W        W10105   0.870   8.737   2.338
 6055W        W10106   1.937   4.683   9.070
 6056W        W10107   2.964   4.287   2.167
 6057W        W10108  11.224   8.909   2.452
 6058W        W10109   3.900   1.053   0.259
 6059W        W10110   2.294   2.775   1.030
 6060W        W10111   7.182  11.250  11.397
 6061W        W10112   9.002   4.953   8.287
 6062W        W10113   9.328   5.802   0.642
 6063W        W10114   9.346   6.169   2.944
 6064W        W10115   6.527  10.318   0.622
 6065W        W10116  10.595   4.389  10.948
 6066W        W10117   1.365  10.265   9.955
 6067W        W10118   5.740   0.887   0.530
 6068W        W10119   8.019  10.955   9.138
 6069W        W10120   8.057   9.528  11.353
 6070W        W10121   9.931   2.892   1.648
 6071W        W10122   0.301  10.860   3.180
 6072W        W10123   8.094   3.133   3.150
 6073W        W10124  10.303   7.463   8.998
 6074W        W10125   6.985   8.001   1.591
 6075W        W10126  11.435   8.334  11.674
 6076W        W10127   5.495   6.941   8.756
 6077W        W10128   7.009  10.349  11.737
 6078W        W10129   4.269   7.965   9.821
 6079W        W10130   8.401   6.136   2.945
 6080W        W10131   4.266   8.968   2.593
 6081W        W10132  11.370   4.285   9.824
 6082W        W10133   0.771   1.742   9.964
 6083W        W10134   7.114   8.368   9.895
 6084W        W10135   6.163   7.614   9.228
 6085W        W10136   1.396   0.246   9.989
 6086W        W10137   5.007  11.184   9.375
 6087W        W10138   7.447   5.709  10.248
 6088W        W10139   6.224   1.912   2.772
 6089W        W10140   2.575   2.143   3.475
 6090W        W10141   7.127   8.143   8.449
 6091W        W10142   4.130   1.685   1.710
 6092W        W10143   1.548   9.245   1.142
 6093W        W10144   8.493   5.425   2.224
 6094W        W10145   0.321   8.379   9.092
 6095W        W10146   8.789   0.427  11.859
 6096W        W10147  10.413   3.621   9.109
 6097W        W10148   6.416  11.417   3.443
 6098W        W10149   1.294   3.787   9.405
 6099W        W10150   5.939   3.476   2.476
 6100W        W10151   9.970   9.783   3.667
 6101W        W10152   4.633   5.738   0.015
 6102W        W10153   9.001   3.731  11.708
 6103W        W10154   8.979   7.101   9.974
 6104W        W10155   9.154  10.017   2.492
 6105W        W10156   6.086   2.443  10.438
 6106W        W10157   2.897   8.450   8.623
 6107W        W10158   9.011   9.844   9.092
 6108W        W10159   8.045   5.967   1.008
 6109W        W10160   5.571   2.817   0.028
 6110W        W10161   0.436   2.256   2.998
 6111W        W10162   6.457   9.517   2.791
 6112W        W10163   5.589   3.313  11.821
 6113W        W10164   3.523   1.415   0.209
 6114W        W10165   8.817   6.177   2.220
 6115W        W10166   4.562   8.547   2.433
 6116W        W10167   0.776   9.981   3.090
 6117W        W10168   5.571   9.285   0.991
 6118W        W10169   3.738   6.146   4.069
 6119W        W10170  10.112  10.785   2.391
 6120W        W10171   0.251  11.362   9.792
 6121W        W10172   6.053   7.604   9.747
 6122W        W10173   2.758   5.172   8.592
 6123W        W10174   2.396   5.744   0.730
 6124W        W10175   5.638   1.814  10.003
 6125W        W10176   6.518   0.727   2.247
 6126W        W10177   1.273   9.182   8.442
 6127W        W10178   8.180   8.666  10.952
 6128W        W10179   3.660   4.825  10.359
 6129W        W10180  11.066   6.988   0.441
 6130W        W10181   2.499   5.248   1.497
 6131W        W10182   4.756   2.321   3.687
 6132W        W10183   9.475   3.121   0.413
 6133W        W10184   7.431   9.529   1.518
 6134W        W10185  10.472   4.038   9.431
 6135W        W10186   8.491   5.702   1.196
 6136W        W10187   4.668   9.550   2.201
 6137W        W10188   8.897  11.275  11.478
 6138W        W10189   6.601  10.023  11.869
 6139W        W10190   2.458   5.267   1.991
 6140W        W10191   7.481   1.684  10.086
 6141W        W10192   9.583   5.169   2.001
 6142W        W10193   7.130  11.343  11.927
 6143W        W10194   7.859   2.322   0.372
 6144W        W10195   0.389   2.604  11.558
 6145W        W10196   8.548   6.583   0.370
 6146W        W10197   0.765   1.832   2.830
 6147W        W10198   0.890   8.095  10.295
 6148W        W10199   1.819   0.981  11.791
 6149W        W10200   4.084   9.422   9.480
 6150W        W10201   4.339   9.834   1.354
 6151W        W10202   6.207  11.401   2.176
 6152W        W10203   1.697  10.643  11.167
 6153W        W10204  10.548   9.958   0.286
 6154W        W10205   3.991   6.577   3.373
 6155W        W10206  11.141   3.034   0.427
 6156W        W10207   1.700   6.201  10.769
 6157W        W10208  10.924   8.571   9.884
 6158W        W10209  10.624  10.492   3.098
 6159W        W10210   5.310   2.195   1.163
 6160W        W10211   4.391   4.406   0.729
 6161W        W10212   6.910   2.890  10.800
 6162W        W10213   9.533  11.091   2.666
 6163W        W10214   6.863   3.827   9.924
 6164W        W10215   9.870   3.896   3.090
 6165W        W10216   6.010   2.776   2.392
 6166W        W10217   4.791   0.488   0.369
 6167W        W10218   1.815   1.172   0.280
 6168W        W10219   9.079   4.812   1.832
 6169W        W10220  10.293   0.358   1.882
 6170W        W10221   7.973   7.212   0.856
 6171W        W10222   6.953  10.904   3.133
 6172W        W10223   6.188   7.927  10.545
 6173W        W10224   9.448   9.491  10.433
 6174W        W10225   3.869   9.858   9.326
 6175W        W10226   8.565   8.051   9.940
 6176W        W10227   3.375   0.928  11.410
 6177W        W10228   3.878   5.899   8.733
 6178W        W10229   8.531   9.003   8.862
 6179W        W10230   7.100   4.168   1.360
 6180W        W10231  11.460  11.039   1.869
 6181W        W10232   3.844   8.801   2.792
 6182W        W10233   0.860   0.544   9.361
 6183W        W10234   8.886   0.814   1.457
 6184W        W10235   4.175   1.856  10.694
 6185W        W10236   6.404  10.291   1.109
 6186W        W10237   0.943  10.166   2.108
 6187W        W10238   6.945  10.460  10.355
 6188W        W10239   7.783   2.282   1.748
 6189W        W10240   4.657   1.635   1.722
 6190W        W10241   0.906   8.902   1.860
 6191W        W10242   5.039   3.753   2.320
 6192W        W10243   4.652   0.151   9.046
 6193W        W10244   8.178   3.708  10.524
 6194W        W10245  10.788   6.415  11.589
 6195W        W10246  10.784   6.008   8.698
 6196W        W10247   1.849   9.362   0.328
 6197W        W10248   7.289  10.521   0.718
 6198W        W10249   7.432   6.606   1.966
 6199W        W10250  11.399   3.456   0.177
 6200W        W10251   9.196  10.718   2.596
 6201W        W10252   7.400   9.586  11.385
 6202W        W10253   2.331   8.083  10.243
 6203W        W10254  11.471   4.310  11.228
 6204W        W10255   4.487   3.720   3.291
 6205W        W10256   8.855   4.230   0.923
 6206W        W10257   9.080   1.755   9.264
 6207W        W10258   1.333   2.362  10.675
 6208W        W10259   3.074   0.805   4.001
 6209W        W10260  11.066   6.021   1.968
 6210W        W10261   8.053   4.556   1.678
 6211W        W10262   6.762  10.003   9.149
 6212W        W10263   2.159   0.454  10.411
 6213W        W10264   2.350   2.831   1.530
 6214W        W10265   3.358   9.871  11.005
 6215W        W10266   5.068  10.355   8.832
 6216W        W10267   5.610   7.417   2.923
 6217W        W10268  11.182   4.003   8.923
 6218W        W10269   8.945   7.078   9.069
 6219W        W10270   1.508   7.318   1.403
 6220W        W10271   9.489   0.533   2.275
 6221W        W10272  10.978   5.269   0.928
 6222W        W10273   7.445   4.147   3.694
 6223W        W10274   5.085   9.548  10.567
 6224W        W10275   9.515   7.108   8.822
 6225W        W10276   9.404   8.874   2.459
 6226W        W10277  10.113   7.633   9.467
 6227W        W10278   4.644  10.719   0.828
 6228W        W10279  11.318   1.787   2.166
 6229W        W10280   7.286   6.772  10.020
 6230W        W10281   5.486   1.959  11.018
 6231W        W10282   6.587   9.518   0.032
 6232W        W10283   8.124   8.844   2.468
 6233W        W10284   7.088   7.490   1.813
 6234W        W10285   4.185   6.139   0.656
 6235W        W10286  10.783   3.969   2.405
 6236W        W10287   4.759   3.472  11.284
 6237W        W10288   9.350   5.056   9.513
 6238W        W10289  11.048   8.391   1.701
 6239W        W10290   7.907   8.272   1.779
 6240W        W10291   3.021   6.707   3.251
 6241W        W10292   0.893   9.644   3.456
 6242W        W10293  10.754   9.770   2.784
 6243W        W10294   2.231   5.752   2.746
 6244W        W10295   1.243   3.326   0.572
 6245W        W10296   3.410   2.880   1.297
 6246W        W10297   9.566   6.607   8.725
 6247W        W10298   7.461   6.221   1.633
 6248W        W10299  10.441   9.971  11.387
 6249W        W10300   2.556  10.432   9.195
 6250W        W10301   0.658   7.878  11.365
 6251W        W10302  11.372  10.318  10.644
 6252W        W10303   8.898  10.955  11.901
 6253W        W10304   4.702   6.769   2.031
 6254W        W10305   3.663   0.100   1.774
 6255W        W10306   8.965   3.570   3.380
 6256W        W10307   7.069   1.191   0.332
 6257W        W10308   4.654   9.331   3.059
 6258W        W10309   3.193  10.880   9.859
 6259W        W10310   3.976   5.820   9.954
 6260W        W10311   5.885   4.149   1.911
 6261W        W10312   5.497   9.848  10.472
 6262W        W10313   3.624   8.926   1.434
 6263W        W10314  11.411   0.240   9.025
 6264W        W10315   2.834   7.915  10.393
 6265W        W10316  11.040   1.685   8.786
 6266W        W10317   2.164   4.408   1.957
 6267W        W10318   9.395   7.182   8.318
 6268W        W10319   4.216   4.176   9.887
 6269W        W10320   1.383   9.967  10.744
 6270W        W10321   7.664   3.764   0.339
 6271W        W10322   9.402   6.202  10.007
 6272W        W10323  11.122   8.877   1.903
 6273W        W10324   8.648  10.857  11.326
 6274W        W10325   4.813   1.277   9.785
 6275W        W10326   7.543   4.510   2.358
 6276W        W10327   4.951   4.562   0.220
 6277W        W10328   9.147   1.314   9.528
 6278W        W10329  10.740   9.166  10.475
 6279W        W10330   0.618   7.866   3.657
 6280W        W10331   0.688   3.186   8.615
 6281W        W10332   2.147   8.429  11.261
 6282W        W10333  11.430  10.829  10.627
 6283W        W10334   5.007   3.547  10.042
 6284W        W10335   7.689   5.972  11.934
 6285W        W10336   4.323  11.458   1.234
 6286W        W10337   0.364   7.645  10.979
 6287W        W10338   1.657   7.453  10.494
 6288W        W10339   6.254   7.612   8.704
 6289W        W10340   7.118   8.672  10.307
 6290W        W10341   5.625  11.461   9.911
 6291W        W10342   8.530   1.931  10.436
 6292W        W10343   3.027  11.405  11.626
 6293W        W10344  11.015   2.165  10.166
 6294W        W10345   1.741   6.884   1.733
 6295W        W10346   3.397   0.244   9.901
 6296W        W10347  10.887   3.079   8.754
 6297W        W10348   8.403   1.798  11.963
 6298W        W10349   1.911   8.560   8.940
 6299W        W10350   4.152   7.457   2.242
 6300W        W10351   7.237   1.250   9.922
 6301W        W10352   4.220  11.028   9.811
 6302W        W10353   5.769   6.722  11.493
 6303W        W10354   5.161   5.546   0.755
 6304W        W10355   6.785   3.420   1.072
 6305W        W10356   0.526   5.168   2.525
 6306W        W10357  10.878  11.375   9.527
 6307W        W10358   7.480   9.614  11.936
 6308W        W10359   8.909   6.936   3.299
 6309W        W10360   9.440   0.849   2.856
 6310W        W10361   2.175   7.147   1.855
 6311W        W10362  10.976   5.128   1.912
 6312W        W10363   4.515   0.780   2.914
 6313W        W10364   0.273  10.513   9.286
 6314W        W10365   2.934   6.738  10.344
 6315W        W10366   1.976   4.787   8.531
 6316W        W10367   0.999  10.458   3.229
 6317W        W10368   9.820  10.980   9.431
 6318W        W10369   1.893   9.577  10.065
 6319W        W10370  11.330   2.698   0.057
 6320W        W10371   8.410   6.397   9.596
 6321W        W10372   8.059  10.938   8.626
 6322W        W10373   8.354   8.013   1.781
 6323W        W10374   2.174   6.745   3.137
 6324W        W10375   1.157   5.817   9.154
 6325W        W10376   2.728   5.084   9.526
 6326W        W10377   3.152   0.397  11.448
 6327W        W10378   1.785   5.977   0.185
 6328W        W10379   6.204  11.251   0.173
 6329W        W10380   0.474   9.940   1.334
 6330W        W10381   1.219  10.397  11.385
 6331W        W10382   0.425   5.261   3.500
 6332W        W10383   6.260   1.095   0.213
 6333W        W10384   0.025   1.319   2.841
 6334W        W10385   3.160  10.981   8.907
 6335W        W10386   5.561  11.456  10.827
 6336W        W10387   3.759  10.739   0.840
 6337W        W10388   5.073   5.050   0.028
 6338W        W10389   0.919   6.278   9.026
 6339W        W10390   0.790  10.155   3.584
 6340W        W10391   9.169   2.139  10.081
 6341W        W10392   0.222   5.629  11.218
 6342W        W10393   9.893   2.882   0.627
 6343W        W10394   8.514   8.506   3.023
 6344W        W10395  10.441   1.470   0.494
 6345W        W10396   6.118   6.917   0.400
 6346W        W10397   4.644  10.608   2.252
 6347W        W10398   1.802   7.244   9.779
 6348W        W10399  10.281   9.119   3.184
 6349W        W10400   9.951   1.810   9.281
 6350W        W10401   4.618  11.299  10.044
 6351W        W10402   7.021   1.056   8.889
 6352W        W10403   8.826   5.296   2.748
 6353W        W10404   2.665   1.728   3.188
 6354W        W10405   3.117   3.346   8.857
 6355W        W10406   0.817   4.837   9.987
 6356W        W10407   9.859   5.674  11.116
 6357W        W10408   2.674   9.567   8.929
 6358W        W10409   2.750   7.522   8.285
 6359W        W10410   3.151   6.257   0.791
 6360W        W10411   4.079   5.145   2.553
 6361W        W10412  10.364   7.924   1.912
 6362W        W10413   8.990   4.704   0.786
 6363W        W10414   7.092  10.317   1.949
 6364W        W10415   5.201   1.676   0.270
 6365W        W10416   7.045   2.453   0.800
 6366W        W10417   4.408   9.579   9.843
 6367W        W10418   5.688   3.590   1.176
 6368W        W10419   3.247   2.133   0.873
 6369W        W10420   2.333   8.923   0.947
 6370W        W10421  10.871   1.765  11.914
 6371W        W10422   7.907   8.898   8.745
 6372W        W10423   4.119   6.163  11.607
 6373W        W10424   2.032   9.317  10.944
 6374W        W10425   0.684   8.845   0.029
 6375W        W10426   7.376   5.550  11.980
 6376W        W10427   3.322   5.773   0.853
 6377W        W10428   0.460   6.194   2.214
 6378W        W10429   0.463   6.091  11.258
 6379W        W10430   1.796   6.030   1.175
 6380W        W10431   8.618   3.745   9.548
 6381W        W10432   9.619   5.257   9.898
 6382W        W10433   0.340   7.479   3.429
 6383W        W10434  10.518   0.446  11.181
 6384W        W10435  11.087   6.960   1.268
 6385W        W10436   3.431  10.019   0.447
 6386W        W10437   0.452   2.172   0.737
 6387W        W10438   3.474   5.244  10.180
 6388W        W10439   1.824   1.867   2.207
 6389W        W10440  10.791   7.039   3.561
 6390W        W10441   6.355   3.651  10.101
 6391W        W10442   0.800  10.594   8.522
 6392W        W10443   7.185   8.449   1.428
 6393W        W10444   3.355   4.412   0.568
 6394W        W10445   4.532   6.717  10.444
 6395W        W10446   6.483   4.688  10.984
 6396W        W10447   9.353  11.395   8.917
 6397W        W10448   8.378   7.417   3.263
 6398W        W10449  10.823   0.826   2.896
 6399W        W10450   9.510   9.179  11.404
 6400W        W10451   9.911   5.740   1.469
 6401W        W10452  10.707   7.643   0.985
 6402W        W10453   8.938  10.399  11.303
 6403W        W10454   5.232   1.655  10.287
 6404W        W10455   6.832   3.213   3.461
 6405W        W10456   0.226   5.542   8.909
 6406W        W10457   1.668   5.789  11.737
 6407W        W10458   8.997   0.312   2.280
 6408W        W10459   2.143   5.673   1.202
 6409W        W10460   1.461   2.371   0.579
 6410W        W10461  10.408   8.082   9.461
 6411W        W10462   0.455   0.775  10.983
 6412W        W10463  11.072  11.071   0.751
 6413W        W10464   1.913   2.734   0.705
 6414W        W10465   7.120  11.290  10.895
 6415W        W10466  10.260   9.598   0.917
 6416W        W10467   7.862   2.787  10.852
 6417W        W10468   5.562   6.205   0.653
 6418W        W10469   9.453   3.095   1.794
 6419W        W10470   6.038   8.479   8.982
 6420W        W10471   0.001   6.086  11.457
 6421W        W10472  10.932   0.453  11.557
 6422W        W10473   9.231   9.328   0.801
 6423W        W10474   5.146   9.427   0.521
 6424W        W10475   6.223   8.643   3.145
 6425W        W10476   5.555   4.532  10.974
 6426W        W10477   5.463   0.754   1.501
 6427W        W10478   9.292   2.299   2.979
 6428W        W10479   1.278   8.418   2.366
 6429W        W10480   4.248   3.108  11.953
 6430W        W10481   1.006   2.182   9.854
 6431W        W10482   1.826   7.805   0.375
 6432W        W10483   4.073   2.238   0.375
 6433W        W10484   2.817   8.513   9.124
 6434W        W10485   8.591  10.811   1.439
 6435W        W10486   7.931   8.896  10.577
 6436W        W10487   8.609   8.092   0.667
 6437W        W10488   7.001   7.938   2.088
 6438W        W10489   7.206   1.923   2.145
 6439W        W10490  11.262   3.244   2.285
 6440W        W10491   8.485   2.913   2.275
 6441W        W10492   4.218   9.564   3.253
 6442W        W10493   3.080   4.234   9.349
 6443W        W10494  10.413   1.630   9.456
 6444W        W10495   9.912   2.597  10.787
 6445W        W10496   2.812   9.699  10.431
 6446W        W10497   0.615   8.172   8.700
 6447W        W10498   3.712   8.687   8.224
 6448W        W10499   2.309   5.928  11.412
 6449W        W10500  11.427   7.983  10.326
 6450W        W10501  10.561   2.637  11.352
 6451W        W10502   3.923   9.575   9.952
 6452W        W10503   2.373   4.366   2.733
 6453W        W10504  11.278   6.524  11.755
 6454W        W10505  10.769  10.255   2.679
 6455W        W10506   9.317   5.257   2.912
 6456W        W10507   0.283   6.958   3.455
 6457W        W10508   5.504   0.287   9.141
 6458W        W10509   3.207   7.628   9.464
 6459W        W10510  11.479  10.765  11.549
 6460W        W10511   8.170   9.929   8.500
 6461W        W10512   1.088   1.891   1.894
 6462W        W10513   5.154   4.137  11.602
 6463W        W10514   5.689   5.241   2.269
 6464W        W10515   1.323   2.668   2.510
 6465W        W10516   9.970   1.266  10.536
 6466W        W10517   9.845   0.710  10.048
 6467W        W10518   4.042   8.463   2.449
 6468W        W10519   8.836   0.551   0.338
 6469W        W10520   8.975   4.597  10.459
 6470W        W10521   4.972   2.130   2.769
 6471W        W10522   8.227  10.028  11.406
 6472W        W10523  10.707   9.474   0.176
 6473W        W10524   1.541   0.677  10.862
 6474W        W10525   7.430   6.570  10.944
 6475W        W10526   8.515   6.528   3.678
 6476W        W10527   3.886   3.018   3.167
 6477W        W10528   9.429   0.151  11.799
 6478W        W10529   8.390   8.599  11.440
 6479W        W10530   4.760   5.695   1.044
 6480W        W10531   0.702  10.417   2.808
 6481W        W10532  10.483   6.518   8.810
 6482W        W10533   0.470   3.669   0.676
 6483W        W10534   0.679   2.174   9.438
 6484W        W10535   1.251   0.747   2.369
 6485W        W10536  10.559   9.292  11.708
 6486W        W10537   4.907   8.303   3.370
 6487W        W10538   7.609   7.526   9.903
 6488W        W10539   1.689   1.956  10.928
 6489W        W10540   4.639   7.543   0.115
 6490W        W10541   0.805  10.191  11.650
 6491W        W10542   2.119   3.334   0.710
 6492W        W10543   0.467  11.417   1.451
 6493W        W10544   1.856   5.525  11.330
 6494W        W10545   4.932   4.087   1.951
 6495W        W10546   3.774   7.043   1.000
 6496W        W10547  10.630   5.843   2.851
 6497W        W10548   8.208   4.372   0.294
 6498W        W10549   0.804   8.877   9.725
 6499W        W10550   7.402  11.356   3.164
 6500W        W10551   9.118   1.875   0.628
 6501W        W10552   9.575  11.234   3.185
 6502W        W10553   2.734   7.666   1.190
 6503W        W10554   6.972   5.017   1.654
 6504W        W10555  11.386   3.410   0.684
 6505W        W10556   2.472   7.093   1.083
 6506W        W10557   0.304   0.667   0.645
 6507W        W10558   5.237   9.957   9.627
 6508W        W10559   3.604   3.038   1.904
 6509W        W10560   5.645   5.334   0.805
 6510W        W10561   7.400   9.419   2.401
 6511W        W10562   1.484   2.315  10.196
 6512W        W10563   3.617   6.546   8.562
 6513W        W10564   2.070   7.441   2.369
 6514W        W10565  11.278  10.002   2.710
 6515W        W10566   4.569   1.374   2.233
 6516W        W10567   6.961   4.191   0.016
 6517W        W10568   0.729   5.356   9.972
 6518W        W10569   6.685   1.696  11.192
 6519W        W10570   8.631  11.396   3.163
 6520W        W10571   7.139   1.992   0.625
 6521W        W10572   1.445   0.717   0.038
 6522W        W10573   7.764   9.916  11.216
 6523W        W10574   4.107   0.456  11.983
 6524W        W10575   8.074   8.195   9.964
 6525W        W10576   0.328   6.497   3.782
 6526W        W10577   4.542   5.737  11.497
 6527W        W10578   4.022  10.530   9.759
 6528W        W10579   5.659   2.339  10.741
 6529W        W10580   8.855   9.303   9.275
 6530W        W10581   1.857   6.975   2.238
 6531W        W10582   0.401  10.821  11.822
 6532W        W10583   3.053  10.865  11.273
 6533W        W10584   0.797   9.963  10.561
 6534W        W10585   2.545   5.369   8.151
 6535W        W10586   6.632   6.703  11.292
 6536W        W10587   3.193   3.280  10.925
 6537W        W10588  10.836  10.295  11.773
 6538W        W10589   1.300  11.177   2.784
 6539W        W10590   3.762  10.959  10.520
 6540W        W10591   7.584   1.975  11.397
 6541W        W10592   4.046  11.447  11.815
 6542W        W10593   0.878   0.846   1.317
 6543W        W10594   1.880   8.631   9.472
 6544W        W10595   3.630   6.173   0.988
 6545W        W10596   9.778   1.696  10.742
 6546W        W10597   3.280   5.602  11.966
 6547W        W10598   0.591   7.256   2.158
 6548W        W10599   5.803   6.999   2.660
 6549W        W10600   9.769  11.412  11.496
 6550W        W10601   5.280   6.708   1.368
 6551W        W10602   6.228   4.147   4.116
 6552W        W10603   1.555   5.961  11.264
 6553W        W10604   6.563   6.917   1.219
 6554W        W10605   7.140   7.649  10.429
 6555W        W10606   6.524   7.738  10.978
 6556W        W10607   4.201  10.981   2.986
 6557W        W10608   7.083   0.827  10.800
 6558W        W10609   5.950  11.493   9.465
 6559W        W10610   5.869   9.530   9.848
 6560W        W10611   3.802   8.959   2.313
 6561W        W10612   4.161   6.256   3.752
 6562W        W10613   1.277   2.792   0.370
 6563W        W10614  10.548   2.380  10.036
 6564W        W10615   0.343  11.468   2.783
 6565W        W10616   0.348   7.251   1.693
 6566W        W10617   3.175   2.112  11.962
 6567W        W10618   2.897   2.800  11.411
 6568W        W10619   5.441   9.228   3.204
 6569W        W10620   9.957   8.383   2.385
 6570W        W10621  10.852  11.153   1.665
 6571W        W10622   1.743   9.154   3.194
 6572W        W10623   2.328  11.089  10.465
 6573W        W10624   7.476   0.964   0.572
 6574W        W10625   1.639   1.311  11.430
 6575W        W10626   6.663   3.142   2.462
 6576W        W10627   2.152   6.569   8.664
 6577W        W10628   2.852   6.238  10.608
 6578W        W10629   4.189   3.538  10.756
 6579W        W10630   6.445   3.184   8.470
 6580W        W10631   2.298   2.460  10.560
 6581W        W10632   1.602   7.034   9.373
 6582W        W10633  11.247   7.620   2.700
 6583W        W10634   9.267   0.680   0.565
 6584W        W10635   1.741   8.663   2.270
 6585W        W10636   5.118  11.304   9.875
 6586W        W10637   2.211   9.471   9.142
 6587W        W10638  10.006   3.332   1.885
 6588W        W10639   8.776   3.341  11.959
 6589W        W10640   4.245   0.073   9.854
 6590W        W10641   9.875   2.440   1.884
 6591W        W10642  10.954   8.165   0.740
 6592W        W10643   9.739   0.701   0.366
 6593W        W10644   5.170   5.979   0.998
 6594W        W10645   7.735   4.570   9.018
 6595W        W10646   3.237   2.635   0.865
 6596W        W10647   5.215   6.081  10.326
 6597W        W10648  10.013   8.143  11.786
 6598W        W10649   6.116   0.954   0.882
 6599W        W10650   1.931   3.400  10.956
 6600W        W10651  10.210   6.082   0.766
 6601W        W10652   8.993   7.854  11.527
 6602W        W10653   1.385   1.946   3.299
 6603W        W10654   6.557   8.645   1.817
 6604W        W10655   6.304   7.176   8.965
 6605W        W10656  10.800   0.760   9.060
 6606W        W10657   2.758   8.855   9.528
 6607W        W10658  11.252   8.580   0.704
 6608W        W10659   3.549   4.100   0.945
 6609W        W10660   4.048   6.182   0.133
 6610W        W10661   4.392   1.775   0.701
 6611W        W10662   6.189   0.290  10.802
 6612W        W10663   4.096  11.454   0.781
 6613W        W10664   7.610   8.909   0.631
 6614W        W10665   2.012   3.009  11.738
 6615W        W10666   8.149   2.841  10.397
 6616W        W10667   1.301   3.602  11.694
 6617W        W10668   4.536   3.416  10.399
 6618W        W10669   4.887   7.128  11.397
 6619W        W10670   5.648   6.325  10.161
 6620W        W10671   7.467   3.872   1.584
 6621W        W10672   0.150   5.659   0.604
 6622W        W10673  10.283   8.583  10.083
 6623W        W10674   7.189   3.114   1.981
 6624W        W10675   6.009   2.369   9.492
 6625W        W10676   4.611   1.448   9.362
 6626W        W10677   4.476   4.702   3.241
 6627W        W10678  10.086   7.458  10.314
 6628W        W10679  10.058  10.920   0.809
 6629W        W10680  11.348   5.256  11.093
 6630W        W10681   4.804   1.321  10.306
 6631W        W10682   0.859   3.495   9.523
 6632W        W10683   5.765   4.369   0.682
 6633W        W10684  10.174   7.524   1.628
 6634W        W10685   8.703   1.256   9.764
 6635W        W10686   3.248   8.595   0.230
 6636W        W10687   5.917   1.642  11.041
 6637W        W10688   5.040   1.817   4.147
 6638W        W10689   7.003   1.305   1.203
 6639W        W10690   7.871   5.224   9.454
 6640W        W10691   0.457   3.771   2.813
 6641W        W10692   8.081  11.379  10.875
 6642W        W10693   1.912   5.245   8.946
 6643W        W10694   1.355   2.820  10.343
 6644W        W10695   8.151  11.332   9.981
 6645W        W10696   9.279   0.401   3.246
 6646W        W10697   0.430  11.221   0.172
 6647W        W10698   8.655  11.292  10.217
 6648W        W10699   2.698   6.556   8.752
 6649W        W10700  10.531   0.701  10.662
 6650W        W10701   5.757   7.710   4.074
 6651W        W10702   3.331   3.322  11.411
 6652W        W10703   4.091  10.362  10.801
 6653W        W10704   9.007   3.333   9.062
 6654W        W10705   6.194   5.698   2.734
 6655W        W10706   4.977   8.121   9.186
 6656W        W10707   9.256   5.937  10.419
 6657W        W10708  10.359   4.146   3.121
 6658W        W10709   3.423   7.407   2.902
 6659W        W10710   7.634   2.114  11.892
 6660W        W10711   3.116   1.378  11.362
 6661W        W10712  10.755  11.274   9.050
 6662W        W10713  10.446   0.887   3.271
 6663W        W10714   4.122   1.253  10.386
 6664W        W10715   5.890  10.907   2.459
 6665W        W10716   2.029  10.348   9.189
 6666W        W10717   1.371   3.717  10.681
 6667W        W10718   1.745   4.624   0.422
 6668W        W10719   4.231   1.215   1.856
 6669W        W10720   9.024   8.975   9.846
 6670W        W10721   1.298   4.576  10.814
 6671W        W10722   4.250   2.774   1.558
 6672W        W10723   0.725   4.147   1.207
 6673W        W10724   9.348  10.498   3.764
 6674W        W10725  10.717   6.066   1.575
 6675W        W10726   2.111  10.607   1.810
 6676W        W10727  11.231   0.679   3.169
 6677W        W10728   0.545   1.851  11.166
 6678W        W10729   1.853   9.970   1.535
 6679W        W10730   7.600   6.221  10.189
 6680W        W10731   4.366   6.649  11.811
 6681W        W10732   0.071   1.678  11.225
 6682W        W10733   7.613  10.324  10.953
 6683W        W10734   7.590   8.018  10.653
 6684W        W10735   3.797   5.009   9.319
 6685W        W10736   5.124   0.304   1.313
 6686W        W10737   1.236   5.939  10.862
 6687W        W10738   9.783   8.971   3.255
 6688W        W10739   7.645   5.488   0.912
 6689W        W10740   2.205   8.804   2.458
 6690W        W10741   7.557   1.905   9.215
 6691W        W10742   9.301   4.833  10.048
 6692W        W10743   7.165   7.465   9.052
 6693W        W10744  10.927  10.889   3.014
 6694W        W10745   7.977   2.350   9.714
 6695W        W10746   3.706   6.623  10.808
 6696W        W10747   7.872  10.988   3.323
 6697W        W10748   3.923  10.280  11.341
 6698W        W10749   5.393   8.463  10.946
 6699W        W10750   0.586   9.072  10.191
 6700W        W10751   0.265   3.186   2.285
 6701W        W10752   6.063   2.559  10.949
 6702W        W10753  10.618   8.401   1.347
 6703W        W10754   3.213  11.478   9.181
 6704W        W10755  10.140   4.240   9.100
 6705W        W10756   6.792   1.806   2.417
 6706W        W10757   0.802   4.571  10.465
 6707W        W10758   5.769   2.844   2.833
 6708W        W10759   9.956   2.717   0.154
 6709W        W10760   3.923   7.273   2.879
 6710W        W10761  10.130   0.351   3.538
 6711W        W10762   7.381   1.049   2.375
 6712W        W10763   7.956   3.306  11.120
 6713W        W10764   0.803   7.391   0.802
 6714W        W10765   1.872   3.100  10.147
 6715W        W10766   1.801   6.430   0.404
 6716W        W10767   5.565   1.893  11.991
 6717W        W10768   2.363   9.583  10.651
 6718W        W10769   6.176   2.498  11.496
 6719W        W10770   4.524   6.113   1.286
 6720W        W10771   4.763  11.478   0.396
 6721W        W10772   9.046   7.388  10.389
 6722W        W10773   1.651  11.003  11.541
 6723W        W10774   4.165   9.519  11.495
 6724W        W10775   6.264   8.722   2.217
 6725W        W10776   3.640   0.898  10.408
 6726W        W10777   0.942   6.277  11.828
 6727W        W10778   8.819   7.612   8.846
 6728W        W10779   5.358   4.446   0.983
 6729W        W10780   9.970   3.255   8.728
 6730W        W10781   8.066   1.923  11.570
 6731W        W10782   9.624   9.520   3.365
 6732W        W10783   5.632   4.609   1.932
 6733W        W10784   5.837   7.065   9.159
 6734W        W10785   3.408   1.933   2.171
 6735W        W10786   8.435   5.949   9.878
 6736W        W10787   8.357   8.397   9.552
 6737W        W10788   0.227   4.062   1.359
 6738W        W10789   6.126   1.600   9.060
 6739W        W10790   4.780   7.978   1.144
 6740W        W10791   8.932   9.130   3.532
 6741W        W10792   9.994   7.969   1.501
 6742W        W10793   6.831  10.898   2.203
 6743W        W10794   9.422   3.353   8.728
 6744W        W10795   8.658   0.140   3.697
 6745W        W10796   2.951   0.722   0.306
 6746W        W10797   6.025   2.147   9.946
 6747W        W10798   4.947   2.627   1.781
 6748W        W10799   7.051   8.675   9.508
 6749W        W10800   7.798  10.374  11.436
 6750W        W10801   5.681   0.765   2.725
 6751W        W10802  11.387   5.183   9.895
 6752W        W10803   7.433  10.037  11.605
 6753W        W10804   7.114  11.186   1.311
 6754W        W10805  11.422   3.824  11.373
 6755W        W10806   9.868  10.000  11.931
 6756W        W10807   7.122   8.901   0.476
 6757W        W10808   2.176   4.968  11.735
 6758W        W10809   4.750   8.934   2.759
 6759W        W10810   2.703   9.506   1.688
 6760W        W10811  10.753   7.714   2.278
 6761W        W10812   1.748   2.678   9.871
 6762W        W10813   5.379   9.381   9.892
 6763W        W10814   2.313  10.001  11.416
 6764W        W10815  11.438   8.114   0.917
 6765W        W10816   8.208   1.215   0.634
 6766W        W10817   9.972   7.591   0.325
 6767W        W10818   5.074   7.236  10.886
 6768W        W10819   3.547   6.898   2.804
 6769W        W10820   8.625   3.026   1.250
 6770W        W10821   7.784   3.609   1.267
 6771W        W10822   1.372   7.160  11.543
 6772W        W10823   0.897   3.792   0.407
 6773W        W10824   2.790   2.854   0.988
 6774W        W10825  10.313  11.010  11.864
 6775W        W10826   6.505   2.358  10.756
 6776W        W10827   9.447   6.951   9.692
 6777W        W10828   4.770   9.904  10.966
 6778W        W10829   6.574   0.792   3.871
 6779W        W10830  10.538   7.294   1.348
 6780W        W10831  11.339   0.154   9.558
 6781W        W10832   5.194   9.001  10.744
 6782W        W10833   2.342   1.949  10.533
 6783W        W10834   5.079   9.306   2.407
 6784W        W10835   3.151   5.114   3.798
 6785W        W10836  11.300   5.278   0.509
 6786W        W10837   8.164   5.981   8.455
 6787W        W10838   9.734   0.533   1.806
 6788W        W10839  10.478   3.860  10.885
 6789W        W10840   1.189   6.680   8.699
 6790W        W10841   2.123   7.600   3.676
 6791W        W10842   4.497   1.449  10.682
 6792W        W10843   6.050   7.524  10.240
 6793W        W10844   2.705   7.524   9.340
 6794W        W10845   4.367  10.725   9.388
 6795W        W10846   4.799   7.135  10.337
 6796W        W10847   7.910  10.335   1.567
 6797W        W10848   7.984   1.230   1.420
 6798W        W10849   7.127   6.775   2.707
 6799W        W10850   9.153   8.432   1.274
 6800W        W10851   5.774   2.630   0.458
 6801W        W10852   1.885   2.158  10.495
 6802W        W10853   3.016   2.511  11.017
 6803W        W10854  10.418   7.452   3.006
 6804W        W10855  11.055   0.406   1.405
 6805W        W10856   5.930   4.309  11.374
 6806W        W10857   7.497   5.351   1.370
 6807W        W10858   7.198   9.416   2.884
 6808W        W10859   9.356   8.873   1.505
 6809W        W10860   5.657  10.755   3.459
 6810W        W10861   7.893   2.351   9.211
 6811W        W10862   3.671   7.057   0.027
 6812W        W10863   2.260  11.085   1.855
 6813W        W10864  11.414   0.501   0.945
 6814W        W10865   3.275   8.888   1.032
 6815W        W10866   7.351   7.010   8.829
 6816W        W10867   8.903   7.629   9.958
 6817W        W10868  10.520   9.059   8.711
 6818W        W10869   4.832   6.644  11.271
 6819W        W10870   0.393   4.876   1.632
 6820W        W10871   2.422   6.447  11.500
 6821W        W10872   9.455   9.809   2.926
 6822W        W10873   8.816   5.746  11.912
 6823W        W10874  10.882   0.366   9.408
 6824W        W10875   5.007   7.485   0.948
 6825W        W10876   2.353  10.320   0.925
 6826W        W10877  10.318   6.305   1.293
 6827W        W10878   5.302   9.818   0.234
 6828W        W10879  11.269   4.691   3.286
 6829W        W10880   5.226   0.799  11.767
 6830W        W10881   5.147   2.646   3.620
 6831W        W10882   5.747   4.121  10.746
 6832W        W10883   9.371  10.317   2.884
 6833W        W10884   1.843   7.799   2.703
 6834W        W10885  10.777   7.131   0.898
 6835W        W10886   9.871   4.722   0.207
 6836W        W10887   9.926   1.215   2.071
 6837W        W10888   3.197   4.753   0.908
 6838W        W10889   2.960   3.426  11.740
 6839W        W10890   0.660  10.444   0.069
 6840W        W10891   6.675   8.681   2.721
 6841W        W10892   8.472   9.468  10.130
 6842W        W10893   1.816   5.551   3.003
 6843W        W10894  11.381   2.854   2.705
 6844W        W10895   5.482  11.320   9.406
 6845W        W10896   8.978   9.886   0.833
 6846W        W10897   8.406   3.477  10.910
 6847W        W10898   6.550   1.676  10.202
 6848W        W10899   0.834   5.317  11.878
 6849W        W10900   2.686   8.164   1.283
 6850W        W10901   9.377   4.239  10.353
 6851W        W10902   7.492   6.695   0.317
 6852W        W10903   9.984   3.776   1.158
 6853W        W10904   2.177   7.417  10.582
 6854W        W10905   9.235   7.925   9.734
 6855W        W10906   8.470   9.880   9.830
 6856W        W10907   2.679   3.775  11.976
 6857W        W10908   1.000   0.737  10.851
 6858W        W10909  10.543  10.304   9.615
 6859W        W10910   6.240   1.283   8.669
 6860W        W10911   0.511   6.018   3.096
 6861W        W10912   0.816   4.545   9.525
 6862W        W10913   7.500   1.426   1.410
 6863W        W10914   9.406   5.828  11.322
 6864W        W10915  10.858   1.329  11.622
 6865W        W10916   8.874   4.778  11.787
 6866W        W10917   2.447   3.304  10.881
 6867W        W10918   6.375   1.367  10.932
 6868W        W10919   7.463   7.382   0.814
 6869W        W10920   1.349  10.918   2.332
 6870W        W10921   8.923   7.437   3.343
 6871W        W10922   5.478  10.549   2.466
 6872W        W10923   4.132  10.371  11.814
 6873W        W10924   1.329   1.816   9.968
 6874W        W10925   3.791   4.154   2.805
 6875W        W10926   5.049   6.043  11.983
 6876W        W10927   9.447   8.390   2.645
 6877W        W10928   7.621   5.523   2.210
 6878W        W10929   1.272   9.955   3.327
 6879W        W10930   5.558   7.561   0.932
 6880W        W10931  10.420  10.009   3.119
 6881W        W10932   4.262   5.226   0.539
 6882W        W10933   4.241   2.188   9.332
 6883W        W10934   8.888   7.129   2.795
 6884W        W10935   5.801   3.681  11.500
 6885W        W10936   7.936   2.764   1.706
 6886W        W10937   3.187   2.336  11.494
 6887W        W10938   7.502  10.024   1.828
 6888W        W10939   2.340   6.649   9.131
 6889W        W10940   9.003   9.569   1.697
 6890W        W10941   4.149  10.282   9.304
 6891W        W10942   3.191   6.158   1.797
 6892W        W10943   1.678   8.133  11.476
 6893W        W10944   6.134   0.228   1.389
 6894W        W10945   2.941   3.320   2.281
 6895W        W10946   4.180  11.463   8.906
 6896W        W10947   8.941   8.678   3.271
 6897W        W10948   7.165   8.149  10.353
 6898W        W10949   7.256   2.240   1.203
 6899W        W10950  10.078   8.097   9.880
 6900W        W10951   5.668   1.772   0.491
 6901W        W10952   0.799  11.370  10.894
 6902W        W10953   0.715  10.735   9.442
 6903W        W10954   3.315  11.232   2.614
 6904W        W10955   0.292   7.883   9.034
 6905W        W10956   2.016   7.596  10.134
 6906W        W10957   4.699   1.909  10.520
 6907W        W10958   7.557  10.460   1.185
 6908W        W10959   5.269   8.869   9.874
 6909W        W10960   7.173   5.339   0.709
 6910W        W10961   8.018   7.454   0.414
 6911W        W10962   5.605   3.115   0.436
 6912W        W10963  10.935   8.943  10.984
 6913W        W10964   3.677  10.401   9.418
 6914W        W10965   8.027   6.352   9.256
 6915W        W10966  10.290   1.982  10.575
 6916W        W10967   2.876   5.674   3.779
 6917W        W10968   6.092   0.261   0.055
 6918W        W10969   2.376   0.912  11.247
 6919W        W10970   8.127  10.318  10.995
 6920W        W10971   2.673  10.177  10.486
 6921W        W10972   1.434   1.507  10.814
 6922W        W10973   9.538   0.322  11.311
 6923W        W10974   7.145   9.192   9.094
 6924W        W10975   3.340   5.239   0.936
 6925W        W10976   9.891   7.204   0.020
 6926W        W10977   7.485   1.803   0.973
 6927W        W10978   6.905   7.409  10.808
 6928W        W10979  11.221   4.728  11.429
 6929W        W10980   9.242   7.597   2.054
 6930W        W10981   2.872   9.962  10.906
 6931W        W10982   7.332  10.061   3.601
 6932W        W10983  10.818   5.523   0.374
 6933W        W10984  10.447   8.840  10.764
 6934W        W10985   0.871  11.470   2.747
 6935W        W10986  11.048   3.352  11.303
 6936W        W10987  10.712   5.143   2.775
 6937W        W10988   4.261  10.029   0.171
 6938W        W10989   8.080  11.064  11.406
 6939W        W10990   0.282   6.747   9.644
 6940W        W10991   9.749   9.478   9.637
 6941W        W10992   7.337   2.447  10.405
 6942W        W10993   5.271   4.335   3.158
 6943W        W10994   2.664  11.341   9.866
 6944W        W10995   3.453   0.999  10.876
 6945W        W10996   1.652   5.711   8.996
 6946W        W10997   1.663   4.036   9.131
 6947W        W10998   8.420   9.239   1.437
 6948W        W10999   3.403   4.703   1.507
 6949W        W11000   1.597   6.860   1.198
 6950W        W11001   6.795   8.816   9.931
 6951W        W11002   9.838   9.469   1.203
 6952W        W11003   9.021   9.990   1.419
 6953W        W11004   3.128   3.828   2.330
 6954W        W11005   7.367   2.661  10.862
 6955W        W11006   8.450   5.233  10.446
 6956W        W11007   8.360   8.551   0.884
 6957W        W11008   7.483   5.654   0.459
 6958W        W11009  11.344   0.277   3.530
 6959W        W11010   8.023   0.723   1.336
 6960W        W11011   0.453   4.013  10.886
 6961W        W11012  10.901   2.463  10.959
 6962W        W11013   6.532   7.645   9.629
 6963W        W11014   4.294   1.350   8.943
 6964W        W11015   6.084   5.036   9.577
 6965W        W11016   5.255   1.654   1.218
 6966W        W11017   5.801  10.013   9.087
 6967W        W11018   6.354  11.427  10.442
 6968W        W11019   4.368   5.614   1.363
 6969W        W11020   8.850   0.958  11.943
 6970W        W11021   3.346   2.199   8.760
 6971W        W11022   9.915   5.968   8.831
 6972W        W11023   7.507   1.707  10.964
 6973W        W11024   3.798  11.423   9.997
 6974W        W11025  10.247   5.327  10.994
 6975W        W11026   7.481   1.322   1.915
 6976W        W11027   9.834   7.495   2.273
 6977W        W11028   5.530   8.536  11.995
 6978W        W11029   5.795  11.027   9.683
 6979W        W11030   6.188   4.116   9.920
 6980W        W11031   5.498  11.424  11.747
 6981W        W11032   8.538   0.811   0.693
 6982W        W11033   5.734   8.905   9.070
 6983W        W11034   9.557  11.276   9.778
 6984W        W11035   2.768   0.717   3.198
 6985W        W11036   4.528   9.268  10.235
 6986W        W11037   6.651   5.171  11.053
 6987W        W11038   4.778   3.282   2.302
 6988W        W11039   2.452   5.173   9.945
 6989W        W11040  11.257   6.521   1.858
 6990W        W11041   2.868   1.936   2.178
 6991W        W11042   3.718   6.236  10.179
 6992W        W11043  11.277   7.372  10.136
 6993W        W11044   4.680  11.399   3.448
 6994W        W11045  10.297   2.062   1.196
 6995W        W11046   9.533   0.431   8.971
 6996W        W11047   8.324   0.693   9.823
 6997W        W11048   4.091  10.205   3.843
 6998W        W11049   1.214   4.558  11.702
 6999W        W11050   5.113   7.120   9.924
 7000W        W11051   6.331  11.155   0.644
 7001W        W11052   2.668   1.378  11.767
 7002W        W11053  10.340   9.514   8.467
 7003W        W11054   9.105   2.851   8.890
 7004W        W11055   1.892   0.103   8.973
 7005W        W11056   7.557   1.015   8.926
 7006W        W11057   3.801   2.882  11.839
 7007W        W11058   6.943   4.063   9.461
 7008W        W11059   2.701   2.952  10.074
 7009W        W11060   0.302   4.036   9.888
 7010W        W11061  10.192   1.917   0.728
 7011W        W11062   1.762  10.820   3.157
 7012W        W11063   8.985   4.129  10.680
 7013W        W11064   2.103   6.349   3.467
 7014W        W11065   2.775  11.238   1.657
 7015W        W11066  10.303   5.713   0.367
 7016W        W11067  10.816   1.345   1.543
 7017W        W11068   9.908   1.184   0.401
 7018W        W11069   1.033   7.043   0.454
 7019W        W11070   0.954   4.992   2.787
 7020W        W11071   7.288   7.152  10.573
 7021W        W11072  11.424   1.029   0.907
 7022W        W11073   2.904  11.297   0.134
 7023W        W11074   5.783   6.668   2.245
 7024W        W11075   1.872   0.860  11.291
 7025W        W11076   4.044   8.395  11.220
 7026W        W11077   7.355   2.350   0.293
 7027W        W11078   0.852   4.660   0.465
 7028W        W11079   1.336   9.817   8.848
 7029W        W11080   8.647   2.939   9.127
 7030W        W11081   6.709   9.008   3.417
 7031W        W11082   4.293   5.648   0.842
 7032W        W11083   6.046   3.709  10.714
 7033W        W11084   5.525   6.293   1.165
 7034W        W11085   4.975   3.662   8.662
 7035W        W11086   5.987   9.970   9.580
 7036W        W11087   6.491  10.906   1.813
 7037W        W11088  11.290   1.726   2.664
 7038W        W11089   7.618   2.776   0.425
 7039W        W11090   0.319   8.119   2.218
 7040W        W11091   9.051   4.660   9.100
 7041W        W11092   1.395  10.809   8.828
 7042W        W11093   7.813   0.233   2.222
 7043W        W11094   3.397   8.975   0.536
 7044W        W11095   7.973   3.652   0.788
 7045W        W11096   5.125   9.767  10.097
 7046W        W11097   8.774   0.902   1.944
 7047W        W11098  10.030  11.148   2.779
 7048W        W11099   5.658   1.293   3.492
 7049W        W11100   6.002   8.915  11.497
 7050W        W11101   5.640   4.685   2.434
 7051W        W11102   8.390   0.776   0.198
 7052W        W11103   8.008   5.804   3.659
 7053W        W11104   0.633   0.912   9.051
 7054W        W11105   2.843   4.208  11.711
 7055W        W11106  11.212   5.986   2.814
 7056W        W11107   7.501   8.051   1.570
 7057W        W11108   5.351   0.323  10.498
 7058W        W11109   5.686   6.579   9.140
 7059W        W11110   7.883   7.857   2.096
 7060W        W11111   8.889  10.418  10.333
 7061W        W11112   7.921  10.759  11.779
 7062W        W11113  10.989   0.306   0.512
 7063W        W11114   3.538   4.003  10.589
 7064W        W11115  10.206   1.449   0.932
 7065W        W11116   9.995   6.515  10.419
 7066W        W11117   4.187   2.728   3.488
 7067W        W11118   6.610   1.790   8.930
 7068W        W11119   5.716   8.181   9.500
 7069W        W11120   3.221   9.352   1.794
 7070W        W11121   7.558  11.449   1.199
 7071W        W11122   1.764   8.655   3.182
 7072W        W11123   7.335   8.343  11.794
 7073W        W11124   6.805  10.364  11.278
 7074W        W11125   0.850   8.528  10.778
 7075W        W11126   5.725  11.452   0.232
 7076W        W11127   6.739   6.339  11.763
 7077W        W11128   9.731   8.226   3.667
 7078W        W11129   5.759   8.819   0.964
 7079W        W11130  10.525   5.541   0.843
 7080W        W11131   9.097  10.419   3.300
 7081W        W11132   7.896  10.979   9.650
 7082W        W11133   6.641  10.890   9.234
 7083W        W11134   2.453   7.053  10.334
 7084W        W11135  10.750   0.327   0.054
 7085W        W11136   6.670   9.100  10.861
 7086W        W11137   4.069   2.838   2.035
 7087W        W11138   8.134   9.889   1.360
 7088W        W11139   5.090   4.505   2.237
 7089W        W11140   0.861   4.159   1.698
 7090W        W11141   6.903   2.509   9.993
 7091W        W11142   2.658   4.972  10.393
 7092W        W11143   8.288   0.364  11.864
 7093W        W11144   7.632   9.035   9.191
 7094W        W11145   3.719   5.754   0.182
 7095W        W11146  10.353   6.092   3.251
 7096W        W11147   0.009  10.807   1.402
 7097W        W11148   4.709   0.334   9.922
 7098W        W11149   5.988   3.386   8.551
 7099W        W11150   8.399  10.531   0.913
 7100W        W11151   4.742   4.137   0.443
 7101W        W11152  11.489   1.825   1.185
 7102W        W11153  10.804   7.347   2.618
 7103W        W11154   5.549   9.420   8.991
 7104W        W11155   1.426   9.139   0.158
 7105W        W11156   9.399   0.476  10.355
 7106W        W11157   2.645   7.055  11.229
 7107W        W11158   2.850  10.933  11.761
 7108W        W11159   2.149   7.350   9.405
 7109W        W11160   1.674   9.641   0.772
 7110W        W11161   0.955  10.124  11.024
 7111W        W11162   9.979   2.860  11.671
 7112W        W11163   2.357   1.549   9.617
 7113W        W11164   8.590   3.368   1.622
 7114W        W11165   0.204  10.521   2.804
 7115W        W11166  11.418   8.461   2.268
 7116W        W11167   8.462   7.090   9.402
 7117W        W11168   5.229   1.652   2.679
 7118W        W11169   9.852   6.132   3.101
 7119W        W11170   7.957   6.970   3.127
 7120W        W11171   6.988   6.598   8.781
 7121W        W11172   1.766   6.469   0.906
 7122W        W11173   6.522   1.833  10.695
 7123W        W11174   2.725   5.753  10.739
 7124W        W11175   6.068  11.297  10.847
 7125W        W11176   1.135   5.724  10.034
 7126W        W11177   1.272   8.855   9.997
 7127W        W11178   5.067   2.975   0.901
 7128W        W11179   0.744   6.500  11.344
 7129W        W11180   8.469   1.149   1.617
 7130W        W11181   7.852   7.414   2.360
 7131W        W11182   2.805   2.580   3.347
 7132W        W11183   5.560   1.340  11.836
 7133W        W11184   2.030   7.675  11.431
 7134W        W11185   8.440   0.742  11.157
 7135W        W11186   0.451   6.728  10.529
 7136W        W11187   1.946  11.117   1.170
 7137W        W11188   0.260  11.094  10.266
 7138W        W11189   4.025   4.546   9.532
 7139W        W11190  10.887   9.035   0.023
 7140W        W11191   5.132   5.573  11.761
 7141W        W11192   9.840   5.271   3.042
 7142W        W11193   6.609   9.590   8.480
 7143W        W11194  10.042   1.786   9.778
 7144W        W11195   4.693   5.719   0.532
 7145W        W11196   1.344   8.384  10.192
 7146W        W11197   8.382  11.284   9.282
 7147W        W11198   3.143   1.008  10.091
 7148W        W11199   8.694   5.857   8.225
 7149W        W11200   3.564   4.173   9.195
 7150W        W11201   2.357  10.040  10.886
 7151W        W11202   1.752   5.028   9.386
 7152W        W11203   8.067   6.009  10.234
 7153W        W11204   6.954   0.960   2.132
 7154W        W11205   5.231   0.866   2.958
 7155W        W11206   4.597   3.205   0.798
 7156W        W11207   3.487   0.031  11.407
 7157W        W11208   8.048   0.064  11.392
 7158W        W11209   4.594   0.327   8.559
 7159W        W11210   8.513   7.646   0.391
 7160W        W11211  10.329   2.705   1.366
 7161W        W11212   8.573   1.180  11.368
 7162W        W11213   5.334  11.366   3.098
 7163W        W11214   4.876   0.663   3.250
 7164W        W11215  10.057   8.473   9.398
 7165W        W11216   4.129   1.871   8.741
 7166W        W11217   5.214   8.260   1.280
 7167W        W11218   3.328  10.823   2.268
 7168W        W11219   5.123   9.113   1.508
 7169W        W11220   6.775  10.936   0.106
 7170W        W11221   1.619   8.997  10.869
 7171W        W11222  11.419   1.835  11.692
 7172W        W11223   2.610   5.733   1.357
 7173W        W11224   8.602   4.086   0.491
 7174W        W11225   3.346   5.207   1.458
 7175W        W11226   6.894   4.572  11.240
 7176W        W11227  10.833   2.721   0.745
 7177W        W11228   6.508  11.130   3.043
 7178W        W11229   5.094   3.077  11.059
 7179W        W11230   9.412  10.878   0.108
 7180W        W11231   3.780   7.977  10.501
 7181W        W11232   7.126   7.066   0.064
 7182W        W11233   1.468   8.487   9.175
 7183W        W11234   3.864   1.859   1.296
 7184W        W11235   1.190   6.730  11.753
 7185W        W11236   5.176   1.418   0.751
 7186W        W11237   4.726   8.670   1.931
 7187W        W11238   3.317   8.787   8.636
 7188W        W11239   1.289   4.666   0.193
 7189W        W11240   7.225   8.402  10.791
 7190W        W11241   0.670   1.496  10.404
 7191W        W11242   2.631   8.659   1.225
 7192W        W11243   7.038   1.682  10.325
 7193W        W11244   5.052  10.780   0.511
 7194W        W11245   2.663   2.342   2.464
 7195W        W11246  10.777   4.242   2.832
 7196W        W11247   4.661   6.099   1.842
 7197W        W11248   8.804   3.670   1.229
 7198W        W11249   5.518   3.281   2.696
 7199W        W11250   1.806   5.524   9.447
 7200W        W11251   4.457   2.158   2.869
 7201W        W11252   6.168   3.176   8.965
 7202W        W11253   6.566   5.672   1.740
 7203W        W11254   3.595  11.253  10.960
 7204W        W11255   3.373   7.144  10.474
 7205W        W11256   3.807   2.642  10.353
 7206W        W11257  11.433   4.341   9.229
 7207W        W11258   9.456   5.019   0.402
 7208W        W11259   6.559   5.694  11.256
 7209W        W11260   8.653   6.659   8.705
 7210W        W11261   0.598   1.256   9.908
 7211W        W11262   4.283   4.565  10.815
 7212W        W11263   1.054   7.873   3.378
 7213W        W11264   4.164   2.546  11.954
 7214W        W11265   5.766   7.513   8.894
 7215W        W11266   8.098   3.695   9.602
 7216W        W11267   0.394   4.883  11.750
 7217W        W11268   0.855   9.031  10.625
 7218W        W11269   6.974   0.838   2.630
 7219W        W11270   0.204   7.648  10.079
 7220W        W11271   3.811   2.094  11.423
 7221W        W11272   7.029  11.475   2.325
 7222W        W11273   9.112   3.318   2.803
 7223W        W11274   4.079   1.712   9.231
 7224W        W11275   9.420   2.429   9.692
 7225W        W11276   5.188   6.728   9.119
 7226W        W11277   6.143   6.186   9.401
 7227W        W11278   0.232   6.606   0.042
 7228W        W11279   2.273   0.204   1.018
 7229W        W11280   5.509  10.278  10.758
 7230W        W11281   4.952   0.182   3.137
 7231W        W11282   2.206   1.976   3.182
 7232W        W11283   0.765  11.199  11.776
 7233W        W11284   7.994  10.922   2.807
 7234W        W11285   8.683   1.345   0.751
 7235W        W11286   0.537   9.728   0.558
 7236W        W11287   7.035   7.540   9.560
 7237W        W11288   0.107   5.268   0.085
 7238W        W11289   4.675   6.156  11.235
 7239W        W11290   3.846  10.967  11.919
 7240W        W11291   4.579   7.556  10.058
 7241W        W11292   8.365   9.893   3.686
 7242W        W11293   3.605   1.326  10.137
 7243W        W11294   2.748   9.934   2.028
 7244W        W11295   2.157   5.117  10.340
 7245W        W11296   1.774   3.560  11.449
 7246W        W11297   8.545   8.873   9.390
 7247W        W11298   6.522   7.102   1.958
 7248W        W11299   2.625   0.930   9.960
 7249W        W11300   2.670   1.830   2.654
 7250W        W11301   0.237   0.010   1.903
 7251W        W11302   4.162   3.759  10.309
 7252W        W11303   3.690   6.109   8.317
 7253W        W11304   3.240   4.709  10.098
 7254W        W11305   0.386   6.655   1.108
 7255W        W11306   0.759   3.161  11.018
 7256W        W11307   8.619   8.912  11.008
 7257W        W11308   1.730   8.975  11.803
 7258W        W11309   8.361   1.103   1.105
 7259W        W11310   2.558   5.620   8.738
 7260W        W11311   7.435   0.489   2.991
 7261W        W11312   2.712   8.859  10.045
 7262W        W11313   4.774   2.469  11.475
 7263W        W11314  10.906   2.981   2.534
 7264W        W11315   3.470  10.553   0.454
 7265W        W11316   6.236   5.514  11.757
 7266W        W11317   7.519   8.102  11.141
 7267W        W11318   8.852   8.512   0.860
 7268W        W11319   8.157   6.377   1.321
 7269W        W11320  10.003   0.307   9.181
 7270W        W11321   9.790   7.916   3.260
 7271W        W11322   5.099   8.259  11.961
 7272W        W11323   1.755   2.662   8.902
 7273W        W11324  10.347   8.874   2.734
 7274W        W11325   3.699   4.226   8.697
 7275W        W11326  10.355   2.172  11.379
 7276W        W11327   6.258  10.385   9.726
 7277W        W11328   2.336   3.830   8.636
 7278W        W11329   3.806   9.736   0.204
 7279W        W11330   4.159   0.386   2.454
 7280W        W11331  10.383   1.797   1.826
 7281W        W11332  10.965   2.594   2.131
 7282W        W11333   1.856   7.738   9.663
 7283W        W11334   0.411   0.414   1.559
 7284W        W11335   9.101   2.756  11.312
 7285W        W11336  10.825   6.150   9.234
 7286W        W11337   2.230   6.670   1.652
 7287W        W11338  10.279   8.001   3.130
 7288W        W11339  10.895   4.649  11.821
 7289W        W11340   6.772   5.845   1.265
 7290W        W11341   0.815   2.898  10.194
 7291W        W11342   2.728   9.925   9.989
 7292W        W11343  11.258   9.490   9.023
 7293W        W11344   8.941   2.584   3.265
 7294W        W11345   0.971   2.824  10.686
 7295W        W11346   7.506  11.309   2.228
 7296W        W11347   5.701   4.067   4.083
 7297W        W11348   0.904  11.363   0.508
 7298W        W11349   1.194   4.167   0.992
 7299W        W11350   8.460   0.958   9.416
 7300W        W11351  11.184   1.680   3.670
 7301W        W11352   3.705   1.277   1.923
 7302W        W11353   2.293   9.362  11.552
 7303W        W11354   7.080   1.990  11.346
 7304W        W11355   1.731   7.836   0.994
 7305W        W11356   9.091  10.850   1.308
 7306W        W11357  10.122  11.042  11.380
 7307W        W11358   1.368   4.105  11.009
 7308W        W11359   4.191   4.694   1.805
 7309W        W11360  10.528   8.424   1.845
 7310W        W11361   2.341   3.433   3.693
 7311W        W11362   6.727   1.384   3.325
 7312W        W11363   1.552  10.496   0.913
 7313W        W11364   5.468   8.395   0.851
 7314W        W11365   0.369  10.406  11.426
 7315W        W11366   4.998  11.055   2.022
 7316W        W11367   1.032   7.483   1.284
 7317W        W11368   2.025   5.149   1.240
 7318W        W11369   0.490   2.651   1.004
 7319W        W11370   5.639   4.675   2.979
 7320W        W11371   4.525   3.239   9.021
 7321W        W11372   9.875   4.232   0.899
 7322W        W11373   3.884   8.364  11.695
 7323W        W11374   4.241  10.572   1.956
 7324W        W11375   8.847   2.318  11.421
 7325W        W11376   6.212   9.246   0.281
 7326W        W11377   0.314   5.173   0.664
 7327W        W11378   5.666   2.801  10.506
 7328W        W11379   0.456  10.989  10.748
 7329W        W11380   0.475   2.154   9.906
 7330W        W11381   0.494   6.711   2.119
 7331W        W11382  10.408   1.974   9.072
 7332W        W11383   6.907   6.048  11.375
 7333W        W11384   9.050   0.320   1.322
 7334W        W11385   2.740   6.201   0.454
 7335W        W11386  11.362  10.240   0.281
 7336W        W11387   9.079   2.153   2.137
 7337W        W11388   1.186   7.909   2.358
 7338W        W11389   3.325   5.086  11.910
 7339W        W11390   6.501   4.511  10.510
 7340W        W11391   9.300   0.561   0.076
 7341W        W11392   1.767   9.082   9.251
 7342W        W11393   3.336   1.752   8.480
 7343W        W11394  10.054   0.975   0.840
 7344W        W11395  10.010   2.390   0.815
 7345W        W11396   0.695  11.244   9.505
 7346W        W11397   8.665   6.111   8.665
 7347W        W11398   7.892   4.291   9.808
 7348W        W11399   8.991  10.175  11.929
 7349W        W11400   6.962   0.851   9.741
 7350W        W11401   7.956   4.515  10.265
 7351W        W11402   9.624   2.912   8.948
 7352W        W11403  10.475   0.929   2.350
 7353W        W11404  11.313   6.137   9.435
 7354W        W11405   5.823   2.296   1.191
 7355W        W11406   6.549   0.224   2.376
 7356W        W11407   8.249   7.887   9.567
 7357W        W11408   8.049   7.163  11.993
 7358W        W11409   7.964  11.226   1.460
 7359W        W11410   2.783   4.981   0.726
 7360W        W11411   4.967   7.053   9.442
 7361W        W11412   4.678   4.773   2.025
 7362W        W11413   1.790   2.323   0.969
 7363W        W11414   0.328   5.777  10.324
 7364W        W11415   2.860   3.704   0.485
 7365W        W11416   4.983   1.772   8.770
 7366W        W11417  10.691   6.807   9.912
 7367W        W11418   2.257   0.285   0.508
 7368W        W11419   4.154   4.863  10.398
 7369W        W11420   1.985   5.428   0.793
 7370W        W11421   6.072   6.488  10.681
 7371W        W11422   8.770   9.460   0.622
 7372W        W11423   9.937   5.662   2.492
 7373W        W11424  10.343   7.440   0.671
 7374W        W11425   1.467  11.382  10.441
 7375W        W11426  10.709   9.626   0.670
 7376W        W11427   8.618   2.563   1.041
 7377W        W11428   4.279   9.944  11.168
 7378W        W11429   8.768   5.925  10.277
 7379W        W11430   8.431   3.843   0.904
 7380W        W11431   2.096   8.068   0.740
 7381W        W11432  11.152   3.583   3.309
 7382W        W11433   7.589  10.566   2.712
 7383W        W11434   9.003   8.573   2.283
 7384W        W11435   0.961   6.913   2.229
 7385W        W11436   7.599  11.357  11.638
 7386W        W11437  10.361   8.909   1.381
 7387W        W11438   3.749   7.091   1.980
 7388W        W11439   0.570   3.668   1.331
 7389W        W11440   3.552   0.735   9.931
 7390W        W11441   0.602   9.152   2.215
 7391W        W11442  11.410   8.626  10.878
 7392W        W11443   7.262   2.795   2.807
 7393W        W11444   8.686   8.379   1.516
 7394W        W11445   3.697   3.637   9.362
 7395W        W11446   4.728   5.701  11.008
 7396W        W11447   5.338   7.257   9.123
 7397W        W11448   7.426   0.553   2.483
 7398W        W11449   3.241   3.170   9.911
 7399W        W11450   9.790   0.466   3.146
 7400W        W11451   2.313   9.784   3.384
 7401W        W11452   7.831  10.591  10.582
 7402W        W11453   7.209   1.307   3.226
 7403W        W11454   1.378   0.234   1.419
 7404W        W11455   4.480   8.478   1.126
 7405W        W11456   5.731   2.803  11.547
 7406W        W11457   1.168   1.024   0.356
 7407W        W11458   6.563   8.135   1.879
 7408W        W11459   2.814   2.702   0.358
 7409W        W11460   9.469   1.947   9.529
 7410W        W11461   3.590   7.019  11.524
 7411W        W11462   0.761   6.073   9.474
 7412W        W11463  10.265   2.924  11.020
 7413W        W11464   3.584   3.194   9.078
 7414W        W11465   2.048   0.866   3.610
 7415W        W11466   5.490   7.555  11.937
 7416W        W11467  11.338   2.710   0.777
 7417W        W11468   6.532   6.653  10.221
 7418W        W11469   7.436  10.231  10.497
 7419W        W11470   6.098   5.078   1.540
 7420W        W11471   3.598   1.804  11.859
 7421W        W11472   1.811   3.596   0.384
 7422W        W11473   5.084   4.225   1.361
 7423W        W11474   3.218   4.695   1.996
 7424W        W11475   6.096   7.752   3.673
 7425W        W11476   7.549   4.503   9.498
 7426W        W11477   5.403   9.053   0.207
 7427W        W11478  10.884   5.600   1.707
 7428W        W11479   8.580   8.898   2.224
 7429W        W11480   9.325   3.648   1.307
 7430W        W11481   8.223   8.153  11.759
 7431W        W11482   2.408   7.422   1.490
 7432W        W11483   9.077   2.689   9.386
 7433W        W11484   2.359   9.981   9.011
 7434W        W11485   6.754   4.238   0.487
 7435W        W11486   8.926   1.031   0.445
 7436W        W11487   9.904  11.251   0.231
 7437W        W11488   5.925  10.659  11.414
 7438W        W11489   4.251   1.367   0.433
 7439W        W11490   9.964  10.335   9.438
 7440W        W11491   2.869   4.544   0.478
 7441W        W11492   8.645   2.541   1.541
 7442W        W11493   8.672   7.568   1.899
 7443W        W11494   3.676   8.025   3.177
 7444W        W11495   9.936   3.313   2.406
 7445W        W11496   0.389   5.055   8.910
 7446W        W11497   0.379   8.583   2.503
 7447W        W11498   9.388  10.378   1.861
 7448W        W11499  11.113   4.597   0.300
 7449W        W11500   2.144   3.238   0.184
 7450W        W11501   5.243   1.222  11.449
 7451W        W11502   9.864   2.307   3.418
 7452W        W11503   4.661  10.410  11.800
 7453W        W11504   5.645   4.792  10.541
 7454W        W11505   7.125   3.899   3.075
 7455W        W11506   4.304   4.703   9.944
 7456W        W11507   0.483   2.686   9.381
 7457W        W11508   9.597   5.705   2.876
 7458W        W11509  10.016   7.471   3.336
 7459W        W11510   2.053   8.758   8.466
 7460W        W11511   1.808   6.460   1.433
 7461W        W11512   4.041   5.948   1.165
 7462W        W11513   5.174   7.836  11.576
 7463W        W11514   2.186  11.304   9.997
 7464W        W11515   1.987   2.657  11.293
 7465W        W11516   8.538   1.583   1.879
 7466W        W11517   0.147   9.423   9.452
 7467W        W11518   9.996   6.156   0.205
 7468W        W11519   3.641   8.429  10.780
 7469W        W11520   6.339  10.746   0.321
 7470W        W11521  10.339   9.962   1.774
 7471W        W11522   7.646   0.013   1.720
 7472W        W11523   5.096   8.610  10.387
 7473W        W11524   8.150   3.875   0.355
 7474W        W11525   8.937   3.261  11.445
 7475W        W11526   7.639   5.608  11.070
 7476W        W11527   6.718   3.666  11.382
 7477W        W11528   8.152   0.448   9.413
 7478W        W11529   4.621   2.490   3.229
 7479W        W11530  10.063   6.166  10.815
 7480W        W11531   2.376   3.374   8.933
 7481W        W11532   8.456   4.999   9.993
 7482W        W11533  11.458   4.777   8.590
 7483W        W11534   8.569   8.342  10.924
 7484W        W11535   0.769   4.871   3.503
 7485W        W11536  10.193   5.803  11.482
 7486W        W11537   0.487   4.708   2.883
 7487W        W11538   0.386   8.520   3.013
 7488W        W11539   8.461  11.224   1.708
 7489W        W11540   8.997   5.050  11.185
 7490W        W11541   7.852   4.526  11.759
 7491W        W11542   7.507   6.965   3.413
 7492W        W11543   8.957   9.116   2.492
 7493W        W11544   5.118   4.034   9.015
 7494W        W11545   8.938   5.675   2.311
 7495W        W11546  11.219  10.118   1.908
 7496W        W11547   5.012  10.062  10.534
 7497W        W11548   4.625   7.023   1.573
 7498W        W11549   1.695   3.075  11.274
 7499W        W11550   0.869  10.417   9.971
 7500W        W11551   6.044   4.921   2.055
 7501W        W11552   2.258   1.157   0.014
 7502W        W11553   2.717   5.464  10.310
 7503W        W11554  11.002  10.122   3.136
 7504W        W11555   7.212   8.377   3.375
 7505W        W11556  11.493   0.267   0.496
 7506W        W11557   6.395   0.240   9.280
 7507W        W11558   3.757   2.642   1.603
 7508W        W11559   6.958   7.981   3.118
 7509W        W11560   9.847   1.024   8.636
 7510W        W11561   5.252   3.591  11.490
 7511W        W11562   6.449   0.985   1.351
 7512W        W11563   2.002   5.088   2.137
 7513W        W11564   4.496   6.521   1.613
 7514W        W11565   0.924   2.142   3.206
 7515W        W11566   2.814   6.473   9.269
 7516W        W11567   5.023   1.233  11.946
 7517W        W11568   6.943   5.679  11.727
 7518W        W11569   9.980   1.363   9.530
 7519W        W11570   0.823   2.395   2.176
 7520W        W11571   6.483   8.108   3.325
 7521W        W11572   5.026   3.499   4.002
 7522W        W11573   8.318   2.991  10.847
 7523W        W11574   9.430   7.604   0.471
 7524W        W11575   7.442  10.782   3.145
 7525W        W11576   6.470   6.139   1.530
 7526W        W11577   6.091   0.682  11.777
 7527W        W11578   8.109   3.298   0.433
 7528W        W11579   8.547   6.592   2.711
 7529W        W11580  11.331   2.305   1.872
 7530W        W11581   9.089   5.209   0.683
 7531W        W11582   5.518  10.953  11.491
 7532W        W11583   0.271   8.545   0.032
 7533W        W11584   9.523   8.673   0.287
 7534W        W11585   6.463   5.900   9.109
 7535W        W11586   5.301   7.455   8.648
 7536W        W11587   4.228   6.210  10.264
 7537W        W11588   5.124   3.141   3.632
 7538W        W11589   8.290   3.724   1.388
 7539W        W11590   8.471   9.761   2.118
 7540W        W11591   6.180  10.863  11.818
 7541W        W11592   4.295   9.128   0.338
 7542W        W11593   1.264  11.420   1.803
 7543W        W11594   1.759   3.168   8.619
 7544W        W11595   3.753   9.269   1.908
 7545W        W11596   3.141   4.122  10.271
 7546W        W11597   2.647   9.003   9.049
 7547W        W11598   4.106  11.359   9.406
 7548W        W11599   6.391  10.071  11.400
 7549W        W11600   4.718   0.093   2.377
 7550W        W11601   1.294   7.016   2.940
 7551W        W11602   7.665   9.553   1.964
 7552W        W11603   7.378  10.747  10.403
 7553W        W11604  10.384   0.431   2.368
 7554W        W11605   0.020   4.661   2.664
 7555W        W11606   5.429   6.025  11.650
 7556W        W11607   7.393   1.646   9.601
 7557W        W11608   8.186   3.310   1.116
 7558W        W11609   6.144   1.353   1.671
 7559W        W11610   5.252   0.917   0.730
 7560W        W11611   2.561   7.024   9.444
 7561W        W11612   2.998   5.837   3.130
 7562W        W11613   2.650  10.686  10.439
 7563W        W11614   6.259   2.866   9.470
 7564W        W11615   0.468   6.170   0.276
 7565W        W11616   5.014   8.382   9.947
 7566W        W11617   5.769   9.561   0.250
 7567W        W11618   7.924   7.657  10.862
 7568W        W11619   2.630   4.230   8.875
 7569W        W11620   8.569  11.281   0.669
 7570W        W11621   3.161   5.890   0.395
 7571W        W11622   2.467  10.350   2.039
 7572W        W11623   9.994   4.181  11.527
 7573W        W11624   6.739   8.532   3.207
 7574W        W11625  11.288   1.727  10.310
 7575W        W11626   0.847  11.011   2.425
 7576W        W11627   6.986  10.941  10.133
 7577W        W11628   6.637   4.234  10.094
 7578W        W11629  10.238   4.596  10.399
 7579W        W11630   8.122   4.801   2.675
 7580W        W11631   1.303   7.544   2.695
 7581W        W11632   9.836   4.286  10.575
 7582W        W11633   2.831   3.663  10.945
 7583W        W11634   0.475   5.051   1.148
 7584W        W11635   9.030   6.861  10.441
 7585W        W11636   8.987   3.192   9.556
 7586W        W11637   9.304   4.096  11.995
 7587W        W11638  11.262   4.237  11.703
 7588W        W11639   5.038   3.816   9.560
 7589W        W11640   4.043   2.074   0.872
 7590W        W11641   8.982   7.865   0.347
 7591W        W11642   3.435   5.241  10.890
 7592W        W11643   7.434   3.256   0.404
 7593W        W11644   2.243   7.669   1.920
 7594W        W11645   3.885   1.738   0.401
 7595W        W11646   4.216   6.667  10.849
 7596W        W11647   3.610   6.602   1.739
 7597W        W11648  10.604   9.565   2.330
 7598W        W11649   9.608   6.432  11.661
 7599W        W11650   6.118   4.425   3.187
 7600W        W11651   9.421   7.016   2.793
 7601W        W11652   0.370  10.218   0.437
 7602W        W11653   2.311   7.973   0.291
 7603W        W11654   9.113   6.863   8.619
 7604W        W11655  10.770   1.976  10.988
 7605W        W11656   2.753   3.275  11.290
 7606W        W11657   6.033  10.412   3.173
 7607W        W11658   2.280   8.079   2.942
 7608W        W11659   1.283   1.823   2.806
 7609W        W11660   2.895   6.014   9.033
 7610W        W11661  10.959   3.531   0.419
 7611W        W11662   9.520   4.797   2.766
 7612W        W11663  10.918   4.141   8.495
 7613W        W11664   2.697  11.356  10.780
 7614W        W11665   4.714   8.416   9.537
 7615W        W11666   1.693   6.737  11.499
 7616W        W11667   9.768   5.670   3.375
 7617W        W11668   6.657   2.870   0.176
 7618W        W11669   7.394   4.557  11.993
 7619W        W11670  10.089   3.561  10.390
 7620W        W11671   6.106  10.887   1.432
 7621W        W11672   8.829   5.081   9.300
 7622W        W11673  10.029   0.734   2.172
 7623W        W11674  11.244   9.918  11.872
 7624W        W11675   7.694   3.218   2.489
 7625W        W11676   8.879   8.006   1.791
 7626W        W11677   8.237   8.596   9.053
 7627W        W11678   6.910  10.207   0.959
 7628W        W11679  10.303   4.131  11.920
 7629W        W11680   3.405   2.852  11.089
 7630W        W11681  10.992   9.953   9.026
 7631W        W11682   3.682  11.270   9.071
 7632W        W11683   8.515   5.074  11.398
 7633W        W11684   3.340   7.502   1.543
 7634W        W11685   5.044   8.692   2.418
 7635W        W11686   9.272   9.625   9.475
 7636W        W11687   2.490   9.111  10.881
 7637W        W11688   4.294   4.818  11.271
 7638W        W11689  11.347   7.193   3.621
 7639W        W11690   2.846   2.160   8.989
 7640W        W11691   0.289   0.338  11.266
 7641W        W11692  11.281   3.382   9.567
 7642W        W11693   5.583   2.352   8.724
 7643W        W11694  10.354   7.544  10.731
 7644W        W11695   1.294  10.916   1.815
 7645W        W11696   7.627   3.603   9.420
 7646W        W11697  10.993  10.556   3.452
 7647W        W11698   5.930   0.947   1.387
 7648W        W11699  11.338   9.846  10.399
 7649W        W11700   5.150   4.073   2.739
 7650W        W11701   6.579   0.684   0.918
 7651W        W11702   9.304   0.261  10.835
 7652W        W11703   6.107   1.874   1.297
 7653W        W11704   3.328   4.504   2.930
 7654W        W11705   7.586   7.623  11.366
 7655W        W11706  10.753  10.873   9.474
 7656W        W11707   4.360   9.080   9.767
 7657W        W11708   5.436   3.248  10.277
 7658W        W11709   4.371   1.817   1.233
 7659W        W11710  11.352   1.905   0.692
 7660W        W11711   1.283   8.850   3.302
 7661W        W11712   8.813   4.629   9.993
 7662W        W11713   0.501   7.924   0.233
 7663W        W11714   7.633   5.840   1.329
 7664W        W11715   5.159   7.580   2.746
 7665W        W11716   3.826   7.941   0.005
 7666W        W11717   3.165   4.983  10.529
 7667W        W11718   4.700   3.548   1.873
 7668W        W11719   0.112   3.603   3.545
 7669W        W11720   5.402   4.147   1.747
 7670W        W11721   5.686   7.603   0.411
 7671W        W11722   7.059  10.891   9.527
 7672W        W11723   1.628   8.494  11.912
 7673W        W11724  10.425   8.633   8.434
 7674W        W11725   8.348   5.066   9.503
 7675W        W11726   7.189   6.097  11.856
 7676W        W11727   6.151   4.445   2.222
 7677W        W11728   6.981   3.263  11.560
 7678W        W11729   0.474   0.291   9.593
 7679W        W11730   8.098   4.939   8.225
 7680W        W11731   3.193   7.629  11.569
 7681W        W11732   4.978   0.776  10.270
 7682W        W11733   1.820   5.609  10.341
 7683W        W11734   8.902   5.075   8.787
 7684W        W11735  11.409  11.000   2.819
 7685W        W11736   4.409   8.114   2.656
 7686W        W11737   1.405   3.811   0.675
 7687W        W11738   7.873  10.756  11.072
 7688W        W11739   5.537   5.168   3.113
 7689W        W11740   1.390   7.127   8.921
 7690W        W11741   9.862   6.065   9.388
 7691W        W11742   7.317   4.414   8.707
 7692W        W11743   5.596   3.105   8.413
 7693W        W11744   0.880   2.486   3.735
 7694W        W11745   5.009   1.502   3.476
 7695W        W11746   6.534   4.089   2.253
 7696W        W11747   8.330   2.946   0.786
 7697W        W11748   3.153   9.429   3.178
 7698W        W11749   8.655   4.880   3.020
 7699W        W11750   4.109   3.696   2.687
 7700W        W11751  11.072  10.530  10.300
 7701W        W11752   8.187   9.805  10.917
 7702W        W11753   2.434  10.419   0.378
 7703W        W11754   7.933   8.943   0.119
 7704W        W11755   4.090   3.710   9.696
 7705W        W11756   1.171   7.417  10.366
 7706W        W11757   2.647   0.552   1.201
 7707W        W11758   9.956   4.992  11.266
 7708W        W11759   6.120  11.336   9.978
 7709W        W11760   7.471   2.212   9.609
 7710W        W11761   7.190   0.683   1.752
 7711W        W11762  11.442  11.056  11.096
 7712W        W11763   5.667   0.029   2.768
 7713W        W11764   5.185   5.043   1.541
 7714W        W11765   6.077   2.660  11.984
 7715W        W11766   0.521  11.497  10.499
 7716W        W11767   3.121   0.772  10.541
 7717W        W11768   7.076  10.683   1.165
 7718W        W11769   4.324   4.030  11.634
 7719W        W11770  11.460   9.365   9.943
 7720W        W11771   0.228   8.380   0.585
 7721W        W11772   2.389   2.942   0.544
 7722W        W11773   4.773   2.414  10.537
 7723W        W11774   0.396   4.346   2.228
 7724W        W11775   7.048   8.009   2.588
 7725W        W11776   5.739  10.055   2.949
 7726W        W11777   6.524   1.618   9.415
 7727W        W11778   1.449  10.766   9.859
 7728W        W11779   1.227   2.163   2.408
 7729W        W11780   0.991   6.257   9.934
 7730W        W11781  10.926   3.836  11.452
 7731W        W11782   4.764   8.802   3.248
 7732W        W11783   6.431   2.289   3.629
 7733W        W11784  10.688   1.229   0.914
 7734W        W11785   6.441   3.137   0.807
 7735W        W11786   5.567   7.340   9.993
 7736W        W11787   4.193   8.666   0.056
 7737W        W11788   2.173  10.506  10.508
 7738W        W11789  10.513   3.142   1.160
 7739W        W11790   1.093   2.700  11.875
 7740W        W11791  10.257   5.559   3.464
 7741W        W11792   5.161   5.626  10.058
 7742W        W11793   9.864   3.130  10.087
 7743W        W11794   5.241   2.089   9.058
 7744W        W11795   0.126   0.944   9.111
 7745W        W11796  10.000   6.461   9.045
 7746W        W11797  11.361   6.655   9.363
 7747W        W11798   2.565   4.577   3.404
 7748W        W11799   9.890   0.682   1.230
 7749W        W11800   6.939   7.915   8.912
 7750W        W11801   2.668   3.808   3.512
 7751W        W11802   2.060   9.310   0.795
 7752W        W11803   0.176   4.338  10.281
 7753W        W11804   0.598  11.280   3.172
 7754W        W11805   0.741   2.600   3.247
 7755W        W11806   5.296   0.865   1.964
 7756W        W11807   7.992  10.498   3.083
 7757W        W11808   5.140   7.545   1.798
 7758W        W11809  10.376  10.875  10.056
 7759W        W11810   1.832   0.178   0.201
 7760W        W11811   5.026   7.379  11.818
 7761W        W11812  10.841   9.251   8.363
 7762W        W11813   1.284   4.789   1.720
 7763W        W11814   8.329   4.509   9.926
 7764W        W11815   1.844   5.341  11.937
 7765W        W11816  11.028   5.528   2.705
 7766W        W11817   8.566  11.320  10.706
 7767W        W11818   2.266   0.405   2.459
 7768W        W11819   9.871   8.470  10.824
 7769W        W11820   8.340   7.649   0.895
 7770W        W11821   5.528   9.203   1.870
 7771W        W11822  10.228   6.028   1.727
 7772W        W11823   9.774   8.876  10.359
 7773W        W11824   0.409   3.600  10.586
 7774W        W11825   0.355   6.566   0.568
 7775W        W11826   5.508   0.377   2.409
 7776W        W11827  10.851   7.305   9.865
 7777W        W11828   4.484   2.831   2.384
 7778W        W11829   2.251   6.554   0.650
 7779W        W11830   5.812   8.039  10.231
 7780W        W11831   1.973   3.201   1.460
 7781W        W11832   6.910   2.121   3.561
 7782W        W11833   3.107   1.784   1.749
 7783W        W11834   6.462   3.504   3.699
 7784W        W11835   1.708   8.426  10.964
 7785W        W11836   4.045   5.698  11.336
 7786W        W11837   2.116   1.356   2.415
 7787W        W11838   8.246   1.431   9.520
 7788W        W11839  11.082   9.025  10.042
 7789W        W11840  10.622  10.428  10.106
 7790W        W11841  10.978   3.777   9.334
 7791W        W11842  11.429   3.597   9.128
 7792W        W11843   2.789   7.360   0.756
 7793W        W11844   7.456   8.085   3.007
 7794W        W11845   3.263  11.109   3.124
 7795W        W11846   0.404   7.043   0.777
 7796W        W11847   0.889   0.304   0.810
 7797W        W11848   9.652  10.363   9.851
 7798W        W11849   8.638   3.537   2.652
 7799W        W11850   0.481   8.364  10.489
 7800W        W11851   5.615   9.141  11.225
 7801W        W11852   3.113   1.645  11.791
 7802W        W11853   9.688  10.093   0.418
 7803W        W11854   3.509   6.693  10.305
 7804W        W11855   6.918   4.093   8.906
 7805W        W11856   1.308   5.490   0.057
 7806W        W11857   5.852   0.283  11.572
 7807W        W11858   9.554  10.807   1.570
 7808W        W11859   5.235   2.732   9.447
 7809W        W11860   8.462   8.530  10.076
 7810W        W11861   7.738   4.890   3.615
 7811W        W11862   1.373   2.816   1.454
 7812W        W11863  10.621  11.049  11.417
 7813W        W11864  10.321  11.445   8.826
 7814W        W11865   8.029   7.383   9.541
 7815W        W11866  11.302   1.829   0.182
 7816W        W11867   8.022   5.508   1.262
 7817W        W11868   9.584   7.436   3.032
 7818W        W11869   5.501  11.165   0.815
 7819W        W11870   7.438   4.779  11.534
 7820W        W11871   7.655   2.856  11.321
 7821W        W11872   3.902   8.882   3.742
 7822W        W11873   4.764   2.912   9.583
 7823W        W11874   8.955   3.781   0.207
 7824W        W11875   0.850   4.775  11.966
 7825W        W11876   6.237   1.330   3.202
 7826W        W11877  10.544   2.284   0.762
 7827W        W11878  10.127  10.440   3.209
 7828W        W11879   0.690  11.304  10.028
 7829W        W11880   4.764   4.165   2.432
 7830W        W11881  10.306   9.335   0.469
 7831W        W11882   8.055   6.314   3.707
 7832W        W11883   6.763   9.134   2.916
 7833W        W11884   1.471  11.238   1.347
 7834W        W11885   5.327   5.164  10.678
 7835W        W11886   0.001   1.232   2.339
 7836W        W11887   8.510   7.683  10.278
 7837W        W11888   3.366   3.759  11.045
 7838W        W11889   0.641   5.437   8.616
 7839W        W11890   6.779   9.909   2.756
 7840W        W11891   0.622   8.082  10.899
 7841W        W11892   5.941   6.104   1.376
 7842W        W11893   8.580   4.141   8.748
 7843W        W11894   9.604   9.885   2.229
 7844W        W11895   8.650   5.487  10.040
 7845W        W11896   9.111   2.795  10.814
 7846W        W11897   8.066   5.327  10.774
 7847W        W11898  10.412   2.476   9.139
 7848W        W11899   2.690   1.935   9.786
 7849W        W11900   1.124   1.389  11.548
 7850W        W11901   3.620  10.734   9.013
 7851W        W11902   6.374   0.317   1.864
 7852W        W11903   7.096  10.406  10.847
 7853W        W11904   0.750   2.309  11.794
 7854W        W11905   7.958   6.907   0.422
 7855W        W11906   9.986   0.481   0.740
 7856W        W11907   7.054   7.009   3.171
 7857W        W11908   0.361   6.488  10.966
 7858W        W11909   4.088   6.691   8.985
 7859W        W11910   3.350   0.385   8.883
 7860W        W11911   8.158   5.598   3.198
 7861W        W11912   0.005   7.911   0.449
 7862W        W11913   2.311   3.331   9.985
 7863W        W11914   7.478   0.761   9.738
 7864W        W11915   9.083   1.231   1.685
 7865W        W11916  11.305   2.136  11.145
 7866W        W11917   5.660   6.527  11.024
 7867W        W11918   4.919   6.734  11.774
 7868W        W11919   5.630   9.016   1.419
 7869W        W11920   7.035   8.357  11.268
 7870W        W11921   0.578   4.061  10.381
 7871W        W11922   2.660   4.690   9.961
 7872W        W11923   8.573   1.131   3.604
 7873W        W11924   3.723   8.859  10.503
 7874W        W11925   9.018   0.282  10.027
 7875W        W11926   5.883   2.178   0.273
 7876W        W11927   2.465   6.559  10.488
 7877W        W11928   5.865   0.079  10.428
 7878W        W11929   0.334   9.888   9.643
 7879W        W11930   0.870   2.286   8.973
 7880W        W11931  11.438   3.621  10.897
 7881W        W11932   5.632   2.431   2.178
 7882W        W11933   5.956   3.132  10.792
 7883W        W11934   9.389  10.146  11.562
 7884W        W11935   9.911   8.240  11.300
 7885W        W11936   0.414   0.806   9.516
 7886W        W11937   4.663   9.046   2.270
 7887W        W11938   2.324   3.779  10.768
 7888W        W11939   7.753   1.027  10.509
 7889W        W11940  10.913  10.505  10.866
 7890W        W11941   0.187   9.964   1.764
 7891W        W11942   7.907   5.995   0.503
 7892W        W11943   3.079  10.486   9.044
 7893W        W11944  10.147   3.260   0.838
 7894W        W11945   3.332  10.992   9.381
 7895W        W11946   4.555   1.903   9.612
 7896W        W11947  10.964   5.879  10.771
 7897W        W11948   5.352   8.508   3.610
 7898W        W11949   0.528   2.715  11.062
 7899W        W11950   5.545   2.855   8.882
 7900W        W11951  10.237   0.823  11.588
 7901W        W11952  10.519   1.492   8.919
 7902W        W11953   8.183   5.087   1.887
 7903W        W11954   6.010   8.052  11.482
 7904W        W11955   7.596   9.389   9.985
 7905W        W11956   6.691   3.145   1.931
 7906W        W11957  10.694   3.616   3.539
 7907W        W11958   9.628   1.969  10.033
 7908W        W11959   8.900   0.005  11.020
 7909W        W11960   9.586   3.116   2.986
 7910W        W11961   4.158   9.567   8.534
 7911W        W11962   4.349   1.824   0.207
 7912W        W11963  10.436  11.075  10.528
 7913W        W11964   7.667   7.667   2.795
 7914W        W11965   6.364   6.121  11.459
 7915W        W11966   7.623   7.065   9.699
 7916W        W11967   3.601   6.612   1.224
 7917W        W11968  10.961   7.648   9.495
 7918W        W11969   8.620   2.776  11.517
 7919W        W11970   8.865  11.295   9.084
 7920W        W11971  10.290   4.593  11.357
 7921W        W11972   5.352   3.231   3.170
 7922W        W11973   8.952  11.408   1.664
 7923W        W11974   4.076   6.826   1.670
 7924W        W11975   9.810   6.162  11.267
 7925W        W11976   4.185   1.074   3.164
 7926W        W11977   4.066   9.095  11.816
 7927W        W11978   3.772   9.747   0.713
 7928W        W11979  10.968   2.392   9.707
 7929W        W11980   9.277   8.512   8.982
 7930W        W11981  10.037   7.134  11.540
 7931W        W11982   5.276   9.859  10.950
 7932W        W11983   2.646   4.914   0.220
 7933W        W11984   9.541  10.319  10.736
 7934W        W11985   6.582   7.193   4.053
 7935W        W11986   5.916   8.382  10.859
 7936W        W11987   1.311   4.233   3.201
 7937W        W11988   1.709   0.685   2.598
 7938W        W11989   8.657   1.213  10.291
 7939W        W11990   4.251   5.999   2.179
 7940W        W11991   3.293   9.572  10.589
 7941W        W11992  10.965   4.283   1.995
 7942W        W11993   8.992   0.823   3.480
 7943W        W11994   9.716   5.107   9.124
 7944W        W11995   6.700   1.776   1.922
 7945W        W11996   9.151   1.258   2.708
 7946W        W11997   2.804   8.087   0.381
 7947W        W11998   1.282   7.152   0.909
 7948W        W11999   4.944  10.731   8.514
 7949W        W12000  11.288   5.713   0.223
 7950W        W12001   1.260   2.223  11.710
 7951W        W12002   5.303   8.069   8.167
 7952W        W12003   5.788   9.069   2.838
 7953W        W12004   9.314   7.236  11.210
 7954W        W12005   3.529   4.613   9.500
 7955W        W12006  11.009   5.321   9.400
 7956W        W12007  11.366   6.783   8.864
 7957W        W12008   9.148  10.879  11.277
 7958W        W12009  10.583  10.928   0.862
 7959W        W12010  10.563   6.306   9.922
 7960W        W12011  10.426   8.857   0.566
 7961W        W12012   6.598   7.669   3.589
 7962W        W12013   5.047  10.969   1.006
 7963W        W12014   2.276   4.212   0.981
 7964W        W12015   8.125   3.290   2.155
 7965W        W12016  10.129   2.378  11.799
 7966W        W12017   9.088   1.249  10.564
 7967W        W12018   9.024   0.295   9.096
 7968W        W12019   4.703   7.478   2.504
 7969W        W12020   3.384  10.719   2.763
 7970W        W12021   7.557   1.926   1.473
 7971W        W12022   5.759  11.364  11.283
 7972W        W12023   5.631   2.286  10.243
 7973W        W12024   9.884   7.017  10.503
 7974W        W12025   5.936   3.269   9.410
 7975W        W12026   8.876   7.556   2.401
 7976W        W12027   9.416   7.156   1.331
 7977W        W12028   2.189   0.490   2.951
 7978W        W12029   2.842   1.562   1.334
 7979W        W12030   2.329   4.713   9.419
 7980W        W12031   9.170   8.298   9.415
 7981W        W12032   4.140   4.293   3.144
 7982W        W12033   9.550  11.325  10.740
 7983W        W12034   7.953   4.882   9.861
 7984W        W12035   1.281   6.495  10.766
 7985W        W12036   7.894   4.775   0.192
 7986W        W12037   2.024   7.093   1.359
 7987W        W12038   1.004   2.458  10.297
 7988W        W12039   0.839   0.893   2.707
 7989W        W12040   6.120   1.978   0.749
 7990W        W12041   2.733   6.102   2.290
 7991W        W12042  10.449   5.685   2.388
 7992W        W12043   9.933  10.432   0.728
 7993W        W12044   7.488   8.582  11.366
 7994W        W12045   4.468   2.510   1.952
 7995W        W12046  11.221  11.499   1.759
 7996W        W12047   9.569   0.993   9.086
 7997W        W12048   8.903   0.434   0.842
 7998W        W12049   1.388   6.134   1.457
 7999W        W12050   2.254   9.012   9.443
 8000W        W12051  10.491   8.119   0.956
 8001W        W12052   9.388  11.364   0.233
 8002W        W12053   6.610  10.452   1.965
 8003W        W12054   0.392   4.027  11.386
 8004W        W12055  10.307   5.452   7.873
 8005W        W12056  11.303   0.636   9.353
 8006W        W12057   1.810   7.189  11.279
 8007W        W12058   8.687   5.148   1.825
 8008W        W12059  10.045   5.514  10.153
 8009W        W12060   2.245   5.662   1.712
 8010W        W12061   4.185   4.560   4.044
 8011W        W12062   0.707   9.869   1.767
 8012W        W12063   9.333   6.704   1.565
 8013W        W12064   8.161   4.341  10.968
 8014W        W12065   6.018   5.388   3.111
 8015W        W12066   9.836   8.964   1.353
 8016W        W12067  10.137   0.798  11.062
 8017W        W12068   2.421   6.117   9.931
 8018W        W12069   6.099  10.321  11.742
 8019W        W12070   7.656   7.109  10.208
 8020W        W12071   9.493   0.856   3.360
 8021W        W12072   6.434   2.415   9.771
 8022W        W12073   7.662  10.378   2.173
 8023W        W12074   9.053   8.803   9.357
 8024W        W12075   8.628   3.357   0.854
 8025W        W12076   3.586   6.047  11.149
 8026W        W12077   7.042   2.767   3.267
 8027W        W12078   7.921   9.426   1.318
 8028W        W12079   0.326  10.016   2.739
 8029W        W12080   8.213  10.360   3.540
 8030W        W12081   1.822   1.170  10.860
 8031W        W12082   1.794   0.843  10.439
 8032W        W12083   5.140   4.457   8.722
 8033W        W12084   8.850  10.380   2.732
 8034W        W12085   0.878   6.214   3.420
 8035W        W12086   7.487   8.828  11.867
 8036W        W12087   5.986   2.043   3.720
 8037W        W12088   4.213  10.036   9.747
 8038W        W12089  11.335   0.756   0.469
 8039W        W12090   1.830   5.974   1.686
 8040W        W12091   6.406   2.882  10.789
 8041W        W12092   1.731   0.979   1.081
 8042W        W12093   0.342   7.206  10.290
 8043W        W12094   0.810   9.929   2.584
 8044W        W12095   8.412   5.528   0.285
 8045W        W12096   0.803   5.072   0.755
 8046W        W12097   6.415  10.336   2.801
 8047W        W12098   1.757   5.043   3.598
 8048W        W12099  11.077   2.635   3.544
 8049W        W12100   7.899   4.131  10.583
 8050W        W12101   9.346   5.325   8.605
 8051W        W12102   1.167   4.052   8.971
 8052W        W12103   9.437   5.586   2.337
 8053W        W12104   6.065  11.352  11.704
 8054W        W12105   0.861   6.863   0.924
 8055W        W12106   6.059   1.180  11.757
 8056W        W12107   8.181   1.425  10.433
 8057W        W12108   4.750   1.497   0.454
 8058W        W12109   3.691   2.182  10.590
 8059W        W12110   6.999   3.165   1.489
 8060W        W12111  11.018   2.310   3.132
 8061W        W12112   1.330   0.313  11.719
 8062W        W12113   0.865   4.266   0.152
 8063W        W12114   7.504   3.120   9.975
 8064W        W12115   9.851   7.185   9.461
 8065W        W12116  10.545   3.342  10.471
 8066W        W12117   0.834   7.505   0.290
 8067W        W12118   6.888   0.275   1.788
 8068W        W12119  11.082   8.091   2.213
 8069W        W12120   4.928   4.620   9.864
 8070W        W12121   4.314   1.286  11.494
 8071W        W12122  10.463   1.866  10.084
 8072W        W12123   1.199   7.047   3.472
 8073W        W12124   9.854   4.697  11.687
 8074W        W12125   3.126  10.511  11.631
 8075W        W12126   0.064   3.845  11.868
 8076W        W12127   3.814   6.625   3.868
 8077W        W12128   8.590   4.625   0.481
 8078W        W12129   1.900   1.763  11.466
 8079W        W12130   0.020  11.239   0.499
 8080W        W12131   1.226   3.250  10.849
 8081W        W12132   7.933   0.749  11.933
 8082W        W12133   9.597   7.680   9.459
 8083W        W12134   9.250   4.323   2.095
 8084W        W12135   6.105   1.286   9.491
 8085W        W12136   8.761   7.112   0.766
 8086W        W12137   4.946   1.218  11.019
 8087W        W12138   8.198   4.314   9.039
 8088W        W12139   8.867   0.307  10.550
 8089W        W12140   1.919  10.388  10.015
 8090W        W12141   5.498  10.527  11.198
 8091W        W12142   9.000   7.347   0.380
 8092W        W12143   8.281   9.540   0.526
 8093W        W12144   8.965   1.676  10.287
 8094W        W12145   0.392   5.094  11.250
 8095W        W12146   6.656  10.768   2.716
 8096W        W12147   5.992   5.477   0.223
 8097W        W12148   2.341   1.451   1.459
 8098W        W12149   0.776   2.763   0.294
 8099W        W12150   5.970   3.676   9.752
 8100W        W12151   3.596   5.085   2.721
 8101W        W12152   9.494   2.443   9.190
 8102W        W12153  11.382   7.110   2.649
 8103W        W12154   7.530   0.080  10.774
 8104W        W12155   0.274   1.775   2.811
 8105W        W12156   8.916   1.655   3.409
 8106W        W12157   7.033   1.177   1.683
 8107W        W12158   8.344   6.198   2.433
 8108W        W12159   6.958   8.579   0.058
 8109W        W12160  10.480  10.571  10.566
 8110W        W12161   9.144  10.342   9.897
 8111W        W12162   1.506   5.090   1.227
 8112W        W12163   6.859   5.931  10.874
 8113W        W12164   6.946   4.207  10.487
 8114W        W12165   1.835   2.662  10.413
 8115W        W12166   4.661   2.716  10.127
 8116W        W12167   6.486   9.992  10.478
 8117W        W12168   2.460   0.333   9.944
 8118W        W12169   3.780  10.317   3.424
 8119W        W12170   3.046   9.302   0.766
 8120W        W12171  11.096   0.744  10.437
 8121W        W12172   0.441   5.305   1.976
 8122W        W12173   3.591   5.748  10.300
 8123W        W12174   1.739   5.578   3.533
 8124W        W12175   5.209   2.121  10.558
 8125W        W12176   0.236   8.985  11.134
 8126W        W12177   8.118   7.368  10.429
 8127W        W12178   5.810   0.001   1.795
 8128W        W12179   5.938   0.788   9.836
 8129W        W12180   2.373   1.205  10.839
 8130W        W12181   1.715   3.863  11.871
 8131W        W12182   4.619   9.941   0.518
 8132W        W12183   9.412   3.335  10.245
 8133W        W12184   3.673   6.115   1.501
 8134W        W12185   2.909  11.052   0.586
 8135W        W12186   2.704   7.472  10.722
 8136W        W12187   6.048   1.805   3.261
 8137W        W12188   6.190   1.801   8.547
 8138W        W12189   2.042  10.475   2.358
 8139W        W12190   9.374  10.006   3.409
 8140W        W12191  10.462   9.899   9.087
 8141W        W12192   5.689   2.347  11.797
 8142W        W12193   6.827  10.363   0.217
 8143W        W12194   3.068   4.263   3.305
 8144W        W12195   9.995  11.034   1.810
 8145W        W12196   7.349   0.270   2.025
 8146W        W12197   7.795   6.218  11.044
 8147W        W12198   4.283   8.145  11.884
 8148W        W12199   6.415  11.271   9.543
 8149W        W12200   3.176   5.594   9.997
 8150W        W12201   5.368  10.298   9.249
 8151W        W12202   5.779   7.990   0.708
 8152W        W12203   0.616   6.638  10.041
 8153W        W12204   2.807   7.515   8.833
 8154W        W12205   2.118  10.461  11.567
 8155W        W12206   1.524   2.232   9.705
 8156W        W12207   1.466   3.859  10.190
 8157W        W12208   3.763   4.970   9.836
 8158W        W12209   7.974   3.558  11.975
 8159W        W12210   5.464  11.061   2.663
 8160W        W12211   7.925   6.735  11.021
 8161W        W12212   6.636  11.304   9.996
 8162W        W12213   8.397   6.211   1.919
 8163W        W12214  10.413   3.021   8.528
 8164W        W12215  10.806   5.773   9.583
 8165W        W12216  10.422   3.119   1.664
 8166W        W12217   7.780   3.159   0.812
 8167W        W12218   5.168   7.016   0.814
 8168W        W12219   0.452   9.847   9.149
 8169W        W12220   5.057   0.395   2.685
 8170W        W12221   1.810   1.859   3.567
 8171W        W12222   6.053   4.798  11.248
 8172W        W12223   3.732   9.312  10.746
 8173W        W12224   1.240   4.970  11.217
 8174W        W12225   9.844  11.211   2.272
 8175W        W12226   5.338  10.802   9.479
 8176W        W12227   9.884   9.950   0.892
 8177W        W12228   7.639  11.012   1.835
 8178W        W12229   3.789   0.858   2.221
 8179W        W12230   4.150   9.583   1.769
 8180W        W12231   4.094  10.492   8.837
 8181W        W12232   5.835  11.310   1.291
 8182W        W12233  10.106   0.840   1.666
 8183W        W12234   1.045   0.019   0.051
 8184W        W12235  11.483  10.422   0.723
 8185W        W12236   2.334   5.419  11.546
 8186W        W12237  10.427   9.949  10.123
 8187W        W12238   0.973  10.899  10.791
 8188W        W12239  10.507   8.611   9.598
 8189W        W12240   4.283   3.159   1.225
 8190W        W12241   9.068   6.053  10.889
 8191W        W12242   9.397   4.846   8.784
 8192W        W12243  10.978   7.796   9.984
 8193W        W12244   8.910   4.143   8.356
 8194W        W12245   1.325   6.612   1.646
 8195W        W12246   6.033   8.377   9.856
 8196W        W12247   9.107   4.630   9.588
 8197W        W12248   8.176   2.780   9.460
 8198W        W12249   7.705   2.987   1.305
 8199W        W12250   3.323   1.412   1.481
 8200W        W12251   6.987   9.188   9.571
 8201W        W12252   0.816   9.081   8.710
 8202W        W12253   6.159   8.726   0.372
 8203W        W12254   1.477  10.957  10.747
 8204W        W12255   1.792   3.749   2.104
 8205W        W12256   4.855   3.357   3.202
 8206W        W12257  11.463   9.335   2.295
 8207W        W12258   2.673  11.480   0.706
 8208W        W12259   1.432   8.064   0.580
 8209W        W12260   6.852   3.532   2.762
 8210W        W12261   5.647   2.226   0.729
 8211W        W12262   9.809   4.270   9.516
 8212W        W12263   3.315   6.272  11.541
 8213W        W12264   4.000   2.270  10.972
 8214W        W12265   9.368   3.621   0.488
 8215W        W12266   7.538   7.156  11.166
 8216W        W12267   2.089   9.514   2.514
 8217W        W12268   2.938   7.940   8.537
 8218W        W12269   6.672   5.300  11.553
 8219W        W12270  10.923   8.990  11.500
 8220W        W12271   2.684   3.711   2.542
 8221W        W12272   5.070   9.349   1.022
 8222W        W12273   4.565   6.395   8.280
 8223W        W12274  10.108   3.272  11.395
 8224W        W12275   7.920   2.653   0.811
 8225W        W12276   9.428   9.689  11.332
 8226W        W12277  10.475   1.929   0.279
 8227W        W12278   9.644   3.798  10.371
 8228W        W12279   8.418   3.226  11.372
 8229W        W12280  10.857   1.842   1.358
 8230W        W12281   2.530   6.144  11.925
 8231W        W12282   4.257   8.784   2.112
 8232W        W12283   0.383   4.543   1.221
 8233W        W12284   0.717   7.646  11.808
 8234W        W12285   4.540   0.258   2.834
 8235W        W12286   9.072   5.911   1.406
 8236W        W12287   0.456  10.352   3.246
 8237W        W12288   0.712   2.784   8.938
 8238W        W12289   9.136   0.759   8.879
 8239W        W12290   5.332   8.408   2.108
 8240W        W12291  10.328   2.710   1.947
 8241W        W12292  10.472  10.581   0.065
 8242W        W12293   4.997   6.704   8.634
 8243W        W12294   1.262   9.315  10.555
 8244W        W12295   2.645   6.067   2.792
 8245W        W12296   6.379   4.085   1.783
 8246W        W12297   1.639   0.363  10.428
 8247W        W12298   9.582   4.637   1.884
 8248W        W12299   5.711   0.446  10.129
 8249W        W12300   7.127  11.491   0.886
 8250W        W12301   1.454   6.552  10.265
 8251W        W12302   5.943   2.100   9.054
 8252W        W12303   9.030   2.922  11.800
 8253W        W12304   4.328   8.571   1.642
 8254W        W12305  10.401   0.966   0.475
 8255W        W12306   3.166   0.944   3.533
 8256W        W12307   4.385   3.598  11.943
 8257W        W12308   3.699   4.110  11.396
 8258W        W12309   0.185  10.345  11.906
 8259W        W12310   8.477  11.422  11.710
 8260W        W12311   6.531   4.835   1.432
 8261W        W12312   2.421   0.304  10.838
 8262W        W12313  10.554   6.584   3.502
 8263W        W12314   1.533   5.094   0.307
 8264W        W12315  10.999   7.987   1.255
 8265W        W12316   2.672   0.954   2.750
 8266W        W12317   6.605   1.084   2.905
 8267W        W12318   5.577   7.582  10.453
 8268W        W12319   8.381   5.720  10.537
 8269W        W12320   9.413   9.142   9.447
 8270W        W12321   5.209   4.164   9.949
 8271W        W12322   4.103   0.976   0.719
 8272W        W12323  10.613   5.138  10.379
 8273W        W12324  10.435  11.476   0.227
 8274W        W12325   8.996   0.803  10.315
 8275W        W12326   2.268   6.158   0.968
 8276W        W12327   1.842   4.102  11.435
 8277W        W12328   6.958   7.475   2.312
 8278W        W12329   1.059   7.521   9.862
 8279W        W12330   2.633   6.918  11.724
 8280W        W12331   3.094   6.297   2.892
 8281W        W12332  11.018  10.817   1.201
 8282W        W12333   9.854   3.678   9.028
 8283W        W12334   8.779   6.363  11.218
 8284W        W12335   6.041   4.143   1.418
 8285W        W12336   0.300   6.019   3.599
 8286W        W12337   5.007   2.172  11.043
 8287W        W12338  10.774   0.381  10.307
 8288W        W12339   8.339   5.775   8.892
 8289W        W12340   4.821   4.882  11.485
 8290W        W12341   4.686   7.509   1.387
 8291W        W12342   2.247   4.171  11.106
 8292W        W12343   7.253   5.098   0.282
 8293W        W12344   9.369   7.259   9.289
 8294W        W12345   6.866  10.056   8.608
 8295W        W12346   7.123   2.875  11.271
 8296W        W12347   1.862   0.042   1.473
 8297W        W12348   9.650  11.214   0.675
 8298W        W12349   4.406   7.027  11.335
 8299W        W12350   8.904   5.602   0.414
 8300W        W12351  11.228   6.217   0.990
 8301W        W12352   5.515   8.892  11.649
 8302W        W12353   7.460   5.278  11.443
 8303W        W12354   7.410   9.288  10.959
 8304W        W12355   1.030   9.061   0.914
 8305W        W12356   0.173   3.538   1.071
 8306W        W12357   8.118   5.186  11.983
 8307W        W12358  10.331   4.752   0.463
 8308W        W12359   5.926  11.437   0.793
 8309W        W12360   5.657   4.685   8.750
 8310W        W12361   5.507   3.849  11.858
 8311W        W12362   2.832   8.776  10.560
 8312W        W12363   5.187   4.590   2.724
 8313W        W12364  10.366   2.944   0.359
 8314W        W12365   3.824   5.372   2.121
 8315W        W12366  10.350  10.136  11.847
 8316W        W12367   3.347   3.889   0.519
 8317W        W12368   6.634   0.256   9.734
 8318W        W12369  10.920   8.155   9.569
 8319W        W12370   2.376  11.029   9.572
 8320W        W12371   6.492   8.506   0.716
 8321W        W12372   5.074   6.087  10.844
 8322W        W12373   8.261   4.869  10.986
 8323W        W12374   9.285   6.169   0.983
 8324W        W12375   7.548  10.773   8.686
 8325W        W12376   3.338   5.492   2.945
 8326W        W12377   9.893   1.223  10.026
 8327W        W12378   2.775   2.844   2.446
 8328W        W12379   4.396  10.361   1.500
 8329W        W12380   9.503   8.035   1.288
 8330W        W12381   3.918   6.581   0.761
 8331W        W12382   3.381   5.695   8.272
 8332W        W12383   6.965   6.069   0.758
 8333W        W12384   0.832   5.078   9.532
 8334W        W12385   9.769   6.190   1.880
 8335W        W12386   1.352   0.470   9.530
 8336W        W12387   5.051   8.175   0.472
 8337W        W12388  10.454   4.467   1.875
 8338W        W12389   9.455  11.488  10.249
 8339W        W12390   8.913  10.445   1.652
 8340W        W12391   1.917   6.627  10.504
 8341W        W12392   8.967   2.560   9.888
 8342W        W12393   8.546   9.834   9.326
 8343W        W12394  10.692   3.749  10.157
 8344W        W12395   3.244   0.530   3.256
 8345W        W12396   0.854   2.323   2.710
 8346W        W12397   9.262   8.430   3.573
 8347W        W12398   6.169   9.315  11.759
 8348W        W12399   1.119  11.411   2.283
 8349W        W12400   5.209   3.616   3.514
 8350W        W12401   0.264   9.090   2.620
 8351W        W12402   5.715   1.251   9.850
 8352W        W12403   1.691   4.567  10.093
 8353W        W12404   5.751   0.333   3.460
 8354W        W12405   4.551   2.729   9.147
 8355W        W12406   1.748   9.425  10.521
 8356W        W12407   7.673   6.468   3.385
 8357W        W12408   9.288   9.385   9.010
 8358W        W12409   5.073   4.578   1.739
 8359W        W12410   3.283   6.198   9.330
 8360W        W12411   7.822   4.607  11.243
 8361W        W12412   3.816   5.773   0.703
 8362W        W12413   1.284   5.899   3.484
 8363W        W12414   7.085   2.656  11.964
 8364W        W12415   1.790   7.374   3.990
 8365W        W12416   4.669   8.858  10.499
 8366W        W12417   9.035   1.682   1.944
 8367W        W12418   8.351   4.358   0.868
 8368W        W12419   2.668   0.226   1.709
 8369W        W12420  10.523   8.660   3.167
 8370W        W12421   1.398   7.110   2.444
 8371W        W12422   2.385   4.857   2.817
 8372W        W12423  10.452   5.807   9.976
 8373W        W12424   4.228   4.273   8.803
 8374W        W12425   1.981   4.624   1.040
 8375W        W12426   5.099   7.198   1.370
 8376W        W12427   2.356   1.859   2.218
 8377W        W12428   8.918   5.083  10.297
 8378W        W12429   4.087   5.296  10.094
 8379W        W12430   8.337   3.852   2.345
 8380W        W12431   9.377   9.354  10.923
 8381W        W12432   4.812   7.742   0.563
 8382W        W12433   1.339   4.598   1.232
 8383W        W12434   8.541   9.554  11.537
 8384W        W12435   2.220   1.477   3.351
 8385W        W12436   3.250   0.123   2.943
 8386W        W12437   7.491   8.462   9.352
 8387W        W12438   1.364   7.090  10.024
 8388W        W12439   8.539   0.311  11.397
 8389W        W12440   7.167  11.303   1.824
 8390W        W12441  11.426   4.830   9.083
 8391W        W12442   0.298   9.908  10.156
 8392W        W12443   5.070   1.672  10.761
 8393W        W12444   1.938   6.154   8.925
 8394W        W12445   7.173   0.018   9.083
 8395W        W12446   7.426   4.362  10.605
 8396W        W12447   2.779   3.268   9.235
 8397W        W12448   6.215   2.866   0.436
 8398W        W12449   8.478   0.166   0.967
 8399W        W12450   2.170   0.413  11.294
 8400W        W12451   3.298   3.847   9.620
 8401W        W12452   6.388   3.358  10.648
 8402W        W12453   0.341   9.524   1.980
 8403W        W12454   0.938   5.998   1.664
 8404W        W12455   1.343   0.970   9.577
 8405W        W12456   1.371   5.082  10.720
 8406W        W12457   7.502   0.266   9.638
 8407W        W12458   3.750   8.524   8.718
 8408W        W12459   4.198  10.948   0.741
 8409W        W12460   9.205   1.373   0.733
 8410W        W12461   2.367   5.276   2.493
 8411W        W12462   2.753   8.032   3.148
 8412W        W12463   6.140   3.450  11.150
 8413W        W12464   4.151   0.889   9.141
 8414W        W12465   5.985   7.242   3.196
 8415W        W12466  10.550   6.007  11.814
 8416W        W12467   3.355  11.391   8.698
 8417W        W12468   7.507   8.592   1.846
 8418W        W12469   1.230  10.431   0.511
 8419W        W12470   6.544   9.589  11.514
 8420W        W12471   9.103   2.463   0.696
 8421W        W12472   3.112   0.677  11.036
 8422W        W12473   8.600   0.707   8.992
 8423W        W12474   1.590   7.608   2.285
 8424W        W12475  11.461   6.514  10.555
 8425W        W12476   7.682   1.818   1.978
 8426W        W12477   7.176   1.205  11.776
 8427W        W12478   4.680   2.869   3.567
 8428W        W12479   6.794   0.378   8.959
 8429W        W12480   2.759   7.395   9.826
 8430W        W12481   0.385   4.993  10.742
 8431W        W12482  10.843  11.413  10.510
 8432W        W12483   1.285   3.289   3.133
 8433W        W12484  10.854   0.856   9.557
 8434W        W12485   8.419   2.448   9.073
 8435W        W12486   1.334   6.217   1.987
 8436W        W12487   7.771   6.122   8.819
 8437W        W12488   9.898   7.191   1.877
 8438W        W12489   9.553   3.863   8.585
 8439W        W12490   6.380   2.069   4.091
 8440W        W12491   2.914   8.418  11.888
 8441W        W12492   9.435   1.733   3.438
 8442W        W12493  10.852  10.070   0.919
 8443W        W12494   3.152   6.656   2.550
 8444W        W12495   4.825  10.318   1.821
 8445W        W12496   3.208  10.070   9.852
 8446W        W12497   6.007  10.988   1.959
 8447W        W12498   3.166   0.320   0.985
 8448ION    NA+12499   2.201   0.084   1.895
 8449ION    NA+12500   3.680   7.547   1.136
 8450ION    NA+12501   9.644   3.934  11.236
 8451ION    NA+12502   3.101   8.853   1.559
 8452ION    NA+12503   9.454   4.686  10.605
 8453ION    NA+12504   2.210   6.603   2.145
 8454ION    NA+12505   4.802   3.791  11.716
 8455ION    NA+12506   7.472   1.270   3.660
 8456ION    NA+12507  11.498   8.479  10.396
 8457ION    NA+12508   6.179   8.183   2.223
 8458ION    NA+12509   9.570   8.366  11.871
 8459ION    NA+12510   9.464   6.091   0.220
 8460ION    NA+12511   3.380   5.690   1.646
 8461ION    NA+12512   9.322   0.919  11.714
 8462ION    NA+12513   5.253   4.970   2.073
 8463ION    NA+12514  11.444   5.188  10.590
 8464ION    NA+12515   7.395   3.524   2.190
 8465ION    NA+12516   7.966  10.491   9.347
 8466ION    NA+12517   0.249   7.398   8.916
 8467ION    NA+12518   9.415   6.452   9.553
 8468ION    NA+12519   2.145   8.168   9.741
 8469ION    NA+12520   7.604   2.169   8.798
 8470ION    NA+12521   8.093   2.601   3.880
 8471ION    NA+12522   8.854  10.968   9.484
 8472ION    NA+12523   5.248   6.348  11.285
 8473ION    NA+12524   0.552   7.496   9.752
 8474ION    NA+12525   9.123  10.657   0.799
 8475ION    NA+12526   3.795   4.018  10.146
 8476ION    NA+12527   9.379   7.733  11.258
 8477ION    NA+12528   3.914   2.169   1.708
 8478ION    NA+12529   4.826   0.946   2.140
 8479ION    NA+12530   1.273   5.050  11.812
 8480ION    NA+12531   0.968  11.189   8.982
 8481ION    NA+12532   8.784   8.380  11.733
 8482ION    NA+12533   0.878   4.015   3.034
 8483ION    NA+12534   7.073   1.358   2.692
 8484ION    NA+12535   5.079   2.096  11.944
 8485ION    NA+12536   4.145   0.737  10.401
 8486ION    NA+12537  10.568   0.081   1.482
 8487ION    NA+12538   5.606   7.578   2.451
 8488ION    NA+12539  11.174   0.482   2.688
 8489ION    NA+12540   4.228   3.957   0.587
 8490ION    NA+12541   6.019   9.435   2.541
 8491ION    NA+12542   3.194   2.358   0.435
 8492ION    NA+12543   1.505   2.220   8.869
 8493ION    NA+12544   3.046   8.916  11.867
 8494ION    NA+12545   4.189   1.773   2.585
 8495ION    NA+12546   8.540   6.842   9.849
 8496ION    NA+12547   7.515   9.558   1.011
 8497ION    NA+12548   7.436   0.857   0.082
 8498ION    NA+12549   1.832   4.130   1.273
 8499ION    NA+12550   7.953   6.374  10.581
 8500ION    NA+12551   3.088   5.832   2.620
 8501ION    NA+12552   5.335   1.700   2.193
 8502ION    NA+12553   0.246   4.376  11.713
 8503ION    NA+12554   3.055   8.288   0.890
 8504ION    NA+12555   7.136   1.692   1.669
 8505ION    NA+12556   3.072  11.039   7.996
 8506ION    NA+12557   8.199   1.107   2.922
 8507ION    NA+12558   4.043   8.428   0.835
 8508ION    NA+12559   9.265   0.047   0.895
 8509ION    NA+12560   3.565   2.084   3.639
 8510ION    NA+12561   5.365  10.100  11.422
 8511ION    NA+12562   7.938   5.108   3.173
 8512ION    NA+12563  11.376   7.931  11.970
 8513ION    NA+12564   9.340   0.753   9.930
 8514ION    NA+12565  11.439  11.061  11.986
 8515ION    NA+12566  11.038   6.512  10.177
 8516ION    NA+12567   5.749   2.805   9.544
 8517ION    NA+12568   6.683   9.167   8.788
 8518ION    NA+12569   0.995   5.111   1.240
 8519ION    NA+12570   7.556   0.248  11.298
 8520ION    NA+12571   0.417   0.419   9.105
 8521ION    NA+12572   2.354   7.762   8.537
 8522ION    NA+12573   8.980   3.298   0.437
 8523ION    NA+12574   9.610   1.563   2.431
 8524ION    NA+12575  10.463   7.694   9.845
 8525ION    NA+12576  10.513   4.156   0.732
 8526ION    NA+12577   7.427   8.683   8.884
 8527ION    NA+12578   0.585   1.493  11.500
 8528ION    NA+12579   9.753  10.134  11.168
 8529ION    NA+12580  10.339  11.012   0.393
 8530ION    NA+12581   9.550   1.488   9.273
 8531ION    NA+12582   0.058   1.867  10.736
 8532ION    NA+12583   8.587   4.539   2.667
 8533ION    NA+12584   1.806  11.207   0.432
 8534ION    NA+12585   2.640   3.412  10.390
 8535ION    NA+12586   8.498   0.185   9.866
 8536ION    NA+12587   5.131   3.415   8.244
 8537ION    CL-12588   2.824   4.612   2.957
 8538ION    CL-12589   4.695   3.270   8.251
 8539ION    CL-12590   0.391   2.346   3.531
 8540ION    CL-12591   1.215  11.346  11.525
 8541ION    CL-12592  10.015   4.155   3.512
 8542ION    CL-12593  11.143  11.429  10.919
 8543ION    CL-12594   5.810  10.103  11.373
 8544ION    CL-12595   9.144   3.754  10.377
 8545ION    CL-12596   9.466  10.487  11.209
 8546ION    CL-12597   0.089   0.590  10.314
 8547ION    CL-12598   2.809   5.109  11.760
 8548ION    CL-12599   5.081   1.326   2.119
 8549ION    CL-12600   3.512  10.725   3.615
 8550ION    CL-12601  11.250   4.080   1.556
 8551ION    CL-12602   1.520   7.643  11.364
 8552ION    CL-12603   0.349   1.521  10.835
 8553ION    CL-12604   6.395   9.324   2.326
 8554ION    CL-12605   0.307  10.517  10.899
 8555ION    CL-12606   4.595   3.959  10.361
 8556ION    CL-12607   6.228   9.339  10.152
 8557ION    CL-12608   0.705   0.060   9.094
 8558ION    CL-12609   2.655   2.203  10.850
 8559ION    CL-12610   7.708   1.723   8.771
 8560ION    CL-12611   9.502   1.858   2.107
 8561ION    CL-12612   9.060   1.184  11.469
 8562ION    CL-12613   0.851   8.792  11.559
 8563ION    CL-12614   8.301   0.709   2.744
 8564ION    CL-12615   9.285  10.991   3.525
 8565ION    CL-12616  11.428   0.843   2.734
 8566ION    CL-12617   8.276   4.618  11.472
 8567ION    CL-12618   2.515   9.868   9.483
 8568ION    CL-12619   8.596   3.081   0.382
 8569ION    CL-12620   9.390   2.893   9.931
 8570ION    CL-12621   4.767   7.229   2.933
 8571ION    CL-12622   9.158   8.589  11.928
 8572ION    CL-12623   8.591   8.125  11.403
 8573ION    CL-12624   6.117   7.401   0.234
 8574ION    CL-12625  10.519   2.172   3.112
 8575ION    CL-12626  11.224   9.426   0.755
 8576ION    CL-12627   1.757   4.970   4.100
 8577ION    CL-12628   0.500   1.844  11.769
 8578ION    CL-12629   8.617  11.270   9.721
 8579ION    CL-12630   1.978  10.175   3.311
 8580ION    CL-12631   8.561   2.125  11.000
 8581ION    CL-12632  11.469   1.443   0.516
 8582ION    CL-12633   2.725  10.998   3.061
 8583ION    CL-12634   8.067   7.908  10.430
 8584ION    CL-12635  10.092   9.872  11.011
 8585ION    CL-12636   4.174   0.061   8.361
 8586ION    CL-12637   0.310   6.749   1.618
 8587ION    CL-12638   5.783   7.978   2.316
 8588ION    CL-12639   7.400   7.070   1.685
 8589ION    CL-12640   1.304   2.257   9.266
 8590ION    CL-12641   9.694   3.493  11.170
 8591ION    CL-12642   5.870  10.376  10.037
 8592ION    CL-12643   2.067  11.075   8.696
 8593ION    CL-12644   4.083   4.072   0.995
 8594ION    CL-12645   0.417  10.523   0.954
 8595ION    CL-12646   3.082   8.485   1.298
 8596ION    CL-12647   9.192  11.101   0.865
 8597ION    CL-12648  10.399   3.994   2.074
 8598ION    CL-12649  10.828   1.191  10.557
 8599ION    CL-12650   4.702   7.864   1.748
 8600ION    CL-12651   5.642   3.240  11.295
 8601ION    CL-12652  10.528   7.031   0.443
 8602ION    CL-12653   2.766   3.832  10.465
 8603ION    CL-12654   4.831   1.307   8.901
 8604ION    CL-12655   0.020   7.717   8.447
 8605ION    CL-12656   6.924   9.288  11.272
 8606ION    CL-12657   9.835   8.549   9.847
 8607ION    CL-12658   5.946   7.035   9.839
 8608ION    CL-12659   4.247   0.548  10.011
 8609ION    CL-12660   9.565   7.990  11.583
 8610ION    CL-12661   0.338   7.454   9.358
 8611ION    CL-12662   8.081   7.372   2.828
 8612ION    CL-12663   1.658   6.524   9.431
 8613ION    CL-12664   7.008   8.841   8.769
 8614ION    CL-12665   2.123  10.906   0.344
 8615ION    CL-12666   9.578   4.387   2.488
 8616ION    CL-12667   5.505   6.016  11.135
 8617ION    CL-12668   4.836   5.234  10.820
 8618ION    CL-12669   7.084   0.681   0.294
 8619ION    CL-12670   0.604   8.083   3.185
 8620ION    CL-12671  11.183   2.120  10.659
 8621ION    CL-12672   4.221   9.619   0.503
 8622ION    CL-12673   0.985  10.073   9.118
 8623ION    CL-12674   6.508   4.449  11.950
 8624ION    CL-12675   0.448   8.579   1.466
 8625ION    CL-12676   6.760   7.563  10.084
  11.50000  11.50000  12.00000
