Protein in INSANE! Membrane UpperLeaflet>POPC=1.0 LowerLeaflet>POPC=1.0
11125
    1AU     AUC    1   8.907   1.152   6.568  0.0659 -0.0649 -0.0605
    1AU     AUC    2   8.637   1.195   6.769 -0.0010 -0.0241 -0.0814
    1AU     AUC    3   8.988   1.209   6.889 -0.0477  0.0621 -0.1196
    1AU     AUC    4   8.888   1.046   6.263 -0.0942 -0.0039 -0.1370
    1AU     AUC    5   9.223   1.042   6.414  0.0721  0.0641 -0.0161
    1AU     AUC    6   9.005   0.825   6.482  0.0151 -0.0524 -0.0019
    1AU     AUC    7   8.819   0.907   6.794 -0.0493  0.1369  0.0673
    1AU     AUC    8   9.012   1.360   6.319 -0.0016 -0.0862 -0.0146
    1AU     AUC    9   8.860   1.451   6.672  0.0002  0.0231  0.0190
    1AU     AUC   10   9.168   1.308   6.648 -0.0192  0.0181 -0.1279
    1AU     AUC   11   9.153   0.962   6.733 -0.0729 -0.0384  0.0221
    1AU     AUC   12   8.689   1.275   6.422 -0.0049  0.0846 -0.0122
    1AU     AUC   13   8.661   0.969   6.531 -0.0987  0.0518 -0.0516
    1AU     AUC   14   8.361   1.253   6.985 -0.0227  0.0081 -0.0126
    1AU     AUC   15   8.699   1.299   7.105 -0.0628 -0.0336  0.0288
    1AU     AUC   16   9.035   1.285   7.198 -0.0702 -0.0544 -0.1131
    1AU     AUC   17   8.853   0.987   5.897 -0.0167  0.0062  0.1134
    1AU     AUC   18   9.201   0.958   6.041  0.0287 -0.0264  0.0439
    1AU     AUC   19   9.522   0.930   6.237  0.0556 -0.0832  0.0187
    1AU     AUC   20   9.015   0.472   6.391 -0.0618 -0.0283 -0.0980
    1AU     AUC   21   8.851   0.542   6.721 -0.0273  0.0056 -0.0157
    1AU     AUC   22   8.740   0.669   7.001  0.0330  0.0390  0.0538
    1AU     AUC   23   9.112   1.572   6.101  0.0560  0.0236 -0.0260
    1AU     AUC   24   8.941   1.704   6.368 -0.0203 -0.0041 -0.0890
    1AU     AUC   25   8.784   1.788   6.734 -0.1483  0.0750 -0.0995
    1AU     AUC   26   9.466   1.490   6.723  0.0277 -0.0347 -0.0316
    1AU     AUC   27   9.476   1.140   6.801 -0.1099 -0.0325  0.0270
    1AU     AUC   28   9.421   0.790   6.921 -0.0768  0.0413 -0.0328
    1AU     AUC   29   8.435   1.411   6.300  0.0094 -0.0263  0.0422
    1AU     AUC   30   8.383   1.126   6.329  0.0118 -0.0360 -0.0045
    1AU     AUC   31   8.387   0.793   6.427  0.0099 -0.0498 -0.0137
    1AU     AUC   32   9.269   1.427   6.941  0.0805 -0.0920 -0.0523
    1AU     AUC   33   9.251   1.077   7.075 -0.0789  0.0257 -0.0371
    1AU     AUC   34   8.358   1.332   6.638  0.0352 -0.1237 -0.0356
    1AU     AUC   35   8.349   0.990   6.726  0.0218  0.0157  0.0095
    1AU     AUC   36   9.514   1.189   6.499  0.0490  0.0953  0.0444
    1AU     AUC   37   9.477   0.819   6.579  0.0198  0.0450 -0.0527
    1AU     AUC   38   8.645   1.192   6.086  0.0055 -0.0294 -0.0305
    1AU     AUC   39   8.587   0.908   6.131 -0.0269 -0.0122  0.0380
    1AU     AUC   40   8.549   0.967   7.049  0.0635  0.0056 -0.0435
    1AU     AUC   41   8.892   0.994   7.126 -0.0017 -0.0875  0.0245
    1AU     AUC   42   8.958   0.716   6.139  0.0305 -0.0221 -0.0628
    1AU     AUC   43   9.285   0.685   6.333 -0.0015  0.0227 -0.0681
    1AU     AUC   44   8.582   1.529   6.879 -0.0063 -0.0146 -0.0146
    1AU     AUC   45   8.926   1.581   6.973 -0.0280 -0.0015 -0.0577
    1AU     AUC   46   9.044   1.279   5.980  0.0900  0.0749  0.0091
    1AU     AUC   47   9.334   1.267   6.180  0.0755  0.0930 -0.0337
    1AU     AUC   48   9.195   0.568   6.671  0.1103 -0.0540  0.1059
    1AU     AUC   49   9.112   0.730   6.966  0.0354  0.0133  0.0058
    1AU     AUC   50   9.293   1.548   6.431 -0.0589  0.1017  0.0135
    1AU     AUC   51   9.124   1.675   6.711  0.0671 -0.0097 -0.0296
    1AU     AUC   52   8.691   0.662   6.400  0.0009  0.0823 -0.0565
    1AU     AUC   53   8.536   0.706   6.714  0.0794 -0.0219  0.0594
    1AU     AUC   54   8.727   1.518   6.164  0.0536 -0.0057 -0.0466
    1AU     AUC   55   8.600   1.575   6.512 -0.0849 -0.0228 -0.0806
    1AU    AUSL   56   9.391   1.379   7.310  0.0296  0.1120 -0.0018
    1AU    AUSL   57   9.438   1.733   6.989 -0.0022  0.0460 -0.0766
    1AU     AUL   58   9.456   1.736   7.402 -0.0128 -0.0502 -0.0469
    1AU       S   59   9.292   2.122   7.245  0.0109 -0.0300  0.2045
    1AU     LIG   60   9.761   2.243   7.241 -0.0143 -0.1179 -0.2577
    1AU     LIG   61  10.181   2.188   7.285 -0.0841  0.0959  0.0555
    1AU     LIG   62  10.565   2.531   7.213  0.4881 -0.3074  0.1460
    1AU     LIG   63  10.935   2.673   7.518  0.0130 -0.4525 -0.0631
    1AU       S   64   9.888   1.534   7.440  0.3155  0.4101 -0.1674
    1AU     LIG   65  10.157   1.277   7.634  0.0061 -0.1134  0.3140
    1AU     LIG   66  10.523   1.072   7.560 -0.0722  0.1095  0.2978
    1AU     LIG   67  10.506   0.850   7.116  0.1569 -0.2200 -0.0329
    1AU     LIG   68  10.566   0.585   6.805  0.2918 -0.2236  0.1002
    1AU    AUSL   69   9.695   1.394   6.977 -0.0165  0.0040 -0.1456
    1AU    AUSL   70   9.817   0.925   6.887  0.0516  0.0673  0.0023
    1AU     AUL   71   9.934   1.113   7.149 -0.0088  0.0615  0.0931
    1AU       S   72   9.895   1.595   7.141  0.1128  0.0033  0.1298
    1AU     LIG   73  10.027   1.843   6.919  0.0205 -0.0386 -0.0709
    1AU     LIG   74  10.356   2.199   6.690  0.0089  0.0383 -0.1244
    1AU     LIG   75  10.779   2.171   6.489 -0.3210  0.1444  0.0352
    1AU     LIG   76  11.160   2.264   6.520  0.0153  0.0097  0.0685
    1AU       S   77  10.165   1.090   6.735  0.2373  0.3825 -0.4120
    1AU     LIG   78  10.265   0.691   6.328 -0.1194  0.0897 -0.0570
    1AU     LIG   79  10.508   0.491   5.943 -0.0668  0.0437 -0.0389
    1AU     LIG   80  10.682   0.194   5.739 -0.1674 -0.2901  0.0301
    1AU     LIG   81  10.880  -0.111   5.519 -0.1300 -0.2566  0.2359
    1AU    AUSL   82   9.457   1.038   7.044 -0.0207  0.0058 -0.0828
    1AU    AUSL   83   9.220   1.015   7.450  0.0471 -0.0501  0.0933
    1AU     AUL   84   9.579   1.138   7.447  0.0424 -0.0187 -0.1035
    1AU       S   85   9.829   0.710   7.334 -0.0830 -0.0942 -0.1768
    1AU     LIG   86  10.061   0.273   7.139  0.1599 -0.1203  0.0886
    1AU     LIG   87  10.283   0.169   6.799  0.0885  0.2806  0.0603
    1AU     LIG   88  10.399  -0.206   6.559 -0.2872 -0.3673  0.1023
    1AU     LIG   89  10.429  -0.679   6.410  0.2405 -0.2182 -0.0442
    1AU       S   90   9.314   0.856   7.731  0.2343 -0.1236  0.0947
    1AU     LIG   91   9.711   0.966   7.888  0.1121  0.3495  0.0666
    1AU     LIG   92   9.928   1.108   8.048  0.5807  0.1904  0.1671
    1AU     LIG   93  10.337   1.220   8.090  0.3829 -0.0065 -0.0375
    1AU     LIG   94  10.733   1.422   7.970 -0.1703 -0.1655 -0.2295
    1AU    AUSL   95   8.107   1.136   6.823  0.0641  0.0764  0.0142
    1AU    AUSL   96   8.159   0.688   6.783 -0.0017 -0.0001 -0.0224
    1AU     AUL   97   7.865   0.881   6.886  0.0193  0.1098 -0.0132
    1AU       S   98   7.716   0.968   6.446 -0.0855  0.3564  0.3269
    1AU     LIG   99   7.436   0.720   6.691  0.0115 -0.2267 -0.2198
    1AU     LIG  100   7.140   0.474   6.563  0.0018  0.4681  0.4814
    1AU     LIG  101   7.233   0.113   6.361  0.0654  0.0833  0.1926
    1AU     LIG  102   7.566   0.044   6.016 -0.3803  0.2845  0.2906
    1AU       S  103   7.973   0.477   7.113  0.3885  0.1677 -0.0685
    1AU     LIG  104   7.496   0.390   7.075  0.0550 -0.2119  0.0443
    1AU     LIG  105   7.226   0.057   6.864  0.2839 -0.3202  0.2175
    1AU     LIG  106   6.783  -0.183   7.018  0.6810 -0.2435  0.1651
    1AU     LIG  107   6.426  -0.292   7.313  0.4479 -0.5985  0.1061
    1AU    AUSL  108   7.999   1.344   6.458  0.0679  0.0294 -0.1180
    1AU    AUSL  109   8.106   1.548   6.888 -0.0158  0.0483 -0.0413
    1AU     AUL  110   7.855   1.350   6.828  0.0168  0.0455  0.0710
    1AU       S  111   7.833   1.833   6.822  0.3281  0.3042 -0.1535
    1AU     LIG  112   7.458   1.628   7.038 -0.2275  0.0534  0.1100
    1AU     LIG  113   6.987   1.604   7.102 -0.1185  0.3495  0.5348
    1AU     LIG  114   6.579   1.374   7.335  0.1781 -0.0813 -0.4966
    1AU     LIG  115   6.196   1.282   7.325 -0.0027  0.1661  0.1612
    1AU       S  116   7.646   1.144   6.466 -0.2880  0.4250  0.0941
    1AU     LIG  117   7.526   1.476   6.361 -0.0419  0.2207 -0.0879
    1AU     LIG  118   7.285   1.640   6.070  0.1945 -0.4154  0.5073
    1AU     LIG  119   7.307   1.993   5.789  0.2441  0.1010  0.2418
    1AU     LIG  120   7.062   1.946   5.462  0.3242 -0.0536 -0.1684
    1AU    AUSL  121   8.218   0.957   6.442 -0.0642  0.0730 -0.0879
    1AU    AUSL  122   8.258   1.249   6.121 -0.1176 -0.0123 -0.0056
    1AU     AUL  123   7.970   1.308   6.177 -0.0249  0.0056  0.0146
    1AU       S  124   7.964   1.141   5.728 -0.0629 -0.5150 -0.3259
    1AU     LIG  125   7.615   0.972   5.416 -0.0845 -0.3949 -0.3308
    1AU     LIG  126   7.171   0.855   5.599  0.5388  0.2590  0.3505
    1AU     LIG  127   6.790   0.614   5.561 -0.3071  0.2223  0.1927
    1AU     LIG  128   6.626   0.167   5.533  0.0976 -0.0883 -0.1010
    1AU       S  129   7.865   0.823   6.413 -0.3562 -0.0211 -0.3337
    1AU     LIG  130   7.489   0.612   6.089 -0.1538 -0.0856 -0.1406
    1AU     LIG  131   7.022   0.494   6.039  0.4702  0.1658 -0.0183
    1AU     LIG  132   6.740   0.706   6.231  0.4493  0.0087  0.1271
    1AU     LIG  133   6.616   0.626   6.604  0.3211 -0.2433 -0.0436
    1AU    AUSL  134   9.847   0.891   6.431 -0.0009 -0.0350  0.0915
    1AU    AUSL  135   9.586   0.615   6.737 -0.0258  0.0582 -0.0067
    1AU     AUL  136   9.959   0.664   6.726 -0.0458  0.0413  0.0536
    1AU       S  137  10.270   1.123   6.569  0.0401 -0.2617  0.1477
    1AU     LIG  138  10.681   1.148   6.655 -0.1188 -0.0610 -0.2233
    1AU     LIG  139  11.063   0.865   6.840 -0.2183  0.4517 -0.1525
    1AU     LIG  140  11.288   0.658   7.119 -0.4447  0.2904  0.1210
    1AU     LIG  141  11.488   0.426   7.283  0.0095 -0.0174  0.1459
    1AU       S  142   9.816   0.252   6.475 -0.2759 -0.4211  0.1609
    1AU     LIG  143   9.843  -0.092   6.842  0.1560 -0.3476  0.1649
    1AU     LIG  144   9.677  -0.551   6.922 -0.2851  0.1516 -0.4030
    1AU     LIG  145   9.600  -1.026   6.994  0.0086 -0.1520 -0.3432
    1AU     LIG  146   9.487  -1.285   6.683  0.2071 -0.1990  0.1011
    1AU    AUSL  147   9.625   1.212   6.606  0.1018 -0.0096 -0.0074
    1AU    AUSL  148   9.793   1.279   6.227  0.0124 -0.0326  0.0562
    1AU     AUL  149   9.947   1.077   6.241  0.0886 -0.0002 -0.0294
    1AU       S  150  10.112   1.538   6.250 -0.4478 -0.0245  0.2658
    1AU     LIG  151  10.398   1.972   6.260 -0.2553  0.0171  0.4507
    1AU     LIG  152  10.505   2.288   6.056  0.2056 -0.2772  0.4326
    1AU     LIG  153  10.761   2.688   6.114 -0.1961  0.2437 -0.2441
    1AU     LIG  154  10.795   3.018   6.334 -0.0496  0.0001 -0.0799
    1AU       S  155  10.057   1.313   6.674 -0.4947 -0.1048 -0.1623
    1AU     LIG  156  10.363   1.581   6.701 -0.4123  0.2449  0.0806
    1AU     LIG  157  10.763   1.711   6.450 -0.1256  0.0173  0.0777
    1AU     LIG  158  11.158   1.739   6.326 -0.1354  0.1450  0.1991
    1AU     LIG  159  11.556   1.911   6.261 -0.3179 -0.0622 -0.1399
    1AU    AUSL  160   8.459   1.081   5.784 -0.0697  0.0091  0.0379
    1AU    AUSL  161   8.578   1.467   5.957 -0.0718 -0.0116 -0.0560
    1AU     AUL  162   8.278   1.450   5.852 -0.0605 -0.0152  0.0710
    1AU       S  163   8.110   1.130   5.527  0.3505 -0.2118  0.1228
    1AU     LIG  164   8.001   0.691   5.429 -0.1224  0.0709 -0.2888
    1AU     LIG  165   7.827   0.440   5.676  0.0535  0.0113 -0.1683
    1AU     LIG  166   7.302   0.334   5.641 -0.1598 -0.2466  0.0760
    1AU     LIG  167   7.044   0.066   5.809  0.2380  0.0291  0.2541
    1AU       S  168   8.574   1.572   5.514 -0.1131  0.0921 -0.4042
    1AU     LIG  169   8.211   1.900   5.612  0.0888 -0.0060  0.0983
    1AU     LIG  170   7.902   2.194   5.730 -0.1438 -0.1695  0.1352
    1AU     LIG  171   7.519   2.390   6.039 -0.3433 -0.3240  0.1601
    1AU     LIG  172   7.173   2.477   6.346 -0.2540  0.0193 -0.0282
    1AU    AUSL  173   8.167   0.838   6.032 -0.0989 -0.0861 -0.0084
    1AU    AUSL  174   8.675   0.712   5.762  0.0033 -0.0186 -0.1061
    1AU     AUL  175   8.360   0.791   5.734  0.0188  0.0463  0.0240
    1AU       S  176   8.634   0.461   5.481  0.2354 -0.2760  0.0275
    1AU     LIG  177   8.769   0.084   5.373 -0.0799  0.4160 -0.0958
    1AU     LIG  178   8.969  -0.042   4.963 -0.2142 -0.0566  0.3212
    1AU     LIG  179   9.285  -0.065   4.608 -0.3616 -0.1277 -0.3634
    1AU     LIG  180   9.686  -0.211   4.482  0.0917  0.2841  0.1017
    1AU       S  181   7.904   0.944   5.887 -0.2151 -0.1149 -0.0297
    1AU     LIG  182   7.545   1.119   5.995 -0.3675  0.3250 -0.0696
    1AU     LIG  183   7.119   1.094   6.112 -0.0178  0.1153 -0.2926
    1AU     LIG  184   6.918   1.012   6.602  0.1903  0.0100  0.4161
    1AU     LIG  185   7.071   0.779   7.040  0.1802  0.1879  0.1528
    1AU    AUSL  186   8.597   0.845   7.394  0.0100  0.0307 -0.0185
    1AU    AUSL  187   8.228   0.928   7.164  0.0465  0.0402 -0.0050
    1AU     AUL  188   8.286   0.827   7.560  0.0065  0.0168  0.0827
    1AU       S  189   8.051   0.634   7.232  0.2755  0.1213  0.0332
    1AU     LIG  190   7.806   1.025   7.369  0.3251 -0.1745  0.1118
    1AU     LIG  191   7.436   1.134   7.200  0.0139 -0.0478  0.0452
    1AU     LIG  192   7.282   1.291   6.757 -0.0970  0.3162 -0.3012
    1AU     LIG  193   6.985   1.510   6.441  0.0119 -0.0298  0.0939
    1AU       S  194   8.607   1.050   7.826  0.0050 -0.0583  0.0041
    1AU     LIG  195   8.535   0.736   8.028  0.4951 -0.1919  0.4360
    1AU     LIG  196   8.449   0.529   8.437  0.0607  0.1610 -0.2743
    1AU     LIG  197   8.805   0.438   8.750 -0.1130 -0.3198 -0.0207
    1AU     LIG  198   9.018   0.774   9.057 -0.2301 -0.0205 -0.3612
    1AU    AUSL  199   8.423   1.243   7.367  0.0097  0.0486  0.1340
    1AU    AUSL  200   8.718   1.586   7.403 -0.0713  0.0300  0.0626
    1AU     AUL  201   8.303   1.521   7.514  0.0910  0.0760 -0.0308
    1AU       S  202   8.601   1.258   7.757 -0.0189 -0.0659 -0.1024
    1AU     LIG  203   8.157   1.210   7.923  0.1124 -0.1541 -0.1141
    1AU     LIG  204   7.962   0.904   7.974 -0.2413  0.6269  0.1280
    1AU     LIG  205   7.833   0.667   7.670  0.0598 -0.1322 -0.2043
    1AU     LIG  206   7.833   0.194   7.544 -0.3340  0.1806  0.1477
    1AU       S  207   8.585   1.931   7.539 -0.2351 -0.0056 -0.2181
    1AU     LIG  208   8.871   2.198   7.729 -0.0504 -0.3155 -0.2937
    1AU     LIG  209   9.322   2.082   7.771  0.2410 -0.0933 -0.1371
    1AU     LIG  210   9.790   2.021   7.697  0.1455  0.1044 -0.2402
    1AU     LIG  211  10.212   1.874   7.719 -0.2337 -0.4936  0.2159
    1AU    AUSL  212   8.852   1.195   7.330 -0.0199 -0.0340 -0.0140
    1AU    AUSL  213   8.974   0.739   7.193  0.0324 -0.0853 -0.0352
    1AU     AUL  214   8.917   0.819   7.525  0.0369 -0.0219 -0.0595
    1AU       S  215   9.238   0.555   7.711 -0.1248 -0.0235 -0.1825
    1AU     LIG  216   9.115   0.142   7.730 -0.0109  0.2896  0.1165
    1AU     LIG  217   9.233  -0.187   7.594  0.1722 -0.1433  0.0877
    1AU     LIG  218   9.371  -0.537   7.381  0.2514  0.1040 -0.1307
    1AU     LIG  219   9.389  -0.903   7.622 -0.2858  0.0481 -0.1724
    1AU       S  220   8.836   1.243   7.697 -0.2724 -0.6024  0.4752
    1AU     LIG  221   9.191   1.330   7.761 -0.2619 -0.3744  0.1642
    1AU     LIG  222   9.636   1.437   7.894  0.1045 -0.0641 -0.1096
    1AU     LIG  223   9.837   1.704   8.118  0.1671  0.3980 -0.3852
    1AU     LIG  224  10.222   1.754   8.176  0.0264 -0.0788  0.0597
    1AU    AUSL  225   9.164   0.406   6.148  0.0260  0.0253  0.0202
    1AU    AUSL  226   9.538   0.639   6.307  0.0822 -0.0616  0.2181
    1AU     AUL  227   9.448   0.261   6.034 -0.0150 -0.0675  0.0173
    1AU       S  228   9.818   0.475   6.256  0.0399  0.0791 -0.2432
    1AU     LIG  229  10.213   0.236   6.256 -0.1696  0.0859 -0.0762
    1AU     LIG  230  10.653   0.208   6.361 -0.0199 -0.1453 -0.2375
    1AU     LIG  231  10.899  -0.153   6.492 -0.3935 -0.0485 -0.0556
    1AU     LIG  232  10.896  -0.630   6.653 -0.0845  0.1951  0.1405
    1AU       S  233   9.079   0.053   6.220 -0.4570  0.3339 -0.0582
    1AU     LIG  234   8.951  -0.250   6.025  0.0394  0.2502  0.1098
    1AU     LIG  235   8.687  -0.397   5.643  0.0357  0.1212 -0.1888
    1AU     LIG  236   8.640  -0.397   5.169 -0.0509 -0.3356 -0.4524
    1AU     LIG  237   8.615  -0.621   4.786  0.2819 -0.1852 -0.0169
    1AU    AUSL  238   9.052   0.764   5.943 -0.0642  0.0259  0.0406
    1AU    AUSL  239   8.753   0.375   6.035  0.0747  0.0118 -0.0022
    1AU     AUL  240   8.950   0.384   5.787  0.0141  0.0376  0.0121
    1AU       S  241   8.886   0.882   5.373  0.0168  0.2002 -0.1542
    1AU     LIG  242   8.925   1.289   5.070  0.1544 -0.3819 -0.2809
    1AU     LIG  243   8.785   1.750   5.026 -0.2787  0.0699 -0.0904
    1AU     LIG  244   8.478   1.960   5.203  0.0806  0.2327  0.3250
    1AU     LIG  245   8.461   2.266   5.391  0.3875 -0.0285  0.1042
    1AU       S  246   8.579   0.077   5.838 -0.2854  0.1164  0.3002
    1AU     LIG  247   8.114   0.040   5.938 -0.0643  0.0311 -0.1024
    1AU     LIG  248   7.875   0.344   6.234 -0.0147 -0.4221 -0.1054
    1AU     LIG  249   7.797   0.265   6.676  0.0197 -0.0525  0.2445
    1AU     LIG  250   7.713  -0.008   6.940  0.0587 -0.0061  0.1097
    1AU    AUSL  251   9.475   0.688   5.903  0.0173  0.0390 -0.0249
    1AU    AUSL  252   9.246   1.027   5.672  0.0763 -0.0094 -0.0777
    1AU     AUL  253   9.284   0.677   5.587  0.0636 -0.0633  0.0273
    1AU       S  254   9.602   1.027   5.589  0.1916 -0.1165  0.1372
    1AU     LIG  255   9.820   0.688   5.310 -0.1040  0.0139 -0.1757
    1AU     LIG  256  10.075   0.435   5.122 -0.1388 -0.2821  0.1259
    1AU     LIG  257  10.499   0.338   5.147 -0.0840 -0.2291 -0.0168
    1AU     LIG  258  10.843   0.328   5.267  0.2685 -0.0999  0.1575
    1AU       S  259   9.779   0.647   5.837  0.0027  0.0587 -0.1484
    1AU     LIG  260  10.136   0.873   5.823  0.0001  0.0194 -0.5521
    1AU     LIG  261  10.504   1.079   6.061 -0.0607  0.2993  0.4004
    1AU     LIG  262  10.894   1.271   6.233  0.0394 -0.1589  0.1358
    1AU     LIG  263  11.154   1.284   6.673  0.0769 -0.0125  0.1402
    1AU    AUSL  264   8.710   1.852   7.078 -0.0485  0.0311  0.0299
    1AU    AUSL  265   9.071   1.570   7.146  0.0245 -0.0167  0.0192
    1AU     AUL  266   8.972   1.741   7.427 -0.0305  0.0354  0.0251
    1AU       S  267   8.668   2.028   7.252 -0.0924  0.0204 -0.0488
    1AU     LIG  268   8.660   2.308   6.893 -0.1187  0.2050 -0.0532
    1AU     LIG  269   8.783   2.699   6.642 -0.0370 -0.0887 -0.1736
    1AU     LIG  270   8.754   3.038   6.488  0.3970 -0.3109  0.1222
    1AU     LIG  271   8.433   3.322   6.370  0.1662 -0.3756 -0.1708
    1AU       S  272   9.140   2.125   7.270 -0.3898  0.1661 -0.3127
    1AU     LIG  273   8.886   2.493   7.275  0.2478 -0.2307 -0.1214
    1AU     LIG  274   8.515   2.558   7.475 -0.5115  0.2059 -0.0022
    1AU     LIG  275   8.202   2.687   7.834  0.1665 -0.5458 -0.3712
    1AU     LIG  276   7.979   2.560   8.200 -0.2077  0.4540 -0.0695
    1AU    AUSL  277   8.486   1.508   7.039 -0.0600  0.0446  0.0448
    1AU    AUSL  278   8.367   1.902   6.811  0.1026  0.0523 -0.0413
    1AU     AUL  279   8.239   1.750   7.103 -0.0049 -0.0167  0.0217
    1AU       S  280   8.390   1.989   7.455  0.1832  0.1396  0.4750
    1AU     LIG  281   8.179   2.300   7.124 -0.0449  0.1653 -0.1582
    1AU     LIG  282   7.979   2.569   7.000  0.0654  0.1366 -0.4551
    1AU     LIG  283   7.992   2.935   7.218  0.5156  0.1097 -0.2606
    1AU     LIG  284   7.923   3.111   7.732 -0.5609  0.0532  0.0907
    1AU       S  285   7.959   1.993   6.751 -0.0064 -0.2009  0.0721
    1AU     LIG  286   7.703   2.309   6.731 -0.0912 -0.4035  0.0279
    1AU     LIG  287   7.765   2.580   6.431 -0.0078 -0.0939  0.2201
    1AU     LIG  288   7.544   2.895   6.151  0.0838 -0.2632 -0.5347
    1AU     LIG  289   7.150   2.928   5.884 -0.0917 -0.0290  0.0380
    1AU    AUSL  290   9.325   1.435   5.819  0.0159 -0.0511 -0.0359
    1AU    AUSL  291   8.861   1.183   5.817 -0.0144 -0.0822  0.1292
    1AU     AUL  292   9.183   1.259   5.540 -0.0142  0.1138 -0.0094
    1AU       S  293   8.702   1.321   5.494  0.0231 -0.3766  0.1435
    1AU     LIG  294   8.476   1.133   5.196 -0.2912 -0.0733 -0.1208
    1AU     LIG  295   8.413   0.743   5.121 -0.1727 -0.0389  0.3980
    1AU     LIG  296   8.665   0.391   5.003  0.3894 -0.0043  0.1223
    1AU     LIG  297   8.486  -0.028   4.911 -0.0737  0.2320  0.0372
    1AU       S  298   9.641   1.256   5.565  0.0699  0.3212 -0.2907
    1AU     LIG  299   9.857   1.674   5.480 -0.0395  0.0998 -0.2910
    1AU     LIG  300  10.263   1.639   5.255  0.3455 -0.1051  0.0486
    1AU     LIG  301  10.519   1.832   4.930 -0.0357  0.0095 -0.0491
    1AU     LIG  302  10.243   2.219   4.795  0.2394 -0.1635 -0.1897
    1AU    AUSL  303   9.475   1.089   6.038 -0.0294 -0.0556  0.0098
    1AU    AUSL  304   9.459   1.523   6.229 -0.0016  0.0883 -0.0655
    1AU     AUL  305   9.658   1.512   5.971  0.0786 -0.0651  0.0049
    1AU       S  306  10.000   1.743   6.156  0.2088  0.1956 -0.0889
    1AU     LIG  307   9.957   2.056   5.943 -0.2347 -0.0560  0.0284
    1AU     LIG  308   9.720   2.307   5.705 -0.0950  0.0409 -0.1397
    1AU     LIG  309   9.701   2.701   5.585  0.1291 -0.1411  0.1165
    1AU     LIG  310   9.958   3.025   5.597 -0.4127 -0.3219 -0.0783
    1AU       S  311   9.720   1.104   5.732  0.3649  0.1887  0.3607
    1AU     LIG  312  10.115   1.363   5.806  0.0742  0.0172 -0.0029
    1AU     LIG  313  10.477   1.514   5.777  0.0409  0.0178 -0.0927
    1AU     LIG  314  10.713   1.686   5.451  0.0727  0.1545  0.1290
    1AU     LIG  315  11.111   1.836   5.345 -0.1621  0.1406  0.3000
    1AU    AUSL  316   9.245   0.436   6.936  0.0137 -0.0287 -0.0498
    1AU    AUSL  317   9.351   0.322   6.524 -0.0942 -0.0671  0.0934
    1AU     AUL  318   9.575   0.331   6.893  0.0392  0.0283  0.0740
    1AU       S  319   9.597   0.106   6.470 -0.0317  0.1719 -0.0967
    1AU     LIG  320   9.874  -0.247   6.362 -0.2073 -0.1163 -0.0298
    1AU     LIG  321   9.987  -0.497   6.047  0.1629  0.1923 -0.2854
    1AU     LIG  322   9.927  -0.593   5.706  0.0752 -0.0278  0.2421
    1AU     LIG  323   9.567  -0.511   5.430 -0.1823  0.3718  0.0571
    1AU       S  324   9.263   0.041   7.060  0.2739  0.0728  0.3988
    1AU     LIG  325   9.133  -0.492   6.962 -0.1310  0.3138  0.1139
    1AU     LIG  326   9.149  -0.721   6.680  0.2138  0.0936  0.0066
    1AU     LIG  327   8.877  -1.069   6.570 -0.4320  0.3389  0.2298
    1AU     LIG  328   8.546  -1.240   6.542 -0.0369  0.1282  0.4005
    1AU    AUSL  329   8.983   0.193   6.709 -0.0659 -0.0219  0.0303
    1AU    AUSL  330   8.564   0.317   6.779 -0.0117  0.0499 -0.0446
    1AU     AUL  331   8.689  -0.035   6.899  0.0626  0.0073 -0.0184
    1AU       S  332   9.148  -0.002   6.808 -0.3305 -0.1526  0.3397
    1AU     LIG  333   9.368  -0.337   6.486 -0.0358  0.0031  0.0261
    1AU     LIG  334   9.594  -0.744   6.449 -0.0054  0.3409 -0.2066
    1AU     LIG  335   9.967  -0.908   6.654 -0.1339 -0.0308 -0.2362
    1AU     LIG  336  10.255  -0.665   6.859  0.0755 -0.1060 -0.0242
    1AU       S  337   8.492   0.065   6.427 -0.1162 -0.0112 -0.4778
    1AU     LIG  338   8.273  -0.371   6.603  0.0734  0.1137  0.3372
    1AU     LIG  339   7.878  -0.564   6.628  0.1959  0.1765  0.1030
    1AU     LIG  340   7.474  -0.824   6.808 -0.1806  0.2023 -0.3123
    1AU     LIG  341   7.159  -1.026   6.790 -0.3682  0.3020  0.4433
    1AU    AUSL  342   8.851   0.346   7.096  0.0945 -0.0696  0.0325
    1AU    AUSL  343   9.401   0.674   7.252 -0.0306 -0.0450 -0.0312
    1AU     AUL  344   9.143   0.423   7.303 -0.0547  0.0422 -0.0433
    1AU       S  345   9.460   0.600   7.606  0.0475  0.1014 -0.0138
    1AU     LIG  346   9.666   0.148   7.457  0.1051 -0.1783  0.1215
    1AU     LIG  347   9.729  -0.203   7.282 -0.0652 -0.4057  0.0008
    1AU     LIG  348  10.147  -0.244   7.247  0.3151 -0.2721  0.0702
    1AU     LIG  349  10.525  -0.301   7.097 -0.1893  0.3878 -0.0752
    1AU       S  350   9.094  -0.024   7.168  0.1704  0.3071 -0.1625
    1AU     LIG  351   8.768  -0.227   7.453 -0.3806  0.1387 -0.1078
    1AU     LIG  352   8.420  -0.175   7.698 -0.2342 -0.0049  0.0704
    1AU     LIG  353   8.025  -0.323   7.507 -0.1845 -0.0562 -0.1509
    1AU     LIG  354   8.003  -0.646   7.152  0.0425 -0.0786  0.2803
    1AU    AUSL  355   9.350   1.789   6.561 -0.0490 -0.0278 -0.0146
    1AU    AUSL  356   9.052   1.908   6.855 -0.0667 -0.0480 -0.0164
    1AU     AUL  357   9.509   1.967   6.810 -0.0281 -0.0419  0.0455
    1AU       S  358   9.419   2.273   6.471  0.1206  0.4623 -0.4573
    1AU     LIG  359   9.692   2.517   6.662 -0.2445 -0.0146  0.0650
    1AU     LIG  360  10.114   2.715   6.755  0.2372 -0.0908 -0.3622
    1AU     LIG  361  10.550   2.651   6.589  0.0376  0.0868 -0.2265
    1AU     LIG  362  10.858   2.714   6.774  0.2195 -0.0063  0.1927
    1AU       S  363   9.118   2.145   6.973 -0.3379 -0.1629 -0.2480
    1AU     LIG  364   9.292   2.554   6.979 -0.1948  0.1408  0.1024
    1AU     LIG  365   9.260   2.858   6.641  0.0550  0.2943  0.1794
    1AU     LIG  366   9.425   3.283   6.663  0.0215  0.2374  0.0773
    1AU     LIG  367   9.204   3.739   6.916 -0.0165 -0.0945  0.1059
    1AU    AUSL  368   9.255   1.868   6.116  0.0700 -0.0744 -0.0486
    1AU    AUSL  369   9.744   1.616   6.550  0.0179 -0.0500 -0.0387
    1AU     AUL  370   9.571   1.859   6.298  0.0193  0.0142  0.0072
    1AU       S  371   9.405   2.266   6.197 -0.2962 -0.0117  0.3435
    1AU     LIG  372   9.626   2.552   6.143 -0.4130 -0.2155  0.1869
    1AU     LIG  373   9.779   2.912   6.339 -0.3114 -0.0922  0.0025
    1AU     LIG  374   9.818   3.239   6.063  0.4925 -0.0427 -0.1325
    1AU     LIG  375   9.921   3.685   5.938 -0.1109 -0.1401 -0.0761
    1AU       S  376  10.002   1.720   6.417 -0.2516  0.0377 -0.2248
    1AU     LIG  377   9.923   2.121   6.449 -0.0712 -0.0120 -0.4290
    1AU     LIG  378  10.086   2.456   6.274  0.1972  0.0108 -0.0221
    1AU     LIG  379  10.226   2.839   6.090 -0.0591  0.0039  0.2260
    1AU     LIG  380  10.233   3.283   6.343  0.0872  0.3488 -0.0149
    1AU    AUSL  381   8.999   2.052   6.454 -0.0018  0.0375  0.0197
    1AU    AUSL  382   8.823   1.830   6.139  0.0351 -0.0092  0.0189
    1AU     AUL  383   9.020   2.106   6.026 -0.0416 -0.0641  0.0350
    1AU       S  384   8.606   2.238   6.199  0.0257 -0.1006  0.2456
    1AU     LIG  385   8.735   2.447   5.774 -0.0070  0.0340 -0.0711
    1AU     LIG  386   8.821   2.760   5.574  0.1745 -0.1193  0.1571
    1AU     LIG  387   8.563   3.081   5.432 -0.1910  0.0861  0.4424
    1AU     LIG  388   8.388   3.435   5.585  0.4101 -0.2575  0.0301
    1AU       S  389   9.210   2.289   6.509  0.1252 -0.3380  0.0479
    1AU     LIG  390   8.987   2.589   6.248  0.0175  0.2702  0.0730
    1AU     LIG  391   8.582   2.756   6.107 -0.1230  0.2127  0.2732
    1AU     LIG  392   8.269   3.069   5.902 -0.0347 -0.1727  0.0470
    1AU     LIG  393   7.738   3.269   5.907 -0.0249  0.2142 -0.2204
    1AU    AUSL  394   8.316   0.477   6.448  0.0448 -0.0208  0.0184
    1AU    AUSL  395   8.517   0.634   7.035 -0.0164 -0.0158 -0.0291
    1AU     AUL  396   8.258   0.349   6.790  0.0127 -0.0878 -0.0653
    1AU       S  397   8.272   0.093   6.423 -0.1496 -0.0661  0.1939
    1AU     LIG  398   7.888  -0.142   6.376  0.0425 -0.2113  0.1601
    1AU     LIG  399   7.510  -0.260   6.541 -0.2023 -0.1499  0.2572
    1AU     LIG  400   7.042  -0.307   6.600  0.0634 -0.3350  0.3185
    1AU     LIG  401   6.937  -0.698   6.407 -0.0280 -0.0423  0.0136
    1AU       S  402   8.309   0.469   7.267 -0.3360 -0.0170  0.3492
    1AU     LIG  403   8.454   0.098   7.291  0.3412 -0.0123  0.1724
    1AU     LIG  404   8.404  -0.340   7.118 -0.0770  0.0176  0.2911
    1AU     LIG  405   8.708  -0.683   6.959 -0.2892  0.0508  0.3464
    1AU     LIG  406   9.030  -1.063   7.072  0.0002  0.0553  0.0218
    1AU    AUSL  407   8.774   0.433   6.436 -0.0863 -0.0317 -0.0292
    1AU    AUSL  408   8.536   0.709   6.173  0.0259 -0.0333  0.0484
    1AU     AUL  409   8.420   0.411   6.107  0.0402  0.0592 -0.0599
    1AU       S  410   8.656   0.047   6.372 -0.2439 -0.2507 -0.0214
    1AU     LIG  411   8.818  -0.308   6.557 -0.0667  0.1522  0.3853
    1AU     LIG  412   8.567  -0.732   6.444 -0.0312 -0.0693 -0.2537
    1AU     LIG  413   8.200  -0.861   6.407  0.1605  0.0807  0.0038
    1AU     LIG  414   7.794  -1.073   6.297 -0.1849 -0.0355  0.1905
    1AU       S  415   8.414   0.329   5.637 -0.1701 -0.5248 -0.0948
    1AU     LIG  416   8.218   0.259   5.276  0.1572  0.1337  0.0780
    1AU     LIG  417   8.060  -0.127   5.078 -0.0453  0.0667  0.2833
    1AU     LIG  418   8.158  -0.482   5.135 -0.4822  0.0049  0.1911
    1AU     LIG  419   7.971  -0.848   5.234 -0.1499 -0.0686  0.2751
    1AU    AUSL  420   8.393   1.788   6.188 -0.0009 -0.0480 -0.0316
    1AU    AUSL  421   8.950   1.615   5.805 -0.0075 -0.0933 -0.0032
    1AU     AUL  422   8.606   1.847   5.876  0.0402 -0.0970 -0.0304
    1AU       S  423   8.886   1.608   5.521 -0.3386 -0.2443  0.0909
    1AU     LIG  424   8.884   2.076   5.500  0.4675  0.0914 -0.0572
    1AU     LIG  425   9.252   2.399   5.499  0.3138 -0.2232  0.1133
    1AU     LIG  426   9.274   2.653   5.822  0.1646  0.0370 -0.0413
    1AU     LIG  427   9.265   3.028   6.183 -0.2174  0.4384  0.1835
    1AU       S  428   8.434   2.225   6.155  0.1001 -0.0953  0.2338
    1AU     LIG  429   7.995   2.132   6.234 -0.0494  0.2292 -0.1670
    1AU     LIG  430   7.852   1.794   6.026 -0.0623 -0.1685  0.2419
    1AU     LIG  431   7.783   1.646   5.680  0.2935 -0.0938  0.1782
    1AU     LIG  432   7.496   1.942   5.331  0.0550 -0.1351  0.1623
    1AU    AUSL  433   8.650   1.837   6.526 -0.0595  0.0125  0.0107
    1AU    AUSL  434   8.336   1.548   6.526 -0.0537 -0.0211 -0.0191
    1AU     AUL  435   8.313   1.913   6.474  0.0062 -0.0539 -0.0321
    1AU       S  436   8.601   2.282   6.391 -0.3901 -0.1625  0.1733
    1AU     LIG  437   8.202   2.380   6.599 -0.0238 -0.0602 -0.0020
    1AU     LIG  438   8.230   2.801   6.572  0.1969 -0.0026  0.1860
    1AU     LIG  439   7.973   3.074   6.366  0.0239 -0.0192 -0.2748
    1AU     LIG  440   7.814   3.398   6.336  0.1477 -0.1785 -0.0921
    1AU       S  441   7.852   1.772   6.546 -0.0173  0.0300  0.2606
    1AU     LIG  442   7.450   2.018   6.395  0.1334 -0.1762  0.1051
    1AU     LIG  443   6.991   2.041   6.419 -0.1557 -0.3180 -0.3404
    1AU     LIG  444   6.706   2.416   6.599 -0.1646 -0.2047  0.2390
    1AU     LIG  445   6.644   2.611   6.989  0.0268 -0.2143 -0.0540
    2POPC   NC3  446   7.034   8.801   8.719  0.2611 -0.1108 -0.2891
    2POPC   PO4  447   6.766   8.970   8.589 -0.0109  0.0636  0.0968
    2POPC   GL1  448   6.642   8.668   8.283  0.0720 -0.4713  0.1659
    2POPC   GL2  449   6.350   8.683   8.038 -0.1628 -0.1481 -0.0604
    2POPC   C1A  450   6.802   8.524   7.787 -0.4356  0.1732  0.0421
    2POPC   D2A  451   7.007   8.763   7.367  0.2574  0.0340  0.1523
    2POPC   C3A  452   6.750   8.901   7.059  0.0827 -0.1049 -0.1871
    2POPC   C4A  453   6.611   9.285   6.899  0.1489 -0.0593 -0.2297
    2POPC   C1B  454   6.161   8.643   7.631  0.1772 -0.2664  0.1355
    2POPC   C2B  455   6.238   8.805   7.146 -0.2451  0.1647 -0.1483
    2POPC   C3B  456   6.232   8.901   6.815 -0.1224 -0.1413  0.0450
    2POPC   C4B  457   6.000   8.960   6.522 -0.2156  0.0050  0.1827
    3POPC   NC3  458   3.081   8.292   8.526  0.1293 -0.0938 -0.0478
    3POPC   PO4  459   3.218   7.847   8.589 -0.0251  0.0077  0.1087
    3POPC   GL1  460   3.187   7.833   8.162  0.2813  0.0371 -0.1735
    3POPC   GL2  461   2.941   8.016   8.121  0.1434 -0.0729  0.1238
    3POPC   C1A  462   2.988   7.499   7.981  0.0526 -0.0144 -0.0138
    3POPC   D2A  463   2.880   7.357   7.544 -0.0482 -0.2390 -0.0960
    3POPC   C3A  464   3.135   7.029   7.363 -0.1416 -0.3075 -0.0476
    3POPC   C4A  465   3.537   7.029   6.997  0.1268  0.1517  0.4386
    3POPC   C1B  466   2.711   7.909   7.785 -0.3194 -0.1632  0.2749
    3POPC   C2B  467   2.689   7.769   7.364 -0.0478 -0.0671  0.4071
    3POPC   C3B  468   2.656   7.772   6.826  0.1086  0.0106  0.0008
    3POPC   C4B  469   2.697   7.513   6.556  0.0280  0.2157  0.2951
    4POPC   NC3  470   2.539   4.773   8.240  0.0584  0.0773 -0.1930
    4POPC   PO4  471   2.853   4.913   8.493 -0.1837 -0.0781 -0.0054
    4POPC   GL1  472   2.886   5.102   8.039 -0.0668  0.1547 -0.2988
    4POPC   GL2  473   2.840   5.239   7.783  0.2032 -0.1758  0.1177
    4POPC   C1A  474   3.036   4.805   7.677 -0.0569  0.0487  0.1467
    4POPC   D2A  475   3.101   4.846   7.292  0.2991 -0.4443 -0.2773
    4POPC   C3A  476   3.351   5.278   7.085 -0.0020  0.0586  0.1112
    4POPC   C4A  477   3.186   5.613   7.112 -0.0703 -0.1458 -0.0988
    4POPC   C1B  478   2.846   5.356   7.385  0.1052 -0.0819  0.0776
    4POPC   C2B  479   2.774   5.226   7.017 -0.0096  0.4257 -0.2209
    4POPC   C3B  480   3.116   4.985   6.707 -0.2196 -0.0820  0.0763
    4POPC   C4B  481   3.315   4.684   6.396  0.0082  0.2643  0.2632
    5POPC   NC3  482   8.169   2.188   9.072 -0.1803 -0.0381 -0.0554
    5POPC   PO4  483   8.150   2.613   9.040 -0.1796 -0.1693  0.3089
    5POPC   GL1  484   8.679   2.511   9.057 -0.1159  0.2967 -0.1980
    5POPC   GL2  485   8.721   2.242   8.811 -0.1425 -0.4777 -0.0576
    5POPC   C1A  486   9.048   2.694   8.894  0.2746  0.1312 -0.1747
    5POPC   D2A  487   9.260   2.796   8.487 -0.0993  0.2051 -0.2268
    5POPC   C3A  488   9.001   3.037   8.163  0.0752 -0.1569 -0.0010
    5POPC   C4A  489   8.859   3.341   7.902 -0.3469 -0.2279 -0.0114
    5POPC   C1B  490   9.205   2.236   8.744 -0.1201  0.5286  0.2360
    5POPC   C2B  491   9.482   2.027   8.450  0.2568  0.1377  0.1168
    5POPC   C3B  492   9.650   2.213   8.229  0.0653  0.2667 -0.0800
    5POPC   C4B  493   9.684   2.464   7.934  0.0278  0.1202 -0.3825
    6POPC   NC3  494   2.078   5.010   8.169 -0.2444 -0.0714 -0.0830
    6POPC   PO4  495   2.075   4.663   8.384 -0.0206  0.0864 -0.2040
    6POPC   GL1  496   2.229   4.500   7.961  0.2951  0.2073  0.1801
    6POPC   GL2  497   2.293   4.776   7.768  0.0474 -0.2884 -0.2533
    6POPC   C1A  498   2.151   4.087   7.687  0.1680  0.1842  0.0293
    6POPC   D2A  499   2.336   3.776   7.369 -0.0289 -0.1484 -0.2415
    6POPC   C3A  500   2.357   3.793   6.856  0.0436  0.0145 -0.0696
    6POPC   C4A  501   2.342   3.813   6.431 -0.1722 -0.0650  0.0052
    6POPC   C1B  502   2.592   4.901   7.382 -0.0551 -0.1618 -0.0549
    6POPC   C2B  503   2.716   4.659   6.995  0.1642 -0.0350  0.2144
    6POPC   C3B  504   2.745   4.648   6.600 -0.3270 -0.0366  0.1047
    6POPC   C4B  505   2.865   4.749   6.195 -0.1506 -0.3819 -0.4471
    7POPC   NC3  506   9.531   5.152   8.239  0.1361  0.0343 -0.1842
    7POPC   PO4  507   9.150   4.922   8.348 -0.0376  0.2148 -0.0327
    7POPC   GL1  508   9.179   5.047   7.895 -0.0637  0.0767  0.0874
    7POPC   GL2  509   9.408   4.943   7.648  0.1665 -0.1908 -0.4271
    7POPC   C1A  510   8.995   5.326   7.555 -0.1506  0.1182  0.3297
    7POPC   D2A  511   9.009   5.666   7.295  0.1015  0.0811 -0.1320
    7POPC   C3A  512   9.012   5.740   6.935  0.1813 -0.0079 -0.0318
    7POPC   C4A  513   9.254   6.039   6.640 -0.2451  0.2394 -0.0354
    7POPC   C1B  514   9.222   4.724   7.379  0.0584 -0.0323 -0.1497
    7POPC   C2B  515   9.320   4.478   7.060  0.2218  0.0933  0.0504
    7POPC   C3B  516   9.388   4.182   6.764  0.0336  0.0086 -0.2847
    7POPC   C4B  517   9.150   3.994   6.458  0.0661  0.1598 -0.1285
    8POPC   NC3  518   2.539   5.716   8.633  0.1361  0.1585  0.2631
    8POPC   PO4  519   2.772   6.004   8.422  0.4561  0.1073 -0.3254
    8POPC   GL1  520   2.905   6.224   8.043  0.0222  0.2654  0.1546
    8POPC   GL2  521   2.703   6.480   8.042  0.0383  0.1314  0.1387
    8POPC   C1A  522   2.993   6.335   7.661 -0.0622  0.0117  0.1337
    8POPC   D2A  523   2.810   6.401   7.219 -0.2821  0.0003  0.1688
    8POPC   C3A  524   2.840   6.885   7.002  0.2708  0.1374 -0.1283
    8POPC   C4A  525   3.070   7.274   6.882 -0.2086  0.3626  0.2347
    8POPC   C1B  526   2.778   6.774   7.766  0.0295 -0.1934 -0.0327
    8POPC   C2B  527   2.550   6.988   7.470 -0.1170 -0.1148 -0.1365
    8POPC   C3B  528   2.603   7.306   7.109  0.1681  0.2403  0.1406
    8POPC   C4B  529   2.420   7.154   6.762  0.0438 -0.1189 -0.0264
    9POPC   NC3  530   4.053   5.080   7.999 -0.0627 -0.1175 -0.2523
    9POPC   PO4  531   4.182   4.699   8.221  0.0650 -0.0472  0.2655
    9POPC   GL1  532   4.424   4.745   7.719 -0.2075 -0.0407 -0.0733
    9POPC   GL2  533   4.718   4.673   7.668  0.1127 -0.1088 -0.0718
    9POPC   C1A  534   4.432   4.703   7.283  0.2757 -0.0794 -0.1213
    9POPC   D2A  535   4.116   4.495   7.179 -0.3914  0.2576  0.0606
    9POPC   C3A  536   3.993   4.444   6.709 -0.2160  0.2589  0.2727
    9POPC   C4A  537   3.805   4.547   6.363 -0.0442 -0.0677  0.2256
    9POPC   C1B  538   4.956   4.523   7.275  0.0476 -0.0411 -0.1011
    9POPC   C2B  539   4.775   4.731   6.922 -0.1653 -0.2946 -0.0720
    9POPC   C3B  540   4.510   4.470   6.636 -0.1198  0.1534  0.1221
    9POPC   C4B  541   4.539   4.018   6.351 -0.0301 -0.2840  0.0618
   10POPC   NC3  542   1.916   1.695   8.988 -0.3846 -0.2026 -0.0638
   10POPC   PO4  543   2.118   1.973   8.654  0.0013 -0.2229 -0.0196
   10POPC   GL1  544   1.861   2.075   8.287 -0.2064 -0.0245 -0.2965
   10POPC   GL2  545   1.732   1.868   8.260 -0.1623 -0.0671 -0.0787
   10POPC   C1A  546   1.942   2.141   7.877  0.0182 -0.1602  0.0030
   10POPC   D2A  547   1.970   2.160   7.472  0.0107  0.1254  0.0317
   10POPC   C3A  548   1.759   1.974   7.184  0.1005 -0.1379  0.0030
   10POPC   C4A  549   1.482   1.527   7.134  0.3606 -0.3724 -0.0052
   10POPC   C1B  550   2.145   1.726   7.973  0.2674 -0.1420  0.0710
   10POPC   C2B  551   2.239   1.463   7.705  0.0789  0.0137  0.2665
   10POPC   C3B  552   2.404   1.085   7.736 -0.0764  0.0854 -0.2295
   10POPC   C4B  553   2.626   0.891   8.050  0.2260 -0.0365  0.0889
   11POPC   NC3  554   8.233   5.069   8.694  0.3147  0.0825 -0.0925
   11POPC   PO4  555   8.335   5.400   8.428 -0.0354 -0.4267  0.1007
   11POPC   GL1  556   8.282   5.458   7.962 -0.0388  0.3077 -0.1042
   11POPC   GL2  557   8.031   5.491   7.884  0.0136  0.5224  0.0658
   11POPC   C1A  558   8.408   5.604   7.626  0.0951  0.2737 -0.0372
   11POPC   D2A  559   8.568   5.591   7.122  0.1630 -0.0382 -0.1479
   11POPC   C3A  560   8.174   5.415   6.800 -0.1957  0.0570 -0.1894
   11POPC   C4A  561   8.264   4.937   6.591  0.1946 -0.0296  0.2165
   11POPC   C1B  562   8.034   5.905   7.656 -0.0724 -0.1653 -0.1314
   11POPC   C2B  563   8.203   6.002   7.247 -0.0304  0.1544 -0.0344
   11POPC   C3B  564   8.348   6.440   7.009 -0.0583  0.0177  0.3342
   11POPC   C4B  565   8.595   6.747   6.630 -0.0860  0.1886  0.1337
   12POPC   NC3  566   2.105   0.156   8.644  0.0511  0.0566 -0.0170
   12POPC   PO4  567   2.206  -0.064   8.256  0.0246  0.2184 -0.2243
   12POPC   GL1  568   2.142  -0.233   7.935  0.1011 -0.1547 -0.0062
   12POPC   GL2  569   1.901  -0.047   7.823  0.0896  0.5172  0.0207
   12POPC   C1A  570   2.207  -0.187   7.441 -0.0865  0.1999 -0.0187
   12POPC   D2A  571   2.063  -0.425   7.050 -0.1153  0.1788  0.0437
   12POPC   C3A  572   2.048  -0.804   7.072  0.1766  0.4369  0.0251
   12POPC   C4A  573   2.117  -1.221   7.463 -0.1691 -0.0933 -0.1973
   12POPC   C1B  574   2.019   0.262   7.537 -0.0326 -0.0045 -0.2932
   12POPC   C2B  575   2.094   0.573   7.272 -0.3097 -0.1658  0.0580
   12POPC   C3B  576   1.844   0.587   6.885 -0.0270 -0.3837  0.2763
   12POPC   C4B  577   1.542   0.537   6.661 -0.2984  0.2078  0.3788
   13POPC   NC3  578   9.317   6.649   8.690 -0.0351  0.3592  0.0361
   13POPC   PO4  579   9.289   6.242   8.311  0.2652  0.2378  0.0706
   13POPC   GL1  580   9.101   6.203   7.937  0.3913 -0.1012  0.4188
   13POPC   GL2  581   9.021   5.971   7.898 -0.2486  0.0953 -0.2147
   13POPC   C1A  582   9.136   6.385   7.517 -0.2496 -0.0318  0.2352
   13POPC   D2A  583   9.192   6.455   7.074  0.1739  0.4477  0.0554
   13POPC   C3A  584   9.659   6.249   7.016  0.0481 -0.1266  0.0066
   13POPC   C4A  585   9.688   5.841   6.998 -0.0951  0.0835  0.1410
   13POPC   C1B  586   8.742   6.066   7.517  0.0119  0.1620  0.3906
   13POPC   C2B  587   8.781   6.126   7.129 -0.0871  0.1920 -0.0778
   13POPC   C3B  588   8.863   6.357   6.729  0.4260 -0.0390 -0.2505
   13POPC   C4B  589   9.040   6.588   6.443 -0.2193 -0.3213 -0.1777
   14POPC   NC3  590   5.769   9.664   8.763 -0.1658  0.4605  0.3714
   14POPC   PO4  591   5.924   9.346   8.552  0.0247 -0.1594 -0.0870
   14POPC   GL1  592   5.697   9.560   8.263 -0.1370  0.1058 -0.2562
   14POPC   GL2  593   5.424   9.794   8.243  0.0831 -0.2926  0.2910
   14POPC   C1A  594   5.655   9.589   7.863 -0.0126 -0.0642  0.1254
   14POPC   D2A  595   5.959   9.730   7.479  0.1060 -0.0454  0.1909
   14POPC   C3A  596   5.997  10.020   7.094 -0.3373  0.0108  0.3367
   14POPC   C4A  597   6.283  10.228   6.775 -0.0470  0.1400 -0.2044
   14POPC   C1B  598   5.202  10.061   7.931  0.1021 -0.0319 -0.0557
   14POPC   C2B  599   5.081  10.179   7.547  0.2799 -0.3876 -0.2105
   14POPC   C3B  600   5.004  10.374   7.171 -0.2306 -0.1199 -0.1307
   14POPC   C4B  601   5.021  10.472   6.786  0.1209 -0.0856 -0.0833
   15POPC   NC3  602   4.707   8.169   8.459 -0.2896 -0.1500  0.1131
   15POPC   PO4  603   4.660   8.472   8.367 -0.2856 -0.2199  0.2015
   15POPC   GL1  604   4.510   8.559   7.934  0.0780 -0.0606  0.0032
   15POPC   GL2  605   4.411   8.809   8.003 -0.0362 -0.0206  0.1543
   15POPC   C1A  606   4.744   8.647   7.649 -0.1403 -0.0262 -0.1061
   15POPC   D2A  607   4.902   8.929   7.359 -0.2038 -0.3801  0.1513
   15POPC   C3A  608   5.137   9.283   7.470  0.0301  0.2193  0.1013
   15POPC   C4A  609   5.203   9.448   7.912  0.2809 -0.3725  0.0717
   15POPC   C1B  610   4.313   8.912   7.628  0.0307  0.1180 -0.0676
   15POPC   C2B  611   4.299   9.077   7.286  0.1792  0.0075 -0.3854
   15POPC   C3B  612   4.646   9.283   7.102 -0.1817 -0.0724 -0.0660
   15POPC   C4B  613   4.961   9.389   6.837 -0.2556 -0.0141  0.4126
   16POPC   NC3  614   7.236   0.247   9.325 -0.0624  0.1989 -0.2679
   16POPC   PO4  615   7.599   0.348   9.254 -0.2493 -0.1758  0.1469
   16POPC   GL1  616   7.467   0.119   8.916 -0.1154  0.1600  0.1410
   16POPC   GL2  617   7.649   0.278   8.665 -0.0829 -0.0800  0.0732
   16POPC   C1A  618   7.312  -0.129   8.494 -0.0891  0.0672  0.3114
   16POPC   D2A  619   7.320  -0.378   8.054  0.2351 -0.3068 -0.2181
   16POPC   C3A  620   7.257  -0.263   7.647  0.0058  0.2129 -0.0500
   16POPC   C4A  621   7.538  -0.141   7.360  0.0546 -0.0969  0.2921
   16POPC   C1B  622   7.668   0.188   8.253 -0.0312 -0.0243  0.0153
   16POPC   C2B  623   7.730  -0.155   7.902  0.0704 -0.1693 -0.2600
   16POPC   C3B  624   7.651  -0.567   7.716  0.2777 -0.1730 -0.0878
   16POPC   C4B  625   7.530  -0.768   7.330 -0.0628  0.0062  0.0759
   17POPC   NC3  626   9.902   6.206   8.515 -0.1149 -0.0587 -0.1677
   17POPC   PO4  627  10.350   6.130   8.514  0.1297 -0.1594 -0.1288
   17POPC   GL1  628  10.362   6.350   8.222  0.1252 -0.1944 -0.2295
   17POPC   GL2  629  10.091   6.385   8.054 -0.4500  0.0732 -0.2630
   17POPC   C1A  630  10.493   6.515   7.788  0.4519 -0.1188 -0.3780
   17POPC   D2A  631  10.578   6.646   7.416 -0.0648  0.0718  0.2384
   17POPC   C3A  632  10.691   7.036   7.476 -0.0006  0.0682 -0.0141
   17POPC   C4A  633  10.851   7.546   7.426  0.1172 -0.2394  0.1783
   17POPC   C1B  634  10.014   6.465   7.582 -0.0683 -0.2306 -0.0724
   17POPC   C2B  635  10.184   6.438   7.128  0.1594 -0.1382 -0.0100
   17POPC   C3B  636  10.046   6.231   6.692  0.0618  0.1060  0.0485
   17POPC   C4B  637   9.987   5.776   6.463 -0.1374  0.0102  0.1126
   18POPC   NC3  638   1.319   5.560   8.494  0.0983 -0.0684 -0.0898
   18POPC   PO4  639   1.660   5.353   8.297 -0.2647 -0.0595  0.0112
   18POPC   GL1  640   1.393   5.619   7.875  0.1139  0.0705  0.0117
   18POPC   GL2  641   1.553   5.691   7.649 -0.0327 -0.0886 -0.1482
   18POPC   C1A  642   1.103   5.848   7.543  0.2083  0.2695 -0.2449
   18POPC   D2A  643   1.007   5.858   7.069  0.1031 -0.2213 -0.4478
   18POPC   C3A  644   0.933   5.552   6.775 -0.0280  0.2597 -0.0806
   18POPC   C4A  645   0.574   5.534   6.485 -0.3113  0.3146  0.0169
   18POPC   C1B  646   1.432   5.616   7.258 -0.2287 -0.1818  0.2192
   18POPC   C2B  647   1.346   5.243   7.013 -0.4219  0.2017 -0.2729
   18POPC   C3B  648   1.670   4.888   6.948 -0.1676  0.0358 -0.1305
   18POPC   C4B  649   1.978   4.544   6.941 -0.4091 -0.2396 -0.1536
   19POPC   NC3  650   3.802   5.792   8.370 -0.1156  0.0674  0.0005
   19POPC   PO4  651   3.997   5.579   8.144 -0.1583  0.1406 -0.0620
   19POPC   GL1  652   3.817   5.571   7.863 -0.0707 -0.1518 -0.1728
   19POPC   GL2  653   3.871   5.345   7.610 -0.0252 -0.1927 -0.1688
   19POPC   C1A  654   3.589   5.739   7.479  0.0999  0.2186  0.0773
   19POPC   D2A  655   3.672   5.820   7.037  0.1285  0.5099 -0.3499
   19POPC   C3A  656   3.397   5.806   6.680  0.0058  0.0477  0.1203
   19POPC   C4A  657   3.174   6.126   6.431 -0.0989 -0.0063 -0.0152
   19POPC   C1B  658   3.821   5.301   7.105  0.0051  0.0231 -0.0345
   19POPC   C2B  659   3.952   5.619   6.734  0.0940  0.4347 -0.2216
   19POPC   C3B  660   4.358   5.730   6.807 -0.2771 -0.1327  0.4164
   19POPC   C4B  661   4.625   5.730   6.975 -0.0212 -0.2814 -0.1844
   20POPC   NC3  662   2.926   2.024   8.536  0.1197  0.0497 -0.2838
   20POPC   PO4  663   3.266   2.265   8.473 -0.1526  0.1723  0.2537
   20POPC   GL1  664   3.332   2.548   8.040 -0.1009 -0.3482  0.0201
   20POPC   GL2  665   3.215   2.712   8.063 -0.0902 -0.2262  0.0879
   20POPC   C1A  666   3.289   2.492   7.566 -0.1902  0.0155  0.2026
   20POPC   D2A  667   3.171   2.640   7.111  0.2003  0.0378 -0.1183
   20POPC   C3A  668   2.765   2.398   6.984  0.2000  0.0732 -0.2099
   20POPC   C4A  669   2.628   1.985   7.071 -0.2082  0.1884 -0.2496
   20POPC   C1B  670   3.273   3.002   7.714  0.3504  0.0086 -0.0882
   20POPC   C2B  671   3.093   3.178   7.361 -0.1026 -0.0692  0.1011
   20POPC   C3B  672   2.844   3.056   6.942 -0.2428  0.1031 -0.1918
   20POPC   C4B  673   2.794   2.787   6.662 -0.1693 -0.0565 -0.0399
   21POPC   NC3  674   6.341   0.900   9.017  0.0847 -0.1517 -0.1922
   21POPC   PO4  675   5.969   0.746   8.851 -0.1629  0.0383  0.1985
   21POPC   GL1  676   6.262   0.928   8.531 -0.1138 -0.0566 -0.1836
   21POPC   GL2  677   6.011   0.745   8.297 -0.2686  0.0105 -0.0464
   21POPC   C1A  678   6.473   0.968   8.077  0.1365  0.0254  0.0404
   21POPC   D2A  679   6.906   0.899   7.840 -0.0064 -0.2041 -0.1207
   21POPC   C3A  680   6.841   1.002   7.547  0.0043  0.2565  0.0740
   21POPC   C4A  681   6.597   0.928   7.120  0.0594 -0.0214  0.3198
   21POPC   C1B  682   5.939   0.671   7.910  0.0158  0.5351  0.1018
   21POPC   C2B  683   6.008   0.421   7.498 -0.0896  0.0168 -0.2579
   21POPC   C3B  684   6.066   0.724   7.175 -0.1739  0.1982 -0.0915
   21POPC   C4B  685   6.224   1.057   6.849 -0.3877 -0.0173  0.2988
   22POPC   NC3  686   5.693   6.772   8.080  0.0447  0.0762 -0.1490
   22POPC   PO4  687   5.245   6.993   8.235 -0.0904 -0.2478  0.2563
   22POPC   GL1  688   5.358   7.299   8.052 -0.1399 -0.2293 -0.3471
   22POPC   GL2  689   5.574   7.213   7.809 -0.1308 -0.3762 -0.0471
   22POPC   C1A  690   5.323   7.618   7.820  0.3414  0.0555 -0.2313
   22POPC   D2A  691   5.497   7.583   7.391 -0.0344  0.2650 -0.1322
   22POPC   C3A  692   5.750   7.447   7.071  0.2417  0.0840  0.0774
   22POPC   C4A  693   6.043   7.222   6.700 -0.1066  0.0112  0.2676
   22POPC   C1B  694   5.540   7.023   7.446 -0.1551  0.0365  0.1484
   22POPC   C2B  695   5.579   6.931   6.946 -0.1320  0.0562 -0.0543
   22POPC   C3B  696   5.471   6.960   6.546  0.1807  0.0598 -0.0148
   22POPC   C4B  697   4.975   6.934   6.309  0.0634  0.1770  0.1599
   23POPC   NC3  698   4.634   6.028   8.627  0.2561 -0.3091 -0.0793
   23POPC   PO4  699   4.956   5.653   8.331 -0.2223 -0.3139 -0.1167
   23POPC   GL1  700   4.940   5.429   8.013 -0.0192 -0.0957 -0.1065
   23POPC   GL2  701   4.982   5.666   7.778  0.0025 -0.0410  0.1939
   23POPC   C1A  702   4.680   5.248   7.687 -0.2642 -0.1467 -0.0531
   23POPC   D2A  703   4.800   5.074   7.323 -0.0800 -0.2171 -0.1265
   23POPC   C3A  704   5.274   4.955   7.215  0.1867 -0.0880 -0.2609
   23POPC   C4A  705   5.727   4.739   7.006 -0.2171  0.0075 -0.1409
   23POPC   C1B  706   4.873   5.629   7.395  0.1491  0.1462  0.0015
   23POPC   C2B  707   5.093   5.474   7.096  0.1867  0.0603 -0.0846
   23POPC   C3B  708   4.968   5.177   6.864  0.1053  0.0351  0.1833
   23POPC   C4B  709   4.911   4.896   6.476 -0.0782 -0.1128 -0.1999
   24POPC   NC3  710   1.152   1.024   9.040 -0.1234  0.1102  0.3361
   24POPC   PO4  711   0.794   0.965   9.300  0.1808 -0.2524 -0.1950
   24POPC   GL1  712   0.591   1.296   9.069 -0.0185 -0.0286  0.2020
   24POPC   GL2  713   0.794   1.313   8.762 -0.0572  0.3391 -0.1113
   24POPC   C1A  714   0.536   1.747   8.932  0.2024 -0.0177  0.1024
   24POPC   D2A  715   0.654   2.089   8.712  0.1990  0.2589 -0.3066
   24POPC   C3A  716   0.863   2.225   8.282 -0.1710  0.1009 -0.0206
   24POPC   C4A  717   1.282   2.058   8.266 -0.2136 -0.2055  0.2428
   24POPC   C1B  718   0.875   1.105   8.340  0.0751  0.0810  0.1443
   24POPC   C2B  719   0.831   0.852   7.977  0.3148  0.1901 -0.1166
   24POPC   C3B  720   0.374   0.754   7.906 -0.0340 -0.2817 -0.0065
   24POPC   C4B  721   0.337   0.509   7.502  0.0451  0.0821 -0.3245
   25POPC   NC3  722   7.828   6.256   8.380  0.3709 -0.4623 -0.3042
   25POPC   PO4  723   7.819   6.672   8.295  0.2065 -0.1931  0.1581
   25POPC   GL1  724   7.666   6.902   7.949  0.0736  0.2143  0.0444
   25POPC   GL2  725   7.884   7.068   7.793 -0.0315  0.1439  0.0503
   25POPC   C1A  726   7.458   6.772   7.673  0.3152 -0.3297 -0.0296
   25POPC   D2A  727   7.383   6.770   7.218  0.2331 -0.1795  0.2940
   25POPC   C3A  728   7.386   6.682   6.787 -0.2215  0.3327  0.0040
   25POPC   C4A  729   7.603   6.394   6.515 -0.1304  0.1264  0.0115
   25POPC   C1B  730   8.292   6.841   7.762 -0.1772 -0.1289 -0.0365
   25POPC   C2B  731   8.751   7.101   7.544 -0.0428  0.1195  0.2162
   25POPC   C3B  732   8.728   7.481   7.343 -0.2476 -0.0628 -0.0971
   25POPC   C4B  733   8.834   7.829   7.450  0.1417  0.0394  0.0456
   26POPC   NC3  734   3.723   7.709   8.573 -0.2988  0.1640 -0.1010
   26POPC   PO4  735   3.528   7.529   8.265 -0.0351 -0.0055 -0.1545
   26POPC   GL1  736   3.469   7.550   7.851 -0.1597 -0.0171  0.0753
   26POPC   GL2  737   3.413   7.204   7.747 -0.1546 -0.0425  0.2038
   26POPC   C1A  738   3.223   7.663   7.594 -0.0185  0.0211 -0.0027
   26POPC   D2A  739   3.184   7.656   7.192  0.1285 -0.2853 -0.2771
   26POPC   C3A  740   3.248   8.042   6.948  0.0469 -0.3282 -0.1165
   26POPC   C4A  741   3.153   8.438   6.767  0.1878 -0.2055 -0.0376
   26POPC   C1B  742   3.597   7.410   7.411  0.3725 -0.1502  0.0384
   26POPC   C2B  743   3.537   7.541   6.912 -0.0764  0.0927 -0.5384
   26POPC   C3B  744   3.309   7.693   6.570  0.1288 -0.0991  0.0755
   26POPC   C4B  745   2.961   8.024   6.562  0.2389  0.1905  0.1807
   27POPC   NC3  746   4.519   4.330   8.185 -0.2971 -0.3309  0.3987
   27POPC   PO4  747   4.686   3.920   8.105 -0.0601  0.1496 -0.1720
   27POPC   GL1  748   4.704   4.012   7.631 -0.0664 -0.3210  0.2633
   27POPC   GL2  749   4.523   4.200   7.573  0.2624  0.1371 -0.0147
   27POPC   C1A  750   4.929   3.941   7.198 -0.0670 -0.0662  0.0852
   27POPC   D2A  751   5.187   3.853   6.834 -0.0077  0.2688  0.1658
   27POPC   C3A  752   5.422   4.067   6.619  0.1155  0.1182  0.1715
   27POPC   C4A  753   5.481   4.518   6.534 -0.0333  0.0543 -0.0499
   27POPC   C1B  754   4.555   4.177   7.114 -0.0207 -0.2061  0.1124
   27POPC   C2B  755   4.643   3.906   6.762 -0.0718 -0.3078  0.0991
   27POPC   C3B  756   5.008   3.910   6.343  0.1063  0.0341  0.0684
   27POPC   C4B  757   5.333   4.269   6.133  0.1936 -0.1449 -0.3132
   28POPC   NC3  758   8.307   4.530   8.631 -0.0072 -0.0220  0.1626
   28POPC   PO4  759   8.583   4.135   8.505  0.1706  0.0471 -0.0989
   28POPC   GL1  760   8.668   3.827   8.245  0.1661  0.1312 -0.4689
   28POPC   GL2  761   8.996   3.849   8.084 -0.0603 -0.2236  0.6081
   28POPC   C1A  762   8.408   3.559   7.897 -0.0813 -0.0113  0.2475
   28POPC   D2A  763   8.443   3.236   7.609  0.1969 -0.1657  0.0383
   28POPC   C3A  764   8.799   3.044   7.449 -0.0713  0.0565  0.2540
   28POPC   C4A  765   9.166   2.951   7.247  0.0507 -0.2976 -0.1275
   28POPC   C1B  766   8.976   3.774   7.779  0.0166  0.0337 -0.1744
   28POPC   C2B  767   8.807   3.726   7.497  0.1382 -0.2238  0.3372
   28POPC   C3B  768   8.836   3.464   7.117  0.2514  0.0899 -0.1017
   28POPC   C4B  769   8.926   3.160   6.924  0.2820 -0.1699 -0.1979
   29POPC   NC3  770   3.455   1.037   9.305 -0.1708  0.1966 -0.1201
   29POPC   PO4  771   3.122   0.845   9.081 -0.2999 -0.0454 -0.0819
   29POPC   GL1  772   2.898   0.794   8.661 -0.2818  0.2161  0.1241
   29POPC   GL2  773   2.970   0.998   8.407  0.1149  0.0660 -0.0118
   29POPC   C1A  774   2.867   0.486   8.264 -0.0151 -0.0215  0.1283
   29POPC   D2A  775   2.627   0.128   8.125  0.0572 -0.2273  0.1066
   29POPC   C3A  776   2.626  -0.069   7.734 -0.0639 -0.1021 -0.3903
   29POPC   C4A  777   2.792  -0.272   7.295  0.0410 -0.2356  0.0364
   29POPC   C1B  778   3.204   0.864   8.011  0.0220 -0.3345 -0.0818
   29POPC   C2B  779   3.129   0.641   7.779 -0.1210 -0.0494  0.0306
   29POPC   C3B  780   2.947   0.303   7.402 -0.1686 -0.0243  0.3752
   29POPC   C4B  781   2.546   0.169   7.341  0.3008  0.0180 -0.0606
   30POPC   NC3  782   6.872   6.875   8.627 -0.1933 -0.0504  0.4374
   30POPC   PO4  783   6.793   6.403   8.570 -0.1996  0.0390 -0.1927
   30POPC   GL1  784   6.902   6.350   8.107 -0.1743 -0.1806  0.1322
   30POPC   GL2  785   6.933   6.600   7.887 -0.0406 -0.0492 -0.0786
   30POPC   C1A  786   6.788   6.088   7.719 -0.1274  0.2847 -0.3410
   30POPC   D2A  787   6.835   5.875   7.282 -0.1686 -0.2117 -0.2686
   30POPC   C3A  788   7.056   6.192   7.113  0.2990  0.0345  0.0287
   30POPC   C4A  789   6.992   6.354   6.695  0.0013 -0.0983 -0.0461
   30POPC   C1B  790   6.924   6.492   7.449 -0.2255 -0.0551 -0.0324
   30POPC   C2B  791   6.908   6.753   7.133 -0.1307  0.1728  0.0885
   30POPC   C3B  792   6.917   6.886   6.775  0.1682 -0.2328  0.0672
   30POPC   C4B  793   6.978   6.694   6.314 -0.2842 -0.4007  0.0200
   31POPC   NC3  794   4.195   3.365   8.349  0.1910  0.0725  0.0784
   31POPC   PO4  795   4.620   3.431   8.289  0.0578 -0.1788  0.0580
   31POPC   GL1  796   4.464   3.432   7.912 -0.0387 -0.0637  0.1564
   31POPC   GL2  797   4.584   3.529   7.712  0.2834 -0.0599  0.1641
   31POPC   C1A  798   4.384   3.119   7.549  0.0665  0.0458  0.1321
   31POPC   D2A  799   4.039   3.018   7.350 -0.0896  0.1033 -0.2194
   31POPC   C3A  800   3.906   3.368   7.119  0.1402 -0.1975 -0.1914
   31POPC   C4A  801   3.781   3.672   6.829  0.0648 -0.1670 -0.4611
   31POPC   C1B  802   4.566   3.526   7.313  0.2429  0.0294 -0.3543
   31POPC   C2B  803   4.308   3.549   6.894  0.0270  0.0498  0.1588
   31POPC   C3B  804   4.276   3.538   6.437 -0.1192  0.2325 -0.1758
   31POPC   C4B  805   4.248   3.787   6.036 -0.2219 -0.0485 -0.0674
   32POPC   NC3  806   2.168   0.693   8.918 -0.0875  0.1593  0.3135
   32POPC   PO4  807   1.886   0.598   8.546  0.1465 -0.0296 -0.0122
   32POPC   GL1  808   1.790   0.324   8.223  0.2426 -0.0810  0.1512
   32POPC   GL2  809   2.053   0.398   8.116  0.2189 -0.2096  0.0765
   32POPC   C1A  810   1.584   0.375   7.878  0.0809  0.1385  0.0116
   32POPC   D2A  811   1.208   0.676   7.652 -0.2190  0.1615  0.2436
   32POPC   C3A  812   0.936   0.471   7.353 -0.0267  0.1173  0.1394
   32POPC   C4A  813   0.600   0.097   7.399 -0.1390  0.1572 -0.2759
   32POPC   C1B  814   2.423   0.501   7.797 -0.4067  0.0154  0.2872
   32POPC   C2B  815   2.613   0.693   7.408  0.5257 -0.0895 -0.1784
   32POPC   C3B  816   2.509   0.572   6.997  0.3361  0.0177  0.3079
   32POPC   C4B  817   2.369   0.278   6.643  0.1476  0.0329  0.0010
   33POPC   NC3  818   5.900   8.701   9.019  0.2217 -0.0978  0.2398
   33POPC   PO4  819   5.782   8.488   8.603 -0.1838  0.5556  0.1181
   33POPC   GL1  820   5.868   8.650   8.248  0.2515 -0.1450  0.0555
   33POPC   GL2  821   5.816   9.019   8.235 -0.2031 -0.1169 -0.0101
   33POPC   C1A  822   5.679   8.458   7.775  0.1251 -0.3251 -0.1295
   33POPC   D2A  823   5.541   8.051   7.622  0.0992  0.2909  0.3369
   33POPC   C3A  824   5.665   7.966   7.153  0.2412 -0.0620  0.0257
   33POPC   C4A  825   5.919   8.172   6.821 -0.0097  0.4597  0.1206
   33POPC   C1B  826   6.136   9.159   7.914  0.1687 -0.0159  0.0567
   33POPC   C2B  827   6.489   9.426   7.759  0.0491  0.2115 -0.0887
   33POPC   C3B  828   6.868   9.357   7.492  0.1902  0.0267 -0.1046
   33POPC   C4B  829   7.106   9.377   7.024 -0.1897  0.0007 -0.5539
   34POPC   NC3  830   2.467   7.485   8.592 -0.1817  0.0320  0.0780
   34POPC   PO4  831   2.140   7.352   8.349  0.3645  0.1532  0.0694
   34POPC   GL1  832   1.764   7.314   7.986 -0.0841 -0.0657 -0.0605
   34POPC   GL2  833   1.469   7.244   8.028 -0.0257  0.1514 -0.1352
   34POPC   C1A  834   1.713   7.320   7.500 -0.0265 -0.0090  0.0855
   34POPC   D2A  835   1.376   7.615   7.365 -0.1763 -0.1978 -0.0006
   34POPC   C3A  836   1.488   8.113   7.337  0.0029 -0.1405  0.0455
   34POPC   C4A  837   1.323   8.349   6.853  0.0091 -0.0166 -0.0882
   34POPC   C1B  838   1.231   7.189   7.660 -0.0463 -0.0069  0.1316
   34POPC   C2B  839   1.411   6.918   7.410  0.2374 -0.3278  0.2413
   34POPC   C3B  840   1.711   6.800   7.152 -0.0772 -0.0556  0.2608
   34POPC   C4B  841   2.223   6.675   7.186 -0.0271 -0.0394 -0.3594
   35POPC   NC3  842   7.863   7.290   8.260  0.1203 -0.0479  0.1104
   35POPC   PO4  843   8.174   7.400   8.538  0.0358 -0.0912 -0.1281
   35POPC   GL1  844   8.308   7.567   8.182  0.0607  0.0885  0.2722
   35POPC   GL2  845   8.393   7.356   7.870  0.0735 -0.1556 -0.0597
   35POPC   C1A  846   8.575   7.838   7.878 -0.0699 -0.0438 -0.3026
   35POPC   D2A  847   8.487   8.163   7.509 -0.1873 -0.4251  0.0484
   35POPC   C3A  848   8.838   8.343   7.378  0.1776  0.0173 -0.0546
   35POPC   C4A  849   9.258   8.372   7.662 -0.1213  0.0752 -0.0366
   35POPC   C1B  850   8.251   7.266   7.431 -0.1356  0.2747 -0.1515
   35POPC   C2B  851   8.284   7.442   6.993  0.0661  0.2214  0.2176
   35POPC   C3B  852   8.589   7.670   6.881 -0.2457  0.1450 -0.1381
   35POPC   C4B  853   8.706   8.064   7.000 -0.3084  0.0401 -0.1806
   36POPC   NC3  854   6.617   4.324   8.061  0.1164  0.1652 -0.0853
   36POPC   PO4  855   6.924   4.004   8.160 -0.0622  0.2828 -0.1413
   36POPC   GL1  856   7.202   4.171   7.816 -0.0759  0.0751 -0.1923
   36POPC   GL2  857   7.565   4.137   7.978  0.1727 -0.3733  0.2100
   36POPC   C1A  858   7.246   4.325   7.502 -0.1364 -0.2115  0.1211
   36POPC   D2A  859   7.303   4.345   7.045 -0.0744 -0.2145 -0.2061
   36POPC   C3A  860   7.386   4.117   6.712 -0.0072  0.0908  0.0080
   36POPC   C4A  861   7.492   3.814   6.516  0.1081 -0.0531 -0.0820
   36POPC   C1B  862   7.744   4.120   7.692 -0.2494  0.0190 -0.0585
   36POPC   C2B  863   7.792   4.201   7.216 -0.0317  0.0720  0.0046
   36POPC   C3B  864   7.904   3.950   6.916 -0.1840 -0.1921 -0.2980
   36POPC   C4B  865   7.816   4.235   6.518 -0.0373 -0.0383 -0.2231
   37POPC   NC3  866   5.848   4.772   8.534  0.1778  0.0342  0.0277
   37POPC   PO4  867   6.138   4.786   8.204 -0.1502  0.1811  0.0989
   37POPC   GL1  868   6.300   4.703   7.832 -0.1427  0.0689  0.0897
   37POPC   GL2  869   6.682   4.689   7.727  0.0007 -0.0775 -0.2222
   37POPC   C1A  870   6.127   4.731   7.451  0.3586 -0.0408  0.1875
   37POPC   D2A  871   6.203   4.838   6.973 -0.2098 -0.1586 -0.1601
   37POPC   C3A  872   6.412   4.489   6.657  0.2233  0.1634  0.0756
   37POPC   C4A  873   6.328   4.534   6.139  0.1240  0.0254  0.1283
   37POPC   C1B  874   6.615   4.540   7.296  0.2651 -0.1100 -0.2878
   37POPC   C2B  875   6.817   4.467   6.949  0.1213 -0.0572  0.3132
   37POPC   C3B  876   6.920   4.172   6.721  0.1764 -0.0242  0.0790
   37POPC   C4B  877   6.903   3.827   6.476 -0.2718  0.0042 -0.1542
   38POPC   NC3  878   6.915   0.506   9.688 -0.0250  0.1252  0.0887
   38POPC   PO4  879   6.720   0.407   9.289 -0.0795 -0.0053 -0.2335
   38POPC   GL1  880   6.677   0.570   8.794  0.0704 -0.1221  0.2622
   38POPC   GL2  881   6.380   0.443   8.661 -0.1722  0.0046 -0.2985
   38POPC   C1A  882   6.863   0.828   8.407  0.0881 -0.3562  0.2606
   38POPC   D2A  883   6.933   1.170   8.272  0.0483 -0.2496  0.2550
   38POPC   C3A  884   6.726   1.397   7.873  0.0201  0.2315  0.3001
   38POPC   C4A  885   6.429   1.593   7.828  0.2517  0.2656  0.1982
   38POPC   C1B  886   6.454   0.487   8.280  0.1566 -0.0304  0.3883
   38POPC   C2B  887   6.602   0.392   7.918  0.0855 -0.0046  0.1194
   38POPC   C3B  888   6.891   0.434   7.689 -0.1454 -0.0954  0.0741
   38POPC   C4B  889   7.318   0.607   7.468  0.2081  0.2253 -0.2396
   39POPC   NC3  890   7.963   7.914   9.252 -0.2921  0.3108 -0.4425
   39POPC   PO4  891   8.089   8.350   9.257  0.1717 -0.0381 -0.2969
   39POPC   GL1  892   8.433   8.545   8.928  0.0088  0.1854  0.0271
   39POPC   GL2  893   8.458   8.927   8.839  0.3587  0.0586  0.1110
   39POPC   C1A  894   8.694   8.524   8.515 -0.0317 -0.0588 -0.1237
   39POPC   D2A  895   8.722   8.716   8.196  0.0670 -0.2166 -0.0262
   39POPC   C3A  896   8.562   9.172   8.372 -0.0340  0.2899 -0.2384
   39POPC   C4A  897   8.277   9.544   8.423 -0.0509 -0.0879 -0.2248
   39POPC   C1B  898   8.471   9.343   8.909  0.1265  0.1902  0.2911
   39POPC   C2B  899   8.704   9.519   9.010  0.0088  0.0565 -0.0744
   39POPC   C3B  900   9.023   9.894   9.022  0.1899  0.3391  0.1667
   39POPC   C4B  901   9.403   9.794   8.973 -0.0699 -0.2937 -0.0075
   40POPC   NC3  902   2.671   1.149   8.889  0.1851  0.5070 -0.1274
   40POPC   PO4  903   2.939   1.539   8.760  0.2662  0.0987 -0.0321
   40POPC   GL1  904   2.748   1.574   8.322  0.0313  0.1580  0.0530
   40POPC   GL2  905   2.515   1.349   8.116 -0.2108 -0.2593  0.0146
   40POPC   C1A  906   2.714   1.738   7.878 -0.2349 -0.3438  0.4161
   40POPC   D2A  907   2.447   1.922   7.545  0.1121 -0.1177  0.0821
   40POPC   C3A  908   2.261   1.665   7.225 -0.0130  0.3519 -0.1779
   40POPC   C4A  909   2.037   1.464   6.858 -0.0260  0.1169 -0.0671
   40POPC   C1B  910   2.875   1.280   7.881  0.2382  0.0694 -0.0256
   40POPC   C2B  911   2.913   1.036   7.538  0.1779 -0.0552  0.2437
   40POPC   C3B  912   2.969   1.129   7.114  0.0875  0.0844  0.1984
   40POPC   C4B  913   2.706   1.002   6.866  0.1008 -0.1170 -0.1033
   41POPC   NC3  914   8.582   2.151   9.450 -0.1080 -0.1553  0.3085
   41POPC   PO4  915   8.880   1.922   9.700 -0.2472  0.0775  0.2235
   41POPC   GL1  916   8.967   1.659   9.384 -0.1537  0.1633 -0.1214
   41POPC   GL2  917   8.816   1.865   9.120  0.1525 -0.1469 -0.2427
   41POPC   C1A  918   9.034   1.417   9.087 -0.1363 -0.2847  0.0501
   41POPC   D2A  919   9.246   1.235   8.773 -0.0258  0.0438  0.1703
   41POPC   C3A  920   9.158   1.219   8.440  0.3494  0.1903  0.0260
   41POPC   C4A  921   9.023   1.052   8.175  0.2955  0.2444 -0.0303
   41POPC   C1B  922   9.022   1.798   8.704  0.2694 -0.2110 -0.1256
   41POPC   C2B  923   8.845   1.633   8.424 -0.2984 -0.1030  0.1226
   41POPC   C3B  924   8.605   1.281   8.249  0.1471 -0.0163 -0.3258
   41POPC   C4B  925   8.253   0.980   8.396  0.2077 -0.1062 -0.0382
   42POPC   NC3  926   2.177   9.121   8.808 -0.0529 -0.0543 -0.1842
   42POPC   PO4  927   2.199   9.556   8.687 -0.1580  0.3675  0.0797
   42POPC   GL1  928   2.072   9.378   8.394  0.0883 -0.1701  0.0109
   42POPC   GL2  929   2.244   9.267   8.180 -0.0471  0.1618  0.2109
   42POPC   C1A  930   1.739   9.480   8.143  0.4787  0.0168 -0.2168
   42POPC   D2A  931   1.422   9.681   7.755  0.1349 -0.1062 -0.3114
   42POPC   C3A  932   1.322   9.431   7.482  0.1107 -0.1960 -0.2479
   42POPC   C4A  933   1.080   9.200   7.108  0.0788  0.1169 -0.0430
   42POPC   C1B  934   2.110   9.210   7.824 -0.1078  0.0913  0.0845
   42POPC   C2B  935   1.836   9.388   7.597  0.1443  0.0034  0.1410
   42POPC   C3B  936   1.686   9.860   7.324 -0.0650 -0.1327  0.0959
   42POPC   C4B  937   1.448  10.026   6.985  0.2276 -0.1714 -0.1857
   43POPC   NC3  938   5.874   3.343   8.159  0.0507  0.0789  0.1132
   43POPC   PO4  939   5.605   3.532   7.869  0.0282  0.0754  0.1373
   43POPC   GL1  940   5.456   3.369   7.551 -0.1989 -0.0806 -0.0513
   43POPC   GL2  941   5.149   3.598   7.509  0.1010  0.0556  0.1028
   43POPC   C1A  942   5.392   3.195   7.207 -0.4575  0.3824 -0.2865
   43POPC   D2A  943   5.437   3.082   6.774  0.2225  0.1901  0.1447
   43POPC   C3A  944   5.293   3.459   6.593 -0.1726  0.1677  0.0129
   43POPC   C4A  945   5.260   3.607   6.105 -0.2639 -0.1359  0.0908
   43POPC   C1B  946   4.993   3.460   7.090  0.0527  0.1493  0.3222
   43POPC   C2B  947   4.705   3.369   6.703 -0.5892  0.2026  0.3048
   43POPC   C3B  948   4.584   3.060   6.541 -0.2289 -0.0919  0.3833
   43POPC   C4B  949   4.281   2.993   6.267 -0.0432 -0.0120 -0.2192
   44POPC   NC3  950   8.024   9.169   9.687  0.0745 -0.2466  0.0300
   44POPC   PO4  951   7.558   9.263   9.480 -0.3467 -0.1639  0.1767
   44POPC   GL1  952   7.643   9.353   9.129  0.1501  0.0179  0.0557
   44POPC   GL2  953   8.003   9.361   9.191  0.0535  0.0654  0.0066
   44POPC   C1A  954   7.557   9.285   8.687  0.0948  0.0375 -0.2112
   44POPC   D2A  955   7.597   8.927   8.473  0.3689 -0.2295  0.0227
   44POPC   C3A  956   7.389   9.032   8.174  0.2944  0.1657 -0.1992
   44POPC   C4A  957   7.220   9.162   7.753  0.0621  0.2895 -0.1523
   44POPC   C1B  958   8.027   9.171   8.718 -0.2792  0.0515  0.3095
   44POPC   C2B  959   8.134   8.979   8.293 -0.0149 -0.1737 -0.1495
   44POPC   C3B  960   8.381   8.962   7.888  0.1366 -0.0614  0.2987
   44POPC   C4B  961   8.496   9.294   7.512 -0.2438  0.1845 -0.3551
   45POPC   NC3  962   1.648   3.083   8.677  0.3191  0.0329 -0.0262
   45POPC   PO4  963   1.222   2.913   8.695 -0.1674  0.1441 -0.0951
   45POPC   GL1  964   1.075   2.804   8.337 -0.2341 -0.1046 -0.2130
   45POPC   GL2  965   0.706   2.755   8.393  0.0827 -0.1274  0.1117
   45POPC   C1A  966   0.997   2.939   7.930  0.1918 -0.1086 -0.3950
   45POPC   D2A  967   1.024   3.142   7.543 -0.0221  0.3145  0.0603
   45POPC   C3A  968   0.691   2.985   7.241  0.1052 -0.2258 -0.3694
   45POPC   C4A  969   0.232   2.890   7.195 -0.0066  0.1085  0.0076
   45POPC   C1B  970   0.628   2.619   7.961 -0.1125 -0.2296  0.1898
   45POPC   C2B  971   0.665   2.317   7.703 -0.1327 -0.1656 -0.0696
   45POPC   C3B  972   0.706   2.074   7.457  0.0394 -0.0326  0.0146
   45POPC   C4B  973   0.729   1.938   6.999  0.3455 -0.0474  0.0363
   46POPC   NC3  974   5.361   5.911   8.037 -0.0609 -0.2028 -0.1631
   46POPC   PO4  975   5.792   5.696   7.962  0.1343  0.2356  0.1102
   46POPC   GL1  976   6.052   5.506   7.727  0.0143 -0.2204 -0.1135
   46POPC   GL2  977   5.985   5.134   7.735  0.2272  0.1175 -0.0430
   46POPC   C1A  978   6.120   5.353   7.291  0.3801  0.2672 -0.1315
   46POPC   D2A  979   6.453   5.627   7.053 -0.1444  0.1804  0.2107
   46POPC   C3A  980   6.520   5.397   6.665 -0.2890  0.0808 -0.1296
   46POPC   C4A  981   6.898   5.311   6.480 -0.4091  0.0740  0.0295
   46POPC   C1B  982   5.763   5.090   7.505  0.0681  0.2407 -0.1692
   46POPC   C2B  983   5.627   5.366   7.163 -0.1919  0.2265  0.0568
   46POPC   C3B  984   5.926   5.153   6.746 -0.1355 -0.2820 -0.2582
   46POPC   C4B  985   5.952   5.327   6.327 -0.0393 -0.1084 -0.1803
   47POPC   NC3  986   4.214   8.608   8.489 -0.0857 -0.1165  0.1570
   47POPC   PO4  987   4.237   8.244   8.212  0.0692 -0.2583 -0.2122
   47POPC   GL1  988   4.027   8.361   7.853  0.2061 -0.0306 -0.1278
   47POPC   GL2  989   4.132   8.359   7.707  0.0939 -0.0415  0.1090
   47POPC   C1A  990   3.619   8.526   7.686 -0.1294  0.0608  0.0646
   47POPC   D2A  991   3.375   8.500   7.317 -0.0417  0.0386 -0.1758
   47POPC   C3A  992   3.610   8.544   6.834 -0.1286  0.1876  0.1760
   47POPC   C4A  993   3.728   8.289   6.409  0.0048  0.2031  0.1794
   47POPC   C1B  994   4.546   8.253   7.425  0.1740  0.1167 -0.1580
   47POPC   C2B  995   4.925   8.388   7.127  0.3838 -0.2376  0.3895
   47POPC   C3B  996   5.273   8.471   6.970 -0.1491  0.0398  0.1464
   47POPC   C4B  997   5.369   8.463   6.452 -0.0839 -0.1398  0.1194
   48POPC   NC3  998   7.167   2.246   8.835 -0.1371  0.0093  0.1517
   48POPC   PO4  999   7.106   2.681   8.853  0.1480  0.2740 -0.1508
   48POPC   GL1 1000   7.201   2.588   8.479  0.0665 -0.3321 -0.0474
   48POPC   GL2 1001   7.530   2.816   8.377 -0.0834 -0.0793 -0.0791
   48POPC   C1A 1002   7.146   2.284   8.098 -0.0075  0.3500  0.0636
   48POPC   D2A 1003   7.237   2.378   7.686  0.0538 -0.1221  0.2564
   48POPC   C3A 1004   7.094   2.574   7.300 -0.0346  0.0192 -0.2452
   48POPC   C4A 1005   7.175   2.483   6.866 -0.0184  0.0848 -0.1022
   48POPC   C1B 1006   7.550   2.804   7.859  0.2865  0.3548  0.1483
   48POPC   C2B 1007   7.530   2.706   7.484  0.3746  0.2107  0.0622
   48POPC   C3B 1008   7.532   2.766   7.041  0.0181  0.2217  0.0466
   48POPC   C4B 1009   7.567   3.039   6.625 -0.1662 -0.0291  0.1129
   49POPC   NC3 1010   7.119   6.112   8.890 -0.0293 -0.2897  0.0829
   49POPC   PO4 1011   7.360   6.165   8.507 -0.0055  0.0514 -0.2824
   49POPC   GL1 1012   7.382   6.052   8.124 -0.1191  0.2350 -0.2044
   49POPC   GL2 1013   7.481   6.339   7.969  0.4595 -0.0568 -0.2315
   49POPC   C1A 1014   7.563   5.692   7.951  0.0075 -0.1707 -0.0214
   49POPC   D2A 1015   7.486   5.296   7.750 -0.0478  0.0763 -0.3239
   49POPC   C3A 1016   7.459   5.206   7.341 -0.1823 -0.0532 -0.0678
   49POPC   C4A 1017   7.722   5.237   7.043  0.0866 -0.3997  0.1995
   49POPC   C1B 1018   7.460   6.305   7.536  0.0488  0.0675 -0.0447
   49POPC   C2B 1019   7.685   6.259   7.125 -0.3985 -0.1559 -0.0874
   49POPC   C3B 1020   7.982   6.178   6.687 -0.2824  0.0031  0.1133
   49POPC   C4B 1021   8.020   5.728   6.457 -0.2942 -0.3008  0.0621
   50POPC   NC3 1022   2.994   3.481   8.625 -0.0521  0.1464  0.2318
   50POPC   PO4 1023   3.348   3.552   8.297  0.2834 -0.1796 -0.0036
   50POPC   GL1 1024   3.360   3.515   7.804  0.0929  0.2103  0.3124
   50POPC   GL2 1025   3.497   3.887   7.696 -0.1888  0.1215  0.0348
   50POPC   C1A 1026   3.473   3.565   7.328 -0.1008  0.0407 -0.0350
   50POPC   D2A 1027   3.381   3.319   6.899  0.1031 -0.0422 -0.3007
   50POPC   C3A 1028   3.028   3.246   6.563  0.0070 -0.0495 -0.0897
   50POPC   C4A 1029   2.544   3.370   6.538 -0.0036 -0.2357 -0.3103
   50POPC   C1B 1030   3.136   4.034   7.558  0.2485  0.1768 -0.1997
   50POPC   C2B 1031   3.033   4.397   7.345  0.1427 -0.0731  0.2415
   50POPC   C3B 1032   3.131   4.461   6.931 -0.1255  0.0578 -0.6694
   50POPC   C4B 1033   3.500   4.281   6.731 -0.0080  0.1043  0.1903
   51POPC   NC3 1034   3.192   8.564   8.999  0.3721  0.2326 -0.1292
   51POPC   PO4 1035   2.943   8.779   8.741  0.0053 -0.1474 -0.1434
   51POPC   GL1 1036   2.953   8.698   8.232 -0.0638  0.0554  0.1710
   51POPC   GL2 1037   3.187   8.541   8.126 -0.3507  0.1431  0.1979
   51POPC   C1A 1038   2.782   8.391   7.886  0.0208  0.0236  0.1489
   51POPC   D2A 1039   2.327   8.332   7.764  0.0883 -0.2175 -0.0180
   51POPC   C3A 1040   2.307   8.210   7.249  0.1159  0.3153  0.0551
   51POPC   C4A 1041   1.982   8.247   7.132  0.2811  0.2236 -0.2508
   51POPC   C1B 1042   3.150   8.859   7.768  0.0984 -0.0150 -0.0113
   51POPC   C2B 1043   3.383   9.024   7.498 -0.0663 -0.0008  0.0588
   51POPC   C3B 1044   3.482   9.023   7.160 -0.1184  0.1702  0.1528
   51POPC   C4B 1045   3.413   8.957   6.675  0.2855 -0.1898 -0.1722
   52POPC   NC3 1046   6.580   0.031   8.930 -0.2484  0.0101  0.1278
   52POPC   PO4 1047   6.240  -0.283   8.941  0.0183  0.1133  0.0331
   52POPC   GL1 1048   6.201  -0.195   8.502 -0.0041  0.1598 -0.3703
   52POPC   GL2 1049   6.258   0.054   8.409  0.2310 -0.0004 -0.1969
   52POPC   C1A 1050   6.146  -0.246   7.996 -0.1265  0.1232 -0.2796
   52POPC   D2A 1051   6.538  -0.036   7.786  0.2821 -0.1949  0.0227
   52POPC   C3A 1052   6.825  -0.085   7.514 -0.2245  0.0356  0.0440
   52POPC   C4A 1053   7.108   0.165   7.328 -0.0242 -0.1617  0.2219
   52POPC   C1B 1054   6.162   0.220   7.959 -0.1070 -0.0113  0.0012
   52POPC   C2B 1055   5.745   0.176   7.862 -0.2545 -0.2494 -0.0736
   52POPC   C3B 1056   5.501   0.020   7.518 -0.4583  0.1982  0.0842
   52POPC   C4B 1057   5.134  -0.228   7.362  0.0589 -0.0193  0.1942
   53POPC   NC3 1058   2.684   4.089   8.278  0.1654 -0.3062 -0.4337
   53POPC   PO4 1059   2.687   3.672   8.245 -0.1559  0.0082  0.0187
   53POPC   GL1 1060   2.851   3.509   7.898  0.1314  0.0236 -0.1626
   53POPC   GL2 1061   2.778   3.245   7.823 -0.1913 -0.1140  0.0521
   53POPC   C1A 1062   2.880   3.697   7.354  0.3326 -0.2097 -0.2654
   53POPC   D2A 1063   2.928   3.591   6.929  0.2615 -0.2162 -0.4023
   53POPC   C3A 1064   2.844   3.795   6.599  0.2232 -0.2862 -0.3614
   53POPC   C4A 1065   2.978   4.223   6.413 -0.1610  0.1750 -0.2337
   53POPC   C1B 1066   2.544   3.258   7.402 -0.2492  0.0407  0.0034
   53POPC   C2B 1067   2.263   3.302   6.952 -0.0573  0.3341 -0.2857
   53POPC   C3B 1068   2.002   3.369   6.589 -0.3496 -0.1396  0.2259
   53POPC   C4B 1069   1.844   3.676   6.282  0.0324  0.2405  0.3688
   54POPC   NC3 1070   1.178   1.443   9.383 -0.0020  0.0060  0.0737
   54POPC   PO4 1071   1.442   1.519   8.958 -0.3439  0.2266  0.2980
   54POPC   GL1 1072   1.235   1.604   8.605  0.1377 -0.1057  0.1060
   54POPC   GL2 1073   1.454   1.352   8.441 -0.0460 -0.0728  0.0133
   54POPC   C1A 1074   0.795   1.695   8.400 -0.0530  0.1763  0.2896
   54POPC   D2A 1075   0.702   1.883   7.912 -0.2742 -0.0657 -0.1152
   54POPC   C3A 1076   0.666   1.572   7.500 -0.0843 -0.2975  0.1372
   54POPC   C4A 1077   0.426   1.328   7.179 -0.0226 -0.4123 -0.1475
   54POPC   C1B 1078   1.360   1.577   8.039  0.0658  0.1445  0.2859
   54POPC   C2B 1079   1.124   1.707   7.738  0.1589  0.2727  0.4314
   54POPC   C3B 1080   1.088   1.853   7.336  0.0031 -0.0022  0.1191
   54POPC   C4B 1081   1.191   1.898   6.857  0.2211  0.1361 -0.2145
   55POPC   NC3 1082   4.591   1.696   8.507  0.4070 -0.4647  0.2288
   55POPC   PO4 1083   5.003   1.821   8.582  0.3625 -0.0706 -0.3146
   55POPC   GL1 1084   4.925   1.679   8.112 -0.2693 -0.1393  0.2260
   55POPC   GL2 1085   4.836   1.852   7.942  0.0229 -0.2262  0.0747
   55POPC   C1A 1086   5.284   1.702   7.773 -0.2189 -0.0424 -0.2169
   55POPC   D2A 1087   5.524   1.441   7.400  0.2503 -0.1415 -0.0246
   55POPC   C3A 1088   5.277   1.335   6.996  0.0299  0.2760  0.3779
   55POPC   C4A 1089   5.078   1.057   6.804 -0.1990  0.2085  0.0718
   55POPC   C1B 1090   4.351   1.793   7.892 -0.0538  0.1290 -0.0563
   55POPC   C2B 1091   4.287   1.751   7.514  0.1012  0.0953  0.5185
   55POPC   C3B 1092   4.067   2.019   7.302  0.1999  0.0178 -0.0621
   55POPC   C4B 1093   3.725   2.343   7.298  0.0648  0.2727 -0.0854
   56POPC   NC3 1094   9.567   5.627   8.996  0.2157 -0.4022  0.3559
   56POPC   PO4 1095   9.648   5.806   8.579 -0.1847 -0.1198  0.0149
   56POPC   GL1 1096   9.495   5.660   8.135 -0.2495 -0.0631  0.3118
   56POPC   GL2 1097   9.633   6.015   8.025  0.0722 -0.0429 -0.1267
   56POPC   C1A 1098   9.354   5.555   7.719  0.1807  0.1208 -0.0405
   56POPC   D2A 1099   9.550   5.359   7.262 -0.1823 -0.3289 -0.0097
   56POPC   C3A 1100   9.377   5.439   6.838  0.1248  0.0052 -0.0684
   56POPC   C4A 1101   9.065   5.504   6.487 -0.2543  0.0949  0.0489
   56POPC   C1B 1102   9.597   6.444   7.790 -0.3715 -0.1370  0.0467
   56POPC   C2B 1103   9.614   6.657   7.397 -0.2851  0.1558 -0.1412
   56POPC   C3B 1104   9.202   6.911   7.359 -0.1510 -0.0021  0.3047
   56POPC   C4B 1105   8.997   7.235   6.971 -0.1375  0.0239 -0.0152
   57POPC   NC3 1106   9.189   2.819   9.771 -0.0447 -0.1620  0.0556
   57POPC   PO4 1107   8.885   2.518   9.560 -0.0601 -0.1290 -0.1611
   57POPC   GL1 1108   9.149   2.212   9.322 -0.3363  0.1601 -0.1077
   57POPC   GL2 1109   9.351   2.446   9.167  0.2429 -0.1585  0.2238
   57POPC   C1A 1110   9.316   1.964   9.131  0.2870  0.3016  0.2233
   57POPC   D2A 1111   9.545   1.578   9.202  0.3509 -0.0493 -0.0048
   57POPC   C3A 1112  10.034   1.489   8.986 -0.3960  0.1431  0.3597
   57POPC   C4A 1113  10.246   1.461   8.570  0.3367 -0.0085 -0.4110
   57POPC   C1B 1114   9.655   2.430   8.668  0.0300  0.2440  0.2532
   57POPC   C2B 1115   9.883   2.753   8.446 -0.2949 -0.0444  0.1450
   57POPC   C3B 1116  10.051   2.974   8.020 -0.0550  0.1915  0.1029
   57POPC   C4B 1117  10.336   3.028   7.729 -0.2548  0.0580  0.0592
   58POPC   NC3 1118   1.183   7.599   8.628 -0.1320  0.0850  0.2011
   58POPC   PO4 1119   1.497   8.006   8.622 -0.1964  0.0087 -0.2019
   58POPC   GL1 1120   1.531   7.881   8.200 -0.2249  0.0880 -0.1421
   58POPC   GL2 1121   1.212   7.792   8.010  0.0558  0.0485  0.1265
   58POPC   C1A 1122   1.682   7.936   7.810 -0.0198  0.0261  0.3998
   58POPC   D2A 1123   2.064   7.873   7.733  0.1682 -0.4655  0.0907
   58POPC   C3A 1124   1.988   7.745   7.369  0.1274 -0.1314  0.1570
   58POPC   C4A 1125   1.673   7.811   6.963 -0.2101 -0.2240 -0.2130
   58POPC   C1B 1126   1.060   7.966   7.585 -0.0559 -0.0088  0.1817
   58POPC   C2B 1127   1.142   7.930   7.086 -0.1513 -0.0386 -0.0697
   58POPC   C3B 1128   0.889   8.139   6.828  0.3848 -0.3964  0.2337
   58POPC   C4B 1129   0.468   8.178   6.803  0.2465  0.1167 -0.1721
   59POPC   NC3 1130   9.757   7.573   8.608 -0.0130  0.0613 -0.0358
   59POPC   PO4 1131   9.602   7.367   8.189 -0.1421  0.1075  0.0077
   59POPC   GL1 1132   9.865   7.652   7.995  0.1798 -0.1127  0.0338
   59POPC   GL2 1133  10.157   7.590   8.114  0.0158 -0.2099 -0.0188
   59POPC   C1A 1134  10.062   7.828   7.687 -0.3367  0.0929  0.1028
   59POPC   D2A 1135  10.204   7.913   7.234 -0.1735  0.0399 -0.0521
   59POPC   C3A 1136  10.595   7.779   6.992  0.0406  0.2716  0.0157
   59POPC   C4A 1137  10.921   7.490   6.901 -0.0557 -0.1587 -0.1215
   59POPC   C1B 1138  10.342   7.982   8.044  0.3015 -0.0762  0.4140
   59POPC   C2B 1139  10.244   8.329   7.701 -0.4697  0.0474 -0.1355
   59POPC   C3B 1140  10.061   8.415   7.238  0.4538 -0.0599 -0.1902
   59POPC   C4B 1141   9.976   8.545   6.779  0.0435  0.2172  0.1869
   60POPC   NC3 1142   2.263   3.724   8.534 -0.0257 -0.0514 -0.0993
   60POPC   PO4 1143   2.047   3.365   8.556  0.1224  0.2207 -0.0234
   60POPC   GL1 1144   1.889   3.355   8.125  0.0848  0.2884  0.0434
   60POPC   GL2 1145   1.573   3.395   7.960  0.1416  0.2106  0.0305
   60POPC   C1A 1146   1.921   3.450   7.573 -0.0143  0.1229 -0.0438
   60POPC   D2A 1147   1.795   3.670   7.346  0.0915 -0.1058 -0.1201
   60POPC   C3A 1148   1.801   3.578   7.020 -0.0471 -0.1055  0.0449
   60POPC   C4A 1149   1.534   3.526   6.704  0.0718 -0.1651  0.2870
   60POPC   C1B 1150   1.515   3.035   7.622  0.0217  0.0754 -0.2240
   60POPC   C2B 1151   1.316   2.852   7.153 -0.0695 -0.1439 -0.1367
   60POPC   C3B 1152   1.415   2.573   6.809  0.0551  0.1447  0.0254
   60POPC   C4B 1153   1.667   2.264   6.678  0.1270 -0.1515  0.0278
   61POPC   NC3 1154   0.440   4.130   8.462 -0.0306  0.1916 -0.0745
   61POPC   PO4 1155   0.118   3.920   8.472 -0.2623  0.1220  0.2796
   61POPC   GL1 1156   0.145   3.905   8.016 -0.1384  0.2529 -0.0840
   61POPC   GL2 1157   0.401   3.965   7.867 -0.4553  0.0670 -0.0642
   61POPC   C1A 1158  -0.146   3.953   7.762 -0.2406  0.3740  0.3063
   61POPC   D2A 1159  -0.515   3.877   7.815 -0.1203  0.1749 -0.0984
   61POPC   C3A 1160  -0.628   3.487   8.026 -0.1996  0.1928  0.0385
   61POPC   C4A 1161  -0.762   3.503   8.389 -0.2524 -0.0781 -0.2268
   61POPC   C1B 1162   0.310   4.004   7.458 -0.0105  0.3422  0.2290
   61POPC   C2B 1163   0.221   3.965   7.097  0.1348 -0.2791 -0.0557
   61POPC   C3B 1164   0.324   3.736   6.758  0.0179  0.2966  0.3882
   61POPC   C4B 1165   0.639   3.599   6.551 -0.0898  0.0386 -0.0251
   62POPC   NC3 1166   5.092   3.535   8.009  0.0473 -0.1997 -0.3006
   62POPC   PO4 1167   5.196   3.983   8.165 -0.1824 -0.0210 -0.1129
   62POPC   GL1 1168   5.421   4.105   7.760  0.0377  0.1280  0.1555
   62POPC   GL2 1169   5.160   4.155   7.542  0.2217  0.2255  0.0853
   62POPC   C1A 1170   5.796   4.224   7.455  0.0450 -0.0310 -0.0750
   62POPC   D2A 1171   6.043   4.251   7.000  0.0465 -0.2849  0.1206
   62POPC   C3A 1172   5.883   4.219   6.714 -0.0137 -0.0777  0.1044
   62POPC   C4A 1173   6.135   4.093   6.223  0.3112 -0.1226  0.2209
   62POPC   C1B 1174   5.462   3.906   7.265 -0.0941  0.1160 -0.2657
   62POPC   C2B 1175   5.690   3.790   6.933  0.3781 -0.3127  0.3145
   62POPC   C3B 1176   5.741   3.678   6.514 -0.3514  0.4347  0.0247
   62POPC   C4B 1177   5.638   3.925   6.133 -0.2687 -0.0601 -0.1118
   63POPC   NC3 1178   5.948   1.774   8.612  0.1902 -0.0149 -0.0083
   63POPC   PO4 1179   5.806   2.245   8.353  0.2079 -0.2692  0.4119
   63POPC   GL1 1180   5.629   2.106   7.951  0.1848 -0.3072  0.0755
   63POPC   GL2 1181   5.313   2.352   7.757  0.4865  0.2891  0.2715
   63POPC   C1A 1182   5.579   1.990   7.497  0.0681  0.1858 -0.1867
   63POPC   D2A 1183   5.621   2.053   7.122 -0.2791 -0.0786  0.0273
   63POPC   C3A 1184   5.692   2.328   6.923 -0.0166  0.1466  0.0248
   63POPC   C4A 1185   5.370   2.577   6.778  0.1052  0.0436  0.4483
   63POPC   C1B 1186   5.720   2.452   7.655  0.1176 -0.2071 -0.0350
   63POPC   C2B 1187   5.996   2.426   7.332  0.0854 -0.0120  0.5782
   63POPC   C3B 1188   6.174   2.588   6.906 -0.1180  0.1086 -0.0572
   63POPC   C4B 1189   6.161   2.397   6.482 -0.1238 -0.1870 -0.0023
   64POPC   NC3 1190   0.044   9.641   9.465  0.0430  0.1749  0.2640
   64POPC   PO4 1191   0.247   9.313   9.386 -0.6256  0.1130  0.0813
   64POPC   GL1 1192   0.313   9.640   9.013 -0.1935  0.2235 -0.0459
   64POPC   GL2 1193   0.672   9.735   9.120 -0.1101  0.0177  0.1431
   64POPC   C1A 1194   0.331   9.758   8.678  0.0034  0.2580  0.1338
   64POPC   D2A 1195   0.396  10.030   8.342  0.5426 -0.2791  0.2269
   64POPC   C3A 1196   0.111  10.193   8.233 -0.3336  0.0866 -0.0515
   64POPC   C4A 1197  -0.094  10.431   7.843 -0.2054  0.1047  0.3133
   64POPC   C1B 1198   0.630  10.137   8.786 -0.0183  0.0025  0.0019
   64POPC   C2B 1199   0.924  10.376   8.429 -0.0232  0.2456  0.0670
   64POPC   C3B 1200   1.240  10.542   8.147 -0.0955 -0.1837 -0.0562
   64POPC   C4B 1201   1.273  11.005   8.024 -0.4284 -0.0796  0.2924
   65POPC   NC3 1202   7.223   6.643   8.305 -0.3563 -0.1903  0.0532
   65POPC   PO4 1203   7.465   7.009   8.411  0.1516 -0.0755 -0.2433
   65POPC   GL1 1204   7.163   7.036   8.005 -0.3393 -0.0405  0.1346
   65POPC   GL2 1205   6.933   7.060   8.059  0.0144 -0.0732 -0.0485
   65POPC   C1A 1206   6.997   7.040   7.497  0.0052 -0.0614  0.1084
   65POPC   D2A 1207   6.926   7.307   7.112 -0.1139 -0.1527 -0.0737
   65POPC   C3A 1208   7.308   7.476   7.016 -0.0690 -0.2340 -0.1260
   65POPC   C4A 1209   7.735   7.221   7.127  0.4014 -0.2570  0.0573
   65POPC   C1B 1210   6.526   7.023   7.785  0.2134  0.1433  0.1147
   65POPC   C2B 1211   6.107   7.005   7.579  0.3607  0.2072  0.1456
   65POPC   C3B 1212   6.023   6.828   7.205 -0.1032  0.0487  0.3957
   65POPC   C4B 1213   6.136   6.726   6.817  0.0353  0.1823  0.0052
   66POPC   NC3 1214   7.915   7.835   8.276 -0.1750  0.3233  0.0371
   66POPC   PO4 1215   7.499   7.642   8.167 -0.0084  0.2148  0.0455
   66POPC   GL1 1216   7.649   7.790   7.784 -0.0601  0.2095  0.0354
   66POPC   GL2 1217   7.934   7.580   7.825  0.0557 -0.0388  0.0002
   66POPC   C1A 1218   7.684   7.662   7.394  0.0982  0.0216 -0.0242
   66POPC   D2A 1219   7.849   7.696   6.944  0.1872  0.0301  0.1748
   66POPC   C3A 1220   7.656   7.555   6.585 -0.1661 -0.2316 -0.0741
   66POPC   C4A 1221   7.390   7.473   6.187  0.1320 -0.4719  0.1056
   66POPC   C1B 1222   8.239   7.753   7.405  0.2639 -0.4236 -0.0780
   66POPC   C2B 1223   8.212   7.940   7.030 -0.0372 -0.1166 -0.1329
   66POPC   C3B 1224   8.318   8.173   6.691 -0.1896  0.1224 -0.0386
   66POPC   C4B 1225   8.252   8.112   6.217  0.0993 -0.3084 -0.1501
   67POPC   NC3 1226   6.699   2.521   8.635 -0.0777  0.0049  0.2791
   67POPC   PO4 1227   6.692   2.929   8.443  0.0579  0.1687  0.1177
   67POPC   GL1 1228   6.722   2.682   8.103  0.2867 -0.1319 -0.1961
   67POPC   GL2 1229   7.022   2.717   7.921  0.4189 -0.2552 -0.1803
   67POPC   C1A 1230   6.727   2.746   7.527 -0.0996  0.4180 -0.3035
   67POPC   D2A 1231   6.640   3.175   7.305  0.5822  0.3630 -0.2596
   67POPC   C3A 1232   6.384   3.138   6.945  0.1474 -0.1490 -0.2686
   67POPC   C4A 1233   6.414   2.859   6.521 -0.0032 -0.1229  0.2725
   67POPC   C1B 1234   7.162   3.080   7.617  0.0235 -0.0275 -0.2861
   67POPC   C2B 1235   7.503   3.289   7.439  0.0078  0.1022 -0.1618
   67POPC   C3B 1236   7.765   3.474   7.073  0.1002  0.0407  0.1256
   67POPC   C4B 1237   8.086   3.325   6.782 -0.0036  0.0916  0.1560
   68POPC   NC3 1238   5.073   9.037   9.058 -0.0136  0.1920  0.1432
   68POPC   PO4 1239   4.861   8.873   8.572  0.0985  0.1487  0.1565
   68POPC   GL1 1240   4.951   8.884   8.104 -0.0771 -0.1797 -0.0519
   68POPC   GL2 1241   4.839   9.038   7.912  0.1054 -0.3126 -0.2926
   68POPC   C1A 1242   5.325   8.981   7.821 -0.0537  0.0003  0.1836
   68POPC   D2A 1243   5.689   9.053   7.577  0.1818  0.1482  0.3340
   68POPC   C3A 1244   5.601   9.466   7.291  0.1106  0.2858 -0.1485
   68POPC   C4A 1245   5.422   9.557   6.932 -0.2212  0.1757 -0.1382
   68POPC   C1B 1246   4.736   9.446   7.631 -0.1933  0.3002  0.1234
   68POPC   C2B 1247   4.639   9.924   7.681  0.0177  0.0797 -0.1493
   68POPC   C3B 1248   4.474  10.266   7.546 -0.1796  0.2021  0.3122
   68POPC   C4B 1249   4.295  10.515   7.169 -0.1361 -0.1391 -0.0359
   69POPC   NC3 1250   7.854   0.897   9.762  0.1770  0.0894 -0.1322
   69POPC   PO4 1251   7.967   1.227   9.389 -0.0331  0.1466 -0.1362
   69POPC   GL1 1252   8.006   1.111   8.989 -0.2634  0.1066 -0.0080
   69POPC   GL2 1253   8.161   1.317   8.871 -0.1106  0.0136  0.0851
   69POPC   C1A 1254   7.738   1.073   8.701 -0.5062 -0.1600  0.0113
   69POPC   D2A 1255   7.630   1.064   8.304 -0.1759 -0.0471 -0.0663
   69POPC   C3A 1256   7.481   0.627   8.155 -0.1758  0.0753  0.1383
   69POPC   C4A 1257   7.422   0.281   7.784  0.0985 -0.2183 -0.2460
   69POPC   C1B 1258   8.152   1.486   8.389 -0.1849 -0.0754 -0.2641
   69POPC   C2B 1259   8.428   1.630   8.017  0.0721 -0.0444 -0.0320
   69POPC   C3B 1260   8.878   1.705   7.960 -0.2419 -0.2881 -0.0691
   69POPC   C4B 1261   9.272   1.656   8.149 -0.0676  0.0762  0.0007
   70POPC   NC3 1262   9.758   0.625   9.571  0.0114 -0.3459  0.1204
   70POPC   PO4 1263  10.022   0.291   9.657 -0.0447  0.1462 -0.0647
   70POPC   GL1 1264   9.796   0.263   9.227  0.0693 -0.0636 -0.1131
   70POPC   GL2 1265   9.847   0.014   9.044 -0.1761 -0.2145  0.0137
   70POPC   C1A 1266   9.553   0.335   8.852  0.2634  0.2377  0.1983
   70POPC   D2A 1267   9.194   0.072   8.557 -0.0512  0.0388  0.1299
   70POPC   C3A 1268   9.215  -0.109   8.183  0.0656  0.1652  0.3774
   70POPC   C4A 1269   9.282  -0.522   7.908  0.1822  0.0950 -0.3037
   70POPC   C1B 1270   9.755  -0.139   8.581 -0.2439  0.3776 -0.0510
   70POPC   C2B 1271   9.693  -0.446   8.219 -0.1923  0.0981 -0.1746
   70POPC   C3B 1272   9.736  -0.469   7.759  0.3218 -0.0891  0.0395
   70POPC   C4B 1273   9.846  -0.701   7.414  0.1321 -0.2183  0.2850
   71POPC   NC3 1274   3.448   0.390   8.879  0.3370 -0.0453  0.4197
   71POPC   PO4 1275   3.220   0.063   8.834 -0.0687  0.0070 -0.1768
   71POPC   GL1 1276   3.330   0.157   8.428 -0.1437 -0.1994  0.0880
   71POPC   GL2 1277   3.717   0.053   8.318  0.2046 -0.0855  0.1519
   71POPC   C1A 1278   3.128   0.199   7.997 -0.0764 -0.4500 -0.0013
   71POPC   D2A 1279   3.125  -0.150   7.666  0.1331 -0.2759  0.0442
   71POPC   C3A 1280   3.509   0.031   7.404 -0.0652  0.0456 -0.0321
   71POPC   C4A 1281   3.827   0.412   7.311  0.1540 -0.0266 -0.1928
   71POPC   C1B 1282   3.544  -0.093   7.904 -0.0310 -0.2244  0.0969
   71POPC   C2B 1283   3.587  -0.369   7.615 -0.1105  0.1249  0.2008
   71POPC   C3B 1284   3.814  -0.644   7.368 -0.1757 -0.1143  0.2424
   71POPC   C4B 1285   4.058  -0.521   6.975 -0.1759 -0.0263 -0.0039
   72POPC   NC3 1286   3.395   9.190   8.756 -0.0215 -0.1509  0.2788
   72POPC   PO4 1287   3.832   9.066   8.641 -0.0983 -0.1350 -0.0102
   72POPC   GL1 1288   4.010   9.171   8.135 -0.1750 -0.1831  0.1634
   72POPC   GL2 1289   4.316   9.374   8.071 -0.1082 -0.1529  0.0231
   72POPC   C1A 1290   3.797   8.977   7.769  0.2129 -0.0138  0.0313
   72POPC   D2A 1291   3.930   8.780   7.391  0.3437  0.2967  0.1632
   72POPC   C3A 1292   3.957   8.425   7.227 -0.0886 -0.2334 -0.1719
   72POPC   C4A 1293   4.113   8.036   7.278 -0.0313  0.0509  0.0068
   72POPC   C1B 1294   4.128   9.383   7.718 -0.3757  0.0244  0.0999
   72POPC   C2B 1295   4.361   9.585   7.365  0.1025 -0.1480  0.3715
   72POPC   C3B 1296   4.699   9.872   7.185 -0.0438  0.1691  0.1186
   72POPC   C4B 1297   4.628  10.176   6.821 -0.2095 -0.0673 -0.0998
   73POPC   NC3 1298   3.358   6.185   8.378 -0.1026  0.2077  0.1304
   73POPC   PO4 1299   3.355   5.806   8.144 -0.0998 -0.2035  0.2583
   73POPC   GL1 1300   3.239   5.591   7.850  0.3723  0.0346 -0.0549
   73POPC   GL2 1301   3.061   5.783   7.622 -0.1745  0.0108  0.2641
   73POPC   C1A 1302   3.353   5.221   7.695 -0.0379 -0.3551  0.1192
   73POPC   D2A 1303   3.670   4.867   7.563 -0.0615 -0.0098  0.0119
   73POPC   C3A 1304   3.927   4.904   7.293 -0.0502  0.0752 -0.1448
   73POPC   C4A 1305   4.234   4.833   6.871 -0.0694 -0.3477  0.1570
   73POPC   C1B 1306   3.340   6.100   7.342 -0.1165  0.0856 -0.0445
   73POPC   C2B 1307   3.258   6.234   6.880  0.1160  0.0967  0.1481
   73POPC   C3B 1308   3.569   6.406   6.531  0.0912 -0.2037 -0.0175
   73POPC   C4B 1309   3.773   6.503   6.178  0.2469  0.4429 -0.0367
   74POPC   NC3 1310   4.391   6.494   8.163 -0.1230 -0.2600  0.2714
   74POPC   PO4 1311   4.488   6.876   7.901  0.0718 -0.2140  0.0270
   74POPC   GL1 1312   4.901   6.990   7.527  0.1427 -0.3581  0.2580
   74POPC   GL2 1313   5.119   7.244   7.483 -0.2299 -0.3769  0.0584
   74POPC   C1A 1314   5.122   6.824   7.140 -0.0207 -0.2394 -0.3038
   74POPC   D2A 1315   4.840   6.683   6.861  0.1947 -0.0719  0.1765
   74POPC   C3A 1316   4.376   6.682   6.975 -0.2225  0.1153  0.4448
   74POPC   C4A 1317   4.098   6.660   7.297  0.0476 -0.1720  0.0553
   74POPC   C1B 1318   4.921   7.544   7.513 -0.2968  0.1675  0.3845
   74POPC   C2B 1319   4.673   7.820   7.251 -0.2174 -0.0530 -0.1490
   74POPC   C3B 1320   4.509   8.158   6.929 -0.0007 -0.2214  0.1926
   74POPC   C4B 1321   4.772   8.414   6.615 -0.0551 -0.0393  0.1105
   75POPC   NC3 1322   3.878   7.895   8.144  0.1002  0.1258  0.3395
   75POPC   PO4 1323   3.563   8.203   8.356  0.0544  0.0581  0.2053
   75POPC   GL1 1324   3.465   8.129   7.924 -0.1946 -0.2757 -0.0363
   75POPC   GL2 1325   3.663   8.002   7.610 -0.0848 -0.2619 -0.1404
   75POPC   C1A 1326   3.129   8.162   7.600 -0.0950  0.1192 -0.1708
   75POPC   D2A 1327   2.761   8.364   7.307 -0.0348  0.1490 -0.1890
   75POPC   C3A 1328   2.673   8.303   6.868 -0.1759 -0.3161  0.2740
   75POPC   C4A 1329   2.612   8.284   6.494 -0.0238 -0.1436  0.0238
   75POPC   C1B 1330   3.623   7.906   7.331  0.2183 -0.0605 -0.0344
   75POPC   C2B 1331   3.847   8.020   6.845  0.1388 -0.3068  0.1352
   75POPC   C3B 1332   4.130   8.384   6.734 -0.2425  0.1111 -0.1850
   75POPC   C4B 1333   4.372   8.662   6.963 -0.1716  0.2748 -0.1444
   76POPC   NC3 1334   3.321   4.784   8.880  0.0175  0.0300 -0.2413
   76POPC   PO4 1335   3.314   4.443   8.509 -0.3195 -0.2201  0.0430
   76POPC   GL1 1336   3.188   4.424   8.113 -0.0987 -0.2119  0.5290
   76POPC   GL2 1337   2.887   4.452   7.935  0.0657 -0.0813  0.1208
   76POPC   C1A 1338   3.426   4.418   7.697 -0.0162  0.0568  0.0125
   76POPC   D2A 1339   3.543   4.503   7.249 -0.0832  0.1166  0.3037
   76POPC   C3A 1340   3.498   4.806   7.024  0.0704  0.0177  0.0255
   76POPC   C4A 1341   3.761   4.928   6.676  0.4889  0.1276  0.1836
   76POPC   C1B 1342   2.601   4.408   7.613 -0.4598  0.1002  0.0871
   76POPC   C2B 1343   2.349   4.376   7.230 -0.0134 -0.2698 -0.1858
   76POPC   C3B 1344   2.029   4.072   7.116  0.1081 -0.1021 -0.0867
   76POPC   C4B 1345   1.720   4.134   6.835 -0.0688  0.6285  0.1069
   77POPC   NC3 1346   9.117   7.122   8.242 -0.0415 -0.2874 -0.2744
   77POPC   PO4 1347   8.776   7.383   8.289  0.1696  0.1218 -0.4036
   77POPC   GL1 1348   8.981   7.404   7.875  0.0179 -0.1119  0.0247
   77POPC   GL2 1349   9.261   7.653   7.978  0.0245  0.3394  0.1168
   77POPC   C1A 1350   9.275   7.375   7.521  0.1743 -0.0014 -0.2229
   77POPC   D2A 1351   9.503   7.258   7.097 -0.1216  0.1782 -0.0390
   77POPC   C3A 1352   9.432   6.862   6.863 -0.0721 -0.0863  0.0012
   77POPC   C4A 1353   9.476   6.451   6.599  0.1314  0.0266  0.1231
   77POPC   C1B 1354   9.373   7.836   7.624 -0.1961  0.2547  0.0167
   77POPC   C2B 1355   9.258   7.731   7.152  0.1730  0.0562 -0.0519
   77POPC   C3B 1356   9.038   7.723   6.789 -0.1176  0.1446 -0.2481
   77POPC   C4B 1357   9.332   8.134   6.561 -0.0810 -0.1954  0.0619
   78POPC   NC3 1358   6.807   3.456   8.274  0.3133  0.0535  0.2020
   78POPC   PO4 1359   6.406   3.377   8.249  0.1954  0.0133  0.1176
   78POPC   GL1 1360   6.279   3.414   7.740 -0.0215 -0.0429 -0.1163
   78POPC   GL2 1361   6.009   3.768   7.705 -0.2961 -0.3750  0.0426
   78POPC   C1A 1362   6.479   3.641   7.413  0.0214 -0.0481 -0.5097
   78POPC   D2A 1363   6.668   3.614   6.899  0.0282  0.0031  0.1838
   78POPC   C3A 1364   6.666   3.287   6.508 -0.2882  0.1709  0.1271
   78POPC   C4A 1365   6.760   3.366   6.071 -0.0224  0.2359  0.1160
   78POPC   C1B 1366   6.043   3.799   7.310 -0.2431 -0.1167 -0.1856
   78POPC   C2B 1367   6.195   3.628   6.969  0.0475  0.0574  0.3391
   78POPC   C3B 1368   6.223   3.494   6.575  0.1178 -0.0456 -0.0485
   78POPC   C4B 1369   6.329   3.173   6.149  0.0695  0.0697 -0.0863
   79POPC   NC3 1370   6.841   5.190   8.404 -0.2945  0.0045  0.2100
   79POPC   PO4 1371   6.660   4.848   8.284  0.0975  0.1417  0.0601
   79POPC   GL1 1372   6.708   5.172   7.875 -0.3171  0.0786  0.1981
   79POPC   GL2 1373   6.495   5.283   7.652  0.0663 -0.0015 -0.1774
   79POPC   C1A 1374   7.006   5.353   7.614  0.3138  0.2324  0.0963
   79POPC   D2A 1375   6.994   5.415   7.230  0.0024  0.1753  0.2863
   79POPC   C3A 1376   7.359   5.697   7.000  0.0747  0.1992 -0.0504
   79POPC   C4A 1377   7.843   5.757   6.986 -0.0187 -0.0841 -0.3265
   79POPC   C1B 1378   6.543   5.068   7.358  0.3368  0.3243  0.0861
   79POPC   C2B 1379   6.726   4.972   6.901  0.3132 -0.0795  0.0545
   79POPC   C3B 1380   6.887   4.720   6.501 -0.3480  0.2132  0.2559
   79POPC   C4B 1381   7.339   4.695   6.648  0.1977  0.1060 -0.1558
   80POPC   NC3 1382   6.514   2.109   9.315  0.0573  0.2888 -0.0387
   80POPC   PO4 1383   6.707   2.091   8.839 -0.1380  0.0875 -0.2006
   80POPC   GL1 1384   6.741   2.050   8.423  0.0667 -0.1286 -0.0220
   80POPC   GL2 1385   6.564   2.181   8.188  0.2589 -0.0040 -0.3384
   80POPC   C1A 1386   6.994   1.769   8.041  0.0503 -0.0114  0.1054
   80POPC   D2A 1387   6.849   1.775   7.529 -0.0387 -0.2152 -0.2186
   80POPC   C3A 1388   7.174   2.002   7.375  0.0151 -0.1139 -0.2952
   80POPC   C4A 1389   7.520   2.223   7.225 -0.2478  0.0622 -0.1131
   80POPC   C1B 1390   6.665   2.192   7.798 -0.0483  0.1800 -0.3190
   80POPC   C2B 1391   6.632   2.264   7.393  0.3386 -0.2296  0.1116
   80POPC   C3B 1392   6.806   2.129   7.023 -0.2938 -0.1386 -0.0995
   80POPC   C4B 1393   7.174   2.002   6.869 -0.1380  0.0813 -0.1239
   81POPC   NC3 1394   4.203   6.227   8.941 -0.0874 -0.1155 -0.1257
   81POPC   PO4 1395   4.105   6.250   8.514 -0.1832 -0.0657 -0.0462
   81POPC   GL1 1396   3.904   6.314   8.016  0.0356 -0.2449  0.0570
   81POPC   GL2 1397   3.972   6.067   7.935  0.1892  0.0799 -0.2161
   81POPC   C1A 1398   3.781   6.348   7.567 -0.3210  0.0429  0.1325
   81POPC   D2A 1399   3.689   6.338   7.092  0.0397 -0.1293 -0.0784
   81POPC   C3A 1400   3.905   6.667   6.845 -0.0013  0.2270 -0.2346
   81POPC   C4A 1401   4.094   6.663   6.491  0.1420 -0.1322  0.0592
   81POPC   C1B 1402   4.101   5.967   7.544  0.0923 -0.0465 -0.1687
   81POPC   C2B 1403   4.171   6.135   7.206 -0.0031  0.0065  0.0269
   81POPC   C3B 1404   4.144   6.163   6.739  0.1042  0.0361 -0.0093
   81POPC   C4B 1405   4.204   6.212   6.351 -0.3634  0.0993 -0.0282
   82POPC   NC3 1406   5.852   3.952   8.096  0.0218 -0.1016 -0.3112
   82POPC   PO4 1407   6.153   4.229   8.021  0.0436  0.0361  0.0115
   82POPC   GL1 1408   6.309   4.187   7.544  0.3676  0.0906 -0.1566
   82POPC   GL2 1409   6.686   4.118   7.608 -0.2004 -0.1318  0.0241
   82POPC   C1A 1410   6.512   4.052   7.112  0.3144 -0.0151  0.0240
   82POPC   D2A 1411   6.360   3.980   6.676 -0.1082 -0.0067  0.0737
   82POPC   C3A 1412   6.643   4.188   6.307 -0.1085 -0.1069 -0.4464
   82POPC   C4A 1413   6.836   4.405   5.884 -0.2254  0.0316 -0.2343
   82POPC   C1B 1414   6.922   3.859   7.398 -0.3740  0.2448  0.1610
   82POPC   C2B 1415   7.052   3.414   7.247 -0.0922 -0.0182  0.0197
   82POPC   C3B 1416   7.036   3.024   7.012  0.1232 -0.0955  0.0772
   82POPC   C4B 1417   6.970   2.860   6.608  0.1939  0.3487  0.1180
   83POPC   NC3 1418   7.585   1.822   9.381  0.0751  0.0707  0.3553
   83POPC   PO4 1419   7.610   2.113   9.032  0.2086 -0.1902  0.2790
   83POPC   GL1 1420   7.740   2.124   8.571  0.1934  0.0758  0.0167
   83POPC   GL2 1421   7.594   2.276   8.346  0.0086 -0.2777  0.0248
   83POPC   C1A 1422   8.012   1.932   8.270  0.0765  0.2629 -0.1818
   83POPC   D2A 1423   7.968   1.858   7.886 -0.0247  0.0405 -0.0787
   83POPC   C3A 1424   7.476   1.856   7.720 -0.1371 -0.2545  0.1472
   83POPC   C4A 1425   7.209   1.449   7.568 -0.2436 -0.0036  0.2093
   83POPC   C1B 1426   7.660   2.241   7.971 -0.0831  0.2780 -0.0666
   83POPC   C2B 1427   7.944   2.325   7.567  0.1818  0.3063  0.1559
   83POPC   C3B 1428   7.856   1.961   7.359  0.0964  0.2086 -0.0826
   83POPC   C4B 1429   7.843   1.527   7.362 -0.0006 -0.0715 -0.0850
   84POPC   NC3 1430   5.317   0.760   9.111 -0.0234 -0.1933  0.1407
   84POPC   PO4 1431   5.507   0.491   8.751 -0.2653 -0.1310 -0.1487
   84POPC   GL1 1432   5.483   0.626   8.279 -0.2520 -0.4585 -0.0405
   84POPC   GL2 1433   5.527   0.933   8.192 -0.0848  0.1937 -0.0120
   84POPC   C1A 1434   5.393   0.548   7.829 -0.3480  0.2961 -0.3209
   84POPC   D2A 1435   5.446   0.521   7.401  0.0083 -0.0593 -0.1420
   84POPC   C3A 1436   5.212   0.853   7.286  0.1371 -0.1320  0.1207
   84POPC   C4A 1437   5.002   1.214   7.409 -0.0599  0.3725  0.2472
   84POPC   C1B 1438   5.380   1.108   7.747  0.1203 -0.1900  0.2515
   84POPC   C2B 1439   5.734   1.022   7.438 -0.1112  0.0668 -0.0695
   84POPC   C3B 1440   5.801   1.271   6.970  0.0429  0.0584 -0.1089
   84POPC   C4B 1441   5.711   1.684   6.773 -0.4384 -0.0954  0.1500
   85POPC   NC3 1442   6.360   1.348   8.768  0.0158  0.1209  0.4291
   85POPC   PO4 1443   5.949   1.296   8.857  0.3958  0.1585 -0.0708
   85POPC   GL1 1444   5.806   1.315   8.429 -0.1471 -0.1413 -0.0205
   85POPC   GL2 1445   6.062   1.331   8.158 -0.3346  0.1657  0.0119
   85POPC   C1A 1446   5.703   1.505   7.882 -0.2585  0.0695 -0.1851
   85POPC   D2A 1447   5.983   1.606   7.585 -0.2107 -0.2687  0.0310
   85POPC   C3A 1448   5.984   1.693   7.156 -0.0640 -0.2786  0.1529
   85POPC   C4A 1449   6.149   2.031   6.833 -0.0726 -0.0730  0.2160
   85POPC   C1B 1450   6.089   1.125   7.807  0.2754  0.2140  0.1465
   85POPC   C2B 1451   6.302   0.820   7.568 -0.0294 -0.0712  0.2680
   85POPC   C3B 1452   6.501   0.364   7.404 -0.1911 -0.2615  0.1934
   85POPC   C4B 1453   6.712   0.429   7.035  0.0485  0.0527 -0.0655
   86POPC   NC3 1454   1.491   0.086   9.239 -0.0309  0.0071  0.0940
   86POPC   PO4 1455   1.676   0.305   8.917  0.1687  0.1056  0.0096
   86POPC   GL1 1456   1.661  -0.101   8.695 -0.0592  0.1238  0.1547
   86POPC   GL2 1457   1.446  -0.469   8.603 -0.3134  0.4587 -0.2723
   86POPC   C1A 1458   1.386  -0.161   8.296 -0.0436  0.0737 -0.1758
   86POPC   D2A 1459   1.109   0.131   8.073 -0.1746  0.0461  0.0439
   86POPC   C3A 1460   1.040   0.179   7.703 -0.2789  0.1766 -0.3732
   86POPC   C4A 1461   1.233   0.029   7.407 -0.2718 -0.2042  0.1068
   86POPC   C1B 1462   1.076  -0.564   8.377 -0.0996  0.0128 -0.3625
   86POPC   C2B 1463   1.158  -0.720   7.954 -0.0075  0.0999  0.2051
   86POPC   C3B 1464   0.960  -0.912   7.593 -0.1347  0.1479  0.0742
   86POPC   C4B 1465   0.609  -0.828   7.283 -0.2880 -0.0776  0.1921
   87POPC   NC3 1466   8.630   9.756   9.861  0.0993 -0.1996 -0.4850
   87POPC   PO4 1467   8.397  10.144   9.822  0.0225 -0.1845 -0.0143
   87POPC   GL1 1468   8.282  10.188   9.428  0.1471 -0.0105  0.2850
   87POPC   GL2 1469   8.023   9.961   9.380  0.2069 -0.1020 -0.1896
   87POPC   C1A 1470   8.417   9.942   9.072 -0.0945  0.0228 -0.3589
   87POPC   D2A 1471   8.621   9.937   8.705  0.1636  0.1828 -0.2975
   87POPC   C3A 1472   8.743   9.717   8.320  0.0129  0.1367  0.0731
   87POPC   C4A 1473   8.715   9.449   7.955 -0.1058 -0.2466 -0.0213
   87POPC   C1B 1474   7.950   9.816   8.984  0.2286 -0.1219  0.3315
   87POPC   C2B 1475   7.819   9.774   8.517  0.0150  0.0402 -0.1302
   87POPC   C3B 1476   7.798   9.358   8.219  0.2070 -0.3493 -0.0231
   87POPC   C4B 1477   8.142   9.406   7.948  0.0258 -0.3322 -0.0329
   88POPC   NC3 1478   0.802   6.120   8.865  0.1624 -0.0077  0.0978
   88POPC   PO4 1479   0.876   5.919   8.535 -0.4701  0.1978  0.0492
   88POPC   GL1 1480   0.791   6.036   8.142  0.2188 -0.0931 -0.1301
   88POPC   GL2 1481   1.002   6.299   7.951 -0.0377  0.0684  0.3384
   88POPC   C1A 1482   0.563   5.991   7.759  0.2293 -0.6149 -0.1265
   88POPC   D2A 1483   0.291   6.026   7.560  0.0363  0.1255  0.1339
   88POPC   C3A 1484  -0.145   5.887   7.624  0.1606  0.1389  0.1621
   88POPC   C4A 1485  -0.454   6.054   7.419 -0.0082  0.1925 -0.2176
   88POPC   C1B 1486   1.396   6.233   7.725  0.1156  0.2205  0.1412
   88POPC   C2B 1487   1.451   6.210   7.267 -0.1940 -0.1669  0.1744
   88POPC   C3B 1488   1.633   5.987   6.933  0.1312  0.4613  0.0720
   88POPC   C4B 1489   1.510   5.728   6.611  0.1551 -0.2525 -0.0029
   89POPC   NC3 1490   4.459   5.516   8.320  0.0332 -0.0642 -0.1799
   89POPC   PO4 1491   4.374   5.971   8.221 -0.3598 -0.1371  0.0359
   89POPC   GL1 1492   4.445   5.805   7.850  0.1725 -0.3301 -0.3081
   89POPC   GL2 1493   4.335   5.550   7.794  0.1901 -0.1431  0.1206
   89POPC   C1A 1494   4.593   6.002   7.388 -0.1369 -0.1353  0.0700
   89POPC   D2A 1495   4.675   6.260   6.963  0.0806  0.1297  0.1924
   89POPC   C3A 1496   4.801   6.074   6.626  0.0246 -0.1168 -0.3304
   89POPC   C4A 1497   5.170   5.919   6.311  0.0459  0.1902  0.1964
   89POPC   C1B 1498   4.338   5.541   7.355 -0.0216 -0.1203 -0.0215
   89POPC   C2B 1499   4.450   5.261   7.013  0.1089  0.1149  0.2544
   89POPC   C3B 1500   4.436   5.180   6.619 -0.4651 -0.0222 -0.2064
   89POPC   C4B 1501   4.117   5.066   6.330 -0.0643 -0.0500  0.5452
   90POPC   NC3 1502   8.462   1.562   9.637  0.1344  0.0056 -0.1411
   90POPC   PO4 1503   8.161   1.918   9.558  0.2493  0.3872  0.0417
   90POPC   GL1 1504   8.214   1.720   9.207  0.1600  0.2987  0.1859
   90POPC   GL2 1505   7.967   1.745   8.961  0.1392 -0.0188  0.0243
   90POPC   C1A 1506   8.428   1.735   8.726 -0.1727  0.1384 -0.1953
   90POPC   D2A 1507   8.565   2.022   8.331  0.1829 -0.2548 -0.1982
   90POPC   C3A 1508   8.960   2.120   8.283 -0.1767 -0.1004  0.3755
   90POPC   C4A 1509   9.216   2.445   8.144 -0.0837  0.0174 -0.0624
   90POPC   C1B 1510   7.785   1.621   8.635 -0.1961  0.1773 -0.0095
   90POPC   C2B 1511   7.611   1.656   8.204  0.0320 -0.2572 -0.0933
   90POPC   C3B 1512   7.633   1.371   7.863  0.3707  0.4728 -0.0034
   90POPC   C4B 1513   7.483   1.034   7.791 -0.1425  0.3015 -0.1176
   91POPC   NC3 1514   1.941   7.969   9.064  0.1660 -0.0754 -0.1229
   91POPC   PO4 1515   1.914   8.364   8.690 -0.1026 -0.2159  0.0318
   91POPC   GL1 1516   2.116   8.719   8.385  0.2900  0.3506 -0.1147
   91POPC   GL2 1517   2.512   8.930   8.455  0.0203  0.0679 -0.2280
   91POPC   C1A 1518   2.055   8.644   8.028 -0.2737 -0.1703 -0.2042
   91POPC   D2A 1519   1.885   8.371   7.644  0.0056  0.4401  0.0007
   91POPC   C3A 1520   1.672   8.585   7.250  0.0893 -0.2328 -0.1869
   91POPC   C4A 1521   1.679   8.780   6.869 -0.0165  0.2642 -0.0765
   91POPC   C1B 1522   2.476   8.849   7.954 -0.2241 -0.3094 -0.0253
   91POPC   C2B 1523   2.676   8.844   7.568 -0.3848  0.0943 -0.0292
   91POPC   C3B 1524   2.526   8.799   7.155  0.4838 -0.1393 -0.1626
   91POPC   C4B 1525   2.214   8.660   6.986  0.3271 -0.4502 -0.2174
   92POPC   NC3 1526   9.328   1.521   9.675 -0.3947 -0.1146 -0.1764
   92POPC   PO4 1527   9.573   1.123   9.422  0.1819  0.0598  0.3017
   92POPC   GL1 1528   9.532   0.803   9.143  0.5403 -0.1922 -0.0137
   92POPC   GL2 1529   9.771   0.962   8.993  0.2017  0.3039 -0.0433
   92POPC   C1A 1530   9.363   0.736   8.651 -0.1154  0.2188  0.1395
   92POPC   D2A 1531   9.419   0.764   8.234  0.2949  0.1740 -0.2339
   92POPC   C3A 1532   9.446   0.390   8.116 -0.1806 -0.0845 -0.0997
   92POPC   C4A 1533   9.631   0.029   7.932  0.0082  0.0325 -0.2723
   92POPC   C1B 1534  10.184   1.000   8.892  0.1241  0.0688 -0.0007
   92POPC   C2B 1535  10.270   1.002   8.553  0.0196 -0.0999  0.1569
   92POPC   C3B 1536  10.443   0.584   8.330  0.4134  0.0126 -0.3704
   92POPC   C4B 1537  10.572   0.319   7.956  0.0593 -0.0843 -0.0807
   93POPC   NC3 1538   0.529   4.628   8.160 -0.3100 -0.1779  0.0229
   93POPC   PO4 1539   0.814   4.892   8.032 -0.2684  0.0344  0.1295
   93POPC   GL1 1540   0.788   4.928   7.567  0.2574  0.2947  0.3564
   93POPC   GL2 1541   0.455   5.029   7.541  0.0164  0.3007 -0.2593
   93POPC   C1A 1542   1.071   4.877   7.210  0.2584  0.0046 -0.3317
   93POPC   D2A 1543   1.145   4.874   6.772  0.3185  0.0989  0.0985
   93POPC   C3A 1544   1.213   5.210   6.507 -0.1816  0.1415 -0.0718
   93POPC   C4A 1545   1.522   5.416   6.187 -0.0226  0.0200  0.1498
   93POPC   C1B 1546   0.585   4.906   7.097  0.0039  0.0859  0.3477
   93POPC   C2B 1547   0.544   4.949   6.699 -0.0465  0.1638 -0.2305
   93POPC   C3B 1548   0.301   5.058   6.380  0.1493 -0.0418 -0.0612
   93POPC   C4B 1549   0.008   5.292   6.128 -0.0729  0.1096  0.2750
   94POPC   NC3 1550   3.060   7.197   9.010  0.1480  0.0364  0.0066
   94POPC   PO4 1551   2.824   6.999   8.694 -0.0679 -0.2276 -0.2700
   94POPC   GL1 1552   2.511   7.033   8.190  0.0003  0.1262 -0.1056
   94POPC   GL2 1553   2.529   7.337   8.055 -0.2102  0.0385  0.2671
   94POPC   C1A 1554   2.168   7.024   7.849 -0.1286  0.0348  0.1776
   94POPC   D2A 1555   1.889   6.900   7.678 -0.2051  0.5722  0.0444
   94POPC   C3A 1556   1.786   6.505   7.629  0.1399  0.1315  0.1365
   94POPC   C4A 1557   1.908   6.054   7.476  0.2658 -0.1349 -0.0538
   94POPC   C1B 1558   2.409   7.465   7.690  0.0087  0.0485 -0.2468
   94POPC   C2B 1559   2.186   7.283   7.395 -0.1931  0.0319 -0.0213
   94POPC   C3B 1560   2.045   7.093   7.012 -0.0375 -0.1532 -0.0822
   94POPC   C4B 1561   2.141   6.668   6.734  0.0270 -0.5045 -0.4895
   95POPC   NC3 1562   7.756   8.154   8.735  0.1522 -0.0594  0.1717
   95POPC   PO4 1563   7.449   8.465   8.596 -0.0943  0.0527  0.1469
   95POPC   GL1 1564   7.753   8.469   8.182 -0.0635  0.1435  0.1421
   95POPC   GL2 1565   7.744   8.261   7.914  0.0337 -0.1456  0.3015
   95POPC   C1A 1566   7.840   8.770   7.877  0.1163  0.0326  0.3070
   95POPC   D2A 1567   7.955   9.007   7.572 -0.0879 -0.0674  0.1213
   95POPC   C3A 1568   7.939   8.857   7.214  0.0696 -0.1323  0.0176
   95POPC   C4A 1569   7.880   8.926   6.785 -0.0332  0.2506 -0.0195
   95POPC   C1B 1570   7.410   8.136   7.532 -0.1884 -0.0234  0.1605
   95POPC   C2B 1571   7.456   8.029   7.080  0.3004 -0.0453 -0.2338
   95POPC   C3B 1572   7.413   8.026   6.803 -0.2508 -0.1796  0.4031
   95POPC   C4B 1573   7.363   7.992   6.439 -0.2674 -0.0412 -0.0387
   96POPC   NC3 1574   0.304   5.255   8.830  0.1211 -0.0559 -0.1403
   96POPC   PO4 1575  -0.003   5.359   8.421  0.1932  0.0045 -0.0413
   96POPC   GL1 1576   0.060   5.417   8.036  0.1176  0.4680  0.0329
   96POPC   GL2 1577  -0.179   5.386   7.806  0.1857  0.0998 -0.0541
   96POPC   C1A 1578   0.237   5.534   7.635  0.0178 -0.1642  0.2032
   96POPC   D2A 1579   0.050   5.561   7.259  0.1751  0.0931 -0.0867
   96POPC   C3A 1580   0.234   5.950   7.060 -0.0310 -0.0509 -0.2329
   96POPC   C4A 1581   0.571   5.963   6.799  0.0450 -0.0535 -0.2932
   96POPC   C1B 1582  -0.065   5.070   7.504  0.1163 -0.1514 -0.0510
   96POPC   C2B 1583   0.030   4.966   7.158  0.0418  0.1660 -0.0425
   96POPC   C3B 1584   0.043   4.823   6.790  0.2430 -0.0045  0.1316
   96POPC   C4B 1585  -0.353   4.610   6.625 -0.1649 -0.0193  0.1392
   97POPC   NC3 1586   7.777   3.712   8.402  0.0005 -0.1543 -0.0150
   97POPC   PO4 1587   7.647   3.294   8.405  0.1076  0.0497 -0.1081
   97POPC   GL1 1588   7.632   3.408   7.930 -0.0433  0.1112 -0.2590
   97POPC   GL2 1589   7.837   3.585   7.950 -0.3187 -0.1588  0.1422
   97POPC   C1A 1590   7.400   3.742   7.645  0.0689 -0.0185  0.0479
   97POPC   D2A 1591   7.431   3.841   7.182 -0.2095  0.2404  0.2987
   97POPC   C3A 1592   7.236   3.638   6.887 -0.1149  0.1391  0.0951
   97POPC   C4A 1593   7.154   3.324   6.627 -0.0417  0.2346 -0.1171
   97POPC   C1B 1594   7.969   3.624   7.520  0.2447  0.1298  0.1174
   97POPC   C2B 1595   8.252   3.466   7.211 -0.1197  0.6226 -0.0562
   97POPC   C3B 1596   8.469   3.140   7.078 -0.0826 -0.2796 -0.1758
   97POPC   C4B 1597   8.470   2.747   7.021  0.0170 -0.1243 -0.3408
   98POPC   NC3 1598   1.782   4.435   8.743  0.2445  0.2626  0.0129
   98POPC   PO4 1599   1.699   4.308   8.252  0.0165  0.1706  0.1072
   98POPC   GL1 1600   1.426   4.276   7.849 -0.3453 -0.3094  0.0164
   98POPC   GL2 1601   1.366   4.650   7.605 -0.2783  0.4241 -0.0641
   98POPC   C1A 1602   1.184   4.184   7.477  0.0191 -0.1835  0.0774
   98POPC   D2A 1603   1.375   3.899   7.184  0.2402  0.1777  0.2192
   98POPC   C3A 1604   1.319   3.401   7.130 -0.3968  0.1162  0.4334
   98POPC   C4A 1605   1.040   3.210   6.829  0.1468  0.1763 -0.1739
   98POPC   C1B 1606   1.450   4.441   7.170 -0.0804  0.1448 -0.0999
   98POPC   C2B 1607   1.200   4.279   6.893  0.0258  0.2144 -0.3233
   98POPC   C3B 1608   1.070   4.214   6.474 -0.1048 -0.1298  0.2362
   98POPC   C4B 1609   0.911   3.873   6.217 -0.0273 -0.0303  0.1637
   99POPC   NC3 1610   7.609   5.074   8.688 -0.3230 -0.0972  0.2504
   99POPC   PO4 1611   7.319   4.936   8.295  0.2176  0.1012  0.0103
   99POPC   GL1 1612   7.126   4.897   7.944  0.0462  0.2567 -0.0980
   99POPC   GL2 1613   7.281   4.661   7.854 -0.0808 -0.0115  0.0910
   99POPC   C1A 1614   7.086   4.903   7.491  0.2343  0.0946  0.0301
   99POPC   D2A 1615   7.165   4.827   7.077 -0.4126 -0.2672  0.1966
   99POPC   C3A 1616   7.242   5.158   6.809  0.4171  0.2779 -0.0936
   99POPC   C4A 1617   7.430   5.457   6.569  0.1431  0.0683 -0.2738
   99POPC   C1B 1618   7.576   4.662   7.482  0.3912 -0.1089 -0.0695
   99POPC   C2B 1619   7.682   4.770   7.053  0.1733 -0.1026 -0.1301
   99POPC   C3B 1620   7.762   4.933   6.572  0.1343  0.0488 -0.0810
   99POPC   C4B 1621   7.881   5.276   6.380  0.3264  0.3341 -0.0508
  100POPC   NC3 1622   1.369   8.520   8.736 -0.2291 -0.1030 -0.2674
  100POPC   PO4 1623   1.749   8.878   8.917 -0.0890  0.0189 -0.2764
  100POPC   GL1 1624   1.717   9.055   8.535  0.0056  0.3322 -0.0331
  100POPC   GL2 1625   1.344   8.950   8.409  0.1132  0.0727  0.0579
  100POPC   C1A 1626   1.741   8.993   8.122  0.1629 -0.1764  0.2389
  100POPC   D2A 1627   1.524   9.025   7.716  0.0417  0.1339 -0.0922
  100POPC   C3A 1628   1.558   9.087   7.261  0.4108 -0.0435 -0.3698
  100POPC   C4A 1629   1.540   9.422   7.043 -0.2924 -0.1300  0.2519
  100POPC   C1B 1630   1.268   8.662   8.082  0.3684 -0.2819 -0.0546
  100POPC   C2B 1631   1.343   8.501   7.719  0.2376  0.3110  0.0016
  100POPC   C3B 1632   1.156   8.687   7.237 -0.0995  0.0269  0.0249
  100POPC   C4B 1633   1.101   8.769   6.773 -0.0929 -0.0890 -0.0664
  101POPC   NC3 1634   4.953   1.462   9.084 -0.0033 -0.0697  0.0275
  101POPC   PO4 1635   4.594   1.313   8.818 -0.0277  0.1191  0.2371
  101POPC   GL1 1636   4.674   1.122   8.340  0.0798  0.0159  0.0963
  101POPC   GL2 1637   4.986   1.025   8.185 -0.2705 -0.1512 -0.0566
  101POPC   C1A 1638   4.737   1.345   7.829  0.1476  0.0211 -0.2109
  101POPC   D2A 1639   4.801   1.725   7.490  0.0088  0.0741 -0.0010
  101POPC   C3A 1640   5.190   1.780   7.182  0.3645 -0.1368 -0.1517
  101POPC   C4A 1641   5.189   2.168   6.883  0.0892 -0.0353 -0.0406
  101POPC   C1B 1642   4.939   0.721   7.685  0.0852 -0.0010 -0.2086
  101POPC   C2B 1643   4.719   0.729   7.409  0.3946  0.2339 -0.2030
  101POPC   C3B 1644   4.744   0.876   7.081  0.0775  0.2550 -0.1148
  101POPC   C4B 1645   4.570   0.725   6.641  0.1877 -0.2405  0.0421
  102POPC   NC3 1646   5.951   2.779   8.744  0.0732  0.0419 -0.0867
  102POPC   PO4 1647   6.280   2.605   8.408 -0.1305  0.0113  0.2248
  102POPC   GL1 1648   6.154   2.422   7.983  0.0682  0.0434 -0.1060
  102POPC   GL2 1649   6.253   2.617   7.756  0.0423  0.2622 -0.2497
  102POPC   C1A 1650   6.172   2.113   7.627 -0.0733  0.1238  0.2278
  102POPC   D2A 1651   6.399   1.864   7.397  0.1176 -0.0692  0.0507
  102POPC   C3A 1652   6.439   1.657   6.933 -0.1006  0.0181 -0.3422
  102POPC   C4A 1653   6.591   1.775   6.441  0.1889 -0.0803  0.0376
  102POPC   C1B 1654   6.222   2.971   7.509  0.0011  0.1133 -0.1972
  102POPC   C2B 1655   6.004   3.282   7.304  0.1521  0.0658  0.0635
  102POPC   C3B 1656   5.858   3.308   6.873 -0.2407 -0.5092  0.1884
  102POPC   C4B 1657   5.958   3.144   6.437 -0.2009 -0.3475 -0.3363
  103POPC   NC3 1658   6.115   5.724   8.279 -0.3213  0.0683 -0.0178
  103POPC   PO4 1659   6.524   5.637   8.495 -0.0786  0.3917  0.0908
  103POPC   GL1 1660   6.683   5.617   8.074 -0.1009  0.0709 -0.0596
  103POPC   GL2 1661   6.482   5.717   7.905  0.1202 -0.1776 -0.2127
  103POPC   C1A 1662   7.051   5.703   7.974 -0.0363 -0.0466 -0.1606
  103POPC   D2A 1663   7.258   5.796   7.583 -0.1016 -0.2997  0.0843
  103POPC   C3A 1664   7.668   5.611   7.426 -0.0704 -0.0683 -0.0001
  103POPC   C4A 1665   8.098   5.484   7.305  0.0221 -0.3074  0.2357
  103POPC   C1B 1666   6.414   5.790   7.524  0.3668 -0.1730 -0.2390
  103POPC   C2B 1667   6.318   6.042   7.212 -0.1004 -0.1185 -0.3565
  103POPC   C3B 1668   6.580   6.348   6.969  0.0827  0.0391  0.2064
  103POPC   C4B 1669   6.509   6.422   6.538  0.0692 -0.2943  0.1104
  104POPC   NC3 1670   8.583   7.632   8.654 -0.3751  0.0102  0.0770
  104POPC   PO4 1671   8.270   8.010   8.605 -0.0710 -0.0472  0.0822
  104POPC   GL1 1672   8.279   8.108   8.148 -0.1229  0.1862 -0.0406
  104POPC   GL2 1673   8.132   8.014   7.837 -0.3104 -0.0562 -0.3292
  104POPC   C1A 1674   8.257   8.525   8.006  0.0609 -0.0349  0.1669
  104POPC   D2A 1675   8.157   8.527   7.564  0.1712 -0.1476 -0.2257
  104POPC   C3A 1676   8.328   8.432   7.154  0.1870  0.1252 -0.0162
  104POPC   C4A 1677   8.706   8.559   6.966  0.4680 -0.0900 -0.0096
  104POPC   C1B 1678   7.919   8.094   7.490  0.1084 -0.2347  0.1661
  104POPC   C2B 1679   7.814   8.344   7.189 -0.4765 -0.0428  0.2293
  104POPC   C3B 1680   7.913   8.418   6.845  0.0935  0.0159  0.0487
  104POPC   C4B 1681   8.097   8.542   6.492  0.2349 -0.0638  0.2344
  105POPC   NC3 1682   3.034   5.479   8.318  0.2607 -0.3975 -0.0079
  105POPC   PO4 1683   2.564   5.314   8.320  0.2579  0.2097  0.2104
  105POPC   GL1 1684   2.374   5.309   7.911  0.0305 -0.1628 -0.1478
  105POPC   GL2 1685   2.176   5.603   7.829  0.0626  0.3267  0.0521
  105POPC   C1A 1686   2.357   5.369   7.449  0.1275 -0.0476  0.1570
  105POPC   D2A 1687   2.431   5.563   7.107  0.0843 -0.3624 -0.0574
  105POPC   C3A 1688   2.134   5.852   7.041  0.2293  0.0689 -0.0148
  105POPC   C4A 1689   1.977   6.282   7.046 -0.0753 -0.2296 -0.0753
  105POPC   C1B 1690   1.906   5.514   7.398 -0.2387  0.1044  0.3819
  105POPC   C2B 1691   1.814   5.424   6.996  0.1177 -0.1667 -0.1436
  105POPC   C3B 1692   1.763   5.305   6.608  0.0320 -0.0906 -0.2093
  105POPC   C4B 1693   1.605   4.919   6.447 -0.3064 -0.1585  0.2086
  106POPC   NC3 1694   1.065   6.683   8.797  0.2465 -0.0211  0.2985
  106POPC   PO4 1695   1.302   7.029   8.493  0.3403 -0.3219 -0.1434
  106POPC   GL1 1696   1.076   6.845   8.194 -0.1634  0.1171 -0.0381
  106POPC   GL2 1697   0.733   6.815   8.197 -0.3083  0.3070 -0.0147
  106POPC   C1A 1698   1.057   6.771   7.730 -0.0606  0.2223 -0.3131
  106POPC   D2A 1699   0.987   6.340   7.396  0.0615  0.1879 -0.0419
  106POPC   C3A 1700   0.777   6.395   7.004  0.4924  0.0173 -0.2286
  106POPC   C4A 1701   0.537   6.707   6.761  0.2239 -0.0961  0.0507
  106POPC   C1B 1702   0.674   7.070   7.942  0.2421 -0.1937 -0.1317
  106POPC   C2B 1703   0.639   7.589   7.890  0.1854 -0.1468  0.0623
  106POPC   C3B 1704   0.608   7.936   7.573  0.2385  0.1545 -0.0672
  106POPC   C4B 1705   0.649   8.217   7.280  0.0524 -0.1270  0.0351
  107POPC   NC3 1706   8.656   5.998   8.258  0.1113 -0.1798  0.3119
  107POPC   PO4 1707   8.394   6.322   8.415 -0.1388  0.0926  0.0651
  107POPC   GL1 1708   8.219   6.335   8.048 -0.1951  0.4922  0.2483
  107POPC   GL2 1709   7.988   6.480   7.860 -0.1549 -0.2220 -0.1712
  107POPC   C1A 1710   8.374   6.357   7.576 -0.0735  0.0349  0.0538
  107POPC   D2A 1711   8.725   6.615   7.274  0.0686  0.0589 -0.2161
  107POPC   C3A 1712   8.607   6.935   7.111 -0.1303  0.0832  0.1065
  107POPC   C4A 1713   8.270   6.929   6.963 -0.1506  0.1314 -0.0104
  107POPC   C1B 1714   7.978   6.688   7.377 -0.2106 -0.0205 -0.1024
  107POPC   C2B 1715   7.836   6.722   6.940  0.2103  0.0235  0.3840
  107POPC   C3B 1716   8.059   6.728   6.501  0.1613  0.0205 -0.1384
  107POPC   C4B 1717   8.363   6.942   6.218 -0.0706 -0.2556  0.0983
  108POPC   NC3 1718   0.883   3.006   8.989 -0.0111  0.0233  0.1817
  108POPC   PO4 1719   1.227   3.361   8.997  0.0701 -0.2393  0.4157
  108POPC   GL1 1720   0.926   3.285   8.533 -0.0099 -0.1509  0.0928
  108POPC   GL2 1721   1.154   3.354   8.274  0.1888 -0.0523  0.0800
  108POPC   C1A 1722   0.655   3.249   8.199  0.3273  0.2949 -0.1241
  108POPC   D2A 1723   0.391   3.441   7.989  0.1135  0.0274  0.2390
  108POPC   C3A 1724   0.458   3.493   7.474  0.2259  0.2382 -0.0254
  108POPC   C4A 1725   0.168   3.397   7.193 -0.1475 -0.2514  0.1705
  108POPC   C1B 1726   1.100   3.501   7.838  0.0318 -0.2507  0.0942
  108POPC   C2B 1727   1.427   3.773   7.648 -0.0194 -0.1252  0.1024
  108POPC   C3B 1728   1.697   4.123   7.472  0.1257 -0.1458 -0.0494
  108POPC   C4B 1729   1.861   4.581   7.481 -0.0916  0.0041 -0.1140
  109POPC   NC3 1730   5.120   2.157   8.246  0.1064  0.1145  0.2528
  109POPC   PO4 1731   4.931   2.599   8.248 -0.1935 -0.1775  0.0113
  109POPC   GL1 1732   4.875   2.678   7.844 -0.1586  0.2017 -0.2178
  109POPC   GL2 1733   4.898   3.123   7.770 -0.0003  0.1495 -0.3494
  109POPC   C1A 1734   4.655   2.708   7.453 -0.3244  0.0541 -0.1306
  109POPC   D2A 1735   4.561   2.573   6.952  0.0679 -0.1688 -0.1898
  109POPC   C3A 1736   4.319   2.234   6.926 -0.1779  0.0946  0.2746
  109POPC   C4A 1737   4.010   2.009   6.848  0.1561 -0.0893  0.0550
  109POPC   C1B 1738   4.849   3.142   7.436 -0.0648 -0.1104 -0.0688
  109POPC   C2B 1739   4.561   3.079   7.056 -0.2581  0.2822  0.3672
  109POPC   C3B 1740   4.140   3.109   6.781 -0.0527  0.0307 -0.0810
  109POPC   C4B 1741   3.705   3.246   6.564 -0.1002 -0.1632  0.1901
  110POPC   NC3 1742   6.478   6.193   8.285  0.3272 -0.0412 -0.2431
  110POPC   PO4 1743   6.062   6.463   8.274 -0.3653 -0.1900 -0.0222
  110POPC   GL1 1744   6.096   6.607   7.834  0.1906  0.2411  0.3580
  110POPC   GL2 1745   6.453   6.518   7.820 -0.1170  0.2066  0.1582
  110POPC   C1A 1746   6.038   6.391   7.524  0.1260  0.0593 -0.0399
  110POPC   D2A 1747   5.926   5.875   7.436  0.1024 -0.0486  0.1157
  110POPC   C3A 1748   5.994   5.783   7.001 -0.3139 -0.1478  0.0018
  110POPC   C4A 1749   6.087   5.665   6.700  0.1011 -0.2124 -0.0598
  110POPC   C1B 1750   6.457   6.581   7.393 -0.1202  0.0599 -0.0792
  110POPC   C2B 1751   6.516   6.969   7.206 -0.0093  0.0133  0.1104
  110POPC   C3B 1752   6.520   7.191   6.900  0.0039 -0.1351  0.0953
  110POPC   C4B 1753   6.867   7.456   6.664  0.0878 -0.0449  0.1452
  111POPC   NC3 1754   5.157   6.665   8.660  0.5395  0.3706 -0.1744
  111POPC   PO4 1755   4.863   6.465   8.389  0.4865  0.0673 -0.0510
  111POPC   GL1 1756   4.941   6.574   7.948 -0.0674  0.0382  0.3345
  111POPC   GL2 1757   5.216   6.585   7.728  0.0821  0.1478  0.0663
  111POPC   C1A 1758   4.846   6.467   7.455  0.0820  0.1518 -0.1330
  111POPC   D2A 1759   5.193   6.316   7.120  0.2315 -0.1154 -0.0121
  111POPC   C3A 1760   5.323   6.526   6.804 -0.0376  0.2250  0.0659
  111POPC   C4A 1761   5.097   6.456   6.286 -0.0359 -0.0347  0.1097
  111POPC   C1B 1762   5.544   6.540   7.388  0.0184 -0.2453 -0.3825
  111POPC   C2B 1763   5.800   6.341   7.047 -0.1896 -0.1436 -0.1844
  111POPC   C3B 1764   5.974   6.213   6.717  0.0596 -0.3171  0.0103
  111POPC   C4B 1765   6.130   6.229   6.339 -0.1020  0.0608 -0.3825
  112POPC   NC3 1766   0.492   7.997   8.894  0.2332 -0.2828  0.0473
  112POPC   PO4 1767   0.645   7.701   8.540 -0.1923 -0.0988 -0.0768
  112POPC   GL1 1768   0.626   8.187   8.399 -0.3524  0.0922 -0.1990
  112POPC   GL2 1769   1.000   8.236   8.148  0.0673  0.0795 -0.1350
  112POPC   C1A 1770   0.640   8.674   8.451  0.1235  0.1391 -0.1875
  112POPC   D2A 1771   0.778   8.965   8.187  0.0365 -0.0283  0.0166
  112POPC   C3A 1772   0.579   9.188   7.917 -0.0108  0.1776 -0.0141
  112POPC   C4A 1773   0.308   9.284   7.621 -0.0053 -0.3163  0.1981
  112POPC   C1B 1774   0.766   8.468   7.902  0.2510 -0.0581 -0.1923
  112POPC   C2B 1775   0.743   8.641   7.510  0.2111  0.1684 -0.0956
  112POPC   C3B 1776   0.636   8.668   7.065 -0.2981 -0.1522  0.2616
  112POPC   C4B 1777   0.524   8.853   6.705 -0.0740  0.1173  0.0447
  113POPC   NC3 1778   1.845   1.094   8.649  0.0921 -0.1330 -0.2988
  113POPC   PO4 1779   2.246   1.061   8.507  0.2745 -0.1377 -0.0226
  113POPC   GL1 1780   2.073   0.896   8.183 -0.2657  0.1728 -0.1167
  113POPC   GL2 1781   1.715   0.866   8.227 -0.1791 -0.1220  0.2572
  113POPC   C1A 1782   1.940   0.741   7.816 -0.2855 -0.4261  0.1312
  113POPC   D2A 1783   1.694   0.917   7.405  0.1515 -0.1188  0.0174
  113POPC   C3A 1784   1.693   1.060   6.988 -0.0656  0.3262 -0.2399
  113POPC   C4A 1785   1.667   1.051   6.589  0.1293  0.1204 -0.2055
  113POPC   C1B 1786   1.703   1.223   7.829  0.0502 -0.0932  0.1222
  113POPC   C2B 1787   1.314   1.257   7.540  0.0039 -0.3256  0.1536
  113POPC   C3B 1788   1.012   1.161   7.193  0.3871  0.0466  0.0439
  113POPC   C4B 1789   0.912   1.511   6.989  0.1173  0.1334 -0.0315
  114POPC   NC3 1790   8.733   4.637   8.230 -0.3968  0.0588 -0.2105
  114POPC   PO4 1791   8.281   4.432   8.146  0.1792 -0.2427  0.2273
  114POPC   GL1 1792   8.531   4.655   7.773  0.1904 -0.2007 -0.1470
  114POPC   GL2 1793   8.664   5.015   7.836 -0.2272  0.3927  0.0964
  114POPC   C1A 1794   8.710   4.678   7.348 -0.0275 -0.2162  0.0939
  114POPC   D2A 1795   8.582   4.714   6.887 -0.1261 -0.4608  0.1947
  114POPC   C3A 1796   8.669   4.627   6.477  0.1302 -0.1017  0.3428
  114POPC   C4A 1797   8.630   4.374   6.150 -0.0997  0.1492 -0.1660
  114POPC   C1B 1798   8.439   5.119   7.500 -0.1057  0.2908  0.1305
  114POPC   C2B 1799   8.618   5.124   7.176  0.1168  0.0820  0.1305
  114POPC   C3B 1800   9.083   5.154   7.115  0.1330 -0.1535  0.1696
  114POPC   C4B 1801   9.506   4.928   7.004 -0.4138 -0.0118  0.2676
  115POPC   NC3 1802   3.366   2.868   8.479  0.0609  0.4375  0.2720
  115POPC   PO4 1803   2.978   2.866   8.536 -0.0372  0.2650  0.0616
  115POPC   GL1 1804   2.739   2.653   8.233  0.3557 -0.0665 -0.0634
  115POPC   GL2 1805   2.854   2.436   8.254 -0.0069 -0.1349  0.1475
  115POPC   C1A 1806   2.736   2.786   7.742  0.3917  0.1817  0.0536
  115POPC   D2A 1807   2.657   2.759   7.318 -0.1616 -0.0337 -0.0189
  115POPC   C3A 1808   2.297   2.851   7.097  0.0866 -0.0101 -0.0322
  115POPC   C4A 1809   2.116   2.909   6.684 -0.2210  0.3782  0.1892
  115POPC   C1B 1810   2.705   2.323   7.835 -0.0887  0.1073 -0.3418
  115POPC   C2B 1811   2.797   2.291   7.484 -0.0986  0.0395  0.2094
  115POPC   C3B 1812   3.020   1.914   7.376 -0.1757 -0.0225  0.2760
  115POPC   C4B 1813   3.020   1.626   7.000 -0.1418  0.1503 -0.1710
  116POPC   NC3 1814   4.910   4.310   8.463  0.2134  0.1120  0.2609
  116POPC   PO4 1815   5.070   4.685   8.314  0.2708  0.1147 -0.3762
  116POPC   GL1 1816   5.065   4.939   7.955 -0.0975  0.0275 -0.0815
  116POPC   GL2 1817   5.285   4.769   7.761  0.2507  0.3124  0.3965
  116POPC   C1A 1818   5.257   5.303   7.548 -0.0896  0.1528 -0.0635
  116POPC   D2A 1819   5.470   5.674   7.550  0.3172 -0.0433  0.1187
  116POPC   C3A 1820   5.527   5.888   7.122  0.0570  0.0758 -0.0812
  116POPC   C4A 1821   5.487   6.078   6.731  0.0871  0.2627  0.0535
  116POPC   C1B 1822   5.495   4.579   7.402 -0.0373  0.0363 -0.1452
  116POPC   C2B 1823   5.454   4.319   7.042 -0.2342  0.2073  0.0455
  116POPC   C3B 1824   5.089   4.362   6.826 -0.0484  0.1464 -0.1794
  116POPC   C4B 1825   4.956   4.427   6.378  0.1447 -0.0329  0.0253
  117POPC   NC3 1826   8.905   8.837   9.739 -0.0132 -0.0924 -0.1248
  117POPC   PO4 1827   8.681   9.234   9.672  0.0124 -0.3009  0.1370
  117POPC   GL1 1828   9.074   9.086   9.313  0.0119  0.3005 -0.1478
  117POPC   GL2 1829   8.910   8.946   9.042  0.2414 -0.0259  0.3831
  117POPC   C1A 1830   9.333   9.273   9.025  0.0168  0.0664 -0.0776
  117POPC   D2A 1831   9.741   9.459   8.969  0.2574  0.3058  0.1144
  117POPC   C3A 1832   9.945   9.300   8.629 -0.3336 -0.0938 -0.1004
  117POPC   C4A 1833  10.011   8.876   8.396 -0.0406  0.3555 -0.1491
  117POPC   C1B 1834   8.960   9.042   8.679 -0.1131  0.0823  0.4863
  117POPC   C2B 1835   9.026   9.105   8.254 -0.2513  0.3966 -0.0448
  117POPC   C3B 1836   8.913   9.007   7.835  0.3505 -0.0477  0.0055
  117POPC   C4B 1837   8.967   9.271   7.511  0.1373  0.1449 -0.1477
  118POPC   NC3 1838   9.652   4.212   8.318  0.2099 -0.0067  0.0938
  118POPC   PO4 1839  10.055   4.385   8.176  0.1392  0.0458 -0.2015
  118POPC   GL1 1840  10.130   4.392   7.755 -0.2226  0.1534 -0.0228
  118POPC   GL2 1841   9.873   4.608   7.692 -0.1970  0.1608  0.0183
  118POPC   C1A 1842  10.247   4.553   7.275 -0.2463 -0.2491 -0.1509
  118POPC   D2A 1843  10.341   4.514   6.841  0.1498 -0.0466 -0.1540
  118POPC   C3A 1844  10.754   4.525   6.748  0.1009  0.0357  0.1295
  118POPC   C4A 1845  10.892   4.738   6.369 -0.1748 -0.3420 -0.2484
  118POPC   C1B 1846   9.749   4.561   7.384 -0.2761 -0.1258  0.3255
  118POPC   C2B 1847   9.817   4.357   6.998  0.1643  0.1454 -0.1679
  118POPC   C3B 1848   9.876   4.008   6.680 -0.2255 -0.1603 -0.2534
  118POPC   C4B 1849   9.665   3.707   6.339  0.2718 -0.3867  0.1249
  119POPC   NC3 1850   6.609   8.532   8.780 -0.0838 -0.1204 -0.2638
  119POPC   PO4 1851   6.889   8.342   8.500  0.1538 -0.0168 -0.2088
  119POPC   GL1 1852   7.080   8.441   8.183 -0.0952 -0.0864  0.0869
  119POPC   GL2 1853   7.030   8.065   7.944 -0.3508 -0.0535 -0.2748
  119POPC   C1A 1854   7.307   8.529   7.888 -0.2133  0.0049  0.0270
  119POPC   D2A 1855   7.529   8.605   7.452  0.3245  0.2336 -0.1108
  119POPC   C3A 1856   7.494   8.690   7.064  0.2481 -0.1574  0.1052
  119POPC   C4A 1857   7.476   8.517   6.622  0.3266 -0.1279  0.1532
  119POPC   C1B 1858   6.924   8.134   7.547 -0.0461  0.1592  0.1197
  119POPC   C2B 1859   7.134   8.314   7.237 -0.0541 -0.2887  0.0630
  119POPC   C3B 1860   6.963   8.328   6.929  0.6231 -0.0173  0.2754
  119POPC   C4B 1861   7.035   8.413   6.430 -0.3304 -0.0571 -0.0548
  120POPC   NC3 1862   1.657   3.103   9.144 -0.0218 -0.2125 -0.3244
  120POPC   PO4 1863   1.632   2.674   8.915 -0.0172  0.2740 -0.3825
  120POPC   GL1 1864   1.659   2.548   8.479  0.0657  0.0306  0.0183
  120POPC   GL2 1865   1.461   2.488   8.399 -0.2685 -0.0958 -0.2064
  120POPC   C1A 1866   1.762   2.611   7.948  0.2325  0.4283 -0.1587
  120POPC   D2A 1867   1.724   2.568   7.465  0.2431  0.3302 -0.0141
  120POPC   C3A 1868   1.501   2.385   7.260 -0.0925 -0.0258  0.2356
  120POPC   C4A 1869   1.077   2.310   7.126  0.3940  0.0615 -0.7315
  120POPC   C1B 1870   1.272   2.455   7.949  0.1234  0.1424 -0.0307
  120POPC   C2B 1871   1.420   2.061   7.726  0.1078 -0.2086  0.2692
  120POPC   C3B 1872   1.710   1.696   7.642 -0.1123  0.4396 -0.4578
  120POPC   C4B 1873   1.898   1.353   7.371 -0.0354 -0.0518 -0.1296
  121POPC   NC3 1874   7.181   1.237   9.170 -0.2460 -0.0516  0.2780
  121POPC   PO4 1875   7.118   0.742   9.250  0.0027  0.2698  0.0360
  121POPC   GL1 1876   7.256   0.569   8.894  0.1875 -0.2195 -0.1598
  121POPC   GL2 1877   7.393   0.755   8.630  0.3971  0.4467  0.2784
  121POPC   C1A 1878   7.070   0.372   8.531 -0.3131  0.2847 -0.0072
  121POPC   D2A 1879   7.051   0.363   8.177 -0.0970 -0.0338  0.1088
  121POPC   C3A 1880   6.997   0.051   7.961  0.0117  0.2501 -0.2132
  121POPC   C4A 1881   6.770  -0.327   8.122 -0.1678 -0.2383  0.0762
  121POPC   C1B 1882   7.901   0.642   8.459 -0.2266  0.1656  0.3319
  121POPC   C2B 1883   8.102   0.465   8.120  0.2822  0.1871  0.0109
  121POPC   C3B 1884   8.282   0.358   7.732 -0.1237 -0.1558 -0.2483
  121POPC   C4B 1885   8.664   0.379   7.615  0.3136  0.2759 -0.0576
  122POPC   NC3 1886   4.138   4.559   8.699 -0.4998  0.0243 -0.1452
  122POPC   PO4 1887   4.019   4.300   8.464 -0.0217  0.2751  0.0238
  122POPC   GL1 1888   4.016   4.236   8.000 -0.0136  0.0011  0.3576
  122POPC   GL2 1889   4.177   3.919   7.844  0.1124 -0.1412 -0.0641
  122POPC   C1A 1890   3.856   4.241   7.621  0.0382  0.3350  0.0178
  122POPC   D2A 1891   3.653   4.027   7.162  0.1449  0.1841 -0.1667
  122POPC   C3A 1892   3.195   3.981   7.082 -0.2405  0.3318 -0.1800
  122POPC   C4A 1893   2.749   4.082   7.067 -0.4301  0.1623 -0.2944
  122POPC   C1B 1894   4.136   3.914   7.351 -0.1454 -0.1406  0.4839
  122POPC   C2B 1895   4.126   4.014   6.928  0.0916  0.2658  0.0666
  122POPC   C3B 1896   3.995   4.000   6.450  0.1766 -0.1637  0.2163
  122POPC   C4B 1897   3.818   3.641   6.339 -0.0599 -0.0062  0.0835
  123POPC   NC3 1898   2.611   9.545   8.416 -0.2456  0.1651  0.2884
  123POPC   PO4 1899   2.917   9.243   8.450  0.0994  0.1800  0.1477
  123POPC   GL1 1900   2.853   9.243   8.067  0.0722 -0.1190  0.1784
  123POPC   GL2 1901   2.564   9.398   7.813 -0.2773  0.1883 -0.0233
  123POPC   C1A 1902   2.925   9.267   7.550  0.0888  0.0829  0.0778
  123POPC   D2A 1903   3.261   9.483   7.314 -0.0189  0.0592  0.3852
  123POPC   C3A 1904   3.250   9.754   7.055  0.0538 -0.0819 -0.0584
  123POPC   C4A 1905   3.272  10.198   6.959  0.1492 -0.0124 -0.2514
  123POPC   C1B 1906   2.429   9.241   7.421 -0.0765 -0.0413  0.2514
  123POPC   C2B 1907   2.713   9.273   7.063 -0.1708  0.0482 -0.0338
  123POPC   C3B 1908   3.000   9.403   6.736 -0.1276  0.3892  0.1409
  123POPC   C4B 1909   3.114   9.129   6.321 -0.0996  0.0773 -0.0173
  124POPC   NC3 1910   8.654   0.570   9.554  0.2871 -0.2685  0.0364
  124POPC   PO4 1911   8.518   1.059   9.589 -0.1997  0.0968  0.0235
  124POPC   GL1 1912   8.539   1.055   9.233  0.3008 -0.1937  0.2561
  124POPC   GL2 1913   8.573   1.375   9.139  0.1280  0.0752  0.3646
  124POPC   C1A 1914   8.399   0.776   8.939  0.3044  0.0014 -0.0658
  124POPC   D2A 1915   8.115   0.404   8.908 -0.1754 -0.0918  0.2991
  124POPC   C3A 1916   8.151   0.199   8.544  0.0379  0.2716 -0.0999
  124POPC   C4A 1917   8.118  -0.025   8.176 -0.0516 -0.1848  0.1303
  124POPC   C1B 1918   8.671   1.289   8.770 -0.0022  0.1711 -0.1882
  124POPC   C2B 1919   8.754   0.893   8.569 -0.0710  0.0753 -0.0510
  124POPC   C3B 1920   8.906   0.530   8.257  0.3101 -0.0820 -0.0927
  124POPC   C4B 1921   8.673   0.131   8.066  0.2181 -0.1926 -0.2669
  125POPC   NC3 1922   3.837   2.561   9.050 -0.1052  0.1134  0.0418
  125POPC   PO4 1923   4.121   2.298   8.765 -0.0601  0.0096  0.1449
  125POPC   GL1 1924   4.074   2.620   8.373  0.0319 -0.0546 -0.1099
  125POPC   GL2 1925   3.774   2.718   8.156 -0.1057 -0.2372 -0.0589
  125POPC   C1A 1926   4.299   2.541   7.975 -0.3083  0.0304  0.1634
  125POPC   D2A 1927   4.598   2.281   7.742 -0.0360  0.2243 -0.0752
  125POPC   C3A 1928   4.577   2.163   7.362  0.3303  0.2570  0.2990
  125POPC   C4A 1929   4.718   1.990   7.028 -0.2716  0.2422  0.1559
  125POPC   C1B 1930   3.785   2.734   7.704  0.1994  0.1344 -0.3595
  125POPC   C2B 1931   3.564   2.806   7.327 -0.0878 -0.0817  0.2508
  125POPC   C3B 1932   3.536   2.849   6.894  0.1292 -0.3165 -0.0522
  125POPC   C4B 1933   3.862   2.821   6.511  0.1057  0.2666 -0.0413
  126POPC   NC3 1934   5.284   8.675   8.416  0.0205  0.1209  0.1856
  126POPC   PO4 1935   5.318   8.240   8.424  0.0626  0.0640 -0.1758
  126POPC   GL1 1936   5.021   8.288   8.061 -0.0635 -0.0836 -0.2325
  126POPC   GL2 1937   5.156   8.464   7.874 -0.1245  0.0869 -0.1784
  126POPC   C1A 1938   4.987   8.077   7.620 -0.4825  0.1858 -0.2445
  126POPC   D2A 1939   5.157   7.938   7.233  0.1929  0.2775  0.1620
  126POPC   C3A 1940   5.224   7.469   6.984  0.1537 -0.0199 -0.1549
  126POPC   C4A 1941   5.073   7.103   6.716 -0.2360 -0.0449  0.1101
  126POPC   C1B 1942   5.324   8.634   7.442  0.2311  0.1266 -0.1504
  126POPC   C2B 1943   5.380   8.989   7.115  0.2130  0.0370  0.1763
  126POPC   C3B 1944   5.748   9.137   6.869  0.3462  0.2872  0.2350
  126POPC   C4B 1945   6.097   9.392   6.938 -0.3404  0.0248  0.1058
  127POPC   NC3 1946   1.152   9.116   9.434 -0.0332  0.2033  0.3751
  127POPC   PO4 1947   0.913   8.848   9.334  0.0886  0.2264  0.0750
  127POPC   GL1 1948   0.730   9.204   9.122 -0.0897  0.2500  0.3118
  127POPC   GL2 1949   0.399   9.145   8.968 -0.0073  0.0415  0.0369
  127POPC   C1A 1950   0.842   9.438   8.781  0.0277 -0.0605 -0.0459
  127POPC   D2A 1951   0.810   9.803   8.495  0.3235 -0.1164 -0.2046
  127POPC   C3A 1952   0.712   9.635   8.107 -0.3388 -0.0046  0.1365
  127POPC   C4A 1953   0.852   9.598   7.626  0.0462  0.2987 -0.0629
  127POPC   C1B 1954   0.494   9.207   8.500 -0.1306  0.1878  0.3805
  127POPC   C2B 1955   0.315   9.464   8.249 -0.1102  0.0709 -0.1608
  127POPC   C3B 1956   0.182   9.780   7.924 -0.0548 -0.1492 -0.2788
  127POPC   C4B 1957   0.186  10.023   7.637  0.0539  0.0482 -0.2203
  128POPC   NC3 1958   3.325   1.180   8.815  0.1942  0.0682 -0.1247
  128POPC   PO4 1959   3.811   1.246   8.849  0.0387  0.0219  0.1949
  128POPC   GL1 1960   3.806   1.463   8.450 -0.3512 -0.0013  0.0697
  128POPC   GL2 1961   4.195   1.458   8.384  0.4622  0.0259 -0.1206
  128POPC   C1A 1962   3.721   1.637   8.141  0.3018  0.0844  0.1272
  128POPC   D2A 1963   3.852   1.809   7.751  0.0328  0.3778  0.1168
  128POPC   C3A 1964   3.977   2.198   7.773  0.3778 -0.0620  0.0724
  128POPC   C4A 1965   4.125   2.479   7.516 -0.3560  0.1002 -0.1254
  128POPC   C1B 1966   4.099   1.308   7.989 -0.2884 -0.1219  0.0432
  128POPC   C2B 1967   4.016   1.277   7.593 -0.1875 -0.3567  0.0164
  128POPC   C3B 1968   3.928   1.545   7.196  0.1038  0.0623 -0.2140
  128POPC   C4B 1969   3.795   1.357   6.791 -0.0654 -0.0204 -0.1596
  129POPC   NC3 1970   4.886   7.179   7.987  0.0509  0.0849 -0.0350
  129POPC   PO4 1971   4.485   7.419   7.987 -0.1049 -0.2518 -0.1402
  129POPC   GL1 1972   4.519   7.323   7.605  0.1270 -0.0960  0.0228
  129POPC   GL2 1973   4.404   7.109   7.401  0.0954  0.1565 -0.0724
  129POPC   C1A 1974   4.248   7.537   7.253  0.0133  0.1852 -0.1746
  129POPC   D2A 1975   4.311   7.588   6.772 -0.1001  0.0125 -0.2905
  129POPC   C3A 1976   4.003   7.426   6.557  0.0257  0.1306 -0.3189
  129POPC   C4A 1977   3.646   7.383   6.424  0.1366  0.0897  0.1880
  129POPC   C1B 1978   4.757   7.306   7.108 -0.2077 -0.3719 -0.2643
  129POPC   C2B 1979   4.792   7.703   6.796  0.1762 -0.1728 -0.1137
  129POPC   C3B 1980   4.561   7.984   6.468  0.0169  0.0176 -0.5479
  129POPC   C4B 1981   4.342   8.357   6.315 -0.0736  0.1803  0.2219
  130POPC   NC3 1982   5.468   2.970   8.951  0.0108 -0.0244  0.1300
  130POPC   PO4 1983   5.573   3.083   8.535  0.3557 -0.0843 -0.0951
  130POPC   GL1 1984   5.444   3.096   8.099 -0.1546  0.2062  0.3477
  130POPC   GL2 1985   5.362   2.798   7.976 -0.0414  0.0608 -0.1508
  130POPC   C1A 1986   5.710   2.975   7.576  0.0467 -0.1354 -0.0069
  130POPC   D2A 1987   5.704   2.810   7.215  0.2215 -0.1210  0.1664
  130POPC   C3A 1988   5.428   2.462   7.252  0.0007  0.1818 -0.2407
  130POPC   C4A 1989   5.127   2.278   7.345  0.0128  0.2271  0.2883
  130POPC   C1B 1990   5.238   2.788   7.544  0.1489 -0.0733  0.3125
  130POPC   C2B 1991   5.066   2.827   7.131  0.0019 -0.1178  0.0512
  130POPC   C3B 1992   5.049   2.882   6.595 -0.1075 -0.0513 -0.2091
  130POPC   C4B 1993   5.130   3.106   6.361  0.0315  0.2870 -0.2817
  131POPC   NC3 1994   9.450   8.017   9.644  0.2376 -0.0975 -0.0338
  131POPC   PO4 1995   9.109   8.380   9.670  0.1188  0.3608 -0.1969
  131POPC   GL1 1996   9.180   8.515   9.215  0.2979 -0.2031  0.1386
  131POPC   GL2 1997   9.070   8.499   8.910  0.2066  0.0330  0.0620
  131POPC   C1A 1998   9.496   8.844   9.090  0.1418  0.0135 -0.0243
  131POPC   D2A 1999   9.613   8.962   8.687  0.1463  0.3194  0.1054
  131POPC   C3A 2000   9.385   9.306   8.497  0.1739  0.1239 -0.0450
  131POPC   C4A 2001   9.075   9.517   8.600 -0.0433 -0.1392 -0.2827
  131POPC   C1B 2002   9.293   8.595   8.514 -0.0446 -0.0731  0.3432
  131POPC   C2B 2003   9.693   8.516   8.375  0.0853  0.0552 -0.1643
  131POPC   C3B 2004   9.851   8.598   7.907  0.0611  0.0491 -0.4250
  131POPC   C4B 2005   9.741   8.705   7.459  0.0581  0.1136 -0.1365
  132POPC   NC3 2006   1.228   4.013   8.284 -0.0664  0.3589 -0.0337
  132POPC   PO4 2007   0.923   4.301   8.362 -0.0845 -0.0195  0.1143
  132POPC   GL1 2008   0.879   4.185   7.894 -0.1398  0.0537  0.0274
  132POPC   GL2 2009   0.882   4.458   7.762 -0.0739  0.0342 -0.0984
  132POPC   C1A 2010   0.786   3.879   7.645 -0.2962  0.2745 -0.0873
  132POPC   D2A 2011   0.937   3.646   7.372 -0.1209 -0.2146  0.1011
  132POPC   C3A 2012   0.702   3.506   7.044  0.1198 -0.5760  0.0034
  132POPC   C4A 2013   0.466   3.154   6.790 -0.1173 -0.1084 -0.1851
  132POPC   C1B 2014   0.764   4.380   7.260 -0.1280 -0.3990  0.0361
  132POPC   C2B 2015   0.738   4.029   7.029  0.0960 -0.1619 -0.0560
  132POPC   C3B 2016   1.055   3.763   6.847  0.0165 -0.2110 -0.0691
  132POPC   C4B 2017   1.133   3.485   6.397  0.1125  0.1496 -0.0202
  133POPC   NC3 2018   6.232   7.108   8.361  0.0394  0.1627 -0.2246
  133POPC   PO4 2019   6.592   7.239   8.421  0.4276  0.0267 -0.0021
  133POPC   GL1 2020   6.704   7.612   8.070 -0.0366  0.0842  0.0861
  133POPC   GL2 2021   7.013   7.566   7.905 -0.0206 -0.0267  0.0931
  133POPC   C1A 2022   6.569   7.814   7.726  0.3426 -0.0261  0.0993
  133POPC   D2A 2023   6.395   8.186   7.683  0.2429 -0.0060 -0.2552
  133POPC   C3A 2024   6.593   8.491   7.334  0.0006  0.1319  0.0106
  133POPC   C4A 2025   6.591   8.913   7.646 -0.1686 -0.2295 -0.2773
  133POPC   C1B 2026   7.205   7.671   7.473  0.1037 -0.1866  0.0748
  133POPC   C2B 2027   6.985   7.836   7.107  0.0386 -0.2005  0.3623
  133POPC   C3B 2028   6.661   8.005   7.123 -0.1162 -0.0649 -0.0300
  133POPC   C4B 2029   6.445   8.369   6.906  0.1598  0.0169  0.2208
  134POPC   NC3 2030   9.451   4.557   8.610  0.0724  0.0235 -0.1908
  134POPC   PO4 2031   9.132   4.317   8.354 -0.1955  0.2917  0.0367
  134POPC   GL1 2032   9.231   4.314   7.945 -0.0150  0.0758  0.1767
  134POPC   GL2 2033   9.064   4.579   7.910 -0.2997  0.1191  0.0047
  134POPC   C1A 2034   9.467   4.306   7.673 -0.0655 -0.0584 -0.2993
  134POPC   D2A 2035   9.485   4.032   7.270  0.2041 -0.1357 -0.3523
  134POPC   C3A 2036   9.715   3.737   7.197 -0.0122  0.0907  0.1669
  134POPC   C4A 2037   9.846   3.491   6.788 -0.0678 -0.0893 -0.4144
  134POPC   C1B 2038   8.921   4.259   7.479 -0.1195 -0.4547 -0.0610
  134POPC   C2B 2039   8.935   4.226   7.091  0.1119  0.0458 -0.0643
  134POPC   C3B 2040   8.886   4.312   6.737  0.0208  0.1296  0.3435
  134POPC   C4B 2041   9.128   4.508   6.361  0.2297 -0.2770  0.0313
  135POPC   NC3 2042   0.437   8.808   9.396  0.1327  0.4553  0.0049
  135POPC   PO4 2043   0.222   8.442   9.050  0.1522  0.1548 -0.1794
  135POPC   GL1 2044   0.128   8.203   8.589 -0.3963 -0.1928  0.2080
  135POPC   GL2 2045   0.123   7.941   8.487  0.0736 -0.2254 -0.1580
  135POPC   C1A 2046   0.235   8.455   8.236  0.0291 -0.1660 -0.1051
  135POPC   D2A 2047   0.350   8.724   7.961 -0.0161 -0.0835  0.0932
  135POPC   C3A 2048   0.229   8.848   7.591 -0.2691 -0.1138 -0.1065
  135POPC   C4A 2049   0.156   8.929   7.193 -0.1149 -0.0023 -0.0096
  135POPC   C1B 2050  -0.201   8.109   8.100 -0.0236 -0.0583  0.0743
  135POPC   C2B 2051  -0.219   8.216   7.639 -0.0759  0.1419 -0.0607
  135POPC   C3B 2052  -0.376   8.241   7.183  0.0718  0.0632  0.0288
  135POPC   C4B 2053  -0.781   8.362   6.981 -0.0032  0.1529  0.0163
  136POPC   NC3 2054   7.452   3.103   8.813  0.0792  0.2375 -0.1952
  136POPC   PO4 2055   7.860   3.377   8.872  0.1080  0.0668 -0.0644
  136POPC   GL1 2056   8.169   3.403   8.667 -0.0541  0.2623  0.1117
  136POPC   GL2 2057   8.161   3.391   8.364  0.0140 -0.0562 -0.0670
  136POPC   C1A 2058   8.615   3.159   8.480  0.1442  0.0687  0.0985
  136POPC   D2A 2059   8.661   2.767   8.443  0.1381 -0.0039 -0.0753
  136POPC   C3A 2060   8.518   2.520   8.231 -0.0967  0.1076  0.2136
  136POPC   C4A 2061   8.389   2.201   7.890  0.1296 -0.1851 -0.1402
  136POPC   C1B 2062   8.295   3.099   8.123 -0.3035  0.0082 -0.0355
  136POPC   C2B 2063   8.655   2.910   7.888  0.0877 -0.0700 -0.0335
  136POPC   C3B 2064   9.021   2.661   7.742 -0.0165  0.0162 -0.1531
  136POPC   C4B 2065   9.351   2.549   7.474 -0.0991  0.3856  0.1227
  137POPC   NC3 2066   5.931   7.978   8.493  0.1169  0.1455 -0.0130
  137POPC   PO4 2067   6.073   7.583   8.421 -0.0434  0.2837 -0.1088
  137POPC   GL1 2068   5.955   7.469   8.096 -0.4542 -0.1156 -0.2661
  137POPC   GL2 2069   5.854   7.651   7.918 -0.0533 -0.1413 -0.1220
  137POPC   C1A 2070   6.234   7.451   7.747  0.0049 -0.0604  0.0232
  137POPC   D2A 2071   6.218   7.393   7.263  0.2060 -0.0851  0.1420
  137POPC   C3A 2072   6.144   7.664   6.986 -0.0678 -0.1952  0.3297
  137POPC   C4A 2073   6.314   7.949   6.627 -0.1238  0.0323  0.0476
  137POPC   C1B 2074   5.975   7.810   7.473  0.1147  0.1762  0.1204
  137POPC   C2B 2075   6.134   8.176   7.295  0.0183  0.1554 -0.2909
  137POPC   C3B 2076   5.850   8.528   7.214 -0.4020  0.2654 -0.1796
  137POPC   C4B 2077   5.710   8.637   6.799  0.0147  0.1826  0.1255
  138POPC   NC3 2078   0.018   7.092   8.418  0.2861 -0.0750  0.0695
  138POPC   PO4 2079   0.309   6.787   8.426  0.2525  0.1018  0.1960
  138POPC   GL1 2080   0.128   6.900   8.007  0.0694  0.0475 -0.1294
  138POPC   GL2 2081  -0.217   6.897   7.973  0.1459  0.0558  0.2120
  138POPC   C1A 2082   0.284   7.017   7.559 -0.0441  0.1174  0.1684
  138POPC   D2A 2083   0.393   7.391   7.263 -0.2182  0.0399  0.1003
  138POPC   C3A 2084   0.542   7.300   6.892 -0.1127 -0.0659  0.0246
  138POPC   C4A 2085   0.534   7.154   6.474 -0.1462  0.0658 -0.0224
  138POPC   C1B 2086  -0.263   7.106   7.611 -0.0822 -0.1454 -0.0721
  138POPC   C2B 2087  -0.149   7.481   7.436 -0.1761  0.0490 -0.0149
  138POPC   C3B 2088  -0.235   7.802   7.007  0.1051 -0.2517  0.0446
  138POPC   C4B 2089   0.004   7.949   6.657 -0.1703  0.0170 -0.0978
  139POPC   NC3 2090   0.996   5.550   8.103 -0.0801  0.2913 -0.0040
  139POPC   PO4 2091   1.199   5.146   8.293 -0.2150  0.0063  0.1299
  139POPC   GL1 2092   1.284   5.091   7.867 -0.2415  0.1011  0.1135
  139POPC   GL2 2093   1.156   5.324   7.593  0.1832  0.3485  0.1631
  139POPC   C1A 2094   1.556   5.015   7.441 -0.1909  0.0091 -0.0128
  139POPC   D2A 2095   2.032   5.027   7.359  0.1240  0.2385 -0.1279
  139POPC   C3A 2096   2.228   5.105   6.998 -0.0420 -0.2884  0.0467
  139POPC   C4A 2097   2.290   5.412   6.674 -0.1210  0.0990 -0.0447
  139POPC   C1B 2098   0.721   5.460   7.394 -0.5789 -0.2007 -0.1291
  139POPC   C2B 2099   0.536   5.440   7.063  0.0730  0.0548 -0.4062
  139POPC   C3B 2100   0.233   5.316   6.806  0.3144 -0.1326  0.1168
  139POPC   C4B 2101  -0.218   5.212   6.624 -0.0109 -0.3622  0.3199
  140POPC   NC3 2102   2.499   2.788   8.643  0.2008 -0.1253 -0.0984
  140POPC   PO4 2103   2.145   2.994   8.916  0.1899  0.0569  0.0023
  140POPC   GL1 2104   2.026   2.877   8.434 -0.1040 -0.2551  0.1493
  140POPC   GL2 2105   2.148   2.534   8.330 -0.1265  0.0677 -0.2551
  140POPC   C1A 2106   2.196   3.020   7.995  0.1195  0.3144 -0.0629
  140POPC   D2A 2107   2.145   2.993   7.557  0.1555  0.0760  0.1544
  140POPC   C3A 2108   1.805   3.070   7.221  0.4454 -0.3032  0.0576
  140POPC   C4A 2109   1.608   3.009   6.760  0.2880 -0.0362 -0.0967
  140POPC   C1B 2110   2.322   2.542   8.009 -0.2606 -0.0267 -0.1430
  140POPC   C2B 2111   2.304   2.472   7.588  0.0761  0.3096 -0.0099
  140POPC   C3B 2112   2.302   2.376   7.168 -0.0696  0.0391 -0.0886
  140POPC   C4B 2113   1.968   2.435   7.053  0.0896  0.2471 -0.0168
  141POPC   NC3 2114   1.825   5.779   8.125 -0.2357 -0.1735 -0.1252
  141POPC   PO4 2115   2.138   6.062   8.358  0.1330 -0.1490 -0.1503
  141POPC   GL1 2116   2.355   6.057   8.000  0.0477  0.3781  0.0288
  141POPC   GL2 2117   2.677   5.754   8.034 -0.3939  0.1305  0.1290
  141POPC   C1A 2118   2.318   6.406   7.667 -0.3441  0.0553 -0.2960
  141POPC   D2A 2119   2.388   6.196   7.336 -0.2745 -0.3191  0.1176
  141POPC   C3A 2120   2.396   6.305   6.858  0.0447 -0.1743 -0.0465
  141POPC   C4A 2121   2.666   6.469   6.623 -0.2655 -0.0274 -0.0503
  141POPC   C1B 2122   2.586   5.864   7.643  0.0894 -0.2978 -0.0647
  141POPC   C2B 2123   2.793   5.882   7.217 -0.2887 -0.0312 -0.1147
  141POPC   C3B 2124   2.753   5.934   6.784  0.0999 -0.2158 -0.2349
  141POPC   C4B 2125   2.417   5.914   6.543 -0.0720 -0.1002  0.0268
  142POPC   NC3 2126   4.438   9.711   8.494 -0.3317  0.1508  0.0766
  142POPC   PO4 2127   4.219  10.131   8.483 -0.0452 -0.0245 -0.3241
  142POPC   GL1 2128   4.063  10.342   8.199  0.2650 -0.1787 -0.1763
  142POPC   GL2 2129   4.162  10.599   8.166 -0.0383  0.0518 -0.0056
  142POPC   C1A 2130   4.027  10.336   7.796 -0.1836 -0.2262  0.0331
  142POPC   D2A 2131   4.078   9.953   7.534  0.0163 -0.0456 -0.0373
  142POPC   C3A 2132   4.249  10.008   7.077 -0.0483 -0.1181 -0.0624
  142POPC   C4A 2133   4.159  10.230   6.814 -0.1811 -0.0967  0.0827
  142POPC   C1B 2134   4.461  10.857   7.887  0.0407  0.2296  0.1004
  142POPC   C2B 2135   4.213  10.795   7.568 -0.0060  0.1352  0.0291
  142POPC   C3B 2136   3.885  10.882   7.267  0.1196  0.2401 -0.1870
  142POPC   C4B 2137   3.871  10.666   6.919  0.3665  0.0643  0.4126
  143POPC   NC3 2138   9.291   3.828   9.046  0.1715  0.0911 -0.0650
  143POPC   PO4 2139   9.461   4.067   8.772  0.5368 -0.0538  0.2668
  143POPC   GL1 2140   9.620   3.643   8.605  0.0778  0.0942 -0.2261
  143POPC   GL2 2141   9.660   3.727   8.351  0.1872 -0.0573  0.0702
  143POPC   C1A 2142   9.562   3.179   8.380 -0.0923 -0.0171 -0.0687
  143POPC   D2A 2143   9.482   2.892   8.010 -0.1298 -0.2216 -0.2660
  143POPC   C3A 2144   9.309   3.078   7.683 -0.4081  0.0459 -0.0832
  143POPC   C4A 2145   9.331   3.512   7.424  0.0525 -0.0993 -0.0431
  143POPC   C1B 2146   9.819   3.466   8.001  0.0233  0.2241  0.1518
  143POPC   C2B 2147   9.842   3.281   7.585  0.1075 -0.2052  0.1965
  143POPC   C3B 2148   9.723   3.164   7.208  0.4416 -0.1766  0.1091
  143POPC   C4B 2149   9.701   2.927   6.894  0.0246 -0.0605 -0.2074
  144POPC   NC3 2150   4.203   1.001   9.158  0.5373  0.4052 -0.0358
  144POPC   PO4 2151   3.724   0.773   9.013  0.3157  0.0788 -0.1011
  144POPC   GL1 2152   3.796   0.700   8.550  0.3854  0.0656 -0.2355
  144POPC   GL2 2153   3.424   0.688   8.465  0.0567 -0.0993  0.4347
  144POPC   C1A 2154   3.769   0.989   8.183 -0.0687 -0.0479 -0.2627
  144POPC   D2A 2155   3.771   0.893   7.773  0.2844  0.1225  0.2642
  144POPC   C3A 2156   3.447   1.132   7.600 -0.0531 -0.0537  0.1712
  144POPC   C4A 2157   3.441   1.391   7.188  0.2267 -0.1309 -0.1493
  144POPC   C1B 2158   3.571   0.542   8.137  0.0749  0.1448  0.3107
  144POPC   C2B 2159   3.558   0.390   7.765 -0.2367  0.3003  0.0634
  144POPC   C3B 2160   3.390   0.576   7.321 -0.1931  0.0444  0.0412
  144POPC   C4B 2161   3.395   0.832   7.051  0.1042  0.0750  0.0719
  145POPC   NC3 2162   7.592   4.517   8.291  0.0521 -0.1797 -0.1120
  145POPC   PO4 2163   7.901   4.742   8.438 -0.0798  0.0645 -0.0035
  145POPC   GL1 2164   7.783   4.909   7.983 -0.1117  0.0726 -0.1672
  145POPC   GL2 2165   7.987   4.644   7.861 -0.2915  0.1840 -0.1911
  145POPC   C1A 2166   7.923   5.024   7.536  0.4914 -0.0091  0.1201
  145POPC   D2A 2167   8.157   5.000   7.079 -0.3042  0.2190  0.1220
  145POPC   C3A 2168   8.084   4.551   6.837  0.4012  0.0133 -0.3380
  145POPC   C4A 2169   8.333   4.285   6.643  0.0108  0.0242 -0.3092
  145POPC   C1B 2170   8.194   4.635   7.429  0.0504 -0.0316  0.0543
  145POPC   C2B 2171   8.357   4.322   7.179 -0.0815  0.1451  0.1081
  145POPC   C3B 2172   8.520   3.942   7.180  0.2182  0.0570 -0.0815
  145POPC   C4B 2173   8.541   3.607   6.787  0.2975  0.0112  0.0452
  146POPC   NC3 2174   3.866   6.673   8.407 -0.1974  0.0753 -0.0723
  146POPC   PO4 2175   3.430   6.590   8.195 -0.0515 -0.0827  0.1302
  146POPC   GL1 2176   3.509   6.662   7.812  0.5135  0.1776  0.3252
  146POPC   GL2 2177   3.310   6.717   7.704  0.3412  0.2967  0.3047
  146POPC   C1A 2178   3.676   6.845   7.415  0.0142 -0.0139 -0.0083
  146POPC   D2A 2179   3.964   7.145   7.185 -0.3793  0.0042 -0.0954
  146POPC   C3A 2180   4.180   7.073   6.861  0.2670  0.2879  0.0830
  146POPC   C4A 2181   4.562   7.051   6.732 -0.0899 -0.1006  0.1065
  146POPC   C1B 2182   3.269   6.581   7.190  0.0940 -0.0998 -0.0486
  146POPC   C2B 2183   3.214   6.704   6.752  0.2907  0.0622  0.0035
  146POPC   C3B 2184   3.526   6.912   6.521  0.1090 -0.2552  0.1237
  146POPC   C4B 2185   3.564   6.980   6.142 -0.0249  0.2976 -0.3697
  147POPC   NC3 2186   3.761   1.947   8.649  0.0713  0.0783 -0.2283
  147POPC   PO4 2187   3.377   1.744   8.665 -0.0204 -0.1528 -0.0502
  147POPC   GL1 2188   3.238   1.767   8.245  0.0456 -0.0010 -0.0440
  147POPC   GL2 2189   3.108   2.076   7.989  0.0533 -0.0100 -0.1140
  147POPC   C1A 2190   3.272   1.538   7.908 -0.1000  0.1831 -0.2921
  147POPC   D2A 2191   3.137   1.512   7.580 -0.1843 -0.1535  0.1146
  147POPC   C3A 2192   2.699   1.439   7.375 -0.0000 -0.0903 -0.1997
  147POPC   C4A 2193   2.422   1.142   7.254 -0.0457 -0.0796  0.1627
  147POPC   C1B 2194   3.405   2.029   7.648 -0.2709  0.0668  0.0906
  147POPC   C2B 2195   3.527   1.863   7.194  0.1681 -0.1402 -0.1902
  147POPC   C3B 2196   3.555   1.744   6.802 -0.1346 -0.1069 -0.0601
  147POPC   C4B 2197   3.734   1.911   6.397 -0.4784 -0.2085  0.1882
  148POPC   NC3 2198   9.762   2.499   9.405 -0.2096  0.0479 -0.0125
  148POPC   PO4 2199  10.258   2.455   9.263  0.0054 -0.1874 -0.1286
  148POPC   GL1 2200  10.033   2.222   8.993 -0.0464 -0.0721  0.0278
  148POPC   GL2 2201   9.733   1.963   8.935 -0.2709  0.0133 -0.2024
  148POPC   C1A 2202  10.081   2.147   8.567 -0.0795  0.0800  0.5372
  148POPC   D2A 2203  10.343   2.267   8.117  0.2071  0.1211  0.1190
  148POPC   C3A 2204  10.148   2.432   7.699 -0.0659 -0.1679 -0.2584
  148POPC   C4A 2205   9.832   2.732   7.561 -0.4031 -0.5526 -0.2746
  148POPC   C1B 2206   9.591   1.583   8.650 -0.0258 -0.1752 -0.2380
  148POPC   C2B 2207   9.733   1.119   8.482  0.0129 -0.0199 -0.1575
  148POPC   C3B 2208   9.885   0.685   8.502  0.0884 -0.1735  0.2522
  148POPC   C4B 2209  10.087   0.367   8.743 -0.0068 -0.0600  0.1842
  149POPC   NC3 2210   8.570   8.096   8.982  0.0550  0.0116  0.1674
  149POPC   PO4 2211   8.937   7.875   8.922 -0.2017 -0.0413  0.2493
  149POPC   GL1 2212   9.008   8.055   8.536 -0.1799  0.1392 -0.2388
  149POPC   GL2 2213   8.741   8.041   8.385  0.3341 -0.1523  0.2854
  149POPC   C1A 2214   9.267   8.192   8.143 -0.1966  0.4325 -0.0485
  149POPC   D2A 2215   9.223   8.651   8.044 -0.2266 -0.0552 -0.1270
  149POPC   C3A 2216   9.559   8.931   8.104 -0.1752 -0.2170  0.1018
  149POPC   C4A 2217   9.952   9.088   7.968  0.0161 -0.1420 -0.0717
  149POPC   C1B 2218   8.835   8.286   7.953 -0.1475 -0.0727  0.1155
  149POPC   C2B 2219   8.679   8.582   7.739  0.1328  0.2686 -0.2271
  149POPC   C3B 2220   8.556   8.835   7.413  0.0156  0.1051 -0.1533
  149POPC   C4B 2221   8.366   8.926   7.003 -0.1659 -0.1043  0.3201
  150POPC   NC3 2222   3.529   0.382   4.645 -0.2366  0.0668  0.1818
  150POPC   PO4 2223   3.474   0.042   4.778  0.3968  0.2286 -0.1372
  150POPC   GL1 2224   3.453  -0.019   5.241  0.1750  0.2022 -0.0999
  150POPC   GL2 2225   3.753  -0.131   5.361 -0.1905  0.0721  0.0218
  150POPC   C1A 2226   3.226   0.197   5.619  0.2742 -0.0655 -0.0564
  150POPC   D2A 2227   2.977   0.500   5.673  0.1630 -0.0907  0.0284
  150POPC   C3A 2228   2.754   0.584   5.997  0.1925  0.0377 -0.0467
  150POPC   C4A 2229   2.475   0.681   6.346 -0.1712  0.1358  0.0472
  150POPC   C1B 2230   3.627   0.141   5.874 -0.0189  0.0499 -0.3004
  150POPC   C2B 2231   3.860   0.082   6.217 -0.3316  0.1226 -0.1895
  150POPC   C3B 2232   3.821  -0.174   6.556  0.4020 -0.1881  0.0351
  150POPC   C4B 2233   3.761  -0.038   7.032 -0.1501  0.0055 -0.3655
  151POPC   NC3 2234   8.863   9.166   3.374  0.1043  0.1718 -0.0428
  151POPC   PO4 2235   9.114   9.320   3.650 -0.2130  0.4048 -0.0366
  151POPC   GL1 2236   8.943   9.379   4.056 -0.0866 -0.0418  0.1667
  151POPC   GL2 2237   9.056   9.133   4.206  0.0843 -0.4148  0.0067
  151POPC   C1A 2238   8.768   9.638   4.452 -0.0748 -0.0303  0.0392
  151POPC   D2A 2239   8.688  10.096   4.524  0.0948 -0.2062  0.1285
  151POPC   C3A 2240   9.002  10.347   4.650 -0.1081 -0.3644 -0.0871
  151POPC   C4A 2241   8.874  10.797   4.872  0.1523 -0.0959  0.0341
  151POPC   C1B 2242   8.968   8.960   4.620 -0.2461  0.0040 -0.0893
  151POPC   C2B 2243   8.642   8.876   4.831 -0.0417 -0.0726 -0.0827
  151POPC   C3B 2244   8.267   8.774   4.971  0.1969 -0.0449 -0.0221
  151POPC   C4B 2245   7.838   8.721   5.016 -0.0174  0.1338 -0.0949
  152POPC   NC3 2246   7.617   9.223   3.718  0.2224  0.0372 -0.0818
  152POPC   PO4 2247   7.617   9.184   4.115 -0.2792 -0.0760 -0.0385
  152POPC   GL1 2248   7.623   9.464   4.540 -0.0067  0.4715  0.0974
  152POPC   GL2 2249   7.288   9.525   4.825 -0.2016  0.1464  0.0782
  152POPC   C1A 2250   7.708   9.843   4.670  0.0583 -0.0840  0.0631
  152POPC   D2A 2251   7.436  10.284   4.714 -0.0535 -0.2029 -0.1237
  152POPC   C3A 2252   7.032  10.279   4.640 -0.0380  0.2255  0.0027
  152POPC   C4A 2253   6.931   9.872   4.837 -0.1736  0.1259  0.2515
  152POPC   C1B 2254   7.655   9.580   5.093 -0.1620 -0.1795  0.1352
  152POPC   C2B 2255   7.834   9.475   5.530  0.0644 -0.0213 -0.1566
  152POPC   C3B 2256   8.086   9.525   5.879  0.2262 -0.2744 -0.0883
  152POPC   C4B 2257   8.438   9.637   6.089  0.0245  0.2658  0.0993
  153POPC   NC3 2258   2.045   8.964   4.236  0.3563  0.0920  0.2056
  153POPC   PO4 2259   2.148   9.035   4.734 -0.1138 -0.1171  0.1430
  153POPC   GL1 2260   2.045   9.361   5.079  0.2273  0.2979  0.1424
  153POPC   GL2 2261   1.993   9.750   5.201 -0.0072 -0.2262 -0.1288
  153POPC   C1A 2262   1.975   9.317   5.524  0.1915  0.0250  0.0702
  153POPC   D2A 2263   2.046   9.145   5.929  0.3365 -0.0317  0.0981
  153POPC   C3A 2264   2.010   9.154   6.395  0.4501 -0.0233 -0.0949
  153POPC   C4A 2265   1.845   9.480   6.582 -0.0361  0.4368  0.0607
  153POPC   C1B 2266   1.831   9.753   5.547  0.0482  0.0488  0.1099
  153POPC   C2B 2267   1.799   9.566   5.869 -0.3082 -0.1143 -0.0236
  153POPC   C3B 2268   1.564   9.226   6.189  0.2601 -0.1130  0.2464
  153POPC   C4B 2269   1.417   9.074   6.570  0.0186  0.0490  0.0668
  154POPC   NC3 2270   4.370   1.938   4.856 -0.2189 -0.0537  0.1236
  154POPC   PO4 2271   4.158   1.738   5.123  0.1451 -0.1532  0.1476
  154POPC   GL1 2272   4.429   2.026   5.370 -0.1336  0.0363  0.0908
  154POPC   GL2 2273   4.313   2.317   5.354  0.2002  0.1110  0.2861
  154POPC   C1A 2274   4.237   2.080   5.797  0.1343 -0.0784  0.0675
  154POPC   D2A 2275   4.150   2.140   6.249 -0.1674 -0.0905  0.2532
  154POPC   C3A 2276   4.243   2.459   6.504 -0.1230 -0.1428  0.0066
  154POPC   C4A 2277   4.044   2.646   6.941  0.2790 -0.2067 -0.0900
  154POPC   C1B 2278   4.393   2.590   5.464 -0.3183 -0.0940  0.1363
  154POPC   C2B 2279   4.503   2.928   5.775 -0.1755 -0.1068  0.3046
  154POPC   C3B 2280   4.701   3.172   6.046  0.0096  0.0294 -0.0278
  154POPC   C4B 2281   4.715   3.552   6.202  0.1120  0.1087 -0.0059
  155POPC   NC3 2282   5.046   3.169   4.430  0.0661  0.0382 -0.1764
  155POPC   PO4 2283   5.202   2.842   4.470  0.0081  0.0167  0.1280
  155POPC   GL1 2284   5.189   2.955   4.894 -0.0499  0.1214 -0.0963
  155POPC   GL2 2285   5.364   2.686   5.015  0.2562  0.0063  0.0262
  155POPC   C1A 2286   4.865   3.094   5.192 -0.0696 -0.1553  0.1202
  155POPC   D2A 2287   4.801   3.394   5.553  0.1340  0.1093 -0.0437
  155POPC   C3A 2288   4.607   3.775   5.689  0.3976 -0.2088  0.1525
  155POPC   C4A 2289   4.438   4.130   5.653 -0.0542  0.1472  0.1534
  155POPC   C1B 2290   5.306   2.416   5.478  0.3278  0.1500  0.2552
  155POPC   C2B 2291   5.206   2.241   5.990  0.2747 -0.0974  0.1323
  155POPC   C3B 2292   5.062   2.362   6.361  0.1645  0.1100 -0.0345
  155POPC   C4B 2293   4.737   2.356   6.589  0.0323  0.2207 -0.0428
  156POPC   NC3 2294   7.065   7.161   4.834  0.4296  0.0754  0.2381
  156POPC   PO4 2295   6.635   7.058   4.638  0.0637  0.0040  0.2910
  156POPC   GL1 2296   6.690   6.965   5.110 -0.0260 -0.0127 -0.1029
  156POPC   GL2 2297   6.506   6.718   5.171 -0.2657  0.0891  0.1000
  156POPC   C1A 2298   6.516   7.099   5.511  0.1165 -0.0489  0.0515
  156POPC   D2A 2299   6.211   7.115   5.837 -0.2150 -0.2091  0.2637
  156POPC   C3A 2300   6.009   7.500   5.856 -0.0454 -0.1749 -0.6743
  156POPC   C4A 2301   5.922   7.938   5.701  0.2056 -0.1113  0.6467
  156POPC   C1B 2302   6.307   6.628   5.598 -0.0970  0.0104 -0.0271
  156POPC   C2B 2303   6.391   6.734   6.080 -0.0087 -0.0951 -0.0534
  156POPC   C3B 2304   6.452   7.093   6.398 -0.2842 -0.4153  0.2725
  156POPC   C4B 2305   6.269   7.493   6.367  0.0892  0.2262 -0.1521
  157POPC   NC3 2306   5.370   3.562   4.112 -0.2849  0.0602  0.2214
  157POPC   PO4 2307   5.843   3.435   4.169 -0.0818  0.1040  0.1809
  157POPC   GL1 2308   5.788   3.437   4.570 -0.2234 -0.1960 -0.1675
  157POPC   GL2 2309   5.476   3.391   4.604  0.0378 -0.2538  0.0515
  157POPC   C1A 2310   5.997   3.539   4.910  0.0211  0.1581  0.1538
  157POPC   D2A 2311   5.968   3.449   5.337 -0.0222 -0.1324  0.0671
  157POPC   C3A 2312   6.090   3.083   5.547 -0.0869 -0.2176 -0.4822
  157POPC   C4A 2313   5.955   2.927   6.004  0.0355 -0.1182  0.1802
  157POPC   C1B 2314   5.383   3.405   4.897 -0.0703 -0.4520 -0.1547
  157POPC   C2B 2315   5.619   3.763   5.144  0.3498  0.2490  0.3324
  157POPC   C3B 2316   5.632   4.105   5.371  0.0123  0.1346  0.3394
  157POPC   C4B 2317   5.379   4.312   5.653  0.0504 -0.1742 -0.2993
  158POPC   NC3 2318   6.262   9.019   4.369  0.2744  0.4149  0.0551
  158POPC   PO4 2319   6.602   8.906   4.535 -0.0406 -0.2774  0.1790
  158POPC   GL1 2320   6.436   8.801   5.037  0.0501  0.3626  0.0368
  158POPC   GL2 2321   6.266   8.847   5.257  0.1859  0.0782  0.0055
  158POPC   C1A 2322   6.654   8.589   5.335 -0.1623  0.1155 -0.1920
  158POPC   D2A 2323   6.640   8.509   5.811 -0.1419 -0.2217 -0.1783
  158POPC   C3A 2324   6.880   8.766   6.087  0.1296 -0.0275 -0.3144
  158POPC   C4A 2325   7.228   8.877   6.286  0.0289  0.2847  0.0827
  158POPC   C1B 2326   6.368   9.287   5.418 -0.0217  0.1115  0.0476
  158POPC   C2B 2327   6.328   9.678   5.659  0.2164 -0.1042  0.2130
  158POPC   C3B 2328   6.426  10.008   5.962  0.1977  0.1145  0.0117
  158POPC   C4B 2329   6.314  10.347   6.170 -0.0958  0.2155 -0.0672
  159POPC   NC3 2330   9.104   4.487   4.662 -0.1495 -0.2164  0.0751
  159POPC   PO4 2331   8.735   4.346   4.689  0.2824 -0.0269  0.0612
  159POPC   GL1 2332   8.851   4.386   5.148  0.2121 -0.2779  0.0562
  159POPC   GL2 2333   9.107   4.353   5.157 -0.0858  0.1441  0.3646
  159POPC   C1A 2334   8.884   4.233   5.536 -0.0433 -0.0582 -0.2326
  159POPC   D2A 2335   9.043   4.025   5.953  0.0247 -0.0933 -0.0533
  159POPC   C3A 2336   9.401   4.135   6.087  0.0452 -0.1636 -0.6030
  159POPC   C4A 2337   9.857   4.275   6.077  0.1413  0.1258 -0.2176
  159POPC   C1B 2338   9.389   4.175   5.331 -0.2025  0.0103 -0.3271
  159POPC   C2B 2339   9.317   3.818   5.582 -0.0517 -0.0448 -0.2973
  159POPC   C3B 2340   9.126   3.574   6.002  0.1486 -0.1037  0.1785
  159POPC   C4B 2341   8.969   3.478   6.465 -0.0973 -0.2865 -0.2609
  160POPC   NC3 2342   2.065   5.175   4.259 -0.0611 -0.0479 -0.2333
  160POPC   PO4 2343   1.818   4.804   4.378  0.3707 -0.1525  0.1759
  160POPC   GL1 2344   1.540   4.681   4.750 -0.1425  0.0970  0.0181
  160POPC   GL2 2345   1.761   4.478   4.836  0.1632  0.2142  0.0297
  160POPC   C1A 2346   1.458   4.684   5.195 -0.4067  0.0544  0.2448
  160POPC   D2A 2347   1.387   4.885   5.594  0.2189  0.0347  0.0826
  160POPC   C3A 2348   1.633   5.024   5.961  0.1559 -0.2138  0.2666
  160POPC   C4A 2349   2.055   5.164   6.226 -0.3723 -0.0153  0.0997
  160POPC   C1B 2350   1.929   4.444   5.221 -0.0312 -0.0482  0.0750
  160POPC   C2B 2351   1.829   4.578   5.701  0.1616  0.2888  0.1341
  160POPC   C3B 2352   2.042   4.619   6.144  0.1726 -0.2003  0.3164
  160POPC   C4B 2353   2.296   4.817   6.493 -0.0750 -0.2142  0.2858
  161POPC   NC3 2354   0.864   9.571   4.085  0.2192  0.1342  0.1511
  161POPC   PO4 2355   0.974   9.216   4.449 -0.5379 -0.2907 -0.0057
  161POPC   GL1 2356   0.705   9.068   4.799 -0.2752  0.1932 -0.1998
  161POPC   GL2 2357   0.801   9.016   5.115  0.2840  0.1984  0.1832
  161POPC   C1A 2358   0.299   9.071   5.006  0.1332 -0.0758 -0.2209
  161POPC   D2A 2359   0.129   9.336   5.228  0.2845  0.0874  0.1293
  161POPC   C3A 2360  -0.051   9.790   5.407  0.1772  0.2049  0.0488
  161POPC   C4A 2361  -0.136   9.884   5.893 -0.2400  0.0746  0.4170
  161POPC   C1B 2362   0.479   8.777   5.280 -0.1569 -0.2812  0.3591
  161POPC   C2B 2363   0.192   8.723   5.617 -0.3693  0.1822 -0.2040
  161POPC   C3B 2364  -0.095   8.514   5.806 -0.0260 -0.0595 -0.2797
  161POPC   C4B 2365  -0.379   8.412   5.656  0.3052 -0.0600 -0.1297
  162POPC   NC3 2366   0.092   9.397   3.994  0.2919  0.1778 -0.1387
  162POPC   PO4 2367   0.420   9.482   3.864  0.0694 -0.2463  0.0291
  162POPC   GL1 2368   0.487   9.363   4.391 -0.2231 -0.4253  0.1339
  162POPC   GL2 2369   0.321   9.130   4.481  0.0624 -0.0424  0.0489
  162POPC   C1A 2370   0.600   9.552   4.752 -0.2851  0.0563  0.2648
  162POPC   D2A 2371   0.620   9.477   5.225 -0.0727 -0.1521 -0.2917
  162POPC   C3A 2372   0.479   9.218   5.556  0.0722  0.1090 -0.0297
  162POPC   C4A 2373   0.557   9.011   5.955  0.4701  0.1368 -0.2718
  162POPC   C1B 2374   0.061   9.396   4.699  0.0039 -0.1161  0.1413
  162POPC   C2B 2375  -0.204   9.638   4.961  0.1044 -0.3773  0.4225
  162POPC   C3B 2376  -0.448   9.991   5.089 -0.4405  0.1041 -0.0838
  162POPC   C4B 2377  -0.345  10.222   5.596 -0.0858  0.0194 -0.1746
  163POPC   NC3 2378   2.094   6.567   4.521  0.0911 -0.0316  0.0523
  163POPC   PO4 2379   1.993   7.019   4.558  0.1220  0.0201  0.0269
  163POPC   GL1 2380   2.018   6.978   5.060  0.1103 -0.0521  0.2114
  163POPC   GL2 2381   2.042   7.223   5.174  0.2226  0.1061  0.0687
  163POPC   C1A 2382   2.221   6.626   5.409 -0.2693 -0.2359 -0.1149
  163POPC   D2A 2383   2.609   6.589   5.575  0.0257 -0.0055  0.0557
  163POPC   C3A 2384   2.601   6.354   5.932  0.0531  0.0832 -0.3392
  163POPC   C4A 2385   2.730   6.108   6.103  0.1539  0.0226 -0.1456
  163POPC   C1B 2386   1.953   7.080   5.599 -0.2200  0.1643  0.1797
  163POPC   C2B 2387   1.736   6.800   5.878  0.0727 -0.2112 -0.0253
  163POPC   C3B 2388   1.871   6.658   6.262 -0.0755 -0.2384 -0.1627
  163POPC   C4B 2389   1.664   6.485   6.637  0.0140  0.0280 -0.2406
  164POPC   NC3 2390   9.835   8.446   4.218  0.2247 -0.2851  0.5223
  164POPC   PO4 2391  10.045   8.576   4.445 -0.3650  0.0993 -0.5710
  164POPC   GL1 2392   9.759   8.977   4.525  0.2234  0.0918 -0.1915
  164POPC   GL2 2393   9.739   9.200   4.332  0.2292 -0.1193 -0.1237
  164POPC   C1A 2394   9.580   9.105   4.942 -0.2579  0.2553 -0.0773
  164POPC   D2A 2395   9.161   8.937   5.210 -0.0567 -0.0879  0.0595
  164POPC   C3A 2396   8.747   9.106   5.269 -0.1198 -0.0001  0.0965
  164POPC   C4A 2397   8.395   9.022   5.426  0.0733  0.0853 -0.2431
  164POPC   C1B 2398   9.399   9.384   4.633  0.1024 -0.1982  0.4203
  164POPC   C2B 2399   9.110   9.390   4.953 -0.0772 -0.0962 -0.1202
  164POPC   C3B 2400   9.092   9.530   5.339  0.4423 -0.1808 -0.1090
  164POPC   C4B 2401   9.276   9.888   5.587  0.0406  0.0475 -0.2394
  165POPC   NC3 2402   2.478   0.260   4.813 -0.3298  0.1273  0.2952
  165POPC   PO4 2403   2.067   0.220   4.868  0.3299  0.0364 -0.0638
  165POPC   GL1 2404   1.714   0.238   5.185  0.0881 -0.3270 -0.3099
  165POPC   GL2 2405   1.849   0.316   5.434  0.2129 -0.2200  0.0084
  165POPC   C1A 2406   1.377   0.195   5.563 -0.1910 -0.2463  0.0853
  165POPC   D2A 2407   1.194   0.212   5.942 -0.0238 -0.0811 -0.3040
  165POPC   C3A 2408   1.184   0.340   6.405  0.1691  0.0498  0.1080
  165POPC   C4A 2409   0.965   0.257   6.802 -0.1861 -0.0846 -0.0301
  165POPC   C1B 2410   1.788   0.117   5.865  0.0585  0.2485  0.2250
  165POPC   C2B 2411   1.532  -0.161   6.209  0.2643  0.1231 -0.0151
  165POPC   C3B 2412   1.426  -0.236   6.620  0.1535  0.1843 -0.1013
  165POPC   C4B 2413   1.114  -0.254   6.928 -0.0355 -0.1735 -0.0581
  166POPC   NC3 2414   5.393   6.311   3.908 -0.0500 -0.0529 -0.4753
  166POPC   PO4 2415   5.507   5.996   4.238  0.3003  0.0754  0.2251
  166POPC   GL1 2416   5.455   6.049   4.714 -0.0528 -0.2080 -0.1087
  166POPC   GL2 2417   5.454   5.735   4.871 -0.0162 -0.0607  0.0730
  166POPC   C1A 2418   5.347   6.256   5.102  0.1408 -0.1541  0.0074
  166POPC   D2A 2419   5.091   6.477   5.354 -0.0098  0.3446  0.0610
  166POPC   C3A 2420   4.885   6.272   5.784 -0.2113  0.0624  0.2342
  166POPC   C4A 2421   4.687   6.157   6.117  0.1898 -0.2247  0.0900
  166POPC   C1B 2422   5.408   5.725   5.355 -0.3656 -0.1042 -0.0449
  166POPC   C2B 2423   5.480   6.041   5.540 -0.4544 -0.1117 -0.0313
  166POPC   C3B 2424   5.435   6.093   5.962 -0.0140 -0.2090 -0.0679
  166POPC   C4B 2425   5.551   6.249   6.267 -0.0535 -0.0566 -0.0521
  167POPC   NC3 2426   8.064   0.896   2.945 -0.1315 -0.2735 -0.0046
  167POPC   PO4 2427   8.571   0.904   2.996  0.1520  0.0860 -0.1208
  167POPC   GL1 2428   8.450   1.102   3.382 -0.0579  0.0360 -0.2309
  167POPC   GL2 2429   8.436   1.411   3.534 -0.0009  0.1157  0.1225
  167POPC   C1A 2430   8.194   0.978   3.718 -0.1209  0.1995 -0.1623
  167POPC   D2A 2431   8.149   0.660   4.126  0.2103 -0.0168 -0.1439
  167POPC   C3A 2432   7.795   0.447   4.254  0.3462 -0.1874 -0.1802
  167POPC   C4A 2433   7.522   0.094   4.247 -0.1092  0.1520  0.1551
  167POPC   C1B 2434   8.229   1.433   3.945  0.0619  0.0415 -0.0548
  167POPC   C2B 2435   8.105   1.144   4.278  0.3587 -0.0565 -0.2609
  167POPC   C3B 2436   8.268   1.041   4.692  0.1826  0.2916 -0.1292
  167POPC   C4B 2437   7.946   1.081   5.041  0.0775 -0.3188  0.2124
  168POPC   NC3 2438   7.181   9.117   4.430  0.0219 -0.0037 -0.0728
  168POPC   PO4 2439   7.140   8.623   4.524  0.3418 -0.3217  0.3410
  168POPC   GL1 2440   7.098   8.913   4.929  0.1080  0.0594  0.0872
  168POPC   GL2 2441   6.919   9.169   4.916 -0.1114  0.3381  0.0723
  168POPC   C1A 2442   7.414   9.117   5.136  0.1275  0.1396 -0.0531
  168POPC   D2A 2443   7.529   9.080   5.479  0.1049 -0.5074  0.2432
  168POPC   C3A 2444   7.234   9.310   5.778 -0.3098  0.0943  0.0680
  168POPC   C4A 2445   7.223   9.645   6.062 -0.3109 -0.3167  0.2616
  168POPC   C1B 2446   7.139   9.517   5.278  0.0105 -0.2176  0.2588
  168POPC   C2B 2447   7.373   9.725   5.545 -0.2403  0.1922 -0.0498
  168POPC   C3B 2448   7.743   9.956   5.490 -0.0961  0.1700  0.0384
  168POPC   C4B 2449   8.234   9.803   5.514  0.0641 -0.3418 -0.3588
  169POPC   NC3 2450   6.590   4.523   4.154 -0.1102  0.0249 -0.2247
  169POPC   PO4 2451   6.846   4.262   4.362 -0.1297  0.0982  0.1319
  169POPC   GL1 2452   6.737   4.114   4.732  0.3370 -0.1397  0.0949
  169POPC   GL2 2453   6.420   3.899   4.753  0.4175 -0.0953  0.3474
  169POPC   C1A 2454   7.108   4.040   5.032 -0.1358 -0.0282 -0.1994
  169POPC   D2A 2455   7.541   3.972   5.298  0.1482 -0.1174  0.2060
  169POPC   C3A 2456   7.552   3.683   5.670 -0.1711 -0.1021  0.0577
  169POPC   C4A 2457   7.339   3.565   6.056  0.2148  0.3034  0.0451
  169POPC   C1B 2458   6.102   3.962   5.110 -0.1556  0.1680 -0.1696
  169POPC   C2B 2459   6.148   4.044   5.482 -0.1483  0.1201  0.3395
  169POPC   C3B 2460   6.502   4.113   5.736  0.1020 -0.0877  0.1203
  169POPC   C4B 2461   6.845   3.829   5.966  0.1714  0.1467  0.2577
  170POPC   NC3 2462   6.422   1.192   3.665 -0.0042 -0.0248 -0.1103
  170POPC   PO4 2463   6.783   1.175   3.450  0.0726  0.0069  0.0815
  170POPC   GL1 2464   7.077   1.003   3.759 -0.2166 -0.1379 -0.0387
  170POPC   GL2 2465   7.462   0.874   3.758  0.2083  0.0403 -0.0879
  170POPC   C1A 2466   7.303   1.266   4.029 -0.0000 -0.0735  0.0433
  170POPC   D2A 2467   7.358   1.553   4.309  0.1354  0.0168 -0.1994
  170POPC   C3A 2468   7.058   1.818   4.470 -0.1833  0.0298  0.2728
  170POPC   C4A 2469   6.810   2.061   4.722  0.0496  0.1030  0.1613
  170POPC   C1B 2470   7.685   0.976   4.150 -0.0929 -0.1433 -0.1111
  170POPC   C2B 2471   7.810   0.869   4.635  0.2006 -0.2587 -0.1421
  170POPC   C3B 2472   7.526   0.847   4.963 -0.0351 -0.0739 -0.3875
  170POPC   C4B 2473   7.142   0.560   5.203  0.0315  0.0999  0.1622
  171POPC   NC3 2474   5.332   8.544   4.852  0.1560  0.0703  0.1988
  171POPC   PO4 2475   5.113   8.154   4.764  0.0789 -0.0645  0.0755
  171POPC   GL1 2476   5.021   8.267   5.151  0.1738  0.4793  0.2182
  171POPC   GL2 2477   4.696   8.207   5.179 -0.1128 -0.0247 -0.2057
  171POPC   C1A 2478   4.914   8.518   5.612  0.0195 -0.0559 -0.0853
  171POPC   D2A 2479   5.263   8.279   5.791  0.0824 -0.4183  0.2169
  171POPC   C3A 2480   5.588   8.254   5.977 -0.1780  0.0553 -0.0618
  171POPC   C4A 2481   5.751   8.192   6.355 -0.0622  0.0125  0.0643
  171POPC   C1B 2482   4.840   7.915   5.515 -0.0052  0.3307 -0.7198
  171POPC   C2B 2483   4.633   7.656   5.760 -0.4596 -0.1700 -0.2091
  171POPC   C3B 2484   4.531   7.215   5.834 -0.1488  0.2922 -0.2612
  171POPC   C4B 2485   4.526   7.086   6.201  0.2746 -0.1115  0.1692
  172POPC   NC3 2486   7.367   3.174   3.947 -0.3536 -0.2379  0.0835
  172POPC   PO4 2487   7.530   3.645   4.133 -0.0907  0.1106  0.0037
  172POPC   GL1 2488   7.518   3.233   4.380  0.1597 -0.1179  0.1797
  172POPC   GL2 2489   7.674   3.234   4.764  0.1852 -0.0294 -0.0146
  172POPC   C1A 2490   7.969   3.061   4.390  0.0102  0.0506 -0.1032
  172POPC   D2A 2491   8.095   2.608   4.469  0.1776  0.0026 -0.1403
  172POPC   C3A 2492   7.730   2.417   4.764 -0.1892  0.1375  0.1476
  172POPC   C4A 2493   7.428   2.389   5.100  0.0770  0.1378 -0.0788
  172POPC   C1B 2494   7.896   2.854   4.899 -0.0154  0.1170 -0.1512
  172POPC   C2B 2495   7.775   2.614   5.322  0.0072  0.0438  0.1171
  172POPC   C3B 2496   7.811   2.717   5.723  0.1510  0.0607 -0.2835
  172POPC   C4B 2497   8.077   2.635   6.070 -0.1508  0.2557  0.0260
  173POPC   NC3 2498   4.696   1.568   5.044  0.2451 -0.1792  0.0663
  173POPC   PO4 2499   4.827   1.965   5.010  0.0793 -0.2426  0.1086
  173POPC   GL1 2500   4.861   2.267   5.253 -0.0470 -0.1838 -0.3365
  173POPC   GL2 2501   4.866   2.592   5.233 -0.0684  0.4229  0.1938
  173POPC   C1A 2502   4.787   2.311   5.690  0.3660 -0.0261 -0.1670
  173POPC   D2A 2503   4.701   2.221   6.053  0.3271 -0.4076  0.2093
  173POPC   C3A 2504   4.500   1.761   6.089 -0.0857 -0.0867  0.1103
  173POPC   C4A 2505   4.535   1.260   6.145  0.1260  0.0638  0.0062
  173POPC   C1B 2506   4.965   2.833   5.633  0.0969 -0.0675 -0.2713
  173POPC   C2B 2507   5.217   2.760   6.045  0.1365  0.0797 -0.0330
  173POPC   C3B 2508   5.543   2.760   6.306  0.1256 -0.1497 -0.0704
  173POPC   C4B 2509   5.793   2.781   6.644 -0.3814 -0.1210 -0.1794
  174POPC   NC3 2510   9.661   4.690   4.436 -0.1454  0.0094 -0.1141
  174POPC   PO4 2511   9.628   4.217   4.404  0.2578 -0.0844 -0.0519
  174POPC   GL1 2512   9.405   3.875   4.747  0.2303 -0.1448  0.3004
  174POPC   GL2 2513   9.041   3.919   4.786 -0.4117 -0.0567  0.0336
  174POPC   C1A 2514   9.383   3.488   5.024  0.2156 -0.0436 -0.2122
  174POPC   D2A 2515   9.477   3.276   5.366  0.0163 -0.3007 -0.4489
  174POPC   C3A 2516   9.141   3.163   5.680  0.2386  0.2367 -0.0044
  174POPC   C4A 2517   8.789   3.156   5.975 -0.1695 -0.0536  0.3461
  174POPC   C1B 2518   8.946   3.873   5.210 -0.1021  0.0622 -0.0562
  174POPC   C2B 2519   8.843   3.722   5.611 -0.1616  0.0158 -0.0870
  174POPC   C3B 2520   8.560   3.728   6.021  0.0455 -0.0434 -0.0785
  174POPC   C4B 2521   8.648   3.920   6.392  0.0167 -0.0834  0.3047
  175POPC   NC3 2522   7.826   4.975   4.264 -0.0172 -0.0723  0.0129
  175POPC   PO4 2523   7.767   4.574   4.436  0.0827 -0.1989  0.1367
  175POPC   GL1 2524   7.988   4.304   4.817 -0.0576  0.2915  0.0673
  175POPC   GL2 2525   8.240   4.354   4.921 -0.0584  0.0516  0.1762
  175POPC   C1A 2526   7.901   4.488   5.254 -0.2356  0.0246  0.1525
  175POPC   D2A 2527   7.934   4.208   5.615  0.0575 -0.0029  0.0711
  175POPC   C3A 2528   7.751   4.511   5.836 -0.2501 -0.0516  0.0945
  175POPC   C4A 2529   7.787   4.917   6.074 -0.0979 -0.0623 -0.4475
  175POPC   C1B 2530   7.995   3.912   5.087  0.6969 -0.1658  0.2934
  175POPC   C2B 2531   8.022   3.745   5.576 -0.1874 -0.2766 -0.2292
  175POPC   C3B 2532   8.056   3.685   6.062 -0.4604  0.0312 -0.0749
  175POPC   C4B 2533   8.143   3.805   6.498  0.1510 -0.1044 -0.1428
  176POPC   NC3 2534   0.429   2.324   3.168 -0.1862 -0.0658 -0.1763
  176POPC   PO4 2535  -0.052   2.296   3.191  0.1477  0.1795 -0.0474
  176POPC   GL1 2536  -0.163   2.294   3.511 -0.0709  0.2610 -0.2043
  176POPC   GL2 2537  -0.098   1.982   3.712  0.0365  0.0847 -0.1329
  176POPC   C1A 2538  -0.141   2.487   3.891  0.1382 -0.1315 -0.0805
  176POPC   D2A 2539  -0.201   2.798   4.184  0.4089 -0.2375 -0.1655
  176POPC   C3A 2540  -0.254   2.625   4.672 -0.1788  0.2146  0.0711
  176POPC   C4A 2541  -0.437   2.490   5.076  0.1075 -0.2171  0.1392
  176POPC   C1B 2542  -0.424   2.072   3.914  0.0582 -0.1465  0.2325
  176POPC   C2B 2543  -0.729   1.804   4.036  0.1780  0.3219  0.1754
  176POPC   C3B 2544  -0.959   1.743   4.392  0.0274  0.0224 -0.0434
  176POPC   C4B 2545  -0.790   1.617   4.774 -0.3422  0.3657  0.3964
  177POPC   NC3 2546   7.859   4.140   4.280 -0.0702  0.0999  0.2121
  177POPC   PO4 2547   7.419   4.154   4.381 -0.0610  0.1556  0.1685
  177POPC   GL1 2548   7.246   4.433   4.635 -0.1955  0.2136  0.0284
  177POPC   GL2 2549   6.969   4.527   4.804 -0.0567 -0.3899  0.1595
  177POPC   C1A 2550   7.420   4.426   5.080 -0.1932 -0.2876  0.5756
  177POPC   D2A 2551   7.249   4.424   5.490 -0.1102 -0.0680 -0.0971
  177POPC   C3A 2552   7.374   4.133   5.825  0.0708 -0.0920  0.3869
  177POPC   C4A 2553   7.703   4.034   6.043  0.1854  0.2458  0.0911
  177POPC   C1B 2554   6.872   4.595   5.178 -0.2414 -0.2902  0.2554
  177POPC   C2B 2555   6.915   4.835   5.582  0.4346 -0.1627  0.2806
  177POPC   C3B 2556   7.118   5.257   5.834  0.2315 -0.0841 -0.2272
  177POPC   C4B 2557   7.477   5.381   6.046 -0.0523 -0.4029  0.0926
  178POPC   NC3 2558   6.969   5.375   4.180  0.0789  0.1300 -0.3627
  178POPC   PO4 2559   7.217   5.371   4.516 -0.1806  0.0710 -0.0364
  178POPC   GL1 2560   7.207   5.232   4.889 -0.1799 -0.3085 -0.0608
  178POPC   GL2 2561   7.101   5.481   5.047  0.2079  0.2730 -0.1200
  178POPC   C1A 2562   7.319   4.891   5.265  0.0748  0.1192  0.0730
  178POPC   D2A 2563   7.463   4.858   5.654 -0.0584 -0.1572  0.0489
  178POPC   C3A 2564   7.272   4.599   5.990  0.1921 -0.1129  0.0972
  178POPC   C4A 2565   7.185   4.212   6.279  0.0351 -0.2782 -0.0350
  178POPC   C1B 2566   6.978   5.646   5.458 -0.0553  0.1017 -0.1440
  178POPC   C2B 2567   6.793   5.804   5.766  0.0379  0.0003  0.1964
  178POPC   C3B 2568   6.839   5.819   6.177 -0.1180 -0.0885 -0.1385
  178POPC   C4B 2569   7.001   5.805   6.580  0.0605 -0.3480 -0.0281
  179POPC   NC3 2570   1.094   7.685   5.102 -0.3014  0.0404  0.1665
  179POPC   PO4 2571   0.954   7.999   4.838 -0.3407 -0.2057 -0.1763
  179POPC   GL1 2572   0.686   8.036   5.140 -0.1394  0.3023 -0.0267
  179POPC   GL2 2573   0.367   8.315   5.089  0.0627  0.1573 -0.1071
  179POPC   C1A 2574   0.640   7.864   5.575  0.0196 -0.2334 -0.1531
  179POPC   D2A 2575   0.963   7.633   5.715 -0.0489  0.1466  0.1461
  179POPC   C3A 2576   1.351   7.805   5.803  0.2269 -0.3835 -0.0099
  179POPC   C4A 2577   1.669   7.814   6.211 -0.1176  0.1889  0.0555
  179POPC   C1B 2578   0.197   8.144   5.523 -0.0984  0.0867  0.1553
  179POPC   C2B 2579   0.244   7.933   5.916 -0.1541  0.2221 -0.1604
  179POPC   C3B 2580   0.364   8.037   6.282 -0.1033 -0.1787  0.1337
  179POPC   C4B 2581   0.379   7.646   6.582  0.0493  0.0350  0.0113
  180POPC   NC3 2582   7.589   1.317   3.440  0.2125 -0.0778 -0.2370
  180POPC   PO4 2583   7.547   1.764   3.273  0.1422 -0.0950  0.0580
  180POPC   GL1 2584   7.816   1.734   3.655  0.3430 -0.2644  0.0421
  180POPC   GL2 2585   7.942   2.021   3.664  0.1891  0.0177 -0.1103
  180POPC   C1A 2586   7.744   1.520   4.061 -0.1981 -0.1790 -0.3170
  180POPC   D2A 2587   7.750   1.358   4.534 -0.2156  0.1032  0.4700
  180POPC   C3A 2588   7.461   1.253   4.734  0.4608 -0.1858 -0.0120
  180POPC   C4A 2589   6.984   1.262   4.643 -0.0040  0.2419  0.1800
  180POPC   C1B 2590   8.138   1.947   3.968  0.0592  0.0796 -0.0871
  180POPC   C2B 2591   8.178   1.720   4.341 -0.0047 -0.2759  0.0876
  180POPC   C3B 2592   8.359   1.536   4.716 -0.1198 -0.0424 -0.1560
  180POPC   C4B 2593   8.183   1.559   5.082  0.2460  0.0242 -0.0566
  181POPC   NC3 2594   5.441   1.114   4.739 -0.2692  0.1724  0.4684
  181POPC   PO4 2595   5.905   1.237   4.511  0.1533 -0.3210  0.0337
  181POPC   GL1 2596   6.027   1.478   4.901 -0.1692 -0.1368  0.0481
  181POPC   GL2 2597   6.014   1.715   4.743  0.0725 -0.2736 -0.0479
  181POPC   C1A 2598   6.165   1.649   5.230 -0.0914 -0.0132 -0.1678
  181POPC   D2A 2599   6.196   1.491   5.633  0.0040  0.0527  0.1924
  181POPC   C3A 2600   6.217   1.713   6.037 -0.0422  0.0492 -0.2423
  181POPC   C4A 2601   6.090   1.924   6.364  0.0171  0.1319 -0.3469
  181POPC   C1B 2602   6.212   2.072   4.957  0.1710 -0.1028  0.2760
  181POPC   C2B 2603   6.273   2.295   5.326  0.2357 -0.0664  0.1652
  181POPC   C3B 2604   6.590   2.405   5.613  0.2785 -0.3326  0.0959
  181POPC   C4B 2605   6.898   2.491   5.861 -0.2782  0.0828  0.0011
  182POPC   NC3 2606   7.239   0.395   3.283  0.0851  0.1286  0.1947
  182POPC   PO4 2607   6.932   0.333   3.626 -0.0505 -0.0972 -0.1475
  182POPC   GL1 2608   7.182   0.341   3.905 -0.2555  0.0765  0.0506
  182POPC   GL2 2609   7.497   0.397   3.789  0.2812  0.0072 -0.0821
  182POPC   C1A 2610   7.290   0.563   4.181 -0.1267 -0.5103 -0.3744
  182POPC   D2A 2611   7.276   0.824   4.544  0.1163 -0.1139 -0.0513
  182POPC   C3A 2612   6.937   0.780   4.790  0.1857  0.5108  0.1830
  182POPC   C4A 2613   6.833   0.943   5.203  0.2329  0.1271 -0.4245
  182POPC   C1B 2614   7.900   0.116   3.834 -0.1470  0.0307  0.2348
  182POPC   C2B 2615   8.015  -0.170   4.112 -0.0375  0.1468  0.0602
  182POPC   C3B 2616   8.104  -0.389   4.568  0.0196  0.2597 -0.0485
  182POPC   C4B 2617   8.148  -0.781   4.687 -0.0074 -0.0615  0.0257
  183POPC   NC3 2618   1.064   5.969   4.902  0.0602  0.2282 -0.0412
  183POPC   PO4 2619   0.773   5.847   5.273  0.0819  0.2193  0.2714
  183POPC   GL1 2620   0.925   6.174   5.551  0.1246  0.0127 -0.3572
  183POPC   GL2 2621   0.645   6.289   5.617 -0.1235  0.2583  0.2503
  183POPC   C1A 2622   0.980   6.246   5.990 -0.0715 -0.2439 -0.2159
  183POPC   D2A 2623   1.023   6.027   6.485 -0.0247  0.0535 -0.0057
  183POPC   C3A 2624   1.195   6.248   6.815 -0.0000  0.0015 -0.0163
  183POPC   C4A 2625   1.304   6.658   6.880 -0.2558  0.0462  0.0914
  183POPC   C1B 2626   0.444   6.493   5.901 -0.1780 -0.0330  0.2370
  183POPC   C2B 2627   0.262   6.685   6.371  0.1751 -0.1313 -0.1121
  183POPC   C3B 2628  -0.035   6.711   6.718  0.1162 -0.1210 -0.2222
  183POPC   C4B 2629  -0.048   6.888   7.068 -0.1415  0.0079  0.0457
  184POPC   NC3 2630   1.794   9.794   3.980 -0.1785 -0.1591 -0.0969
  184POPC   PO4 2631   1.442   9.653   4.238  0.1132  0.0249  0.1789
  184POPC   GL1 2632   1.107   9.709   4.540  0.1639  0.1520 -0.2817
  184POPC   GL2 2633   0.863  10.011   4.462  0.1066 -0.0412 -0.1577
  184POPC   C1A 2634   0.868   9.878   4.938  0.1777  0.0025  0.0860
  184POPC   D2A 2635   0.349   9.848   5.069 -0.0550 -0.0867  0.0425
  184POPC   C3A 2636   0.420   9.886   5.446  0.1228  0.1600 -0.0050
  184POPC   C4A 2637   0.190  10.256   5.630  0.0635 -0.0630 -0.1459
  184POPC   C1B 2638   0.380   9.930   4.399 -0.0601 -0.0422 -0.0210
  184POPC   C2B 2639  -0.045  10.098   4.233  0.1521  0.1025 -0.1760
  184POPC   C3B 2640  -0.459  10.138   4.244 -0.0461  0.2409 -0.1950
  184POPC   C4B 2641  -0.600   9.684   4.129  0.0871  0.1436  0.0243
  185POPC   NC3 2642   6.810   7.496   4.528 -0.0471 -0.0529 -0.1166
  185POPC   PO4 2643   7.180   7.739   4.719 -0.1066  0.1344 -0.0921
  185POPC   GL1 2644   7.224   7.866   5.162 -0.1250  0.1658 -0.3052
  185POPC   GL2 2645   7.397   7.555   5.180 -0.2428 -0.0618 -0.1110
  185POPC   C1A 2646   7.318   7.889   5.583 -0.2047  0.2953  0.1235
  185POPC   D2A 2647   7.123   7.847   5.923 -0.0841 -0.1058  0.0029
  185POPC   C3A 2648   6.818   8.033   5.926  0.2321 -0.0208  0.1618
  185POPC   C4A 2649   6.626   8.228   6.296 -0.3845 -0.4040  0.1501
  185POPC   C1B 2650   7.708   7.599   5.423  0.2473 -0.5921  0.0714
  185POPC   C2B 2651   7.788   7.583   5.829  0.1519  0.2262  0.1775
  185POPC   C3B 2652   7.755   7.839   6.154 -0.2333 -0.0424 -0.2407
  185POPC   C4B 2653   7.861   8.046   6.511  0.0593 -0.1062  0.0004
  186POPC   NC3 2654   2.684   0.391   5.236  0.4272  0.0849 -0.0077
  186POPC   PO4 2655   2.796   0.717   5.034 -0.3316  0.1268 -0.2924
  186POPC   GL1 2656   2.759   1.045   5.268  0.1416 -0.3517  0.1412
  186POPC   GL2 2657   2.418   1.145   5.219  0.1537 -0.0387  0.1248
  186POPC   C1A 2658   2.671   1.029   5.689 -0.0685  0.0797 -0.0142
  186POPC   D2A 2659   2.317   1.039   5.942  0.1399  0.0325 -0.1944
  186POPC   C3A 2660   2.328   1.130   6.332  0.1708 -0.1449 -0.4596
  186POPC   C4A 2661   2.178   0.974   6.817  0.1332  0.2380 -0.2403
  186POPC   C1B 2662   2.152   1.240   5.532 -0.2472  0.0681 -0.1022
  186POPC   C2B 2663   1.953   1.538   5.913  0.0663 -0.0907 -0.1081
  186POPC   C3B 2664   1.927   1.542   6.364 -0.0682 -0.0385  0.1908
  186POPC   C4B 2665   1.658   1.730   6.710  0.2167 -0.0195  0.2323
  187POPC   NC3 2666   9.534   0.484   3.245 -0.1936 -0.0468 -0.3101
  187POPC   PO4 2667   9.723   0.131   3.470  0.2965  0.0827 -0.0824
  187POPC   GL1 2668   9.463   0.397   3.728  0.3649  0.0986 -0.1930
  187POPC   GL2 2669   9.094   0.589   3.641  0.6574 -0.2502 -0.1643
  187POPC   C1A 2670   9.270   0.834   4.049  0.0530 -0.3262  0.0427
  187POPC   D2A 2671   9.057   0.854   4.380 -0.1787  0.1405  0.3174
  187POPC   C3A 2672   9.268   1.017   4.661 -0.0249 -0.0077  0.1570
  187POPC   C4A 2673   9.390   1.138   5.073 -0.0131  0.1549 -0.0436
  187POPC   C1B 2674   8.925   0.999   3.618 -0.0469  0.0208 -0.0393
  187POPC   C2B 2675   8.615   1.135   3.955  0.2477  0.2981  0.1250
  187POPC   C3B 2676   8.614   0.923   4.268  0.0779 -0.1418 -0.0108
  187POPC   C4B 2677   8.606   0.609   4.544 -0.2112 -0.2481  0.1044
  188POPC   NC3 2678   0.622   3.392   3.926 -0.1616  0.0688  0.0675
  188POPC   PO4 2679   1.106   3.267   4.056 -0.0630  0.1667 -0.0746
  188POPC   GL1 2680   1.256   3.336   4.425 -0.0188  0.2283 -0.0455
  188POPC   GL2 2681   1.278   3.130   4.554 -0.1655 -0.1167 -0.0683
  188POPC   C1A 2682   0.937   3.593   4.734  0.0146 -0.1802  0.0620
  188POPC   D2A 2683   0.735   3.595   5.113 -0.1364  0.0359 -0.2915
  188POPC   C3A 2684   0.667   3.273   5.359  0.0660  0.0058  0.1371
  188POPC   C4A 2685   0.540   2.893   5.677  0.1218 -0.0407  0.1888
  188POPC   C1B 2686   1.184   2.812   4.925 -0.0799  0.0528 -0.0668
  188POPC   C2B 2687   0.917   2.813   5.387 -0.2193 -0.1541 -0.2772
  188POPC   C3B 2688   1.028   3.041   5.766 -0.1572  0.0569  0.1915
  188POPC   C4B 2689   1.337   3.310   5.982  0.1331 -0.5541 -0.2192
  189POPC   NC3 2690   0.535   0.085   3.495  0.1903  0.1651 -0.1609
  189POPC   PO4 2691   0.478   0.536   3.579 -0.1870 -0.1183 -0.2188
  189POPC   GL1 2692   0.623   0.559   4.051  0.0377  0.1814  0.0791
  189POPC   GL2 2693   0.401   0.513   4.234 -0.1508 -0.3992 -0.1078
  189POPC   C1A 2694   0.869   0.651   4.373  0.0951  0.0427 -0.0814
  189POPC   D2A 2695   0.787   0.950   4.696 -0.3232 -0.1174  0.0350
  189POPC   C3A 2696   0.856   0.809   5.118  0.2239 -0.0185 -0.0076
  189POPC   C4A 2697   0.548   0.717   5.511  0.0867  0.0235  0.2279
  189POPC   C1B 2698   0.062   0.631   4.586 -0.2126 -0.0007 -0.1061
  189POPC   C2B 2699  -0.183   0.814   4.828  0.1903 -0.0633 -0.0952
  189POPC   C3B 2700  -0.585   0.659   5.038  0.0450 -0.0852 -0.1660
  189POPC   C4B 2701  -0.832   0.355   5.250 -0.1906 -0.0334 -0.1545
  190POPC   NC3 2702   1.827   0.064   4.436 -0.0733 -0.1186  0.0651
  190POPC   PO4 2703   1.856  -0.484   4.524 -0.2913 -0.2693 -0.0173
  190POPC   GL1 2704   1.655  -0.171   4.795 -0.1378  0.0107  0.1521
  190POPC   GL2 2705   1.510  -0.246   5.113 -0.3688  0.0357  0.0357
  190POPC   C1A 2706   1.292   0.140   4.866 -0.0877  0.1200  0.0081
  190POPC   D2A 2707   1.005   0.427   4.800  0.1242  0.0578 -0.2341
  190POPC   C3A 2708   0.579   0.415   4.657 -0.0721 -0.0609  0.0534
  190POPC   C4A 2709   0.375   0.830   4.938 -0.2077 -0.0203 -0.3727
  190POPC   C1B 2710   1.419  -0.319   5.489  0.0904  0.1373  0.0889
  190POPC   C2B 2711   1.235  -0.349   5.873  0.0367  0.0447  0.1141
  190POPC   C3B 2712   0.911  -0.274   6.004  0.2371  0.2945  0.0837
  190POPC   C4B 2713   0.492  -0.252   5.987  0.0306 -0.3932  0.2295
  191POPC   NC3 2714   6.058   8.111   4.869 -0.2263  0.3779 -0.1151
  191POPC   PO4 2715   6.394   7.873   4.697 -0.2628 -0.0036  0.3675
  191POPC   GL1 2716   6.728   7.786   5.065  0.0041 -0.0448 -0.1109
  191POPC   GL2 2717   6.707   7.458   5.059 -0.1187  0.0305 -0.3015
  191POPC   C1A 2718   6.758   8.046   5.418 -0.0176 -0.6997 -0.1935
  191POPC   D2A 2719   7.027   8.269   5.585 -0.1153 -0.0064  0.1949
  191POPC   C3A 2720   7.196   8.383   5.886  0.0621 -0.1089  0.3975
  191POPC   C4A 2721   7.445   8.738   5.844 -0.1494  0.1916  0.0288
  191POPC   C1B 2722   6.915   7.482   5.464  0.0139 -0.1477  0.0781
  191POPC   C2B 2723   7.109   7.395   5.745  0.0795 -0.1491 -0.1192
  191POPC   C3B 2724   7.285   6.987   5.838 -0.2709  0.1264  0.4544
  191POPC   C4B 2725   7.423   6.600   5.950 -0.2209  0.0665  0.1435
  192POPC   NC3 2726   2.112   3.045   4.350 -0.1849  0.3605 -0.0044
  192POPC   PO4 2727   2.299   3.277   4.563  0.1547  0.0621  0.1039
  192POPC   GL1 2728   2.399   3.155   4.996  0.0921 -0.1438 -0.0219
  192POPC   GL2 2729   2.643   3.291   5.243 -0.2058 -0.1320  0.0168
  192POPC   C1A 2730   2.024   3.187   5.344  0.0917 -0.0485 -0.0046
  192POPC   D2A 2731   1.835   3.020   5.731 -0.2602  0.0051  0.1253
  192POPC   C3A 2732   2.201   2.737   5.914 -0.1979  0.2196 -0.1845
  192POPC   C4A 2733   2.667   2.645   5.826 -0.0124 -0.0077 -0.1523
  192POPC   C1B 2734   2.271   3.638   5.360 -0.0987 -0.4091 -0.1882
  192POPC   C2B 2735   2.094   3.564   5.731 -0.0016 -0.0554 -0.4569
  192POPC   C3B 2736   2.077   3.246   6.105 -0.1380 -0.4326  0.0558
  192POPC   C4B 2737   1.824   2.920   6.283 -0.3129  0.2368 -0.1025
  193POPC   NC3 2738   3.796   0.315   5.041  0.0449  0.1316  0.3365
  193POPC   PO4 2739   3.712   0.765   4.978  0.1549 -0.1716 -0.2067
  193POPC   GL1 2740   3.328   0.892   5.286 -0.0142 -0.0037  0.0532
  193POPC   GL2 2741   3.145   1.215   5.476 -0.0472  0.0411  0.0005
  193POPC   C1A 2742   3.351   0.852   5.765  0.2103  0.2296  0.2175
  193POPC   D2A 2743   3.244   0.988   6.183 -0.0621  0.1859 -0.0557
  193POPC   C3A 2744   3.116   0.845   6.584  0.1586 -0.1660  0.0714
  193POPC   C4A 2745   2.858   0.466   6.571  0.0472 -0.0167 -0.0479
  193POPC   C1B 2746   3.026   1.265   5.831  0.1759 -0.1094  0.0359
  193POPC   C2B 2747   2.796   1.239   6.155  0.1270 -0.0051  0.1037
  193POPC   C3B 2748   2.844   1.359   6.581 -0.1050 -0.1485  0.5064
  193POPC   C4B 2749   2.519   1.472   6.815 -0.0066 -0.2744  0.1762
  194POPC   NC3 2750   2.607   5.818   4.418  0.1185 -0.1561 -0.2006
  194POPC   PO4 2751   2.363   5.481   4.478  0.2512  0.1343  0.3154
  194POPC   GL1 2752   2.506   5.507   4.867 -0.3388  0.0249 -0.3504
  194POPC   GL2 2753   2.465   5.174   5.059 -0.1220 -0.1722  0.2314
  194POPC   C1A 2754   2.731   5.578   5.321 -0.0099 -0.1592  0.0710
  194POPC   D2A 2755   2.672   5.301   5.617 -0.0632 -0.1168  0.1495
  194POPC   C3A 2756   2.930   5.317   5.951 -0.0385 -0.1045 -0.1460
  194POPC   C4A 2757   2.925   5.583   6.360 -0.1167 -0.3477  0.1435
  194POPC   C1B 2758   2.257   5.431   5.363 -0.0474 -0.0642 -0.2202
  194POPC   C2B 2759   2.162   5.371   5.775 -0.1964 -0.1285  0.1271
  194POPC   C3B 2760   1.967   5.678   6.207 -0.1770  0.1138  0.2367
  194POPC   C4B 2761   1.912   6.069   6.476  0.0156  0.1288 -0.1710
  195POPC   NC3 2762   4.726   8.676   4.250 -0.3945 -0.2133  0.3138
  195POPC   PO4 2763   4.870   8.650   4.706 -0.0702  0.2699  0.1739
  195POPC   GL1 2764   4.898   8.776   5.162 -0.1603  0.1803 -0.2277
  195POPC   GL2 2765   5.162   8.877   5.250  0.0736 -0.1502  0.4557
  195POPC   C1A 2766   4.978   9.080   5.652  0.0842  0.4159  0.0371
  195POPC   D2A 2767   4.970   8.976   5.944 -0.0604  0.0506  0.0346
  195POPC   C3A 2768   4.874   8.829   6.320  0.0624  0.0771  0.0687
  195POPC   C4A 2769   4.837   8.902   6.762 -0.2103 -0.2255 -0.1921
  195POPC   C1B 2770   5.352   8.738   5.536 -0.0029 -0.1688  0.2024
  195POPC   C2B 2771   5.387   8.719   5.997 -0.1305  0.0334 -0.1288
  195POPC   C3B 2772   5.785   8.655   6.217  0.0416  0.0029 -0.3081
  195POPC   C4B 2773   6.128   8.484   6.502 -0.0453 -0.2183  0.1556
  196POPC   NC3 2774   2.225   3.819   4.527  0.0683 -0.0774 -0.1864
  196POPC   PO4 2775   1.857   3.967   4.429  0.3274 -0.1216  0.0148
  196POPC   GL1 2776   1.723   3.891   4.804 -0.1399  0.0781 -0.5352
  196POPC   GL2 2777   2.029   3.733   4.957  0.1585 -0.0419  0.2482
  196POPC   C1A 2778   1.321   3.798   5.003 -0.2787 -0.0909 -0.0223
  196POPC   D2A 2779   0.891   4.010   5.259  0.1885 -0.0592 -0.1277
  196POPC   C3A 2780   0.647   3.739   5.615  0.0484  0.2192 -0.1902
  196POPC   C4A 2781   0.846   3.394   6.003  0.3092  0.2785  0.3065
  196POPC   C1B 2782   1.849   3.882   5.358 -0.0901 -0.2544 -0.1727
  196POPC   C2B 2783   1.974   4.070   5.693  0.0603  0.3584 -0.0216
  196POPC   C3B 2784   1.858   4.153   6.060 -0.1709 -0.0890 -0.0465
  196POPC   C4B 2785   2.007   4.289   6.465  0.3541 -0.0150 -0.0337
  197POPC   NC3 2786   4.742   5.267   4.425 -0.1654 -0.1785 -0.1136
  197POPC   PO4 2787   4.735   5.754   4.294 -0.0481 -0.1989 -0.0503
  197POPC   GL1 2788   4.554   5.711   4.635  0.5510  0.1043  0.1824
  197POPC   GL2 2789   4.740   5.570   4.844  0.3539  0.2678 -0.0086
  197POPC   C1A 2790   4.456   5.968   5.011 -0.0348  0.0742  0.0890
  197POPC   D2A 2791   4.222   6.030   5.370  0.0725  0.2449  0.0985
  197POPC   C3A 2792   4.350   6.074   5.764 -0.0720 -0.0915 -0.0644
  197POPC   C4A 2793   4.308   5.718   6.081 -0.2505  0.0614  0.1160
  197POPC   C1B 2794   4.531   5.539   5.216 -0.0103 -0.1052 -0.0989
  197POPC   C2B 2795   4.299   5.571   5.563  0.1445 -0.0218 -0.2709
  197POPC   C3B 2796   4.162   5.275   5.887  0.0591 -0.1467  0.0988
  197POPC   C4B 2797   3.729   4.996   6.094 -0.1348  0.1399 -0.0572
  198POPC   NC3 2798   5.681   2.560   4.205 -0.1137  0.0465  0.3435
  198POPC   PO4 2799   5.416   2.395   4.558  0.1895  0.0354 -0.1082
  198POPC   GL1 2800   5.587   2.186   4.911 -0.1946 -0.1656  0.2210
  198POPC   GL2 2801   5.306   2.111   5.107 -0.1619 -0.4608  0.2018
  198POPC   C1A 2802   5.806   2.179   5.303  0.0786 -0.2283  0.1578
  198POPC   D2A 2803   6.116   2.154   5.800 -0.0927  0.0379  0.1186
  198POPC   C3A 2804   6.534   2.122   6.092  0.0161 -0.1447  0.1317
  198POPC   C4A 2805   6.838   1.917   5.960  0.2100  0.4486  0.2264
  198POPC   C1B 2806   5.454   1.889   5.532  0.0076 -0.4842  0.1966
  198POPC   C2B 2807   5.658   1.948   5.925  0.1744  0.0491  0.1139
  198POPC   C3B 2808   5.510   1.779   6.315  0.1022 -0.0515  0.0329
  198POPC   C4B 2809   5.212   1.771   6.703  0.1651  0.1830  0.3313
  199POPC   NC3 2810   2.933   3.891   4.541 -0.2879  0.3816  0.1495
  199POPC   PO4 2811   2.619   4.209   4.421  0.2018  0.3349  0.0601
  199POPC   GL1 2812   2.416   4.244   4.780  0.0993 -0.2858 -0.3407
  199POPC   GL2 2813   2.124   4.186   4.898 -0.1168 -0.0512 -0.2147
  199POPC   C1A 2814   2.400   4.646   5.110 -0.1099  0.0641  0.2686
  199POPC   D2A 2815   2.335   4.875   5.537  0.0689 -0.0384  0.2687
  199POPC   C3A 2816   2.502   5.014   5.996  0.2469 -0.0864  0.0227
  199POPC   C4A 2817   2.696   5.184   6.507 -0.1416  0.4291 -0.5958
  199POPC   C1B 2818   2.320   4.202   5.311  0.2053  0.2233 -0.1464
  199POPC   C2B 2819   2.430   4.447   5.767  0.2386  0.1907  0.0624
  199POPC   C3B 2820   2.494   4.331   6.303  0.0395  0.0486  0.1661
  199POPC   C4B 2821   2.411   4.307   6.748 -0.0125 -0.2486 -0.1323
  200POPC   NC3 2822   2.758   2.469   4.372 -0.1997  0.0125  0.0902
  200POPC   PO4 2823   3.105   2.624   4.746  0.3450 -0.1610  0.0130
  200POPC   GL1 2824   3.129   3.020   4.977  0.1274  0.1315  0.3477
  200POPC   GL2 2825   2.879   2.927   5.085 -0.1286  0.2359 -0.1327
  200POPC   C1A 2826   3.336   3.141   5.317 -0.0804  0.0019 -0.3441
  200POPC   D2A 2827   3.529   3.246   5.713 -0.0942 -0.0430 -0.0845
  200POPC   C3A 2828   3.382   3.470   6.079 -0.0337  0.1815 -0.1014
  200POPC   C4A 2829   2.959   3.753   6.012  0.0526 -0.2853  0.1826
  200POPC   C1B 2830   2.877   3.016   5.531  0.0718 -0.0248  0.0606
  200POPC   C2B 2831   2.996   3.230   5.835 -0.0206  0.3852 -0.0312
  200POPC   C3B 2832   2.877   2.968   6.218  0.0777 -0.3920  0.0780
  200POPC   C4B 2833   2.453   2.932   6.312  0.0200  0.0220  0.2446
  201POPC   NC3 2834   9.923   6.013   4.944  0.2198  0.3222 -0.0737
  201POPC   PO4 2835   9.506   6.042   4.847  0.1181 -0.2970 -0.2998
  201POPC   GL1 2836   9.554   6.169   5.209  0.0413  0.0877  0.1143
  201POPC   GL2 2837   9.687   5.793   5.400 -0.2737  0.0462  0.1494
  201POPC   C1A 2838   9.483   6.426   5.578 -0.1057 -0.1127  0.1878
  201POPC   D2A 2839   9.105   6.559   5.777  0.1642  0.3509  0.1365
  201POPC   C3A 2840   8.661   6.323   6.035  0.2012 -0.1895 -0.0443
  201POPC   C4A 2841   8.318   6.397   6.294 -0.1155 -0.0024  0.0005
  201POPC   C1B 2842   9.576   5.479   5.786  0.1084 -0.0262 -0.1562
  201POPC   C2B 2843   9.439   5.208   6.150 -0.3765  0.3229  0.1901
  201POPC   C3B 2844   9.323   4.977   6.532  0.1836 -0.0817 -0.0259
  201POPC   C4B 2845   9.066   4.749   6.782  0.1148  0.2485 -0.0419
  202POPC   NC3 2846   6.005   0.554   4.568  0.0988  0.2148  0.1848
  202POPC   PO4 2847   5.780   0.718   4.821  0.0627  0.1259 -0.0160
  202POPC   GL1 2848   5.925   1.018   5.014  0.1230 -0.3114  0.1288
  202POPC   GL2 2849   5.670   1.242   5.139  0.2489  0.2914  0.0083
  202POPC   C1A 2850   6.313   1.194   5.279 -0.0541 -0.0606  0.0301
  202POPC   D2A 2851   6.562   1.092   5.659  0.0991 -0.2710  0.3220
  202POPC   C3A 2852   6.463   0.913   5.889  0.0272 -0.1189 -0.0588
  202POPC   C4A 2853   6.240   0.924   6.338  0.0673  0.0609 -0.0721
  202POPC   C1B 2854   5.800   1.061   5.597  0.0292 -0.0702  0.0210
  202POPC   C2B 2855   5.950   0.898   5.950  0.4053  0.0163  0.0219
  202POPC   C3B 2856   5.878   0.577   6.313 -0.0183 -0.1521  0.1168
  202POPC   C4B 2857   5.959   0.637   6.674  0.0647 -0.4312 -0.1927
  203POPC   NC3 2858   3.250   1.334   5.020 -0.1276  0.2891 -0.2077
  203POPC   PO4 2859   3.189   1.643   4.803 -0.1065 -0.0462 -0.1228
  203POPC   GL1 2860   3.176   1.822   5.256 -0.1222  0.1211 -0.3262
  203POPC   GL2 2861   3.468   1.710   5.474  0.0357 -0.1362  0.0918
  203POPC   C1A 2862   3.042   1.722   5.697  0.0788 -0.1058  0.0485
  203POPC   D2A 2863   2.882   1.776   6.104  0.2618 -0.0096  0.0514
  203POPC   C3A 2864   3.252   1.507   6.254 -0.1956 -0.1457 -0.3275
  203POPC   C4A 2865   3.318   1.274   6.698 -0.2661  0.1038  0.3036
  203POPC   C1B 2866   3.575   1.753   5.955 -0.1938  0.0862  0.0487
  203POPC   C2B 2867   3.332   2.071   6.229 -0.0536  0.3155 -0.0567
  203POPC   C3B 2868   3.137   1.974   6.560 -0.0411  0.1716 -0.1621
  203POPC   C4B 2869   3.225   2.143   6.958  0.1525  0.1030 -0.0547
  204POPC   NC3 2870   7.732   6.555   4.414  0.0959 -0.0063  0.1904
  204POPC   PO4 2871   7.930   6.761   4.777  0.2956 -0.2465 -0.1907
  204POPC   GL1 2872   7.927   6.694   5.184  0.1374 -0.0552  0.3346
  204POPC   GL2 2873   8.175   6.899   5.363  0.0512 -0.2869 -0.0681
  204POPC   C1A 2874   7.720   6.453   5.523  0.1250 -0.0173  0.2021
  204POPC   D2A 2875   7.663   6.041   5.638  0.2794  0.1241  0.0278
  204POPC   C3A 2876   7.823   5.747   5.897 -0.2203 -0.1798 -0.0566
  204POPC   C4A 2877   8.058   5.403   5.931  0.0066 -0.1691  0.0267
  204POPC   C1B 2878   8.199   6.599   5.829  0.1118 -0.0446  0.0733
  204POPC   C2B 2879   7.858   6.570   6.097  0.0294  0.0324  0.0510
  204POPC   C3B 2880   7.577   6.903   6.324  0.1317  0.1217  0.2206
  204POPC   C4B 2881   7.286   7.143   6.621 -0.0679 -0.0503  0.2085
  205POPC   NC3 2882   0.472   5.646   4.092 -0.0601 -0.1636 -0.0810
  205POPC   PO4 2883   0.460   5.506   4.486 -0.1917 -0.1193 -0.1967
  205POPC   GL1 2884   0.442   5.294   4.946 -0.1412  0.0247  0.5180
  205POPC   GL2 2885   0.654   4.995   4.854  0.1806  0.1592  0.5729
  205POPC   C1A 2886   0.511   5.102   5.303  0.2199  0.2343 -0.2876
  205POPC   D2A 2887   0.756   4.816   5.589  0.1271 -0.2647 -0.2415
  205POPC   C3A 2888   0.617   4.796   5.999  0.1750  0.3761  0.0551
  205POPC   C4A 2889   0.326   4.548   6.360 -0.0013  0.1737  0.1522
  205POPC   C1B 2890   0.609   4.645   5.145 -0.3236  0.1367  0.0845
  205POPC   C2B 2891   0.454   4.225   5.348  0.0098 -0.0753 -0.3265
  205POPC   C3B 2892   0.303   4.028   5.805  0.0684  0.0448  0.0439
  205POPC   C4B 2893   0.464   3.721   6.085 -0.1301 -0.2567 -0.2329
  206POPC   NC3 2894   4.197   9.727   5.036 -0.1257  0.2606 -0.0822
  206POPC   PO4 2895   4.586   9.928   5.192 -0.4166  0.0558 -0.0712
  206POPC   GL1 2896   4.602   9.979   5.596  0.4315 -0.2746 -0.3077
  206POPC   GL2 2897   4.813   9.759   5.639 -0.2287  0.0804 -0.1804
  206POPC   C1A 2898   4.677  10.221   5.919  0.0615  0.2981 -0.0635
  206POPC   D2A 2899   4.824  10.265   6.302 -0.0140  0.0031 -0.1914
  206POPC   C3A 2900   5.212  10.180   6.471  0.0872 -0.1842 -0.0762
  206POPC   C4A 2901   5.708  10.166   6.624 -0.0259  0.0982 -0.0662
  206POPC   C1B 2902   4.682   9.761   6.111 -0.1000  0.4728  0.1092
  206POPC   C2B 2903   4.872   9.792   6.448 -0.0799 -0.3117  0.1837
  206POPC   C3B 2904   5.052   9.886   6.818  0.0216 -0.0241 -0.0150
  206POPC   C4B 2905   5.411  10.067   7.074  0.0167 -0.2666  0.2455
  207POPC   NC3 2906   3.772   1.459   4.527 -0.0429 -0.0617 -0.0830
  207POPC   PO4 2907   3.760   1.245   4.943 -0.1758 -0.0488 -0.2656
  207POPC   GL1 2908   3.764   1.370   5.374 -0.1937 -0.2660 -0.1343
  207POPC   GL2 2909   4.055   1.566   5.651 -0.0807 -0.3904 -0.0888
  207POPC   C1A 2910   3.599   1.260   5.819  0.0783  0.2067  0.3243
  207POPC   D2A 2911   3.735   1.229   6.275  0.2830  0.0547 -0.1021
  207POPC   C3A 2912   3.627   0.877   6.500 -0.1794  0.0802 -0.1071
  207POPC   C4A 2913   3.714   0.345   6.601 -0.1289 -0.1127  0.2863
  207POPC   C1B 2914   4.043   1.557   6.043  0.3188 -0.0783 -0.2423
  207POPC   C2B 2915   4.157   1.622   6.449 -0.1219  0.2317  0.1592
  207POPC   C3B 2916   4.344   1.618   6.937 -0.1201 -0.2404 -0.3283
  207POPC   C4B 2917   4.832   1.505   6.991  0.0132 -0.0054  0.1151
  208POPC   NC3 2918   7.679   8.494   4.422  0.0066  0.0252  0.1162
  208POPC   PO4 2919   7.445   8.141   4.656  0.0434  0.1762 -0.0719
  208POPC   GL1 2920   7.425   8.412   4.947  0.1400 -0.0897  0.3545
  208POPC   GL2 2921   7.072   8.422   5.097 -0.2396 -0.2444 -0.1918
  208POPC   C1A 2922   7.556   8.500   5.384  0.0174 -0.4215  0.2856
  208POPC   D2A 2923   7.962   8.717   5.576 -0.0629 -0.0411 -0.0409
  208POPC   C3A 2924   7.873   9.063   5.843 -0.3168  0.0021  0.2358
  208POPC   C4A 2925   7.675   9.321   6.137 -0.0326 -0.1542  0.4825
  208POPC   C1B 2926   7.111   8.759   5.429 -0.0128 -0.0329  0.0114
  208POPC   C2B 2927   6.777   9.015   5.670  0.1102 -0.1606 -0.1266
  208POPC   C3B 2928   6.559   9.281   6.041  0.1887  0.0000  0.2814
  208POPC   C4B 2929   6.395   9.217   6.423 -0.1396  0.4464  0.0750
  209POPC   NC3 2930   8.312   7.052   4.930  0.1293 -0.1615  0.3526
  209POPC   PO4 2931   8.590   6.732   5.009 -0.0137  0.0807  0.0764
  209POPC   GL1 2932   8.397   6.428   5.330  0.0929 -0.3407 -0.1533
  209POPC   GL2 2933   8.592   6.502   5.540 -0.1621 -0.1174  0.0325
  209POPC   C1A 2934   8.602   6.029   5.660 -0.0806 -0.3202 -0.0884
  209POPC   D2A 2935   8.841   5.714   5.936 -0.2855  0.2088 -0.3751
  209POPC   C3A 2936   9.204   5.666   6.036 -0.2682 -0.0036  0.1332
  209POPC   C4A 2937   9.547   5.742   6.257  0.1156 -0.0396 -0.2089
  209POPC   C1B 2938   8.745   6.913   5.774  0.2007 -0.0304 -0.1390
  209POPC   C2B 2939   8.904   7.045   6.097 -0.2497 -0.0834  0.2577
  209POPC   C3B 2940   9.221   7.109   6.532  0.1854  0.2404 -0.1794
  209POPC   C4B 2941   9.434   7.508   6.645 -0.2807  0.2148 -0.1095
  210POPC   NC3 2942   8.191   9.192   3.934 -0.2477  0.1188 -0.4473
  210POPC   PO4 2943   8.489   9.332   3.777 -0.1181  0.1168  0.3158
  210POPC   GL1 2944   8.533   9.649   4.057  0.1082 -0.0952  0.0024
  210POPC   GL2 2945   8.398   9.870   3.822  0.0031  0.0479 -0.0923
  210POPC   C1A 2946   8.868   9.916   4.067  0.1941 -0.2171  0.1098
  210POPC   D2A 2947   8.931  10.315   4.156 -0.5161  0.3934  0.1307
  210POPC   C3A 2948   8.643  10.558   3.907 -0.3355 -0.0659 -0.3460
  210POPC   C4A 2949   8.266  10.329   3.690 -0.0459  0.1076 -0.2753
  210POPC   C1B 2950   8.310  10.178   4.165 -0.2006  0.0552 -0.1249
  210POPC   C2B 2951   8.131  10.276   4.574  0.3184  0.2210  0.2548
  210POPC   C3B 2952   7.955  10.451   4.922  0.0388  0.0862 -0.0492
  210POPC   C4B 2953   7.641  10.384   5.220 -0.1362  0.0487  0.0512
  211POPC   NC3 2954   3.853   8.652   4.014 -0.1578  0.1610 -0.0170
  211POPC   PO4 2955   3.793   8.397   4.384  0.0960  0.2332 -0.0277
  211POPC   GL1 2956   3.706   8.511   4.830 -0.0668  0.0138  0.0424
  211POPC   GL2 2957   3.906   8.449   4.922 -0.0006  0.0855  0.1363
  211POPC   C1A 2958   3.466   8.501   5.236 -0.1385 -0.3530 -0.3118
  211POPC   D2A 2959   3.168   8.410   5.616  0.2883 -0.0441  0.1304
  211POPC   C3A 2960   3.312   8.277   5.937 -0.0245 -0.0190 -0.2144
  211POPC   C4A 2961   3.293   8.033   6.203  0.1395 -0.0728  0.2924
  211POPC   C1B 2962   4.007   8.449   5.330 -0.4710  0.1808 -0.2035
  211POPC   C2B 2963   4.436   8.442   5.541  0.0292 -0.1174 -0.2167
  211POPC   C3B 2964   4.605   8.213   5.858  0.2453  0.2075  0.5258
  211POPC   C4B 2965   4.907   8.337   6.156 -0.0451 -0.0762  0.0728
  212POPC   NC3 2966   5.224   1.963   4.613  0.4006 -0.0918  0.4082
  212POPC   PO4 2967   5.052   1.620   4.744 -0.1671  0.2941  0.0308
  212POPC   GL1 2968   5.165   1.587   5.226  0.1579  0.1450  0.0423
  212POPC   GL2 2969   4.965   1.822   5.458  0.0716  0.0980 -0.0352
  212POPC   C1A 2970   5.350   1.436   5.492  0.1491  0.0145  0.0120
  212POPC   D2A 2971   5.337   1.511   5.940  0.0359 -0.0414  0.3034
  212POPC   C3A 2972   5.806   1.493   6.134 -0.0804  0.0013  0.0024
  212POPC   C4A 2973   6.058   1.421   6.498 -0.3252 -0.2005 -0.4284
  212POPC   C1B 2974   4.978   1.857   5.877  0.1574 -0.0187  0.1316
  212POPC   C2B 2975   4.930   1.867   6.311  0.1799 -0.2038 -0.0593
  212POPC   C3B 2976   4.680   1.799   6.577  0.0565  0.0540  0.0792
  212POPC   C4B 2977   4.587   1.283   6.615  0.0834  0.1147  0.0991
  213POPC   NC3 2978   2.923   9.281   4.583 -0.2761 -0.0064  0.2916
  213POPC   PO4 2979   3.148   9.408   4.959  0.0451 -0.2990 -0.2601
  213POPC   GL1 2980   2.974   9.265   5.328 -0.2539  0.0539  0.1877
  213POPC   GL2 2981   3.332   9.035   5.357 -0.2370 -0.2495 -0.1898
  213POPC   C1A 2982   2.894   9.362   5.703 -0.0206 -0.0655  0.1179
  213POPC   D2A 2983   2.682   9.584   6.105  0.1422 -0.0027  0.1109
  213POPC   C3A 2984   2.596   9.385   6.408 -0.0938 -0.1841  0.0478
  213POPC   C4A 2985   2.354   9.095   6.736  0.1239 -0.1734 -0.1163
  213POPC   C1B 2986   3.617   8.748   5.612  0.1441 -0.0068 -0.4237
  213POPC   C2B 2987   3.899   8.569   5.801 -0.3775  0.0923 -0.1237
  213POPC   C3B 2988   4.030   8.257   5.952 -0.5131 -0.1947 -0.1859
  213POPC   C4B 2989   4.212   7.908   6.003  0.3775 -0.0414 -0.0214
  214POPC   NC3 2990   2.716   1.731   4.690 -0.0998  0.1548  0.1269
  214POPC   PO4 2991   2.483   2.155   4.656 -0.0984  0.0560 -0.0530
  214POPC   GL1 2992   2.708   2.470   4.918  0.2062  0.0748  0.0041
  214POPC   GL2 2993   2.902   2.214   5.081  0.2999  0.0597  0.2215
  214POPC   C1A 2994   2.647   2.572   5.343 -0.3522  0.1673 -0.1691
  214POPC   D2A 2995   2.331   2.768   5.419 -0.1550  0.2420  0.0255
  214POPC   C3A 2996   2.442   3.124   5.718 -0.0983 -0.0959  0.3121
  214POPC   C4A 2997   2.570   3.409   6.023  0.0251  0.0028 -0.2069
  214POPC   C1B 2998   2.727   2.059   5.437 -0.0467  0.1578 -0.2328
  214POPC   C2B 2999   2.518   2.072   5.824 -0.1958  0.2871 -0.1087
  214POPC   C3B 3000   2.395   2.319   6.159 -0.0091  0.0447 -0.0387
  214POPC   C4B 3001   2.441   2.474   6.650 -0.2367 -0.0414 -0.2197
  215POPC   NC3 3002   2.207   8.151   4.896  0.1789 -0.0464  0.0948
  215POPC   PO4 3003   1.984   8.457   4.928  0.0397 -0.0133  0.1408
  215POPC   GL1 3004   2.290   8.376   5.343  0.0851  0.0116  0.1516
  215POPC   GL2 3005   2.584   8.426   5.497 -0.0856 -0.4418 -0.3847
  215POPC   C1A 3006   2.086   8.570   5.718 -0.0219  0.1111  0.1795
  215POPC   D2A 3007   2.177   8.687   6.126 -0.1224  0.2787  0.2009
  215POPC   C3A 3008   2.149   8.498   6.513  0.1359  0.0195  0.0465
  215POPC   C4A 3009   1.817   8.320   6.681 -0.2363 -0.0922  0.2383
  215POPC   C1B 3010   2.636   8.406   5.979 -0.2894  0.0316 -0.2338
  215POPC   C2B 3011   3.010   8.504   6.227 -0.1073 -0.0620 -0.0970
  215POPC   C3B 3012   3.373   8.664   6.256 -0.2504 -0.2176 -0.0798
  215POPC   C4B 3013   3.861   8.764   6.330 -0.2801  0.1563 -0.0880
  216POPC   NC3 3014   0.734   6.310   5.130 -0.0405  0.0539 -0.0273
  216POPC   PO4 3015   0.312   6.333   4.900 -0.0199 -0.1539  0.2115
  216POPC   GL1 3016  -0.035   6.478   5.230  0.0374  0.0046  0.1367
  216POPC   GL2 3017  -0.091   6.812   5.293 -0.1152 -0.2144 -0.2533
  216POPC   C1A 3018  -0.011   6.338   5.657 -0.1029  0.1239 -0.2646
  216POPC   D2A 3019  -0.314   6.457   6.049 -0.1968 -0.2365  0.0439
  216POPC   C3A 3020  -0.693   6.194   6.204  0.4413 -0.2767  0.3797
  216POPC   C4A 3021  -1.102   5.979   6.372  0.2913 -0.1632  0.0048
  216POPC   C1B 3022  -0.008   6.858   5.790  0.0781 -0.0050  0.2576
  216POPC   C2B 3023   0.114   7.042   6.107 -0.4810 -0.0843  0.0095
  216POPC   C3B 3024   0.103   7.138   6.572  0.0976 -0.3727  0.3184
  216POPC   C4B 3025   0.013   7.452   6.898 -0.0714  0.1211 -0.1792
  217POPC   NC3 3026   1.113   6.826   4.642  0.0467  0.1221 -0.0045
  217POPC   PO4 3027   1.150   6.662   5.029  0.2662 -0.4121 -0.1056
  217POPC   GL1 3028   1.202   6.960   5.449 -0.0476  0.1671 -0.0873
  217POPC   GL2 3029   0.911   6.982   5.366 -0.0192  0.2350 -0.2796
  217POPC   C1A 3030   1.182   7.239   5.720 -0.2210 -0.0238  0.2372
  217POPC   D2A 3031   0.981   7.335   6.204  0.0349 -0.0966  0.0557
  217POPC   C3A 3032   1.312   7.438   6.559 -0.2149 -0.3937 -0.2236
  217POPC   C4A 3033   1.773   7.425   6.706  0.1555  0.0717 -0.3499
  217POPC   C1B 3034   0.710   6.956   5.817  0.1765  0.2624  0.0095
  217POPC   C2B 3035   0.718   6.740   6.195 -0.1187 -0.1259 -0.0385
  217POPC   C3B 3036   0.573   6.370   6.393  0.3556  0.1555 -0.1410
  217POPC   C4B 3037   0.223   6.231   6.197 -0.0854  0.0824  0.1784
  218POPC   NC3 3038   8.305   4.321   4.275  0.1085 -0.1072  0.3071
  218POPC   PO4 3039   8.299   4.042   3.983 -0.0807  0.1169 -0.0235
  218POPC   GL1 3040   8.513   3.823   4.442 -0.0347  0.1847  0.1593
  218POPC   GL2 3041   8.261   3.875   4.698 -0.1207  0.0584  0.3415
  218POPC   C1A 3042   8.694   3.585   4.850 -0.1105  0.0398  0.0905
  218POPC   D2A 3043   8.899   3.352   5.170 -0.0430  0.0353 -0.2297
  218POPC   C3A 3044   9.149   2.982   5.146  0.2817 -0.0936 -0.0492
  218POPC   C4A 3045   9.172   2.734   4.758 -0.2364 -0.0450 -0.2392
  218POPC   C1B 3046   8.468   3.993   5.223 -0.0425  0.1833  0.1209
  218POPC   C2B 3047   8.408   4.040   5.610 -0.2065 -0.0999  0.0436
  218POPC   C3B 3048   8.191   4.133   6.043 -0.0784  0.2355  0.1498
  218POPC   C4B 3049   8.072   4.544   6.225 -0.1460 -0.1781 -0.2517
  219POPC   NC3 3050   4.752   3.555   3.607 -0.1322  0.1994  0.1659
  219POPC   PO4 3051   4.881   3.676   4.028 -0.0574 -0.3413  0.1340
  219POPC   GL1 3052   5.026   3.788   4.389 -0.2525 -0.3928  0.0665
  219POPC   GL2 3053   4.932   3.660   4.685  0.2534  0.2872 -0.1947
  219POPC   C1A 3054   5.406   3.889   4.704  0.0095 -0.3488  0.2448
  219POPC   D2A 3055   5.683   4.195   4.880 -0.0598  0.0571  0.0989
  219POPC   C3A 3056   5.429   4.585   5.164  0.2182 -0.1282  0.2512
  219POPC   C4A 3057   5.114   4.987   5.291 -0.0387  0.1821 -0.0140
  219POPC   C1B 3058   4.952   3.569   5.081 -0.3942  0.0277 -0.1987
  219POPC   C2B 3059   5.262   3.526   5.393 -0.1282 -0.0140  0.3410
  219POPC   C3B 3060   5.569   3.656   5.698  0.2353 -0.1076 -0.0636
  219POPC   C4B 3061   5.901   3.379   5.908 -0.0389 -0.3622  0.5042
  220POPC   NC3 3062   8.698   5.258   4.499 -0.0688 -0.1117 -0.0351
  220POPC   PO4 3063   8.222   5.262   4.405  0.1788  0.2176 -0.0400
  220POPC   GL1 3064   8.236   5.164   4.911 -0.3631  0.1314  0.0585
  220POPC   GL2 3065   8.233   5.253   5.273 -0.0650  0.0848 -0.0004
  220POPC   C1A 3066   8.356   4.837   5.123 -0.0387  0.1085 -0.3570
  220POPC   D2A 3067   8.472   4.481   5.396  0.1367  0.1462  0.1835
  220POPC   C3A 3068   8.329   4.563   5.760 -0.0255 -0.3016  0.4542
  220POPC   C4A 3069   8.368   4.931   6.076  0.0673 -0.2275 -0.2117
  220POPC   C1B 3070   8.431   5.525   5.704 -0.0070 -0.0617  0.2177
  220POPC   C2B 3071   8.512   5.390   6.152  0.1399 -0.0002  0.2380
  220POPC   C3B 3072   8.600   5.587   6.517 -0.2304 -0.1379  0.1362
  220POPC   C4B 3073   8.494   5.984   6.743 -0.0283  0.2901  0.1487
  221POPC   NC3 3074   4.316   4.864   3.939 -0.0636 -0.1083  0.0643
  221POPC   PO4 3075   4.404   5.261   4.080 -0.0521 -0.0722  0.1289
  221POPC   GL1 3076   4.216   5.384   4.539 -0.0177  0.1581  0.0551
  221POPC   GL2 3077   4.169   5.194   4.727 -0.2190 -0.1779 -0.1023
  221POPC   C1A 3078   4.054   5.644   4.937 -0.1948 -0.1121  0.0638
  221POPC   D2A 3079   3.799   5.809   5.319 -0.1177  0.0992  0.2251
  221POPC   C3A 3080   3.848   5.767   5.845  0.0347 -0.0130  0.0023
  221POPC   C4A 3081   3.739   5.518   6.203 -0.0489  0.3755 -0.0275
  221POPC   C1B 3082   4.170   4.919   5.028 -0.0097 -0.0248  0.0047
  221POPC   C2B 3083   4.180   4.879   5.455  0.2613 -0.1028  0.0272
  221POPC   C3B 3084   4.194   4.785   5.931 -0.2065  0.0690  0.0758
  221POPC   C4B 3085   4.391   4.481   6.148  0.0535  0.0107 -0.0657
  222POPC   NC3 3086   2.417   9.400   4.628  0.0698  0.5169 -0.3810
  222POPC   PO4 3087   2.550   9.738   4.944  0.0764  0.2731 -0.2223
  222POPC   GL1 3088   2.701   9.694   5.305 -0.1035 -0.0375  0.1827
  222POPC   GL2 3089   2.506   9.484   5.475  0.0296  0.2503 -0.1512
  222POPC   C1A 3090   2.778   9.883   5.706  0.0922  0.1404  0.0110
  222POPC   D2A 3091   2.623  10.066   6.077 -0.0439 -0.1826  0.2548
  222POPC   C3A 3092   2.763   9.944   6.457 -0.0379 -0.1229 -0.3538
  222POPC   C4A 3093   2.830  10.069   6.962  0.0988 -0.1023 -0.0136
  222POPC   C1B 3094   2.269   9.645   5.744 -0.0871 -0.2960 -0.0495
  222POPC   C2B 3095   2.155   9.588   6.165 -0.0976 -0.2932 -0.0743
  222POPC   C3B 3096   2.317   9.755   6.594 -0.0965 -0.0221 -0.1162
  222POPC   C4B 3097   2.430   9.809   6.949 -0.1534 -0.0552 -0.0429
  223POPC   NC3 3098   6.394   6.920   4.203 -0.3597 -0.2058  0.1695
  223POPC   PO4 3099   6.262   7.414   4.391 -0.1804 -0.0241 -0.2995
  223POPC   GL1 3100   6.204   7.400   4.867  0.1727  0.0262  0.2686
  223POPC   GL2 3101   6.190   7.628   5.084  0.1475 -0.1420  0.0441
  223POPC   C1A 3102   6.166   7.107   5.176  0.0324  0.1678 -0.2893
  223POPC   D2A 3103   5.912   6.930   5.492  0.0543 -0.2715 -0.1510
  223POPC   C3A 3104   5.632   7.077   5.754  0.0266  0.0506 -0.0058
  223POPC   C4A 3105   5.733   7.152   6.187 -0.0865  0.0206  0.3451
  223POPC   C1B 3106   6.250   7.541   5.454 -0.2521 -0.1063  0.1128
  223POPC   C2B 3107   6.594   7.552   5.848  0.0637 -0.0053  0.3011
  223POPC   C3B 3108   6.727   7.733   6.274 -0.2297  0.0323  0.1173
  223POPC   C4B 3109   6.842   7.942   6.604 -0.1036 -0.1760 -0.4200
  224POPC   NC3 3110   2.438   6.762   4.204 -0.1661  0.1658  0.3198
  224POPC   PO4 3111   2.876   6.612   4.045  0.1165 -0.0284 -0.2780
  224POPC   GL1 3112   2.800   6.565   4.476 -0.0889  0.1098  0.0881
  224POPC   GL2 3113   2.654   6.320   4.659  0.1294  0.3610 -0.0890
  224POPC   C1A 3114   3.013   6.657   4.800 -0.2386 -0.0588 -0.0974
  224POPC   D2A 3115   3.260   6.893   5.076  0.0065  0.3207  0.0351
  224POPC   C3A 3116   2.992   6.970   5.449  0.0095  0.0632 -0.0765
  224POPC   C4A 3117   3.021   6.941   5.856  0.2615  0.1089  0.2805
  224POPC   C1B 3118   2.806   6.403   5.141  0.0527 -0.6412 -0.0559
  224POPC   C2B 3119   3.104   6.451   5.443  0.2766  0.3123  0.2455
  224POPC   C3B 3120   3.130   6.414   5.836 -0.2237  0.2427  0.1620
  224POPC   C4B 3121   3.197   6.649   6.237  0.2609  0.0089  0.0119
  225POPC   NC3 3122   5.304   0.685   4.947 -0.1593  0.2158 -0.1280
  225POPC   PO4 3123   4.994   0.980   4.907 -0.0175 -0.1307 -0.0748
  225POPC   GL1 3124   5.077   0.974   5.373  0.0627 -0.0071  0.2391
  225POPC   GL2 3125   5.344   0.922   5.422 -0.2136  0.0923  0.0763
  225POPC   C1A 3126   4.944   1.230   5.820 -0.4244 -0.0231  0.1204
  225POPC   D2A 3127   5.043   1.365   6.340 -0.0878  0.2329 -0.3376
  225POPC   C3A 3128   5.403   1.294   6.464 -0.0050 -0.3058  0.1224
  225POPC   C4A 3129   5.727   1.047   6.461  0.2596  0.2473  0.0772
  225POPC   C1B 3130   5.406   0.953   5.815 -0.0289  0.1061  0.0255
  225POPC   C2B 3131   5.497   0.777   6.136 -0.3774  0.2874 -0.1888
  225POPC   C3B 3132   5.362   0.683   6.444  0.1045 -0.3037 -0.1109
  225POPC   C4B 3133   5.524   0.734   6.934  0.1692 -0.0797  0.0862
  226POPC   NC3 3134   4.984   0.263   5.199 -0.1187 -0.0466  0.1192
  226POPC   PO4 3135   5.414   0.139   4.946  0.1574  0.2758  0.0104
  226POPC   GL1 3136   5.814   0.310   5.147 -0.2825 -0.1253  0.0776
  226POPC   GL2 3137   5.800   0.643   5.305  0.0234 -0.0297  0.0688
  226POPC   C1A 3138   6.302   0.247   5.088  0.0315 -0.1614 -0.0246
  226POPC   D2A 3139   6.679   0.270   5.032  0.1236 -0.3792  0.1236
  226POPC   C3A 3140   7.092   0.057   5.255  0.1265 -0.1438  0.0572
  226POPC   C4A 3141   7.402   0.045   5.059 -0.1290 -0.1021 -0.1816
  226POPC   C1B 3142   5.714   0.502   5.715 -0.0192 -0.1947  0.1038
  226POPC   C2B 3143   5.429   0.302   5.996 -0.0346 -0.0462 -0.1217
  226POPC   C3B 3144   5.149   0.034   6.024  0.0757  0.1153 -0.0771
  226POPC   C4B 3145   5.098  -0.432   5.942 -0.0007  0.2229 -0.2818
  227POPC   NC3 3146   4.626   9.529   4.852 -0.2001 -0.0240 -0.2089
  227POPC   PO4 3147   4.090   9.364   4.752  0.2552  0.1222 -0.0135
  227POPC   GL1 3148   4.228   9.176   5.067  0.0644 -0.4024 -0.1166
  227POPC   GL2 3149   4.379   8.908   5.100  0.0145  0.2293  0.3012
  227POPC   C1A 3150   4.054   9.121   5.447  0.1636  0.1373  0.1545
  227POPC   D2A 3151   3.671   9.267   5.534 -0.1576 -0.3211 -0.0208
  227POPC   C3A 3152   3.356   9.592   5.604 -0.2041 -0.0829 -0.0347
  227POPC   C4A 3153   3.164   9.741   5.970  0.0627 -0.2939 -0.1178
  227POPC   C1B 3154   4.523   8.956   5.539 -0.0986  0.0513  0.3083
  227POPC   C2B 3155   4.465   8.768   5.927 -0.2012 -0.3151 -0.3883
  227POPC   C3B 3156   4.344   8.872   6.379  0.1784  0.1056  0.4287
  227POPC   C4B 3157   4.405   9.174   6.674  0.0767 -0.1995  0.0394
  228POPC   NC3 3158   1.638   3.105   4.197 -0.0809  0.0342 -0.1654
  228POPC   PO4 3159   1.240   2.808   4.185  0.2984  0.1998 -0.0371
  228POPC   GL1 3160   0.810   2.859   4.437  0.0325 -0.1312 -0.4704
  228POPC   GL2 3161   0.699   3.199   4.425 -0.0003  0.0584  0.2560
  228POPC   C1A 3162   0.550   2.693   4.762 -0.1150  0.0365 -0.0232
  228POPC   D2A 3163   0.441   2.873   5.197 -0.0626 -0.1281  0.0303
  228POPC   C3A 3164   0.140   3.190   5.154 -0.1977  0.2337  0.1741
  228POPC   C4A 3165  -0.093   3.468   4.901 -0.0057 -0.0046 -0.1107
  228POPC   C1B 3166   0.798   3.141   4.892 -0.0257  0.0874  0.1000
  228POPC   C2B 3167   1.151   3.309   5.106  0.0293  0.1723 -0.1430
  228POPC   C3B 3168   1.072   3.605   5.503 -0.0908  0.2439  0.0342
  228POPC   C4B 3169   1.132   3.945   5.690  0.1467 -0.4067 -0.1351
  229POPC   NC3 3170   2.176   1.016   4.614 -0.1178  0.1351  0.0677
  229POPC   PO4 3171   2.276   0.742   4.941  0.3572  0.0756 -0.0538
  229POPC   GL1 3172   2.164   0.678   5.373  0.1311 -0.2880 -0.0709
  229POPC   GL2 3173   2.387   0.667   5.545 -0.1256  0.0216 -0.1530
  229POPC   C1A 3174   1.906   0.680   5.786  0.0541 -0.0944 -0.0237
  229POPC   D2A 3175   1.536   0.514   6.099  0.0552 -0.2498  0.0580
  229POPC   C3A 3176   1.333   0.950   6.194  0.1372 -0.2974  0.1133
  229POPC   C4A 3177   1.453   1.407   6.133  0.1604  0.0580 -0.0161
  229POPC   C1B 3178   2.211   0.343   5.869 -0.1985 -0.1308 -0.0485
  229POPC   C2B 3179   2.108   0.171   6.246  0.0996 -0.1217 -0.1766
  229POPC   C3B 3180   1.858   0.142   6.600 -0.3299 -0.2005 -0.0267
  229POPC   C4B 3181   2.029   0.107   7.047 -0.1937  0.1082  0.0215
  230POPC   NC3 3182   0.557   4.580   4.562 -0.0070 -0.0475 -0.3780
  230POPC   PO4 3183   0.963   4.707   4.556  0.0409 -0.0902 -0.4090
  230POPC   GL1 3184   1.067   4.415   4.985 -0.2097 -0.0536  0.4681
  230POPC   GL2 3185   1.293   4.255   4.814  0.1350 -0.1293 -0.2769
  230POPC   C1A 3186   1.067   4.478   5.435  0.1651  0.0207  0.2920
  230POPC   D2A 3187   0.980   4.468   5.846 -0.1017  0.2046 -0.0705
  230POPC   C3A 3188   0.688   4.293   6.170 -0.0330  0.2523  0.1362
  230POPC   C4A 3189   0.574   4.117   6.585  0.0883 -0.1924  0.2901
  230POPC   C1B 3190   1.458   4.180   5.280 -0.2206  0.2947 -0.0290
  230POPC   C2B 3191   1.436   4.285   5.731 -0.1339 -0.0174  0.1981
  230POPC   C3B 3192   1.423   4.527   6.077  0.0175  0.1050  0.0445
  230POPC   C4B 3193   1.475   4.464   6.513  0.4156 -0.2065  0.1457
  231POPC   NC3 3194   9.337   5.617   5.127 -0.0423  0.0649 -0.1951
  231POPC   PO4 3195   9.063   5.255   4.948  0.0342 -0.1872 -0.1618
  231POPC   GL1 3196   9.128   5.109   5.267 -0.1022 -0.0842  0.0850
  231POPC   GL2 3197   8.937   4.868   5.301  0.2873 -0.2048  0.1012
  231POPC   C1A 3198   9.201   5.132   5.680 -0.2783 -0.0053 -0.1884
  231POPC   D2A 3199   8.944   5.192   5.965  0.0828 -0.1673  0.0690
  231POPC   C3A 3200   8.910   5.092   6.273 -0.0847 -0.2012 -0.0581
  231POPC   C4A 3201   8.766   5.152   6.727 -0.1827  0.2582  0.3730
  231POPC   C1B 3202   9.271   4.655   5.452 -0.0297  0.2258  0.3443
  231POPC   C2B 3203   9.657   4.499   5.617 -0.2130 -0.2860 -0.1762
  231POPC   C3B 3204   9.921   4.153   5.484 -0.1551  0.1166  0.3912
  231POPC   C4B 3205   9.723   3.728   5.309  0.2469  0.0571  0.0583
  232POPC   NC3 3206   7.666   7.698   4.595 -0.0440 -0.0698 -0.0112
  232POPC   PO4 3207   7.508   7.298   4.700  0.1190  0.0728 -0.0619
  232POPC   GL1 3208   7.603   7.109   5.095 -0.1492  0.2180 -0.2950
  232POPC   GL2 3209   7.276   7.060   5.243  0.0965 -0.0735 -0.0720
  232POPC   C1A 3210   7.772   7.134   5.448  0.1171  0.1916 -0.0110
  232POPC   D2A 3211   7.857   7.011   5.880  0.2504 -0.1459  0.4918
  232POPC   C3A 3212   7.971   7.336   6.254  0.3054  0.1329  0.0128
  232POPC   C4A 3213   7.959   7.170   6.695 -0.0134 -0.0422  0.3554
  232POPC   C1B 3214   7.285   6.640   5.393 -0.1137 -0.0716 -0.0968
  232POPC   C2B 3215   7.174   6.246   5.703  0.0013 -0.0584 -0.3720
  232POPC   C3B 3216   7.279   5.898   5.878 -0.0326  0.1038  0.0451
  232POPC   C4B 3217   7.467   5.829   6.263 -0.0280  0.1199  0.3757
  233POPC   NC3 3218   5.768   7.173   4.572 -0.0652  0.0033  0.4149
  233POPC   PO4 3219   5.529   7.492   4.401 -0.0117  0.2314 -0.1886
  233POPC   GL1 3220   5.417   7.296   4.879  0.1992 -0.1633  0.1245
  233POPC   GL2 3221   5.700   7.231   5.129  0.0071  0.1715 -0.1588
  233POPC   C1A 3222   5.276   7.277   5.331  0.0532  0.2115 -0.0476
  233POPC   D2A 3223   5.003   7.365   5.627  0.1866 -0.2173  0.0196
  233POPC   C3A 3224   5.210   7.261   6.005 -0.0757  0.2629 -0.3688
  233POPC   C4A 3225   5.402   7.492   6.365  0.2507  0.1886  0.1898
  233POPC   C1B 3226   5.731   7.485   5.415  0.0258  0.5709  0.0064
  233POPC   C2B 3227   5.550   7.586   5.861  0.1088  0.3324 -0.0247
  233POPC   C3B 3228   5.725   7.771   6.127 -0.0582  0.0948 -0.3899
  233POPC   C4B 3229   5.811   7.699   6.585 -0.0849  0.0167 -0.0758
  234POPC   NC3 3230   6.299   4.237   4.399  0.0942  0.0934 -0.0040
  234POPC   PO4 3231   6.423   4.703   4.569  0.1803 -0.0082 -0.2517
  234POPC   GL1 3232   6.393   4.942   4.964  0.1552  0.1787  0.1599
  234POPC   GL2 3233   6.657   5.109   5.089 -0.2300  0.0480  0.2767
  234POPC   C1A 3234   6.418   4.775   5.347 -0.0939 -0.1887  0.0121
  234POPC   D2A 3235   6.419   4.694   5.703 -0.1173  0.1610 -0.0001
  234POPC   C3A 3236   6.740   4.865   6.044  0.4290  0.2037 -0.0919
  234POPC   C4A 3237   7.221   5.014   6.243  0.0266 -0.1316  0.2209
  234POPC   C1B 3238   6.561   5.180   5.578 -0.1417  0.1377  0.0332
  234POPC   C2B 3239   6.553   5.408   6.009 -0.3058 -0.0021 -0.4319
  234POPC   C3B 3240   6.398   5.591   6.283  0.2746  0.3437  0.0712
  234POPC   C4B 3241   6.454   5.931   6.643 -0.1915 -0.1764 -0.2055
  235POPC   NC3 3242   4.027   7.095   4.203 -0.0287  0.1255 -0.0355
  235POPC   PO4 3243   3.654   7.442   4.146  0.0185 -0.0625 -0.0307
  235POPC   GL1 3244   3.588   7.437   4.638 -0.4291  0.0055 -0.1214
  235POPC   GL2 3245   3.585   7.738   4.703  0.0846 -0.0617 -0.1414
  235POPC   C1A 3246   3.666   7.170   4.942  0.0038 -0.0278 -0.1157
  235POPC   D2A 3247   3.827   6.905   5.218  0.1533  0.3785 -0.1054
  235POPC   C3A 3248   3.988   6.863   5.614  0.2652  0.1929  0.0610
  235POPC   C4A 3249   4.061   6.938   5.992 -0.0448 -0.1797 -0.0820
  235POPC   C1B 3250   3.438   8.027   4.993  0.1974 -0.1344 -0.5396
  235POPC   C2B 3251   3.090   8.055   5.300 -0.0961 -0.0787  0.0328
  235POPC   C3B 3252   2.961   7.960   5.840  0.0908 -0.0253 -0.0105
  235POPC   C4B 3253   2.643   7.845   6.163  0.3247  0.0928 -0.0104
  236POPC   NC3 3254   2.352   3.382   3.965  0.0939 -0.0248 -0.3427
  236POPC   PO4 3255   1.984   3.501   4.234 -0.1140 -0.0419 -0.3282
  236POPC   GL1 3256   1.711   3.404   4.615  0.1640 -0.1244  0.1639
  236POPC   GL2 3257   1.817   3.161   4.755  0.0698 -0.1153  0.1580
  236POPC   C1A 3258   1.690   3.449   5.084  0.0167 -0.0720 -0.0970
  236POPC   D2A 3259   1.550   3.435   5.564  0.2734 -0.1142 -0.0362
  236POPC   C3A 3260   1.538   3.754   5.810  0.2908  0.0303 -0.0925
  236POPC   C4A 3261   1.400   3.926   6.186 -0.1807 -0.0886  0.1765
  236POPC   C1B 3262   1.742   2.923   5.101 -0.1433  0.1514  0.0149
  236POPC   C2B 3263   1.436   2.799   5.469 -0.0295  0.1754 -0.1745
  236POPC   C3B 3264   1.408   2.793   5.890 -0.0599 -0.2257  0.0576
  236POPC   C4B 3265   1.309   2.782   6.315  0.0684 -0.1256  0.2188
  237POPC   NC3 3266   2.804   8.326   4.412 -0.0720 -0.0902  0.1669
  237POPC   PO4 3267   2.668   8.261   4.834  0.1055 -0.1411  0.0582
  237POPC   GL1 3268   2.629   7.888   5.064 -0.1621  0.0590  0.1857
  237POPC   GL2 3269   2.486   7.529   4.946  0.2509  0.2295 -0.0324
  237POPC   C1A 3270   2.647   7.923   5.491  0.1018  0.2172  0.2750
  237POPC   D2A 3271   2.318   8.039   5.700 -0.1557 -0.0080 -0.0209
  237POPC   C3A 3272   2.236   8.167   6.146  0.3458  0.3755  0.2394
  237POPC   C4A 3273   2.151   7.969   6.583 -0.1099  0.1106  0.0949
  237POPC   C1B 3274   2.727   7.428   5.319  0.2586 -0.0134  0.0363
  237POPC   C2B 3275   2.917   7.442   5.694 -0.1182  0.0006  0.0386
  237POPC   C3B 3276   3.058   7.487   6.063 -0.2184 -0.2040  0.0864
  237POPC   C4B 3277   3.112   7.147   6.364 -0.0356  0.1054  0.0818
  238POPC   NC3 3278   1.572   6.898   4.853  0.0978  0.1391  0.0861
  238POPC   PO4 3279   1.230   7.188   5.013 -0.0988  0.2049  0.1689
  238POPC   GL1 3280   1.416   7.473   5.369  0.1379 -0.0760  0.3334
  238POPC   GL2 3281   1.561   7.704   5.387 -0.0486  0.0282 -0.0361
  238POPC   C1A 3282   1.646   7.412   5.848  0.2757 -0.2078 -0.1812
  238POPC   D2A 3283   1.743   7.247   6.219  0.0834 -0.0290  0.1171
  238POPC   C3A 3284   1.568   6.944   6.598 -0.0138 -0.0674  0.0310
  238POPC   C4A 3285   1.416   7.203   6.971  0.0171 -0.2212  0.0339
  238POPC   C1B 3286   1.834   7.853   5.694  0.0704 -0.2225 -0.1826
  238POPC   C2B 3287   2.106   7.653   6.068  0.3030  0.2026 -0.2304
  238POPC   C3B 3288   2.229   7.481   6.481  0.0737 -0.1473  0.2178
  238POPC   C4B 3289   2.182   7.639   6.946 -0.0001 -0.0178  0.1710
  239POPC   NC3 3290   1.225   5.094   4.727 -0.1763 -0.1538  0.1836
  239POPC   PO4 3291   1.426   5.308   4.397 -0.4966 -0.0683  0.0710
  239POPC   GL1 3292   1.772   5.156   4.729 -0.2208  0.2453  0.1071
  239POPC   GL2 3293   2.009   5.409   4.911  0.1311  0.1258  0.0286
  239POPC   C1A 3294   1.925   4.979   5.166 -0.2368 -0.1557 -0.2958
  239POPC   D2A 3295   1.846   5.130   5.498 -0.2480  0.2630 -0.0974
  239POPC   C3A 3296   1.363   5.376   5.705 -0.0291  0.0676  0.0236
  239POPC   C4A 3297   0.872   5.359   5.685  0.1112  0.1158 -0.2309
  239POPC   C1B 3298   1.802   5.724   5.276 -0.0812  0.4183 -0.0052
  239POPC   C2B 3299   1.994   5.878   5.656  0.3161  0.2271  0.1415
  239POPC   C3B 3300   2.145   6.104   6.015  0.0399  0.0859 -0.2454
  239POPC   C4B 3301   2.292   6.350   6.338 -0.0614  0.2278 -0.0524
  240POPC   NC3 3302   1.513   1.816   3.738  0.1840  0.2973  0.1657
  240POPC   PO4 3303   1.319   2.182   3.770 -0.0893 -0.2897  0.4253
  240POPC   GL1 3304   1.261   2.100   4.142  0.0450 -0.0737  0.0439
  240POPC   GL2 3305   1.361   2.381   4.312  0.2042  0.1402 -0.0979
  240POPC   C1A 3306   1.418   1.957   4.578 -0.0421 -0.0835 -0.1644
  240POPC   D2A 3307   1.492   1.719   4.932  0.1737 -0.0132 -0.1541
  240POPC   C3A 3308   1.516   1.289   4.840  0.1251 -0.0559 -0.0173
  240POPC   C4A 3309   1.247   0.887   4.824 -0.2544 -0.0330 -0.0106
  240POPC   C1B 3310   1.100   2.344   4.630  0.1858  0.0700 -0.0912
  240POPC   C2B 3311   0.931   2.267   4.936 -0.1979  0.0042  0.1506
  240POPC   C3B 3312   0.697   2.195   5.253 -0.1568  0.0897  0.3020
  240POPC   C4B 3313   0.371   1.982   5.623 -0.0365  0.0067 -0.1713
  241POPC   NC3 3314   6.395   9.265   4.788 -0.3653 -0.3595 -0.1354
  241POPC   PO4 3315   5.963   9.021   4.833  0.0046  0.1207  0.1319
  241POPC   GL1 3316   5.894   9.214   5.281  0.1605 -0.0621  0.0723
  241POPC   GL2 3317   5.769   8.967   5.322 -0.0836  0.1138 -0.1573
  241POPC   C1A 3318   5.890   9.512   5.529  0.1240  0.2275 -0.2462
  241POPC   D2A 3319   6.040   9.412   5.951  0.1071 -0.1640  0.2563
  241POPC   C3A 3320   6.192   9.661   6.236 -0.2300  0.4059  0.0889
  241POPC   C4A 3321   6.434   9.676   6.677  0.0927 -0.0753 -0.2148
  241POPC   C1B 3322   5.922   8.912   5.741  0.0446  0.0235  0.0932
  241POPC   C2B 3323   6.261   8.911   5.818 -0.0727  0.0441 -0.2243
  241POPC   C3B 3324   6.421   8.701   6.192  0.0351 -0.0645  0.0152
  241POPC   C4B 3325   6.641   8.690   6.556 -0.0324 -0.1058  0.0759
  242POPC   NC3 3326   2.607   2.866   4.643 -0.0473  0.0591 -0.1521
  242POPC   PO4 3327   2.251   2.648   4.648  0.2219 -0.4446 -0.1280
  242POPC   GL1 3328   2.054   2.490   5.040  0.1243 -0.0040  0.1949
  242POPC   GL2 3329   2.317   2.244   5.172 -0.1289  0.4081 -0.3186
  242POPC   C1A 3330   1.777   2.452   5.297 -0.2355 -0.0413  0.0479
  242POPC   D2A 3331   1.570   2.383   5.705  0.1057  0.1662  0.0702
  242POPC   C3A 3332   1.743   2.458   6.094 -0.1178  0.0452  0.2385
  242POPC   C4A 3333   1.987   2.489   6.386  0.0203  0.2242 -0.1067
  242POPC   C1B 3334   2.144   2.250   5.626 -0.0814  0.0220 -0.1920
  242POPC   C2B 3335   2.020   2.041   6.034  0.2247 -0.1271  0.1027
  242POPC   C3B 3336   2.037   2.010   6.472  0.0050 -0.1915  0.0833
  242POPC   C4B 3337   2.220   1.972   6.848  0.5387 -0.0123 -0.0311
  243POPC   NC3 3338   9.360   2.344   3.246  0.3042  0.0643 -0.0833
  243POPC   PO4 3339   9.081   2.686   3.439 -0.0597  0.0353  0.1647
  243POPC   GL1 3340   9.273   2.516   3.736  0.2811  0.0651 -0.0791
  243POPC   GL2 3341   9.097   2.215   3.660  0.0696  0.0374  0.0226
  243POPC   C1A 3342   9.320   2.484   4.096  0.0459 -0.1114  0.0165
  243POPC   D2A 3343   9.753   2.241   4.336 -0.3505 -0.0781 -0.1933
  243POPC   C3A 3344   9.701   2.148   4.829 -0.1662 -0.0078  0.1488
  243POPC   C4A 3345   9.897   2.096   5.252  0.0137  0.0667  0.2609
  243POPC   C1B 3346   8.712   2.116   3.752  0.1925  0.2449 -0.1003
  243POPC   C2B 3347   8.643   1.760   4.028 -0.3653 -0.0054  0.0825
  243POPC   C3B 3348   8.605   1.439   4.320 -0.0259  0.0609 -0.0276
  243POPC   C4B 3349   8.792   1.253   4.624  0.1027  0.2002  0.0395
  244POPC   NC3 3350   6.405   2.732   3.876 -0.2513 -0.2217  0.0550
  244POPC   PO4 3351   6.177   2.473   4.155  0.0679  0.1567  0.2120
  244POPC   GL1 3352   6.080   2.575   4.572 -0.1078  0.2391  0.0777
  244POPC   GL2 3353   5.953   2.548   4.955  0.0394  0.1730 -0.1365
  244POPC   C1A 3354   6.394   2.511   4.875 -0.0455 -0.1388 -0.0796
  244POPC   D2A 3355   6.353   2.804   5.207  0.1226 -0.0652 -0.1622
  244POPC   C3A 3356   6.144   2.610   5.671 -0.2202  0.0963 -0.0342
  244POPC   C4A 3357   6.319   2.584   6.043 -0.0876  0.1912 -0.0871
  244POPC   C1B 3358   5.727   2.705   5.345  0.0373 -0.0661 -0.1036
  244POPC   C2B 3359   5.658   2.513   5.785 -0.1125 -0.2468 -0.0475
  244POPC   C3B 3360   5.784   2.386   6.095 -0.0399  0.2354  0.1531
  244POPC   C4B 3361   5.601   2.238   6.463  0.1275 -0.1257 -0.0667
  245POPC   NC3 3362   6.595   6.365   4.747 -0.0609  0.0230 -0.0897
  245POPC   PO4 3363   6.187   6.690   4.710 -0.0662 -0.0965  0.1455
  245POPC   GL1 3364   6.127   6.415   4.943  0.1385  0.3016  0.0910
  245POPC   GL2 3365   6.311   6.242   5.173 -0.0148  0.0209  0.1151
  245POPC   C1A 3366   5.808   6.398   5.263  0.0122  0.0205 -0.0563
  245POPC   D2A 3367   5.800   6.499   5.692 -0.1617 -0.1489  0.0285
  245POPC   C3A 3368   5.901   6.709   6.013 -0.0808  0.2796 -0.2072
  245POPC   C4A 3369   5.825   6.598   6.474  0.0981 -0.2694 -0.0657
  245POPC   C1B 3370   6.303   6.110   5.643 -0.0997 -0.2555  0.0349
  245POPC   C2B 3371   6.469   6.139   5.961  0.0837  0.1686 -0.0516
  245POPC   C3B 3372   6.813   6.313   6.028 -0.0832 -0.4714  0.1107
  245POPC   C4B 3373   7.146   6.203   6.242 -0.1686 -0.1719 -0.0512
  246POPC   NC3 3374   5.447   9.064   4.826  0.2618  0.1136 -0.0317
  246POPC   PO4 3375   5.003   9.182   4.908 -0.1080 -0.2146  0.1570
  246POPC   GL1 3376   4.731   9.303   5.279 -0.2958 -0.2697 -0.0655
  246POPC   GL2 3377   4.476   9.499   5.332 -0.1936 -0.0448  0.2179
  246POPC   C1A 3378   4.538   9.387   5.826 -0.2879 -0.2185 -0.1782
  246POPC   D2A 3379   4.534   9.267   6.151  0.0165 -0.3364  0.0234
  246POPC   C3A 3380   4.969   9.306   6.373 -0.1399 -0.0909  0.0910
  246POPC   C4A 3381   5.389   9.005   6.507  0.2533 -0.2112 -0.1801
  246POPC   C1B 3382   4.081   9.526   5.656 -0.1197 -0.0721  0.1065
  246POPC   C2B 3383   3.802   9.527   5.940  0.0477  0.3355 -0.3739
  246POPC   C3B 3384   3.471   9.495   6.279 -0.0837 -0.5318  0.0889
  246POPC   C4B 3385   3.487   9.444   6.768  0.0472  0.0087 -0.0328
  247POPC   NC3 3386   6.097   1.649   4.255  0.1514  0.1201  0.2194
  247POPC   PO4 3387   6.384   1.495   4.067  0.1538  0.1018  0.2491
  247POPC   GL1 3388   6.454   1.380   4.514  0.0159 -0.1151  0.3062
  247POPC   GL2 3389   6.516   1.657   4.599 -0.0946  0.3997 -0.0357
  247POPC   C1A 3390   6.468   1.067   4.795  0.2642  0.0028  0.3170
  247POPC   D2A 3391   6.412   0.682   4.852  0.2232  0.1665  0.0456
  247POPC   C3A 3392   6.248   0.688   5.344  0.0010  0.3923  0.0410
  247POPC   C4A 3393   6.225   0.487   5.719 -0.1481 -0.0708  0.0816
  247POPC   C1B 3394   6.632   1.531   5.020  0.1120 -0.2854  0.0963
  247POPC   C2B 3395   6.759   1.551   5.377 -0.1032  0.1127  0.0738
  247POPC   C3B 3396   6.815   1.471   5.828 -0.0532  0.0457 -0.1142
  247POPC   C4B 3397   6.575   1.381   6.138  0.0148 -0.1073  0.3116
  248POPC   NC3 3398   1.757   6.176   4.513 -0.3698 -0.1701 -0.0652
  248POPC   PO4 3399   1.437   6.326   4.766  0.1451  0.1904 -0.2502
  248POPC   GL1 3400   1.446   6.155   5.228 -0.0382  0.1270 -0.2781
  248POPC   GL2 3401   1.344   6.348   5.357 -0.1299 -0.0406  0.0781
  248POPC   C1A 3402   1.535   5.964   5.756  0.2264  0.1308  0.0026
  248POPC   D2A 3403   1.423   5.857   6.076 -0.0936 -0.2179  0.0995
  248POPC   C3A 3404   0.998   5.673   6.053 -0.1277 -0.2907  0.1208
  248POPC   C4A 3405   0.545   5.773   5.893 -0.1386  0.1034 -0.1146
  248POPC   C1B 3406   1.192   6.577   5.725  0.2466  0.0413 -0.1297
  248POPC   C2B 3407   1.235   6.877   6.099  0.0809 -0.0954  0.1204
  248POPC   C3B 3408   1.032   6.953   6.565 -0.4424  0.4235  0.1647
  248POPC   C4B 3409   0.895   6.951   6.949 -0.1996  0.0579 -0.1502
  249POPC   NC3 3410   4.375   8.423   4.758  0.1636 -0.0586 -0.1360
  249POPC   PO4 3411   4.078   8.009   4.735  0.0573 -0.1516  0.1786
  249POPC   GL1 3412   3.931   7.810   5.083  0.1285 -0.1537  0.1033
  249POPC   GL2 3413   4.070   7.531   5.048 -0.2999  0.0758  0.2892
  249POPC   C1A 3414   3.637   7.661   5.292 -0.0488 -0.0180 -0.1462
  249POPC   D2A 3415   3.379   7.647   5.648  0.3301 -0.3653  0.0709
  249POPC   C3A 3416   3.615   7.802   5.897 -0.1509 -0.2723  0.0996
  249POPC   C4A 3417   3.845   7.835   6.295  0.1581  0.2601  0.0621
  249POPC   C1B 3418   4.102   7.441   5.501 -0.1752 -0.0612  0.1287
  249POPC   C2B 3419   4.132   7.421   5.963  0.1976 -0.0620 -0.0605
  249POPC   C3B 3420   4.429   7.573   6.256  0.1367 -0.0429 -0.0057
  249POPC   C4B 3421   4.831   7.609   6.268  0.0573 -0.0166 -0.0791
  250POPC   NC3 3422   4.401   0.380   4.982 -0.3233  0.0940  0.3209
  250POPC   PO4 3423   4.185   0.172   5.316 -0.2988  0.1058 -0.0488
  250POPC   GL1 3424   4.103   0.186   5.703 -0.0362  0.2280  0.1321
  250POPC   GL2 3425   4.087   0.450   5.812  0.3737 -0.2134 -0.3637
  250POPC   C1A 3426   4.268  -0.101   5.939  0.2393  0.3774 -0.1143
  250POPC   D2A 3427   4.191  -0.382   6.286 -0.0119 -0.2326 -0.0344
  250POPC   C3A 3428   3.908  -0.659   6.467  0.0486 -0.1495  0.0452
  250POPC   C4A 3429   3.965  -1.008   6.877  0.3660  0.1741  0.1906
  250POPC   C1B 3430   3.747   0.615   6.047 -0.0676 -0.1346  0.0046
  250POPC   C2B 3431   3.326   0.506   6.140 -0.4067  0.1727  0.1277
  250POPC   C3B 3432   3.303   0.093   6.346  0.0220  0.0901  0.1215
  250POPC   C4B 3433   3.231  -0.132   6.577  0.0341  0.2415  0.1090
  251POPC   NC3 3434   3.080   2.092   4.540 -0.0837  0.0793  0.0689
  251POPC   PO4 3435   3.548   2.220   4.680  0.3920 -0.0828  0.1069
  251POPC   GL1 3436   3.446   2.297   5.138  0.3833 -0.1685  0.0043
  251POPC   GL2 3437   3.244   2.599   5.303 -0.0633  0.3024  0.1731
  251POPC   C1A 3438   3.312   2.123   5.609 -0.1240 -0.2082  0.0453
  251POPC   D2A 3439   2.983   2.230   5.852  0.0503 -0.0376 -0.1578
  251POPC   C3A 3440   2.918   2.418   6.268 -0.1323 -0.1568  0.4041
  251POPC   C4A 3441   3.214   2.462   6.563  0.0577 -0.3017 -0.0431
  251POPC   C1B 3442   3.341   2.765   5.682  0.1153  0.0081 -0.2328
  251POPC   C2B 3443   3.401   2.548   6.061  0.1525  0.3291  0.2846
  251POPC   C3B 3444   3.691   2.401   6.376  0.4123  0.0640  0.3659
  251POPC   C4B 3445   3.659   2.344   6.810  0.1795  0.1114  0.2451
  252POPC   NC3 3446   5.039   7.661   4.573  0.0097  0.1297 -0.0887
  252POPC   PO4 3447   4.662   7.495   4.349  0.0461 -0.1069  0.2659
  252POPC   GL1 3448   4.608   7.380   4.824  0.0134  0.0945  0.1013
  252POPC   GL2 3449   4.894   7.260   4.924  0.4577  0.0652  0.4271
  252POPC   C1A 3450   4.545   7.564   5.224  0.0487  0.0429  0.2383
  252POPC   D2A 3451   4.358   7.976   5.468  0.2939 -0.1078  0.2647
  252POPC   C3A 3452   4.036   7.966   5.528 -0.2174  0.3305  0.1874
  252POPC   C4A 3453   3.603   8.130   5.524  0.0842 -0.1847  0.2189
  252POPC   C1B 3454   5.117   6.781   5.000 -0.0374 -0.0752 -0.1859
  252POPC   C2B 3455   5.442   6.800   5.337 -0.2293 -0.0512 -0.1535
  252POPC   C3B 3456   5.351   6.601   5.760 -0.1797  0.0839 -0.2581
  252POPC   C4B 3457   5.423   6.760   6.100 -0.0743 -0.0468 -0.0978
  253POPC   NC3 3458   3.375   6.293   3.943  0.3182  0.2592 -0.1886
  253POPC   PO4 3459   3.020   6.125   4.283  0.0600  0.1940  0.0826
  253POPC   GL1 3460   3.030   6.038   4.664 -0.3334  0.1015  0.0722
  253POPC   GL2 3461   2.840   5.878   4.874  0.1063  0.0264  0.3952
  253POPC   C1A 3462   3.307   6.221   4.964 -0.2956  0.2890  0.0123
  253POPC   D2A 3463   3.625   6.442   5.017  0.0522  0.1715  0.4123
  253POPC   C3A 3464   3.578   6.499   5.381 -0.0362  0.0018 -0.0217
  253POPC   C4A 3465   3.528   6.730   5.737  0.2819 -0.1983 -0.1325
  253POPC   C1B 3466   3.054   5.983   5.331 -0.2885  0.2737 -0.0473
  253POPC   C2B 3467   3.386   6.059   5.566 -0.1498 -0.1889  0.1627
  253POPC   C3B 3468   3.521   6.077   6.055 -0.1506  0.2542  0.3777
  253POPC   C4B 3469   3.791   5.995   6.405 -0.1436 -0.2236  0.0699
  254POPC   NC3 3470   3.373   5.415   4.059 -0.2150 -0.1892 -0.0726
  254POPC   PO4 3471   3.374   5.020   4.121  0.0139 -0.0036 -0.5258
  254POPC   GL1 3472   3.342   5.032   4.611 -0.0444  0.2069 -0.0948
  254POPC   GL2 3473   3.596   5.211   4.870  0.0158  0.0449  0.1103
  254POPC   C1A 3474   3.106   5.090   5.011 -0.3190  0.1373  0.1240
  254POPC   D2A 3475   2.817   4.906   5.295  0.0096  0.1122  0.1058
  254POPC   C3A 3476   2.827   4.703   5.707  0.0056  0.1158 -0.1722
  254POPC   C4A 3477   2.888   4.253   5.921  0.4399  0.3062 -0.1439
  254POPC   C1B 3478   3.928   5.298   5.280  0.0563 -0.2049 -0.0010
  254POPC   C2B 3479   3.694   5.307   5.685  0.1017  0.1428 -0.0846
  254POPC   C3B 3480   3.411   5.556   5.820 -0.3670  0.2548  0.2805
  254POPC   C4B 3481   3.012   5.775   5.781  0.0702 -0.0753 -0.1462
  255POPC   NC3 3482   9.085   7.372   4.522 -0.0229 -0.0765  0.1074
  255POPC   PO4 3483   9.523   7.475   4.530  0.0939 -0.0135 -0.1591
  255POPC   GL1 3484   9.355   7.436   4.972 -0.4059  0.1497 -0.0196
  255POPC   GL2 3485   8.981   7.448   5.004 -0.1012  0.5222 -0.1664
  255POPC   C1A 3486   9.404   7.405   5.424 -0.0304 -0.0469  0.1544
  255POPC   D2A 3487   9.023   7.322   5.725  0.0945 -0.0272  0.1341
  255POPC   C3A 3488   8.765   7.676   5.785 -0.0005 -0.0241 -0.4428
  255POPC   C4A 3489   8.262   7.858   5.772  0.0647 -0.3276  0.1662
  255POPC   C1B 3490   9.040   7.746   5.354 -0.0046  0.3936 -0.3502
  255POPC   C2B 3491   9.206   7.791   5.750 -0.1189 -0.1563 -0.3568
  255POPC   C3B 3492   9.172   8.093   6.109 -0.0304 -0.2381 -0.0510
  255POPC   C4B 3493   9.161   8.513   6.312  0.1068 -0.0038 -0.3527
  256POPC   NC3 3494   9.230   3.545   3.770 -0.0700 -0.0977 -0.0898
  256POPC   PO4 3495   9.587   3.672   3.999 -0.2033 -0.0676 -0.0848
  256POPC   GL1 3496   9.486   3.354   4.229  0.0641  0.0220  0.0158
  256POPC   GL2 3497   9.256   3.478   4.514  0.0849 -0.3331  0.0768
  256POPC   C1A 3498   9.560   3.166   4.633 -0.2237 -0.0355  0.1302
  256POPC   D2A 3499   9.668   2.965   5.000  0.0732 -0.1317  0.0327
  256POPC   C3A 3500  10.000   2.600   5.120  0.0168  0.4085  0.0049
  256POPC   C4A 3501  10.175   2.514   5.524 -0.1181 -0.1331  0.1626
  256POPC   C1B 3502   8.871   3.446   4.321 -0.2820 -0.1002 -0.1153
  256POPC   C2B 3503   8.495   3.342   4.419  0.0697  0.0651 -0.1413
  256POPC   C3B 3504   8.254   3.352   4.674  0.1397 -0.0038  0.0579
  256POPC   C4B 3505   8.245   3.431   5.095 -0.1654 -0.0710  0.0430
  257POPC   NC3 3506   6.481   0.241   3.932 -0.0664 -0.2686  0.3802
  257POPC   PO4 3507   6.409   0.044   4.378  0.3361 -0.1220 -0.2103
  257POPC   GL1 3508   6.420  -0.186   4.832  0.1868 -0.3749 -0.2851
  257POPC   GL2 3509   6.172  -0.232   5.131  0.0800 -0.0067 -0.2678
  257POPC   C1A 3510   6.642  -0.282   5.258  0.2559  0.2033 -0.3425
  257POPC   D2A 3511   6.814  -0.389   5.710  0.1486 -0.0342 -0.0104
  257POPC   C3A 3512   6.768  -0.185   6.226 -0.1261  0.1996  0.0990
  257POPC   C4A 3513   6.722   0.126   6.430 -0.1813 -0.1112  0.1779
  257POPC   C1B 3514   6.015   0.079   5.488 -0.0331  0.2387  0.1055
  257POPC   C2B 3515   5.896  -0.070   5.888  0.0830 -0.0923  0.1970
  257POPC   C3B 3516   5.693  -0.127   6.192 -0.2540  0.1335 -0.1736
  257POPC   C4B 3517   5.378  -0.381   6.454 -0.1694  0.0216 -0.3466
  258POPC   NC3 3518   0.114   1.501   3.570  0.0549  0.0066  0.0849
  258POPC   PO4 3519   0.582   1.467   3.687  0.0803 -0.1577  0.0214
  258POPC   GL1 3520   0.515   1.644   4.191  0.0669  0.4623 -0.0014
  258POPC   GL2 3521   0.225   1.887   4.042  0.1232  0.1778 -0.0055
  258POPC   C1A 3522   0.557   1.419   4.510  0.1981 -0.2479 -0.0583
  258POPC   D2A 3523   0.472   1.275   4.924 -0.0049  0.4364 -0.1514
  258POPC   C3A 3524   0.631   1.195   5.367 -0.1825 -0.0732  0.1076
  258POPC   C4A 3525   0.828   1.182   5.654  0.3232  0.0549 -0.3417
  258POPC   C1B 3526   0.124   1.842   4.491  0.4017  0.0747 -0.1634
  258POPC   C2B 3527  -0.058   1.708   4.892  0.0019  0.1156  0.2539
  258POPC   C3B 3528  -0.494   1.618   5.252  0.0193 -0.0495 -0.0553
  258POPC   C4B 3529  -0.529   1.866   5.583  0.0979  0.1507  0.4222
  259POPC   NC3 3530   7.945   8.064   4.642 -0.1167  0.1024  0.0767
  259POPC   PO4 3531   8.378   8.046   4.479  0.0353  0.0848  0.3166
  259POPC   GL1 3532   8.389   8.157   4.924 -0.0907  0.1726 -0.0347
  259POPC   GL2 3533   8.737   8.044   5.025  0.0502  0.0171 -0.0172
  259POPC   C1A 3534   8.183   8.373   5.275 -0.3476  0.1313  0.0164
  259POPC   D2A 3535   8.244   8.325   5.748  0.0532 -0.0977  0.0722
  259POPC   C3A 3536   8.274   8.711   6.025  0.0825  0.0997 -0.3918
  259POPC   C4A 3537   8.459   9.134   5.930  0.3543 -0.3748  0.3220
  259POPC   C1B 3538   8.536   8.015   5.398 -0.2638  0.0149  0.1502
  259POPC   C2B 3539   8.721   8.171   5.713 -0.1191  0.3694 -0.0431
  259POPC   C3B 3540   8.704   8.342   6.169  0.0838  0.3371  0.1721
  259POPC   C4B 3541   8.805   8.186   6.545  0.2508 -0.1106  0.0955
  260POPC   NC3 3542   1.459   9.052   4.400  0.0149  0.2341 -0.2521
  260POPC   PO4 3543   1.667   8.782   4.546 -0.2693  0.0157 -0.1836
  260POPC   GL1 3544   1.660   9.069   4.883  0.2505  0.2610  0.1643
  260POPC   GL2 3545   1.379   9.334   4.791 -0.1122 -0.2629 -0.1572
  260POPC   C1A 3546   1.529   9.224   5.218  0.1304 -0.0316 -0.1083
  260POPC   D2A 3547   1.458   9.139   5.650  0.1042  0.1458  0.1298
  260POPC   C3A 3548   1.503   8.697   5.764 -0.0015  0.2654 -0.0127
  260POPC   C4A 3549   1.714   8.342   6.022  0.2366 -0.0052  0.0574
  260POPC   C1B 3550   1.088   9.450   5.120 -0.0145  0.0260 -0.3634
  260POPC   C2B 3551   1.003   9.294   5.510 -0.2411 -0.2632  0.0663
  260POPC   C3B 3552   1.053   9.135   5.938  0.0836 -0.0465  0.1622
  260POPC   C4B 3553   0.972   8.976   6.352 -0.0445  0.0122 -0.0526
  261POPC   NC3 3554   7.701   2.943   3.172 -0.0224  0.1404  0.2504
  261POPC   PO4 3555   7.648   2.902   3.631  0.2060  0.0579  0.1181
  261POPC   GL1 3556   7.917   2.732   3.891 -0.0457 -0.2089 -0.2475
  261POPC   GL2 3557   7.992   2.422   4.003 -0.1006 -0.1015  0.1723
  261POPC   C1A 3558   8.301   2.757   4.051 -0.1474  0.2864  0.1328
  261POPC   D2A 3559   8.586   2.809   4.438 -0.0022  0.0322  0.1283
  261POPC   C3A 3560   8.744   2.520   4.677  0.0760 -0.2422 -0.0306
  261POPC   C4A 3561   8.895   2.457   5.146  0.2037 -0.0955  0.2666
  261POPC   C1B 3562   8.415   2.278   4.234  0.0812 -0.2385  0.1496
  261POPC   C2B 3563   8.500   2.032   4.611 -0.1789 -0.1607 -0.0090
  261POPC   C3B 3564   8.107   2.060   4.825  0.2997 -0.0394  0.1174
  261POPC   C4B 3565   7.899   2.140   5.211  0.1702 -0.1664 -0.1188
  262POPC   NC3 3566   4.346   6.165   3.948 -0.4906  0.0130  0.0772
  262POPC   PO4 3567   4.023   6.411   3.876 -0.0687 -0.2053 -0.0884
  262POPC   GL1 3568   3.969   6.246   4.293 -0.0907  0.1423 -0.0351
  262POPC   GL2 3569   3.696   6.400   4.463 -0.2194 -0.0695  0.0458
  262POPC   C1A 3570   4.105   6.157   4.686 -0.1352 -0.0941 -0.1497
  262POPC   D2A 3571   4.122   6.566   4.851 -0.1342  0.2254  0.1566
  262POPC   C3A 3572   4.073   6.477   5.283  0.1531  0.0942 -0.1092
  262POPC   C4A 3573   3.882   6.329   5.691  0.2784  0.0503 -0.1326
  262POPC   C1B 3574   3.627   5.977   4.666  0.1429  0.2046  0.0190
  262POPC   C2B 3575   3.493   5.728   4.959 -0.0437 -0.0286 -0.2202
  262POPC   C3B 3576   3.328   5.513   5.246 -0.2161  0.3031  0.0482
  262POPC   C4B 3577   3.241   5.189   5.471 -0.1584  0.0936 -0.2314
  263POPC   NC3 3578   0.182   6.858   4.870  0.2115 -0.0113  0.1137
  263POPC   PO4 3579   0.358   7.133   5.109  0.0218  0.1038  0.0118
  263POPC   GL1 3580   0.079   7.271   5.498  0.0812 -0.0761 -0.0699
  263POPC   GL2 3581   0.166   7.583   5.492 -0.0885  0.0946 -0.3254
  263POPC   C1A 3582  -0.221   7.361   5.854  0.0190  0.1125 -0.1083
  263POPC   D2A 3583  -0.564   7.583   6.148  0.0842  0.0806 -0.1623
  263POPC   C3A 3584  -1.020   7.536   6.312  0.1186 -0.1024  0.1641
  263POPC   C4A 3585  -1.280   7.220   6.536 -0.0554 -0.3042  0.0382
  263POPC   C1B 3586   0.402   7.418   5.800  0.0431  0.1077 -0.0385
  263POPC   C2B 3587   0.630   7.632   6.073 -0.1752  0.1225 -0.1473
  263POPC   C3B 3588   0.838   7.827   6.468 -0.0677  0.1505 -0.0405
  263POPC   C4B 3589   1.275   7.947   6.573 -0.0122 -0.0764 -0.0660
  264POPC   NC3 3590   3.518   4.557   4.223  0.1529  0.2167 -0.3449
  264POPC   PO4 3591   3.733   4.176   4.419 -0.1895  0.1256 -0.2052
  264POPC   GL1 3592   3.369   4.394   4.659 -0.0545 -0.0335 -0.1508
  264POPC   GL2 3593   3.085   4.324   4.802 -0.2538 -0.0307 -0.1675
  264POPC   C1A 3594   3.386   4.684   4.969  0.1292 -0.0095 -0.5204
  264POPC   D2A 3595   3.635   4.931   5.280 -0.0278  0.2417 -0.2567
  264POPC   C3A 3596   3.730   4.671   5.656 -0.1230 -0.1932  0.2137
  264POPC   C4A 3597   3.967   4.267   5.978 -0.2547 -0.0501  0.0893
  264POPC   C1B 3598   2.854   4.317   5.128 -0.0413 -0.2301  0.2160
  264POPC   C2B 3599   2.861   3.916   5.218 -0.3041 -0.0990 -0.0788
  264POPC   C3B 3600   2.664   3.916   5.555  0.2678 -0.1351  0.0616
  264POPC   C4B 3601   2.363   3.905   5.935  0.2219 -0.1197  0.0044
  265POPC   NC3 3602   4.219   1.231   5.312 -0.1159 -0.0691  0.2505
  265POPC   PO4 3603   4.520   1.007   5.418 -0.1856 -0.3924  0.0898
  265POPC   GL1 3604   4.306   0.948   5.809 -0.3209  0.2539 -0.0448
  265POPC   GL2 3605   4.022   1.006   5.750  0.2082  0.1488 -0.3788
  265POPC   C1A 3606   4.480   0.689   6.100 -0.1618  0.0821 -0.2238
  265POPC   D2A 3607   4.246   0.391   6.257 -0.0158 -0.0048 -0.2310
  265POPC   C3A 3608   4.358   0.051   6.438  0.0035 -0.0884 -0.1447
  265POPC   C4A 3609   4.520  -0.256   6.766  0.3205  0.0842  0.0100
  265POPC   C1B 3610   4.170   0.993   6.316  0.2021  0.0477  0.1963
  265POPC   C2B 3611   4.138   1.042   6.670 -0.1064  0.3893 -0.2168
  265POPC   C3B 3612   4.334   1.115   7.106  0.0277  0.2941  0.0409
  265POPC   C4B 3613   4.547   1.303   7.369  0.3818  0.0297  0.0523
  266POPC   NC3 3614   1.752   2.607   3.928  0.0102 -0.0088 -0.0759
  266POPC   PO4 3615   1.776   2.168   4.012  0.0031  0.2961  0.1288
  266POPC   GL1 3616   1.848   2.246   4.448 -0.0579  0.2848  0.2377
  266POPC   GL2 3617   1.977   1.943   4.749  0.2244 -0.0115 -0.0365
  266POPC   C1A 3618   1.650   2.359   4.791 -0.1590 -0.0417 -0.0572
  266POPC   D2A 3619   1.409   2.208   5.078 -0.1176  0.0504 -0.1792
  266POPC   C3A 3620   1.136   2.379   5.419  0.0752  0.0002  0.0912
  266POPC   C4A 3621   0.893   2.123   5.694  0.1757  0.0405  0.1866
  266POPC   C1B 3622   1.860   1.991   5.149 -0.1004  0.1222 -0.0356
  266POPC   C2B 3623   1.805   1.884   5.511 -0.0797 -0.2743  0.1014
  266POPC   C3B 3624   1.388   1.921   5.837 -0.5799 -0.1722  0.3080
  266POPC   C4B 3625   1.204   2.300   6.034  0.0940  0.2078 -0.0563
  267POPC   NC3 3626   2.424   7.604   4.088  0.0854 -0.2400  0.1847
  267POPC   PO4 3627   2.352   7.226   4.137 -0.3897  0.0330  0.0854
  267POPC   GL1 3628   2.496   7.028   4.637  0.0238  0.2315  0.0125
  267POPC   GL2 3629   2.482   6.766   4.830  0.1122  0.0170  0.0594
  267POPC   C1A 3630   2.854   7.222   4.897 -0.1358 -0.0297  0.1428
  267POPC   D2A 3631   3.164   7.498   5.125  0.2757 -0.0945  0.3286
  267POPC   C3A 3632   3.421   7.228   5.447  0.2939 -0.2555 -0.0603
  267POPC   C4A 3633   3.650   7.248   5.778 -0.0247 -0.1356  0.0285
  267POPC   C1B 3634   2.536   6.997   5.180  0.0150 -0.0475 -0.0814
  267POPC   C2B 3635   2.442   7.055   5.526  0.0717  0.0189 -0.1994
  267POPC   C3B 3636   2.321   6.833   5.862 -0.1722  0.1179 -0.0120
  267POPC   C4B 3637   2.240   6.981   6.361 -0.1311 -0.2272  0.0848
  268POPC   NC3 3638   0.003   5.542   4.629 -0.0560 -0.2587  0.0764
  268POPC   PO4 3639  -0.290   5.313   4.912  0.1987 -0.2111  0.1931
  268POPC   GL1 3640  -0.341   5.196   5.283  0.2329 -0.0553  0.0544
  268POPC   GL2 3641  -0.044   4.960   5.172 -0.0215  0.1569 -0.2482
  268POPC   C1A 3642  -0.272   4.977   5.720  0.0870  0.0741 -0.2039
  268POPC   D2A 3643  -0.627   4.710   5.912  0.3315 -0.2587 -0.1161
  268POPC   C3A 3644  -1.086   4.693   5.837 -0.1716 -0.1831 -0.0133
  268POPC   C4A 3645  -1.414   4.971   5.614 -0.3526  0.0016  0.3925
  268POPC   C1B 3646   0.094   5.245   5.546 -0.3247 -0.0797 -0.4331
  268POPC   C2B 3647   0.414   5.195   5.854 -0.3659 -0.1147  0.1768
  268POPC   C3B 3648   0.765   5.188   6.192  0.0554  0.1919 -0.0878
  268POPC   C4B 3649   1.084   5.018   6.009  0.0831  0.0509  0.2114
  269POPC   NC3 3650   3.622   2.753   4.690 -0.0092  0.0749 -0.2742
  269POPC   PO4 3651   3.600   3.220   4.459  0.2882 -0.0810  0.0235
  269POPC   GL1 3652   3.748   3.216   4.913 -0.3639 -0.0441 -0.1502
  269POPC   GL2 3653   3.758   3.606   5.032  0.0706 -0.1901 -0.3461
  269POPC   C1A 3654   3.877   3.138   5.348  0.3934  0.0903  0.1302
  269POPC   D2A 3655   4.040   2.944   5.664  0.1380  0.2750 -0.0546
  269POPC   C3A 3656   3.803   2.806   6.006  0.1410 -0.1044 -0.0853
  269POPC   C4A 3657   3.364   2.898   6.397 -0.0552  0.2259  0.1510
  269POPC   C1B 3658   3.722   3.602   5.485  0.1468  0.2099 -0.2149
  269POPC   C2B 3659   3.698   3.842   5.887 -0.3499 -0.0052 -0.0669
  269POPC   C3B 3660   3.533   4.046   6.331 -0.0994  0.1531  0.2181
  269POPC   C4B 3661   3.287   3.780   6.484  0.2883 -0.0667  0.1139
  270POPC   NC3 3662   0.030   4.021   4.067  0.1514 -0.3712 -0.0096
  270POPC   PO4 3663   0.420   4.253   4.191 -0.0986 -0.1410  0.1163
  270POPC   GL1 3664   0.238   4.127   4.548 -0.0639  0.0172  0.2219
  270POPC   GL2 3665   0.065   4.428   4.699 -0.0580  0.0183 -0.2128
  270POPC   C1A 3666   0.015   4.000   4.996 -0.2548 -0.1538 -0.3128
  270POPC   D2A 3667   0.236   3.747   5.292  0.1198 -0.0880  0.0543
  270POPC   C3A 3668   0.194   3.459   5.541 -0.1398 -0.0163  0.1495
  270POPC   C4A 3669   0.350   3.344   5.799 -0.1604 -0.1684  0.0011
  270POPC   C1B 3670   0.116   4.496   5.099 -0.0308  0.0583  0.0396
  270POPC   C2B 3671   0.179   4.676   5.515  0.0583 -0.0597 -0.0729
  270POPC   C3B 3672   0.110   4.760   5.976  0.1126 -0.1978  0.1083
  270POPC   C4B 3673  -0.205   4.844   6.224  0.0309  0.0098 -0.1988
  271POPC   NC3 3674   4.740   7.273   3.872 -0.0709 -0.0263  0.2232
  271POPC   PO4 3675   4.648   7.026   4.191 -0.1426 -0.0077 -0.0116
  271POPC   GL1 3676   4.458   7.012   4.552  0.2519 -0.4531 -0.0074
  271POPC   GL2 3677   4.605   6.874   4.759 -0.3670  0.2502 -0.2890
  271POPC   C1A 3678   4.153   7.093   4.810 -0.3677  0.1782  0.3190
  271POPC   D2A 3679   4.309   7.041   5.276  0.0780  0.0651  0.0077
  271POPC   C3A 3680   4.663   7.118   5.397  0.0125  0.1264  0.1980
  271POPC   C4A 3681   4.909   6.866   5.672  0.1594 -0.1396 -0.4207
  271POPC   C1B 3682   4.574   6.650   5.204 -0.1574  0.2302  0.1620
  271POPC   C2B 3683   4.413   6.578   5.631  0.0342 -0.2681  0.2283
  271POPC   C3B 3684   4.454   6.568   6.093  0.1095 -0.1940 -0.1802
  271POPC   C4B 3685   4.580   6.629   6.430 -0.0971  0.2722 -0.2791
  272POPC   NC3 3686   9.313   6.245   4.439 -0.0116  0.1039 -0.1268
  272POPC   PO4 3687   9.176   6.532   4.636  0.1627  0.2640 -0.0860
  272POPC   GL1 3688   9.008   6.507   5.050 -0.0702 -0.0001  0.1719
  272POPC   GL2 3689   9.063   6.744   5.244 -0.0217  0.0433  0.0443
  272POPC   C1A 3690   8.960   6.209   5.343  0.2092  0.1365  0.1692
  272POPC   D2A 3691   9.227   5.956   5.574  0.1261 -0.0990  0.1359
  272POPC   C3A 3692   9.557   5.954   5.814 -0.0705 -0.3449 -0.3167
  272POPC   C4A 3693   9.939   5.840   5.968  0.0954  0.1185  0.1559
  272POPC   C1B 3694   9.329   6.901   5.474 -0.0829  0.2700  0.0393
  272POPC   C2B 3695   9.400   7.015   5.926 -0.0293 -0.2756  0.4080
  272POPC   C3B 3696   9.622   7.141   6.243  0.1638 -0.1473 -0.0094
  272POPC   C4B 3697   9.920   7.561   6.328  0.0917 -0.0340  0.0019
  273POPC   NC3 3698   7.014   2.174   3.302  0.2176  0.1578 -0.3072
  273POPC   PO4 3699   6.977   2.137   3.721  0.0539 -0.0534 -0.0908
  273POPC   GL1 3700   7.230   2.164   4.130 -0.1068 -0.1732 -0.1689
  273POPC   GL2 3701   7.585   1.951   4.120  0.3912  0.0565  0.2552
  273POPC   C1A 3702   7.339   2.192   4.558 -0.0995 -0.2333  0.2220
  273POPC   D2A 3703   7.239   2.013   4.933 -0.1807  0.1564  0.0962
  273POPC   C3A 3704   7.208   1.637   4.957  0.2882 -0.2836 -0.1892
  273POPC   C4A 3705   7.147   1.292   5.168  0.2678  0.0575  0.0817
  273POPC   C1B 3706   7.739   1.866   4.434  0.2486  0.0643  0.1216
  273POPC   C2B 3707   7.678   1.756   4.849  0.3112 -0.0741 -0.1420
  273POPC   C3B 3708   7.603   1.454   5.225 -0.4744  0.0341 -0.0268
  273POPC   C4B 3709   7.303   1.389   5.594  0.2316  0.0673 -0.3431
  274POPC   NC3 3710   5.968   6.125   4.606 -0.1417  0.1152 -0.1587
  274POPC   PO4 3711   6.360   5.950   4.592  0.0629  0.1107 -0.3633
  274POPC   GL1 3712   6.043   5.700   4.896  0.2699 -0.4290  0.1739
  274POPC   GL2 3713   5.872   5.868   5.019 -0.1924 -0.2269 -0.4052
  274POPC   C1A 3714   5.991   5.418   5.259  0.1251 -0.1175 -0.1381
  274POPC   D2A 3715   6.067   5.174   5.608  0.0120 -0.2044  0.2886
  274POPC   C3A 3716   6.214   5.054   6.006 -0.0102  0.2182 -0.2812
  274POPC   C4A 3717   6.352   4.966   6.491 -0.1302 -0.2258  0.0776
  274POPC   C1B 3718   5.939   5.848   5.438  0.1794 -0.1651 -0.2817
  274POPC   C2B 3719   5.899   5.980   5.947  0.0320  0.0053 -0.0322
  274POPC   C3B 3720   5.842   5.846   6.381  0.1204 -0.0713  0.1506
  274POPC   C4B 3721   5.569   5.526   6.638 -0.0251 -0.1815 -0.0197
  275POPC   NC3 3722   3.662   3.748   4.097 -0.1496 -0.0576 -0.0903
  275POPC   PO4 3723   3.241   3.548   4.205  0.1167 -0.1107 -0.1865
  275POPC   GL1 3724   3.379   3.622   4.625  0.2761 -0.5030  0.0438
  275POPC   GL2 3725   3.472   3.952   4.815 -0.1271 -0.0169  0.0071
  275POPC   C1A 3726   3.251   3.575   5.046  0.0558  0.1621  0.1203
  275POPC   D2A 3727   3.212   3.616   5.526 -0.1333 -0.1961 -0.2054
  275POPC   C3A 3728   3.249   3.976   5.696  0.1072  0.0829  0.3181
  275POPC   C4A 3729   3.364   4.367   5.952  0.0785  0.0535 -0.1260
  275POPC   C1B 3730   3.341   4.109   5.187  0.0264  0.0474  0.1647
  275POPC   C2B 3731   3.296   4.583   5.435  0.0325 -0.0585 -0.0422
  275POPC   C3B 3732   3.299   4.902   5.862 -0.0665  0.1389 -0.1555
  275POPC   C4B 3733   3.306   5.220   6.254 -0.0387 -0.1629 -0.1058
  276POPC   NC3 3734   8.656   7.713   4.224 -0.0813 -0.3510  0.0162
  276POPC   PO4 3735   8.714   7.684   4.678  0.2105  0.0848  0.4298
  276POPC   GL1 3736   8.397   7.657   4.989  0.2373  0.0347  0.2052
  276POPC   GL2 3737   8.554   7.583   5.207 -0.0126 -0.2745 -0.1948
  276POPC   C1A 3738   8.136   7.843   5.211  0.0100  0.2470 -0.2701
  276POPC   D2A 3739   7.754   8.064   5.259  0.1772 -0.0230 -0.1679
  276POPC   C3A 3740   7.805   8.112   5.644  0.0732 -0.2301 -0.3227
  276POPC   C4A 3741   7.774   8.403   6.046  0.0394 -0.1278  0.1483
  276POPC   C1B 3742   8.244   7.449   5.493 -0.1584  0.2792  0.0056
  276POPC   C2B 3743   8.375   7.272   5.893  0.0437  0.0745  0.1628
  276POPC   C3B 3744   8.426   7.610   6.261  0.0739 -0.0078  0.4184
  276POPC   C4B 3745   8.178   7.663   6.539  0.0738  0.2425  0.0235
  277POPC   NC3 3746   7.237   2.648   4.003  0.0925  0.1658  0.0377
  277POPC   PO4 3747   6.927   2.916   4.017  0.0024  0.2616 -0.1040
  277POPC   GL1 3748   7.181   2.934   4.378  0.0840 -0.1440 -0.0813
  277POPC   GL2 3749   6.927   3.026   4.602 -0.0563 -0.0873 -0.1008
  277POPC   C1A 3750   7.374   2.803   4.719 -0.1382  0.2902  0.1979
  277POPC   D2A 3751   7.316   3.066   5.084  0.3126 -0.2976 -0.1414
  277POPC   C3A 3752   7.120   2.737   5.390  0.2365  0.6047 -0.0179
  277POPC   C4A 3753   7.379   2.558   5.638  0.1709  0.0122 -0.0533
  277POPC   C1B 3754   6.874   2.657   4.851  0.0983 -0.1041  0.4410
  277POPC   C2B 3755   6.797   2.376   5.139  0.0595  0.0640 -0.1653
  277POPC   C3B 3756   6.615   1.992   5.226 -0.3641 -0.1278  0.0189
  277POPC   C4B 3757   6.500   1.894   5.625 -0.2047  0.1889 -0.1012
  278POPC   NC3 3758   3.996   2.467   4.425 -0.2805  0.0887  0.1256
  278POPC   PO4 3759   4.151   2.727   4.648  0.0099  0.1759  0.2196
  278POPC   GL1 3760   4.034   2.788   5.107  0.0339 -0.0512  0.0629
  278POPC   GL2 3761   4.365   2.939   5.125 -0.2612  0.3480  0.0969
  278POPC   C1A 3762   3.713   2.579   5.412 -0.2929 -0.2485  0.0481
  278POPC   D2A 3763   3.776   2.321   5.854  0.1314  0.1658 -0.1706
  278POPC   C3A 3764   4.252   2.556   6.007 -0.4745 -0.1733 -0.0638
  278POPC   C4A 3765   4.654   2.675   6.211  0.1033 -0.1301 -0.1072
  278POPC   C1B 3766   4.207   3.364   5.069  0.0709 -0.1113  0.0654
  278POPC   C2B 3767   4.484   3.678   4.958  0.1472 -0.1635 -0.0885
  278POPC   C3B 3768   4.746   4.015   5.013  0.0612  0.1563  0.3924
  278POPC   C4B 3769   5.192   4.022   5.197  0.3182 -0.0898  0.2253
  279POPC   NC3 3770   9.074   0.609   2.993 -0.0505  0.0003  0.0054
  279POPC   PO4 3771   9.305   1.003   3.069  0.0856 -0.3149  0.1454
  279POPC   GL1 3772   9.242   1.357   3.340 -0.1116  0.3135  0.0378
  279POPC   GL2 3773   8.886   1.312   3.279  0.0665  0.3438  0.1894
  279POPC   C1A 3774   9.416   1.428   3.736 -0.0606 -0.1064 -0.2145
  279POPC   D2A 3775   9.725   1.627   4.002 -0.0234  0.4971  0.0507
  279POPC   C3A 3776  10.086   1.377   4.181 -0.1205  0.0798  0.0638
  279POPC   C4A 3777  10.231   1.055   4.434 -0.0718 -0.1170  0.1724
  279POPC   C1B 3778   8.930   1.547   3.712  0.0078  0.1773 -0.4246
  279POPC   C2B 3779   9.099   1.347   4.108  0.0819  0.2327  0.0918
  279POPC   C3B 3780   9.409   1.419   4.306 -0.0745 -0.1357 -0.0197
  279POPC   C4B 3781   9.533   1.815   4.494 -0.1473 -0.1778  0.0012
  280POPC   NC3 3782   5.323   9.584   4.821  0.1702  0.5104  0.0245
  280POPC   PO4 3783   5.750   9.489   4.915 -0.0098 -0.0585  0.2207
  280POPC   GL1 3784   5.531   9.627   5.252  0.6022  0.0167 -0.1586
  280POPC   GL2 3785   5.382   9.348   5.275  0.1024 -0.1867 -0.3625
  280POPC   C1A 3786   5.443   9.997   5.568 -0.2865 -0.0539  0.2269
  280POPC   D2A 3787   5.248  10.420   5.572 -0.1570 -0.0058  0.0240
  280POPC   C3A 3788   5.044  10.646   5.944  0.3604 -0.0138 -0.1289
  280POPC   C4A 3789   4.877  10.843   6.231  0.2591  0.2099 -0.4546
  280POPC   C1B 3790   5.507   9.150   5.704  0.2066  0.2959 -0.0060
  280POPC   C2B 3791   5.622   9.254   6.148  0.0532 -0.0181  0.1972
  280POPC   C3B 3792   5.858   9.425   6.466  0.0244 -0.1023  0.0569
  280POPC   C4B 3793   5.855   9.717   6.668  0.0821  0.1292  0.0361
  281POPC   NC3 3794   5.677   5.610   4.484  0.0668  0.2110  0.2284
  281POPC   PO4 3795   5.599   5.223   4.443 -0.1661 -0.2558 -0.1269
  281POPC   GL1 3796   5.732   5.276   4.864  0.0310  0.0556  0.4953
  281POPC   GL2 3797   5.830   4.940   5.071 -0.0429 -0.0958 -0.0980
  281POPC   C1A 3798   5.546   5.269   5.277  0.1009 -0.1688 -0.2055
  281POPC   D2A 3799   5.234   5.275   5.689  0.3185  0.2344  0.0278
  281POPC   C3A 3800   5.094   5.247   6.038 -0.1066 -0.2550 -0.0048
  281POPC   C4A 3801   5.118   5.326   6.377  0.3043  0.1872 -0.2427
  281POPC   C1B 3802   5.624   4.821   5.546 -0.0856  0.2475 -0.2060
  281POPC   C2B 3803   5.626   5.028   5.950 -0.1775 -0.2163 -0.0503
  281POPC   C3B 3804   5.540   5.080   6.362 -0.2396 -0.2189  0.0303
  281POPC   C4B 3805   5.386   5.001   6.745  0.1087  0.1357 -0.1470
  282POPC   NC3 3806   2.383   8.721   5.053 -0.0697 -0.2546 -0.0297
  282POPC   PO4 3807   2.560   9.161   5.039 -0.3004 -0.1247  0.0483
  282POPC   GL1 3808   2.609   8.960   5.466  0.2104 -0.1416 -0.0957
  282POPC   GL2 3809   2.377   8.890   5.535 -0.0945 -0.1510  0.1683
  282POPC   C1A 3810   2.883   8.772   5.693 -0.2490 -0.0808 -0.1855
  282POPC   D2A 3811   3.188   8.929   5.907  0.0810 -0.1649  0.1769
  282POPC   C3A 3812   3.561   9.061   6.016  0.2644  0.0291  0.1982
  282POPC   C4A 3813   4.018   9.074   5.976 -0.1143  0.1845 -0.0893
  282POPC   C1B 3814   2.553   9.076   5.946 -0.2838 -0.3700  0.0876
  282POPC   C2B 3815   2.591   8.845   6.366  0.2530 -0.1577 -0.1142
  282POPC   C3B 3816   2.823   8.855   6.696 -0.1181 -0.0163 -0.0199
  282POPC   C4B 3817   3.024   8.845   7.172 -0.0351  0.2705  0.0496
  283POPC   NC3 3818   0.635   8.678   4.486  0.0948 -0.2736  0.0356
  283POPC   PO4 3819   0.893   8.513   4.734 -0.3103 -0.0474 -0.2909
  283POPC   GL1 3820   0.868   8.534   5.096  0.2693 -0.0333  0.2232
  283POPC   GL2 3821   1.105   8.283   5.247 -0.1088  0.1810 -0.0468
  283POPC   C1A 3822   1.002   8.773   5.482 -0.1540  0.1987 -0.0688
  283POPC   D2A 3823   0.966   8.635   5.971 -0.0017  0.1427  0.1133
  283POPC   C3A 3824   1.289   8.609   6.226 -0.3875  0.1041  0.0347
  283POPC   C4A 3825   1.732   8.705   6.349  0.1146  0.0412 -0.3202
  283POPC   C1B 3826   0.676   8.394   5.580  0.0131 -0.0018  0.0229
  283POPC   C2B 3827   0.514   8.458   5.999  0.0159 -0.3878  0.2529
  283POPC   C3B 3828   0.188   8.536   6.258  0.2130 -0.0324  0.0673
  283POPC   C4B 3829   0.076   8.956   6.088 -0.0070 -0.2185 -0.1391
  284POPC   NC3 3830   0.130   2.781   3.368 -0.0939  0.0220 -0.1029
  284POPC   PO4 3831   0.399   2.614   3.606 -0.2393  0.3735  0.2267
  284POPC   GL1 3832   0.342   2.387   3.976  0.0993  0.0517 -0.3037
  284POPC   GL2 3833   0.481   2.174   4.351 -0.0863  0.0707  0.3808
  284POPC   C1A 3834   0.239   2.568   4.390  0.0398 -0.0934 -0.4436
  284POPC   D2A 3835   0.143   2.963   4.679  0.1839  0.0180 -0.0628
  284POPC   C3A 3836   0.412   3.380   4.776  0.1970 -0.0381  0.1344
  284POPC   C4A 3837   0.422   3.720   4.729 -0.1537 -0.0047 -0.3848
  284POPC   C1B 3838   0.864   1.934   4.427 -0.1904 -0.2272  0.0147
  284POPC   C2B 3839   1.024   1.712   4.788  0.1744  0.0130 -0.0716
  284POPC   C3B 3840   1.003   1.336   5.102 -0.1684 -0.1040  0.1494
  284POPC   C4B 3841   1.273   1.030   5.338  0.0146 -0.3833  0.1153
  285POPC   NC3 3842   7.914   5.924   3.970 -0.1094 -0.1801 -0.2957
  285POPC   PO4 3843   7.680   6.043   4.325 -0.3011 -0.2374 -0.3020
  285POPC   GL1 3844   7.793   6.180   4.757 -0.1034 -0.1861  0.1397
  285POPC   GL2 3845   7.542   6.423   4.978  0.2332 -0.3036  0.0414
  285POPC   C1A 3846   7.928   6.096   5.172  0.1345  0.0920  0.0363
  285POPC   D2A 3847   8.130   5.884   5.453  0.1887 -0.3952 -0.0138
  285POPC   C3A 3848   8.187   6.099   5.894  0.5717 -0.0005  0.0249
  285POPC   C4A 3849   8.391   5.922   6.169  0.0707  0.0350 -0.0859
  285POPC   C1B 3850   7.327   6.033   5.262 -0.0373  0.0814 -0.0710
  285POPC   C2B 3851   7.462   5.537   5.533 -0.2384  0.0968 -0.0903
  285POPC   C3B 3852   7.662   5.209   5.379  0.1611 -0.1684  0.1737
  285POPC   C4B 3853   7.989   4.886   5.507  0.1247 -0.2031  0.1735
  286POPC   NC3 3854   6.006   8.102   4.350 -0.1054  0.0508  0.0102
  286POPC   PO4 3855   5.659   8.260   4.631  0.1791 -0.0426  0.1503
  286POPC   GL1 3856   5.524   8.214   5.175  0.1582 -0.1561  0.0491
  286POPC   GL2 3857   5.728   7.918   5.192  0.2491  0.0663 -0.0310
  286POPC   C1A 3858   5.790   8.349   5.451 -0.0937 -0.0556  0.0670
  286POPC   D2A 3859   6.147   8.457   5.613  0.0926  0.0079  0.0983
  286POPC   C3A 3860   6.133   8.355   5.968 -0.2321  0.2702 -0.0887
  286POPC   C4A 3861   6.304   7.920   6.089  0.2441 -0.1220 -0.2492
  286POPC   C1B 3862   5.340   7.866   5.478 -0.0468 -0.0090 -0.3365
  286POPC   C2B 3863   5.117   7.819   5.931 -0.4165  0.1322 -0.1274
  286POPC   C3B 3864   5.234   7.940   6.322  0.1402  0.3124 -0.1989
  286POPC   C4B 3865   5.321   8.016   6.719 -0.0072 -0.0971  0.0849
  287POPC   NC3 3866   7.074   3.886   4.096  0.0685 -0.0293  0.1779
  287POPC   PO4 3867   6.682   3.740   4.367  0.0014 -0.3961  0.2999
  287POPC   GL1 3868   6.723   3.471   4.705  0.0272 -0.5488 -0.1166
  287POPC   GL2 3869   6.826   3.650   4.958 -0.0663 -0.1010 -0.0514
  287POPC   C1A 3870   6.859   3.175   5.097  0.0948 -0.2255  0.0384
  287POPC   D2A 3871   6.578   3.141   5.482 -0.0604 -0.0071 -0.0088
  287POPC   C3A 3872   6.603   2.914   5.743 -0.1453  0.2934 -0.0596
  287POPC   C4A 3873   6.771   2.875   6.162  0.0710  0.0585 -0.1731
  287POPC   C1B 3874   7.311   3.564   4.980 -0.1765 -0.2427  0.0993
  287POPC   C2B 3875   7.746   3.433   5.211  0.2495  0.1046 -0.0662
  287POPC   C3B 3876   7.963   3.115   5.479  0.1379  0.0459  0.2796
  287POPC   C4B 3877   8.249   2.707   5.481  0.0762 -0.2445 -0.3086
  288POPC   NC3 3878   5.168   5.658   4.462 -0.0024 -0.0817  0.1578
  288POPC   PO4 3879   5.006   6.117   4.492 -0.0517 -0.3651  0.0656
  288POPC   GL1 3880   4.874   6.058   4.815 -0.2018  0.0717  0.3026
  288POPC   GL2 3881   4.868   6.330   4.889  0.2897 -0.3972 -0.2330
  288POPC   C1A 3882   4.991   5.819   5.152  0.0348 -0.1665 -0.2141
  288POPC   D2A 3883   4.993   5.442   5.255 -0.0440  0.1377 -0.0545
  288POPC   C3A 3884   4.721   5.174   5.599 -0.0476  0.1207 -0.1981
  288POPC   C4A 3885   4.607   5.086   6.097 -0.2494 -0.1944  0.1098
  288POPC   C1B 3886   4.737   6.146   5.353 -0.0414  0.0349  0.0437
  288POPC   C2B 3887   4.823   5.834   5.599 -0.1698 -0.0229 -0.1599
  288POPC   C3B 3888   4.856   5.689   6.020 -0.0902  0.2863 -0.3687
  288POPC   C4B 3889   4.733   5.565   6.441  0.2102  0.1733 -0.1865
  289POPC   NC3 3890   0.754   0.991   3.439 -0.0163 -0.1229 -0.0817
  289POPC   PO4 3891   0.312   1.057   3.591  0.0405 -0.1968  0.0422
  289POPC   GL1 3892   0.181   0.893   3.928  0.0295  0.1862 -0.0612
  289POPC   GL2 3893  -0.113   1.131   3.841 -0.0831  0.0112  0.0915
  289POPC   C1A 3894  -0.195   0.603   4.086  0.2495  0.3915  0.0809
  289POPC   D2A 3895  -0.417   0.656   4.438  0.2656  0.2751  0.1866
  289POPC   C3A 3896  -0.432   0.381   4.706 -0.3758 -0.2485  0.0571
  289POPC   C4A 3897  -0.030   0.109   4.772  0.1055  0.1375 -0.2572
  289POPC   C1B 3898  -0.206   1.075   4.273  0.1667  0.3511 -0.3610
  289POPC   C2B 3899  -0.229   1.314   4.655 -0.1523  0.0238  0.0607
  289POPC   C3B 3900  -0.027   1.248   5.135  0.1861 -0.0978 -0.2400
  289POPC   C4B 3901   0.148   1.052   5.366  0.0327  0.1070 -0.1051
  290POPC   NC3 3902   4.415   3.841   3.859 -0.1787  0.1363  0.0624
  290POPC   PO4 3903   4.114   3.979   4.131  0.0198  0.0304  0.2621
  290POPC   GL1 3904   4.338   4.155   4.400 -0.4487 -0.2569  0.3445
  290POPC   GL2 3905   4.166   4.136   4.689  0.1026  0.0613  0.1146
  290POPC   C1A 3906   4.522   4.447   4.800 -0.0527  0.0041  0.1602
  290POPC   D2A 3907   4.417   4.385   5.249  0.0077  0.1872 -0.3688
  290POPC   C3A 3908   3.886   4.474   5.267 -0.1199  0.1895 -0.0460
  290POPC   C4A 3909   3.708   4.163   5.528 -0.1759 -0.0130  0.1691
  290POPC   C1B 3910   4.089   4.006   5.132 -0.0655 -0.1415 -0.0397
  290POPC   C2B 3911   4.172   3.740   5.405  0.1801 -0.0491 -0.1203
  290POPC   C3B 3912   4.273   3.411   5.703  0.1338 -0.1231  0.0617
  290POPC   C4B 3913   3.933   3.274   6.021  0.2664  0.1618 -0.2400
  291POPC   NC3 3914   2.529   6.189   4.129  0.2416 -0.0857  0.1293
  291POPC   PO4 3915   2.206   6.112   4.316  0.0474 -0.0960 -0.0278
  291POPC   GL1 3916   2.205   5.954   4.755 -0.1081 -0.0634 -0.2808
  291POPC   GL2 3917   1.905   6.028   4.941  0.2363  0.0493  0.2875
  291POPC   C1A 3918   2.384   5.905   5.091 -0.0205  0.4795  0.0781
  291POPC   D2A 3919   2.547   6.113   5.494 -0.1927 -0.2221  0.1395
  291POPC   C3A 3920   2.494   5.799   5.818 -0.1194  0.1897  0.1935
  291POPC   C4A 3921   2.459   5.481   6.180 -0.1614 -0.1728  0.1796
  291POPC   C1B 3922   2.012   6.199   5.312 -0.0974 -0.0437  0.3925
  291POPC   C2B 3923   1.862   6.367   5.691  0.1200  0.0150 -0.0539
  291POPC   C3B 3924   1.563   6.311   6.120  0.2320 -0.0478  0.2108
  291POPC   C4B 3925   1.159   6.501   6.365 -0.1688  0.2064  0.2872
  292POPC   NC3 3926   1.514   0.753   4.043  0.0419  0.0145 -0.0428
  292POPC   PO4 3927   1.698   0.550   4.340 -0.3673  0.2410  0.1906
  292POPC   GL1 3928   1.629   0.587   4.793 -0.2444 -0.0573  0.0247
  292POPC   GL2 3929   1.793   0.753   4.951  0.3079 -0.0561 -0.1116
  292POPC   C1A 3930   1.380   0.555   5.196 -0.0696  0.0139 -0.0128
  292POPC   D2A 3931   1.405   0.685   5.571 -0.0981  0.0772  0.1526
  292POPC   C3A 3932   1.074   0.701   5.868  0.2351  0.0275  0.0890
  292POPC   C4A 3933   0.828   0.719   6.272 -0.3584 -0.1100 -0.1648
  292POPC   C1B 3934   1.773   1.041   5.274 -0.0208  0.4937  0.0183
  292POPC   C2B 3935   1.628   1.126   5.713  0.0136  0.0490  0.0506
  292POPC   C3B 3936   1.877   1.048   6.111 -0.1130 -0.1313 -0.0613
  292POPC   C4B 3937   2.024   0.666   6.380 -0.0173 -0.1722  0.3001
  293POPC   NC3 3938   8.819   8.224   4.547  0.1559 -0.2462  0.1387
  293POPC   PO4 3939   9.178   8.202   4.298 -0.0055  0.0025  0.1341
  293POPC   GL1 3940   9.243   8.472   4.651  0.1017 -0.0841 -0.1943
  293POPC   GL2 3941   8.970   8.508   4.905 -0.0103 -0.1763  0.0651
  293POPC   C1A 3942   9.465   8.617   5.023 -0.0832 -0.3084  0.0659
  293POPC   D2A 3943   9.691   8.795   5.394 -0.1399 -0.0296  0.0914
  293POPC   C3A 3944   9.567   8.979   5.776 -0.0450  0.0230  0.1826
  293POPC   C4A 3945   9.436   9.438   5.945  0.1360 -0.0406 -0.3570
  293POPC   C1B 3946   8.652   8.556   5.288 -0.0142 -0.2066 -0.3424
  293POPC   C2B 3947   8.681   8.635   5.643 -0.1458 -0.1510  0.0600
  293POPC   C3B 3948   8.829   8.841   6.022 -0.1909 -0.3523 -0.1012
  293POPC   C4B 3949   8.978   9.210   6.151  0.0302  0.0334  0.1433
  294POPC   NC3 3950   6.602   3.181   4.267  0.2742 -0.4903  0.4487
  294POPC   PO4 3951   6.487   2.844   4.339 -0.0500  0.0683 -0.2159
  294POPC   GL1 3952   6.423   3.035   4.722  0.4732 -0.3099  0.3494
  294POPC   GL2 3953   6.145   3.059   4.824 -0.2523  0.0540  0.0987
  294POPC   C1A 3954   6.448   3.339   5.053  0.2791  0.0790  0.3907
  294POPC   D2A 3955   6.435   3.629   5.351 -0.2874 -0.1555 -0.1585
  294POPC   C3A 3956   6.360   3.575   5.780 -0.0507 -0.0586  0.0618
  294POPC   C4A 3957   6.431   3.711   6.193  0.2442 -0.0139 -0.0542
  294POPC   C1B 3958   5.812   3.088   5.057 -0.1417 -0.1335  0.0115
  294POPC   C2B 3959   5.418   3.082   5.369  0.0913 -0.0484 -0.0431
  294POPC   C3B 3960   5.480   3.172   5.800 -0.3542  0.2287 -0.0377
  294POPC   C4B 3961   5.557   3.248   6.244 -0.0648 -0.0860 -0.2114
  295POPC   NC3 3962   8.369   3.591   3.764 -0.1106 -0.2835  0.0219
  295POPC   PO4 3963   8.781   3.487   3.595  0.1823  0.3113  0.0096
  295POPC   GL1 3964   8.707   3.136   3.945  0.1756  0.2360  0.0175
  295POPC   GL2 3965   9.076   3.018   3.916 -0.3606  0.0774  0.2515
  295POPC   C1A 3966   8.796   2.641   3.987  0.2245 -0.1916  0.0463
  295POPC   D2A 3967   8.927   2.235   4.266  0.3683 -0.0398  0.0795
  295POPC   C3A 3968   9.146   2.208   4.632  0.2063 -0.1401  0.1760
  295POPC   C4A 3969   9.242   2.020   5.049 -0.0093 -0.0307  0.1377
  295POPC   C1B 3970   9.092   2.955   4.321  0.1140 -0.0855 -0.2510
  295POPC   C2B 3971   8.881   3.133   4.678 -0.1444  0.2287 -0.2225
  295POPC   C3B 3972   8.574   2.934   4.916  0.1473  0.1995  0.1851
  295POPC   C4B 3973   8.301   2.494   4.955 -0.0651  0.0229  0.1240
  296POPC   NC3 3974   6.821   6.063   4.337 -0.0586 -0.0097  0.0545
  296POPC   PO4 3975   6.919   5.865   4.666 -0.0232 -0.1077  0.2327
  296POPC   GL1 3976   6.737   6.027   5.138  0.0754 -0.0445 -0.1485
  296POPC   GL2 3977   6.641   5.637   5.025  0.0792  0.0973  0.2110
  296POPC   C1A 3978   6.725   6.327   5.564  0.0546  0.0800  0.1076
  296POPC   D2A 3979   6.817   6.690   5.728  0.0152  0.2196  0.0185
  296POPC   C3A 3980   6.805   7.023   5.965  0.2499  0.3038 -0.2373
  296POPC   C4A 3981   6.945   7.238   6.236 -0.3015  0.1639 -0.0211
  296POPC   C1B 3982   6.453   5.646   5.402 -0.0167  0.0479 -0.2520
  296POPC   C2B 3983   6.164   5.601   5.794 -0.0933 -0.2469 -0.4799
  296POPC   C3B 3984   5.744   5.545   5.813 -0.2266  0.2109 -0.2600
  296POPC   C4B 3985   5.424   5.603   6.087  0.1640  0.1412 -0.0402
  297POPC   NC3 3986   5.047   4.576   4.220 -0.2416 -0.3556  0.1287
  297POPC   PO4 3987   4.602   4.503   4.143 -0.2873 -0.0402  0.0398
  297POPC   GL1 3988   4.812   4.807   4.600 -0.2586 -0.0579  0.2344
  297POPC   GL2 3989   4.644   4.936   4.843 -0.0787  0.4266 -0.1212
  297POPC   C1A 3990   4.977   4.572   4.946  0.3096 -0.1219 -0.0443
  297POPC   D2A 3991   4.930   4.446   5.386 -0.1015  0.1986 -0.3251
  297POPC   C3A 3992   5.106   4.761   5.743 -0.1320 -0.1697 -0.0171
  297POPC   C4A 3993   5.236   4.758   6.127  0.1906 -0.0333 -0.3194
  297POPC   C1B 3994   4.597   4.868   5.191 -0.2119  0.0325 -0.0095
  297POPC   C2B 3995   4.593   4.623   5.672 -0.1207  0.0089 -0.0015
  297POPC   C3B 3996   4.895   4.282   5.920  0.0025  0.4335  0.0116
  297POPC   C4B 3997   5.063   3.879   5.744 -0.1324 -0.5097 -0.0704
  298POPC   NC3 3998   2.128   1.886   4.245  0.0005  0.1181 -0.2094
  298POPC   PO4 3999   2.380   1.435   4.445 -0.0504 -0.1264 -0.2380
  298POPC   GL1 4000   2.303   1.453   4.835  0.1212  0.1581  0.1432
  298POPC   GL2 4001   2.355   1.763   5.012  0.0826 -0.1965  0.0903
  298POPC   C1A 4002   1.943   1.494   5.148 -0.0188 -0.0513  0.2049
  298POPC   D2A 4003   1.533   1.450   5.377 -0.1234  0.0154  0.2445
  298POPC   C3A 4004   1.199   1.456   5.647 -0.3921 -0.3515  0.1501
  298POPC   C4A 4005   0.938   1.710   5.918 -0.1230 -0.0120  0.3266
  298POPC   C1B 4006   2.410   1.710   5.486  0.0097  0.0963 -0.3895
  298POPC   C2B 4007   2.437   1.569   5.902 -0.0757  0.2608  0.2115
  298POPC   C3B 4008   2.441   1.642   6.285  0.1550  0.1748 -0.0657
  298POPC   C4B 4009   2.542   2.000   6.474  0.1776  0.2625 -0.0191
  299POPC   NC3 4010   1.514   7.972   4.905 -0.2888 -0.1513  0.1910
  299POPC   PO4 4011   1.868   7.879   4.636 -0.2120  0.0538  0.2606
  299POPC   GL1 4012   2.052   7.729   5.124 -0.1694  0.0350 -0.2368
  299POPC   GL2 4013   1.938   8.039   5.242  0.0080 -0.0710 -0.1627
  299POPC   C1A 4014   2.237   7.582   5.419  0.0726 -0.2666  0.1656
  299POPC   D2A 4015   2.461   7.513   5.741 -0.0864 -0.0649  0.0053
  299POPC   C3A 4016   2.624   7.255   6.072  0.0420 -0.0728 -0.0700
  299POPC   C4A 4017   2.685   6.794   6.233 -0.0857  0.1598  0.0805
  299POPC   C1B 4018   1.536   8.241   5.445 -0.2996  0.0002  0.0787
  299POPC   C2B 4019   1.231   8.319   5.745 -0.0025  0.1763 -0.0142
  299POPC   C3B 4020   1.120   8.160   6.148 -0.0362  0.0375 -0.0254
  299POPC   C4B 4021   0.775   8.452   6.388 -0.0697 -0.3150 -0.1876
  300POPC   NC3 4022   5.975   4.930   4.595 -0.0895  0.3615  0.3208
  300POPC   PO4 4023   5.933   4.459   4.587 -0.2808 -0.4724  0.1745
  300POPC   GL1 4024   6.110   4.460   4.924 -0.1015  0.0289 -0.3002
  300POPC   GL2 4025   6.386   4.367   4.999  0.1067 -0.2686 -0.1405
  300POPC   C1A 4026   5.966   4.509   5.284  0.0962  0.0713 -0.0248
  300POPC   D2A 4027   5.963   4.428   5.758 -0.1178  0.2444  0.0564
  300POPC   C3A 4028   5.788   4.488   6.200 -0.1057 -0.1517  0.2403
  300POPC   C4A 4029   5.932   4.716   6.529  0.1531  0.3745  0.0422
  300POPC   C1B 4030   6.621   4.162   5.193 -0.2409 -0.0098  0.0369
  300POPC   C2B 4031   6.892   4.009   5.486 -0.0686  0.1028 -0.1676
  300POPC   C3B 4032   7.066   3.587   5.597  0.2804 -0.1541  0.4421
  300POPC   C4B 4033   7.439   3.244   5.548 -0.2527 -0.0422  0.0398
  301POPC   NC3 4034   9.920   7.562   4.238 -0.1844  0.4275 -0.1251
  301POPC   PO4 4035  10.014   7.768   4.629  0.0644  0.2917 -0.1024
  301POPC   GL1 4036   9.734   7.872   4.954  0.2235  0.2531  0.1279
  301POPC   GL2 4037   9.750   7.650   5.182  0.3961  0.2861 -0.4614
  301POPC   C1A 4038   9.408   8.162   5.104  0.1407 -0.0590  0.0085
  301POPC   D2A 4039   9.131   8.307   5.358 -0.0741  0.0286 -0.0688
  301POPC   C3A 4040   9.171   8.700   5.647 -0.0275 -0.0324  0.2898
  301POPC   C4A 4041   9.122   9.113   5.644 -0.0313  0.0848 -0.0939
  301POPC   C1B 4042   9.623   7.902   5.462 -0.0438  0.3167 -0.0953
  301POPC   C2B 4043   9.707   7.912   5.949 -0.3696  0.0015  0.0689
  301POPC   C3B 4044   9.681   8.344   6.288  0.1220 -0.2093  0.1264
  301POPC   C4B 4045   9.624   8.714   6.169  0.1097  0.0911 -0.0549
  302W        W 4046   9.224   6.916   3.141  0.0157  0.0409  0.0943
  303W        W 4047   4.626   7.387   8.535 -0.1253 -0.0881  0.3398
  304W        W 4048   5.895   9.153  10.661  0.3765 -0.3279  0.1030
  305W        W 4049   8.617   5.766   0.357 -0.1689  0.1493  0.1554
  306W        W 4050   9.721   8.907   2.234 -0.0301 -0.0028  0.1502
  307W        W 4051   8.507   8.133  11.614 -0.1205 -0.4501  0.1496
  308W        W 4052   7.727   3.997   1.606 -0.0527  0.1309 -0.0363
  309W        W 4053   1.691   9.603  12.150 -0.1108 -0.2372  0.0852
  310W        W 4054   7.965   3.741   0.562  0.6349 -0.0783  0.2417
  311W        W 4055   7.653   5.862   0.558  0.1086  0.2576 -0.2464
  312W        W 4056   2.981   2.707  12.546  0.0885  0.1410 -0.1463
  313W        W 4057   4.546   6.694   9.817 -0.0300 -0.0346 -0.3049
  314W        W 4058   5.233   6.525  11.620 -0.0245 -0.3125  0.0800
  315W        W 4059   4.063   0.516   4.571  0.0966  0.2150  0.1419
  316W        W 4060   9.939   3.162   0.434 -0.2724  0.1070  0.1103
  317W        W 4061   4.717   0.692   3.878 -0.1573 -0.1867  0.1026
  318W        W 4062   9.708   9.794   0.048  0.2222 -0.5872  0.1984
  319W        W 4063   8.542   7.533   2.293 -0.0372  0.1036  0.0038
  320W        W 4064   3.194   9.562   1.236 -0.0834  0.1197 -0.1480
  321W        W 4065   8.140   0.708   9.415 -0.0687 -0.2756 -0.2912
  322W        W 4066   8.576   8.891   3.007 -0.1098 -0.2892 -0.1467
  323W        W 4067   0.788   3.413  12.729 -0.0396  0.1265 -0.0282
  324W        W 4068   2.260   1.763  10.402 -0.1832  0.0129 -0.1657
  325W        W 4069   1.695   5.996   4.013  0.1428 -0.0985 -0.3279
  326W        W 4070   9.555   2.696   0.757 -0.2057  0.1101  0.0556
  327W        W 4071   6.784   8.264   0.008 -0.1568  0.0442 -0.1733
  328W        W 4072   2.754   8.482   3.156 -0.3536  0.0672  0.0533
  329W        W 4073   1.279   5.855  11.189 -0.2741 -0.0808 -0.0554
  330W        W 4074   2.055   5.222   3.744 -0.2657  0.1372  0.0010
  331W        W 4075   9.041   0.032  11.012  0.1358 -0.1462 -0.1373
  332W        W 4076   2.544   4.986   2.531  0.2356 -0.0730 -0.0412
  333W        W 4077   4.439   3.695   4.431 -0.0828 -0.2636  0.2339
  334W        W 4078   3.622   8.652   0.431 -0.1978 -0.0692  0.0053
  335W        W 4079   5.945   2.374   1.959  0.0108 -0.0917 -0.2164
  336W        W 4080   7.713   0.095  10.743 -0.0770  0.3510 -0.0935
  337W        W 4081   0.665   2.643  11.659 -0.1795 -0.0568 -0.1649
  338W        W 4082   1.557   2.933  10.148  0.2605  0.2023  0.0079
  339W        W 4083   4.542   3.917  11.260  0.1078  0.1766  0.3300
  340W        W 4084   4.015   0.900  10.054 -0.0175 -0.1539  0.0421
  341W        W 4085   2.401   4.764   4.241 -0.1210  0.0964 -0.2408
  342W        W 4086   2.746   7.113   0.883 -0.1093 -0.0083 -0.2856
  343W        W 4087   7.912   9.769   1.401  0.0297  0.0475  0.3405
  344W        W 4088   2.686   0.165   4.298  0.1846  0.0521 -0.0103
  345W        W 4089   0.734   8.259  12.031 -0.0559  0.0054 -0.1412
  346W        W 4090   7.081   1.908  10.334 -0.0435  0.0518  0.0633
  347W        W 4091   9.033   4.065  12.647 -0.0770 -0.0212 -0.3542
  348W        W 4092   2.752   4.051   9.152  0.5932  0.0002 -0.0140
  349W        W 4093   7.020   2.478  10.136 -0.1991  0.0357  0.0997
  350W        W 4094   7.411   0.600  11.447 -0.0677 -0.0716 -0.0485
  351W        W 4095   5.475   6.883  11.341 -0.1955  0.0514 -0.0167
  352W        W 4096   0.915   6.005   3.267  0.1901  0.1796 -0.1396
  353W        W 4097   8.446   6.908  12.606  0.2187 -0.0124 -0.0129
  354W        W 4098   6.948   9.030   0.052 -0.3400 -0.1851  0.0339
  355W        W 4099   7.762   0.380   0.722  0.1201 -0.1234 -0.3162
  356W        W 4100   0.936   2.158   0.015 -0.2098 -0.0951  0.0531
  357W        W 4101   8.111   9.541  11.474  0.0288 -0.0115 -0.2156
  358W        W 4102   0.928   2.307   2.897  0.0541 -0.1193 -0.1571
  359W        W 4103   7.344   6.228  10.787 -0.0679 -0.2051  0.0107
  360W        W 4104   7.978   0.507  11.600 -0.1471 -0.2575  0.1200
  361W        W 4105   5.811   0.734  12.175 -0.3373 -0.1673 -0.2029
  362W        W 4106   5.656   1.000  10.660 -0.0449  0.2907  0.0578
  363W        W 4107   8.733   1.558   1.971  0.0961 -0.1468 -0.1361
  364W        W 4108   9.469   8.310   3.864  0.1086  0.2247  0.0270
  365W        W 4109   0.102   5.900   9.665 -0.5051 -0.0428  0.0203
  366W        W 4110   2.565   7.063   0.398  0.1578  0.0978  0.2175
  367W        W 4111   0.552   2.286  12.490  0.1284 -0.0134  0.1443
  368W        W 4112   7.758   4.313   9.235 -0.1049  0.1813 -0.2665
  369W        W 4113   6.104   8.303  11.069  0.0001 -0.0474 -0.0619
  370W        W 4114   5.853   8.980   4.081  0.1102 -0.0726  0.1646
  371W        W 4115   2.900   8.710   5.159 -0.1766  0.0154  0.1576
  372W        W 4116   6.678   8.673   0.339 -0.1289  0.0168  0.1215
  373W        W 4117   3.693   0.856   1.703  0.0830 -0.0005 -0.1921
  374W        W 4118   2.416   4.099  11.702 -0.1238  0.3860  0.1656
  375W        W 4119   8.260   4.778   4.531  0.0617  0.1617 -0.0073
  376W        W 4120   3.683   4.983  11.709 -0.0529 -0.1337  0.3882
  377W        W 4121   4.261   6.977   8.349  0.0273  0.1334  0.1153
  378W        W 4122   6.060   5.566   8.729  0.1992  0.1051 -0.3054
  379W        W 4123   9.218   4.404   9.577 -0.0747  0.2234 -0.0616
  380W        W 4124   5.448   1.587   2.187  0.0655 -0.0574 -0.2692
  381W        W 4125   5.543   2.617  10.838 -0.0795  0.0982  0.0818
  382W        W 4126   2.554   2.880  12.504  0.1498  0.0401 -0.3611
  383W        W 4127   5.765   3.458   0.023  0.1377  0.0127 -0.2487
  384W        W 4128   9.883   1.704  11.970 -0.1171  0.1192  0.2130
  385W        W 4129   0.258   6.311  10.001 -0.0859  0.0433  0.0739
  386W        W 4130   5.955   7.163   4.023  0.2079 -0.0154  0.0376
  387W        W 4131   2.483   3.529   2.692  0.2163  0.0402 -0.0914
  388W        W 4132   2.500   4.913   1.320  0.2352 -0.0613  0.1696
  389W        W 4133   6.082   0.258   9.724  0.1063 -0.2058 -0.0478
  390W        W 4134   1.617   7.452   8.507 -0.2021 -0.0167  0.0198
  391W        W 4135   6.986   0.100   1.493 -0.1841  0.1114  0.2243
  392W        W 4136   1.876   9.066   2.643 -0.0068  0.2448 -0.2976
  393W        W 4137   7.179   0.893   1.747  0.4220  0.4086 -0.1536
  394W        W 4138   1.619   8.799  11.612 -0.0350 -0.1556 -0.0581
  395W        W 4139   5.804   3.245   9.260 -0.2848 -0.0380 -0.2216
  396W        W 4140   1.554   4.275   3.604  0.3120 -0.1354  0.1488
  397W        W 4141   4.575   2.045  10.020  0.1518 -0.0723 -0.1297
  398W        W 4142   6.745   9.149   3.121  0.1185  0.1567  0.3245
  399W        W 4143   3.351   6.700   0.614 -0.0315  0.0082 -0.1905
  400W        W 4144   6.693   3.071   7.845 -0.1652 -0.0120 -0.1123
  401W        W 4145   6.158   5.248   0.539 -0.0729  0.0880 -0.1465
  402W        W 4146   6.161   4.315   3.820  0.0359  0.3175 -0.0060
  403W        W 4147   2.556   2.946   9.320  0.4405 -0.1973  0.4061
  404W        W 4148   8.484   6.925   0.402  0.4063 -0.4730 -0.4883
  405W        W 4149   9.184   4.835  11.291  0.2297  0.2192  0.0232
  406W        W 4150   7.171   3.135   8.173 -0.0231  0.0045  0.3821
  407W        W 4151   4.374   7.773   8.389  0.1401  0.2544  0.3383
  408W        W 4152   2.039   7.955  12.328  0.2120  0.0994 -0.0943
  409W        W 4153   3.303   7.116  11.101  0.2818 -0.0912  0.0268
  410W        W 4154   1.890   1.476   4.516 -0.4935 -0.2625  0.3563
  411W        W 4155   2.140   3.240  12.216 -0.2729  0.0180  0.0508
  412W        W 4156   5.755   5.146   9.363  0.0317 -0.1864  0.0200
  413W        W 4157   2.204   7.555  10.613 -0.1750 -0.1929  0.0404
  414W        W 4158   5.813   1.333   0.221  0.2186 -0.1136  0.0038
  415W        W 4159   5.849   4.859   2.347 -0.1958 -0.4237 -0.1087
  416W        W 4160   8.600   9.091   2.563 -0.4352  0.0440 -0.2751
  417W        W 4161   9.117   5.562  12.273  0.1060 -0.4047 -0.1389
  418W        W 4162   3.549   2.356   1.082  0.3510 -0.0927  0.1532
  419W        W 4163   8.935   8.256   3.094  0.1353 -0.0397  0.0220
  420W        W 4164   5.956   3.132   1.585 -0.1751 -0.2774 -0.2967
  421W        W 4165   6.008   8.816  12.760 -0.1256  0.2618 -0.0501
  422W        W 4166   8.135   5.994  11.914  0.0865 -0.0742  0.1821
  423W        W 4167   0.396   7.574   9.876  0.3386 -0.1240  0.0641
  424W        W 4168   1.137   9.673  11.061  0.1288 -0.0017 -0.1394
  425W        W 4169   4.458   8.574  12.471 -0.1549  0.3112  0.0228
  426W        W 4170   2.970   5.379   3.726 -0.1163  0.3440  0.0572
  427W        W 4171   2.143   6.116   8.831 -0.1025  0.0657 -0.1542
  428W        W 4172   2.875   8.719  11.280 -0.2616 -0.0353 -0.0503
  429W        W 4173   7.442   6.948  11.952 -0.1477 -0.2839  0.0397
  430W        W 4174   7.934   6.873  12.452  0.0313 -0.1449 -0.0982
  431W        W 4175   3.726   5.160  10.150  0.1671  0.2763 -0.1626
  432W        W 4176   6.633   8.231  11.327  0.1729  0.1014  0.0365
  433W        W 4177   0.221   9.632   0.040  0.3315  0.0915  0.4038
  434W        W 4178   6.001   5.722   4.130 -0.0631 -0.0118  0.1532
  435W        W 4179   0.716   7.413   5.353  0.0362 -0.1280 -0.0621
  436W        W 4180   7.335   2.260  11.649  0.0921  0.3339  0.2134
  437W        W 4181   3.283   1.500  11.634 -0.0517 -0.1800 -0.3585
  438W        W 4182   9.321   6.428  12.380  0.1366 -0.2033 -0.2791
  439W        W 4183   2.113   8.247  11.391 -0.0465 -0.0438  0.1509
  440W        W 4184   1.655   8.507   1.366  0.0717  0.3009  0.0649
  441W        W 4185   7.352   2.790   1.579  0.0486  0.1084  0.3465
  442W        W 4186   7.162   7.681   1.093  0.1463  0.0485 -0.0974
  443W        W 4187   6.552   4.163   2.273 -0.0346  0.0019  0.1322
  444W        W 4188   0.009   1.573   2.152  0.0530  0.2827 -0.2333
  445W        W 4189   7.678   5.516  11.192  0.2037  0.0942  0.0430
  446W        W 4190   4.068   3.709   9.872 -0.3722 -0.0850  0.3107
  447W        W 4191   1.928   4.029  11.476 -0.3539 -0.2809 -0.0083
  448W        W 4192   5.800   0.348   2.346 -0.0023  0.1413 -0.4594
  449W        W 4193   1.182   1.839  12.454 -0.0357 -0.0002 -0.2152
  450W        W 4194   9.202   2.138  12.777  0.1066 -0.1434  0.1296
  451W        W 4195   7.004   4.778   8.755 -0.3176 -0.0559 -0.4228
  452W        W 4196   7.015   0.339  11.772  0.0798 -0.0437  0.3180
  453W        W 4197   1.143   1.178   4.319 -0.3748 -0.2247  0.3795
  454W        W 4198   3.518   6.123   3.473 -0.0876  0.1616  0.2129
  455W        W 4199   0.578   5.867  11.957  0.3982 -0.2958  0.0632
  456W        W 4200   5.384   8.926  12.554 -0.1184  0.0053 -0.2951
  457W        W 4201   0.670   4.160  12.125 -0.1843 -0.3270  0.0800
  458W        W 4202   2.214   1.933   1.262  0.0340  0.0174  0.4049
  459W        W 4203   3.570   7.554   0.547 -0.0469 -0.3188  0.2008
  460W        W 4204   4.986   3.830  10.875 -0.0776  0.3082  0.0290
  461W        W 4205   0.585   5.802   9.772 -0.2538 -0.0592 -0.0075
  462W        W 4206   6.317   5.370  10.508  0.3171  0.0880 -0.1178
  463W        W 4207   3.723   9.578   0.933  0.2920 -0.2538  0.0622
  464W        W 4208   3.816   4.915   3.873  0.2407 -0.5087 -0.3013
  465W        W 4209   3.693   8.064   0.790 -0.2107  0.2237 -0.0912
  466W        W 4210   0.880   4.638   9.432 -0.1515 -0.3110 -0.1386
  467W        W 4211   2.623   2.007   3.248 -0.2052  0.2059  0.0851
  468W        W 4212   3.217   3.592   0.156 -0.0256  0.0553 -0.0596
  469W        W 4213   6.743   7.030  11.377 -0.0471 -0.2138  0.0352
  470W        W 4214   2.951   0.963  11.290 -0.2154 -0.0596 -0.1444
  471W        W 4215   7.931   6.812  10.746 -0.0446  0.2519  0.0381
  472W        W 4216   2.170   2.888   0.820  0.0011  0.1128 -0.1626
  473W        W 4217   1.658   5.026   1.506 -0.0714  0.1015 -0.1086
  474W        W 4218   4.618   9.722  11.841  0.1642 -0.0110 -0.2929
  475W        W 4219   4.875   3.736   8.999 -0.2758  0.0994 -0.0689
  476W        W 4220   6.948   9.955   4.192  0.1644 -0.2614 -0.1307
  477W        W 4221   0.404   9.430   2.288 -0.1345 -0.1388 -0.0210
  478W        W 4222   2.587   9.491   1.517 -0.2650  0.1537  0.3301
  479W        W 4223   2.191   4.683   2.720  0.0404  0.0159 -0.0629
  480W        W 4224   4.328   1.730   3.101  0.0209 -0.2885 -0.0618
  481W        W 4225   4.918   0.419   9.116  0.0270 -0.1015 -0.0707
  482W        W 4226   3.154   3.248   1.685  0.2580 -0.0123  0.0659
  483W        W 4227   4.999   2.895  12.786  0.0612  0.0253  0.0337
  484W        W 4228   9.478   0.975   3.588  0.1534  0.1518  0.0380
  485W        W 4229   1.520   9.583  10.720 -0.2019  0.2368  0.1002
  486W        W 4230   0.157   2.473   1.583 -0.0226 -0.0333 -0.0101
  487W        W 4231   3.506   3.146   0.472  0.0218  0.0621 -0.0564
  488W        W 4232   6.362   5.409   2.492  0.0452  0.2806 -0.6173
  489W        W 4233   4.954   8.122   1.286  0.0641  0.0702 -0.1901
  490W        W 4234   4.068   9.097  12.589 -0.1883  0.0265 -0.1772
  491W        W 4235   4.168   5.830   9.516  0.2190  0.1211 -0.1754
  492W        W 4236   5.629   6.290   7.810 -0.1438 -0.1948 -0.0244
  493W        W 4237   0.750   6.020  10.191 -0.0549 -0.2123 -0.3488
  494W        W 4238   4.405   1.578   3.611 -0.0863 -0.1009 -0.0333
  495W        W 4239   8.111   7.367  10.932 -0.2984  0.0269 -0.1258
  496W        W 4240   9.455   8.355  11.597 -0.0413  0.0783  0.1022
  497W        W 4241   6.818   1.935   9.795 -0.1942 -0.0643  0.0182
  498W        W 4242   6.937   7.839   4.188 -0.1338  0.1641  0.1246
  499W        W 4243   5.070   5.535  10.888  0.0409 -0.1121  0.0126
  500W        W 4244   5.757   9.009   3.180  0.0488 -0.2060  0.3347
  501W        W 4245   9.225   3.968   4.193  0.2981  0.0653  0.0789
  502W        W 4246   0.913   4.403   2.576  0.1688 -0.2211  0.0226
  503W        W 4247   6.235   8.973  10.370 -0.3177  0.1692  0.0143
  504W        W 4248   9.930   6.562  11.064  0.1170 -0.1499 -0.1110
  505W        W 4249   4.860   1.534  11.226 -0.1038  0.0713 -0.0016
  506W        W 4250   1.236   7.806   1.001 -0.2976  0.0186 -0.2107
  507W        W 4251   7.285   9.713   1.803  0.2759 -0.1565  0.1308
  508W        W 4252   1.169   7.428   9.382 -0.0095 -0.0689 -0.0790
  509W        W 4253   6.080   3.676   8.507 -0.0740 -0.1017 -0.0213
  510W        W 4254   0.415   2.944   9.213  0.1224 -0.0330  0.1088
  511W        W 4255   7.302   5.012   4.075  0.0594 -0.0401  0.0561
  512W        W 4256   3.604   0.737   9.843 -0.0657  0.2611 -0.2171
  513W        W 4257   9.955   1.878   9.986  0.2707 -0.1726 -0.1987
  514W        W 4258   3.383   8.879   2.690 -0.0072  0.0103  0.3850
  515W        W 4259   9.487   1.899   0.779 -0.2214 -0.1101  0.0401
  516W        W 4260   1.432   3.205   3.667  0.0038  0.1418 -0.2929
  517W        W 4261   7.329   5.560   3.887  0.0236  0.2095 -0.0287
  518W        W 4262   0.226   8.713   1.497 -0.2758  0.1960  0.0083
  519W        W 4263   0.175   1.213   9.345  0.0322  0.2301 -0.0888
  520W        W 4264   1.599   4.345   1.556 -0.1264  0.1577  0.4015
  521W        W 4265   3.047   9.046  10.008  0.3139  0.0373 -0.1086
  522W        W 4266   2.193   4.662   0.147 -0.1572 -0.0983 -0.1838
  523W        W 4267   6.683   7.167   0.313 -0.0268 -0.0830 -0.1417
  524W        W 4268   2.321   1.517  11.789 -0.2537 -0.1073  0.0239
  525W        W 4269   5.598   9.901  10.250  0.1032  0.4390  0.1968
  526W        W 4270   1.878   8.115  11.867 -0.0865 -0.1393 -0.3025
  527W        W 4271   2.702   4.542   2.414  0.3322  0.1624  0.1995
  528W        W 4272   4.327   2.817   9.085 -0.3309 -0.0520 -0.0489
  529W        W 4273   3.590   8.847   9.098  0.3085  0.1072  0.0319
  530W        W 4274   0.386   1.553   0.505 -0.0081 -0.2196 -0.1976
  531W        W 4275   4.815   0.333   4.234  0.0662 -0.0867  0.0151
  532W        W 4276   9.915   5.780   4.037 -0.2237 -0.2587 -0.0302
  533W        W 4277   7.274   9.759  11.826 -0.2550 -0.1529 -0.2418
  534W        W 4278   8.646   8.626   0.351 -0.2354  0.0823  0.1072
  535W        W 4279   1.101   5.891   2.836  0.0870 -0.1016 -0.0185
  536W        W 4280   3.377   4.953  12.112  0.0835  0.1785  0.0601
  537W        W 4281   6.517   3.141  12.312  0.1026 -0.1415 -0.3259
  538W        W 4282   9.188   9.832   9.919  0.0805  0.0193  0.0645
  539W        W 4283   0.768   0.600   1.602 -0.1388  0.4763  0.3034
  540W        W 4284   8.992   9.285   1.568  0.1117  0.0410  0.1925
  541W        W 4285   0.340   7.125   2.990 -0.0199  0.3211  0.0189
  542W        W 4286   0.179   6.099   4.474  0.0263  0.1897  0.0769
  543W        W 4287   6.949   9.036   0.550  0.1288  0.2492 -0.2360
  544W        W 4288   4.177   0.798   1.838  0.0435 -0.1815 -0.2384
  545W        W 4289   7.853   1.655   0.246 -0.3034 -0.1418 -0.0050
  546W        W 4290   8.825   8.932   3.812  0.0356 -0.2734  0.0890
  547W        W 4291   2.334   0.401   1.432  0.0923 -0.2645  0.2231
  548W        W 4292   9.129   8.097  10.053 -0.0717  0.1206 -0.1366
  549W        W 4293   1.493   2.016   9.913  0.0543 -0.0692  0.0518
  550W        W 4294   3.491   1.880   1.380 -0.0508  0.2446  0.2908
  551W        W 4295   7.992   8.253   2.594 -0.0130 -0.2475  0.1389
  552W        W 4296   3.837   0.045  10.652  0.0800 -0.0019 -0.1402
  553W        W 4297   3.957   9.458   2.089  0.1354 -0.0028 -0.0910
  554W        W 4298   8.486   2.932   8.899  0.4678  0.1741  0.1446
  555W        W 4299   1.619   0.040  11.767 -0.1682 -0.1933  0.5822
  556W        W 4300   9.038   3.906   1.149 -0.2629 -0.0226 -0.0252
  557W        W 4301   9.068   8.772  10.632 -0.0438  0.0634 -0.0660
  558W        W 4302   8.002   8.838   4.272  0.1709 -0.4022  0.1324
  559W        W 4303   5.777   2.025   9.721  0.0597 -0.1438 -0.1584
  560W        W 4304   1.910   0.010   2.392 -0.1224 -0.0273  0.0105
  561W        W 4305   9.356   1.164  10.565 -0.1105  0.2456 -0.0904
  562W        W 4306   2.148   9.702   0.184 -0.0850 -0.1255 -0.2567
  563W        W 4307   9.233   1.311   0.850  0.2251 -0.0096  0.0133
  564W        W 4308   4.599   0.030  12.769 -0.1988  0.1866  0.0427
  565W        W 4309   9.791   0.542  10.673 -0.0455 -0.1670  0.1577
  566W        W 4310   1.739   2.507   2.349 -0.0625 -0.0114 -0.2951
  567W        W 4311   7.555   5.896   1.703 -0.3776 -0.1118  0.1529
  568W        W 4312   4.638   5.916   9.211  0.3812 -0.1917 -0.3449
  569W        W 4313   0.420   9.822   0.431 -0.2220 -0.2118 -0.0455
  570W        W 4314   2.429   6.990   2.288  0.1920 -0.2349  0.4001
  571W        W 4315   6.159   1.828  10.741  0.0092  0.1687 -0.2663
  572W        W 4316   1.675   2.261   9.396 -0.0148 -0.1910  0.5064
  573W        W 4317   5.469   2.054   1.366 -0.5699 -0.4559  0.2032
  574W        W 4318   3.898   1.386  10.406  0.1171  0.3911  0.4449
  575W        W 4319   9.672   6.693   3.154 -0.0570  0.0625  0.0584
  576W        W 4320   4.575   9.749   3.544 -0.0737 -0.2516  0.1035
  577W        W 4321   4.890   8.779  11.711  0.0321  0.1171  0.0819
  578W        W 4322   0.082   0.234   0.645 -0.1942 -0.0292  0.1253
  579W        W 4323   3.652   3.404   1.605  0.0888 -0.0964 -0.0574
  580W        W 4324   0.965   1.596   2.201  0.2379 -0.0475 -0.0422
  581W        W 4325   3.201   9.617   0.102  0.1487  0.2230 -0.1039
  582W        W 4326   5.612   3.320   3.676 -0.1983 -0.1158  0.0327
  583W        W 4327   9.649   5.439  11.025  0.2403 -0.0063 -0.2513
  584W        W 4328   0.136   4.462   0.381 -0.0036  0.0430 -0.0547
  585W        W 4329   9.858   0.710  11.611  0.3075  0.4687 -0.2470
  586W        W 4330   6.805   1.209  10.404 -0.0583 -0.1785 -0.0448
  587W        W 4331   0.989   3.214   2.989 -0.1562  0.0935  0.0023
  588W        W 4332   2.249   1.261  12.301 -0.1207 -0.1334  0.0763
  589W        W 4333   9.388   6.027  11.722  0.0410  0.0240 -0.3521
  590W        W 4334   3.689   9.400  12.750  0.1560 -0.2650 -0.1306
  591W        W 4335   0.577   2.837  10.868 -0.3283  0.2240  0.4662
  592W        W 4336   4.966   4.241   8.935  0.0211  0.0665  0.0124
  593W        W 4337   4.673   2.480  12.729 -0.1395 -0.0233  0.2255
  594W        W 4338   4.493   3.081  11.553  0.1888 -0.2535 -0.3940
  595W        W 4339   0.702   2.018   9.327 -0.1058 -0.2315 -0.3712
  596W        W 4340   3.307   8.081   4.367  0.1610  0.2144  0.1728
  597W        W 4341   1.641   1.000   4.476 -0.1440 -0.3851  0.1557
  598W        W 4342   6.603   0.852   9.451 -0.0955  0.0885  0.3096
  599W        W 4343   6.041   0.224   3.676  0.0361  0.2580 -0.1288
  600W        W 4344   9.086   2.645  12.166  0.1124  0.3321  0.0435
  601W        W 4345   0.849   9.814   1.636 -0.4416  0.1287  0.0749
  602W        W 4346   2.223   2.470   0.465  0.1396  0.1103 -0.0939
  603W        W 4347   6.927   1.108  12.786  0.1485 -0.0904 -0.0150
  604W        W 4348   5.623   8.725   4.494  0.0527 -0.2480  0.1717
  605W        W 4349   3.062   0.781   4.311  0.0848  0.0412 -0.2196
  606W        W 4350   1.373   2.842   2.716 -0.3242  0.4029  0.0719
  607W        W 4351   6.095   0.211   1.973 -0.1387  0.1063  0.0542
  608W        W 4352   5.787   4.504   7.848  0.2902 -0.0850 -0.0041
  609W        W 4353   1.620   0.556   3.544 -0.2893  0.0799  0.1809
  610W        W 4354   7.166   7.442   0.325  0.1166 -0.0159  0.1647
  611W        W 4355   7.088   0.513   2.370 -0.0540 -0.1402 -0.0233
  612W        W 4356   2.680   5.223   0.894  0.1263 -0.0962  0.1162
  613W        W 4357   5.210   5.072  10.726  0.2564  0.2195  0.0015
  614W        W 4358   2.484   0.803   2.136  0.0224  0.0799 -0.3798
  615W        W 4359   9.954   0.205  10.272  0.0703 -0.2107  0.2528
  616W        W 4360   1.977   5.917  11.513 -0.1345  0.3160  0.0193
  617W        W 4361   0.798   6.219  11.243  0.1053 -0.2042 -0.2690
  618W        W 4362   5.611   6.492   2.297  0.0160 -0.0479  0.1935
  619W        W 4363   7.102   9.073   3.790  0.0895 -0.3533 -0.0706
  620W        W 4364   7.726   9.954  11.651  0.0317 -0.2231  0.1906
  621W        W 4365   0.276   3.636   9.308  0.1246  0.0937 -0.0321
  622W        W 4366   0.650   0.195  11.496 -0.0121 -0.1614 -0.1875
  623W        W 4367   7.288   9.327   0.727 -0.0757  0.2357 -0.0019
  624W        W 4368   3.652   1.210  12.266  0.3931  0.0267 -0.0250
  625W        W 4369   2.393   0.794   4.026 -0.1602  0.2452 -0.2997
  626W        W 4370   8.688   0.756   0.695  0.0513  0.1139  0.1643
  627W        W 4371   9.848   6.394  12.420  0.1209  0.0772 -0.1247
  628W        W 4372   8.455   6.947  11.469 -0.1998  0.3289  0.2766
  629W        W 4373   8.645   9.459   1.222 -0.1059  0.2207  0.3190
  630W        W 4374   4.341   8.223  11.299 -0.0032 -0.3875 -0.1015
  631W        W 4375   3.631   5.564  11.363 -0.4578 -0.0718 -0.1308
  632W        W 4376   1.940   2.869  11.954  0.1062 -0.1684  0.0974
  633W        W 4377   7.509   7.376   1.757  0.0624  0.0104  0.1663
  634W        W 4378   1.005   3.719   3.811 -0.1181 -0.1582 -0.2790
  635W        W 4379   7.696   7.333   2.843  0.0760 -0.1716  0.3278
  636W        W 4380   3.289   1.768   3.851  0.2534  0.5030  0.1989
  637W        W 4381   6.438   7.896   4.179 -0.0816  0.2682  0.0016
  638W        W 4382   1.896   9.922  12.519  0.0485  0.0838  0.4007
  639W        W 4383   7.272   7.452   4.295 -0.1769  0.0278  0.0911
  640W        W 4384   1.985   5.230   9.625 -0.1547 -0.1680  0.1035
  641W        W 4385   4.679   8.919   3.258  0.1808  0.1546 -0.5193
  642W        W 4386   8.815   3.151   9.690  0.0784 -0.0415  0.0119
  643W        W 4387   8.161   9.888  11.827  0.1801  0.1598  0.5046
  644W        W 4388   5.424   2.750   3.754  0.2795 -0.2100 -0.1108
  645W        W 4389   2.004   0.515   3.928  0.1612 -0.1000  0.1922
  646W        W 4390   1.015   3.724   9.339 -0.3402 -0.2324  0.4292
  647W        W 4391   0.370   9.940  12.400  0.1348  0.0942  0.0059
  648W        W 4392   7.247   2.193   9.748 -0.0239  0.2536 -0.2260
  649W        W 4393   1.605   3.491   2.361 -0.3767 -0.0636 -0.0956
  650W        W 4394   6.210   0.942   1.428  0.0665 -0.0708 -0.3681
  651W        W 4395   8.555   3.950  10.095  0.0918 -0.0025  0.1143
  652W        W 4396   1.608   3.088   1.593 -0.2011 -0.2466 -0.0823
  653W        W 4397   0.185   7.655  12.398  0.0773  0.2032  0.0245
  654W        W 4398   1.494   7.864  11.140 -0.1498  0.1883  0.2618
  655W        W 4399   4.875   3.532   2.821 -0.1726 -0.0386  0.0789
  656W        W 4400   0.493   3.019   2.529  0.1320 -0.1077 -0.0871
  657W        W 4401   0.778   4.590  12.340  0.0159  0.1484  0.2017
  658W        W 4402   5.185   9.397  11.828  0.2477  0.1611 -0.0651
  659W        W 4403   2.245   6.325   9.306 -0.0878  0.0967  0.2691
  660W        W 4404   9.289   4.178  12.029 -0.1651 -0.1280 -0.1433
  661W        W 4405   6.843   9.118   8.105 -0.5997 -0.6054  0.1554
  662W        W 4406   7.921   5.114   9.075  0.0184 -0.0213 -0.0038
  663W        W 4407   5.458   6.385   3.205  0.1673  0.0295  0.0464
  664W        W 4408   5.619   9.128   2.697 -0.1322 -0.1288  0.0047
  665W        W 4409   3.719   0.357   1.429 -0.0082 -0.0279 -0.1750
  666W        W 4410   5.926   7.229   2.396 -0.2389  0.1648 -0.3718
  667W        W 4411   8.493   4.790  11.261 -0.1387  0.1335 -0.2946
  668W        W 4412   2.680   3.970   3.041 -0.1608 -0.2111 -0.1504
  669W        W 4413   5.549   2.516  10.352  0.2806  0.1575  0.1953
  670W        W 4414   5.337   9.431  12.350  0.2927  0.3080  0.2477
  671W        W 4415   4.193   2.157   0.030 -0.0259  0.2779  0.0009
  672W        W 4416   6.864   5.792   3.906 -0.1940 -0.1332  0.2015
  673W        W 4417   8.787   9.326   2.108 -0.2054 -0.1605  0.2291
  674W        W 4418   9.788   2.694   2.969 -0.2372  0.1517  0.1236
  675W        W 4419   4.277   6.320  11.627  0.1018  0.1837  0.0339
  676W        W 4420   5.915   3.373  11.572  0.0585  0.0816 -0.0358
  677W        W 4421   5.774   8.345   9.961 -0.2403  0.0579 -0.1079
  678W        W 4422   7.572   9.587   2.204 -0.0855 -0.6540 -0.0532
  679W        W 4423   8.857   5.933   3.392  0.1346  0.1176  0.4971
  680W        W 4424   4.239   0.596  11.299  0.0636  0.1280  0.4566
  681W        W 4425   8.248   6.104   8.797 -0.1230  0.1283 -0.0056
  682W        W 4426   5.964   0.660   1.883 -0.1798  0.0531 -0.0020
  683W        W 4427   5.936   5.088   2.780  0.0596  0.0443  0.1971
  684W        W 4428   4.178   5.519  12.319  0.2928  0.0039 -0.1539
  685W        W 4429   9.953   3.824   0.012  0.1187 -0.1161  0.2334
  686W        W 4430   5.197   0.028   9.958 -0.1633 -0.1406  0.1940
  687W        W 4431   9.411   8.037   9.120 -0.1391 -0.2139  0.1657
  688W        W 4432   8.371   8.713   3.896  0.1587 -0.3426  0.0184
  689W        W 4433   8.573   6.599   8.862 -0.0480  0.1911  0.1499
  690W        W 4434   0.093   8.014   9.964 -0.2622  0.2021 -0.1806
  691W        W 4435   2.086   2.106   9.239  0.1240  0.0108 -0.0167
  692W        W 4436   6.442   0.593   0.201 -0.0824  0.4038  0.0014
  693W        W 4437   1.656   2.494  12.163 -0.1047 -0.3132 -0.0730
  694W        W 4438   7.387   4.585  10.156 -0.2288 -0.1402  0.3903
  695W        W 4439   8.425   9.560   9.421 -0.0366 -0.0482 -0.2779
  696W        W 4440   5.511   6.954  10.817 -0.0004  0.3510  0.0215
  697W        W 4441   5.092   8.393   0.630  0.0166  0.1127  0.2550
  698W        W 4442   0.454   5.830  10.592  0.0041 -0.2428 -0.1609
  699W        W 4443   1.111   4.948   2.707  0.1271  0.0392  0.1605
  700W        W 4444   5.329   9.838  11.799  0.1192 -0.3276  0.2467
  701W        W 4445   4.103   5.904  11.891 -0.0664  0.0312 -0.1995
  702W        W 4446   5.443   5.413   3.538  0.0811 -0.1892  0.0411
  703W        W 4447   4.824   8.661   9.863 -0.1814 -0.3818 -0.0917
  704W        W 4448   3.789   2.543   1.701  0.0757 -0.0110 -0.2205
  705W        W 4449   2.611   7.052  10.016 -0.4012 -0.1065  0.1520
  706W        W 4450   0.629   4.633  10.628 -0.1809  0.0226 -0.0402
  707W        W 4451   4.085   9.797   3.390 -0.1095  0.0248 -0.0523
  708W        W 4452   8.838   1.420   9.915 -0.2999  0.2565  0.1446
  709W        W 4453   6.970   5.610   8.803 -0.0482 -0.2302  0.2894
  710W        W 4454   0.269   0.738   1.303 -0.1417  0.0625  0.0025
  711W        W 4455   0.882   4.950   1.242 -0.0252 -0.0613  0.2562
  712W        W 4456   7.267   6.331   1.143 -0.1689  0.0530  0.0863
  713W        W 4457   9.679   0.943   0.469 -0.0257  0.0102 -0.1001
  714W        W 4458   7.166   3.261  12.758  0.0937 -0.2917 -0.0007
  715W        W 4459   3.109   3.307  11.156  0.0302 -0.2126  0.2120
  716W        W 4460   9.854   1.112   3.300  0.0598  0.2158 -0.1280
  717W        W 4461   4.788   9.402   8.262 -0.1178  0.2070 -0.0269
  718W        W 4462   0.811   3.550   2.682  0.2565 -0.2991 -0.0287
  719W        W 4463   7.282   7.644  11.112  0.4207  0.1158  0.0047
  720W        W 4464   0.763   5.293  12.355  0.1299  0.2418 -0.2741
  721W        W 4465   3.622   2.239   3.178  0.0128  0.2693 -0.0921
  722W        W 4466   6.402   6.244   3.289 -0.2822 -0.1088 -0.0955
  723W        W 4467   1.862   1.400  11.944  0.0568  0.1076 -0.0769
  724W        W 4468   8.539   4.478   3.744  0.0320  0.2943  0.1351
  725W        W 4469   6.935   8.642  11.130  0.0379  0.4047 -0.0738
  726W        W 4470   5.492   6.070  10.279  0.4655  0.0594  0.1989
  727W        W 4471   3.885   2.016   5.464  0.4181  0.2731  0.2992
  728W        W 4472   6.919   3.662  10.958 -0.1109  0.1054  0.0113
  729W        W 4473   5.646   8.550   4.028 -0.0738 -0.2877  0.0264
  730W        W 4474   2.752   0.459   1.849  0.0939  0.1205 -0.3848
  731W        W 4475   8.657   3.927   2.458 -0.2167  0.0145  0.0695
  732W        W 4476   1.822   2.383  12.722 -0.0879 -0.1510 -0.1968
  733W        W 4477   0.481   4.536  11.395  0.1294 -0.1211 -0.0713
  734W        W 4478   4.572   7.831   1.652 -0.1584 -0.1745  0.0031
  735W        W 4479   1.678   2.970   9.652  0.0955 -0.2004  0.1787
  736W        W 4480   7.933   6.423   9.317  0.0950  0.0179  0.0283
  737W        W 4481   8.862   4.505  12.678 -0.0417  0.1061 -0.2765
  738W        W 4482   6.554   7.026   8.987 -0.3245 -0.0916 -0.1533
  739W        W 4483   1.024   0.286  10.038 -0.0189  0.1719  0.1739
  740W        W 4484   7.046   3.277  11.270  0.0980 -0.1265 -0.1648
  741W        W 4485   2.415   1.536   3.954  0.2275  0.0754  0.0779
  742W        W 4486   1.145   1.576  11.169  0.2088  0.0078 -0.0158
  743W        W 4487   7.567   2.881   1.137  0.0015  0.5667  0.1128
  744W        W 4488   0.495   6.585   2.807 -0.0093 -0.0890  0.0076
  745W        W 4489   1.686   8.673  12.135  0.2327 -0.1514 -0.2833
  746W        W 4490   6.767   8.247   2.345  0.1876 -0.1711 -0.0863
  747W        W 4491   0.997   5.590   4.064 -0.0222 -0.4410  0.1234
  748W        W 4492   4.629   5.990  11.788  0.1672 -0.0262  0.0037
  749W        W 4493   6.396   4.029  12.744  0.2352  0.0536 -0.4253
  750W        W 4494   7.933   4.191   8.505  0.0238  0.1584  0.0235
  751W        W 4495   4.582   0.677   4.505  0.3252  0.1292 -0.2798
  752W        W 4496   2.405   7.985  12.669 -0.3780 -0.1043  0.1607
  753W        W 4497   1.628   5.993  11.857  0.0161  0.0012  0.1194
  754W        W 4498   0.903   3.034  10.466  0.2233  0.1707 -0.2349
  755W        W 4499   7.668   5.439   1.971  0.1180  0.0533  0.2237
  756W        W 4500   4.186   2.629  12.701  0.2673  0.0581 -0.1793
  757W        W 4501   9.210   4.144  11.057  0.2555 -0.1536  0.2170
  758W        W 4502   9.571   2.759   3.445 -0.4509 -0.1469 -0.0541
  759W        W 4503   2.817   6.081   9.867 -0.1514  0.0395 -0.1131
  760W        W 4504   7.138   4.125  10.814 -0.2933 -0.1961 -0.1341
  761W        W 4505   7.431   7.304   7.688 -0.1751  0.2491  0.0090
  762W        W 4506   5.940   6.489   9.474  0.1611 -0.0447 -0.0224
  763W        W 4507   2.797   7.423  11.035 -0.1514  0.1508 -0.1029
  764W        W 4508   9.002   7.929   3.818  0.4237  0.1146 -0.0672
  765W        W 4509   0.157   7.148   2.076  0.0113  0.0610 -0.2388
  766W        W 4510   1.410   5.015  11.499 -0.0296  0.5528 -0.2301
  767W        W 4511   2.639   4.761  11.087  0.0343 -0.1333  0.2392
  768W        W 4512   9.773   1.522  10.232  0.0842  0.2537  0.0156
  769W        W 4513   5.269   6.097   2.391  0.2441 -0.0629 -0.0299
  770W        W 4514   5.569   1.154   1.054 -0.0614 -0.0651  0.3344
  771W        W 4515   2.356   3.537   1.711  0.1267 -0.1151 -0.1362
  772W        W 4516   5.703   2.797   1.815 -0.0756 -0.2165 -0.1568
  773W        W 4517   7.755   3.911   8.985 -0.0159  0.1950 -0.1464
  774W        W 4518   6.258   4.049   8.814 -0.1003  0.3323  0.1483
  775W        W 4519   2.215   3.121  11.692  0.0034  0.1693 -0.1813
  776W        W 4520   9.122   4.833   2.437  0.5266  0.0573  0.2567
  777W        W 4521   4.599   0.776   1.418 -0.1118  0.1869  0.1169
  778W        W 4522   8.222   5.550  12.140 -0.0756  0.1585  0.1337
  779W        W 4523   4.139   2.914   3.169 -0.1326 -0.5066 -0.1339
  780W        W 4524   3.072   9.377   2.605 -0.2885  0.0608  0.0249
  781W        W 4525   6.547   4.661   8.974 -0.3077 -0.2944 -0.0289
  782W        W 4526   1.792   3.342  11.451  0.2665  0.4709 -0.0734
  783W        W 4527   8.324   9.166  10.581  0.0424 -0.0168  0.0004
  784W        W 4528   8.953   5.068   0.709  0.1001  0.0389  0.0767
  785W        W 4529   8.644   4.831  10.545 -0.0339 -0.2922 -0.1289
  786W        W 4530   1.125   6.666  10.689  0.1100 -0.0708 -0.0526
  787W        W 4531   2.161   5.992  10.222 -0.3173 -0.0241  0.2647
  788W        W 4532   8.781   7.276  10.019  0.0323 -0.1347  0.0183
  789W        W 4533   9.500   0.874  11.330  0.0837  0.4428  0.2590
  790W        W 4534   8.050   1.815  11.901  0.1636  0.0284  0.2022
  791W        W 4535   5.616   4.843  10.827 -0.0353 -0.2191 -0.1296
  792W        W 4536   7.983   1.819  10.058 -0.0505  0.0822 -0.1708
  793W        W 4537   7.321   8.739  11.929 -0.1174 -0.1685  0.0079
  794W        W 4538   1.638   5.488   3.996 -0.2848 -0.1792 -0.0142
  795W        W 4539   4.795   5.903   2.545 -0.2004 -0.2949 -0.2437
  796W        W 4540   4.007   3.502   7.592 -0.1144  0.1171  0.2073
  797W        W 4541   1.208   3.911   1.488  0.1661 -0.4554 -0.2808
  798W        W 4542   9.877   7.144  12.647  0.0475  0.0192 -0.2169
  799W        W 4543   5.190   0.050   8.710  0.0592  0.0904  0.0996
  800W        W 4544   7.265   0.903  11.849 -0.1969  0.1959  0.1683
  801W        W 4545   9.054   5.571   0.478 -0.1016  0.1517  0.0098
  802W        W 4546   7.945   7.440   4.941  0.0636 -0.2110 -0.0021
  803W        W 4547   7.888   7.176   1.986  0.0805  0.0584  0.1489
  804W        W 4548   4.957   3.769  10.375 -0.1988 -0.1195  0.0167
  805W        W 4549   1.165   4.289  12.169 -0.1330  0.1689  0.1456
  806W        W 4550   0.969   9.874   3.659 -0.3248 -0.0598 -0.0621
  807W        W 4551   5.123   1.248   2.620 -0.0210 -0.1447  0.3994
  808W        W 4552   6.933   5.260  10.095  0.1389 -0.3168 -0.0394
  809W        W 4553   1.838   5.045   0.192  0.0323 -0.0615 -0.1171
  810W        W 4554   1.459   6.011   9.882  0.2224  0.0768 -0.1958
  811W        W 4555   6.321   8.930   3.297 -0.2732 -0.2235 -0.1648
  812W        W 4556   5.335   9.528   8.989  0.0164  0.1032 -0.2639
  813W        W 4557   1.557   7.732  10.547 -0.1010 -0.0096  0.1192
  814W        W 4558   7.478   5.731   8.958 -0.0283 -0.1807 -0.0107
  815W        W 4559   6.846   5.454  10.601  0.1163 -0.0539  0.1692
  816W        W 4560   9.428   4.754   1.421  0.2714  0.1482  0.0507
  817W        W 4561   1.370   7.451   1.404 -0.3009 -0.0732  0.2185
  818W        W 4562   9.878   0.637   2.412  0.0561  0.3442  0.0702
  819W        W 4563   0.894   5.287   8.677  0.0057  0.2986  0.1515
  820W        W 4564   1.386   9.613   3.744  0.0415  0.0706 -0.2398
  821W        W 4565   6.844   6.658   2.641  0.0179 -0.0750  0.1179
  822W        W 4566   8.668   9.659  10.582  0.0820  0.0864  0.0139
  823W        W 4567   2.712   9.147  12.679  0.0181  0.0544  0.0687
  824W        W 4568   4.053   8.954   0.284  0.0700 -0.1272  0.0166
  825W        W 4569   9.460   8.042  10.590 -0.0403  0.5860  0.1620
  826W        W 4570   9.578   3.330  12.547 -0.2144  0.3505  0.1054
  827W        W 4571   8.458   1.400   2.963 -0.6045 -0.0905  0.1867
  828W        W 4572   8.090   5.487   1.820 -0.0762  0.2613 -0.0402
  829W        W 4573   0.762   1.483   2.758 -0.0611  0.0119 -0.0176
  830W        W 4574   6.908   5.451  12.670  0.0531  0.2109  0.2278
  831W        W 4575   7.734   0.278  11.212  0.1826  0.2634 -0.2693
  832W        W 4576   0.072   7.366  10.711  0.0667  0.2637 -0.0430
  833W        W 4577   2.393   5.814   3.411  0.2467 -0.1237  0.1169
  834W        W 4578   2.077   4.831  11.004  0.0529  0.0481 -0.1673
  835W        W 4579   1.741   3.540   9.686 -0.3343  0.2581 -0.2122
  836W        W 4580   2.245   0.438   4.381 -0.1372  0.0083  0.1295
  837W        W 4581   2.984   1.740  10.057  0.2141 -0.0068  0.2593
  838W        W 4582   6.449   5.710  10.204  0.2399  0.0975 -0.1820
  839W        W 4583   6.824   6.653   4.443 -0.0759 -0.0477 -0.2138
  840W        W 4584   2.859   3.185   0.155  0.0946  0.0769  0.0664
  841W        W 4585   2.413   9.693  10.144  0.0380 -0.1912 -0.0661
  842W        W 4586   7.469   9.668   9.852 -0.1221 -0.3565  0.1135
  843W        W 4587   3.113   9.189  11.336  0.2727  0.0303 -0.2351
  844W        W 4588   1.899   3.271   0.626  0.0121  0.0959 -0.2585
  845W        W 4589   6.037   8.636   1.054  0.0610  0.1252 -0.0628
  846W        W 4590   7.843   4.617   1.691 -0.1598 -0.0995  0.0163
  847W        W 4591   4.166   9.860   0.709 -0.0704 -0.1770 -0.0388
  848W        W 4592   3.954   4.333   1.961  0.2921 -0.0195 -0.2308
  849W        W 4593   4.570   7.817   8.838 -0.4040  0.2673  0.0996
  850W        W 4594   0.077   3.615   1.447 -0.0059 -0.4476  0.0428
  851W        W 4595   6.406   9.947   9.382 -0.1171  0.1758  0.0932
  852W        W 4596   0.125   3.970   0.514 -0.1268 -0.0052  0.0838
  853W        W 4597   7.998   6.084   0.199  0.3302  0.2022  0.3802
  854W        W 4598   2.656   8.248  11.134  0.0276 -0.0937  0.3370
  855W        W 4599   9.313   3.166   2.624 -0.1089 -0.0249  0.2113
  856W        W 4600   6.746   1.958   0.719  0.1857  0.0721  0.0628
  857W        W 4601   8.171   6.773   2.510  0.1381  0.3186 -0.0648
  858W        W 4602   3.762   1.787   9.621 -0.1371 -0.4481 -0.2714
  859W        W 4603   7.103   8.787  10.046 -0.0524  0.4753  0.0289
  860W        W 4604   7.296   9.370  11.295 -0.1786 -0.2989 -0.0875
  861W        W 4605   2.655   9.949   8.720 -0.1998 -0.1169  0.4837
  862W        W 4606   3.440   0.327  11.032 -0.0261  0.5676 -0.1977
  863W        W 4607   0.959   5.560  10.401 -0.0909  0.0690  0.1491
  864W        W 4608   7.544   8.931   4.661 -0.1922 -0.0095 -0.1450
  865W        W 4609   4.967   9.893   4.757  0.1581 -0.2319  0.0244
  866W        W 4610   5.076   2.059  12.730 -0.0403  0.0165  0.0704
  867W        W 4611   4.529   0.314   8.054 -0.1676  0.1755  0.0236
  868W        W 4612   7.148   2.988  10.018  0.2903  0.2529  0.0648
  869W        W 4613   5.402   7.305  12.769 -0.0484  0.2324 -0.0091
  870W        W 4614   8.294   6.942   8.391 -0.4252  0.1598  0.1790
  871W        W 4615   6.517   3.557   3.950 -0.0637 -0.0190  0.2632
  872W        W 4616   8.563   6.415   9.992 -0.1310  0.1657  0.3970
  873W        W 4617   4.386   0.280  10.907  0.0738  0.0024 -0.1289
  874W        W 4618   9.654   0.391   1.890 -0.0397  0.0033 -0.1793
  875W        W 4619   4.856   3.305  10.657  0.0797  0.2355 -0.0854
  876W        W 4620   1.258   9.763   9.838  0.3284 -0.1503 -0.0914
  877W        W 4621   0.946   3.487   9.836 -0.1505 -0.1872  0.0584
  878W        W 4622   0.012   3.015  12.380  0.0107 -0.0546 -0.0562
  879W        W 4623   3.244   3.067  10.712  0.1940 -0.1846  0.1504
  880W        W 4624   7.361   1.394   0.084 -0.2172  0.1127 -0.2389
  881W        W 4625   5.975   7.273  11.455 -0.1278 -0.0364 -0.2717
  882W        W 4626   3.772   2.350  11.716 -0.2836  0.0321 -0.1139
  883W        W 4627   3.093   3.191   2.164  0.0675 -0.2665 -0.0055
  884W        W 4628   2.977   0.613  10.951  0.0840 -0.2433  0.4138
  885W        W 4629   1.673   8.414   2.558  0.3020  0.0956  0.0846
  886W        W 4630   7.287   0.922   3.274 -0.2390  0.0296  0.3916
  887W        W 4631   7.821   7.648  11.739 -0.4618 -0.0542  0.2799
  888W        W 4632   1.994   9.822  11.084  0.0450  0.1252  0.2242
  889W        W 4633   4.759   8.429   0.069 -0.1335  0.0651 -0.2516
  890W        W 4634   5.343   3.580  12.505  0.0598  0.1911 -0.1130
  891W        W 4635   3.365   2.099   9.464 -0.0498  0.0312  0.1985
  892W        W 4636   3.836   5.621   9.166  0.1993 -0.0176  0.2375
  893W        W 4637   9.590   5.197   4.346  0.3752 -0.2495 -0.1447
  894W        W 4638   7.774   6.968   2.449 -0.1086 -0.0284 -0.3889
  895W        W 4639   8.297   6.880  12.116 -0.3303  0.1568  0.2401
  896W        W 4640   9.585   8.613  10.771 -0.3111 -0.4765  0.1793
  897W        W 4641   0.085   3.490   0.866 -0.2485  0.0746 -0.0376
  898W        W 4642   4.147   6.396   1.399 -0.0082  0.0332  0.2188
  899W        W 4643   8.182   3.673   1.379 -0.1241 -0.1141  0.2554
  900W        W 4644   8.193   3.070   3.664 -0.0465 -0.1946  0.1232
  901W        W 4645   1.672   8.465  10.105 -0.2047 -0.1087  0.1957
  902W        W 4646   8.749   4.531   0.813 -0.2470 -0.0547  0.0191
  903W        W 4647   8.157   7.650   9.644 -0.2784 -0.1375 -0.1207
  904W        W 4648   2.075   9.891   2.890  0.1962 -0.0730  0.1274
  905W        W 4649   7.026   7.287   0.814  0.1764 -0.0421  0.2777
  906W        W 4650   2.370   5.558   9.802 -0.2627  0.2390 -0.0350
  907W        W 4651   6.442   0.564   1.101 -0.2563  0.3825 -0.1464
  908W        W 4652   4.418   8.311   1.937  0.1382  0.2406 -0.1505
  909W        W 4653   6.119   9.015   2.872  0.0120 -0.1796 -0.0570
  910W        W 4654   3.418   9.279   3.026  0.1764 -0.1599 -0.0399
  911W        W 4655   4.521   2.659   2.893  0.3318  0.2059 -0.0680
  912W        W 4656   8.887   4.770   9.247 -0.4091 -0.0644 -0.1804
  913W        W 4657   0.983   8.137   4.341 -0.0203  0.0287 -0.0075
  914W        W 4658   2.063   1.758   1.829 -0.0390 -0.0395 -0.1138
  915W        W 4659   5.438   6.997   2.347  0.1279 -0.3980 -0.1097
  916W        W 4660   5.316   4.483  10.668 -0.1757 -0.1044  0.0173
  917W        W 4661   5.685   1.820   3.459  0.2263  0.0998 -0.0423
  918W        W 4662   1.731   2.938   3.329  0.0360  0.0524  0.1224
  919W        W 4663   1.114   8.687  11.999 -0.1810 -0.2595  0.0405
  920W        W 4664   7.815   9.070   3.253  0.0744  0.0945 -0.0642
  921W        W 4665   6.184   9.510   9.484  0.0173  0.1808  0.2031
  922W        W 4666   5.225   5.337   3.032  0.2554  0.1334 -0.3028
  923W        W 4667   5.195   0.234   2.699  0.3955  0.0438 -0.1822
  924W        W 4668   7.160   6.778   0.959  0.0856 -0.4072  0.4864
  925W        W 4669   4.277   7.551  10.739  0.0465 -0.0827  0.1543
  926W        W 4670   5.446   2.225  11.135 -0.1129 -0.2672  0.0625
  927W        W 4671   9.397   5.457  12.727  0.0403  0.3167  0.1347
  928W        W 4672   6.527   3.874   0.436 -0.1029  0.0786  0.2444
  929W        W 4673   5.655   3.746   3.237  0.3517  0.0826  0.0398
  930W        W 4674   4.824   9.386   3.146  0.0800 -0.0257  0.2828
  931W        W 4675   4.544   1.584   5.589 -0.1325 -0.1827 -0.3041
  932W        W 4676   1.835   1.641   0.945  0.3843  0.0016  0.0434
  933W        W 4677   8.672   7.618   1.526  0.2620  0.1746  0.1117
  934W        W 4678   7.404   8.435  10.860  0.2829  0.2940 -0.1184
  935W        W 4679   2.046   8.626  11.716 -0.2540  0.1431 -0.1074
  936W        W 4680   1.688   5.766   2.689 -0.2248  0.2293 -0.2683
  937W        W 4681   6.236   7.300   1.298 -0.0651  0.2272 -0.2727
  938W        W 4682   3.162   8.269  11.073 -0.2525 -0.0031 -0.0934
  939W        W 4683   4.450   2.909   8.235  0.0015 -0.2034 -0.1183
  940W        W 4684   0.209   4.119  12.436  0.1158  0.1824  0.2301
  941W        W 4685   4.438   3.330  10.929 -0.0773  0.0036 -0.2618
  942W        W 4686   4.736   4.779   2.229  0.0373 -0.0779 -0.2133
  943W        W 4687   1.383   9.640   1.505 -0.0617 -0.1263 -0.3236
  944W        W 4688   2.004   9.876   9.160 -0.0157 -0.2590  0.1259
  945W        W 4689   5.597   2.171   2.349 -0.0374  0.0411 -0.0040
  946W        W 4690   1.336   3.640   2.766  0.0613  0.0575 -0.2086
  947W        W 4691   9.230   2.059   1.525  0.1941  0.0462  0.0417
  948W        W 4692   5.764   9.491   2.974  0.0318 -0.0990 -0.2550
  949W        W 4693   9.881   6.777   3.985  0.0960  0.5263  0.1225
  950W        W 4694   8.207   1.355  10.638  0.4371 -0.3277 -0.0112
  951W        W 4695   5.622   6.446   1.449  0.2296  0.0101 -0.4016
  952W        W 4696   3.854   2.085  11.096  0.0637  0.3916  0.1830
  953W        W 4697   0.016   6.739   2.629 -0.0589  0.1236  0.2341
  954W        W 4698   6.319   6.412   0.781 -0.0374 -0.0677 -0.1310
  955W        W 4699   1.323   6.487   9.702  0.2479  0.0098  0.2379
  956W        W 4700   8.096   3.978   9.901  0.1367 -0.3560 -0.1020
  957W        W 4701   4.580   9.079   4.637 -0.1345  0.0176 -0.1580
  958W        W 4702   0.373   5.652   2.576 -0.2561 -0.2223  0.1125
  959W        W 4703   2.118   5.703   3.959  0.0980 -0.0842 -0.0034
  960W        W 4704   1.437   2.371   2.859  0.0466 -0.3013  0.0201
  961W        W 4705   6.520   5.830  10.745  0.0249 -0.0127  0.1777
  962W        W 4706   1.058   7.893   1.468  0.1863 -0.0715 -0.2055
  963W        W 4707   2.360   3.807   1.212  0.3287 -0.0497 -0.3914
  964W        W 4708   2.952   8.683   1.832  0.1058 -0.0313  0.0202
  965W        W 4709   5.922   5.987   1.543  0.0867  0.0427 -0.0066
  966W        W 4710   7.409   8.986   2.443  0.2936 -0.2378  0.2558
  967W        W 4711   7.173   3.784   4.579  0.3378  0.0182 -0.0891
  968W        W 4712   5.960   0.751   0.441 -0.1956 -0.5418  0.1731
  969W        W 4713   7.704   0.090  10.144 -0.1428  0.4187  0.1322
  970W        W 4714   6.864   7.767   1.920  0.1580 -0.0357 -0.3953
  971W        W 4715   1.595   7.780   3.778  0.1543 -0.0742 -0.0705
  972W        W 4716   4.868   6.878   2.666  0.0989  0.0408  0.3207
  973W        W 4717   1.468   1.832  10.725  0.4341 -0.0631  0.1083
  974W        W 4718   3.313   9.529   3.656 -0.0601 -0.1828  0.2797
  975W        W 4719   8.530   3.524  10.978  0.0353  0.1892 -0.0472
  976W        W 4720   5.390   6.067   1.235  0.2962 -0.3097 -0.1645
  977W        W 4721   0.878   6.516   1.466  0.0875 -0.0671 -0.0484
  978W        W 4722   5.142   5.869   0.427  0.0329  0.0513 -0.4594
  979W        W 4723   3.513   9.399   1.878  0.0478  0.0921  0.3150
  980W        W 4724   7.289   5.470   8.448 -0.0388 -0.1677  0.0305
  981W        W 4725   9.769   7.613   2.104 -0.1916  0.0778  0.1117
  982W        W 4726   3.247   7.846   3.832 -0.3717 -0.1856 -0.1973
  983W        W 4727   8.369   0.051   1.386 -0.0563 -0.2813 -0.0890
  984W        W 4728   5.549   7.540   3.756 -0.0058 -0.2016 -0.0449
  985W        W 4729   3.258   7.948   1.953  0.3101  0.0696  0.3534
  986W        W 4730   7.510   2.476  11.141  0.1205  0.0415  0.0045
  987W        W 4731   5.815   9.047   0.742  0.1998  0.1207 -0.0011
  988W        W 4732   8.855   5.959   3.936 -0.2866  0.1336  0.1478
  989W        W 4733   2.834   3.327   4.688  0.1694 -0.0197 -0.0783
  990W        W 4734   2.256   4.153   2.049  0.0344  0.0926  0.1263
  991W        W 4735   8.998   0.722   2.531  0.0396  0.1207  0.2434
  992W        W 4736   7.032   2.698   0.189 -0.1756  0.3945 -0.1408
  993W        W 4737   6.290   4.819  12.181 -0.0667 -0.2041  0.3397
  994W        W 4738   4.364   6.272   2.257 -0.0635  0.0589  0.1257
  995W        W 4739   3.199   2.158  10.382  0.3242 -0.0607 -0.1679
  996W        W 4740   4.931   7.591   1.350  0.1333 -0.0316 -0.0909
  997W        W 4741   3.957   2.134   1.355  0.0111  0.0145 -0.0041
  998W        W 4742   0.384   9.307   0.517 -0.0427 -0.1973 -0.0744
  999W        W 4743   5.463   3.561   8.381  0.0577  0.1310 -0.0506
 1000W        W 4744   9.505   4.777  10.432 -0.1098 -0.0772  0.3901
 1001W        W 4745   3.880   0.846  10.514 -0.1578  0.0573 -0.2149
 1002W        W 4746   1.000   4.051   2.964  0.1819  0.1209 -0.0985
 1003W        W 4747   8.804   4.284   9.093 -0.0660  0.0119 -0.0703
 1004W        W 4748   4.277   2.323   9.236 -0.1638 -0.0076  0.0380
 1005W        W 4749   4.962   4.350   7.935  0.1732  0.1265 -0.1260
 1006W        W 4750   7.870   2.417   9.382  0.0292 -0.0790 -0.2534
 1007W        W 4751   0.214   6.100  12.771  0.0174  0.3525 -0.1022
 1008W        W 4752   7.672   6.430  10.525  0.0295 -0.3054 -0.0634
 1009W        W 4753   7.780   6.944  10.066 -0.1548 -0.0011 -0.3278
 1010W        W 4754   6.769   3.544  10.383 -0.0265 -0.0764 -0.0200
 1011W        W 4755   5.033   8.208  11.140 -0.0196 -0.0325 -0.2133
 1012W        W 4756   6.394   9.861   2.916  0.0399  0.0685 -0.0143
 1013W        W 4757   4.225   5.771   4.185 -0.1570  0.0297 -0.1047
 1014W        W 4758   7.320   1.329   8.605  0.1263  0.1182 -0.1492
 1015W        W 4759   5.649   0.984  11.608  0.1793 -0.1855 -0.2582
 1016W        W 4760   4.340   2.828  11.116  0.1431 -0.2101  0.1006
 1017W        W 4761   6.525   1.682   3.625  0.0867  0.3238  0.0249
 1018W        W 4762   9.004   4.481   2.086  0.0017  0.0267 -0.2100
 1019W        W 4763   4.136   6.048   1.766  0.0532 -0.1727  0.2549
 1020W        W 4764   5.965   9.076  11.702 -0.0176 -0.2849 -0.1615
 1021W        W 4765   6.921   5.332   3.682 -0.0938  0.0526 -0.0842
 1022W        W 4766   0.784   7.430   9.007  0.3208 -0.2656  0.2423
 1023W        W 4767   8.177   0.384  10.955 -0.0848  0.1046  0.2914
 1024W        W 4768   5.498   8.081   9.723 -0.3196  0.2299 -0.0611
 1025W        W 4769   1.907   7.197   0.859  0.1049 -0.1575  0.0430
 1026W        W 4770   7.436   4.868   4.624 -0.0689 -0.2270  0.2915
 1027W        W 4771   2.225   4.626  10.267  0.1971 -0.0917 -0.3569
 1028W        W 4772   4.891   6.255   4.031 -0.0841  0.4977  0.0800
 1029W        W 4773   9.403   6.735   0.441  0.0141 -0.0813  0.0381
 1030W        W 4774   7.063   5.035  12.286 -0.1752  0.3039  0.0898
 1031W        W 4775   3.571   8.236   2.836  0.0658 -0.1366  0.0355
 1032W        W 4776   6.535   9.084   9.597  0.2850 -0.0593  0.1311
 1033W        W 4777   5.246   4.654   0.583  0.0729  0.0675  0.2179
 1034W        W 4778   8.344   8.706   0.808  0.0245  0.2656 -0.2432
 1035W        W 4779   3.751   9.540  11.529 -0.0185 -0.0464  0.0629
 1036W        W 4780   4.544   7.930   3.031  0.0446 -0.0577 -0.0270
 1037W        W 4781   3.325   7.292   1.967 -0.2381 -0.1716 -0.1015
 1038W        W 4782   5.184   6.090   8.556 -0.1800  0.2324 -0.1229
 1039W        W 4783   6.292   7.349   9.265 -0.1351 -0.0734  0.2287
 1040W        W 4784   9.774   8.282   4.701  0.2151  0.0998  0.1794
 1041W        W 4785   1.088   0.991   1.540  0.0376  0.2209 -0.1902
 1042W        W 4786   9.017   6.445   0.521 -0.2392 -0.0154  0.0789
 1043W        W 4787   3.232   4.067   4.180  0.1806  0.1009 -0.1596
 1044W        W 4788   4.765   7.697   2.614 -0.0079 -0.0243 -0.0470
 1045W        W 4789   7.504   8.217  12.750 -0.1290  0.3661  0.1894
 1046W        W 4790   0.494   3.599   8.541  0.0885  0.1003  0.1924
 1047W        W 4791   8.692   5.327  10.498  0.4290  0.1639  0.1400
 1048W        W 4792   0.553   2.928  12.539  0.4606  0.0525  0.0013
 1049W        W 4793   4.405   7.744  11.483  0.2187 -0.1764  0.0624
 1050W        W 4794   8.927   5.826  11.352  0.2546 -0.1402  0.0981
 1051W        W 4795   3.684   6.075   8.774  0.4633  0.0770  0.0095
 1052W        W 4796   3.536   4.049   0.428  0.0044  0.1542  0.5888
 1053W        W 4797   9.056   1.044  12.042 -0.1320 -0.4770  0.0112
 1054W        W 4798   2.362   8.646   8.809  0.3201 -0.4746  0.0639
 1055W        W 4799   3.997   7.768  11.101  0.3842  0.1675  0.1150
 1056W        W 4800   7.791   3.928  11.318  0.1919 -0.1326  0.1426
 1057W        W 4801   7.821   2.731  12.318 -0.2039 -0.1782  0.3965
 1058W        W 4802   5.013   3.848   1.854  0.0483 -0.0753 -0.1072
 1059W        W 4803   0.985   1.453   3.285 -0.0555  0.2151 -0.1150
 1060W        W 4804   2.463   8.546   1.668  0.0271  0.2096  0.2165
 1061W        W 4805   1.732   7.616   1.983  0.0624 -0.2527  0.3578
 1062W        W 4806   0.886   0.821  11.942  0.0885 -0.1424 -0.2117
 1063W        W 4807   0.730   2.875   3.275  0.3325 -0.3535 -0.1987
 1064W        W 4808   4.219   1.323   1.955  0.1086  0.0251  0.0079
 1065W        W 4809   7.091   5.800  10.119 -0.0973  0.0316  0.1110
 1066W        W 4810   4.949   0.915   9.435  0.3847  0.0020  0.1345
 1067W        W 4811   4.299   6.642   4.249 -0.2763 -0.0100  0.0359
 1068W        W 4812   8.475   8.283   2.287  0.2238 -0.1519 -0.1059
 1069W        W 4813   3.458   1.763  12.495  0.0523 -0.0633 -0.1011
 1070W        W 4814   8.737   6.389   3.710 -0.0485  0.1104 -0.2447
 1071W        W 4815   0.225   5.037   9.406  0.0658  0.1495 -0.1699
 1072W        W 4816   3.301   2.747  11.104  0.2137  0.0848  0.1784
 1073W        W 4817   9.758   9.347   9.841  0.1511  0.2013  0.0327
 1074W        W 4818   6.146   0.315   2.732 -0.2128 -0.1479 -0.1817
 1075W        W 4819   0.114   5.036   4.587 -0.0492 -0.1470  0.0489
 1076W        W 4820   8.327   0.034   3.329  0.1624 -0.0007 -0.2342
 1077W        W 4821   5.491   5.588  10.122  0.0993  0.0519 -0.0002
 1078W        W 4822   0.585   3.133   1.785 -0.1537  0.1816  0.0921
 1079W        W 4823   0.924   7.511   9.814 -0.2179 -0.0385  0.2566
 1080W        W 4824   4.985   0.991   9.930  0.1923  0.0892 -0.0048
 1081W        W 4825   7.172   5.182  10.901 -0.2611  0.0864 -0.2056
 1082W        W 4826   7.508   4.761  11.892  0.2443  0.4216  0.0128
 1083W        W 4827   7.773   4.872  12.554 -0.1760  0.0319  0.0951
 1084W        W 4828   3.891   0.526  10.913  0.0183  0.1274 -0.0003
 1085W        W 4829   1.625   7.170   2.473 -0.1285  0.0939 -0.1520
 1086W        W 4830   7.043   4.493   8.282 -0.3637  0.2753  0.5037
 1087W        W 4831   9.487   3.748   9.920 -0.0749 -0.1175 -0.2704
 1088W        W 4832   2.734   9.008   9.576 -0.3001  0.0794  0.0193
 1089W        W 4833   2.802   5.971   2.358 -0.3167 -0.2802 -0.2217
 1090W        W 4834   1.741   3.105  10.971 -0.1795 -0.0769 -0.5382
 1091W        W 4835   2.324   7.457  12.544  0.1537 -0.1164 -0.2041
 1092W        W 4836   2.899   2.352  11.205  0.0696 -0.3629 -0.0801
 1093W        W 4837   6.072   2.670   0.835 -0.3851 -0.0754 -0.3268
 1094W        W 4838   1.777   1.131   9.743  0.0613 -0.0972  0.0899
 1095W        W 4839   6.289   0.579   2.262  0.1971  0.1280 -0.1157
 1096W        W 4840   6.557   9.436  11.921  0.1867  0.3009  0.0517
 1097W        W 4841   8.593   7.789   2.962  0.2818  0.2494  0.3062
 1098W        W 4842   4.078   2.484  10.768 -0.2709  0.0537 -0.2988
 1099W        W 4843   3.543   7.049  10.682  0.0293 -0.1577  0.2103
 1100W        W 4844   6.748   6.385  11.485  0.1586  0.0921 -0.1590
 1101W        W 4845   9.768   6.064   0.813  0.1814 -0.1008  0.0352
 1102W        W 4846   8.736   7.129   5.355 -0.0491 -0.1718 -0.0326
 1103W        W 4847   2.578   8.282   3.622 -0.2609  0.3115 -0.1461
 1104W        W 4848   3.990   1.831  12.446 -0.0201  0.1196  0.2365
 1105W        W 4849   6.851   7.035  12.630 -0.0217 -0.3386  0.0906
 1106W        W 4850   3.367   6.435  12.199  0.0368 -0.2581  0.2287
 1107W        W 4851   4.599   7.672   2.147 -0.0005 -0.2506  0.4277
 1108W        W 4852   2.677   8.008   9.896  0.0828 -0.0586 -0.2800
 1109W        W 4853   3.970   9.403   0.539  0.2401 -0.2397 -0.1411
 1110W        W 4854   3.691   7.631   2.179  0.2289  0.0126  0.3584
 1111W        W 4855   8.997   8.245  11.478 -0.0384 -0.1270  0.1190
 1112W        W 4856   3.128   6.880   1.082 -0.0596  0.1459  0.1733
 1113W        W 4857   1.030   7.882  12.052 -0.0888  0.0378  0.1551
 1114W        W 4858   6.543   6.745  11.851  0.3181 -0.1486 -0.0698
 1115W        W 4859   8.337   2.653   2.612  0.2251 -0.1401 -0.2421
 1116W        W 4860   3.043   2.719  11.544  0.1302  0.2811 -0.1289
 1117W        W 4861   3.504   2.066   0.650  0.1483  0.0932  0.0345
 1118W        W 4862   1.061   6.088   3.930 -0.1237  0.0647 -0.0718
 1119W        W 4863   5.756   4.091   4.297 -0.2571 -0.3561 -0.0542
 1120W        W 4864   5.816   1.484   9.604 -0.0675 -0.1343 -0.0627
 1121W        W 4865   4.718   1.203   4.569  0.1812  0.2413  0.1950
 1122W        W 4866   8.390   4.466   3.271  0.2337 -0.1294 -0.0674
 1123W        W 4867   8.526   5.910  12.322  0.0321 -0.0312  0.2804
 1124W        W 4868   7.442   8.500  12.317  0.0962 -0.1053  0.0905
 1125W        W 4869   3.155   3.714  12.091  0.2836  0.0283  0.0736
 1126W        W 4870   9.739   0.669  10.145  0.2465 -0.1229 -0.3634
 1127W        W 4871   8.038   0.094   0.484  0.2658 -0.0934 -0.4267
 1128W        W 4872   3.682   1.169   0.454 -0.1199 -0.1595  0.0208
 1129W        W 4873   8.026   6.576   8.741  0.2086 -0.0314 -0.0948
 1130W        W 4874   5.880   3.271   2.125  0.1816  0.1114 -0.1159
 1131W        W 4875   0.907   3.801   1.862  0.0744 -0.1322 -0.0555
 1132W        W 4876   6.051   4.011   1.336 -0.0731  0.0491  0.2582
 1133W        W 4877   5.403   8.251   2.121 -0.3870 -0.0547  0.1887
 1134W        W 4878   0.705   9.819  11.982 -0.0826 -0.2429 -0.1715
 1135W        W 4879   4.242   5.296   9.115 -0.1951 -0.3168 -0.1482
 1136W        W 4880   8.417   3.334  11.895  0.1725 -0.0072  0.1221
 1137W        W 4881   8.424   5.185  11.863  0.1686  0.2703  0.2246
 1138W        W 4882   3.684   1.381   1.932 -0.1613  0.0261 -0.0378
 1139W        W 4883   5.213   2.569   9.117 -0.1929  0.0261 -0.0071
 1140W        W 4884   4.256   1.043   4.392  0.2011 -0.1534 -0.0678
 1141W        W 4885   8.072   1.021   1.504  0.0243 -0.1754 -0.1469
 1142W        W 4886   5.199   6.156  11.213  0.2131 -0.1859  0.0687
 1143W        W 4887   6.881   1.399  11.318 -0.0926  0.1863 -0.1519
 1144W        W 4888   2.885   9.850  10.259 -0.0726 -0.0613  0.0881
 1145W        W 4889   4.973   2.026   1.278  0.1241 -0.1430 -0.1288
 1146W        W 4890   5.325   3.228   3.305 -0.0886 -0.2884 -0.3089
 1147W        W 4891   9.882   6.268   1.957 -0.4131  0.1293 -0.0852
 1148W        W 4892   4.337   5.040  10.153 -0.2510 -0.1157  0.3824
 1149W        W 4893   4.150   7.514   8.803  0.4163  0.0949 -0.1315
 1150W        W 4894   7.190   5.934   0.803  0.2104  0.0410  0.0484
 1151W        W 4895   0.792   0.615   2.607 -0.1563  0.2748 -0.2415
 1152W        W 4896   4.271   5.331   2.972  0.2860  0.0835  0.1978
 1153W        W 4897   7.262   8.159   0.711 -0.2095  0.0098 -0.0240
 1154W        W 4898   5.421   7.452  11.464  0.0700 -0.2255 -0.1788
 1155W        W 4899   8.943   7.788  11.139 -0.1775 -0.2301  0.2348
 1156W        W 4900   3.049   9.630   1.735 -0.1693 -0.0597 -0.0392
 1157W        W 4901   0.114   0.701   0.836  0.0009  0.0538 -0.0590
 1158W        W 4902   5.106   1.157   3.144 -0.2892 -0.1254  0.0535
 1159W        W 4903   0.993   3.940   8.746  0.1099 -0.0302 -0.0142
 1160W        W 4904   1.505   0.201  10.768  0.0483  0.2394  0.2301
 1161W        W 4905   2.511   0.633   9.677 -0.1376 -0.2983  0.0266
 1162W        W 4906   8.625   1.235  10.934  0.0140  0.0116 -0.1459
 1163W        W 4907   2.599   5.672   3.835 -0.5494  0.1831 -0.0705
 1164W        W 4908   8.179   2.662  11.277 -0.0091  0.0982 -0.4005
 1165W        W 4909   5.168   5.620   1.245 -0.0541  0.1352  0.0449
 1166W        W 4910   4.443   3.629   8.774 -0.0065  0.1376  0.2196
 1167W        W 4911   2.185   6.973  12.381 -0.3038 -0.0187 -0.2518
 1168W        W 4912   5.507   2.780   0.928 -0.4457  0.1426 -0.4368
 1169W        W 4913   0.446   0.173  10.592  0.1588 -0.3719 -0.3836
 1170W        W 4914   5.105   8.696  10.968  0.0108 -0.2401  0.3660
 1171W        W 4915   6.175   8.132   3.802 -0.0622  0.2584 -0.3494
 1172W        W 4916   7.463   8.475   1.136  0.2136  0.0318  0.0127
 1173W        W 4917   6.551   1.570   9.983  0.1294 -0.0378 -0.0193
 1174W        W 4918   6.739   9.651   3.190  0.0481  0.2472  0.0790
 1175W        W 4919   7.723   6.079   9.612 -0.0088  0.1846  0.0186
 1176W        W 4920   7.949   8.347   1.334 -0.2511  0.0259  0.1022
 1177W        W 4921   3.857   4.458   0.291  0.0862 -0.0035  0.2146
 1178W        W 4922   4.664   4.339  10.310  0.2823 -0.0464 -0.0819
 1179W        W 4923   8.762   3.453   2.488  0.1166  0.2664  0.4232
 1180W        W 4924   5.904   3.928   9.828  0.0051 -0.0656  0.0897
 1181W        W 4925   2.597   1.552   9.827 -0.1784  0.1314 -0.0791
 1182W        W 4926   8.247   2.012   0.112  0.1709 -0.1328  0.2590
 1183W        W 4927   2.368   5.613  10.734  0.0746  0.1350  0.3169
 1184W        W 4928   6.840   5.872   1.087 -0.0121 -0.0620 -0.0231
 1185W        W 4929   4.651   0.242  12.064 -0.0438 -0.3631  0.1340
 1186W        W 4930   5.267   5.982   3.438  0.1541 -0.1297  0.3423
 1187W        W 4931   7.775   2.696  10.786  0.1535  0.1159 -0.2618
 1188W        W 4932   4.857   7.486  11.895 -0.0481 -0.2254 -0.1515
 1189W        W 4933   8.078   9.057  12.557  0.1689 -0.2448 -0.2191
 1190W        W 4934   6.486   4.605  11.786  0.1319  0.1894  0.0344
 1191W        W 4935   9.625   3.187  10.734 -0.0982  0.1278 -0.0848
 1192W        W 4936   5.924   0.074   3.227  0.2225  0.1204  0.0521
 1193W        W 4937   4.471   8.286   1.347 -0.0099  0.0432  0.1920
 1194W        W 4938   8.319   5.735  11.095 -0.2642  0.0571  0.1878
 1195W        W 4939   1.728   9.202  10.556 -0.0351  0.2974 -0.3334
 1196W        W 4940   9.779   4.563   1.687 -0.1860  0.1786 -0.1053
 1197W        W 4941   2.392   7.277   9.590  0.0833 -0.0096  0.0187
 1198W        W 4942   9.342   8.503  10.278  0.0610  0.1380  0.1713
 1199W        W 4943   3.448   6.062   9.204 -0.2526 -0.0399 -0.1354
 1200W        W 4944   7.773   6.344   1.318  0.2086 -0.0529 -0.3741
 1201W        W 4945   8.316   3.168   9.826 -0.2062  0.1601 -0.0514
 1202W        W 4946   8.512   8.523  11.863 -0.0091 -0.1456 -0.1592
 1203W        W 4947   8.754   6.180   2.604 -0.0749  0.0611 -0.1211
 1204W        W 4948   9.404   4.846   4.883 -0.1697 -0.1591  0.2100
 1205W        W 4949   8.687   6.476   7.898  0.0243 -0.2632  0.0904
 1206W        W 4950   5.543   2.461   9.677  0.1983 -0.2616 -0.2942
 1207W        W 4951   2.931   1.447   1.510  0.3226 -0.0327 -0.1912
 1208W        W 4952   3.375   4.863   1.844 -0.0014  0.0362 -0.1041
 1209W        W 4953   3.443   9.940  10.210  0.0618 -0.2781  0.3461
 1210W        W 4954   9.877   6.833  12.222 -0.1258 -0.1538 -0.0076
 1211W        W 4955   5.962   2.301  11.898 -0.0229  0.3239  0.2362
 1212W        W 4956   3.265   7.501  12.568 -0.3605 -0.2009  0.0695
 1213W        W 4957   1.798   1.251   2.142  0.0345  0.1997  0.3412
 1214W        W 4958   6.240   1.657   0.254  0.1988 -0.1388 -0.3029
 1215W        W 4959   0.463   6.265  12.345  0.3018  0.2776 -0.1160
 1216W        W 4960   3.967   1.949   4.562 -0.2191  0.3136 -0.0473
 1217W        W 4961   7.270   2.149   2.007  0.1796  0.0349 -0.1195
 1218W        W 4962   8.032   5.020   2.546 -0.2332  0.4342  0.0616
 1219W        W 4963   9.740   6.639   8.405 -0.1648 -0.2015  0.1977
 1220W        W 4964   4.009   0.837  12.147  0.1460  0.1899 -0.0887
 1221W        W 4965   4.694   8.576  11.243  0.1294  0.0122  0.0571
 1222W        W 4966   1.323   6.317   9.028  0.1766 -0.3412  0.1658
 1223W        W 4967   2.978   3.407   9.749  0.0133 -0.0379  0.1056
 1224W        W 4968   4.141   6.851   9.531  0.1377 -0.1342 -0.2127
 1225W        W 4969   2.961   2.765   2.001 -0.2052 -0.0235 -0.2577
 1226W        W 4970   3.987   4.650  10.964  0.1186  0.0557 -0.0803
 1227W        W 4971   0.738   1.568  10.200 -0.1560 -0.1953  0.1063
 1228W        W 4972   2.658   9.004   1.282  0.1020 -0.1442 -0.1014
 1229W        W 4973   7.532   6.660  12.442  0.2749  0.0985 -0.2862
 1230W        W 4974   8.799   4.880  11.625 -0.0565 -0.1851  0.0419
 1231W        W 4975   1.439   1.443   0.010 -0.2044  0.0949  0.0739
 1232W        W 4976   0.931   6.410   8.416  0.3493 -0.0037 -0.0412
 1233W        W 4977   4.781   6.363   9.464 -0.2391 -0.2170 -0.0605
 1234W        W 4978   1.645   9.124   9.923  0.4241  0.2003  0.1237
 1235W        W 4979   6.084   3.217   8.613 -0.0559 -0.1655  0.0937
 1236W        W 4980   9.777   5.608  10.014  0.0641 -0.0484  0.0574
 1237W        W 4981   7.313   1.533  11.078 -0.1294  0.2301  0.0924
 1238W        W 4982   1.746   4.192  12.342  0.0519  0.0042 -0.0677
 1239W        W 4983   4.193   2.304  12.353  0.1777 -0.2133  0.0157
 1240W        W 4984   8.373   5.766  10.565 -0.1299 -0.1245  0.1040
 1241W        W 4985   1.089   6.597   0.625  0.1231 -0.3354  0.1299
 1242W        W 4986   1.117   4.203   9.748  0.0549  0.0170  0.3065
 1243W        W 4987   1.137   0.238  11.115 -0.1004  0.1924 -0.1920
 1244W        W 4988   5.298   1.752  11.336  0.1464 -0.1699  0.0571
 1245W        W 4989   2.506   9.241  10.207 -0.0580  0.2297 -0.3813
 1246W        W 4990   6.477   0.139   2.346 -0.4344 -0.0969 -0.3271
 1247W        W 4991   2.113   0.425   2.562 -0.1477 -0.1236 -0.0674
 1248W        W 4992   0.205   6.206   2.590  0.2290  0.0960  0.0734
 1249W        W 4993   3.159   1.453   1.041  0.2486  0.0218  0.1712
 1250W        W 4994   9.168   2.026   2.500 -0.1913 -0.1735 -0.3655
 1251W        W 4995   8.494   7.883  12.486  0.1829 -0.2850  0.0679
 1252W        W 4996   2.874   4.985   3.335 -0.1372 -0.0936 -0.0312
 1253W        W 4997   8.338   7.401   0.048  0.1561  0.1540 -0.0865
 1254W        W 4998   3.852   2.390   0.379  0.1487 -0.1769  0.0968
 1255W        W 4999   4.975   2.295   4.320 -0.0839 -0.0748  0.0889
 1256W        W 5000   5.787   3.551   1.377 -0.2513  0.1837 -0.2034
 1257W        W 5001   7.207   7.919   0.218  0.3012 -0.2006  0.3175
 1258W        W 5002   8.860   0.706   2.011 -0.0563 -0.2200  0.3478
 1259W        W 5003   5.590   8.946   9.786  0.3266 -0.0090  0.1436
 1260W        W 5004   5.853   4.214   0.866  0.1805 -0.0424 -0.2375
 1261W        W 5005   1.135   3.790  10.902 -0.2935 -0.4679 -0.0036
 1262W        W 5006   1.755   5.913   9.141  0.1371 -0.0592  0.0480
 1263W        W 5007   3.927   4.302   1.161  0.1058 -0.1606  0.3076
 1264W        W 5008   1.110   1.038  11.038 -0.1703  0.2879  0.2042
 1265W        W 5009   9.550   7.437   2.745 -0.0781  0.0467 -0.2060
 1266W        W 5010   7.476   1.136  10.120  0.0121  0.2382 -0.1905
 1267W        W 5011   2.132   9.376   2.986 -0.0424  0.1518  0.1257
 1268W        W 5012   4.166   9.581   0.134  0.0832 -0.3060  0.2825
 1269W        W 5013   4.121   5.292   1.006 -0.1649  0.0111 -0.0609
 1270W        W 5014   2.481   2.311   2.841 -0.1795 -0.2162 -0.2669
 1271W        W 5015   7.137   0.582   1.389  0.0424  0.2166 -0.2454
 1272W        W 5016   2.764   7.540   9.349 -0.1433  0.0109 -0.1825
 1273W        W 5017   4.211   0.452   0.696 -0.2343 -0.0789 -0.0243
 1274W        W 5018   2.402   2.705  12.035 -0.0800 -0.0344 -0.2584
 1275W        W 5019   1.233   6.322   2.348 -0.2713 -0.0378 -0.3118
 1276W        W 5020   8.061   4.897   3.024 -0.0169 -0.0775  0.1913
 1277W        W 5021   0.633   2.181   1.454  0.1535  0.3208 -0.1502
 1278W        W 5022   8.786   8.032   0.424 -0.0499  0.3251  0.3534
 1279W        W 5023   2.983   8.277   3.933 -0.1618  0.3518 -0.2446
 1280W        W 5024   0.693   5.352   0.911 -0.1137 -0.4046  0.1575
 1281W        W 5025   0.399   5.207   3.338  0.1089 -0.3095 -0.1201
 1282W        W 5026   8.306   8.713   9.694 -0.0141  0.1709 -0.2097
 1283W        W 5027   8.188   2.022   2.280  0.0894 -0.4501 -0.1698
 1284W        W 5028   6.288   8.618  11.491 -0.1419 -0.1916  0.2512
 1285W        W 5029   9.138   5.460  10.394  0.4490  0.1480 -0.0169
 1286W        W 5030   3.668   7.078   8.130  0.2411 -0.0302 -0.1663
 1287W        W 5031   7.924   6.236   1.902 -0.4198 -0.4411  0.0740
 1288W        W 5032   4.963   9.278   3.640  0.2492  0.1233  0.0641
 1289W        W 5033   6.928   5.922   8.421  0.0476 -0.0194  0.2857
 1290W        W 5034   5.861   2.831  11.704 -0.1268  0.0179  0.1829
 1291W        W 5035   5.258   5.262   0.336 -0.0334  0.1237 -0.0747
 1292W        W 5036   5.750   0.325   4.142  0.0076 -0.0108 -0.1264
 1293W        W 5037   0.207   8.462   9.745  0.0527  0.0697  0.1864
 1294W        W 5038   7.171   6.609   0.049 -0.0436  0.4742 -0.2295
 1295W        W 5039   2.134   2.426   1.542  0.2382 -0.0176  0.1774
 1296W        W 5040   8.841   2.415   1.427  0.1737 -0.1369  0.0422
 1297W        W 5041   7.892   5.858   2.191  0.1338 -0.3531  0.0684
 1298W        W 5042   4.326   0.759   3.051  0.0955  0.2922  0.1788
 1299W        W 5043   7.862   6.221   3.082 -0.1796 -0.3408 -0.1321
 1300W        W 5044   6.685   3.650  12.524  0.1046  0.0046 -0.1270
 1301W        W 5045   0.020   2.506  12.409 -0.2617 -0.2265  0.2241
 1302W        W 5046   4.318   8.385  11.986 -0.1548 -0.3534  0.1258
 1303W        W 5047   3.666   7.212  11.686  0.2412  0.0166  0.1244
 1304W        W 5048   4.575   2.398   9.717 -0.0079 -0.2119 -0.3742
 1305W        W 5049   9.154   7.350  11.332  0.0223  0.1932  0.2380
 1306W        W 5050   3.434   3.612   2.729  0.1117  0.0183 -0.0789
 1307W        W 5051   5.410   2.033   0.774 -0.0205  0.0708 -0.0378
 1308W        W 5052   4.725   1.833   4.428  0.2027  0.0833  0.1414
 1309W        W 5053   5.620   6.919   1.033 -0.1173 -0.2151 -0.1951
 1310W        W 5054   1.638   6.664   1.990 -0.0688  0.1892 -0.1523
 1311W        W 5055   4.593   5.371  11.007 -0.2186 -0.2585  0.0289
 1312W        W 5056   6.932   3.567   2.725  0.0987 -0.0387 -0.6618
 1313W        W 5057   7.830   7.448  10.049  0.1172  0.0330  0.1810
 1314W        W 5058   4.780   1.929   3.971  0.1880  0.1305 -0.0997
 1315W        W 5059   6.187   6.722   9.860  0.2230 -0.1295 -0.1474
 1316W        W 5060   8.012   9.585  12.314 -0.1611 -0.0572 -0.1981
 1317W        W 5061   6.613   4.863  10.426 -0.0529 -0.0953 -0.4259
 1318W        W 5062   9.251   4.507   4.097  0.2577 -0.0537  0.1831
 1319W        W 5063   5.616   7.292   1.917 -0.0874 -0.0687 -0.2586
 1320W        W 5064   3.615   3.638   0.739  0.3731 -0.1948 -0.0871
 1321W        W 5065   9.582   3.652   1.207 -0.2384 -0.1202 -0.0451
 1322W        W 5066   1.161   8.382  11.154  0.1624  0.1223  0.0650
 1323W        W 5067   0.225   5.810  10.141  0.1558  0.0142  0.0408
 1324W        W 5068   7.531   2.558   0.700  0.4261  0.3962  0.0331
 1325W        W 5069   1.496   0.689   0.854  0.3582  0.1698 -0.2186
 1326W        W 5070   6.596   5.421   0.674 -0.2298 -0.2592  0.1751
 1327W        W 5071   3.631   1.269  10.810 -0.1161 -0.0137  0.1544
 1328W        W 5072   4.666   2.027   2.049  0.2454 -0.2330 -0.0320
 1329W        W 5073   7.120   8.477   1.466 -0.4679 -0.0456  0.0186
 1330W        W 5074   3.792   4.277  10.389  0.0316  0.1223  0.0496
 1331W        W 5075   0.806   6.948   9.135  0.4765 -0.2562 -0.1012
 1332W        W 5076   6.016   2.126   9.268  0.4435 -0.2310  0.2471
 1333W        W 5077   6.360   3.689  11.627  0.1470  0.0683  0.0963
 1334W        W 5078   4.382   0.938   2.242  0.0818 -0.1200  0.0519
 1335W        W 5079   6.182   4.622   2.591 -0.1174 -0.2749 -0.2408
 1336W        W 5080   3.574   6.894  12.081 -0.1566 -0.1958  0.1665
 1337W        W 5081   3.268   7.054   4.576 -0.1236  0.0104  0.1091
 1338W        W 5082   4.468   7.323   1.507  0.2611  0.1842  0.1490
 1339W        W 5083   9.307   7.564  12.712 -0.1626  0.1327  0.1197
 1340W        W 5084   4.662   3.974   2.350  0.1447  0.1985 -0.0200
 1341W        W 5085   4.001   8.028  11.816  0.2099  0.0371 -0.0689
 1342W        W 5086   0.496   3.670   3.378 -0.0319  0.1944 -0.0533
 1343W        W 5087   4.925   7.874   0.822  0.0428 -0.1421  0.0272
 1344W        W 5088   4.779   1.988  10.484 -0.2029  0.1039  0.3063
 1345W        W 5089   9.112   9.560   3.168 -0.0441 -0.0688  0.1850
 1346W        W 5090   5.706   8.772  12.259 -0.1666  0.0013  0.1862
 1347W        W 5091   5.878   7.319   0.566  0.1212  0.2306  0.0510
 1348W        W 5092   0.764   3.790   8.175  0.1009  0.1567 -0.0007
 1349W        W 5093   5.013   1.030   1.031  0.1763 -0.0602  0.1903
 1350W        W 5094   4.913   4.541   1.153  0.0199  0.0368  0.1152
 1351W        W 5095   0.897   6.141  10.754  0.4265 -0.0438 -0.2523
 1352W        W 5096   7.221   8.401   3.654 -0.2695  0.0602 -0.2898
 1353W        W 5097   4.381   7.516   0.175 -0.2210 -0.0676  0.0977
 1354W        W 5098   0.318   2.116   0.550  0.2785 -0.1529 -0.0333
 1355W        W 5099   6.923   4.102   1.166 -0.2767 -0.1944  0.0220
 1356W        W 5100   4.544   8.883   3.750  0.0964 -0.1155 -0.6335
 1357W        W 5101   1.833   4.565   3.092 -0.1698 -0.1067  0.1300
 1358W        W 5102   1.284   1.936   1.673  0.3288  0.1537  0.0434
 1359W        W 5103   8.252   9.657   0.916 -0.0158 -0.1206 -0.1179
 1360W        W 5104   6.363   4.646  10.006  0.0951  0.0768 -0.0084
 1361W        W 5105   0.387   3.196  10.535 -0.3566  0.1671  0.1854
 1362W        W 5106   0.137   3.555   3.744 -0.2764 -0.1956  0.1363
 1363W        W 5107   3.679   4.716   2.255 -0.0329  0.0059  0.2047
 1364W        W 5108   7.741   8.070   0.533 -0.3167  0.0993 -0.0907
 1365W        W 5109   7.174   8.267   4.154 -0.1152  0.0091  0.1363
 1366W        W 5110   3.391   0.062   1.720  0.2282  0.2891  0.2776
 1367W        W 5111   8.062   2.924   8.585 -0.1441  0.0024 -0.0897
 1368W        W 5112   1.921   1.006  10.739 -0.0921  0.1247 -0.1105
 1369W        W 5113   5.160   7.727  11.096 -0.1012  0.0880  0.1333
 1370W        W 5114   6.501   6.812  10.834  0.0216  0.2009 -0.4326
 1371W        W 5115   8.024   7.269   1.476 -0.0567  0.0804 -0.1933
 1372W        W 5116   9.267   1.665   1.192  0.0923 -0.1704 -0.0303
 1373W        W 5117   4.101   7.478   9.570  0.0040  0.0457  0.1723
 1374W        W 5118   3.727   8.858   9.620 -0.2094  0.0750  0.0053
 1375W        W 5119   0.287   6.099   5.344 -0.0326  0.0300 -0.0322
 1376W        W 5120   1.246   1.693  10.265  0.0124  0.1881 -0.0429
 1377W        W 5121   4.125   7.706   1.517 -0.0901 -0.0178  0.0458
 1378W        W 5122   1.617   2.425  10.237 -0.3874  0.0957 -0.0580
 1379W        W 5123   1.609   1.187   0.701 -0.2063  0.0043 -0.2626
 1380W        W 5124   7.141   7.941   1.492 -0.0501  0.1743 -0.0944
 1381W        W 5125   4.966   2.893   1.237 -0.0303  0.1101  0.1106
 1382W        W 5126   2.595   9.139   9.028 -0.0863 -0.3037  0.1824
 1383W        W 5127   2.297   6.919   0.875 -0.0767 -0.0134  0.2925
 1384W        W 5128   3.725   4.603   9.411 -0.3770 -0.0527  0.0569
 1385W        W 5129   8.058   4.181   3.564  0.0780 -0.1266 -0.1908
 1386W        W 5130   0.375   9.309   0.984  0.3205  0.1527 -0.1694
 1387W        W 5131   5.080   0.392  10.935 -0.2115  0.3246  0.1691
 1388W        W 5132   1.547   5.666  12.346  0.1112  0.2252  0.2165
 1389W        W 5133   9.603   7.944   4.338 -0.4218 -0.0211 -0.1081
 1390W        W 5134   3.878   7.264   2.913  0.0610  0.0551 -0.1384
 1391W        W 5135   5.293   8.377   0.177 -0.1699 -0.0180  0.0402
 1392W        W 5136   6.748   6.339  12.049 -0.1450 -0.1260 -0.2476
 1393W        W 5137   8.983   8.496   1.555  0.1060 -0.1702 -0.0997
 1394W        W 5138   6.758   2.871  11.279 -0.0355  0.0680  0.0100
 1395W        W 5139   6.808   7.668  10.852 -0.1334 -0.0039 -0.0690
 1396W        W 5140   8.702   4.867   2.110  0.0047 -0.0724 -0.1624
 1397W        W 5141   3.343   7.210   1.365  0.3521 -0.1065  0.0622
 1398W        W 5142   1.165   9.143  10.674  0.1160  0.0767  0.2466
 1399W        W 5143   0.378   0.954   9.688  0.0099 -0.2573  0.1216
 1400W        W 5144   0.709   8.467  11.456  0.0617 -0.0946 -0.2953
 1401W        W 5145   2.483   7.786   9.054 -0.1470 -0.0695 -0.0791
 1402W        W 5146   7.891   0.039   2.981 -0.1491 -0.0566 -0.0280
 1403W        W 5147   4.963   0.293   0.267 -0.0420 -0.3718 -0.7890
 1404W        W 5148   3.588   9.680   0.400  0.2504  0.2544 -0.0018
 1405W        W 5149   1.653   5.479   0.040 -0.1150  0.0943  0.0040
 1406W        W 5150   5.073   4.047   1.338 -0.4197  0.0121 -0.0572
 1407W        W 5151   6.905   5.209   0.354  0.0119  0.2656  0.1064
 1408W        W 5152   1.735   9.386   8.945 -0.2384 -0.1186 -0.2056
 1409W        W 5153   0.991   0.052   3.176  0.5043  0.1222  0.1954
 1410W        W 5154   3.619   5.483   9.664 -0.0275 -0.0039  0.3643
 1411W        W 5155   2.160   3.128   1.948  0.4573 -0.0637 -0.1936
 1412W        W 5156   7.238   9.305   1.471 -0.1827  0.0738  0.1897
 1413W        W 5157   3.329   6.435  10.637  0.2375 -0.0652 -0.1468
 1414W        W 5158   3.837   6.046   2.193 -0.1231 -0.0788  0.0383
 1415W        W 5159   2.922   0.506   2.721  0.0247 -0.1491 -0.3471
 1416W        W 5160   3.227   8.729   9.530  0.4437  0.3187 -0.2505
 1417W        W 5161   1.710   7.299   0.269  0.3049 -0.1748 -0.1417
 1418W        W 5162   2.440   6.425  11.151 -0.2057 -0.0036 -0.1328
 1419W        W 5163   2.893   9.839   0.421 -0.1084 -0.1340  0.2420
 1420W        W 5164   7.284   0.403  10.947 -0.0491  0.1667 -0.1600
 1421W        W 5165   4.579   1.691   1.615 -0.1685  0.2000 -0.1587
 1422W        W 5166   6.699   7.025   1.742  0.0931 -0.3462  0.2770
 1423W        W 5167   7.096   8.441   9.077  0.1343 -0.0590 -0.0723
 1424W        W 5168   0.655   8.949   1.259  0.1050 -0.0232  0.0255
 1425W        W 5169   6.910   4.754   9.969 -0.2573  0.1296  0.0069
 1426W        W 5170   2.675   3.165   0.755 -0.1097  0.0596  0.2304
 1427W        W 5171   9.271   4.609  12.392 -0.3585  0.1930 -0.1967
 1428W        W 5172   3.743   0.432  10.271 -0.1669 -0.0167 -0.0386
 1429W        W 5173   5.827   9.817   9.300  0.0279  0.1687 -0.0749
 1430W        W 5174   8.790   3.326   0.436 -0.1929  0.1629  0.1063
 1431W        W 5175   1.144   6.388   4.349 -0.0165  0.0599  0.1748
 1432W        W 5176   5.742   2.317   1.031 -0.1420  0.0722 -0.1468
 1433W        W 5177   0.187   7.182   0.681 -0.0306 -0.1695 -0.0553
 1434W        W 5178   6.901   5.047  11.309 -0.2043  0.4697  0.0443
 1435W        W 5179   0.514   1.933   0.964  0.0161  0.1213  0.0739
 1436W        W 5180   6.756   0.736  12.039 -0.1458  0.0241 -0.3143
 1437W        W 5181   1.883   2.502   9.823 -0.1877  0.2951 -0.1616
 1438W        W 5182   3.060   1.298   3.742  0.4960  0.2692 -0.2744
 1439W        W 5183   1.715   5.367   9.131  0.1524 -0.1256 -0.1041
 1440W        W 5184   4.504   1.820  11.015  0.2642  0.0389  0.2500
 1441W        W 5185   1.008   7.761   0.585  0.5272 -0.0220  0.1477
 1442W        W 5186   6.478   5.998   1.673  0.0506 -0.2065  0.1786
 1443W        W 5187   2.529   0.845   2.647 -0.1652 -0.2326 -0.1055
 1444W        W 5188   0.749   4.203  12.642 -0.0223 -0.2949  0.1325
 1445W        W 5189   8.475   3.373   3.224 -0.0186 -0.3529  0.0106
 1446W        W 5190   1.169   9.524  10.349 -0.1314  0.0237 -0.0260
 1447W        W 5191   4.818   5.922   1.234  0.4238 -0.0812 -0.2387
 1448W        W 5192   6.241   7.494   3.805 -0.0772 -0.1931  0.1297
 1449W        W 5193   5.168   3.775   0.839 -0.1026  0.1670 -0.0618
 1450W        W 5194   3.109   4.001   8.516  0.0396  0.0370 -0.1216
 1451W        W 5195   1.651   8.260  12.393 -0.0297 -0.0972 -0.0555
 1452W        W 5196   8.619   6.671   0.809  0.2196  0.2007  0.2304
 1453W        W 5197   2.082   1.169   0.357  0.1941 -0.0782  0.0481
 1454W        W 5198   8.447   6.109   0.010 -0.3126 -0.1728  0.3063
 1455W        W 5199   6.603   0.725   3.502  0.1155  0.3354  0.1952
 1456W        W 5200   2.233   7.286  11.097  0.1098 -0.0783  0.1175
 1457W        W 5201   6.144   6.752   3.373  0.0897 -0.2824  0.0166
 1458W        W 5202   8.894   2.922   1.449 -0.0285 -0.1410  0.1864
 1459W        W 5203   6.945   1.212   0.756  0.3037 -0.0190  0.1087
 1460W        W 5204   0.185   3.990  11.948  0.0380  0.2990  0.2796
 1461W        W 5205   2.045   4.973   0.614 -0.0396  0.0415  0.0759
 1462W        W 5206   8.369   0.805   2.560 -0.1368  0.0511 -0.1421
 1463W        W 5207   7.796   5.290   8.278  0.1114  0.0488  0.0871
 1464W        W 5208   2.440   5.098   0.344  0.1990 -0.1875 -0.2215
 1465W        W 5209   1.314   4.613   4.251 -0.0414 -0.0960  0.0261
 1466W        W 5210   2.071   3.974   1.601  0.1653 -0.1038  0.0483
 1467W        W 5211   9.527   9.344   2.976  0.1250  0.2674 -0.0342
 1468W        W 5212   1.745   2.229  10.954  0.2764 -0.1574 -0.0020
 1469W        W 5213   2.833   6.432   1.408 -0.0483 -0.2918  0.2541
 1470W        W 5214   6.359   1.062   1.910 -0.0146 -0.3051 -0.4838
 1471W        W 5215   6.650   6.600   9.482  0.1424 -0.2597  0.0335
 1472W        W 5216   9.319   4.406   0.073  0.2402 -0.0730  0.1089
 1473W        W 5217   8.475   8.770  12.644 -0.4920 -0.1859 -0.2131
 1474W        W 5218   0.013   4.155   2.999  0.0910  0.0540 -0.1519
 1475W        W 5219   5.438   8.869   1.680 -0.1600 -0.3101  0.1596
 1476W        W 5220   4.723   0.517  11.285 -0.2447  0.3069  0.0621
 1477W        W 5221   1.419   6.343  10.862 -0.1372  0.3685 -0.0894
 1478W        W 5222   5.933   1.031   9.293  0.0804 -0.5621 -0.3763
 1479W        W 5223   7.257   6.300   4.561 -0.2164  0.3204 -0.2317
 1480W        W 5224   7.825   2.042   2.674 -0.2059  0.1863  0.3039
 1481W        W 5225   5.364   6.528   0.948 -0.2388  0.0670 -0.1579
 1482W        W 5226   3.851   5.443  11.878  0.0835  0.4198 -0.0510
 1483W        W 5227   4.200   5.350   3.590  0.0321 -0.1601  0.3277
 1484W        W 5228   6.226   0.715   3.958  0.1701  0.0391 -0.2462
 1485W        W 5229   5.554   6.760  11.994 -0.1839 -0.1497 -0.1174
 1486W        W 5230   2.753   5.096   4.558 -0.0464 -0.2966  0.0206
 1487W        W 5231   8.001   0.327   1.623 -0.0367 -0.1115  0.1595
 1488W        W 5232   2.896   9.637  12.503  0.1107  0.1718 -0.0269
 1489W        W 5233   2.391   0.202   0.438  0.2685 -0.2594 -0.2145
 1490W        W 5234   0.158   1.203   0.832 -0.1464  0.1757 -0.0990
 1491W        W 5235   9.701   1.995   9.540 -0.0473  0.2013 -0.0560
 1492W        W 5236   1.819   1.025  12.333 -0.0397 -0.1579 -0.0016
 1493W        W 5237   4.432   3.884   1.888  0.1468  0.2714 -0.0481
 1494W        W 5238   4.216   7.102   9.946 -0.1662  0.1715 -0.2381
 1495W        W 5239   3.124   3.841  10.916  0.1596  0.1418 -0.1389
 1496W        W 5240   6.221   9.368  12.545  0.2025 -0.0297 -0.4335
 1497W        W 5241   1.277   2.033  11.569  0.1910  0.0285 -0.3341
 1498W        W 5242   2.660   3.116   1.731 -0.1237 -0.0093 -0.0233
 1499W        W 5243   1.938   0.499   1.163 -0.2474 -0.0877 -0.0107
 1500W        W 5244   1.461   0.683  10.026 -0.3269  0.1030  0.1435
 1501W        W 5245   6.950   9.912  12.529  0.1368 -0.2595  0.2750
 1502W        W 5246   0.920   4.809   2.164 -0.2089  0.2379 -0.0082
 1503W        W 5247   7.860   8.829   9.326 -0.1560 -0.0544  0.1129
 1504W        W 5248   2.832   8.202   1.804 -0.2566 -0.0491  0.0653
 1505W        W 5249   9.856   8.006  11.474 -0.0481 -0.0486  0.2862
 1506W        W 5250   7.845   7.491   4.160 -0.0716  0.1441 -0.2069
 1507W        W 5251   6.562   9.344   3.627  0.0852  0.0579 -0.1874
 1508W        W 5252   1.118   7.872  10.709  0.3018  0.1070 -0.1054
 1509W        W 5253   4.440   9.192   1.724 -0.0352 -0.3586  0.2121
 1510W        W 5254   8.133   9.799  10.872 -0.0334  0.2393 -0.0554
 1511W        W 5255   9.423   8.848  11.496 -0.3866  0.2930 -0.2127
 1512W        W 5256   8.305   8.951  12.066 -0.1142  0.0369 -0.1504
 1513W        W 5257   1.856   0.840  11.227  0.0191 -0.1943  0.3578
 1514W        W 5258   7.192   9.115  12.368 -0.3060  0.1177 -0.1167
 1515W        W 5259   3.359   4.630   1.181 -0.1156  0.0350 -0.0839
 1516W        W 5260   9.306   4.333   1.695  0.1210  0.0876  0.3096
 1517W        W 5261   5.014   2.298  10.146  0.0516 -0.3052 -0.2242
 1518W        W 5262   8.553   5.436   3.441 -0.2151  0.1628  0.1164
 1519W        W 5263   1.768   7.005  12.087 -0.0588  0.1917  0.2108
 1520W        W 5264   4.431   8.116   0.749  0.1345 -0.1648 -0.2288
 1521W        W 5265   3.901   5.112   3.255  0.1009  0.0162 -0.0332
 1522W        W 5266   5.542   2.273   3.565 -0.0990  0.0364 -0.0761
 1523W        W 5267   8.156   3.468  10.215 -0.1181 -0.3751  0.1420
 1524W        W 5268   9.546   6.918   2.728 -0.0550 -0.2220 -0.3102
 1525W        W 5269   5.452   5.637   2.157 -0.1296 -0.0198  0.2550
 1526W        W 5270   7.319   0.794   2.768  0.0030 -0.1613  0.0833
 1527W        W 5271   7.606   7.670   1.335 -0.0307  0.0024  0.1255
 1528W        W 5272   4.897   1.562  10.693  0.1643 -0.1915 -0.3792
 1529W        W 5273   4.062   2.963   3.725  0.0112  0.0482 -0.1002
 1530W        W 5274   4.201   5.139   2.357  0.0610 -0.3664  0.0228
 1531W        W 5275   7.514   5.031   2.692 -0.1831  0.0900  0.2377
 1532W        W 5276   6.475   7.905   8.470  0.0970 -0.0003 -0.0005
 1533W        W 5277   4.001   1.942  10.160  0.2866 -0.1478  0.0373
 1534W        W 5278   7.760   5.485  10.685 -0.3030  0.0667  0.1104
 1535W        W 5279   9.390   5.811   1.605  0.0239 -0.0361  0.0311
 1536W        W 5280   5.839   6.595  11.027 -0.1050 -0.2436  0.1008
 1537W        W 5281   9.351   3.476   0.186 -0.1071  0.1635  0.1602
 1538W        W 5282   4.925   7.790   8.210 -0.1858  0.1681 -0.1485
 1539W        W 5283   6.907   9.553  10.659 -0.3381 -0.1874 -0.0903
 1540W        W 5284   6.586   1.737  12.042 -0.0335  0.1241  0.2815
 1541W        W 5285   8.479   9.425   1.730 -0.1059  0.1010  0.0092
 1542W        W 5286   6.774   7.113   1.206 -0.1243  0.0767 -0.0528
 1543W        W 5287   3.314   2.434   1.586  0.1788  0.1023 -0.0931
 1544W        W 5288   2.992   2.480   8.869  0.2565 -0.1843  0.4663
 1545W        W 5289   8.930   7.391   8.967  0.1586  0.0276  0.0263
 1546W        W 5290   8.763   8.549   2.658 -0.0667 -0.1064  0.4284
 1547W        W 5291   8.205   0.503   3.186 -0.1269  0.2343 -0.0506
 1548W        W 5292   0.393   2.553   8.665  0.1216  0.3086  0.0699
 1549W        W 5293   1.796   1.933  10.322  0.0263  0.0047 -0.2450
 1550W        W 5294   6.021   3.159  12.342 -0.2325  0.0781  0.1037
 1551W        W 5295   7.079   2.709   9.567  0.1052  0.1150 -0.0150
 1552W        W 5296   3.757   7.015   0.578  0.1432 -0.0863  0.2613
 1553W        W 5297   5.029   4.740   3.084 -0.0830  0.0454  0.1034
 1554W        W 5298   1.148   5.260   2.252 -0.0598 -0.0412  0.3420
 1555W        W 5299   3.455   4.212   1.906 -0.3540  0.1042  0.3809
 1556W        W 5300   8.893   4.661   1.616 -0.2136  0.2181  0.0386
 1557W        W 5301   7.918   2.468   2.356  0.1898 -0.0508 -0.2126
 1558W        W 5302   2.701   8.802   3.556  0.0348 -0.0138 -0.3882
 1559W        W 5303   7.177   3.729  10.536  0.0599 -0.0748 -0.1215
 1560W        W 5304   2.703   0.568  10.525 -0.0132 -0.0591 -0.1763
 1561W        W 5305   7.684   5.731   8.501 -0.1229  0.2020  0.4341
 1562W        W 5306   8.511   5.674   1.568 -0.3039  0.2703  0.0903
 1563W        W 5307   4.478   9.036  11.360 -0.1910  0.1048  0.2770
 1564W        W 5308   9.946   6.425   9.568  0.0186  0.1740  0.0757
 1565W        W 5309   9.867   3.927  10.275 -0.0324  0.0721 -0.0083
 1566W        W 5310   4.827   8.683   9.338 -0.2498 -0.0235 -0.1332
 1567W        W 5311   9.184   6.968   1.946  0.2279  0.0412  0.1075
 1568W        W 5312   8.172   5.117  11.442  0.1060  0.2695  0.0058
 1569W        W 5313   3.679   0.676   0.665 -0.1454 -0.2868  0.0910
 1570W        W 5314   7.196   5.229   2.227  0.2163  0.0285  0.0118
 1571W        W 5315   1.688   2.448   3.424 -0.1798  0.0875 -0.0730
 1572W        W 5316   1.725   4.544   0.836 -0.1048  0.2537  0.0856
 1573W        W 5317   6.704   5.172   8.967 -0.1293 -0.1504  0.0100
 1574W        W 5318   8.859   4.464  11.392  0.0708 -0.1070 -0.0247
 1575W        W 5319   3.174   7.418  10.669 -0.2723 -0.2550 -0.3077
 1576W        W 5320   5.813   6.368  10.031 -0.1144  0.0402  0.1024
 1577W        W 5321   1.385   4.448   2.834 -0.1548  0.2812  0.0404
 1578W        W 5322   2.861   0.028   2.136 -0.0888  0.2358  0.0927
 1579W        W 5323   7.249   5.541   3.373 -0.0575  0.1495  0.1620
 1580W        W 5324   8.502   3.326   9.340  0.1159  0.0571  0.0324
 1581W        W 5325   3.683   1.016   2.670 -0.2000  0.1357  0.0094
 1582W        W 5326   6.620   8.203   8.122 -0.3134  0.0635 -0.1021
 1583W        W 5327   6.154   9.244   7.459  0.0253 -0.1169 -0.1702
 1584W        W 5328   8.215   7.591   4.533  0.1197  0.1754  0.2743
 1585W        W 5329   2.093   6.741  10.307 -0.1409  0.1367  0.1344
 1586W        W 5330   6.314   4.013   1.813  0.1067  0.3542  0.0639
 1587W        W 5331   7.537   7.176   0.101 -0.1777 -0.2245 -0.4241
 1588W        W 5332   4.271   4.007   1.454 -0.3250  0.2154  0.3323
 1589W        W 5333   4.715   4.024  11.831 -0.1615  0.0130 -0.1263
 1590W        W 5334   0.235   0.656   9.287  0.1257  0.2093  0.4831
 1591W        W 5335   6.641   2.682   1.084  0.3105 -0.1657 -0.2300
 1592W        W 5336   6.688   4.044  10.492 -0.1669  0.0288  0.1872
 1593W        W 5337   7.172   8.238   9.950 -0.0157  0.1092 -0.2579
 1594W        W 5338   1.066   8.828   3.735 -0.1327  0.1270 -0.0015
 1595W        W 5339   5.089   0.292  12.568  0.0048 -0.0892 -0.0589
 1596W        W 5340   7.561   0.925   9.116 -0.0950  0.2299 -0.1987
 1597W        W 5341   7.032   7.599  12.643 -0.0696 -0.0672  0.0401
 1598W        W 5342   8.817   5.338   9.360  0.0183  0.1356 -0.2274
 1599W        W 5343   5.320   6.486   2.753 -0.1940 -0.1891 -0.2740
 1600W        W 5344   0.946   6.389  12.236 -0.0517 -0.0257  0.2470
 1601W        W 5345   5.572   3.489  11.973  0.2607  0.1626  0.1657
 1602W        W 5346   8.433   2.957   0.203 -0.0940 -0.0174  0.0408
 1603W        W 5347   8.218   0.072  11.364  0.0842  0.0558  0.1966
 1604W        W 5348   4.020   6.184   0.237 -0.1380 -0.1452 -0.0338
 1605W        W 5349   9.193   2.466   2.726 -0.0619  0.1672 -0.3221
 1606W        W 5350   1.226   8.334   1.583 -0.0358  0.0612 -0.1723
 1607W        W 5351   4.797   1.110   1.760 -0.1909  0.0851 -0.3057
 1608W        W 5352   1.970   5.240   2.087  0.1130 -0.2780  0.0129
 1609W        W 5353   2.361   2.884   0.174 -0.1712 -0.1029  0.1168
 1610W        W 5354   2.818   3.788   3.943 -0.1513  0.0974  0.1599
 1611W        W 5355   6.103   3.624   3.515 -0.0222 -0.0862 -0.0395
 1612W        W 5356   5.968   8.132   2.813 -0.0456  0.1525  0.0187
 1613W        W 5357   8.707   4.192   7.906  0.0423  0.0256 -0.1826
 1614W        W 5358   0.233   1.232  10.757 -0.2708  0.3583 -0.0893
 1615W        W 5359   3.025   6.949  10.688  0.1793 -0.0218  0.0757
 1616W        W 5360   5.544   7.050   3.751 -0.0748 -0.3225 -0.2210
 1617W        W 5361   2.731   9.556   1.004  0.0302  0.1021  0.1959
 1618W        W 5362   0.676   3.709  11.915 -0.2240 -0.2159  0.1434
 1619W        W 5363   9.555   0.988  11.919  0.1018 -0.2255 -0.0818
 1620W        W 5364   1.766   5.109   0.990  0.1444  0.3345 -0.0207
 1621W        W 5365   0.990   1.377  12.406  0.2031 -0.0655  0.2188
 1622W        W 5366   8.355   6.449  12.415  0.2436  0.2980 -0.2622
 1623W        W 5367   8.517   0.161   2.428  0.1912 -0.0071 -0.1593
 1624W        W 5368   5.342   7.824   1.161 -0.1051  0.3250 -0.2016
 1625W        W 5369   4.680   2.055  11.435 -0.1854 -0.0942 -0.0270
 1626W        W 5370   8.412   5.864   4.178 -0.0156  0.2739  0.0752
 1627W        W 5371   0.493   6.596   9.232 -0.0453 -0.0507  0.0740
 1628W        W 5372   5.494   1.044   0.553  0.1988 -0.3203 -0.1622
 1629W        W 5373   6.336   1.653   0.820  0.2833  0.1056 -0.1529
 1630W        W 5374   5.038   8.676  10.469  0.2642  0.1488  0.1068
 1631W        W 5375   4.289   8.195   0.201 -0.0715 -0.2366 -0.1762
 1632W        W 5376   4.244   0.527  10.510  0.0948  0.0577  0.3166
 1633W        W 5377   7.983   7.139   9.575 -0.2830 -0.0168 -0.1665
 1634W        W 5378   6.626   7.359   4.079 -0.0332  0.1410  0.0267
 1635W        W 5379   1.507   4.174  10.747  0.2835 -0.0341 -0.2322
 1636W        W 5380   5.181   7.646  12.437 -0.0574  0.0001  0.0229
 1637W        W 5381   9.781   2.287   0.785 -0.0163  0.0277  0.0715
 1638W        W 5382   6.510   9.272   2.159  0.3020 -0.0476  0.1556
 1639W        W 5383   0.695   9.698   2.710 -0.1042 -0.1504  0.1003
 1640W        W 5384   6.285   2.966  11.476 -0.2498 -0.1745  0.1505
 1641W        W 5385   9.478   4.602   2.117 -0.2702  0.1059  0.2620
 1642W        W 5386   9.333   7.839  11.493 -0.1733 -0.2964 -0.0023
 1643W        W 5387   1.474   2.724  11.159  0.2531  0.0636  0.0575
 1644W        W 5388   1.330   4.752  12.329  0.2655  0.1464  0.2716
 1645W        W 5389   0.329   3.633   4.305 -0.1568  0.0443  0.1578
 1646W        W 5390   2.661   2.520   3.233 -0.4928  0.0823 -0.1218
 1647W        W 5391   8.236   8.915   2.037 -0.1511 -0.2826  0.0577
 1648W        W 5392   1.653   3.536   0.974 -0.1272 -0.1699  0.0801
 1649W        W 5393   4.033   0.034   2.904 -0.0617 -0.2157 -0.2029
 1650W        W 5394   5.168   9.262   0.470  0.1633  0.0439  0.0322
 1651W        W 5395   5.895   0.080  11.862  0.1347 -0.1431  0.3589
 1652W        W 5396   6.244   8.325   9.681  0.1609 -0.0923  0.2353
 1653W        W 5397   2.717   8.785   4.698  0.1553 -0.0564 -0.0212
 1654W        W 5398   6.217   7.854  12.684 -0.2243 -0.0802  0.1477
 1655W        W 5399   9.213   0.663  10.292  0.2219  0.1520  0.0294
 1656W        W 5400   0.033   0.144  10.904  0.1978 -0.0387  0.0232
 1657W        W 5401   5.178   7.316   1.019  0.1259  0.0362  0.1702
 1658W        W 5402   5.787   8.036   1.771 -0.1822 -0.0308 -0.0246
 1659W        W 5403   8.220   5.458   1.211 -0.2447  0.2761 -0.1520
 1660W        W 5404   4.276   9.914   2.155 -0.1457  0.1329  0.2981
 1661W        W 5405   0.880   9.516   9.559  0.1929  0.1980  0.2998
 1662W        W 5406   2.136   3.331  12.696 -0.1308 -0.3481  0.1038
 1663W        W 5407   7.071   6.928   0.451 -0.0486  0.1208  0.1410
 1664W        W 5408   0.226   4.849   1.519 -0.1483 -0.1049 -0.1774
 1665W        W 5409   3.478   7.266   2.504 -0.0799 -0.1548 -0.0953
 1666W        W 5410   9.384   0.008   2.985 -0.0596 -0.2683 -0.2535
 1667W        W 5411   1.788   8.353   4.301 -0.0467  0.1034  0.3082
 1668W        W 5412   2.296   4.098  10.440 -0.1405  0.0210  0.1364
 1669W        W 5413   1.317   0.317   0.434 -0.0798  0.1535 -0.2154
 1670W        W 5414   5.616   0.369   3.010  0.1232  0.0783  0.3236
 1671W        W 5415   4.946   7.515   0.131 -0.0560 -0.0970  0.5193
 1672W        W 5416   2.977   1.604   4.226 -0.2399  0.2048  0.0978
 1673W        W 5417   4.261   0.498   8.866  0.0680  0.2445 -0.0180
 1674W        W 5418   3.427   4.526   2.700 -0.0002  0.0556  0.0916
 1675W        W 5419   7.608   1.463   9.034  0.2806  0.0964 -0.0274
 1676W        W 5420   4.440   1.631  10.331 -0.3404  0.2698 -0.2551
 1677W        W 5421   5.135   0.869   4.445  0.1672  0.1335  0.2027
 1678W        W 5422   9.649   7.144   1.798 -0.1953  0.0469  0.3123
 1679W        W 5423   7.528   2.751  11.891  0.3390 -0.0980  0.0694
 1680W        W 5424   4.574   0.752  10.140 -0.0460  0.0309  0.0851
 1681W        W 5425   3.988   8.584   2.011 -0.0052  0.1677  0.0621
 1682W        W 5426   6.479   8.688  12.658  0.1997  0.1802 -0.0546
 1683W        W 5427   8.072   7.952   2.144  0.0492 -0.1304  0.2416
 1684W        W 5428   4.737   9.953  11.113  0.1641  0.3091 -0.2331
 1685W        W 5429   4.899   2.321   3.395  0.1473  0.2802  0.2534
 1686W        W 5430   6.343   1.470   3.213  0.1221  0.2792 -0.2816
 1687W        W 5431   9.529   6.950   9.494  0.0384 -0.0964 -0.0793
 1688W        W 5432   1.255   8.695   9.778  0.0146 -0.3962  0.1400
 1689W        W 5433   3.177   9.442   4.149  0.0428 -0.0535 -0.0293
 1690W        W 5434   5.911   4.958   9.910 -0.0056 -0.1547  0.2378
 1691W        W 5435   5.035   2.653   9.716 -0.0384  0.1169  0.0848
 1692W        W 5436   2.328   8.163   8.809  0.0327 -0.1838 -0.1874
 1693W        W 5437   9.421   5.910  11.267  0.4664 -0.0287 -0.0740
 1694W        W 5438   0.514   1.886   0.164  0.0464  0.2804 -0.3433
 1695W        W 5439   3.143   7.788  12.132 -0.0368  0.0525 -0.2831
 1696W        W 5440   8.804   6.224   9.527  0.0338 -0.1984 -0.0694
 1697W        W 5441   1.428   8.109   0.122 -0.2841 -0.0853  0.1514
 1698W        W 5442   4.308   0.393   4.158 -0.0365 -0.1921  0.0472
 1699W        W 5443   2.159   6.147  10.698 -0.1889 -0.0089 -0.1506
 1700W        W 5444   1.878   0.462  11.792  0.0915 -0.0261 -0.1326
 1701W        W 5445   4.187   1.761   8.803  0.1386 -0.1405  0.1055
 1702W        W 5446   9.123   6.583  11.939  0.1132 -0.0131 -0.1346
 1703W        W 5447   7.734   0.986  11.646 -0.1708  0.0656 -0.1687
 1704W        W 5448   8.153   8.512  11.506 -0.0007  0.1382  0.0808
 1705W        W 5449   7.009   2.423  11.156  0.0723 -0.1349 -0.1843
 1706W        W 5450   5.136   5.823   3.871 -0.0719 -0.2247 -0.0229
 1707W        W 5451   3.068   1.654   2.597 -0.1208 -0.0824 -0.1193
 1708W        W 5452   9.930   4.936  10.113 -0.0099  0.1035  0.1938
 1709W        W 5453   5.885   3.530  10.300 -0.2873  0.4187  0.4277
 1710W        W 5454   7.101   4.554   3.420 -0.1265  0.2102 -0.1062
 1711W        W 5455   9.274   4.437   9.045 -0.0820  0.0010 -0.1832
 1712W        W 5456   2.623   3.572   3.426  0.0676 -0.1756  0.0001
 1713W        W 5457   4.038   7.414   8.230  0.0623 -0.2962 -0.0670
 1714W        W 5458   0.104   2.182   0.083  0.2263  0.0119  0.0112
 1715W        W 5459   1.703   9.143   3.117 -0.0565  0.2475 -0.4713
 1716W        W 5460   7.283   3.346  10.814 -0.0052 -0.0844 -0.0970
 1717W        W 5461   3.622   9.234  10.096  0.0293  0.0904 -0.0859
 1718W        W 5462   1.390   1.204  10.148 -0.1105  0.1646 -0.0978
 1719W        W 5463   8.448   7.322   3.296 -0.0015  0.3050  0.5840
 1720W        W 5464   4.096   1.549  11.961  0.3657  0.1907 -0.2477
 1721W        W 5465   9.556   7.753   1.427 -0.1039 -0.1598 -0.0456
 1722W        W 5466   2.202   3.103  10.666 -0.0202 -0.1374  0.1059
 1723W        W 5467   9.117   5.404   4.216  0.2026  0.3000  0.2987
 1724W        W 5468   3.384   9.547   9.155 -0.1197 -0.1261  0.2222
 1725W        W 5469   8.414   3.701  10.503 -0.2206  0.3709 -0.1437
 1726W        W 5470   2.464   2.671  10.574 -0.2590 -0.0531  0.1536
 1727W        W 5471   4.545   7.787   9.624 -0.2275 -0.0737  0.0021
 1728W        W 5472   8.570   3.648   8.762 -0.2787  0.0601  0.1376
 1729W        W 5473   7.159   7.963  10.631  0.3480 -0.0235 -0.1675
 1730W        W 5474   7.564   9.766   9.335  0.2377 -0.1239  0.1293
 1731W        W 5475   5.655   5.725   3.191 -0.0873  0.1087  0.3116
 1732W        W 5476   1.631   1.306  11.046  0.3354  0.1102 -0.0259
 1733W        W 5477   8.955   0.114   2.676 -0.0993  0.0648 -0.3394
 1734W        W 5478   4.285   6.330   9.525 -0.0501  0.1257  0.1783
 1735W        W 5479   1.675   3.349  12.451  0.1328 -0.0418 -0.0671
 1736W        W 5480   6.748   9.624  11.172  0.3057 -0.2142 -0.0617
 1737W        W 5481   4.125   9.422  12.011  0.1247 -0.0468  0.3211
 1738W        W 5482   6.119   6.354  10.605 -0.3497  0.0677 -0.2375
 1739W        W 5483   5.976   8.196   0.829  0.0838  0.0737 -0.0905
 1740W        W 5484   2.864   3.029   2.617 -0.0977  0.1932 -0.1030
 1741W        W 5485   6.120   5.915   2.867  0.0740 -0.1143 -0.1027
 1742W        W 5486   6.527   1.270  11.795 -0.1156 -0.1066 -0.0649
 1743W        W 5487   8.627   9.240  12.429  0.0696  0.3590  0.0356
 1744W        W 5488   6.795   1.356   1.559  0.1440  0.0014 -0.0067
 1745W        W 5489   0.042   2.956   0.896 -0.0323 -0.0203  0.3032
 1746W        W 5490   9.831   1.056  10.422 -0.1838  0.0570 -0.0939
 1747W        W 5491   2.147   8.029  10.012  0.1021  0.2109 -0.2945
 1748W        W 5492   4.966   6.829   0.929 -0.0909 -0.0703  0.1881
 1749W        W 5493   1.664   1.282   3.430 -0.2427  0.0463  0.3541
 1750W        W 5494   6.667   3.094   0.064 -0.2400  0.1791  0.0192
 1751W        W 5495   0.499   3.133   0.765  0.0226 -0.1514 -0.0037
 1752W        W 5496   9.913   8.200   3.653  0.3625 -0.0833  0.2646
 1753W        W 5497   9.192   6.793   7.865 -0.2024  0.1147  0.1042
 1754W        W 5498   0.728   8.307  10.976  0.1580  0.1775  0.2818
 1755W        W 5499   6.553   4.890   1.788 -0.0457 -0.0577  0.1093
 1756W        W 5500   1.435   8.335  11.873  0.0330  0.1854  0.0080
 1757W        W 5501   5.398   2.619  12.658  0.0341 -0.0765  0.1999
 1758W        W 5502   6.898   7.938  11.637  0.1691 -0.1253  0.2465
 1759W        W 5503   6.385   5.529   9.116 -0.0069 -0.1694 -0.2669
 1760W        W 5504   1.406   0.776   2.188 -0.2935 -0.1336  0.0053
 1761W        W 5505   2.287   9.882   4.403 -0.0132 -0.0266  0.1828
 1762W        W 5506   7.942   4.631   8.947  0.0615 -0.1424  0.2506
 1763W        W 5507   2.844   8.273  10.351  0.0752 -0.5284  0.0118
 1764W        W 5508   6.069   2.354   3.533  0.2421 -0.1307 -0.0702
 1765W        W 5509   8.323   1.405   0.520  0.1978 -0.0316 -0.2593
 1766W        W 5510   0.887   5.825   0.894 -0.0102 -0.2289  0.1025
 1767W        W 5511   8.276   4.049   1.695 -0.3670 -0.1215  0.0969
 1768W        W 5512   5.434   2.105   0.287 -0.2321  0.2202  0.2698
 1769W        W 5513   2.195   1.620   0.567 -0.1994 -0.2438 -0.2606
 1770W        W 5514   1.630   3.753   0.022  0.1308 -0.1699 -0.2156
 1771W        W 5515   5.069   1.276   8.659 -0.0593  0.1470 -0.0696
 1772W        W 5516   6.608   8.592   9.955 -0.2214 -0.1143  0.0619
 1773W        W 5517   9.917   4.677   1.127 -0.0311 -0.2749  0.0593
 1774W        W 5518   3.825   7.299   1.608  0.0774 -0.1036  0.0874
 1775W        W 5519   5.455   2.544  11.595  0.1675  0.2099  0.0069
 1776W        W 5520   6.230   9.288   9.942  0.0018 -0.0634  0.0767
 1777W        W 5521   3.533   9.635   8.651  0.0275  0.1869  0.2478
 1778W        W 5522   7.153   1.821  12.640  0.0579  0.1560  0.2017
 1779W        W 5523   5.393   4.817   4.736 -0.1827  0.3327  0.1039
 1780W        W 5524   5.786   4.000  12.045  0.1525 -0.3530 -0.1562
 1781W        W 5525   0.700   5.015   9.073 -0.2191  0.1110  0.1531
 1782W        W 5526   5.766   9.374   2.279  0.0863  0.1464  0.0971
 1783W        W 5527   3.863   6.525   0.686  0.0604  0.0183 -0.0924
 1784W        W 5528   6.412   0.006   3.393  0.2761 -0.1646  0.0562
 1785W        W 5529   2.373   0.032   3.334  0.1545  0.1133  0.2918
 1786W        W 5530   9.108   1.742   0.497 -0.1011  0.1566 -0.0110
 1787W        W 5531   5.649   0.324   1.774  0.2926  0.0323  0.4197
 1788W        W 5532   0.338   4.140  10.466 -0.2051 -0.1583  0.3457
 1789W        W 5533   0.957   8.277   0.510  0.0566 -0.0275  0.0656
 1790W        W 5534   1.675   0.659   9.557  0.0278 -0.4449  0.0150
 1791W        W 5535   4.389   6.254  11.050  0.1183 -0.0094  0.0655
 1792W        W 5536   1.083   5.052  10.575 -0.0958 -0.0332 -0.0907
 1793W        W 5537   8.600   9.056  10.985 -0.0393 -0.0075  0.2384
 1794W        W 5538   3.143   6.782   2.676  0.0028  0.0162  0.1573
 1795W        W 5539   4.512   7.847   3.866  0.0105 -0.3429  0.1136
 1796W        W 5540   8.135   4.952   2.043 -0.0073 -0.0366  0.1669
 1797W        W 5541   9.120   3.137   2.023  0.0330  0.3854  0.0873
 1798W        W 5542   3.869   9.486   2.967 -0.2039  0.1920 -0.4584
 1799W        W 5543   7.306   7.488   3.310 -0.2999  0.1787 -0.2808
 1800W        W 5544   7.233   4.641   2.575  0.0828 -0.4129 -0.0630
 1801W        W 5545   8.787   5.042   3.724  0.0719  0.2241  0.0253
 1802W        W 5546   0.492   3.899   2.926 -0.0398 -0.0926 -0.0932
 1803W        W 5547   2.211   9.512   1.847  0.1984 -0.1517  0.1910
 1804W        W 5548   7.861   8.502   9.744 -0.1471 -0.2902 -0.3038
 1805W        W 5549   4.343   0.948   9.649  0.0569  0.0976  0.0929
 1806W        W 5550   1.774   6.422   9.123 -0.0545  0.0819 -0.1741
 1807W        W 5551   8.320   4.451  10.020 -0.0481  0.1494  0.0640
 1808W        W 5552   6.756   1.215   4.074  0.0699  0.0886  0.0227
 1809W        W 5553   4.863   8.099   4.267 -0.0172 -0.1256  0.1717
 1810W        W 5554   1.746   0.105   0.296 -0.0033  0.2483 -0.1959
 1811W        W 5555   5.102   3.115   2.571 -0.1174 -0.0271  0.4026
 1812W        W 5556   6.832   7.545  11.327 -0.1365  0.1328 -0.0625
 1813W        W 5557   2.004   3.635  11.851 -0.2729 -0.2354 -0.0877
 1814W        W 5558   2.588   2.214   1.267 -0.6004 -0.2187 -0.2837
 1815W        W 5559   0.751   9.451   0.227 -0.0176 -0.2014  0.1184
 1816W        W 5560   4.980   3.308  10.144 -0.2008  0.0333  0.0252
 1817W        W 5561   7.606   0.714   1.579  0.0013 -0.4204 -0.0079
 1818W        W 5562   7.427   6.694  10.954 -0.1599 -0.0344 -0.1302
 1819W        W 5563   6.515   2.354   3.155  0.1170 -0.1721  0.5923
 1820W        W 5564   3.421   1.296   3.021 -0.0175  0.1933 -0.0058
 1821W        W 5565   1.746   0.705   0.441  0.2381 -0.0497  0.2618
 1822W        W 5566   6.297   3.416  10.023 -0.1905  0.2026 -0.4348
 1823W        W 5567   9.907   3.640  11.687  0.0961  0.1089  0.1809
 1824W        W 5568   8.899   1.172   2.725  0.0585  0.0044  0.2075
 1825W        W 5569   6.158   5.213   9.545  0.3382 -0.2318  0.0279
 1826W        W 5570   6.432   1.132   2.413  0.3096 -0.0510 -0.2013
 1827W        W 5571   0.466   3.868   0.097 -0.0616  0.0367 -0.2334
 1828W        W 5572   7.596   2.018   0.680 -0.0820  0.1536  0.1428
 1829W        W 5573   0.766   6.336   4.665  0.1896  0.3398 -0.2274
 1830W        W 5574   1.867   7.196   9.733  0.0505  0.4427 -0.0334
 1831W        W 5575   5.388   2.537   1.341  0.3271  0.0866  0.1160
 1832W        W 5576   5.319   5.418  12.164  0.2052 -0.1518 -0.0448
 1833W        W 5577   2.558   6.780  12.729  0.1361  0.0952  0.2300
 1834W        W 5578   4.079   8.099   8.725  0.0298  0.1273 -0.2106
 1835W        W 5579   8.734   2.324   2.699  0.3807 -0.1797  0.2242
 1836W        W 5580   3.758   3.076   9.185 -0.2412  0.0225  0.2767
 1837W        W 5581   3.116   5.971   0.265  0.4162 -0.1725  0.0596
 1838W        W 5582   5.572   9.154  12.008 -0.3037  0.1356 -0.1458
 1839W        W 5583   6.184   4.619   2.027 -0.1068  0.1549 -0.1355
 1840W        W 5584   7.246   3.915  11.850  0.0012  0.0636  0.0370
 1841W        W 5585   1.333   3.205  11.261  0.2320  0.1396  0.0754
 1842W        W 5586   3.985   4.193  11.250 -0.0575 -0.0410 -0.0361
 1843W        W 5587   9.153   7.806   2.842  0.3283  0.0037 -0.2119
 1844W        W 5588   8.253   2.897   1.563  0.1146  0.3976 -0.2371
 1845W        W 5589   4.618   2.192   8.273 -0.2043  0.0495 -0.2983
 1846W        W 5590   4.223   2.801   0.709 -0.2398 -0.2029  0.1823
 1847W        W 5591   5.378   1.696  11.834  0.1619 -0.3722 -0.4124
 1848W        W 5592   6.708   8.161  10.269  0.3565 -0.2917  0.0150
 1849W        W 5593   1.339   7.933   1.903 -0.0511  0.1976  0.3144
 1850W        W 5594   0.879   2.445   3.530 -0.0999 -0.2035 -0.0735
 1851W        W 5595   7.090   1.642  12.176  0.1820  0.0941  0.1062
 1852W        W 5596   9.014   3.734  11.970  0.1716 -0.0131 -0.0830
 1853W        W 5597   1.347   4.006   2.422 -0.1399 -0.2363  0.1431
 1854W        W 5598   5.632   7.383  10.957 -0.0998  0.1563  0.0101
 1855W        W 5599   7.199   2.780  11.505 -0.1495 -0.3774  0.3316
 1856W        W 5600   3.442   1.042  11.359  0.0422 -0.0080 -0.1608
 1857W        W 5601   4.979   2.614   2.567  0.2501 -0.0514  0.5199
 1858W        W 5602   2.915   4.445   2.922  0.1651  0.1456 -0.5267
 1859W        W 5603   8.502   5.751   9.661 -0.0016  0.0855 -0.1137
 1860W        W 5604   6.458   1.006  10.687 -0.2533 -0.0168 -0.0419
 1861W        W 5605   1.073   1.323   3.787  0.2168 -0.2381  0.2286
 1862W        W 5606   3.097   4.399   1.595 -0.1127 -0.0016  0.0343
 1863W        W 5607   1.994   8.842  10.142 -0.0166 -0.0250 -0.1301
 1864W        W 5608   1.722   4.709  11.918  0.1147  0.1678 -0.3000
 1865W        W 5609   1.255   3.291   1.344  0.4233 -0.0394 -0.0855
 1866W        W 5610   7.783   9.409   1.023  0.2758 -0.2518 -0.0552
 1867W        W 5611   4.597   2.937   9.536  0.3631 -0.1869  0.0534
 1868W        W 5612   5.402   4.058   9.679  0.2127  0.3576 -0.1059
 1869W        W 5613   1.178   7.942   9.748 -0.0948  0.0068 -0.1044
 1870W        W 5614   9.234   5.611   3.241 -0.2701  0.3344 -0.0598
 1871W        W 5615   8.590   8.137  10.106  0.1633 -0.0048  0.1354
 1872W        W 5616   0.288   4.035   2.438 -0.0536  0.1524  0.0337
 1873W        W 5617   7.299   5.461   0.801 -0.0262  0.0722  0.3423
 1874W        W 5618   6.035   1.979   2.255 -0.0707 -0.0069  0.0503
 1875W        W 5619   1.741   3.214  10.486  0.3407 -0.2025 -0.3781
 1876W        W 5620   3.105   2.902   0.467  0.2484 -0.3110 -0.0702
 1877W        W 5621   9.948   7.859   8.946 -0.0072  0.0705  0.0918
 1878W        W 5622   5.800   1.138   1.893  0.0410  0.1411  0.0213
 1879W        W 5623   5.852   7.708  11.237 -0.0634 -0.1259 -0.1786
 1880W        W 5624   1.139   3.054   0.271  0.2292  0.1456 -0.0421
 1881W        W 5625   9.685   3.577   2.556 -0.2524  0.1513  0.3678
 1882W        W 5626   4.587   9.890   1.095 -0.0652  0.0756 -0.2064
 1883W        W 5627   9.049   0.385   0.305 -0.1801 -0.1837  0.2935
 1884W        W 5628   4.590   3.245   4.726 -0.0479  0.0308  0.0749
 1885W        W 5629   4.805   1.172  10.414  0.2911  0.0298  0.1508
 1886W        W 5630   8.401   5.547   9.220  0.0425 -0.2582 -0.1473
 1887W        W 5631   0.186   2.802  10.191 -0.3732  0.0178  0.2375
 1888W        W 5632   6.752   0.451   2.707 -0.4284 -0.0663 -0.4577
 1889W        W 5633   4.632   5.794   0.397 -0.1856  0.5255  0.0175
 1890W        W 5634   9.005   3.922   8.614  0.1651  0.1089  0.0771
 1891W        W 5635   9.287   5.418   0.895 -0.3234  0.1997  0.0432
 1892W        W 5636   3.192   5.429   0.035 -0.2909 -0.1984 -0.1749
 1893W        W 5637   3.353   8.772   1.268  0.1771 -0.0486  0.1529
 1894W        W 5638   5.028   5.397   4.005  0.1234  0.0235  0.0584
 1895W        W 5639   7.911   5.519   9.407 -0.1862 -0.3790  0.1012
 1896W        W 5640   6.780   8.012   8.929 -0.3466 -0.4223  0.0438
 1897W        W 5641   8.253   1.139  11.219 -0.0979 -0.1698 -0.0946
 1898W        W 5642   9.888   7.540  10.085  0.0133  0.2269  0.4156
 1899W        W 5643   2.103   6.591   0.053 -0.1541 -0.2047  0.0848
 1900W        W 5644   8.055   4.962   1.180 -0.2700 -0.1304  0.0797
 1901W        W 5645   0.225   8.061   4.239 -0.1255 -0.0440 -0.2541
 1902W        W 5646   3.928   6.041   0.707  0.2857  0.3926 -0.0640
 1903W        W 5647   9.719   1.135  10.941 -0.0589 -0.1889 -0.1708
 1904W        W 5648   5.428   4.820   2.850  0.1287  0.2917  0.1999
 1905W        W 5649   5.325   4.736   2.367 -0.2510  0.1992 -0.1061
 1906W        W 5650   0.553   7.935   0.606  0.0374 -0.1280  0.1081
 1907W        W 5651   2.211   8.043   1.887 -0.1043  0.0358 -0.0055
 1908W        W 5652   0.597   8.751   0.353  0.3436  0.2185 -0.1328
 1909W        W 5653   3.772   8.498   8.743 -0.1772 -0.2589 -0.4085
 1910W        W 5654   1.374   0.047   0.007  0.0543  0.4106 -0.0121
 1911W        W 5655   0.136   5.728   8.739 -0.1316 -0.1758  0.3048
 1912W        W 5656   7.271   3.639   0.967  0.1787  0.1170 -0.2422
 1913W        W 5657   3.791   8.208   0.155  0.3053  0.0929 -0.2897
 1914W        W 5658   5.675   9.575  11.674 -0.3714  0.3870  0.0853
 1915W        W 5659   3.759   8.654   1.445 -0.0345 -0.0617  0.0666
 1916W        W 5660   9.083   6.056   2.955 -0.1887  0.0034 -0.0707
 1917W        W 5661   3.062   8.956   3.887 -0.1588 -0.1975 -0.0560
 1918W        W 5662   8.427   2.507   3.641  0.0741  0.1319  0.1102
 1919W        W 5663   1.958   1.712   2.412  0.2067 -0.3316  0.1769
 1920W        W 5664   8.549   1.674  11.154 -0.0074  0.3876 -0.2241
 1921W        W 5665   3.587   7.498  12.150  0.2361 -0.0294  0.0886
 1922W        W 5666   0.192   4.681   4.203  0.0294  0.0037 -0.1598
 1923W        W 5667   1.758   5.160  11.160  0.1558 -0.3095  0.5286
 1924W        W 5668   9.360   2.280   2.077 -0.0789 -0.3147 -0.2825
 1925W        W 5669   4.390   9.373   3.825  0.0538 -0.0414  0.1422
 1926W        W 5670   7.408   4.971   1.764  0.1531 -0.0573 -0.0768
 1927W        W 5671   6.090   6.360   2.487  0.3167 -0.0220  0.0930
 1928W        W 5672   4.439   7.721   1.116  0.0932  0.0594 -0.3579
 1929W        W 5673   6.636   8.302   9.305 -0.0913 -0.0438  0.0926
 1930W        W 5674   0.732   1.830   1.805  0.1148 -0.0548 -0.1711
 1931W        W 5675   5.080   5.936  12.254  0.0205 -0.1382  0.2649
 1932W        W 5676   8.125   2.553  12.693 -0.2609 -0.3591 -0.0785
 1933W        W 5677   0.186   1.905   9.350 -0.3248  0.0247 -0.1283
 1934W        W 5678   2.550   8.533   2.130  0.1162 -0.4594 -0.0918
 1935W        W 5679   2.096   1.983   0.130  0.0794  0.2764  0.0896
 1936W        W 5680   0.411   7.510   2.568 -0.2184  0.1454  0.0169
 1937W        W 5681   1.936   1.408   8.264 -0.4531  0.2285  0.2707
 1938W        W 5682   5.623   6.543  10.490  0.0862  0.0868  0.4588
 1939W        W 5683   9.365   4.990  11.701  0.2344 -0.0923  0.2207
 1940W        W 5684   4.764   0.523   9.734  0.1058 -0.1557  0.0691
 1941W        W 5685   3.557   4.052   8.784  0.3628  0.2558 -0.0962
 1942W        W 5686   2.193   4.091   8.220  0.1342  0.2530 -0.1980
 1943W        W 5687   0.376   0.057   2.931  0.2331  0.1066 -0.3455
 1944W        W 5688   4.127   9.631   2.530  0.0092  0.1829 -0.2758
 1945W        W 5689   1.178   4.509   0.258  0.0823  0.1007  0.0255
 1946W        W 5690   3.677   6.859   1.160 -0.0505 -0.0493  0.1588
 1947W        W 5691   5.027   0.836   2.182 -0.0994  0.1705 -0.3253
 1948W        W 5692   1.650   7.793   2.721  0.1185  0.0846 -0.0639
 1949W        W 5693   2.200   1.088   1.827 -0.2376 -0.0994 -0.0243
 1950W        W 5694   2.130   2.319  11.850  0.1476  0.2525  0.3088
 1951W        W 5695   1.292   5.599  11.904  0.1851  0.0740  0.2171
 1952W        W 5696   6.667   6.690   0.302 -0.2456 -0.0353  0.0882
 1953W        W 5697   9.480   7.773  11.042  0.1730 -0.1240  0.0529
 1954W        W 5698   2.630   8.515   2.598 -0.1218 -0.3136  0.1254
 1955W        W 5699   2.392   7.261   9.020 -0.1538  0.0915  0.0660
 1956W        W 5700   7.535   6.709  11.480  0.2246  0.0135  0.2045
 1957W        W 5701   5.809   8.187   0.292 -0.2154  0.1832  0.6778
 1958W        W 5702   4.024   3.336   2.138 -0.1034  0.2511  0.1697
 1959W        W 5703   9.770   1.934   1.271  0.0435 -0.1395 -0.0535
 1960W        W 5704   2.789   9.355   3.866  0.0472 -0.1332  0.1467
 1961W        W 5705   6.577   4.152  12.125  0.0212  0.1267  0.1417
 1962W        W 5706   7.027   1.717   1.992 -0.3485  0.0033  0.0772
 1963W        W 5707   5.402   9.197  10.994  0.2656 -0.0190  0.4175
 1964W        W 5708   1.316   1.935   0.197 -0.0022 -0.0367 -0.0849
 1965W        W 5709   8.155   5.474   3.979 -0.0319  0.0923  0.1323
 1966W        W 5710   0.461   1.387   3.187 -0.0063 -0.3299  0.0889
 1967W        W 5711   0.634   1.398  12.023 -0.0197  0.2647  0.0810
 1968W        W 5712   0.509   7.262   9.387 -0.1855 -0.2804  0.1841
 1969W        W 5713   7.926   5.750  10.301  0.2526 -0.3278  0.3534
 1970W        W 5714   3.346   3.870   3.724 -0.0656  0.2043  0.0115
 1971W        W 5715   2.023   2.224   3.065 -0.0102 -0.2313 -0.5094
 1972W        W 5716   4.475   2.176   1.547  0.4327  0.1167  0.4871
 1973W        W 5717   8.236   4.064   8.892  0.2689 -0.1645 -0.1708
 1974W        W 5718   1.714   2.325   0.452 -0.1138 -0.0127  0.0985
 1975W        W 5719   0.587   0.939  11.125  0.0343  0.2493 -0.2568
 1976W        W 5720   9.186   2.445  11.052 -0.3798  0.0958  0.0851
 1977W        W 5721   8.604   0.520  12.332  0.0907  0.0867 -0.3032
 1978W        W 5722   9.390   1.467  11.192 -0.3054  0.3589 -0.2801
 1979W        W 5723   2.291   5.724  11.842 -0.1306 -0.3427 -0.2267
 1980W        W 5724   3.633   8.554   0.912  0.3115  0.0226  0.2453
 1981W        W 5725   7.965   5.810   2.776  0.3920 -0.0134 -0.0673
 1982W        W 5726   3.250   9.608  11.559  0.0029  0.4648  0.3669
 1983W        W 5727   9.816   6.030   9.233  0.0032  0.0806 -0.0593
 1984W        W 5728   8.970   2.192  12.265 -0.0207 -0.0332  0.0438
 1985W        W 5729   3.766   9.245   9.333  0.1793 -0.2221 -0.1297
 1986W        W 5730   2.021   8.122   2.676 -0.1992 -0.0949  0.2987
 1987W        W 5731   9.170   3.323  10.023  0.0424  0.0755  0.0839
 1988W        W 5732   3.070   7.255  10.221 -0.1348 -0.3533 -0.0893
 1989W        W 5733   1.395   3.333   3.209 -0.4508 -0.0627  0.0093
 1990W        W 5734   5.452   5.666   8.445  0.0342 -0.3279 -0.0321
 1991W        W 5735   6.262   6.233   9.807 -0.1015  0.2135  0.1896
 1992W        W 5736   8.457   0.969  12.581 -0.1133  0.1082  0.0676
 1993W        W 5737   5.714   7.288   2.918 -0.5087  0.2847  0.1603
 1994W        W 5738   9.248   5.134   3.524  0.0046  0.1639  0.0490
 1995W        W 5739   2.886   6.568   2.332 -0.0290 -0.4582 -0.0052
 1996W        W 5740   9.158   8.044   0.737 -0.3284 -0.0673 -0.3776
 1997W        W 5741   6.287   1.392   9.272 -0.0243 -0.2264 -0.3096
 1998W        W 5742   9.319   9.445   0.565 -0.1372  0.0670  0.0768
 1999W        W 5743   5.008   3.071   8.321 -0.0355 -0.1280 -0.0074
 2000W        W 5744   6.116   1.995  11.262 -0.3820 -0.3965 -0.1129
 2001W        W 5745   2.136   7.104   0.078  0.1158 -0.2223  0.2703
 2002W        W 5746   4.827   9.761   9.072 -0.0210 -0.1361  0.0062
 2003W        W 5747   5.390   7.778   1.650 -0.0592  0.2964 -0.1773
 2004W        W 5748   0.611   3.117  11.730  0.0658 -0.1897  0.1134
 2005W        W 5749   0.601   7.975  11.571  0.1625 -0.0319  0.1640
 2006W        W 5750   6.820   1.700   3.246  0.0145 -0.2181 -0.0675
 2007W        W 5751   0.157   9.704   3.486  0.1787 -0.0434 -0.0188
 2008W        W 5752   2.941   7.540   3.333 -0.1237 -0.0689 -0.1905
 2009W        W 5753   7.916   3.080  10.457  0.5873  0.0632 -0.1634
 2010W        W 5754   4.866   8.813  12.509 -0.0207  0.0827  0.2033
 2011W        W 5755   2.742   5.467   0.389 -0.2961  0.1874 -0.0064
 2012W        W 5756   2.263   2.632   2.355  0.2627 -0.3288 -0.0660
 2013W        W 5757   9.305   8.814   3.798 -0.2157  0.0059  0.1140
 2014W        W 5758   8.943   8.923   0.630 -0.1190  0.0264 -0.3055
 2015W        W 5759   6.176   9.635  11.706  0.0143  0.1356  0.1615
 2016W        W 5760   2.602   0.741   9.204 -0.0246 -0.0264  0.1613
 2017W        W 5761   4.459   9.712   3.042 -0.2528 -0.1417 -0.0241
 2018W        W 5762   9.346   5.222   9.328 -0.0798 -0.1937 -0.1260
 2019W        W 5763   4.935   5.596   3.382  0.1406 -0.2034  0.1396
 2020W        W 5764   1.004   5.785  12.239 -0.1776  0.1482 -0.3713
 2021W        W 5765   4.415   5.182   9.660 -0.2708  0.0718 -0.0571
 2022W        W 5766   3.462   7.634   9.801  0.2667  0.2778 -0.1545
 2023W        W 5767   1.099   0.515   0.025  0.1914  0.1159 -0.3608
 2024W        W 5768   2.477   4.464  12.121  0.0823 -0.4117  0.1966
 2025W        W 5769   1.044   1.638  12.023 -0.0703 -0.1457  0.3502
 2026W        W 5770   1.505   7.230   1.796  0.1438  0.0543 -0.0875
 2027W        W 5771   2.488   7.893   4.547  0.0884 -0.1003  0.2871
 2028W        W 5772   5.974   4.785  11.295  0.1105 -0.0382  0.0781
 2029W        W 5773   5.038   4.771   8.840 -0.2281  0.1352  0.0159
 2030W        W 5774   8.374   5.454  10.077 -0.0661  0.2555  0.0920
 2031W        W 5775   1.059   0.343  12.367  0.3553  0.0613  0.1141
 2032W        W 5776   9.330   3.546   2.126 -0.0206 -0.1269  0.0517
 2033W        W 5777   3.858   2.288   9.510  0.0106 -0.2044  0.1268
 2034W        W 5778   5.287   1.213   0.041  0.0731 -0.1443 -0.4452
 2035W        W 5779   8.766   9.508   0.217  0.3452  0.0286  0.1879
 2036W        W 5780   7.265   6.590   3.707  0.0747  0.0288 -0.0123
 2037W        W 5781   4.712   2.082   0.733  0.3574  0.1773  0.1722
 2038W        W 5782   6.048   2.806  11.004  0.0412 -0.1578  0.0550
 2039W        W 5783   6.471   8.788  11.063 -0.0987  0.0869 -0.5045
 2040W        W 5784   2.320   0.933   3.521 -0.3293 -0.1557  0.3678
 2041W        W 5785   0.643   7.969   4.010 -0.2464 -0.1397 -0.1767
 2042W        W 5786   4.097   8.230  10.846  0.0115 -0.0486 -0.0482
 2043W        W 5787   8.437   2.659   1.142 -0.1935 -0.2469 -0.4664
 2044W        W 5788   4.283   7.108   0.662  0.1268  0.0283  0.0014
 2045W        W 5789   9.450   1.440   2.132 -0.1090  0.1972  0.0868
 2046W        W 5790   9.284   0.790   0.144 -0.2087 -0.0954 -0.1461
 2047W        W 5791   0.682   5.589   8.975 -0.0775  0.1421  0.1432
 2048W        W 5792   7.720   3.755   4.568 -0.0333 -0.1398 -0.3083
 2049W        W 5793   6.420   1.655   8.363  0.1780  0.4150  0.1032
 2050W        W 5794   5.840   8.230  10.628 -0.0459  0.0734 -0.3899
 2051W        W 5795   3.589   9.250  11.170 -0.0324  0.0684  0.3721
 2052W        W 5796   5.652   2.015  11.556  0.2624 -0.1026 -0.2760
 2053W        W 5797   6.223   7.896   1.305  0.0307  0.3036 -0.1391
 2054W        W 5798   5.003   9.831   2.272 -0.1223 -0.1073 -0.1251
 2055W        W 5799   0.715   8.445   1.463  0.0719 -0.2189  0.2494
 2056W        W 5800   5.033   2.360   8.736  0.0319 -0.0761  0.1796
 2057W        W 5801   0.547   7.068   0.115 -0.2241 -0.0807  0.1552
 2058W        W 5802   1.328   9.279  11.395 -0.2960  0.0101  0.1893
 2059W        W 5803   5.080   6.470  10.450  0.0413  0.1140  0.2322
 2060W        W 5804   3.599   5.529   0.974 -0.0478 -0.2439 -0.0835
 2061W        W 5805   4.594   6.995   3.464 -0.0507  0.3585  0.1501
 2062W        W 5806   4.200   4.525  10.284  0.2737  0.1219 -0.1003
 2063W        W 5807   6.181   8.633  10.708 -0.2079  0.0894 -0.0089
 2064W        W 5808   5.490   3.833   0.124 -0.3504  0.1443  0.1384
 2065W        W 5809   5.014   8.026  12.698 -0.0052  0.1367 -0.2211
 2066W        W 5810   2.190   2.041   9.979 -0.2428  0.1888  0.2211
 2067W        W 5811   4.018   9.033   3.678  0.2031  0.0784 -0.2622
 2068W        W 5812   4.930   3.329  12.399 -0.1799  0.0832 -0.2442
 2069W        W 5813   9.670   4.059  11.772 -0.0290  0.0701  0.2277
 2070W        W 5814   2.299   4.479  11.302 -0.1003 -0.0061  0.1956
 2071W        W 5815   3.701   3.649   9.033  0.0004  0.0777 -0.0590
 2072W        W 5816   5.422   1.212   4.088 -0.0045 -0.2932  0.1340
 2073W        W 5817   7.846   5.573   5.091 -0.1529 -0.0401 -0.1787
 2074W        W 5818   1.173   2.429  12.431 -0.2926 -0.1502  0.1075
 2075W        W 5819   2.048   6.419  11.403 -0.0653  0.1131  0.4176
 2076W        W 5820   2.173   9.308   9.288  0.0123  0.0319  0.1552
 2077W        W 5821   7.377   2.439   9.263 -0.0992 -0.2020 -0.0766
 2078W        W 5822   2.815   6.970   1.493  0.0599 -0.0018 -0.2448
 2079W        W 5823   7.650   8.867  12.682  0.0862  0.0116 -0.0069
 2080W        W 5824   1.801   5.686  10.497 -0.1348 -0.1817  0.0373
 2081W        W 5825   2.213   5.434  10.294  0.1350  0.0286  0.3175
 2082W        W 5826   4.029   4.496   4.117  0.0366 -0.0014 -0.1713
 2083W        W 5827   0.321   7.705   9.281  0.0154 -0.2240 -0.0287
 2084W        W 5828   4.885   4.087   3.683  0.0897  0.0329 -0.2802
 2085W        W 5829   8.048   8.021  11.422 -0.2654 -0.0333 -0.0376
 2086W        W 5830   1.526   4.711  11.046 -0.0925 -0.2982  0.1393
 2087W        W 5831   0.495   5.095   2.002 -0.0740 -0.0555 -0.1621
 2088W        W 5832   5.978   5.166   4.082  0.2703 -0.1764  0.3386
 2089W        W 5833   9.127   3.587  12.543  0.2493  0.1978 -0.0562
 2090W        W 5834   4.804   1.546   0.939 -0.1017 -0.0748  0.2956
 2091W        W 5835   1.305   6.767  12.384 -0.1108 -0.0030 -0.1477
 2092W        W 5836   5.772   5.634   2.682 -0.2408  0.1532  0.0584
 2093W        W 5837   1.160   8.591   2.416 -0.2324  0.1733 -0.0046
 2094W        W 5838   0.401   3.820   1.892 -0.0849  0.1240  0.4318
 2095W        W 5839   8.181   9.333   1.371 -0.2922 -0.1323  0.2082
 2096W        W 5840   0.932   8.892   8.758 -0.0750  0.0094 -0.0389
 2097W        W 5841   7.985   9.580   3.641  0.0574  0.2725 -0.0639
 2098W        W 5842   5.018   9.711   5.195  0.4404  0.2122  0.0768
 2099W        W 5843   7.909   3.420   3.384 -0.1585  0.1295 -0.1496
 2100W        W 5844   7.538   7.432   8.622 -0.1233  0.3714  0.0695
 2101W        W 5845   9.721   4.221  12.282  0.1523  0.0574 -0.0222
 2102W        W 5846   5.419   6.458   9.517  0.0974 -0.0560 -0.0681
 2103W        W 5847   2.772   8.917   2.363 -0.1642 -0.1597  0.0487
 2104W        W 5848   1.491   2.907   0.559 -0.0729 -0.1501  0.1399
 2105W        W 5849   5.758   4.530   0.407  0.0462  0.0955 -0.2533
 2106W        W 5850   6.729   4.092   9.617  0.0994  0.2710 -0.0721
 2107W        W 5851   6.504   3.317   2.580 -0.4099 -0.2539  0.0243
 2108W        W 5852   9.219   8.671   2.449 -0.0108 -0.2388 -0.0001
 2109W        W 5853   3.331   5.754   2.277  0.2534 -0.0462 -0.2200
 2110W        W 5854   7.193   3.758   9.546 -0.0426  0.4316  0.1199
 2111W        W 5855   7.941   3.657  11.740 -0.2637  0.1624 -0.2582
 2112W        W 5856   3.977   3.321  10.110  0.1299  0.2204 -0.1871
 2113W        W 5857   1.156   3.840  11.922  0.1747 -0.1344 -0.0196
 2114W        W 5858   3.003   6.689  11.947 -0.0090 -0.1308 -0.0171
 2115W        W 5859   9.563   7.258   1.288 -0.1212 -0.2402  0.2945
 2116W        W 5860   4.849   2.780   0.722 -0.0083  0.1971  0.0374
 2117W        W 5861   7.529   4.652  10.729 -0.0304  0.0758  0.1437
 2118W        W 5862   3.558   1.854   2.812  0.3053 -0.1571  0.0037
 2119W        W 5863   9.355   2.348   1.131 -0.0812  0.0346  0.0723
 2120W        W 5864   8.758   7.608   0.022 -0.0593 -0.1728  0.1869
 2121W        W 5865   4.092   7.259   1.149  0.0957 -0.0103  0.0745
 2122W        W 5866   7.682   7.737   2.638 -0.2034 -0.0421  0.2906
 2123W        W 5867   3.249   0.581  11.433 -0.0267 -0.2372 -0.3234
 2124W        W 5868   1.135   5.058   9.539  0.0049  0.1681 -0.0758
 2125W        W 5869   6.264   2.970   0.486  0.3194 -0.1660 -0.1842
 2126W        W 5870   7.227   1.750   8.985 -0.3068 -0.1507  0.1835
 2127W        W 5871   4.124   0.718   5.256  0.2430  0.1365  0.1727
 2128W        W 5872   6.389   7.927   3.393 -0.0290  0.3751 -0.2988
 2129W        W 5873   9.591   3.904  11.298 -0.0533 -0.0004 -0.1343
 2130W        W 5874   1.411   3.661   0.480 -0.0313  0.0922  0.0179
 2131W        W 5875   4.407   7.233  11.861  0.5306  0.3568  0.2375
 2132W        W 5876   6.842   5.886  12.335 -0.0974 -0.0286 -0.2736
 2133W        W 5877   5.448   6.332   8.884 -0.3066 -0.1797 -0.1031
 2134W        W 5878   4.847   7.888  10.054  0.0091 -0.1665 -0.0277
 2135W        W 5879   4.351   9.947   9.007 -0.0110  0.0455 -0.3057
 2136W        W 5880   7.445   0.653   9.599 -0.0995 -0.0443 -0.1324
 2137W        W 5881   0.058   1.821   0.836  0.2796 -0.2813 -0.0471
 2138W        W 5882   8.426   4.711   9.627 -0.0673 -0.1588 -0.0244
 2139W        W 5883   2.698   7.974   2.791  0.0512  0.2927  0.2053
 2140W        W 5884   6.863   8.585   0.802  0.1038  0.1573  0.0045
 2141W        W 5885   9.821   0.146  12.470 -0.1507  0.1612  0.1475
 2142W        W 5886   4.398   6.243   0.525 -0.1714 -0.1572 -0.0842
 2143W        W 5887   1.103   6.443   3.419 -0.0174 -0.1255 -0.0371
 2144W        W 5888   5.415   7.595  10.242 -0.2550 -0.1411  0.1040
 2145W        W 5889   9.516   5.394   1.969  0.1221 -0.1477 -0.1122
 2146W        W 5890   1.021   0.956  10.346 -0.0089 -0.3623  0.0118
 2147W        W 5891   4.405   5.437  12.774  0.0493  0.1313 -0.1492
 2148W        W 5892   5.190   3.901   2.557  0.2216 -0.0114  0.1220
 2149W        W 5893   7.625   2.906   9.287  0.4231 -0.0886 -0.0298
 2150W        W 5894   4.588   6.600   3.826 -0.0718  0.1396 -0.2350
 2151W        W 5895   7.230   6.318  11.478  0.3837 -0.0390 -0.2519
 2152W        W 5896   7.037   4.326  11.947  0.0505 -0.1656  0.3939
 2153W        W 5897   4.872   5.487  11.431  0.0938 -0.0578  0.1743
 2154W        W 5898   6.313   5.250   8.142 -0.0384  0.1734  0.0616
 2155W        W 5899   8.996   4.912   0.190 -0.0123  0.0469  0.1083
 2156W        W 5900   9.078   7.054  10.930  0.1962 -0.4480  0.1610
 2157W        W 5901   6.049   1.404   2.216 -0.1835 -0.2278 -0.3750
 2158W        W 5902   4.341   4.159   9.943 -0.3892 -0.2907 -0.3386
 2159W        W 5903   6.180   7.364  12.007 -0.0203 -0.3855  0.0295
 2160W        W 5904   5.323   1.389   3.518 -0.5332  0.4369 -0.0892
 2161W        W 5905   3.447   3.269   8.792 -0.3006 -0.0701  0.0313
 2162W        W 5906   1.450   0.146  10.268  0.0004  0.1269 -0.3101
 2163W        W 5907   6.362   9.871   9.923 -0.0511  0.0367  0.3823
 2164W        W 5908   4.201   0.420   9.928  0.2035 -0.0708 -0.3646
 2165W        W 5909   5.280   6.091   9.799 -0.0831 -0.1374 -0.1981
 2166W        W 5910   9.442   5.864   3.592 -0.0265  0.1098  0.2565
 2167W        W 5911   8.657   2.719   9.964  0.1317  0.1680 -0.2766
 2168W        W 5912   8.518   5.345   2.001  0.1481 -0.2391 -0.1128
 2169W        W 5913   8.351   4.230  12.340  0.3360 -0.1285  0.1843
 2170W        W 5914   2.240   6.924   8.626 -0.2187  0.0234 -0.3146
 2171W        W 5915   8.619   1.699  10.641 -0.0658 -0.1111 -0.2165
 2172W        W 5916   1.424   4.788  10.274  0.2170 -0.0198  0.2027
 2173W        W 5917   2.271   0.127   5.418  0.1122 -0.0175  0.4037
 2174W        W 5918   7.484   2.006   0.201 -0.2940  0.0667  0.1459
 2175W        W 5919   1.297   0.214   4.333 -0.2280 -0.0587 -0.0734
 2176W        W 5920   2.744   6.272   0.122  0.1817  0.0032 -0.1944
 2177W        W 5921   8.597   6.659   1.280  0.2369 -0.0975 -0.1671
 2178W        W 5922   1.085   8.790  11.448  0.0359  0.2424  0.0040
 2179W        W 5923   9.423   8.949  12.214  0.1248  0.1678 -0.1903
 2180W        W 5924   6.446   0.503  10.724  0.0074 -0.1669 -0.1365
 2181W        W 5925   2.916   5.659   9.622 -0.1137  0.3553  0.1158
 2182W        W 5926   8.405   8.506   1.265 -0.0342 -0.0276 -0.1204
 2183W        W 5927   2.621   4.948   9.585  0.1369 -0.2340  0.0080
 2184W        W 5928   6.767   0.657   4.009  0.1134 -0.1679  0.0039
 2185W        W 5929   5.023   0.530  10.143  0.3087  0.1979 -0.0018
 2186W        W 5930   3.647   0.757  11.856 -0.1439 -0.1213  0.1916
 2187W        W 5931   3.986   5.606   2.550 -0.1107  0.0943 -0.0990
 2188W        W 5932   2.978   7.351   2.759  0.1511 -0.1937 -0.0333
 2189W        W 5933   3.382   8.039   2.384 -0.1459  0.1174 -0.5855
 2190W        W 5934   4.303   6.713   0.943 -0.0945  0.1180  0.1442
 2191W        W 5935   1.856   8.683   3.020 -0.1874 -0.0131 -0.2219
 2192W        W 5936   6.612   1.955  11.053  0.2729  0.0848 -0.3355
 2193W        W 5937   4.731   1.825   9.613  0.2828  0.2753 -0.2804
 2194W        W 5938   5.296   7.396   3.210 -0.2781 -0.1797  0.0063
 2195W        W 5939   4.434   8.072   2.478  0.0385  0.1207  0.0437
 2196W        W 5940   9.740   3.604   0.444  0.2650  0.1215 -0.1396
 2197W        W 5941   5.145   7.090  11.700 -0.1184  0.2461  0.0639
 2198W        W 5942   1.315   5.655   0.738  0.1885  0.0956 -0.1326
 2199W        W 5943   3.379   6.000  10.430  0.1603  0.1686 -0.3044
 2200W        W 5944   2.104   8.515   3.937  0.3863  0.1542 -0.2459
 2201W        W 5945   6.129   9.649   3.602  0.1165  0.0167  0.2007
 2202W        W 5946   0.749   4.074   4.708  0.1754 -0.1904 -0.1213
 2203W        W 5947   4.812   1.493   2.953 -0.0347  0.0947 -0.0842
 2204W        W 5948   6.325   3.634  10.612  0.0929 -0.0364  0.1302
 2205W        W 5949   8.578   7.615   3.719 -0.1237  0.1300 -0.4669
 2206W        W 5950   4.767   9.186   4.130 -0.0876 -0.2824 -0.1837
 2207W        W 5951   7.756   6.308  11.655  0.2025 -0.2455  0.0811
 2208W        W 5952   5.944   6.154   0.429  0.1698 -0.3154  0.0249
 2209W        W 5953   1.938   7.928  10.927 -0.0694  0.0200  0.3984
 2210W        W 5954   0.871   7.500   0.036  0.2181 -0.1858  0.1712
 2211W        W 5955   9.189   3.717   2.626 -0.1399 -0.1414  0.0889
 2212W        W 5956   6.694   8.678   2.963 -0.1050  0.1338 -0.2447
 2213W        W 5957   6.819   1.879   0.175  0.0288  0.2081  0.1137
 2214W        W 5958   5.396   8.357   1.611 -0.0941 -0.1140  0.0774
 2215W        W 5959   1.059   2.773  10.875 -0.2104  0.2235 -0.2447
 2216W        W 5960   1.256   4.583  11.807 -0.0821 -0.0595  0.0857
 2217W        W 5961   2.041   4.118   0.032  0.1910 -0.0614 -0.0826
 2218W        W 5962   2.953   1.278   0.453 -0.0039  0.4080  0.1350
 2219W        W 5963   8.645   9.376   0.733 -0.0482  0.0703  0.0850
 2220W        W 5964   0.823   6.760  12.593  0.2111  0.0737  0.2224
 2221W        W 5965   3.079   0.024  11.194 -0.2866  0.0926  0.1521
 2222W        W 5966   3.735   0.177  12.172 -0.0869  0.0786 -0.0985
 2223W        W 5967   5.500   5.203   2.501  0.1664 -0.1961 -0.1749
 2224W        W 5968   0.331   6.117  11.449  0.4032  0.1705  0.4210
 2225W        W 5969   6.741   2.925   0.544  0.0397 -0.0348 -0.0323
 2226W        W 5970   5.601   1.308  11.979 -0.0061  0.0563 -0.3220
 2227W        W 5971   3.766   3.738  11.347  0.0612 -0.2070  0.0588
 2228W        W 5972   2.982   4.921   1.534  0.1806 -0.0091 -0.0551
 2229W        W 5973   6.476   3.611   2.110 -0.0945 -0.0338  0.0669
 2230W        W 5974   1.866   6.146   9.549 -0.2788 -0.1018 -0.2139
 2231W        W 5975   0.606   5.967   3.725  0.1650  0.3056  0.0434
 2232W        W 5976   4.616   5.540   8.857 -0.0589  0.1474 -0.1749
 2233W        W 5977   6.842   0.833   3.058 -0.1426 -0.0807  0.1254
 2234W        W 5978   9.810   9.693  11.655  0.2179  0.0085 -0.4371
 2235W        W 5979   4.789   8.947   0.803  0.1366 -0.1226  0.0158
 2236W        W 5980   7.581   6.602   9.688 -0.2872 -0.2401 -0.0945
 2237W        W 5981   7.764   1.094   0.192  0.1952 -0.3172 -0.0778
 2238W        W 5982   7.691   7.608   9.559  0.1149  0.2774  0.4242
 2239W        W 5983   3.306   4.044   2.445 -0.1562 -0.0191 -0.1694
 2240W        W 5984   9.053   9.033   2.834 -0.1109 -0.0215 -0.1454
 2241W        W 5985   9.102   9.606  11.468  0.0175 -0.1143  0.2261
 2242W        W 5986   4.400   2.786   2.275 -0.3411 -0.0751  0.1729
 2243W        W 5987   9.022   6.583  11.138  0.3664  0.0209 -0.1063
 2244W        W 5988   8.645   4.774  12.199 -0.1087 -0.0964  0.3849
 2245W        W 5989   1.058   7.218   0.436 -0.0783  0.0767  0.1513
 2246W        W 5990   9.213   6.459   3.380  0.2488  0.2839  0.0392
 2247W        W 5991   6.497   3.153   0.938  0.1633  0.3459 -0.1124
 2248W        W 5992   2.201   3.657   9.873 -0.1113 -0.1144 -0.5036
 2249W        W 5993   6.456   8.801   1.927  0.2162  0.3842 -0.0322
 2250W        W 5994   1.003   8.342   9.419  0.2437 -0.1684 -0.0517
 2251W        W 5995   9.394   6.891  12.403  0.1245 -0.2797  0.0902
 2252W        W 5996   1.952   0.035  10.120 -0.0774 -0.1398  0.0498
 2253W        W 5997   8.983   0.274   2.211 -0.1558  0.1393 -0.0740
 2254W        W 5998   6.813   3.460   0.562 -0.0020  0.0007 -0.0941
 2255W        W 5999   6.751   5.591   1.524 -0.3307 -0.0010 -0.1109
 2256W        W 6000   6.099   3.576   1.774  0.0635  0.3246 -0.0276
 2257W        W 6001   6.269   9.386   4.029 -0.0497 -0.4010  0.1109
 2258W        W 6002   9.776   1.179   0.051  0.0608 -0.0678  0.0783
 2259W        W 6003   1.372   8.065   0.600 -0.3781  0.1372 -0.0406
 2260W        W 6004   3.256   4.882   0.647  0.1142 -0.2000 -0.1918
 2261W        W 6005   1.044   0.262   3.960 -0.3477 -0.1375 -0.5404
 2262W        W 6006   2.396   6.778   1.334  0.2361 -0.2585 -0.3691
 2263W        W 6007   5.943   5.476   1.562 -0.0259 -0.0906  0.2884
 2264W        W 6008   7.033   9.726  10.121 -0.0099  0.0078  0.0311
 2265W        W 6009   6.043   1.674  10.026  0.0753 -0.3384 -0.0403
 2266W        W 6010   9.396   1.116  12.555 -0.1572 -0.1916  0.0985
 2267W        W 6011   1.115   7.046   2.172 -0.2889  0.0694  0.1985
 2268W        W 6012   0.588   6.237   4.123 -0.3631 -0.0822 -0.0580
 2269W        W 6013   6.780   3.243   2.157  0.4119 -0.2301  0.4964
 2270W        W 6014   8.145   4.334   1.339 -0.0061  0.1825  0.1557
 2271W        W 6015   8.306   3.873   3.257 -0.0563 -0.2384  0.3052
 2272W        W 6016   3.508   0.456   2.623 -0.3384  0.1565 -0.0300
 2273W        W 6017   9.689   9.759   2.574 -0.2650  0.1406 -0.2286
 2274W        W 6018   2.892   6.239   1.929 -0.2441  0.0458 -0.1678
 2275W        W 6019   9.660   7.469   9.627 -0.0778  0.1248 -0.0325
 2276W        W 6020   8.898   6.259   1.072  0.1216 -0.0670  0.0563
 2277W        W 6021   1.155   6.613   1.889 -0.4289 -0.0145 -0.1413
 2278W        W 6022   0.439   7.210   1.635  0.0454  0.0655  0.0330
 2279W        W 6023   4.299   5.825   1.347  0.4321 -0.1981  0.0522
 2280W        W 6024   5.574   3.902   1.122  0.0962  0.0126 -0.3432
 2281W        W 6025   8.861   0.061  10.246  0.3234  0.1649 -0.0766
 2282W        W 6026   1.376   8.682   9.220 -0.0537  0.1012 -0.1975
 2283W        W 6027   5.728   9.723  12.145 -0.0797  0.1313 -0.0543
 2284W        W 6028   6.750   0.400   0.590 -0.0211  0.0331 -0.1362
 2285W        W 6029   7.560   1.172   1.450 -0.2918 -0.4594 -0.1893
 2286W        W 6030   6.865   1.562   8.683 -0.0247 -0.1106  0.1523
 2287W        W 6031   8.282   0.695   9.877  0.0538 -0.0237 -0.0054
 2288W        W 6032   8.599   6.169  10.971 -0.1599 -0.0525 -0.1301
 2289W        W 6033   7.654   1.707  12.530  0.1316 -0.0712  0.0924
 2290W        W 6034   6.287   8.079   5.325  0.1753  0.1901  0.0074
 2291W        W 6035   3.003   0.175  11.772 -0.1057  0.1989  0.0745
 2292W        W 6036   0.899   0.546  10.792  0.2726 -0.0995  0.1959
 2293W        W 6037   0.126   6.939   0.271  0.0038 -0.1745 -0.0518
 2294W        W 6038   6.508   7.514   9.757  0.1180  0.1352 -0.1070
 2295W        W 6039   7.553   3.445   9.241 -0.0096 -0.1141 -0.4647
 2296W        W 6040   5.648   8.442  12.644 -0.1225  0.1959 -0.0715
 2297W        W 6041   5.341   6.555  10.999 -0.1762 -0.0515 -0.1938
 2298W        W 6042   2.921   2.222   2.009 -0.4187  0.2153  0.3437
 2299W        W 6043   7.379   4.052   8.487 -0.0525  0.0371 -0.1735
 2300W        W 6044   1.693   0.846   3.146  0.0530 -0.0436  0.0678
 2301W        W 6045   2.173   8.379  10.854 -0.3039 -0.0323 -0.0705
 2302W        W 6046   0.390   6.648   5.282  0.0885  0.0197 -0.2181
 2303W        W 6047   7.417   3.642   8.746 -0.1309  0.2977  0.6322
 2304W        W 6048   5.968   4.570  11.877 -0.1525  0.0821  0.0206
 2305W        W 6049   1.873   6.405   9.984 -0.1336  0.0447 -0.1297
 2306W        W 6050   8.512   0.325   1.740 -0.0949  0.0885 -0.2318
 2307W        W 6051   3.382   0.465   9.361 -0.2096 -0.3203 -0.2450
 2308W        W 6052   0.846   4.308   3.736  0.1022 -0.0244 -0.6107
 2309W        W 6053   9.154   7.545  10.770  0.1139  0.0210  0.1050
 2310W        W 6054   1.724   4.872   2.700  0.0363  0.0942 -0.0008
 2311W        W 6055   5.963   0.112  10.669 -0.2088  0.3528 -0.2785
 2312W        W 6056   7.281   3.121   2.360  0.1334  0.1727 -0.1479
 2313W        W 6057   9.197   2.748  11.603  0.3695  0.1107 -0.2599
 2314W        W 6058   6.521   0.642  11.637  0.1206 -0.1741 -0.0165
 2315W        W 6059   3.135   5.240   8.796  0.1243 -0.0604 -0.0896
 2316W        W 6060   0.206   5.795   0.528 -0.0476 -0.2287  0.2139
 2317W        W 6061   4.687   2.202  11.946  0.1186 -0.1102  0.2134
 2318W        W 6062   7.378   6.297   0.574 -0.0684  0.1986 -0.0284
 2319W        W 6063   7.864   1.554   0.732 -0.5063 -0.0508 -0.0285
 2320W        W 6064   5.521   0.261   1.267  0.0531  0.0038 -0.3480
 2321W        W 6065   9.233   6.177   2.473 -0.0993  0.0888  0.0543
 2322W        W 6066   4.498   2.421   4.909 -0.1879  0.4437  0.0192
 2323W        W 6067   2.570   5.760  10.216 -0.0244  0.0664  0.0388
 2324W        W 6068   3.038   4.091   0.234  0.0864  0.0603 -0.2355
 2325W        W 6069   6.376   6.582  12.284 -0.0517 -0.0287 -0.4408
 2326W        W 6070   0.721   9.313   1.810  0.1807  0.0762 -0.1092
 2327W        W 6071   4.533   3.719  10.655  0.0503 -0.0769  0.2457
 2328W        W 6072   4.012   1.522   9.287  0.0991  0.0714 -0.1030
 2329W        W 6073   0.412   4.880  12.472 -0.2305 -0.2971  0.1505
 2330W        W 6074   0.608   3.228  10.093 -0.0724  0.3039  0.1123
 2331W        W 6075   2.668   1.155   9.504 -0.0446  0.1484  0.2500
 2332W        W 6076   4.814   3.050   2.126  0.0533 -0.0936  0.0194
 2333W        W 6077   1.206   8.574  10.662 -0.1941 -0.2477  0.1490
 2334W        W 6078   1.755   5.234   7.831 -0.1907  0.1927 -0.0928
 2335W        W 6079   0.579   9.832   0.950 -0.1420 -0.1430  0.0672
 2336W        W 6080   4.882   3.802  12.650  0.1694 -0.1080  0.0886
 2337W        W 6081   5.968   2.045   3.936  0.6064 -0.1590 -0.2197
 2338W        W 6082   0.789   1.063   2.499  0.1311  0.1217  0.1122
 2339W        W 6083   9.527   8.510   1.883 -0.0070  0.0155  0.2825
 2340W        W 6084   4.299   1.660   0.067  0.2130 -0.3969 -0.1609
 2341W        W 6085   5.738   1.674  11.021 -0.0062  0.1714  0.4262
 2342W        W 6086   3.081   1.026   3.325  0.1911 -0.2245 -0.0948
 2343W        W 6087   8.720   7.318  11.626  0.0099  0.2218  0.0357
 2344W        W 6088   0.894   8.846   1.742 -0.0170 -0.2960 -0.1896
 2345W        W 6089   9.612   5.696   9.512 -0.0685  0.0067  0.0955
 2346W        W 6090   8.874   0.825  10.619  0.0228  0.0018 -0.1723
 2347W        W 6091   6.483   2.202   2.497  0.0018  0.2245  0.1676
 2348W        W 6092   6.123   7.651   3.014  0.1485  0.0572 -0.1841
 2349W        W 6093   4.964   8.149   9.654  0.0750 -0.1926 -0.0334
 2350W        W 6094   6.426   1.928   1.231 -0.0857  0.0034  0.1815
 2351W        W 6095   5.086   3.276   0.658 -0.1169 -0.2792  0.1990
 2352W        W 6096   4.428   1.205  11.295  0.5169  0.2654 -0.0197
 2353W        W 6097   5.596   8.512   0.609 -0.3386  0.0584 -0.2036
 2354W        W 6098   1.590   0.461  12.734  0.1701  0.4514 -0.1457
 2355W        W 6099   2.524   5.303  11.112 -0.0561  0.2016  0.1925
 2356W        W 6100   6.210   8.355   1.650  0.0531  0.0931 -0.0479
 2357W        W 6101   7.458   9.714  10.432  0.2248 -0.0767  0.1441
 2358W        W 6102   6.377   0.133  11.551  0.1411  0.3263 -0.1497
 2359W        W 6103   7.909   4.401   9.708  0.0371  0.2142  0.1899
 2360W        W 6104   1.405   8.729   2.859 -0.1725 -0.1300 -0.0500
 2361W        W 6105   2.387   8.945  11.849  0.0799 -0.0713 -0.1239
 2362W        W 6106   0.260   2.824   2.135 -0.0574 -0.2090  0.0790
 2363W        W 6107   6.316   6.646  11.287  0.2409 -0.0129 -0.2162
 2364W        W 6108   9.238   2.158  11.455 -0.3019  0.1357 -0.0720
 2365W        W 6109   1.210   3.823   1.009  0.0932  0.1319 -0.1503
 2366W        W 6110   8.413   3.156  10.494  0.2261 -0.0534  0.1961
 2367W        W 6111   0.734   7.698   3.577 -0.0202 -0.0283  0.0852
 2368W        W 6112   4.565   4.374   9.487  0.3389  0.2619 -0.2015
 2369W        W 6113   2.397   4.793   8.745 -0.2215 -0.2970  0.0698
 2370W        W 6114   7.938   4.192   0.359  0.2725 -0.4843  0.0065
 2371W        W 6115   3.328   5.334  11.795 -0.1299  0.1126  0.0460
 2372W        W 6116   6.468   2.177   3.848  0.0308 -0.2039  0.0770
 2373W        W 6117   6.048   9.343  12.097  0.1425 -0.2054 -0.0700
 2374W        W 6118   3.967   1.937   3.451  0.0252 -0.2306  0.2951
 2375W        W 6119   1.034   3.830  12.492  0.1135 -0.1090  0.1593
 2376W        W 6120   6.121   9.550   1.934 -0.1311  0.0935 -0.4231
 2377W        W 6121   6.438   4.240   1.108  0.1439  0.0323  0.1313
 2378W        W 6122   5.515   3.518   1.864 -0.1832 -0.0810  0.0641
 2379W        W 6123   8.131   1.164   2.364  0.2068  0.1148 -0.0371
 2380W        W 6124   2.201   9.429   4.191 -0.0255 -0.2334 -0.1485
 2381W        W 6125   3.399   6.788   2.241  0.0521  0.0610  0.0751
 2382W        W 6126   8.218   2.794  10.192 -0.0746  0.1090  0.2125
 2383W        W 6127   7.807   9.398  10.073  0.3202  0.0214  0.2109
 2384W        W 6128   7.685   8.714   2.816  0.1005 -0.0787 -0.1339
 2385W        W 6129   4.752   4.636   3.540 -0.0254  0.0416 -0.1627
 2386W        W 6130   3.878   1.979   9.125 -0.0704 -0.2362 -0.1848
 2387W        W 6131   4.795   8.527   1.603 -0.4446  0.1635  0.1702
 2388W        W 6132   5.346   5.085   8.470 -0.0320 -0.0721 -0.0448
 2389W        W 6133   5.765   9.239   1.407 -0.0210  0.1182  0.0975
 2390W        W 6134   4.605   5.830  12.281 -0.2970  0.3634 -0.1514
 2391W        W 6135   2.557   3.772   2.257 -0.2052  0.1277  0.0952
 2392W        W 6136   3.388   7.430   3.023 -0.0336  0.4295  0.1461
 2393W        W 6137   0.154   0.165   0.091 -0.2052  0.3008 -0.1126
 2394W        W 6138   5.517   7.650   8.525  0.1638 -0.1949 -0.1226
 2395W        W 6139   6.966   7.324  12.179  0.2863  0.3293  0.0097
 2396W        W 6140   7.720   1.787   1.169 -0.2201  0.0891 -0.2526
 2397W        W 6141   0.959   4.679  10.208 -0.0705 -0.5129 -0.0565
 2398W        W 6142   6.935   2.808  12.510  0.2676 -0.0111  0.1203
 2399W        W 6143   4.724   0.725   3.357  0.4397 -0.5023 -0.2078
 2400W        W 6144   8.825   7.239  10.552 -0.0352 -0.1039  0.1124
 2401W        W 6145   2.704   9.770   2.520  0.0460 -0.1184 -0.1995
 2402W        W 6146   9.226   8.964  10.109 -0.0265  0.0663  0.1455
 2403W        W 6147   4.209   6.120  12.305 -0.0241 -0.0069  0.1191
 2404W        W 6148   1.075   5.108   1.633 -0.3891 -0.1345 -0.2640
 2405W        W 6149   7.022   9.773   0.936 -0.1497  0.0365 -0.1070
 2406W        W 6150   2.853   2.594  10.211  0.3685  0.0391 -0.1783
 2407W        W 6151   5.434   3.466   2.394  0.0126  0.0260  0.0374
 2408W        W 6152   1.861   9.039  11.911 -0.0101 -0.4205 -0.0177
 2409W        W 6153   5.283   8.304  10.701  0.0604 -0.0291  0.2089
 2410W        W 6154   4.349   1.093   3.866  0.0439 -0.3007 -0.0453
 2411W        W 6155   5.885   3.123  10.654 -0.0363 -0.0356 -0.0960
 2412W        W 6156   5.597   0.841   3.787  0.1606  0.2165 -0.1591
 2413W        W 6157   4.396   2.665   1.743  0.0876 -0.0740  0.2876
 2414W        W 6158   8.736   5.804   0.800  0.1053 -0.3470 -0.2270
 2415W        W 6159   6.157   3.230   3.815 -0.1545  0.0754  0.2105
 2416W        W 6160   9.930   2.858   9.012  0.2358  0.4316  0.1623
 2417W        W 6161   3.683   6.709   4.069 -0.2946  0.0836 -0.2169
 2418W        W 6162   9.820   5.080  10.671 -0.1674  0.0165  0.0352
 2419W        W 6163   3.761   1.858   0.119 -0.2623 -0.0638 -0.4078
 2420W        W 6164   3.751   4.087   2.767 -0.1729  0.0288  0.0507
 2421W        W 6165   4.364   4.323   3.643 -0.0423 -0.1755 -0.2553
 2422W        W 6166   1.132   4.547  10.768 -0.1025 -0.2924 -0.3003
 2423W        W 6167   4.210   5.166   8.566  0.1116  0.0654 -0.3031
 2424W        W 6168   8.533   7.655  10.821  0.1113 -0.0340  0.0897
 2425W        W 6169   4.774   8.290  11.592 -0.1806 -0.0028  0.1771
 2426W        W 6170   5.857   1.702   9.160  0.0523  0.0869  0.0331
 2427W        W 6171   6.968   3.771   2.247 -0.1195 -0.1214 -0.0536
 2428W        W 6172   2.025   5.713   9.479 -0.0341  0.0230 -0.2404
 2429W        W 6173   6.506   6.731  10.349 -0.1490 -0.2616 -0.4500
 2430W        W 6174   1.865   8.454   9.230  0.1753  0.1445  0.0514
 2431W        W 6175   3.930   3.131  11.745  0.0705 -0.0056  0.1201
 2432W        W 6176   6.565   5.078  12.460  0.1086 -0.1566 -0.3288
 2433W        W 6177   0.730   8.443   8.948 -0.1643 -0.1756 -0.4672
 2434W        W 6178   2.888   8.952  10.481  0.1615  0.0765 -0.1379
 2435W        W 6179   5.394   0.110   9.163  0.0233  0.0678 -0.0523
 2436W        W 6180   0.284   9.462   9.916  0.1346  0.1041  0.0007
 2437W        W 6181   8.749   4.210   1.592  0.1525  0.0844  0.1174
 2438W        W 6182   1.644   9.169   9.391 -0.1496 -0.1835  0.2834
 2439W        W 6183   2.118   9.947   1.670  0.0475  0.0286 -0.3293
 2440W        W 6184   6.904   4.962   0.822 -0.3782 -0.1691  0.2953
 2441W        W 6185   8.808   1.273  10.473 -0.0908 -0.0359  0.1802
 2442W        W 6186   4.892   6.326  12.002  0.1788 -0.1152 -0.0718
 2443W        W 6187   0.795   2.492   1.049 -0.2553 -0.1170 -0.4457
 2444W        W 6188   4.638   5.328  12.273  0.2986 -0.0108  0.3298
 2445W        W 6189   6.443   5.936   0.805  0.2223  0.2757 -0.1230
 2446W        W 6190   4.002   9.504   1.577  0.2088 -0.0707  0.1560
 2447W        W 6191   2.396   6.524   2.509  0.0934 -0.1128 -0.2001
 2448W        W 6192   5.400   7.983   4.262 -0.1145  0.3555  0.1303
 2449W        W 6193   0.344   2.782   2.909  0.2709  0.5835 -0.0834
 2450W        W 6194   4.117   3.760  10.981  0.0944  0.2460  0.2213
 2451W        W 6195   2.069   8.117   1.325 -0.0985 -0.1246  0.2836
 2452W        W 6196   3.487   5.490   2.696  0.3617 -0.0244  0.3191
 2453W        W 6197   9.264   4.238   3.281  0.2210 -0.2382 -0.0522
 2454W        W 6198   8.844   7.122   3.476  0.4397 -0.0105  0.0578
 2455W        W 6199   8.264   5.090  12.304  0.4098  0.1630  0.2960
 2456W        W 6200   1.309   2.734   3.689  0.0832 -0.0085 -0.1221
 2457W        W 6201   7.098   7.369   8.394 -0.0121  0.0137 -0.0022
 2458W        W 6202   0.248   5.467  12.074  0.0117  0.0890  0.1187
 2459W        W 6203   1.629   1.023   2.555 -0.1662  0.1050 -0.0655
 2460W        W 6204   5.056   9.614  10.845  0.3761  0.1299 -0.0209
 2461W        W 6205   4.943   7.052   8.978  0.1476  0.1304 -0.1940
 2462W        W 6206   1.971   6.843  11.154  0.1686 -0.0617 -0.0585
 2463W        W 6207   6.645   7.234  11.791 -0.1136  0.0822  0.1291
 2464W        W 6208   2.467   5.304   3.509  0.0856 -0.4260  0.0620
 2465W        W 6209   2.919   3.753  12.594  0.1483 -0.0156  0.1260
 2466W        W 6210   5.143   4.608   9.733 -0.0763 -0.3711 -0.1987
 2467W        W 6211   8.956   6.600   8.348 -0.2357 -0.2071 -0.2483
 2468W        W 6212   5.334   7.856   3.414  0.0533 -0.0932  0.3477
 2469W        W 6213   2.708   9.619   4.286  0.3407 -0.1859  0.0888
 2470W        W 6214   1.601   7.188  10.395  0.0816 -0.1777 -0.0607
 2471W        W 6215   2.705   8.586  12.125  0.0692  0.0082 -0.0447
 2472W        W 6216   6.362   2.087   0.064  0.2864  0.2229 -0.0545
 2473W        W 6217   4.148   2.326   2.086 -0.0898  0.0991 -0.1194
 2474W        W 6218   6.709   9.075  10.174  0.2017  0.2214 -0.0736
 2475W        W 6219   5.355   7.525   2.607 -0.0653 -0.0986 -0.1508
 2476W        W 6220   3.443   5.644  10.939  0.4940 -0.2487 -0.0986
 2477W        W 6221   3.523   8.173  11.870 -0.1188 -0.1521 -0.0978
 2478W        W 6222   9.572   3.244   0.869 -0.1190 -0.0728  0.2764
 2479W        W 6223   6.086   5.020  12.656  0.1043  0.0798 -0.1607
 2480W        W 6224   7.574   7.971   4.208  0.2251  0.2227  0.0253
 2481W        W 6225   4.182   9.239  10.948  0.0692 -0.1089 -0.0956
 2482W        W 6226   6.899   3.778   8.643  0.1571  0.1048 -0.0883
 2483W        W 6227   3.229   4.558   3.271 -0.1072  0.0129  0.0050
 2484W        W 6228   3.102   6.229  11.687 -0.0562 -0.1118  0.0238
 2485W        W 6229   1.401   8.908  11.025 -0.1552 -0.1236  0.1943
 2486W        W 6230   7.722   3.372  12.454 -0.0177  0.1861  0.1675
 2487W        W 6231   8.175   0.451   2.141  0.1701  0.2301 -0.0245
 2488W        W 6232   4.011   7.659   0.797 -0.0046  0.2372 -0.0893
 2489W        W 6233   3.921   7.865  10.553 -0.0234 -0.1715 -0.1492
 2490W        W 6234   3.300   2.285  12.432 -0.0241  0.2263 -0.2816
 2491W        W 6235   2.977   6.541   3.438 -0.1198 -0.1654 -0.1311
 2492W        W 6236   3.913   4.655   2.941 -0.0194  0.0755  0.0225
 2493W        W 6237   8.019   0.253   1.091  0.0377  0.1935 -0.1535
 2494W        W 6238   8.454   3.636   9.745 -0.1293 -0.1443  0.2812
 2495W        W 6239   5.156   1.623   4.175 -0.2031  0.0147  0.3178
 2496W        W 6240   9.534   4.412   2.875  0.0801 -0.1998  0.0573
 2497W        W 6241   2.982   8.236  11.648 -0.0542  0.0333 -0.0509
 2498W        W 6242   6.783   3.223  10.782  0.0151 -0.1227 -0.0675
 2499W        W 6243   4.926   6.956  10.671 -0.3534 -0.1011 -0.0997
 2500W        W 6244   1.754   8.717   9.636 -0.0695  0.2199  0.0519
 2501W        W 6245   6.937   0.756   0.362 -0.1404  0.0894 -0.0510
 2502W        W 6246   3.890   9.293   4.296 -0.0312 -0.3736  0.3307
 2503W        W 6247   1.682   6.734   1.009 -0.1954  0.2120 -0.2302
 2504W        W 6248   2.255   9.546  11.422  0.2616 -0.1760 -0.1091
 2505W        W 6249   4.613   7.092   0.214 -0.0107  0.2704 -0.0149
 2506W        W 6250   8.734   1.955   2.340 -0.1276  0.1172 -0.0811
 2507W        W 6251   0.298   4.539  12.078  0.0929 -0.1276 -0.2969
 2508W        W 6252   2.795   9.151  12.181  0.1040  0.0048  0.0020
 2509W        W 6253   8.764   3.957  10.751  0.2408 -0.0365  0.2779
 2510W        W 6254   1.951   3.939   3.451  0.2216  0.0640  0.3048
 2511W        W 6255   1.441   5.618   4.786 -0.0375 -0.0403 -0.4660
 2512W        W 6256   4.708   3.724   1.481 -0.2268 -0.0040 -0.1552
 2513W        W 6257   5.386   7.457   8.985 -0.0596  0.1207 -0.2943
 2514W        W 6258   5.891   9.312  11.266 -0.0665  0.1012 -0.0404
 2515W        W 6259   0.712   6.494   9.937 -0.5525  0.0539  0.0303
 2516W        W 6260   7.604   1.299   2.467  0.2849  0.3134  0.0273
 2517W        W 6261   6.925   5.019   2.565 -0.0335 -0.1122 -0.3507
 2518W        W 6262   4.340   4.858   1.936 -0.0829 -0.0755 -0.0482
 2519W        W 6263   3.457   8.138   8.967  0.0630 -0.2449  0.1536
 2520W        W 6264   8.897   6.026  11.943  0.2616 -0.0691  0.1495
 2521W        W 6265   4.398   5.741  11.425 -0.1418  0.1547  0.2323
 2522W        W 6266   1.633   8.926   0.865  0.2596 -0.1125  0.2373
 2523W        W 6267   3.862   5.149   2.771 -0.2186 -0.0387  0.3003
 2524W        W 6268   0.586   0.934   0.888 -0.2168 -0.2116  0.1794
 2525W        W 6269   8.691   7.903   1.958 -0.1040  0.2020 -0.2014
 2526W        W 6270   7.248   7.004   8.897  0.0432 -0.3673 -0.1561
 2527W        W 6271   7.093   6.337  12.432  0.1408 -0.3332 -0.0466
 2528W        W 6272   6.234   7.353   0.210 -0.0878  0.4622 -0.0626
 2529W        W 6273   1.757   3.842   7.991 -0.1454 -0.1435  0.0261
 2530W        W 6274   1.933   0.772   2.221  0.0827  0.1107  0.1227
 2531W        W 6275   0.148   5.029   2.636 -0.1773 -0.1159  0.0674
 2532W        W 6276   1.487   6.167   1.962 -0.2478 -0.1297  0.4762
 2533W        W 6277   8.383   3.000   0.708 -0.0020  0.0944 -0.0110
 2534W        W 6278   9.493   6.856  11.303  0.0989  0.0019 -0.2001
 2535W        W 6279   2.702   3.847   8.731  0.1756  0.0073 -0.0411
 2536W        W 6280   5.068   1.338   0.553 -0.0395  0.1907 -0.0882
 2537W        W 6281   2.327   9.423  10.924 -0.3589  0.1657 -0.4073
 2538W        W 6282   5.586   7.823   0.723 -0.4836  0.0679  0.3690
 2539W        W 6283   4.877   4.740  10.920  0.0554  0.1206 -0.0241
 2540W        W 6284   5.677   2.854   4.657 -0.1367  0.1148  0.0011
 2541W        W 6285   2.542   3.685   4.899  0.1169 -0.2600  0.1471
 2542W        W 6286   4.554   3.386   9.270 -0.0468 -0.0994 -0.0160
 2543W        W 6287   4.634   1.087   0.651  0.1514  0.2011  0.1963
 2544W        W 6288   6.274   0.507  12.177  0.4468 -0.0450 -0.1256
 2545W        W 6289   0.400   6.544   1.347  0.2145 -0.2909  0.1720
 2546W        W 6290   6.955   0.741   0.933  0.1921 -0.1646 -0.2595
 2547W        W 6291   5.549   9.283   4.373 -0.0260  0.1507 -0.1383
 2548W        W 6292   7.581   7.214  11.613 -0.2465 -0.1806  0.2187
 2549W        W 6293   8.113   4.629  11.036  0.0064  0.0435 -0.3417
 2550W        W 6294   3.411   0.773   3.031 -0.0549  0.2335  0.2973
 2551W        W 6295   4.926   1.542   2.043 -0.1096  0.4530 -0.0481
 2552W        W 6296   8.059   5.570   8.790  0.2933 -0.1848 -0.2187
 2553W        W 6297   1.625   5.332   2.981  0.2503 -0.2847 -0.1267
 2554W        W 6298   7.768   9.165  12.201 -0.2352 -0.2685  0.3395
 2555W        W 6299   1.596   3.752  11.064  0.2089  0.0980 -0.1716
 2556W        W 6300   1.180   5.415   2.733  0.1516  0.1882 -0.0836
 2557W        W 6301   8.452   4.929   3.338  0.2178  0.2183 -0.0531
 2558W        W 6302   9.067   0.730  12.492 -0.1154  0.0680  0.1272
 2559W        W 6303   9.834   9.491   1.516 -0.2830 -0.0395 -0.1675
 2560W        W 6304   7.198   0.694  12.321  0.0513 -0.1454  0.0268
 2561W        W 6305   8.480   3.754   0.546 -0.0571 -0.0713  0.0561
 2562W        W 6306   3.602   9.666  11.976 -0.1179  0.3604 -0.1169
 2563W        W 6307   1.484   3.609   4.078  0.0049 -0.0025 -0.2329
 2564W        W 6308   3.763   5.489   2.127 -0.2487  0.3014  0.0684
 2565W        W 6309   9.136   1.055  11.553 -0.0611 -0.0686 -0.4150
 2566W        W 6310   9.635   0.418  11.147 -0.1738 -0.3036 -0.1172
 2567W        W 6311   2.834   5.259  10.384  0.0105 -0.0179  0.2441
 2568W        W 6312   1.906   2.980   2.300  0.0555  0.0220 -0.2724
 2569W        W 6313   6.074   8.365  12.444  0.0521 -0.2265  0.1231
 2570W        W 6314   2.419   5.353  12.204 -0.0445 -0.0617 -0.2205
 2571W        W 6315   6.085   7.938  12.160  0.1344 -0.0385  0.1503
 2572W        W 6316   1.258   5.818   8.938 -0.0603 -0.1515  0.1030
 2573W        W 6317   1.879   5.057  11.607 -0.1309  0.3896 -0.2669
 2574W        W 6318   0.933   4.929   0.499  0.2094 -0.1596  0.1796
 2575W        W 6319   0.927   6.378   9.321  0.2083 -0.0058  0.0101
 2576W        W 6320   1.456   6.461   3.968 -0.0873  0.0323  0.0404
 2577W        W 6321   3.493   6.531  11.694 -0.1031  0.1529  0.0249
 2578W        W 6322   0.842   4.796   0.011 -0.1119  0.1024 -0.0623
 2579W        W 6323   2.971   4.589   4.319 -0.2619  0.1433  0.2915
 2580W        W 6324   3.377   5.307   0.483 -0.2005 -0.0496  0.0398
 2581W        W 6325   6.949   6.653  11.155 -0.3403 -0.2738  0.3911
 2582W        W 6326   9.457   0.613   2.677  0.1310 -0.0962 -0.1710
 2583W        W 6327   3.693   9.044   0.793 -0.1522  0.0888 -0.0992
 2584W        W 6328   8.557   7.819   0.919  0.1382  0.1828  0.1404
 2585W        W 6329   4.583   0.603   0.388 -0.2564 -0.0261 -0.2118
 2586W        W 6330   1.308   5.302   0.378  0.0486  0.2990 -0.1092
 2587W        W 6331   0.788   7.051   8.609 -0.0519  0.2922 -0.1272
 2588W        W 6332   8.190   6.743   1.679  0.3159 -0.1115 -0.5153
 2589W        W 6333   9.407   0.198  12.160 -0.1238 -0.0041  0.1878
 2590W        W 6334   9.491   9.692   9.453  0.1014 -0.0255 -0.0241
 2591W        W 6335   2.121   5.509   8.408  0.0828  0.1819  0.3121
 2592W        W 6336   0.046   6.848   9.338 -0.0996  0.0139 -0.2944
 2593W        W 6337   6.258   6.284  11.688  0.3768 -0.2548 -0.0378
 2594W        W 6338   0.618   7.742   4.465  0.3694  0.2207  0.1449
 2595W        W 6339   6.032   8.797   1.505  0.1619 -0.0838  0.0163
 2596W        W 6340   2.264   7.321   1.192 -0.0964  0.2526  0.0007
 2597W        W 6341   3.021   1.951   9.038 -0.3011  0.3527 -0.0308
 2598W        W 6342   2.154   5.929   0.843 -0.1356 -0.2993  0.3354
 2599W        W 6343   8.427   1.064  10.168 -0.0990  0.0887  0.2785
 2600W        W 6344   4.165   2.844  10.176  0.2478  0.0302 -0.0941
 2601W        W 6345   3.137   2.104   3.011 -0.1763  0.3904  0.2414
 2602W        W 6346   5.993   9.054   9.515  0.1063 -0.0123  0.0562
 2603W        W 6347   1.698   0.897  11.854  0.0753 -0.3082 -0.0446
 2604W        W 6348   8.797   3.804   3.975  0.0089  0.3523  0.2666
 2605W        W 6349   5.733   0.487   9.225  0.1940 -0.0476 -0.2530
 2606W        W 6350   9.130   7.543   0.491 -0.1222 -0.0375 -0.1767
 2607W        W 6351   6.716   1.334   9.565 -0.4595  0.2013 -0.0297
 2608W        W 6352   2.485   6.215   1.207 -0.0762 -0.1432  0.3998
 2609W        W 6353   1.882   8.107  10.440 -0.0969  0.1414  0.0107
 2610W        W 6354   0.316   0.752  10.669  0.0985  0.0439 -0.0704
 2611W        W 6355   8.911   9.483  10.120 -0.0011  0.2447  0.0758
 2612W        W 6356   6.745   0.210   1.084 -0.0537  0.3412 -0.0208
 2613W        W 6357   7.429   0.987  11.064 -0.0016  0.2590  0.1731
 2614W        W 6358   4.460   3.986   9.162  0.3273  0.2379  0.0269
 2615W        W 6359   3.029   4.570  12.094  0.2515 -0.0522 -0.2891
 2616W        W 6360   6.009   2.610  10.487  0.2180 -0.1176  0.0796
 2617W        W 6361   4.981   7.260   2.380 -0.5620 -0.0771  0.0722
 2618W        W 6362   3.993   3.235   1.224 -0.0112  0.2726 -0.3589
 2619W        W 6363   3.536   5.068   1.417 -0.3310 -0.0528 -0.2129
 2620W        W 6364   4.287   4.223  11.731  0.1463 -0.1155  0.3695
 2621W        W 6365   3.608   9.702   4.356 -0.0358  0.2334 -0.1248
 2622W        W 6366   1.797   4.584  11.422 -0.1903  0.2894 -0.0706
 2623W        W 6367   0.608   2.458   9.672  0.0226  0.2701 -0.0194
 2624W        W 6368   0.918   7.897  11.185 -0.1795  0.1417 -0.1530
 2625W        W 6369   9.944   9.104   3.122  0.0693 -0.2802 -0.2588
 2626W        W 6370   9.561   7.057   3.561  0.0028 -0.0142 -0.0938
 2627W        W 6371   6.267   8.409   2.184 -0.2082  0.0472 -0.3505
 2628W        W 6372   8.374   1.463  12.301 -0.1261  0.2960 -0.0035
 2629W        W 6373   7.626   8.196   2.249  0.4237 -0.0898 -0.0333
 2630W        W 6374   2.409   3.778   0.027  0.0638 -0.0617  0.2650
 2631W        W 6375   9.074   4.410   1.222 -0.1428 -0.0600  0.0652
 2632W        W 6376   2.430   4.276   8.684 -0.0440 -0.1900  0.1393
 2633W        W 6377   1.444   2.857  11.671  0.0419  0.1700 -0.0012
 2634W        W 6378   4.039   0.733   0.325  0.1104  0.0981  0.2732
 2635W        W 6379   4.123   5.528   1.784 -0.0919  0.0456  0.0680
 2636W        W 6380   0.441   5.087   8.369  0.4560  0.2753 -0.1277
 2637W        W 6381   8.465   8.214   0.085 -0.1525  0.0838  0.1635
 2638W        W 6382   5.438   8.975  10.508  0.5301 -0.1576 -0.1451
 2639W        W 6383   0.082   2.179  11.141 -0.1284 -0.0203  0.4432
 2640W        W 6384   0.911   7.859   2.288  0.0384 -0.1769  0.1172
 2641W        W 6385   5.974   2.032   0.432 -0.1331 -0.2374 -0.0943
 2642W        W 6386   1.316   2.731   9.296  0.2633 -0.0293  0.4315
 2643W        W 6387   5.171   5.251   4.842 -0.1900 -0.1967  0.3684
 2644W        W 6388   1.224   3.288   0.777  0.1197 -0.3081 -0.1150
 2645W        W 6389   4.087   3.184   4.484  0.0049  0.0883  0.0425
 2646W        W 6390   3.610   2.153   9.926 -0.1479  0.0233  0.0688
 2647W        W 6391   6.410   9.243  11.352  0.0568 -0.1054  0.2061
 2648W        W 6392   3.417   0.803  10.360  0.1352 -0.0352 -0.2516
 2649W        W 6393   1.477   1.529   9.790 -0.3199 -0.0075 -0.0371
 2650W        W 6394   3.518   7.409   8.954 -0.1236 -0.1202 -0.1840
 2651W        W 6395   8.701   4.802   4.134 -0.1562 -0.1164  0.0586
 2652W        W 6396   1.987   1.442  10.005  0.2458 -0.2431  0.0194
 2653W        W 6397   8.687   4.184   9.634  0.1763  0.0686  0.0062
 2654W        W 6398   9.285   7.195   0.859 -0.0792 -0.1643 -0.0038
 2655W        W 6399   6.357   5.353   3.765 -0.0611  0.1793 -0.1460
 2656W        W 6400   9.035   0.368   9.895  0.3500  0.0986 -0.2681
 2657W        W 6401   5.205   9.302   1.448  0.4898 -0.1173 -0.2304
 2658W        W 6402   3.530   4.106   0.936  0.1250 -0.0904 -0.0925
 2659W        W 6403   3.415   3.581   3.258 -0.0892  0.3178  0.1103
 2660W        W 6404   3.345   7.732   9.325 -0.0272  0.1077  0.2149
 2661W        W 6405   2.084   5.041  12.103  0.2255 -0.1608  0.0002
 2662W        W 6406   7.165   2.105   1.461  0.1970  0.0727  0.0219
 2663W        W 6407   6.962   2.822   1.963  0.3887 -0.2268  0.1317
 2664W        W 6408   4.070   3.112   7.965 -0.2397  0.1444  0.0244
 2665W        W 6409   8.912   8.619   4.193 -0.2592 -0.0863  0.2567
 2666W        W 6410   9.281   8.192   1.232 -0.2750 -0.1452 -0.4065
 2667W        W 6411   7.030   3.406   4.301  0.1240 -0.0303  0.1965
 2668W        W 6412   6.416   9.301   8.322 -0.2332  0.1663 -0.0525
 2669W        W 6413   5.530   4.049  10.646  0.0033 -0.1799  0.2436
 2670W        W 6414   7.149   3.691  12.414 -0.1085  0.0188 -0.1165
 2671W        W 6415   5.312   8.621  10.071 -0.1799 -0.3924  0.0637
 2672W        W 6416   7.621   1.965  11.314  0.1063 -0.0561  0.0772
 2673W        W 6417   4.449   2.427   0.464  0.0663 -0.1109  0.0208
 2674W        W 6418   1.608   0.970   0.005 -0.1571  0.0484  0.3678
 2675W        W 6419   2.807   4.880   9.041 -0.4546  0.0938 -0.0719
 2676W        W 6420   5.432   2.833  11.220 -0.4193 -0.0663 -0.0178
 2677W        W 6421   1.092   0.212  11.848  0.1564 -0.1221  0.1673
 2678W        W 6422   6.967   6.708  10.671  0.0811  0.1189 -0.2360
 2679W        W 6423   0.511   3.838  11.113 -0.1399 -0.4520 -0.3248
 2680W        W 6424   6.982   6.044  11.133  0.0904 -0.1029 -0.1514
 2681W        W 6425   0.837   2.902   3.845 -0.2461 -0.0092  0.0453
 2682W        W 6426   8.039   3.477  10.803  0.0300 -0.0680  0.3645
 2683W        W 6427   9.589   9.609   1.000 -0.0193 -0.1691  0.0422
 2684W        W 6428   7.257   0.015  11.368  0.0554 -0.0915 -0.0429
 2685W        W 6429   2.343   2.515  10.084  0.0581  0.1714  0.1063
 2686W        W 6430   0.481   4.647   2.373  0.0870 -0.1750  0.0367
 2687W        W 6431   8.121   7.905  10.958 -0.1348  0.2897  0.0242
 2688W        W 6432   6.555   5.879  11.289 -0.1947  0.0801 -0.1182
 2689W        W 6433   2.633   6.500   9.526 -0.3242 -0.0438  0.0639
 2690W        W 6434   8.266   5.371   2.964  0.0903  0.2607 -0.1566
 2691W        W 6435   6.553   3.865   1.397  0.5179 -0.1295 -0.0375
 2692W        W 6436   7.183   2.832  10.911 -0.0193 -0.0496 -0.1398
 2693W        W 6437   7.945   8.776   3.685 -0.1888 -0.3627  0.0083
 2694W        W 6438   5.688   7.196   8.386  0.1038  0.1434 -0.3407
 2695W        W 6439   2.260   8.567   4.436  0.2421  0.0517 -0.4216
 2696W        W 6440   9.744   9.218  11.910  0.2088 -0.1554 -0.1148
 2697W        W 6441   8.033   7.827  12.697 -0.0776 -0.1100 -0.0410
 2698W        W 6442   8.851   5.457   8.149  0.1740 -0.2360 -0.2205
 2699W        W 6443   7.524   4.472   0.537 -0.0373 -0.0842 -0.1005
 2700W        W 6444   4.622   9.796  10.649 -0.2759 -0.0993 -0.0671
 2701W        W 6445   3.180   1.024  11.781 -0.1243 -0.1631 -0.4703
 2702W        W 6446   7.396   4.076   1.227 -0.4563 -0.0841  0.0730
 2703W        W 6447   1.293   9.361  12.484  0.0416 -0.2399 -0.0472
 2704W        W 6448   4.913   9.588  11.462 -0.0651  0.1151  0.1231
 2705W        W 6449   5.524   6.982   8.833 -0.0283  0.0116 -0.1868
 2706W        W 6450   2.485   5.237   2.976 -0.1663 -0.0321  0.1481
 2707W        W 6451   4.116   5.931   3.552  0.2991 -0.3530  0.0101
 2708W        W 6452   4.014   9.602  12.440 -0.1068 -0.4396 -0.0687
 2709W        W 6453   3.177   5.848  12.040  0.2127 -0.0493  0.1794
 2710W        W 6454   9.897   8.055   0.253 -0.0092  0.0685  0.0038
 2711W        W 6455   6.655   3.408   9.279 -0.1061  0.1396 -0.0195
 2712W        W 6456   7.476   7.193   9.749 -0.2361 -0.0204 -0.1684
 2713W        W 6457   9.808   3.744   4.471 -0.1031  0.3698  0.1208
 2714W        W 6458   0.094   8.448   1.924 -0.4674 -0.0557  0.2750
 2715W        W 6459   1.330   4.161  12.677 -0.0305  0.1622 -0.2775
 2716W        W 6460   8.197   8.428  10.286 -0.0656 -0.0126 -0.0577
 2717W        W 6461   1.515   7.812   9.426 -0.1579 -0.3225 -0.2164
 2718W        W 6462   0.817   3.054   1.201  0.0336 -0.1082  0.1663
 2719W        W 6463   9.026   3.270   8.893 -0.0221  0.0347  0.1784
 2720W        W 6464   0.459   7.253   3.607  0.1197  0.1024 -0.3126
 2721W        W 6465   1.289   6.801   2.594 -0.1844 -0.0759 -0.0256
 2722W        W 6466   5.834   4.372   9.997  0.0514  0.2455  0.0367
 2723W        W 6467   9.637   1.995  12.658 -0.1798 -0.0113  0.1175
 2724W        W 6468   5.525   8.995   3.675  0.3259  0.0100 -0.2394
 2725W        W 6469   5.111   5.280   8.877 -0.2684  0.3018  0.1079
 2726W        W 6470   8.682   7.656   9.319 -0.0268 -0.0338  0.0906
 2727W        W 6471   2.705   3.872  10.597  0.1672  0.3641  0.1546
 2728W        W 6472   8.683   3.439  10.138 -0.1452  0.1492 -0.0021
 2729W        W 6473   4.036   3.518  12.184  0.1366 -0.1110  0.1222
 2730W        W 6474   4.616   6.273   1.618  0.0018 -0.0816 -0.3888
 2731W        W 6475   7.717   9.405  12.700 -0.0006  0.3191  0.2641
 2732W        W 6476   3.722   6.252   2.670  0.3181 -0.1528 -0.0476
 2733W        W 6477   8.845   2.309  11.776 -0.2734  0.1635  0.1026
 2734W        W 6478   4.256   1.580   4.366  0.0727 -0.3501 -0.2113
 2735W        W 6479   0.667   8.145  12.525 -0.1981 -0.1763  0.2176
 2736W        W 6480   3.704   2.150   4.169  0.1660 -0.1696  0.2078
 2737W        W 6481   3.364   2.787   8.982  0.0333  0.1312  0.2908
 2738W        W 6482   1.476   2.812  12.734  0.0312 -0.3330  0.0498
 2739W        W 6483   1.655   6.216   3.563  0.0643 -0.2419  0.0401
 2740W        W 6484   0.312   7.989  11.176  0.0617  0.0425 -0.1777
 2741W        W 6485   7.464   5.931  10.450 -0.4827 -0.2013  0.4124
 2742W        W 6486   6.388   8.467   3.448 -0.0258  0.0835  0.2199
 2743W        W 6487   8.970   7.229  12.583  0.0466  0.1748  0.3811
 2744W        W 6488   8.753   2.931   2.424 -0.3113 -0.3148 -0.0108
 2745W        W 6489   3.265   6.567   4.374  0.0132 -0.1116 -0.1926
 2746W        W 6490   8.962   3.338   2.986  0.2494  0.0726  0.0654
 2747W        W 6491   6.165   8.573   4.114  0.0080 -0.1235  0.3801
 2748W        W 6492   9.670   1.598  10.758  0.3077  0.0822 -0.1476
 2749W        W 6493   4.818   4.242  10.736 -0.1581  0.0425  0.2237
 2750W        W 6494   2.478   0.138   9.294  0.2455  0.1147  0.2292
 2751W        W 6495   3.762   8.917   3.174  0.2968 -0.1185  0.0206
 2752W        W 6496   4.808   6.591   4.441  0.0275  0.2473 -0.0357
 2753W        W 6497   5.539   9.781   4.456 -0.3545 -0.0738 -0.1092
 2754W        W 6498   8.590   4.167   1.136  0.4104  0.1144  0.0453
 2755W        W 6499   5.081   7.759   3.889  0.0713 -0.2616 -0.1347
 2756W        W 6500   5.902   7.729   3.477  0.2308  0.0005 -0.4051
 2757W        W 6501   6.915   8.839   1.741  0.1419 -0.1950  0.1754
 2758W        W 6502   9.418   8.956   0.354 -0.0605  0.2019 -0.3440
 2759W        W 6503   4.569   6.962  11.019  0.1138 -0.0818 -0.0245
 2760W        W 6504   3.302   5.368  10.496 -0.1953 -0.0901 -0.1642
 2761W        W 6505   3.213   9.215  12.575  0.2053 -0.1807  0.0626
 2762W        W 6506   4.622   3.071   2.649 -0.0276  0.1121  0.1155
 2763W        W 6507   5.968   5.472   0.059  0.2191 -0.2528  0.2377
 2764W        W 6508   8.996   0.389   0.793  0.1642  0.0121  0.2440
 2765W        W 6509   6.408   6.802   1.356 -0.0054  0.0827  0.2103
 2766W        W 6510   7.451   1.754   9.940 -0.0259  0.0641 -0.1124
 2767W        W 6511   1.850   0.947  10.196 -0.0837  0.2923  0.2084
 2768W        W 6512   4.575   8.932   1.270 -0.3415  0.0890 -0.2061
 2769W        W 6513   0.093   0.641   0.306 -0.0307 -0.1433 -0.1999
 2770W        W 6514   1.300   6.791   9.274  0.1343 -0.0229 -0.3490
 2771W        W 6515   9.799   5.421   2.533 -0.0165 -0.1145 -0.0504
 2772W        W 6516   5.698   9.495   3.928  0.1144  0.0898 -0.1083
 2773W        W 6517   0.077   3.673   9.756  0.2079 -0.0788 -0.2739
 2774W        W 6518   9.074   7.120   1.445  0.0993 -0.0039 -0.3371
 2775W        W 6519   9.263   7.913   4.675 -0.2530 -0.0302  0.0001
 2776W        W 6520   8.648   6.559   0.109  0.2011  0.0085  0.2381
 2777W        W 6521   3.262   0.819   4.766 -0.2582  0.0210 -0.1886
 2778W        W 6522   2.617   7.584   0.182  0.2122 -0.0407 -0.0747
 2779W        W 6523   4.514   2.659   3.364 -0.1567 -0.2622  0.0333
 2780W        W 6524   6.160   1.206   0.571  0.1317  0.2023  0.0371
 2781W        W 6525   2.892   4.158  11.900 -0.4311 -0.2359 -0.1170
 2782W        W 6526   3.020   5.232   2.869 -0.1555  0.1840  0.0579
 2783W        W 6527   5.205   9.743   9.461  0.3393  0.2072  0.1004
 2784W        W 6528   2.213   4.842   3.198 -0.1106  0.1510 -0.2735
 2785W        W 6529   2.973   2.680   3.959  0.0415  0.0492  0.0474
 2786W        W 6530   8.761   6.928   9.239 -0.2622  0.2873 -0.1711
 2787W        W 6531   4.501   1.804   9.177  0.4166  0.0494  0.2411
 2788W        W 6532   1.454   7.477   0.715 -0.0010 -0.0698  0.2769
 2789W        W 6533   9.327   1.136   1.290  0.2935 -0.1011 -0.0383
 2790W        W 6534   5.591   5.855  12.310 -0.0442 -0.0740  0.1925
 2791W        W 6535   3.763   9.017   4.911 -0.0617 -0.2919  0.0785
 2792W        W 6536   2.189   8.980   2.199 -0.2436  0.1873  0.1030
 2793W        W 6537   1.159   7.254  10.662  0.2202 -0.0643  0.0618
 2794W        W 6538   3.203   6.218   2.521 -0.2963 -0.1351  0.1358
 2795W        W 6539   4.535   1.764  12.037 -0.0386  0.2537 -0.2114
 2796W        W 6540   7.532   2.133  10.308 -0.1811  0.5020 -0.1785
 2797W        W 6541   8.329   4.467   9.207 -0.0744  0.0658 -0.1591
 2798W        W 6542   3.035   3.187   8.202  0.0846 -0.0212 -0.3629
 2799W        W 6543   3.326   5.507   3.219  0.2452 -0.2996 -0.0710
 2800W        W 6544   2.591   6.654   1.811 -0.1577 -0.1076 -0.4188
 2801W        W 6545   1.487   3.759  12.310  0.2323 -0.3675  0.1732
 2802W        W 6546   2.946   7.447   8.489 -0.2170  0.0249  0.2766
 2803W        W 6547   3.634   2.310   2.637 -0.1867  0.0573 -0.2759
 2804W        W 6548   9.366   5.784  10.765 -0.0115 -0.0978  0.1272
 2805W        W 6549   5.608   9.010   8.723 -0.0515  0.0720 -0.0723
 2806W        W 6550   7.172   4.458   0.959 -0.1756  0.0751  0.2084
 2807W        W 6551   0.881   6.809   9.588  0.1903 -0.2290  0.0885
 2808W        W 6552   7.153   4.309   1.648  0.1116  0.1121  0.0246
 2809W        W 6553   0.762   1.371   1.741  0.0297  0.0647  0.1036
 2810W        W 6554   2.826   4.047   2.556 -0.0413 -0.0025 -0.0812
 2811W        W 6555   4.208   1.171   2.754 -0.0763  0.0606 -0.0918
 2812W        W 6556   5.378   4.169   3.523 -0.0703 -0.1825  0.0624
 2813W        W 6557   9.362   9.732  12.432  0.0875 -0.0362 -0.0647
 2814W        W 6558   5.166   6.033  10.676 -0.0579  0.3032  0.0458
 2815W        W 6559   3.887   0.210   8.997 -0.3447  0.1386  0.3562
 2816W        W 6560   7.897   7.860   1.657  0.0386  0.0577 -0.1658
 2817W        W 6561   9.620   5.393   3.825 -0.0202 -0.0900  0.2151
 2818W        W 6562   6.168   9.543   1.457  0.5220  0.0669 -0.1296
 2819W        W 6563   6.418   5.929   2.390  0.0907 -0.1011  0.2573
 2820W        W 6564   9.636   2.208   2.450 -0.0077  0.1185  0.0676
 2821W        W 6565   4.481   0.865   4.952  0.0879 -0.0729  0.0083
 2822W        W 6566   7.784   2.213   9.817 -0.0062 -0.1986 -0.0645
 2823W        W 6567   2.339   4.345   3.056  0.0228  0.1472 -0.1529
 2824W        W 6568   6.231   4.307  11.333  0.0196  0.2766 -0.0908
 2825W        W 6569   6.545   7.506  12.505  0.3041 -0.1683 -0.2529
 2826W        W 6570   6.197   2.347  10.855  0.1605 -0.1924  0.3707
 2827W        W 6571   8.917   0.350   1.452  0.0365 -0.0561  0.1598
 2828W        W 6572   5.554   8.804   1.196  0.0392 -0.0767  0.0615
 2829W        W 6573   9.916   7.518   1.048 -0.0580  0.0145  0.0970
 2830W        W 6574   7.112   8.402  10.445 -0.0297  0.0601  0.0355
 2831W        W 6575   6.854   9.163  11.065  0.1327 -0.0981  0.1917
 2832W        W 6576   1.399   9.132  12.050  0.0431  0.1267 -0.1227
 2833W        W 6577   6.769   2.266   1.936  0.3205  0.0019 -0.1593
 2834W        W 6578   2.039   7.024   3.292  0.2425  0.0117  0.2458
 2835W        W 6579   4.601   8.981   8.993  0.1191  0.0291 -0.1018
 2836W        W 6580   3.215   9.074   3.400 -0.2507  0.0834  0.0895
 2837W        W 6581   5.454   6.925   0.587  0.2436 -0.0669  0.3168
 2838W        W 6582   1.462   6.974   0.601 -0.2872  0.2209  0.0743
 2839W        W 6583   0.508   8.203   9.376 -0.2824  0.0081 -0.0205
 2840W        W 6584   0.550   2.278   1.932  0.2442  0.1242 -0.2237
 2841W        W 6585   1.807   4.637  10.579  0.2029 -0.1504 -0.2269
 2842W        W 6586   4.582   4.936   1.032 -0.1201  0.2230 -0.1529
 2843W        W 6587   5.923   5.182   1.112 -0.2541 -0.1257 -0.2135
 2844W        W 6588   9.889   9.775   3.035  0.0482 -0.0204  0.1211
 2845W        W 6589   7.992   2.042   3.175 -0.2316 -0.0895  0.1629
 2846W        W 6590   6.446   9.118   0.242  0.0107  0.1694  0.2864
 2847W        W 6591   7.581   4.615   1.258  0.0789 -0.0258  0.1807
 2848W        W 6592   0.486   0.432  11.097  0.0756  0.1077 -0.1369
 2849W        W 6593   1.055   0.180   2.673  0.1499  0.0830 -0.1774
 2850W        W 6594   4.669   5.928   9.749  0.1939 -0.0048 -0.1920
 2851W        W 6595   2.390   8.716  11.238  0.2546 -0.1776  0.0261
 2852W        W 6596   9.424   4.815   9.974  0.3153 -0.1765  0.1519
 2853W        W 6597   0.945   1.767   0.636  0.2963 -0.0849  0.1716
 2854W        W 6598   8.536   5.775   4.691 -0.0147 -0.1228 -0.1315
 2855W        W 6599   4.875   9.523  10.346  0.0689 -0.4618  0.0314
 2856W        W 6600   0.291   9.137  11.853  0.1341  0.0558  0.0774
 2857W        W 6601   6.851   1.236   2.078  0.1427  0.0367 -0.0190
 2858W        W 6602   8.967   0.487  12.028 -0.0734 -0.0537 -0.2010
 2859W        W 6603   1.942   8.084   9.551 -0.1894 -0.1248 -0.1217
 2860W        W 6604   8.862   3.076   0.938 -0.2906 -0.1018 -0.0633
 2861W        W 6605   0.232   6.817   3.395  0.2059  0.0007 -0.1425
 2862W        W 6606   0.075   3.570  11.108 -0.1102 -0.0381 -0.2864
 2863W        W 6607   4.339   5.715   2.183  0.0450 -0.0202 -0.2245
 2864W        W 6608   7.745   5.228   3.865  0.0311  0.1775  0.0942
 2865W        W 6609   6.302   0.477   3.187 -0.3412  0.0770 -0.1602
 2866W        W 6610   1.197   7.550   4.613  0.0764 -0.2815  0.0920
 2867W        W 6611   0.203   2.593  11.528 -0.2527 -0.4233 -0.1401
 2868W        W 6612   1.478   4.017   3.124  0.1776  0.0408 -0.1314
 2869W        W 6613   1.133   5.335   9.131 -0.0976  0.1023  0.0326
 2870W        W 6614   4.457   2.129   3.598  0.0210  0.0362 -0.1176
 2871W        W 6615   0.263   1.494  12.318 -0.0905  0.1660 -0.2218
 2872W        W 6616   2.073   3.287   9.399 -0.0531  0.2795  0.0552
 2873W        W 6617   9.843   4.736  12.381 -0.0371  0.0304 -0.0078
 2874W        W 6618   4.525   2.454  10.328  0.0512  0.0186  0.2437
 2875W        W 6619   0.931   9.072  12.306  0.0047  0.2781  0.0321
 2876W        W 6620   1.863   6.547  12.397 -0.1832  0.0659  0.0343
 2877W        W 6621   5.511   8.918   2.232 -0.0389 -0.1326 -0.2415
 2878W        W 6622   2.358   9.848   2.153 -0.2998  0.0261 -0.0393
 2879W        W 6623   8.013   2.181  11.025 -0.1638  0.0249  0.2881
 2880W        W 6624   7.533   6.606   8.710  0.1764 -0.2051 -0.2296
 2881W        W 6625   6.231   8.365   8.398 -0.0852  0.0983 -0.0587
 2882W        W 6626   4.001   1.487   2.392  0.3407  0.2363 -0.0217
 2883W        W 6627   8.438   6.797   3.334 -0.2104 -0.3291  0.1445
 2884W        W 6628   2.875   1.951  10.800  0.0009  0.1000 -0.0175
 2885W        W 6629   4.615   4.745   1.516  0.0565  0.1157 -0.0578
 2886W        W 6630   3.844   5.044  12.218 -0.0195  0.1137  0.0674
 2887W        W 6631   7.067   4.464   3.964 -0.1022  0.1227 -0.3321
 2888W        W 6632   3.047   5.734  10.132 -0.0540  0.1827  0.1998
 2889W        W 6633   1.196   0.463   9.003  0.0086 -0.0854  0.0418
 2890W        W 6634   2.230   4.980   4.667 -0.3651 -0.1776  0.2730
 2891W        W 6635   5.128   5.736   8.928  0.2784 -0.2174  0.2649
 2892W        W 6636   1.209   1.458   1.610 -0.0801  0.1832 -0.3612
 2893W        W 6637   1.225   5.509   3.265 -0.2246  0.0039  0.0676
 2894W        W 6638   7.412   7.909  11.542  0.0077 -0.1791  0.2853
 2895W        W 6639   4.715   3.590  12.088  0.3931  0.2277  0.0541
 2896W        W 6640   2.770   9.469  10.540 -0.1613 -0.0697  0.1373
 2897W        W 6641   0.263   4.595   3.222  0.0028  0.0686 -0.2340
 2898W        W 6642   6.103   4.871  10.342  0.0646  0.0428 -0.1576
 2899W        W 6643   7.237   0.334   0.744 -0.0701  0.2740  0.2919
 2900W        W 6644   0.266   3.538   2.479 -0.2366  0.0215  0.1257
 2901W        W 6645   3.873   1.134   9.623  0.0695 -0.1905  0.0629
 2902W        W 6646   2.687   3.551  10.121  0.1205  0.0461 -0.0148
 2903W        W 6647   8.112   8.848   1.538  0.3853  0.1901  0.0885
 2904W        W 6648   6.920   4.075   2.696 -0.2060  0.0675 -0.2632
 2905W        W 6649   9.864   7.277   4.893  0.0838  0.1975  0.1251
 2906W        W 6650   3.503   6.558   8.757 -0.1957 -0.0972  0.2896
 2907W        W 6651   3.673   8.843   4.439  0.1217  0.0510 -0.3164
 2908W        W 6652   3.098   5.790   1.820 -0.3321  0.0817 -0.3238
 2909W        W 6653   5.577   0.452  12.595  0.0137  0.0672 -0.0351
 2910W        W 6654   1.298   3.418   0.003  0.1688  0.1155  0.1982
 2911W        W 6655   0.569   5.760   0.182 -0.0819  0.2955 -0.0561
 2912W        W 6656   3.448   3.648  12.450  0.0081 -0.0012 -0.5218
 2913W        W 6657   2.712   1.274  10.986  0.1995  0.0903  0.2113
 2914W        W 6658   8.460   1.986   9.929 -0.0118 -0.1438  0.2147
 2915W        W 6659   4.214   3.840   8.374 -0.0314 -0.2329 -0.0394
 2916W        W 6660   2.733   7.252   1.890  0.0295 -0.0412 -0.3187
 2917W        W 6661   5.827   9.303   9.107 -0.0176  0.0627 -0.1141
 2918W        W 6662   6.701   5.401  11.567 -0.3608  0.0208  0.0583
 2919W        W 6663   3.703   0.813   1.169  0.1181 -0.0098 -0.0183
 2920W        W 6664   2.200   1.333  11.033  0.0574 -0.1496 -0.0574
 2921W        W 6665   2.217   1.375   9.564 -0.2591 -0.0902  0.1489
 2922W        W 6666   4.616   2.376  10.944 -0.1325  0.0365 -0.1192
 2923W        W 6667   6.988   1.217  10.854  0.3707 -0.2728 -0.1157
 2924W        W 6668   0.279   0.772  12.647  0.1584 -0.4381  0.3841
 2925W        W 6669   2.949   5.012   0.246 -0.2318  0.1394  0.2171
 2926W        W 6670   3.495   1.220   3.514  0.1810  0.0112  0.1598
 2927W        W 6671   8.125   0.618  12.075 -0.0385 -0.2676  0.3837
 2928W        W 6672   1.597   8.576  12.772 -0.2181  0.2539  0.0402
 2929W        W 6673   6.154   5.050   9.092 -0.2713 -0.1681 -0.1497
 2930W        W 6674   0.662   7.193   2.079  0.1479  0.1865 -0.1934
 2931W        W 6675   5.171   7.067   1.880 -0.0841 -0.1486 -0.0903
 2932W        W 6676   2.463   0.346   3.863  0.0747  0.1954  0.4254
 2933W        W 6677   3.422   6.584  11.120  0.1031 -0.0131 -0.0951
 2934W        W 6678   8.721   2.944  11.890 -0.0016 -0.1078  0.3206
 2935W        W 6679   8.944   5.885   4.405 -0.0073  0.0056 -0.0819
 2936W        W 6680   7.149   9.344   8.538 -0.0812  0.4051  0.2908
 2937W        W 6681   5.040   2.853   8.728  0.2615 -0.0046 -0.1607
 2938W        W 6682   1.978   0.374   0.705  0.0848  0.1943  0.1415
 2939W        W 6683   8.198   6.492   3.777 -0.1264  0.1670 -0.0555
 2940W        W 6684   4.407   4.431   1.147 -0.4686 -0.1687 -0.0407
 2941W        W 6685   8.876   1.239  12.427 -0.3464  0.0380 -0.0739
 2942W        W 6686   8.476   0.468   1.034 -0.0665 -0.0480  0.1007
 2943W        W 6687   6.631   6.321  10.849 -0.2355  0.1405 -0.0928
 2944W        W 6688   6.278   5.043   3.324  0.0335  0.0942 -0.0332
 2945W        W 6689   1.158   7.262  10.161 -0.1184  0.0648  0.3809
 2946W        W 6690   2.662   1.302   2.438  0.1618 -0.0135 -0.2342
 2947W        W 6691   6.738   0.750   2.003 -0.2760  0.3024 -0.1790
 2948W        W 6692   3.867   5.794  10.540  0.3633  0.0955 -0.0408
 2949W        W 6693   7.905   6.628   3.347 -0.5355 -0.0110  0.2456
 2950W        W 6694   4.172   3.661  11.654 -0.4444  0.0463 -0.2226
 2951W        W 6695   1.453   1.017  10.647  0.3222  0.1283 -0.2365
 2952W        W 6696   8.528   2.146  10.812 -0.2586 -0.1612  0.1381
 2953W        W 6697   6.338   6.860  12.756 -0.0791  0.0259 -0.3435
 2954W        W 6698   1.195   7.791  12.529  0.0642  0.1543  0.1061
 2955W        W 6699   5.177   7.299   4.143  0.0041 -0.1807 -0.0682
 2956W        W 6700   5.490   4.446  12.036 -0.0671  0.2730 -0.1026
 2957W        W 6701   3.214   4.921  10.328  0.0640 -0.1519 -0.0474
 2958W        W 6702   3.561   0.013   9.323  0.2076 -0.0062 -0.1190
 2959W        W 6703   1.711   4.844   9.072  0.2804  0.2631  0.1262
 2960W        W 6704   5.579   5.157  12.543  0.3223 -0.0210 -0.0588
 2961W        W 6705   7.569   2.378   1.661  0.0233 -0.0104 -0.0363
 2962W        W 6706   9.935   4.908   2.142 -0.0844  0.0031  0.1166
 2963W        W 6707   4.424   1.886   1.084  0.1263  0.3429  0.0675
 2964W        W 6708   9.119   1.654  12.571 -0.1020  0.4025  0.1271
 2965W        W 6709   9.948   4.549   2.509 -0.0544 -0.0480  0.1192
 2966W        W 6710   5.126   2.134  11.660  0.1404  0.1036 -0.1549
 2967W        W 6711   6.989   8.995   2.716 -0.0463  0.0180 -0.1036
 2968W        W 6712   5.713   2.648  12.248  0.0206 -0.0343  0.1842
 2969W        W 6713   4.753   4.780  12.262  0.1271  0.2526 -0.3804
 2970W        W 6714   3.363   2.235   0.190  0.0661 -0.1086  0.0423
 2971W        W 6715   2.420   7.793   1.045  0.0434  0.1001 -0.0733
 2972W        W 6716   7.251   0.278   2.803 -0.0867 -0.1477 -0.1786
 2973W        W 6717   9.656   0.318   0.235  0.2073  0.0431 -0.0397
 2974W        W 6718   4.208   5.037   0.291 -0.1831  0.1404  0.2027
 2975W        W 6719   6.431   7.394   3.326  0.0225  0.2547 -0.1738
 2976W        W 6720   2.070   1.431  12.704 -0.2616  0.3084 -0.0650
 2977W        W 6721   5.337   5.598   0.805 -0.1558 -0.1253  0.1572
 2978W        W 6722   5.319   0.284   2.194  0.1625  0.4292 -0.1025
 2979W        W 6723   9.293   6.249   1.961  0.1067  0.4253  0.2250
 2980W        W 6724   4.773   0.068   9.504  0.1027 -0.1600 -0.0125
 2981W        W 6725   5.261   8.818   0.772 -0.0384  0.0369 -0.0302
 2982W        W 6726   3.565   9.417   2.475 -0.2005 -0.1833  0.2696
 2983W        W 6727   6.482   8.896   3.883  0.1694 -0.1687  0.0760
 2984W        W 6728   3.963   9.066  11.417 -0.0367  0.0949  0.1851
 2985W        W 6729   4.262   6.672   0.361  0.1904  0.1106 -0.0339
 2986W        W 6730   5.996   6.006   3.391  0.1410  0.2142  0.2231
 2987W        W 6731   4.824   6.231   2.081  0.0042  0.0141  0.2584
 2988W        W 6732   3.880   1.574   3.119 -0.1976 -0.1718 -0.2371
 2989W        W 6733   5.942   6.173   9.108  0.0892  0.1226  0.2044
 2990W        W 6734   7.910   5.373  12.492 -0.2364 -0.0453 -0.2796
 2991W        W 6735   0.956   4.282   4.234  0.1589 -0.2583  0.0701
 2992W        W 6736   7.125   2.361  12.632 -0.1459  0.1914 -0.1454
 2993W        W 6737   4.161   1.865   1.864 -0.3301  0.0983 -0.3037
 2994W        W 6738   2.686   4.554  11.622 -0.1806 -0.0035  0.0017
 2995W        W 6739   6.434   6.039   3.982 -0.0929  0.2977 -0.4570
 2996W        W 6740   6.528   4.922   0.519 -0.0299 -0.3315  0.0910
 2997W        W 6741   5.224   0.741  11.317  0.2103 -0.0953  0.0625
 2998W        W 6742   7.061   1.834   2.874  0.0408 -0.0185  0.1732
 2999W        W 6743   0.577   0.394  12.623 -0.2129  0.1087  0.0658
 3000W        W 6744   1.453   2.101   2.398 -0.3851  0.3244 -0.4482
 3001W        W 6745   7.369   3.269   1.342  0.2511  0.2664  0.0373
 3002W        W 6746   6.322   4.023   3.370 -0.0361  0.1106  0.3182
 3003W        W 6747   9.075   4.203   2.491 -0.0652 -0.1373 -0.2658
 3004W        W 6748   6.788   6.584   9.973 -0.2342 -0.1509  0.2616
 3005W        W 6749   6.799   9.869  11.685 -0.0838  0.0315  0.0497
 3006W        W 6750   1.491   2.995   8.205  0.4264 -0.0750  0.3277
 3007W        W 6751   2.455   1.756  10.917 -0.2374 -0.0717 -0.1199
 3008W        W 6752   5.659   7.384   9.883 -0.0243  0.1078 -0.2436
 3009W        W 6753   2.990   4.084   1.167 -0.0447 -0.4993 -0.5885
 3010W        W 6754   7.236   0.191  12.185  0.0884  0.4511  0.1225
 3011W        W 6755   9.676   8.631   0.656  0.0659 -0.1231 -0.0491
 3012W        W 6756   7.965   9.954   2.370  0.1360 -0.0263 -0.0417
 3013W        W 6757   0.551   6.235   9.598  0.2548 -0.2872  0.1519
 3014W        W 6758   5.831   2.337   8.834 -0.0276  0.2024 -0.2916
 3015W        W 6759   1.108   8.712   4.260  0.0484  0.2380 -0.0916
 3016W        W 6760   4.156   8.718  10.672  0.1163  0.3662 -0.1930
 3017W        W 6761   8.617   7.287  11.167  0.2071  0.0050 -0.0543
 3018W        W 6762   1.115   8.719   1.257  0.1533  0.0092 -0.1403
 3019W        W 6763   3.411   5.861   4.293 -0.1193 -0.1178 -0.0587
 3020W        W 6764   3.028   5.173   9.416  0.0207 -0.1211 -0.1006
 3021W        W 6765   2.028   5.589  12.504  0.0494 -0.0920  0.0287
 3022W        W 6766   2.287   0.710  10.308  0.1876  0.3542  0.0386
 3023W        W 6767   2.698   1.065  10.407  0.0000 -0.1448  0.4420
 3024W        W 6768   7.231   3.982  11.288  0.1642 -0.1841  0.2675
 3025W        W 6769   7.961   8.620  12.129 -0.0044 -0.1345 -0.2373
 3026W        W 6770   7.919   8.928   1.071 -0.0500  0.0221 -0.2348
 3027W        W 6771   4.992   9.482   4.492 -0.0566 -0.3630  0.1702
 3028W        W 6772   9.872   9.065   1.202 -0.0569  0.1619 -0.0652
 3029W        W 6773   0.086   0.689  11.155  0.1936  0.1127  0.2288
 3030W        W 6774   6.740   5.542   9.770  0.1886  0.2041  0.1255
 3031W        W 6775   8.269   6.435  11.527  0.0811 -0.0931  0.0873
 3032W        W 6776   2.069   4.729   9.558 -0.1550  0.0996  0.1432
 3033W        W 6777   1.895   7.726  11.405 -0.1884  0.0884  0.1872
 3034W        W 6778   8.735   7.079   0.975 -0.0519 -0.2542 -0.1705
 3035W        W 6779   0.828   4.483   8.882 -0.0461  0.0299 -0.1876
 3036W        W 6780   0.465   6.968   2.515 -0.0575  0.0280  0.4144
 3037W        W 6781   7.427   9.034   1.074 -0.2113  0.1766 -0.1449
 3038W        W 6782   1.380   5.376   1.269 -0.3500 -0.2055 -0.1302
 3039W        W 6783   4.071   4.490   2.458 -0.3654 -0.1051 -0.0373
 3040W        W 6784   4.590   0.518  12.594  0.0511 -0.1291  0.0010
 3041W        W 6785   5.060   3.835   0.372 -0.4394  0.0485  0.2488
 3042W        W 6786   0.498   4.889   0.839  0.1081  0.0313 -0.2151
 3043W        W 6787   2.091   1.723  12.274  0.1542 -0.0631  0.0538
 3044W        W 6788   2.938   0.761  10.139 -0.2740 -0.1590  0.0434
 3045W        W 6789   1.498   2.939  12.254 -0.1399  0.0543 -0.1686
 3046W        W 6790   5.861   8.148   9.336 -0.2289  0.0227 -0.1863
 3047W        W 6791   1.636   4.819   8.435  0.0930  0.1392  0.1814
 3048W        W 6792   5.389   6.646  10.037  0.1223 -0.0094  0.0630
 3049W        W 6793   2.444   2.716   1.879 -0.3920 -0.0213 -0.0630
 3050W        W 6794   1.846   5.577  12.001 -0.1333  0.0895 -0.2125
 3051W        W 6795   8.274   3.053  11.001  0.1582  0.1949  0.4203
 3052W        W 6796   8.212   7.834   3.918  0.3673  0.1950  0.1560
 3053W        W 6797   1.578   6.667   4.430  0.0517 -0.0510 -0.0502
 3054W        W 6798   1.905   0.053   3.519 -0.2086  0.0706  0.1620
 3055W        W 6799   5.840   4.196   3.378 -0.0779  0.0866  0.0910
 3056W        W 6800   7.848   9.183  10.736 -0.2037  0.0949  0.0081
 3057W        W 6801   6.610   1.409   0.452  0.1893 -0.0405 -0.0071
 3058W        W 6802   5.425   5.375   8.009  0.1818  0.0771 -0.0738
 3059W        W 6803   7.683   7.686  10.692  0.2375 -0.0356  0.5655
 3060W        W 6804   1.900   1.270  11.462  0.1050  0.0006 -0.0184
 3061W        W 6805   0.877   7.431   2.588  0.1462  0.2087  0.1821
 3062W        W 6806   5.923   3.846  12.523  0.1279 -0.2257 -0.2943
 3063W        W 6807   5.448   2.435   2.770 -0.0084  0.0924  0.0879
 3064W        W 6808   9.724   1.931   0.403  0.1903 -0.1220  0.0602
 3065W        W 6809   4.906   5.619  11.929  0.2358 -0.1621 -0.0379
 3066W        W 6810   3.759   2.136  12.185  0.0400 -0.2114 -0.3860
 3067W        W 6811   5.575   5.879   8.945 -0.2794 -0.2679 -0.1923
 3068W        W 6812   7.330   3.890   1.891  0.0094  0.3328 -0.3638
 3069W        W 6813   3.961   8.331   9.221  0.0239 -0.1456  0.0017
 3070W        W 6814   5.405   4.768  10.111 -0.0798 -0.1380 -0.0200
 3071W        W 6815   1.344   4.592   2.345 -0.0639 -0.0126  0.3371
 3072W        W 6816   1.927   0.487  12.356  0.0889  0.0890 -0.1077
 3073W        W 6817   6.361   6.470   9.112  0.0678  0.0801 -0.0329
 3074W        W 6818   3.898   0.347   3.747 -0.4599 -0.1596  0.5164
 3075W        W 6819   8.749   8.331   0.862 -0.2605  0.2003  0.0096
 3076W        W 6820   4.009   7.079  12.145  0.0569 -0.0913 -0.1913
 3077W        W 6821   1.413   8.356   3.992 -0.1726  0.0389  0.0046
 3078W        W 6822   3.816   7.872   9.572  0.2837 -0.2039  0.1097
 3079W        W 6823   8.455   5.708   2.499 -0.1671 -0.3342 -0.2613
 3080W        W 6824   4.670   7.189   1.982  0.0346  0.0419 -0.1256
 3081W        W 6825   9.469   6.458  10.949 -0.1015 -0.2608  0.0480
 3082W        W 6826   7.465   8.797   3.500 -0.1581  0.1745 -0.0669
 3083W        W 6827   5.864   3.807   2.108 -0.3151  0.2135 -0.0742
 3084W        W 6828   7.009   7.305   9.857 -0.3682  0.0331 -0.0078
 3085W        W 6829   6.726   3.662   9.870  0.2568 -0.0139 -0.1404
 3086W        W 6830   5.499   5.603  10.600  0.0970  0.1088 -0.0703
 3087W        W 6831   3.397   7.282   0.887 -0.1623  0.1237  0.0836
 3088W        W 6832   7.041   8.093  11.109 -0.0506  0.0369  0.3108
 3089W        W 6833   1.307   8.781  12.429  0.0461  0.1867  0.2218
 3090W        W 6834   5.230   8.213   9.254 -0.2688  0.2218  0.4349
 3091W        W 6835   0.146   7.636   0.478 -0.0148 -0.1309  0.1443
 3092W        W 6836   0.337   3.024   9.719  0.1915  0.0832  0.1316
 3093W        W 6837   4.126   7.545   4.544  0.2313 -0.1340  0.2918
 3094W        W 6838   9.149   8.841   1.946 -0.0946 -0.0053  0.0310
 3095W        W 6839   2.997   1.881  11.339 -0.2795 -0.0730  0.2410
 3096W        W 6840   6.812   6.260   3.667  0.1680 -0.0868  0.1359
 3097W        W 6841   4.666   4.599  11.722  0.2754  0.1255 -0.2453
 3098W        W 6842   9.818   5.812   1.780  0.2616  0.1241  0.1225
 3099W        W 6843   0.554   1.193   1.368  0.3624 -0.1613 -0.0126
 3100W        W 6844   6.641   7.569   1.110 -0.2399  0.0525 -0.1649
 3101W        W 6845   3.834   3.843   1.839  0.1567  0.0549 -0.1913
 3102W        W 6846   2.007   3.215  10.091  0.3411  0.0481 -0.0606
 3103W        W 6847   0.308   1.578  11.607 -0.0229  0.1301  0.0933
 3104W        W 6848   2.156   1.191   2.507  0.2157  0.1036 -0.0098
 3105W        W 6849   1.564   6.865   8.859  0.0093  0.0713  0.0211
 3106W        W 6850   5.894   5.276  11.330 -0.1793 -0.0072  0.4042
 3107W        W 6851   0.586   2.409  11.187 -0.2442  0.0549  0.0414
 3108W        W 6852   7.262   5.991  12.080  0.2224 -0.2614 -0.0245
 3109W        W 6853   3.871   5.343   0.566  0.4072  0.0564 -0.2975
 3110W        W 6854   9.823   0.281   2.804  0.2360  0.0698 -0.3689
 3111W        W 6855   3.122   8.705   0.642 -0.1229  0.1528  0.0589
 3112W        W 6856   2.128   3.367   2.390 -0.0369  0.1207  0.4208
 3113W        W 6857   5.633   1.197   2.868  0.1473 -0.1687  0.0248
 3114W        W 6858   8.362   5.572  12.663  0.1326  0.5171 -0.0710
 3115W        W 6859   4.922   8.154   2.700  0.0553 -0.0400  0.1722
 3116W        W 6860   4.064   1.492   9.924  0.0171 -0.4899  0.0172
 3117W        W 6861   9.466   4.108  10.565 -0.2023 -0.1439 -0.1561
 3118W        W 6862   6.987   4.868   9.328  0.1294  0.0083 -0.3371
 3119W        W 6863   6.856   9.485   4.528  0.0967  0.1050  0.0394
 3120W        W 6864   0.958   7.155  12.268 -0.1194  0.2257 -0.0000
 3121W        W 6865   0.877   5.551   1.874 -0.0023  0.0938  0.2945
 3122W        W 6866   4.303   1.882   2.375  0.1036  0.2179 -0.2699
 3123W        W 6867   4.367   9.430   0.941  0.2020 -0.0556 -0.3093
 3124W        W 6868   2.109   7.650   0.136 -0.1933  0.1531 -0.0564
 3125W        W 6869   4.826   7.315   2.915  0.1149  0.0283  0.3495
 3126W        W 6870   8.784   7.266   1.931  0.0853 -0.0708 -0.0951
 3127W        W 6871   5.496   4.079  12.479 -0.3234  0.2510 -0.0497
 3128W        W 6872   0.880   9.301   3.650 -0.1785 -0.2588 -0.0944
 3129W        W 6873   7.987   1.339   9.875  0.2817 -0.2221 -0.0659
 3130W        W 6874   1.457   2.862   2.066  0.0342 -0.1616 -0.3186
 3131W        W 6875   8.469   7.203   2.693  0.1217  0.0513 -0.0467
 3132W        W 6876   2.469   5.389   9.351  0.2354  0.2516  0.0238
 3133W        W 6877   2.233   9.422  11.943 -0.5022 -0.0817 -0.1291
 3134W        W 6878   8.902   2.784   0.380 -0.2476  0.3362  0.0584
 3135W        W 6879   9.608   4.675   8.100 -0.2360 -0.1110 -0.0120
 3136W        W 6880   5.145   7.297   8.618 -0.1402  0.2753  0.6358
 3137W        W 6881   9.340   0.632   2.182 -0.0954 -0.1649 -0.2297
 3138W        W 6882   1.314   8.652   0.450 -0.2416  0.1166 -0.2640
 3139W        W 6883   2.639   6.941  12.213 -0.3609  0.2292  0.1535
 3140W        W 6884   2.930   7.563  11.725  0.1862  0.0671  0.1348
 3141W        W 6885   9.235   1.469  10.181  0.3002  0.0475 -0.0154
 3142W        W 6886   3.241   4.304   9.037 -0.1585  0.0445 -0.1575
 3143W        W 6887   6.427   0.139  10.348 -0.1407 -0.1458 -0.0226
 3144W        W 6888   6.808   6.679   3.944 -0.0653 -0.3773 -0.0414
 3145W        W 6889   0.480   3.328   2.977  0.2610 -0.1991  0.1261
 3146W        W 6890   4.278   3.987  12.191 -0.0760 -0.0321  0.3243
 3147W        W 6891   5.468   1.806   8.329  0.2190 -0.0134 -0.3746
 3148W        W 6892   0.836   9.642  11.485  0.3205 -0.1272 -0.0255
 3149W        W 6893   9.430   1.928  10.433 -0.1469  0.0856  0.1383
 3150W        W 6894   4.998   0.481   8.178  0.0347  0.2606 -0.2439
 3151W        W 6895   9.506   2.878  12.364  0.1714 -0.2038 -0.1625
 3152W        W 6896   1.572   2.720  10.659 -0.2240 -0.0570 -0.0072
 3153W        W 6897   5.120   2.019   1.824 -0.3205 -0.1294 -0.2143
 3154W        W 6898   5.074   6.498   3.582 -0.1021 -0.4874 -0.1304
 3155W        W 6899   0.839   2.287   0.484  0.0358  0.0241  0.0889
 3156W        W 6900   3.177   8.547  10.521  0.0697 -0.0600  0.1917
 3157W        W 6901   7.767   7.214   1.039 -0.1506 -0.1382  0.1766
 3158W        W 6902   9.930   8.530   2.926  0.0819  0.0166 -0.0938
 3159W        W 6903   1.948   7.883   4.124  0.0674 -0.0706 -0.0701
 3160W        W 6904   6.299   6.945   2.588  0.6579  0.0827 -0.2335
 3161W        W 6905   4.171   0.307  12.439 -0.1406 -0.0031 -0.0442
 3162W        W 6906   1.976   2.069   0.774 -0.1784 -0.1308 -0.0067
 3163W        W 6907   1.894   6.568  10.765 -0.0020  0.4626 -0.0229
 3164W        W 6908   4.790   4.825   9.457 -0.1329 -0.0284  0.1681
 3165W        W 6909   6.603   6.526   1.792 -0.2591  0.0010  0.0807
 3166W        W 6910   4.041   0.450  11.844  0.4108 -0.3320  0.2113
 3167W        W 6911   8.953   4.898   1.175  0.0385  0.1718 -0.0268
 3168W        W 6912   0.249   8.419  11.632  0.0966  0.0809  0.1492
 3169W        W 6913   5.362   0.993  12.346  0.0220 -0.0424  0.0190
 3170W        W 6914   5.285   6.566   4.621  0.1631 -0.0811  0.1050
 3171W        W 6915   9.113   1.841   3.275  0.1116 -0.1092 -0.3386
 3172W        W 6916   6.261   0.313   0.628  0.1434 -0.1266  0.1180
 3173W        W 6917   6.797   9.940   8.483 -0.0745  0.2252 -0.0707
 3174W        W 6918   2.150   6.579   2.051  0.2247  0.1213  0.2248
 3175W        W 6919   1.326   5.929   4.389 -0.2636 -0.1640 -0.2886
 3176W        W 6920   0.448   3.544  11.499  0.0090  0.1779 -0.2595
 3177W        W 6921   8.677   9.845   1.981 -0.1103  0.2027 -0.2352
 3178W        W 6922   8.120   5.123   0.077 -0.0125 -0.0556 -0.2097
 3179W        W 6923   7.089   6.884   9.531 -0.2975  0.1108  0.1130
 3180W        W 6924   9.127   3.708   3.227  0.1212  0.0100 -0.0610
 3181W        W 6925   2.311   8.362   2.981 -0.0701  0.1642  0.1800
 3182W        W 6926   1.837   7.557  11.882 -0.0183 -0.0018  0.1135
 3183W        W 6927   9.017   8.888   1.170 -0.4040 -0.0325  0.1517
 3184W        W 6928   7.487   9.574  12.232 -0.0992 -0.1782 -0.0567
 3185W        W 6929   5.102   9.814   3.640 -0.0747  0.3553 -0.3457
 3186W        W 6930   9.280   7.088  10.448 -0.0136  0.0926  0.1397
 3187W        W 6931   5.358   2.583   2.227  0.0150  0.0249 -0.2197
 3188W        W 6932   3.387   1.241   8.283 -0.1133  0.0755 -0.1644
 3189W        W 6933   7.896   4.379  12.694  0.0154  0.0933 -0.4603
 3190W        W 6934   2.093   4.122   9.936 -0.2174  0.0395  0.0132
 3191W        W 6935   7.055   4.274   2.234 -0.1206  0.3450  0.0450
 3192W        W 6936   6.043   8.112  11.523  0.1982 -0.2246 -0.0184
 3193W        W 6937   3.213   8.920   4.801 -0.2220  0.1687 -0.2062
 3194W        W 6938   4.356   6.587  12.056  0.1676 -0.1222  0.2050
 3195W        W 6939   2.204   0.481  10.930 -0.1524 -0.0391  0.1265
 3196W        W 6940   0.201   9.558  10.797 -0.0760 -0.1681 -0.2237
 3197W        W 6941   3.002   4.796   9.850  0.0702 -0.1440 -0.2114
 3198W        W 6942   5.648   4.658   9.575 -0.1277 -0.0897 -0.1792
 3199W        W 6943   9.149   1.851   2.053 -0.1111  0.1239  0.1432
 3200W        W 6944   9.444   7.104   0.049  0.4002  0.0207 -0.2081
 3201W        W 6945   4.058   8.261   1.622 -0.1274  0.2438 -0.0882
 3202W        W 6946   6.798   1.809   4.012  0.0862 -0.1079 -0.0711
 3203W        W 6947   0.058   3.351   8.383 -0.0265  0.1411  0.3039
 3204W        W 6948   7.819   7.010   8.758  0.1689  0.1019 -0.0163
 3205W        W 6949   4.097   7.587  12.542 -0.1959 -0.0668 -0.1214
 3206W        W 6950   1.507   6.299   2.766 -0.1151  0.0363  0.1049
 3207W        W 6951   7.464   7.710   0.630 -0.0332 -0.2567 -0.0457
 3208W        W 6952   8.164   8.405  10.905 -0.2336 -0.1232 -0.0172
 3209W        W 6953   6.833   6.622   9.029 -0.2093  0.1396  0.2681
 3210W        W 6954   3.773   6.885   1.855 -0.0450  0.0006  0.0533
 3211W        W 6955   2.624   9.939   1.636 -0.2982  0.1036  0.0936
 3212W        W 6956   8.955   2.542   2.289 -0.0774  0.1606 -0.0101
 3213W        W 6957   8.783   1.281   0.582  0.0220  0.1701  0.0155
 3214W        W 6958   7.019   6.640   1.962 -0.2193 -0.0415  0.1248
 3215W        W 6959   4.389   9.549   4.348 -0.2617  0.5295  0.1247
 3216W        W 6960   6.809   2.873   3.136  0.0451  0.1507 -0.1292
 3217W        W 6961   7.049   7.725  10.197 -0.0205  0.2195 -0.0936
 3218W        W 6962   3.519   4.484  10.846 -0.5484  0.2866  0.1516
 3219W        W 6963   5.599   5.260   1.878 -0.1210 -0.3974 -0.3244
 3220W        W 6964   9.570   7.303  10.964 -0.0597 -0.3435  0.2432
 3221W        W 6965   3.904   3.823  12.594 -0.1497  0.2115 -0.1471
 3222W        W 6966   5.158   0.397   1.708  0.1904 -0.2004 -0.0810
 3223W        W 6967   4.280   7.039  12.677  0.3067 -0.0951 -0.3220
 3224W        W 6968   0.733   0.753   8.837  0.2147  0.4324  0.1007
 3225W        W 6969   3.225   6.291  10.047 -0.2397  0.0071  0.1549
 3226W        W 6970   3.940   7.283   0.234 -0.1567 -0.0580  0.0921
 3227W        W 6971   3.402   6.340   0.959  0.0875 -0.0581 -0.3756
 3228W        W 6972   4.805   1.104   0.139 -0.4577 -0.3478 -0.0885
 3229W        W 6973   7.152   0.685  10.068 -0.0460  0.2512  0.1865
 3230W        W 6974   2.468   5.285   8.814  0.1830  0.0612  0.0406
 3231W        W 6975   8.422   1.394   1.351 -0.2980  0.2523 -0.0345
 3232W        W 6976   2.239   6.957   3.755  0.2833  0.1190 -0.0714
 3233W        W 6977   9.214   7.601   8.531  0.1098  0.3091  0.3389
 3234W        W 6978   0.813   2.136  10.091  0.0993  0.1789 -0.0892
 3235W        W 6979   6.934   9.337   1.906 -0.0291 -0.0447  0.0370
 3236W        W 6980   1.174   1.895   2.742  0.0659  0.0930 -0.0187
 3237W        W 6981   7.450   4.891  11.251 -0.3269 -0.2030 -0.1314
 3238W        W 6982   6.458   7.030   3.668 -0.4007  0.0751  0.1686
 3239W        W 6983   4.617   0.606   1.896  0.0770 -0.1652 -0.1117
 3240W        W 6984   1.282   5.988   8.259  0.1865  0.0679 -0.1167
 3241W        W 6985   9.477   6.672   4.249 -0.0191 -0.1758  0.0251
 3242W        W 6986   1.442   9.812   0.634 -0.1059  0.1498  0.1384
 3243W        W 6987   1.212   6.957   1.150 -0.0997  0.1523 -0.3143
 3244W        W 6988   9.928   7.296   9.171  0.0699  0.0525  0.2083
 3245W        W 6989   9.912   6.417   1.109  0.2931 -0.1008  0.1875
 3246W        W 6990   0.238   4.083   9.455 -0.0384 -0.2150 -0.1382
 3247W        W 6991   7.149   6.841   1.487 -0.0830  0.0090  0.0612
 3248W        W 6992   3.614   3.728  10.365  0.1161  0.2954 -0.2126
 3249W        W 6993   7.744   5.495   1.427 -0.2072 -0.0798 -0.0852
 3250W        W 6994   5.165   5.052   4.365  0.2421 -0.2127 -0.2914
 3251W        W 6995   9.297   8.810  12.674  0.0102  0.0665  0.0973
 3252W        W 6996   5.536   4.923   8.986  0.2049  0.0261 -0.0441
 3253W        W 6997   8.168   7.727   3.371 -0.2508 -0.1473 -0.2812
 3254W        W 6998   2.305   8.984   0.560 -0.0977 -0.1863 -0.1885
 3255W        W 6999   0.182   5.271  11.055  0.0195  0.1287  0.1904
 3256W        W 7000   2.330   3.316   0.375 -0.2377 -0.0675  0.1575
 3257W        W 7001   4.419   9.128   8.509  0.2232 -0.5540 -0.0995
 3258W        W 7002   3.255   9.251  11.940 -0.1447 -0.1767  0.2335
 3259W        W 7003   1.771   5.580   1.048  0.0098 -0.2483 -0.1419
 3260W        W 7004   5.656   0.744   1.403 -0.1653  0.0935 -0.0510
 3261W        W 7005   8.396   5.918   3.697 -0.0309  0.1704  0.1090
 3262W        W 7006   5.317   4.318   0.130 -0.1943  0.1929  0.1167
 3263W        W 7007   4.410   9.429   8.972  0.2986 -0.0434  0.0281
 3264W        W 7008   2.799   2.162   9.940  0.2922 -0.1187 -0.0185
 3265W        W 7009   3.592   3.477  10.836  0.3901 -0.3459 -0.1862
 3266W        W 7010   6.573   9.819   0.615 -0.1443  0.0231 -0.2394
 3267W        W 7011   3.939   2.676   1.218 -0.0905  0.2195  0.1895
 3268W        W 7012   2.902   7.208  12.768  0.1720  0.0393  0.1030
 3269W        W 7013   5.354   5.607  12.681 -0.1041  0.0774 -0.2690
 3270W        W 7014   2.780   0.522  12.312 -0.5642  0.0679  0.0696
 3271W        W 7015   5.387   1.935   2.707  0.0169  0.1107 -0.2907
 3272W        W 7016   7.583   7.074   4.184 -0.0463 -0.2181 -0.3431
 3273W        W 7017   3.254   4.341  11.618 -0.1274 -0.0842  0.0651
 3274W        W 7018   7.282   5.915   9.455 -0.1425 -0.2229  0.0610
 3275W        W 7019   1.049   0.081  10.598  0.2870 -0.2432  0.0414
 3276W        W 7020   2.609   8.083  12.075  0.0612 -0.2753 -0.4195
 3277W        W 7021   6.551   8.731   1.409  0.1230  0.0311  0.3571
 3278W        W 7022   0.717   6.459   0.929  0.1438  0.2459 -0.1037
 3279W        W 7023   9.763   2.493  10.094 -0.1394 -0.3040  0.3496
 3280W        W 7024   1.751   2.520   0.907  0.0699 -0.0832  0.1380
 3281W        W 7025   6.588   2.903   9.640  0.0069  0.1046  0.1440
 3282W        W 7026   3.242   2.945   9.854 -0.0613  0.3235  0.1519
 3283W        W 7027   0.391   6.013   9.129  0.0789 -0.1403  0.1362
 3284W        W 7028   2.427   8.031   2.317 -0.1145 -0.1542  0.0643
 3285W        W 7029   2.958   3.927   3.437 -0.0170  0.0838  0.2527
 3286W        W 7030   6.906   9.858   2.655 -0.1828 -0.2827 -0.3184
 3287W        W 7031   3.693   3.139   9.654  0.0187  0.0964  0.2255
 3288W        W 7032   1.006   3.931   0.174  0.2824  0.0427 -0.3549
 3289W        W 7033   7.032   9.826   9.047 -0.0523  0.1277 -0.1674
 3290W        W 7034   2.056   2.212  11.367 -0.0154 -0.1888  0.2701
 3291W        W 7035   8.918   0.866   1.091 -0.0029 -0.0570 -0.3137
 3292W        W 7036   7.032   0.897  11.337 -0.0827  0.1307  0.1915
 3293W        W 7037   3.483   1.759   3.403 -0.0792  0.2633  0.1596
 3294W        W 7038   8.363   4.311  11.442 -0.2939  0.0970 -0.1726
 3295W        W 7039   2.936   8.469   1.352 -0.1287  0.0542  0.1072
 3296W        W 7040   7.763   9.447  11.774 -0.0262  0.0721 -0.2806
 3297W        W 7041   5.947   5.434   3.560 -0.2408  0.3541 -0.1895
 3298W        W 7042   4.224   6.933   2.759 -0.1876 -0.0612 -0.1603
 3299W        W 7043   7.315   3.489   0.471 -0.0004 -0.0516 -0.0231
 3300W        W 7044   6.184   7.135   1.886 -0.0750  0.1529  0.2560
 3301W        W 7045   6.335   2.530   8.958 -0.1123 -0.0236  0.2469
 3302W        W 7046   3.685   9.375   3.410  0.0635 -0.0988  0.0746
 3303W        W 7047   9.334   4.657   3.605 -0.0476 -0.0819 -0.2549
 3304W        W 7048   1.682   7.476   4.926 -0.1215  0.1728 -0.0892
 3305W        W 7049   6.402   8.936  11.849  0.1319 -0.2076  0.0298
 3306W        W 7050   0.865   7.448   1.409  0.1747  0.0728 -0.0567
 3307W        W 7051   6.888   1.000   2.562  0.0868 -0.0535 -0.0313
 3308W        W 7052   5.834   8.589   9.499  0.0111  0.0849  0.0724
 3309W        W 7053   4.209   1.722  11.490 -0.1038  0.1230  0.2288
 3310W        W 7054   9.202   0.122   1.147 -0.0470 -0.2157 -0.2212
 3311W        W 7055   0.459   3.067   8.728 -0.2056 -0.1098  0.2313
 3312W        W 7056   2.470   8.451   0.290  0.1700 -0.0015 -0.1952
 3313W        W 7057   6.344   3.722  12.105  0.3763  0.1294  0.1914
 3314W        W 7058   0.199   8.889   4.094  0.1857  0.1233 -0.0332
 3315W        W 7059   7.937   6.812  11.723  0.0649 -0.0546 -0.2197
 3316W        W 7060   9.200   0.710   1.604 -0.1664 -0.2707  0.0793
 3317W        W 7061   3.431   3.650   2.183 -0.0037  0.0081  0.1189
 3318W        W 7062   2.708   1.733   1.204  0.1119  0.0556 -0.1479
 3319W        W 7063   1.160   6.351  10.280 -0.0275 -0.2616  0.2689
 3320W        W 7064   8.206   8.137  11.969 -0.0741 -0.1838  0.0767
 3321W        W 7065   8.047   2.718  11.799 -0.1282 -0.0393  0.0097
 3322W        W 7066   7.680   3.981  12.036 -0.1490 -0.1415  0.1067
 3323W        W 7067   7.014   3.511   3.788  0.0380  0.0811 -0.1276
 3324W        W 7068   1.203   9.519   0.157 -0.0856  0.2077 -0.0894
 3325W        W 7069   0.586   4.092  11.605 -0.1299 -0.0830 -0.1819
 3326W        W 7070   4.395   6.337   7.689 -0.1777  0.2070 -0.1157
 3327W        W 7071   7.667   6.186   8.878  0.0660  0.2417  0.1682
 3328W        W 7072   3.771   6.027   1.187 -0.1164  0.2580  0.0440
 3329W        W 7073   7.035   8.312  11.999 -0.2340  0.1101 -0.1762
 3330W        W 7074   9.294   4.213  10.069  0.1146  0.2132  0.0754
 3331W        W 7075   1.199   9.235   3.998 -0.0289 -0.0924  0.0806
 3332W        W 7076   7.855   8.642   8.870 -0.2254 -0.2452 -0.1091
 3333W        W 7077   2.860   9.852   3.916 -0.2539 -0.2330  0.1670
 3334W        W 7078   1.426   1.635   3.122  0.2511 -0.1969  0.0564
 3335W        W 7079   0.182   8.771  10.611  0.1377 -0.1376  0.1210
 3336W        W 7080   6.266   3.448   1.293  0.0373 -0.1548 -0.2860
 3337W        W 7081   5.414   2.063   4.145  0.0190  0.0795 -0.0555
 3338W        W 7082   6.686   3.671   3.444  0.2195  0.3544 -0.1137
 3339W        W 7083   2.872   5.403  11.910 -0.2172  0.1403 -0.0365
 3340W        W 7084   7.458   3.674   0.016  0.3994  0.0144  0.2597
 3341W        W 7085   4.964   0.423   4.673  0.0928  0.1080 -0.3641
 3342W        W 7086   0.928   0.967   2.026  0.1088  0.0338  0.1818
 3343W        W 7087   9.762   6.442   3.618 -0.1413  0.0726  0.2529
 3344W        W 7088   2.974   2.939   1.366  0.0752  0.0361 -0.1241
 3345W        W 7089   6.160   7.858   0.481 -0.1034  0.1788  0.0198
 3346W        W 7090   3.970   9.652   9.130  0.2528 -0.0475 -0.2341
 3347W        W 7091   9.571   2.845   1.728 -0.0591 -0.3938  0.2893
 3348W        W 7092   6.445   7.583   1.677 -0.1456  0.0731 -0.1813
 3349W        W 7093   0.814   6.929  11.119 -0.0195 -0.0930  0.2224
 3350W        W 7094   4.626   0.685   0.929  0.3405 -0.3023 -0.1218
 3351W        W 7095   3.262   3.703  11.420 -0.2877 -0.1028 -0.2920
 3352W        W 7096   9.473   2.896   9.340 -0.0373 -0.0036  0.1628
 3353W        W 7097   3.293   8.052  10.535  0.0369 -0.1131 -0.0038
 3354W        W 7098   8.863   6.180   8.730 -0.0251  0.2614  0.0754
 3355W        W 7099   5.045   8.787   1.225 -0.1264 -0.1852  0.0780
 3356W        W 7100   3.097   4.876  11.704  0.2065  0.2270 -0.0904
 3357W        W 7101   1.971   7.545   9.275  0.0076  0.2523  0.1065
 3358W        W 7102   6.483   6.208  10.278 -0.0124  0.1293 -0.1822
 3359W        W 7103   6.390   2.579   1.825  0.2461  0.1032  0.0232
 3360W        W 7104   9.785   4.371   0.758 -0.4648 -0.0870 -0.4205
 3361W        W 7105   1.725   1.915   2.821 -0.1217  0.2221  0.0197
 3362W        W 7106   0.196   8.099   3.182  0.2245  0.4123 -0.3071
 3363W        W 7107   3.539   5.369   8.291  0.1239 -0.0611  0.0477
 3364W        W 7108   6.808   4.200   3.223  0.2921  0.2107  0.3841
 3365W        W 7109   9.770   8.291   1.487  0.0086 -0.3827  0.0866
 3366W        W 7110   4.715   0.254   0.718 -0.3545 -0.2436  0.0015
 3367W        W 7111   5.784   3.264  11.120 -0.1208  0.1458 -0.2442
 3368W        W 7112   3.556   6.923   9.099  0.0253 -0.0781 -0.1933
 3369W        W 7113   3.306   3.328   9.336  0.2942  0.0784 -0.0279
 3370W        W 7114   2.711   1.552  10.479 -0.1711  0.1959  0.1290
 3371W        W 7115   1.605   5.847   0.381  0.2711  0.1617 -0.0300
 3372W        W 7116   2.724   7.578   0.679 -0.1523 -0.4013  0.1071
 3373W        W 7117   4.295   8.000   4.297 -0.1421  0.1260 -0.3944
 3374W        W 7118   3.023   8.754  12.481 -0.2216  0.0734  0.1319
 3375W        W 7119   0.164   5.602   5.177  0.2290  0.2052 -0.2986
 3376W        W 7120   2.064   4.585  12.385  0.1284 -0.2822  0.2912
 3377W        W 7121   7.586   8.311   9.166 -0.3504  0.3288  0.1715
 3378W        W 7122   4.220   9.887   8.048 -0.0077 -0.0137 -0.0849
 3379W        W 7123   1.149   1.439  10.668 -0.2693  0.0636 -0.0790
 3380W        W 7124   2.279   3.184  11.167  0.1346 -0.2180  0.0959
 3381W        W 7125   2.014   4.279  11.893 -0.0278 -0.2173  0.2286
 3382W        W 7126   3.099   8.302  12.169  0.0689 -0.2664 -0.1775
 3383W        W 7127   4.609   9.174   9.867 -0.0790 -0.1213 -0.0542
 3384W        W 7128   7.903   1.624   2.163  0.4114 -0.0252 -0.3721
 3385W        W 7129   5.372   3.544  10.584  0.0509 -0.3389  0.0659
 3386W        W 7130   5.064   3.370   8.760  0.2155 -0.1727  0.1436
 3387W        W 7131   3.122   0.067   2.636 -0.0232  0.0483 -0.2091
 3388W        W 7132   6.127   1.890   8.087 -0.3722 -0.2948  0.0703
 3389W        W 7133   1.708   6.869   2.854 -0.1574  0.2726 -0.0415
 3390W        W 7134   4.637   5.388   2.402  0.1373  0.2206 -0.0389
 3391W        W 7135   6.721   0.865   1.530  0.0087 -0.0048  0.1886
 3392W        W 7136   1.214   5.820   2.343 -0.1180 -0.0644  0.0084
 3393W        W 7137   2.740   9.474  11.795  0.1465 -0.1873  0.0219
 3394W        W 7138   1.439   7.164   4.483  0.0908  0.1530 -0.0213
 3395W        W 7139   0.974   7.370   0.877  0.0417  0.1778 -0.1800
 3396W        W 7140   6.771   4.559  12.364 -0.1904 -0.2627 -0.0347
 3397W        W 7141   4.685   8.168  12.367 -0.3644  0.0216  0.2383
 3398W        W 7142   6.638   7.723   0.173  0.0330  0.0985 -0.0985
 3399W        W 7143   1.617   7.980   9.948 -0.1385 -0.0098 -0.0445
 3400W        W 7144   3.931   5.023   9.506  0.2694 -0.2998  0.0755
 3401W        W 7145   2.026   9.458   9.876 -0.2730  0.0326  0.5254
 3402W        W 7146   3.355   5.706   8.651 -0.2919 -0.0119  0.1551
 3403W        W 7147   4.700   8.151   3.461  0.1245  0.0420  0.1201
 3404W        W 7148   6.936   4.404   9.155  0.1457 -0.4586 -0.1752
 3405W        W 7149   3.899   8.393   9.731  0.3472  0.0930 -0.0730
 3406W        W 7150   2.088   6.512   0.865  0.1456  0.1783 -0.0209
 3407W        W 7151   7.188   2.517   1.206  0.0822  0.2705  0.1372
 3408W        W 7152   3.881   1.035   3.132  0.0023 -0.1906 -0.2190
 3409W        W 7153   2.288   9.004   9.757 -0.2226 -0.1443  0.1946
 3410W        W 7154   5.925   3.152   1.081  0.0078 -0.1412 -0.3053
 3411W        W 7155   6.059   0.756   0.929  0.3456  0.0135  0.1212
 3412W        W 7156   3.654   1.496  11.229  0.0390 -0.0857 -0.2488
 3413W        W 7157   6.216   1.789   9.561 -0.1935 -0.0454 -0.3161
 3414W        W 7158   2.805   0.862   3.703 -0.1679 -0.2004 -0.2272
 3415W        W 7159   9.601   6.498  11.980 -0.4134 -0.1144 -0.0401
 3416W        W 7160   2.861   1.774  11.813  0.2278  0.3203 -0.1258
 3417W        W 7161   8.119   1.816  11.405 -0.0064  0.1466  0.0886
 3418W        W 7162   5.060   2.562  11.924 -0.0290 -0.0762 -0.1754
 3419W        W 7163   7.225   9.240   9.978  0.1680 -0.1797 -0.0063
 3420W        W 7164   1.067   5.055   4.182 -0.1450 -0.2424  0.0384
 3421W        W 7165   4.223   6.907   3.779 -0.1106  0.0685  0.1957
 3422W        W 7166   8.233   9.344  11.040 -0.1780 -0.2095  0.2470
 3423W        W 7167   8.448   7.086   8.850 -0.1133 -0.2796 -0.2464
 3424W        W 7168   4.942   5.099   9.833 -0.1138  0.2079 -0.0806
 3425W        W 7169   3.305   8.557  10.003 -0.0628 -0.0820  0.4548
 3426W        W 7170   7.238   7.440  10.625 -0.3125 -0.1279  0.0795
 3427W        W 7171   4.357   5.841   2.783  0.0662  0.0821  0.1049
 3428W        W 7172   4.897   9.019   1.696  0.2356  0.4134 -0.2366
 3429W        W 7173   9.444   7.526   9.071 -0.3434 -0.4300  0.3633
 3430W        W 7174   4.100   7.623  12.030  0.0270  0.0140  0.1716
 3431W        W 7175   8.173   6.646  10.343 -0.0312  0.0970 -0.1888
 3432W        W 7176   5.291   9.519   2.525  0.0744  0.0653  0.1660
 3433W        W 7177   8.824   0.175   3.670 -0.0417 -0.0107 -0.0643
 3434W        W 7178   1.649   8.851   2.254  0.4958 -0.0349 -0.1352
 3435W        W 7179   5.193   0.121  11.342 -0.2278  0.0036 -0.2397
 3436W        W 7180   8.207   3.921   8.167 -0.2577  0.0591 -0.0245
 3437W        W 7181   3.777   6.654   3.544  0.4401  0.2486 -0.0092
 3438W        W 7182   7.294   0.187   9.887 -0.1927  0.1529 -0.0016
 3439W        W 7183   6.530   6.315   2.801 -0.0822  0.2364  0.0870
 3440W        W 7184   6.501   3.955   8.383  0.1284 -0.1851 -0.0537
 3441W        W 7185   5.522   2.210   9.270  0.1341 -0.1191  0.1243
 3442W        W 7186   7.050   8.995  10.537 -0.1705 -0.1214 -0.1502
 3443W        W 7187   1.869   7.765   0.558  0.0806  0.1393  0.2228
 3444W        W 7188   9.448   1.618   0.100  0.0765 -0.2066 -0.2007
 3445W        W 7189   0.417   0.607  11.696 -0.0949  0.1246 -0.2183
 3446W        W 7190   4.408   7.668  10.067 -0.1660  0.0720 -0.1599
 3447W        W 7191   4.453   4.203   0.640 -0.1751 -0.2455 -0.1579
 3448W        W 7192   2.763   7.040   3.642  0.0824 -0.3827 -0.1756
 3449W        W 7193   6.241   9.172   1.122  0.0809 -0.3094  0.0344
 3450W        W 7194   0.626   1.779  12.419 -0.3437  0.1161 -0.0747
 3451W        W 7195   7.069   3.166   0.913  0.3010 -0.3643  0.1181
 3452W        W 7196   2.089   2.202  12.412 -0.1835  0.0250 -0.1434
 3453W        W 7197   3.759   7.962  12.281 -0.5751 -0.0977  0.0148
 3454W        W 7198   1.808   0.347   3.026  0.3963  0.0303  0.1515
 3455W        W 7199   6.464   8.161  11.867 -0.1733  0.0836  0.1033
 3456W        W 7200   9.722   8.868  10.093 -0.1612 -0.1109 -0.1179
 3457W        W 7201   5.400   2.569   8.480 -0.0986 -0.1265 -0.1850
 3458W        W 7202   7.717   5.254   4.687 -0.2940  0.0894  0.1123
 3459W        W 7203   1.327   7.653   0.237 -0.2031 -0.1820 -0.2708
 3460W        W 7204   6.338   1.382  12.283 -0.0454  0.4229  0.0596
 3461W        W 7205   9.102   3.434   9.357 -0.0403  0.1876  0.0953
 3462W        W 7206   2.177   3.284   3.407 -0.0521  0.2393  0.2413
 3463W        W 7207   8.368   5.136  10.878 -0.0450 -0.4880  0.3615
 3464W        W 7208   2.059   4.605   1.742  0.1927  0.3522  0.1816
 3465W        W 7209   0.041   7.649   2.884 -0.0583  0.1879  0.0323
 3466W        W 7210   8.774   4.290   4.129 -0.2019  0.0296 -0.1691
 3467W        W 7211   7.941   7.242  11.966 -0.1202  0.2000  0.1311
 3468W        W 7212   1.618   9.594  10.155  0.0458  0.0905 -0.2070
 3469W        W 7213   9.503   4.896  12.746 -0.0172 -0.0671  0.1557
 3470W        W 7214   7.921   4.382   3.111 -0.1899 -0.0642  0.1802
 3471W        W 7215   2.863   7.816  12.540 -0.2808  0.1460 -0.4102
 3472W        W 7216   0.137   3.380  12.785  0.0815  0.2539  0.2569
 3473W        W 7217   0.742   2.110  11.584 -0.1079  0.1159 -0.4858
 3474W        W 7218   6.183   2.965   8.086  0.0298  0.1220  0.1519
 3475W        W 7219   0.368   3.512   0.436  0.2228  0.0625 -0.3017
 3476W        W 7220   7.556   4.110   9.948 -0.1163  0.0424 -0.0694
 3477W        W 7221   5.048   5.800  10.250 -0.1903  0.3576  0.0132
 3478W        W 7222   5.011   6.781   9.647 -0.3568  0.2868 -0.0370
 3479W        W 7223   2.462   1.980  12.023  0.0452  0.0075 -0.1629
 3480W        W 7224   2.986   0.100   1.286 -0.0708 -0.0995  0.0974
 3481W        W 7225   5.392   4.692  11.244  0.0687  0.2169  0.0446
 3482W        W 7226   4.722   7.997   0.385  0.0216  0.4521 -0.0209
 3483W        W 7227   1.603   8.211   3.514  0.2978  0.1510 -0.1428
 3484W        W 7228   7.611   2.584   4.320  0.0065 -0.2197 -0.1917
 3485W        W 7229   2.341   8.213   9.325 -0.0495  0.0113  0.1743
 3486W        W 7230   2.962   9.530   8.875  0.0616 -0.0197  0.1462
 3487W        W 7231   0.246   4.192   9.999  0.4648  0.3237  0.2282
 3488W        W 7232   3.651   7.684   0.001  0.0177  0.0697  0.0803
 3489W        W 7233   2.791   1.515   5.155 -0.1240 -0.0725 -0.0458
 3490W        W 7234   8.520   5.029   0.990  0.0945  0.5957 -0.1048
 3491W        W 7235   1.791   3.581   3.117 -0.0717 -0.1547  0.0552
 3492W        W 7236   7.521   8.570  10.197 -0.0363  0.0905 -0.2185
 3493W        W 7237   6.694   4.635   2.331  0.1656  0.1900  0.0508
 3494W        W 7238   9.460   5.158   0.470 -0.0322  0.0908  0.2605
 3495W        W 7239   5.823   7.305   9.279  0.2862  0.0204 -0.1738
 3496W        W 7240   7.083   4.058   3.586  0.0732 -0.0239 -0.1298
 3497W        W 7241   8.878   0.897   9.999  0.1200  0.1289  0.0883
 3498W        W 7242   6.559   3.350   3.137 -0.0012  0.0097 -0.0455
 3499W        W 7243   7.940   9.835   0.024 -0.2190 -0.2680 -0.1283
 3500W        W 7244   1.021   0.200   0.896  0.1792 -0.0403  0.0307
 3501W        W 7245   6.864   4.898   3.862 -0.1724 -0.0722 -0.1023
 3502W        W 7246   4.895   1.086  11.065  0.0658 -0.0690  0.3008
 3503W        W 7247   2.884   0.265   0.805 -0.0796 -0.2448 -0.2937
 3504W        W 7248   2.152   5.711   2.923 -0.3452 -0.0199 -0.0570
 3505W        W 7249   6.045   8.716   0.470 -0.0816  0.0647  0.1776
 3506W        W 7250   9.412   4.014   0.848  0.1664 -0.0513  0.1686
 3507W        W 7251   1.409   7.276  11.568 -0.4467  0.0915  0.3585
 3508W        W 7252   9.680   7.394  11.559  0.1994 -0.0997  0.0217
 3509W        W 7253   8.736   1.881  11.573  0.0001 -0.2005 -0.1411
 3510W        W 7254   2.484   2.510   9.074 -0.1897  0.0584  0.0973
 3511W        W 7255   6.520   3.751   0.891  0.1279 -0.1456  0.0552
 3512W        W 7256   9.713   1.558  12.478 -0.0155  0.2191  0.0256
 3513W        W 7257   9.634   2.443   0.136  0.1498  0.0700  0.1388
 3514W        W 7258   4.477   6.567   8.694  0.1068 -0.1406  0.1185
 3515W        W 7259   5.254   0.054   4.093  0.1691  0.2709  0.0296
 3516W        W 7260   7.746   5.247   0.394  0.2271 -0.0070  0.4881
 3517W        W 7261   7.708   6.856   3.757 -0.0582  0.0577 -0.2930
 3518W        W 7262   2.608   2.161  10.472  0.0684 -0.1566  0.0814
 3519W        W 7263   4.807   0.997  11.594 -0.0056 -0.0836  0.3472
 3520W        W 7264   9.562   4.339   4.913  0.2704  0.1628 -0.1125
 3521W        W 7265   0.843   8.197  10.509 -0.3989 -0.0382  0.4498
 3522W        W 7266   7.630   4.106   2.331  0.0578 -0.1008  0.1420
 3523W        W 7267   3.400   4.579   0.206  0.1747  0.1544 -0.0835
 3524W        W 7268   1.012   3.376  11.699 -0.1376 -0.2105 -0.1412
 3525W        W 7269   7.142   9.476   4.108 -0.0901 -0.1056 -0.2026
 3526W        W 7270   6.881   3.658  11.643  0.0767 -0.3830 -0.2367
 3527W        W 7271   1.688   6.203  12.774 -0.2635 -0.1140  0.0219
 3528W        W 7272   6.220   3.238  11.892 -0.2743  0.1796  0.2403
 3529W        W 7273   7.485   3.512  11.362 -0.2527 -0.1416 -0.3838
 3530W        W 7274   1.800   5.948  11.016 -0.1867  0.0033  0.2286
 3531W        W 7275   9.470   6.986  11.818 -0.0630  0.0609  0.0480
 3532W        W 7276   0.833   3.716   4.293  0.0010  0.0635  0.2150
 3533W        W 7277   6.738   8.898   9.144 -0.4511 -0.1108 -0.1818
 3534W        W 7278   0.908   2.866   0.668 -0.0170  0.2107 -0.2749
 3535W        W 7279   3.535   3.157   8.118  0.0080  0.0899  0.3101
 3536W        W 7280   4.370   5.458  11.878  0.1150  0.0915  0.0274
 3537W        W 7281   8.330   3.753  11.405  0.3029  0.0072  0.1537
 3538W        W 7282   1.502   1.268   3.979  0.2301  0.2737  0.2278
 3539W        W 7283   7.460   7.751  12.506  0.1187 -0.0298  0.1153
 3540W        W 7284   5.014   7.848  11.534  0.1677 -0.3604  0.0458
 3541W        W 7285   8.056   3.839  12.314 -0.2999 -0.0764  0.2836
 3542W        W 7286   8.028   0.711   1.118 -0.0765 -0.3668 -0.0610
 3543W        W 7287   1.876   2.811   0.292 -0.2267 -0.0456  0.0658
 3544W        W 7288   6.392   9.215  10.818  0.0350 -0.3344 -0.0717
 3545W        W 7289   1.771   9.013  12.525  0.1928 -0.0564 -0.2748
 3546W        W 7290   6.304   1.474   1.460 -0.0698 -0.1229  0.0629
 3547W        W 7291   9.687   0.214  11.750 -0.2657 -0.1426  0.2174
 3548W        W 7292   1.338   0.769  12.415  0.1820  0.3156 -0.0746
 3549W        W 7293   4.762   4.061   2.858 -0.1026  0.2950  0.0246
 3550W        W 7294   3.359   3.382  10.084 -0.1988  0.0120 -0.0274
 3551W        W 7295   9.279   8.977  11.052  0.2942 -0.0788 -0.0765
 3552W        W 7296   6.015   0.020   1.083 -0.2878 -0.1511 -0.0656
 3553W        W 7297   0.124   1.560   0.089  0.2017  0.6084  0.1951
 3554W        W 7298   2.448   9.536   9.652 -0.0965 -0.2342  0.0261
 3555W        W 7299   6.334   0.929  10.211  0.2321  0.1718 -0.2414
 3556W        W 7300   9.012   7.161   9.593 -0.0574  0.0503 -0.1435
 3557W        W 7301   9.891   1.091  12.359  0.1389  0.1124 -0.0324
 3558W        W 7302   9.232   7.587   9.962  0.0657 -0.0082  0.0854
 3559W        W 7303   6.556   9.225   1.634 -0.0708 -0.3616  0.3218
 3560W        W 7304   5.440   2.265  12.003 -0.1057 -0.1297  0.2824
 3561W        W 7305   1.234   1.128  12.074  0.2728 -0.1550 -0.1675
 3562W        W 7306   4.021   8.625  12.728 -0.4033  0.1622  0.0641
 3563W        W 7307   2.308   8.933  10.685  0.0400  0.2223 -0.1417
 3564W        W 7308   5.162   6.398  12.689  0.1568  0.0308  0.0013
 3565W        W 7309   5.246   8.465  12.352  0.1071  0.0032  0.1438
 3566W        W 7310   9.526   7.639   0.813  0.0555 -0.0911 -0.2909
 3567W        W 7311   4.907   2.466   1.484  0.4123 -0.0121  0.2083
 3568W        W 7312   1.666   0.178   1.531  0.1656 -0.0306  0.1682
 3569W        W 7313   2.419   1.451   1.637  0.1124  0.0017  0.2090
 3570W        W 7314   3.596   7.716   2.639 -0.1483 -0.1743 -0.1464
 3571W        W 7315   4.494   0.585  11.716 -0.2365  0.0074 -0.4653
 3572W        W 7316   4.856   9.481   0.920 -0.2343 -0.0030 -0.0778
 3573W        W 7317   4.178   3.973   2.341  0.1392 -0.4064 -0.2591
 3574W        W 7318   4.944   4.993  11.318 -0.0703  0.0562 -0.1395
 3575W        W 7319   3.772   4.147  11.696  0.1422  0.0240  0.0991
 3576W        W 7320   3.541   8.290   3.930  0.2777 -0.1543 -0.0206
 3577W        W 7321   2.580   9.117   4.238 -0.3130  0.0842  0.1899
 3578W        W 7322   2.890   0.783   0.745  0.0915  0.0684 -0.0565
 3579W        W 7323   7.016   6.132   1.603  0.1208  0.3824 -0.1938
 3580W        W 7324   3.056   3.188  12.490  0.0727 -0.0194  0.0833
 3581W        W 7325   4.246   8.865  11.746 -0.2205  0.3560 -0.0762
 3582W        W 7326   4.955   4.941   1.838  0.2122  0.0821 -0.0257
 3583W        W 7327   4.465   3.284   9.870 -0.3545 -0.0789  0.0973
 3584W        W 7328   0.219   6.608   4.421 -0.2242 -0.1019  0.0766
 3585W        W 7329   6.987   6.266   3.119  0.0944 -0.0515 -0.0705
 3586W        W 7330   8.771   3.764   0.156 -0.0350  0.0781  0.1966
 3587W        W 7331   5.848   8.160   2.307 -0.0360 -0.0321  0.2965
 3588W        W 7332   7.352   4.275   3.018  0.3392 -0.0022  0.1053
 3589W        W 7333   2.263   7.421   0.567  0.0301 -0.0416  0.2962
 3590W        W 7334   8.663   4.420  10.931  0.0482 -0.1462 -0.0757
 3591W        W 7335   0.306   8.593  11.167  0.2384 -0.2381  0.0544
 3592W        W 7336   9.380   5.563   4.617  0.2853 -0.0169  0.0171
 3593W        W 7337   0.629   4.407   9.781  0.4099 -0.2226  0.0713
 3594W        W 7338   1.240   4.197   1.947 -0.0874 -0.2805 -0.1299
 3595W        W 7339   9.458   8.200  12.663 -0.1341 -0.2928  0.0118
 3596W        W 7340   9.082   4.930   9.669 -0.3490 -0.1894  0.1828
 3597W        W 7341   8.722   3.960  11.247  0.1536  0.0185 -0.0535
 3598W        W 7342   1.771   8.730  10.632 -0.1787 -0.2332 -0.3112
 3599W        W 7343   0.691   9.599  10.657  0.4659 -0.1568  0.1907
 3600W        W 7344   1.542   4.160   0.388  0.2229 -0.1079  0.6219
 3601W        W 7345   5.916   4.889   1.543  0.2486 -0.3931 -0.2357
 3602W        W 7346   4.242   2.010  10.612 -0.1338 -0.2473  0.2770
 3603W        W 7347   8.581   0.401   2.920  0.4021 -0.0466 -0.0994
 3604W        W 7348   5.135   6.872   0.163  0.1773 -0.0696 -0.0673
 3605W        W 7349   2.653   0.684   4.540  0.1559 -0.0911 -0.1321
 3606W        W 7350   5.869   8.528   5.043 -0.2795 -0.0108 -0.1876
 3607W        W 7351   6.010   9.852   4.083  0.1816  0.0831 -0.1116
 3608W        W 7352   5.355   6.431   8.270  0.0422  0.2984  0.0259
 3609W        W 7353   3.358   1.032   0.808 -0.1321  0.1384  0.0662
 3610W        W 7354   0.654   7.014   0.691  0.2321  0.1739 -0.0217
 3611W        W 7355   9.344   8.056   3.429 -0.1350  0.3724  0.3478
 3612W        W 7356   7.427   6.955   1.932  0.3099 -0.1738 -0.1174
 3613W        W 7357   9.743   0.563   1.433  0.1534 -0.1261 -0.2188
 3614W        W 7358   1.205   6.382  12.713  0.0375 -0.1655  0.2028
 3615W        W 7359   6.595   1.129   1.094  0.3138 -0.0836 -0.3145
 3616W        W 7360   9.758   8.542  11.244 -0.1146  0.0114 -0.3605
 3617W        W 7361   2.610   9.175  11.445  0.1573 -0.2374  0.1482
 3618W        W 7362   8.954   7.057   0.446 -0.3628 -0.0189  0.4530
 3619W        W 7363   4.198   0.985   8.595  0.1123  0.1360  0.1057
 3620W        W 7364   5.473   8.675  11.833  0.3147  0.2506 -0.3528
 3621W        W 7365   3.074   1.230  10.130  0.0121 -0.3174  0.1766
 3622W        W 7366   9.576   3.694  10.828  0.2051  0.0676  0.0798
 3623W        W 7367   9.055   0.641  11.206  0.1270  0.1749 -0.0378
 3624W        W 7368   4.728   5.136   0.161 -0.0274 -0.0192 -0.0969
 3625W        W 7369   0.191   7.615  11.671 -0.2503  0.4139  0.1129
 3626W        W 7370   3.211   5.795   3.762  0.1780 -0.2705 -0.1602
 3627W        W 7371   7.282   5.477   9.640  0.1053 -0.0494 -0.2301
 3628W        W 7372   6.993   6.614   4.939 -0.1008  0.0935  0.0443
 3629W        W 7373   5.691   5.683   1.165  0.0031 -0.0934  0.2853
 3630W        W 7374   0.647   6.087   0.514  0.1115  0.1496 -0.1065
 3631W        W 7375   2.693   1.481  11.441  0.0155 -0.0567  0.2824
 3632W        W 7376   0.055   6.417  10.468  0.3594 -0.2421  0.0674
 3633W        W 7377   2.856   0.479   0.361 -0.3575 -0.0866 -0.0276
 3634W        W 7378   0.942   5.772   9.365  0.0452  0.2399 -0.3215
 3635W        W 7379   4.146   8.857   4.626  0.0788  0.4340  0.0355
 3636W        W 7380   2.723   4.255  10.956 -0.0222 -0.2018  0.0900
 3637W        W 7381   8.175   9.843   1.866 -0.0727  0.2397  0.0465
 3638W        W 7382   1.863   1.760   9.539 -0.0253  0.2028 -0.1659
 3639W        W 7383   6.679   4.479   3.654  0.1720 -0.4561  0.4653
 3640W        W 7384   4.231   4.761   3.380 -0.2656 -0.1518 -0.2894
 3641W        W 7385   5.961   4.606   3.071 -0.0143 -0.0142  0.1508
 3642W        W 7386   1.215   6.839   0.191 -0.1280  0.0354 -0.1548
 3643W        W 7387   3.467   9.761  12.421 -0.2322  0.0072  0.0086
 3644W        W 7388   3.697   9.518  10.695 -0.2927  0.1504 -0.0266
 3645W        W 7389   1.958   3.789   2.598  0.0444 -0.0816 -0.0320
 3646W        W 7390   5.069   3.710   9.779 -0.0935 -0.0894  0.1764
 3647W        W 7391   8.994   6.913   4.300 -0.2238 -0.1282  0.0631
 3648W        W 7392   8.383   7.665  11.940 -0.3502  0.0165 -0.1599
 3649W        W 7393   9.135   1.653  10.697 -0.2146 -0.2076 -0.0171
 3650W        W 7394   0.603   4.279   3.309 -0.3047 -0.1999 -0.2158
 3651W        W 7395   8.718   3.724   1.509  0.1483  0.0650  0.2921
 3652W        W 7396   3.390   4.564  12.473  0.0370  0.0432  0.0035
 3653W        W 7397   8.154   8.518   8.477 -0.2835  0.1487 -0.1109
 3654W        W 7398   0.364   7.128  11.629 -0.1453  0.1086  0.0973
 3655W        W 7399   2.600   1.558  12.266 -0.2424 -0.0918  0.0618
 3656W        W 7400   6.344   7.512   2.522 -0.0167  0.1295  0.1286
 3657W        W 7401   4.444   2.827  10.677  0.2012 -0.1154 -0.0610
 3658W        W 7402   6.865   7.302   3.545  0.0735  0.1530 -0.3508
 3659W        W 7403   7.250   5.830   4.321 -0.0154 -0.0347 -0.0403
 3660W        W 7404   2.602   3.217   2.272 -0.3382  0.1005 -0.2170
 3661W        W 7405   1.368   3.398  10.143 -0.0298  0.0198  0.2493
 3662W        W 7406   4.416   8.396   8.900 -0.0412 -0.2732 -0.3155
 3663W        W 7407   6.184   3.052   2.909  0.0623 -0.1030 -0.0583
 3664W        W 7408   6.302   8.321   0.218  0.0730 -0.1200 -0.2290
 3665W        W 7409   5.694   1.929   1.891  0.1608  0.1275  0.0001
 3666W        W 7410   7.492   4.463   1.940 -0.2064  0.0924 -0.1586
 3667W        W 7411   4.152   3.272   9.473  0.4014 -0.1716  0.1550
 3668W        W 7412   8.749   5.599   5.141  0.2289  0.2538 -0.1114
 3669W        W 7413   3.542   3.187  11.305  0.4316  0.0861 -0.1967
 3670W        W 7414   5.706   2.741   3.356  0.3057 -0.1045  0.1037
 3671W        W 7415   8.081   6.927   9.151 -0.0210 -0.1576  0.3939
 3672W        W 7416   8.558   2.387  10.348 -0.3249  0.0109 -0.3893
 3673W        W 7417   1.538   3.638   1.761 -0.1373 -0.0246 -0.0407
 3674W        W 7418   3.344   2.656  10.274  0.0273  0.0595  0.0279
 3675W        W 7419   7.391   7.328  10.205  0.3733 -0.3345  0.0007
 3676W        W 7420   3.721   4.580   1.575  0.0757  0.1274 -0.2963
 3677W        W 7421   4.174   3.266   8.927  0.0084 -0.2103  0.0976
 3678W        W 7422   0.870   8.432   3.911 -0.0103  0.0577  0.1541
 3679W        W 7423   4.871   3.802   8.522  0.2129 -0.3720  0.1183
 3680W        W 7424   2.313   8.471   9.766 -0.1409  0.2593 -0.1938
 3681W        W 7425   5.203   8.455   4.375 -0.2470 -0.2273 -0.1552
 3682W        W 7426   4.699   8.604   2.884  0.0355  0.0273 -0.3320
 3683W        W 7427   6.915   3.015   1.426  0.0085 -0.0430  0.1907
 3684W        W 7428   2.440   5.824  12.354 -0.1008  0.0875  0.4560
 3685W        W 7429   6.614   2.662   2.281 -0.2797 -0.1815  0.0586
 3686W        W 7430   3.786   3.574   8.037 -0.1830 -0.0974  0.0062
 3687W        W 7431   2.194   7.711   2.894  0.0704  0.2451 -0.2931
 3688W        W 7432   5.864   2.914   9.676 -0.1955  0.1305  0.1935
 3689W        W 7433   3.329   9.858  10.678  0.1018 -0.0372  0.1487
 3690W        W 7434   7.615   0.605  10.235  0.0551 -0.1349  0.0961
 3691W        W 7435   3.051   6.796   1.910 -0.0310  0.3214  0.0905
 3692W        W 7436   1.137   6.010   0.474  0.4645 -0.3694 -0.1699
 3693W        W 7437   1.842   2.690   1.829 -0.0975 -0.1689  0.1722
 3694W        W 7438   5.839   4.196   1.810  0.0357 -0.0631  0.4013
 3695W        W 7439   6.140   6.094   8.655  0.3095  0.0741  0.1396
 3696W        W 7440   1.241   5.876  12.744  0.2237  0.0987 -0.0655
 3697W        W 7441   4.827   8.394   2.291  0.2073 -0.0836  0.1707
 3698W        W 7442   6.058   1.564  11.855 -0.0960  0.0919 -0.0330
 3699W        W 7443   9.661   6.368   2.739  0.1671  0.3492  0.0356
 3700W        W 7444   4.626   3.303   4.232  0.2960  0.0121 -0.1850
 3701W        W 7445   0.324   5.543  11.624  0.2150 -0.0862 -0.1236
 3702W        W 7446   2.727   4.460   3.434  0.0977 -0.3121  0.1366
 3703W        W 7447   5.755   1.590  10.494 -0.1643 -0.0781  0.2204
 3704W        W 7448   8.142   6.951   2.994  0.2787 -0.1470 -0.0607
 3705W        W 7449   7.493   9.929  12.676  0.0012  0.0246 -0.1616
 3706W        W 7450   0.899   6.955   2.833 -0.2007 -0.1465  0.2546
 3707W        W 7451   6.529   1.614   1.978  0.1460 -0.1874 -0.2331
 3708W        W 7452   4.224   8.989   9.456  0.2949 -0.0661  0.2572
 3709W        W 7453   9.481   6.776   1.241 -0.2082 -0.4084  0.3394
 3710W        W 7454   7.265   9.810  10.910 -0.0320 -0.0139 -0.1882
 3711W        W 7455   2.908   7.928  10.814  0.2181 -0.2736 -0.0483
 3712W        W 7456   8.368   0.018  10.312 -0.1304  0.1155 -0.1592
 3713W        W 7457   4.170   8.727  11.171  0.1781  0.1435  0.1121
 3714W        W 7458   2.499   9.331   3.425  0.0377 -0.0846 -0.0594
 3715W        W 7459   6.724   9.201   4.133  0.0416 -0.0903  0.1594
 3716W        W 7460   6.500   5.634   4.234  0.0615  0.0620  0.0511
 3717W        W 7461   0.617   5.272  10.769 -0.0887 -0.1067  0.0000
 3718W        W 7462   1.963   7.386   3.816 -0.1008  0.0706 -0.0034
 3719W        W 7463   2.463   7.964  10.473 -0.3160  0.4814  0.1324
 3720W        W 7464   3.153   3.346  11.731  0.1460  0.2116 -0.0618
 3721W        W 7465   3.666   4.190   3.887  0.1198  0.0881  0.2576
 3722W        W 7466   8.924   7.747   3.329  0.1542  0.0823  0.1296
 3723W        W 7467   3.454   5.954   2.960  0.2385 -0.2207 -0.3947
 3724W        W 7468   4.796   2.494   2.047  0.1215 -0.2631 -0.0216
 3725W        W 7469   9.631   2.314   1.567 -0.1675  0.2499  0.2499
 3726W        W 7470   2.195   1.710  11.347 -0.1332 -0.0698  0.2840
 3727W        W 7471   1.268   5.840  10.621  0.3543 -0.2764 -0.0015
 3728W        W 7472   0.219   0.325   1.662 -0.0582  0.3603 -0.1835
 3729W        W 7473   1.995   2.636   2.801 -0.0662 -0.2325  0.2512
 3730W        W 7474   4.541   8.576   0.516 -0.1830 -0.2078 -0.0390
 3731W        W 7475   9.084   6.827   3.821  0.0170 -0.0980 -0.1245
 3732W        W 7476   0.310   8.210   1.422 -0.0300 -0.0055 -0.5126
 3733W        W 7477   2.002   8.407   2.203 -0.2275 -0.2975 -0.3407
 3734W        W 7478   5.453   2.973   2.858 -0.1979  0.3158 -0.0262
 3735W        W 7479   1.664   2.649   1.353  0.0332 -0.2177  0.0888
 3736W        W 7480   8.958   5.663   2.582  0.0918  0.0160  0.0545
 3737W        W 7481   5.016   2.201   9.480  0.0184 -0.0408  0.2460
 3738W        W 7482   5.410   8.624   2.990  0.0485 -0.1362  0.1147
 3739W        W 7483   1.113   8.022   3.782  0.0502 -0.0073  0.2407
 3740W        W 7484   7.524   3.551   2.973 -0.2519  0.0629 -0.1449
 3741W        W 7485   5.015   2.468  11.266  0.1574  0.2591  0.0018
 3742W        W 7486   5.530   4.185   2.174  0.1146  0.1034 -0.3408
 3743W        W 7487   2.583   8.376   8.347  0.0457 -0.2102 -0.2188
 3744W        W 7488   6.425   5.011   2.867 -0.5202 -0.1718 -0.3489
 3745W        W 7489   5.606   0.518   9.978  0.1836 -0.0936  0.2202
 3746W        W 7490   9.475   7.108   8.560  0.1137  0.3280  0.0857
 3747W        W 7491   8.541   8.141  11.060  0.0771  0.0890 -0.2613
 3748W        W 7492   3.805   4.960   4.349 -0.0355 -0.2774 -0.0851
 3749W        W 7493   8.631   8.991  10.188 -0.1120 -0.2225  0.0938
 3750W        W 7494   1.782   8.210   0.941 -0.3649  0.3978 -0.1299
 3751W        W 7495   6.696   3.144  10.094 -0.0595  0.0914 -0.4191
 3752W        W 7496   8.604   9.394  11.388  0.1594 -0.0443 -0.2367
 3753W        W 7497   9.071   0.138  11.641 -0.0178  0.1681  0.1442
 3754W        W 7498   3.981   6.006  11.372  0.0388 -0.1989 -0.2054
 3755W        W 7499   0.778   9.479   1.267  0.2123 -0.1217 -0.2300
 3756W        W 7500   2.352   6.095   2.196 -0.0595  0.1653  0.0224
 3757W        W 7501   8.097   5.875   8.270  0.1597  0.1157  0.1886
 3758W        W 7502   9.899   2.721  11.086 -0.2109  0.2157  0.1455
 3759W        W 7503   1.288   2.322  10.781  0.0650 -0.2196 -0.1055
 3760W        W 7504   0.842   4.138  10.615  0.0117  0.3212 -0.0852
 3761W        W 7505   4.884   9.937   3.188  0.2734 -0.0330 -0.0756
 3762W        W 7506   8.577   0.503  10.276 -0.2370  0.2766 -0.0666
 3763W        W 7507   3.383   9.013  10.443  0.0010  0.0290  0.0861
 3764W        W 7508   1.519   7.627   8.991  0.1404  0.1018 -0.1267
 3765W        W 7509   8.379   5.856   1.992 -0.3856 -0.0867 -0.1439
 3766W        W 7510   2.929   2.228  12.733 -0.1919 -0.2036  0.0474
 3767W        W 7511   0.990   8.430   3.429 -0.1761 -0.0926 -0.1069
 3768W        W 7512   2.675   4.172   0.789  0.0188 -0.0664 -0.0732
 3769W        W 7513   2.462   3.030  10.230  0.3541 -0.2685  0.0419
 3770W        W 7514   1.782   7.040   4.104  0.0687  0.2475  0.1705
 3771W        W 7515   4.454   0.059   2.619 -0.0662  0.0100 -0.1392
 3772W        W 7516   1.735   9.527   2.697  0.0664 -0.1899 -0.3783
 3773W        W 7517   8.674   4.505   2.481 -0.1800 -0.1456 -0.0232
 3774W        W 7518   9.795   9.874   9.894 -0.0521 -0.0426 -0.2154
 3775W        W 7519   5.463   3.644  11.085  0.1025 -0.0529 -0.0402
 3776W        W 7520   1.197   6.381   1.021 -0.0445  0.1670 -0.0982
 3777W        W 7521   2.216   0.512   3.324  0.0403 -0.1530 -0.2600
 3778W        W 7522   9.896   7.970   9.450  0.1292  0.2486 -0.1335
 3779W        W 7523   1.298   7.104   9.694 -0.0208  0.1120  0.1008
 3780W        W 7524   2.592   9.385   2.204  0.2655 -0.1025 -0.1553
 3781W        W 7525   2.897   0.187  12.683  0.2862  0.0029 -0.0044
 3782W        W 7526   8.796   4.664   8.723 -0.1341  0.2432  0.2770
 3783W        W 7527   1.915   6.482   4.971 -0.2416 -0.1765  0.4251
 3784W        W 7528   9.265   8.526   0.866  0.5432  0.1953 -0.1257
 3785W        W 7529   2.755   5.925   1.477 -0.1616 -0.2277  0.0877
 3786W        W 7530   8.472   6.236   0.549 -0.1134 -0.1537 -0.2266
 3787W        W 7531   9.627   8.122   0.698 -0.3116  0.0704  0.2132
 3788W        W 7532   5.109   1.384   9.635  0.2616  0.0321 -0.3361
 3789W        W 7533   3.811   9.655   9.696 -0.2064 -0.3270 -0.0211
 3790W        W 7534   5.557   8.109  12.154  0.0087 -0.2523  0.4809
 3791W        W 7535   4.140   2.734  11.609  0.1589  0.0817 -0.1817
 3792W        W 7536   2.396   7.783   9.539  0.1888  0.0454 -0.0546
 3793W        W 7537   2.985   8.846  11.740 -0.0009  0.1460 -0.0858
 3794W        W 7538   9.013   8.232  10.593  0.0266 -0.0743 -0.0098
 3795W        W 7539   5.615   7.219  11.835  0.1012  0.3180 -0.0140
 3796W        W 7540   5.454   7.811   4.827  0.0001  0.0383 -0.0008
 3797W        W 7541   2.799   1.773   3.640  0.3915 -0.1271  0.3520
 3798W        W 7542   7.244   8.074   8.830  0.1279 -0.1030  0.0160
 3799W        W 7543   5.994   2.472   2.517  0.0753  0.2783 -0.0123
 3800W        W 7544   1.438   5.176   8.753  0.0430 -0.5462 -0.0235
 3801W        W 7545   4.666   3.110   1.561 -0.1938  0.0546 -0.3227
 3802W        W 7546   1.433   3.698  11.559 -0.1367  0.0452 -0.1181
 3803W        W 7547   9.810   6.976  10.451 -0.2707 -0.1178 -0.1169
 3804W        W 7548   9.858   1.727  11.256 -0.1679  0.1832  0.0387
 3805W        W 7549   8.105   9.046   2.843 -0.0129  0.1921  0.0063
 3806W        W 7550   3.839   9.067   2.702 -0.1089 -0.0287 -0.0744
 3807W        W 7551   1.536   6.555   3.238 -0.4461 -0.0163 -0.2455
 3808W        W 7552   0.904   9.180  11.692  0.2156 -0.3233 -0.0825
 3809W        W 7553   3.169   7.757   0.840 -0.1438  0.0622  0.0555
 3810W        W 7554   2.701   0.813  11.837 -0.3131  0.2043 -0.1377
 3811W        W 7555   1.365   4.155   4.024 -0.4285  0.0786  0.4186
 3812W        W 7556   0.355   7.574   3.246 -0.2014 -0.3249 -0.4280
 3813W        W 7557   5.762   6.406   3.560  0.0419  0.0966  0.0845
 3814W        W 7558   4.281   8.882   2.923  0.1377 -0.1606 -0.1467
 3815W        W 7559   3.674   6.340  12.638  0.0262 -0.0763 -0.0632
 3816W        W 7560   3.619   6.790   2.678 -0.3728  0.2602 -0.0375
 3817W        W 7561   3.407   9.260   9.636  0.1605  0.1316 -0.2652
 3818W        W 7562   9.884   2.025  10.630 -0.2399 -0.1795  0.3501
 3819W        W 7563   1.452   7.942   4.313  0.0113 -0.2211 -0.4869
 3820W        W 7564   3.592   1.189  10.045  0.3274 -0.1548 -0.2159
 3821W        W 7565   2.410   2.278  10.915  0.2210 -0.0615 -0.0376
 3822W        W 7566   2.322   0.191  12.320 -0.1922  0.1694 -0.1398
 3823W        W 7567   6.190   1.915   3.340  0.0788  0.0293 -0.0786
 3824W        W 7568   6.268   2.220   0.842 -0.1021 -0.0652  0.0191
 3825W        W 7569   2.637   2.839  11.015  0.0009 -0.0402 -0.1123
 3826W        W 7570   8.960   2.933   9.259 -0.0684  0.2286  0.0568
 3827W        W 7571   5.149   8.696   2.514  0.0027  0.1886 -0.1116
 3828W        W 7572   9.027   6.051   4.887 -0.1282 -0.0308  0.0356
 3829W        W 7573   1.654   6.838   9.991 -0.1027 -0.4854 -0.0518
 3830W        W 7574   2.368   1.527   8.641  0.0007  0.0708 -0.0851
 3831W        W 7575   1.061   7.483   1.908 -0.0990  0.0736  0.0003
 3832W        W 7576   9.108   7.606   1.130  0.0473  0.3336  0.0902
 3833W        W 7577   6.327   2.701  11.930 -0.2159 -0.0118  0.1321
 3834W        W 7578   1.318   4.962   0.037 -0.1850  0.1039  0.1925
 3835W        W 7579   1.329   9.044   0.166  0.1130  0.2647  0.1803
 3836W        W 7580   3.886   0.165   2.454 -0.1693  0.1284 -0.0663
 3837W        W 7581   3.347   4.209  12.115 -0.3115  0.1177  0.1648
 3838W        W 7582   5.481   9.694   1.277  0.0824  0.1277  0.2021
 3839W        W 7583   3.566   6.251   0.353  0.0033 -0.1499  0.0640
 3840W        W 7584   1.626   5.560  11.545  0.0584 -0.3529  0.0999
 3841W        W 7585   2.496   4.273  12.624 -0.2881 -0.4103 -0.0437
 3842W        W 7586   6.302   2.859   3.419 -0.1425  0.2595  0.0642
 3843W        W 7587   5.950   0.768   9.740  0.2916 -0.2227  0.3595
 3844W        W 7588   7.796   8.660  10.644 -0.0286 -0.0064  0.0964
 3845W        W 7589   3.583   2.159   3.700 -0.0566  0.3034  0.1897
 3846W        W 7590   5.046   2.161   2.343  0.1880 -0.3137 -0.1392
 3847W        W 7591   8.718   1.128   1.684  0.1018 -0.1110 -0.1842
 3848W        W 7592   2.140   4.346   0.560 -0.1732 -0.1311 -0.0345
 3849W        W 7593   0.823   9.458   0.759 -0.0587  0.0344 -0.1285
 3850W        W 7594   7.137   1.035   9.724 -0.0856 -0.1682  0.0781
 3851W        W 7595   1.269   6.921   3.125  0.1186  0.1022 -0.0911
 3852W        W 7596   2.342   7.708  11.994  0.0971 -0.1311  0.2982
 3853W        W 7597   5.300   4.476   9.242  0.0603 -0.2192  0.1832
 3854W        W 7598   5.809   4.481  10.482 -0.0702 -0.2230 -0.0296
 3855W        W 7599   3.679   2.491   8.591  0.1057  0.1811  0.1877
 3856W        W 7600   5.949   5.204  10.827 -0.1526 -0.1380  0.1429
 3857W        W 7601   4.085   7.042  10.816 -0.0244 -0.1119  0.0283
 3858W        W 7602   6.157   8.892  12.292  0.1540  0.0866 -0.2347
 3859W        W 7603   4.655   3.502  11.588 -0.1026 -0.3446  0.2068
 3860W        W 7604   8.324   7.159  10.532  0.4754  0.1654  0.1747
 3861W        W 7605   4.184   5.723   8.685 -0.0781 -0.0666 -0.1557
 3862W        W 7606   0.662   5.311  11.346  0.1072 -0.0884  0.0963
 3863W        W 7607   6.390   6.239   1.250  0.1284  0.0899  0.1433
 3864W        W 7608   4.925   1.636  10.132 -0.0330 -0.0831 -0.1594
 3865W        W 7609   6.652   5.896   0.008  0.0778 -0.0619 -0.0160
 3866W        W 7610   8.356   5.123   1.570 -0.0656  0.3504 -0.1934
 3867W        W 7611   6.278   1.441  10.400  0.2009 -0.1590 -0.2437
 3868W        W 7612   8.362   7.087   2.173 -0.1042  0.1900  0.0124
 3869W        W 7613   6.950   8.975   1.129 -0.4015  0.1898  0.4289
 3870W        W 7614   7.156   3.109   3.486 -0.3626 -0.0324 -0.1501
 3871W        W 7615   6.945   2.122  12.060 -0.3264  0.0195 -0.0600
 3872W        W 7616   3.142   2.272   2.564  0.2451  0.2764 -0.3526
 3873W        W 7617   5.416   0.355   4.493  0.0488  0.1238  0.2082
 3874W        W 7618   8.491   3.123  11.428 -0.2597 -0.0107 -0.1781
 3875W        W 7619   3.646   5.815   1.692 -0.1602  0.1110  0.1655
 3876W        W 7620   6.872   9.258  11.555  0.1435 -0.2482 -0.0142
 3877W        W 7621   9.334   0.589  11.698 -0.1120  0.0534  0.1200
 3878W        W 7622   1.896   9.383   0.555 -0.1674 -0.2264  0.2910
 3879W        W 7623   0.900   4.802   8.544 -0.3785  0.1247 -0.0465
 3880W        W 7624   8.842   5.598  10.893  0.3537 -0.0411  0.1508
 3881W        W 7625   7.502   6.224  10.062  0.1132 -0.2082 -0.3348
 3882W        W 7626   1.931   6.259   1.227  0.2793 -0.0496  0.1876
 3883W        W 7627   0.703   4.771   1.694 -0.1492  0.2208  0.0550
 3884W        W 7628   4.307   9.035   4.170 -0.0522  0.0513  0.1955
 3885W        W 7629   5.430   3.094   1.491 -0.2096  0.0278 -0.0519
 3886W        W 7630   9.883   9.671  11.176  0.0743  0.0250 -0.0600
 3887W        W 7631   1.033   1.849   8.954  0.2063  0.3318  0.0661
 3888W        W 7632   9.702   8.430   2.428 -0.1902  0.0580  0.2565
 3889W        W 7633   1.820   5.443   0.562 -0.2583  0.2257  0.1759
 3890W        W 7634   8.278   1.335   1.833 -0.1786 -0.2996  0.0192
 3891W        W 7635   9.945   8.894   9.156  0.0936 -0.3463 -0.0979
 3892W        W 7636   6.538   9.573  10.299  0.0358 -0.1364  0.0404
 3893W        W 7637   0.598   0.155   2.439 -0.1266  0.1880  0.0200
 3894W        W 7638   4.012   3.999   0.747  0.1107  0.1995  0.1928
 3895W        W 7639   9.529   3.345   9.649  0.1472 -0.1315 -0.1771
 3896W        W 7640   9.835   6.270  11.439  0.3616 -0.2077  0.0976
 3897W        W 7641   5.637   5.999   9.460  0.1128 -0.0726  0.0831
 3898W        W 7642   7.881   2.829   0.356 -0.1673 -0.1169 -0.0085
 3899W        W 7643   2.942   5.426   2.335  0.0231  0.1126 -0.1787
 3900W        W 7644   3.955   9.942   4.675 -0.1461 -0.0180 -0.2626
 3901W        W 7645   8.175   7.449   9.178  0.0218 -0.1094  0.3148
 3902W        W 7646   8.261   7.295   0.980  0.0316 -0.0993 -0.0147
 3903W        W 7647   4.944   2.011  11.018  0.1865 -0.1654 -0.0055
 3904W        W 7648   9.718   4.430   3.881  0.1176  0.1658  0.0297
 3905W        W 7649   0.360   5.793   3.293 -0.2032  0.5435  0.0161
 3906W        W 7650   7.229   4.044   8.985 -0.0129 -0.0844 -0.1130
 3907W        W 7651   0.231   1.390   1.706 -0.0660  0.4517  0.0668
 3908W        W 7652   1.800   4.814   3.533  0.0784  0.1116 -0.1419
 3909W        W 7653   6.652   1.487  12.640  0.1593 -0.0620 -0.3053
 3910W        W 7654   0.963   7.997   8.793  0.4755  0.1495 -0.1484
 3911W        W 7655   2.025   0.369   9.365  0.1867  0.0572 -0.1242
 3912W        W 7656   3.423   1.449   9.651 -0.0071  0.2141 -0.1627
 3913W        W 7657   6.628   6.407  12.670  0.0764 -0.2897 -0.3450
 3914W        W 7658   3.022   6.363   0.547  0.0918  0.0069 -0.3607
 3915W        W 7659   8.065   5.269   3.429 -0.0912 -0.0610 -0.1842
 3916W        W 7660   5.439   9.912  12.538 -0.2183  0.0131  0.0025
 3917W        W 7661   3.316   7.052   8.575  0.1126  0.0020 -0.0336
 3918W        W 7662   7.927   3.405   9.603 -0.1266  0.0873 -0.1225
 3919W        W 7663   7.213   8.376  11.503  0.4346 -0.0000 -0.3220
 3920W        W 7664   0.950   5.604  10.928  0.0848 -0.3509  0.2065
 3921W        W 7665   7.131   3.794   3.113  0.0219 -0.2676  0.3531
 3922W        W 7666   9.768   9.802   3.886 -0.3449 -0.1303 -0.1017
 3923W        W 7667   9.926   1.060   9.918  0.1363 -0.1270  0.3492
 3924W        W 7668   9.894   7.620   0.038 -0.0602 -0.2700  0.2689
 3925W        W 7669   5.087   5.979   1.645  0.2099  0.0247 -0.0013
 3926W        W 7670   4.538   1.525   0.467 -0.0792  0.1327 -0.0385
 3927W        W 7671   8.568   4.722   0.257  0.0791 -0.1879  0.0933
 3928W        W 7672   4.078   9.027   1.230  0.3027 -0.1930 -0.0955
 3929W        W 7673   6.007   0.378   1.427 -0.1370 -0.2307  0.2647
 3930W        W 7674   2.935   1.534   3.085  0.2237 -0.2045 -0.0977
 3931W        W 7675   6.996   5.980   2.520  0.2614 -0.0255 -0.2409
 3932W        W 7676   6.591   6.755   3.089 -0.0206 -0.0195  0.0862
 3933W        W 7677   1.786   9.486  11.640 -0.0767  0.2059  0.2352
 3934W        W 7678   3.306   0.794   0.375 -0.0995 -0.1550 -0.0248
 3935W        W 7679   1.371   6.059   9.426  0.1720 -0.2037  0.1987
 3936W        W 7680   8.493   8.107  10.584 -0.2548 -0.0018 -0.0404
 3937W        W 7681   1.591   5.001   3.967  0.1777 -0.1245 -0.0880
 3938W        W 7682   0.569   0.452   9.673  0.1167  0.1390 -0.1262
 3939W        W 7683   1.991   9.951   1.180  0.0114  0.3608 -0.1950
 3940W        W 7684   3.295   0.528   1.017 -0.2885  0.0643 -0.1552
 3941W        W 7685   9.406   4.881   0.927 -0.0843 -0.1085 -0.0348
 3942W        W 7686   0.409   4.292   0.822  0.4076  0.2453 -0.0192
 3943W        W 7687   9.818   8.122  11.000 -0.4137 -0.1332 -0.1466
 3944W        W 7688   3.113   2.405   0.601 -0.0544 -0.2156  0.2734
 3945W        W 7689   5.643   5.179   0.727  0.1694  0.0596  0.0390
 3946W        W 7690   6.825   2.422  11.713  0.0022  0.0931  0.1041
 3947W        W 7691   1.721   3.096   1.122  0.2751  0.0263  0.0245
 3948W        W 7692   9.552   2.986  10.174 -0.0515  0.1755  0.0796
 3949W        W 7693   3.156   2.213   4.048  0.0119 -0.0211 -0.3164
 3950W        W 7694   5.288   1.375  10.428 -0.2429 -0.0068  0.1608
 3951W        W 7695   2.750   1.206   1.976  0.1924 -0.0122 -0.2193
 3952W        W 7696   4.374   7.354   3.010  0.3915 -0.2365 -0.1344
 3953W        W 7697   5.777   6.567  11.570  0.0094  0.0151 -0.0915
 3954W        W 7698   5.678   5.449  11.769  0.0383 -0.0128 -0.0319
 3955W        W 7699   3.686   2.684   9.907  0.5117  0.1485  0.0512
 3956W        W 7700   4.504   8.883   0.113 -0.3198 -0.0810  0.0932
 3957W        W 7701   5.602   1.638   4.449 -0.0151 -0.1533  0.0362
 3958W        W 7702   3.382   5.134   2.279  0.1935  0.0973 -0.3349
 3959W        W 7703   8.253   0.955  11.671  0.1128 -0.0684  0.0939
 3960W        W 7704   8.702   1.882   1.431 -0.0220 -0.0690 -0.0588
 3961W        W 7705   5.745   6.485   4.457  0.0106 -0.0672 -0.1368
 3962W        W 7706   1.172   5.175   0.868 -0.3603  0.2664  0.1809
 3963W        W 7707   3.150   3.818   0.634  0.0750  0.4779 -0.1511
 3964W        W 7708   6.642   7.736   3.769  0.0796  0.2299  0.1550
 3965W        W 7709   8.052   1.202  12.032  0.0496  0.0135 -0.1063
 3966W        W 7710   1.808   1.605   1.455 -0.0311  0.0751  0.0269
 3967W        W 7711   9.494   6.226   1.324  0.0942  0.1972  0.1680
 3968W        W 7712   1.616   5.296   3.498 -0.3151  0.0897  0.1074
 3969W        W 7713   1.744   7.445  10.893  0.0409 -0.0159  0.1055
 3970W        W 7714   8.177   9.547   3.160  0.0751  0.1033 -0.1715
 3971W        W 7715   7.943   1.550   1.522 -0.1929 -0.0435  0.1119
 3972W        W 7716   6.488   0.486   9.929 -0.6405  0.2360 -0.1950
 3973W        W 7717   7.626   3.495  10.467 -0.0622 -0.2738  0.4735
 3974W        W 7718   7.156   1.681   3.609  0.2511  0.0908  0.1297
 3975W        W 7719   4.471   4.398   2.010  0.0234 -0.1867 -0.3812
 3976W        W 7720   5.599   6.763   1.873  0.0187  0.4919  0.1772
 3977W        W 7721   9.143   5.031   4.483 -0.0614  0.0199 -0.1699
 3978W        W 7722   8.334   6.267   3.362 -0.1299 -0.2733 -0.0490
 3979W        W 7723   1.221   2.789   3.206  0.0749  0.0773  0.0648
 3980W        W 7724   0.151   5.515   3.668 -0.2809  0.2225  0.2094
 3981W        W 7725   4.151   7.836   7.713  0.1488  0.0132  0.0266
 3982W        W 7726   4.465   4.689  10.645  0.1521  0.0479 -0.2022
 3983W        W 7727   6.707   0.267  12.166  0.1968  0.1267 -0.3536
 3984W        W 7728   0.119   5.406   2.936 -0.0152 -0.0380  0.2408
 3985W        W 7729   0.413   6.432  10.879 -0.1238 -0.1100  0.4162
 3986W        W 7730   0.720   6.319   0.000  0.2552  0.0880 -0.4156
 3987W        W 7731   3.012   0.368   4.644 -0.0698 -0.0560  0.0471
 3988W        W 7732   3.539   5.659  10.087  0.0087  0.5376 -0.0710
 3989W        W 7733   4.827   3.071  11.966  0.1718  0.0584 -0.0296
 3990W        W 7734   9.241   9.304   9.757  0.2358 -0.2092 -0.1798
 3991W        W 7735   4.942   2.840   4.044  0.4293  0.3343 -0.3023
 3992W        W 7736   3.167   4.322   0.687  0.1018 -0.2534  0.1158
 3993W        W 7737   9.448   1.944  11.017  0.1009  0.1540  0.0570
 3994W        W 7738   1.947   3.519   1.481  0.1332 -0.4318 -0.2556
 3995W        W 7739   1.879   8.565   0.471 -0.1053  0.0510  0.1488
 3996W        W 7740   6.641   9.130  12.361  0.2550  0.3093  0.0911
 3997W        W 7741   6.000   7.029  11.068  0.1120  0.2087 -0.2301
 3998W        W 7742   0.608   7.411  11.917  0.0444 -0.0162 -0.0334
 3999W        W 7743   5.932   0.781  12.710  0.0421 -0.0653 -0.0617
 4000W        W 7744   5.031   7.893   2.256 -0.1364  0.1246 -0.2958
 4001W        W 7745   2.316   4.661   0.880 -0.0532  0.1475 -0.1616
 4002W        W 7746   3.664   1.795   5.011  0.3183 -0.0312  0.1138
 4003W        W 7747   0.722   8.567   9.843 -0.0181  0.2417  0.0795
 4004W        W 7748   1.065   2.458   8.666  0.2469 -0.0039  0.0820
 4005W        W 7749   4.675   8.407  10.757  0.5434  0.1999 -0.1169
 4006W        W 7750   9.954   9.285  10.381 -0.4319  0.1676  0.1996
 4007W        W 7751   5.126   2.332  10.725 -0.0794  0.2361  0.1253
 4008W        W 7752   6.474   0.485   1.687  0.3046 -0.0150 -0.1101
 4009W        W 7753   2.625   4.935  12.007 -0.0589 -0.2055 -0.0918
 4010W        W 7754   1.740   4.402   9.528  0.0620 -0.1617  0.0303
 4011W        W 7755   3.531   0.493   4.144  0.1453 -0.1974 -0.0234
 4012W        W 7756   2.839   5.539   3.232  0.0821  0.0824 -0.1824
 4013W        W 7757   9.254   3.167  12.050 -0.0558 -0.4824  0.0599
 4014W        W 7758   5.832   2.891   0.132  0.2918 -0.2352  0.1202
 4015W        W 7759   3.264   8.524   2.179  0.2158  0.0389  0.0744
 4016W        W 7760   5.108   2.814   1.778 -0.0278  0.0874  0.0348
 4017W        W 7761   6.083   7.192   9.741 -0.1710  0.1595 -0.0823
 4018W        W 7762   1.239   2.397   0.782 -0.0438  0.1896 -0.1538
 4019W        W 7763   2.395   7.816   8.151  0.0341  0.0320  0.0793
 4020W        W 7764   3.720   3.618   0.208  0.1637  0.1103  0.1888
 4021W        W 7765   8.789   2.605  10.836  0.0292  0.1822 -0.2465
 4022W        W 7766   6.663   4.404   1.835 -0.0358 -0.3156 -0.1958
 4023W        W 7767   0.360   0.882   3.154 -0.1002 -0.1421  0.1397
 4024W        W 7768   1.710   6.799  11.587 -0.1936 -0.3613 -0.3511
 4025W        W 7769   2.281   2.397   4.209 -0.2137  0.4027  0.0096
 4026W        W 7770   4.776   7.597   3.378 -0.1635  0.0706  0.1555
 4027W        W 7771   6.441   4.205   2.741  0.0866  0.0814  0.2252
 4028W        W 7772   5.584   9.878   2.717  0.0905 -0.0955  0.1732
 4029W        W 7773   3.573   8.080  11.424 -0.0717  0.0242  0.1541
 4030W        W 7774   9.353   7.500   3.174 -0.0290  0.0933  0.0981
 4031W        W 7775   9.098   6.114  10.963 -0.2815 -0.0234 -0.0011
 4032W        W 7776   5.536   7.967  12.664  0.2153 -0.0853 -0.0524
 4033W        W 7777   5.242   0.528   9.624  0.0662  0.0017  0.2309
 4034W        W 7778   5.912   6.444  12.065 -0.1679  0.0297  0.1144
 4035W        W 7779   3.272   4.055  10.477 -0.4246  0.1063 -0.3322
 4036W        W 7780   0.305   0.648  10.071 -0.0825  0.2953  0.0207
 4037W        W 7781   4.592   2.482   3.967  0.0306 -0.1140  0.1255
 4038W        W 7782   1.864   6.563   2.470 -0.1906  0.1124 -0.0923
 4039W        W 7783   4.656   2.042   0.227 -0.1759 -0.1618  0.3334
 4040W        W 7784   6.643   2.481  12.760  0.2501  0.2916 -0.2402
 4041W        W 7785   3.252   0.444   5.166 -0.1375  0.0025 -0.0765
 4042W        W 7786   0.071   4.911   0.052 -0.0254  0.0401 -0.1798
 4043W        W 7787   3.854   2.413  10.341  0.0287  0.0906  0.1993
 4044W        W 7788   4.664   0.239   8.728 -0.2323 -0.2900 -0.0947
 4045W        W 7789   7.599   0.164   0.323  0.1475  0.1167  0.2299
 4046W        W 7790   1.875   0.614   1.708 -0.0342  0.3518  0.3466
 4047W        W 7791   8.493   7.152   1.455 -0.0467  0.0607  0.0150
 4048W        W 7792   7.875   1.298  12.478 -0.0494  0.2053 -0.2505
 4049W        W 7793   1.797   7.178   1.413 -0.0675  0.2130  0.1694
 4050W        W 7794   8.998   5.789   1.290 -0.0190  0.0329  0.0002
 4051W        W 7795   9.884   5.694  12.682  0.2444  0.1937  0.0151
 4052W        W 7796   5.664   7.538  12.312  0.1109  0.2103  0.2172
 4053W        W 7797   7.884   2.334  11.501  0.0370 -0.2201  0.2835
 4054W        W 7798   0.120   5.308   4.141  0.1956  0.0307  0.1726
 4055W        W 7799   0.933   2.114   2.302 -0.0023  0.0553 -0.1527
 4056W        W 7800   1.613   8.246  11.438 -0.0517  0.2791  0.2637
 4057W        W 7801   9.444   6.428   0.838  0.2364 -0.0152 -0.0765
 4058W        W 7802   3.320   8.839  11.063  0.2502 -0.0258 -0.2125
 4059W        W 7803   7.947   6.936  11.249 -0.0373 -0.0127  0.0785
 4060W        W 7804   5.480   0.422  11.595  0.3080 -0.0637  0.1797
 4061W        W 7805   2.057   9.904  11.978  0.0909  0.1305 -0.0086
 4062W        W 7806   2.223   9.525   1.030  0.3474  0.2462 -0.0477
 4063W        W 7807   6.967   3.268   8.699 -0.1550  0.3496 -0.1330
 4064W        W 7808   2.656   8.582  10.719 -0.0903 -0.3081 -0.3722
 4065W        W 7809   5.240   1.260  11.507 -0.0663  0.0951  0.0637
 4066W        W 7810   0.527   7.447  11.254 -0.0246  0.2271 -0.2161
 4067W        W 7811   6.699   4.569   9.556 -0.3428 -0.3399 -0.1014
 4068W        W 7812   1.555   1.032   1.781 -0.1832 -0.1164  0.1602
 4069W        W 7813   3.391   8.707   8.551  0.1662  0.1531  0.0799
 4070W        W 7814   8.650   5.967   9.158  0.0993 -0.0486  0.1692
 4071W        W 7815   1.595   1.986  12.190 -0.1756  0.2225  0.1966
 4072W        W 7816   1.313   6.924  11.877  0.1194 -0.0982 -0.2313
 4073W        W 7817   3.928   6.786  11.715 -0.2269  0.1318  0.2479
 4074W        W 7818   7.860   5.376   0.898 -0.0464 -0.0908 -0.1829
 4075W        W 7819   5.044   0.731   8.642 -0.2321  0.2031  0.1828
 4076W        W 7820   8.408   4.542   1.794 -0.1208 -0.1004 -0.1629
 4077W        W 7821   9.474   0.098  10.773  0.2847 -0.2589  0.1723
 4078W        W 7822   3.787   5.415   8.708  0.2154 -0.0948  0.1007
 4079W        W 7823   1.755   8.178   1.752 -0.0767  0.0106 -0.0777
 4080W        W 7824   7.153   3.260  11.740 -0.2645  0.2979  0.4065
 4081W        W 7825   5.796   3.938   8.864  0.0352  0.1117 -0.0731
 4082W        W 7826   7.489   2.209   3.085 -0.2723  0.3860 -0.0626
 4083W        W 7827   4.847   2.889  10.974  0.1913  0.0332 -0.3645
 4084W        W 7828   1.950   4.291  11.024  0.0560 -0.0029 -0.1700
 4085W        W 7829   5.980   4.075   2.932  0.0902  0.1045 -0.1120
 4086W        W 7830   7.973   4.831   9.488  0.0445 -0.1843 -0.2904
 4087W        W 7831   2.898   6.490  10.954 -0.0886 -0.1130 -0.1572
 4088W        W 7832   5.791   8.563   1.945 -0.0949 -0.2211 -0.2963
 4089W        W 7833   8.464   6.732   4.476  0.1549 -0.1393 -0.0221
 4090W        W 7834   4.803   1.561  12.426  0.1641 -0.1262 -0.1138
 4091W        W 7835   5.312   4.099   4.031  0.0076  0.1269  0.0896
 4092W        W 7836   2.614   1.127  12.563  0.2767  0.1064  0.2407
 4093W        W 7837   2.289   5.458   0.705 -0.0949  0.0688 -0.0275
 4094W        W 7838   5.974   3.936   0.392  0.2772  0.2150  0.3704
 4095W        W 7839   5.182   6.034   9.293 -0.2182 -0.0122 -0.0083
 4096W        W 7840   7.199   7.069   3.832  0.1636  0.0734  0.1750
 4097W        W 7841   9.265   5.420  11.356  0.0458 -0.0183 -0.2418
 4098W        W 7842   8.858   7.368   3.052  0.3608 -0.0626 -0.0446
 4099W        W 7843   5.473   3.953   1.621 -0.1672 -0.1449 -0.1897
 4100W        W 7844   5.735   2.195   3.081 -0.1094 -0.0032 -0.0633
 4101W        W 7845   4.496   3.643  10.162  0.1676 -0.1150 -0.2129
 4102W        W 7846   4.070   4.159   3.247 -0.0464 -0.2494  0.1666
 4103W        W 7847   7.806   7.609  11.251 -0.0349 -0.1689 -0.0982
 4104W        W 7848   1.507   6.759   1.529 -0.2947 -0.0205  0.3794
 4105W        W 7849   1.673   6.838  12.773 -0.0720  0.1236  0.2027
 4106W        W 7850   6.769   2.324  10.729 -0.0504 -0.1583 -0.0608
 4107W        W 7851   9.717   0.127   0.999 -0.2063  0.0386  0.1682
 4108W        W 7852   4.579   3.010  12.519  0.0665 -0.3931  0.1540
 4109W        W 7853   8.991   9.291  10.542 -0.0398  0.3105  0.2252
 4110W        W 7854   4.278   5.132   1.507  0.0879 -0.0280  0.2247
 4111W        W 7855   1.384   6.283   1.500  0.0868 -0.0753  0.2694
 4112W        W 7856   4.509   6.673  10.614  0.2069 -0.1344 -0.4542
 4113W        W 7857   9.084   6.019   0.278 -0.0520  0.0324  0.0256
 4114W        W 7858   1.317   9.070   2.538  0.1242 -0.4640 -0.1821
 4115W        W 7859   6.251   9.429   3.136  0.1514 -0.0194 -0.2393
 4116W        W 7860   3.196   0.376  10.513 -0.0916  0.1570  0.1812
 4117W        W 7861   6.180   4.745   9.464 -0.0199  0.1071 -0.0163
 4118W        W 7862   7.519   5.124   1.184 -0.3694 -0.1649  0.2829
 4119W        W 7863   1.325   1.485   1.111 -0.2787 -0.3952  0.0061
 4120W        W 7864   9.130   9.756  10.598  0.0927  0.3758  0.0684
 4121W        W 7865   5.229   9.867   1.729 -0.0184 -0.0077  0.0405
 4122W        W 7866   3.757   1.258  11.666 -0.0809 -0.0413 -0.3698
 4123W        W 7867   0.209   2.872  11.941  0.1372  0.0181 -0.1448
 4124W        W 7868   9.548   4.690  10.947  0.2043 -0.0225  0.0703
 4125W        W 7869   5.000   6.132   0.850 -0.2167  0.2152 -0.1910
 4126W        W 7870   6.548   3.797   7.952 -0.0428 -0.1066 -0.0485
 4127W        W 7871   4.140   6.273  10.601 -0.0766  0.0585 -0.5316
 4128W        W 7872   8.304   7.600   1.834 -0.0572 -0.1404 -0.2657
 4129W        W 7873   5.107   8.980  12.093 -0.2635  0.2041 -0.1110
 4130W        W 7874   9.425   6.386   9.790  0.0536  0.0739 -0.0866
 4131W        W 7875   5.766   7.622   0.152  0.0884  0.1190 -0.1559
 4132W        W 7876   8.586   8.713  11.404 -0.0239 -0.1382 -0.0640
 4133W        W 7877   4.075   9.228   9.868  0.1147  0.1806 -0.0396
 4134W        W 7878   3.420   0.889   3.877  0.0737  0.1881  0.0593
 4135W        W 7879   0.372   9.698   1.514  0.0660 -0.0624 -0.0217
 4136W        W 7880   7.949   5.986  11.367  0.0190  0.1965  0.3729
 4137W        W 7881   7.305   8.691   0.683  0.0929 -0.3823 -0.0482
 4138W        W 7882   0.096   8.088  12.541 -0.0946 -0.0667 -0.1056
 4139W        W 7883   8.715   5.191   9.843 -0.1609 -0.0258 -0.1660
 4140W        W 7884   7.844   8.487   0.820 -0.2393 -0.2090  0.0830
 4141W        W 7885   9.784   4.461  10.116  0.0679  0.0440  0.0542
 4142W        W 7886   8.358   5.029   9.190 -0.4124  0.0063 -0.4079
 4143W        W 7887   9.621   1.934  11.652 -0.0245 -0.0299 -0.1546
 4144W        W 7888   4.160   5.245  11.488  0.3062  0.1368  0.0998
 4145W        W 7889   2.777   3.677  11.697 -0.1874 -0.0813 -0.2050
 4146W        W 7890   0.116   5.409   1.465  0.1922  0.1272 -0.0006
 4147W        W 7891   8.535   0.984  12.131 -0.2729 -0.0701  0.0116
 4148W        W 7892   5.724   0.018  11.332  0.1818  0.1587  0.0347
 4149W        W 7893   6.476   8.927   0.721 -0.0967 -0.0615 -0.0145
 4150W        W 7894   7.979   8.061   9.978  0.2585 -0.2156 -0.0677
 4151W        W 7895   0.280   1.766  10.365 -0.1495 -0.2455  0.3401
 4152W        W 7896   3.782   5.947   3.937 -0.2102  0.1391  0.1922
 4153W        W 7897   2.194   8.790   9.317  0.0457 -0.0775  0.0953
 4154W        W 7898   7.997   1.577   2.721 -0.1789  0.1288  0.1032
 4155W        W 7899   6.936   7.170  10.373 -0.0924 -0.0070 -0.1027
 4156W        W 7900   5.940   2.673   1.342 -0.1906 -0.1848 -0.1835
 4157W        W 7901   3.151   8.002  10.053 -0.1782  0.1218 -0.3640
 4158W        W 7902   6.432   7.236  10.512 -0.2936 -0.0821  0.0550
 4159W        W 7903   5.701   4.433   2.635  0.0601 -0.1302  0.0361
 4160W        W 7904   2.217   5.583   0.216  0.6389  0.2796  0.0323
 4161W        W 7905   8.886   5.122   3.152 -0.0382  0.0939 -0.1181
 4162W        W 7906   7.296   0.987   2.276  0.1280  0.1657 -0.2134
 4163W        W 7907   7.875   6.153   3.555  0.0341 -0.1910  0.1041
 4164W        W 7908   0.619   5.003  10.326 -0.1613 -0.3131 -0.1706
 4165W        W 7909   2.454   4.956   1.807  0.0539 -0.0339  0.0908
 4166W        W 7910   1.335   1.247   2.187 -0.1204 -0.3863  0.0117
 4167W        W 7911   6.812   2.536   1.551 -0.0906  0.0047 -0.0061
 4168W        W 7912   6.968   3.541   7.799  0.0566  0.1528  0.2725
 4169W        W 7913   5.787   4.401  10.982 -0.2286  0.2823 -0.1601
 4170W        W 7914   4.664   1.484   4.005  0.0792 -0.0840  0.1819
 4171W        W 7915   7.388   9.770   1.302  0.2044 -0.0005  0.1027
 4172W        W 7916   1.019   1.109   0.019  0.1075 -0.2211  0.0873
 4173W        W 7917   9.727   4.146   9.737 -0.2012 -0.2309 -0.0360
 4174W        W 7918   1.036   7.641   4.121  0.0504 -0.0689 -0.1063
 4175W        W 7919   7.432   4.617   0.064 -0.0080 -0.2651  0.3196
 4176W        W 7920   9.619   3.008   0.099 -0.1929  0.2185  0.1590
 4177W        W 7921   5.339   9.505   9.953  0.0565 -0.1076  0.1904
 4178W        W 7922   0.670   1.399  11.138  0.0854 -0.1475 -0.2725
 4179W        W 7923   9.748   9.732   0.514 -0.2708  0.0968 -0.5765
 4180W        W 7924   9.163   8.520   0.279  0.1321  0.0925 -0.0293
 4181W        W 7925   0.315   5.012  11.505  0.0575 -0.0270 -0.2030
 4182W        W 7926   2.591   3.803   9.585 -0.0637  0.3130  0.1302
 4183W        W 7927   9.390   0.122   0.629 -0.1598  0.0298  0.3313
 4184W        W 7928   4.779   7.344  11.443  0.0638 -0.2206 -0.0017
 4185W        W 7929   8.242   1.772   1.165  0.4921  0.0903  0.1338
 4186W        W 7930   2.831   0.091   3.129 -0.1718 -0.1373  0.1430
 4187W        W 7931   7.860   3.278   3.963  0.0245 -0.0161 -0.4107
 4188W        W 7932   4.120   7.585   3.988  0.1463 -0.1976  0.2346
 4189W        W 7933   9.709   0.048   1.499  0.1073  0.1035  0.0631
 4190W        W 7934   2.105   2.280  10.485  0.0826  0.1061  0.0505
 4191W        W 7935   3.273   1.579   1.828 -0.0514 -0.1707  0.3817
 4192W        W 7936   4.604   5.275   1.888 -0.0555 -0.1907 -0.0291
 4193W        W 7937   9.401   2.898  11.143  0.1237  0.6308 -0.1757
 4194W        W 7938   2.837   5.377   1.872  0.1532  0.2978 -0.2755
 4195W        W 7939   2.962   0.996  12.211 -0.1101 -0.1991 -0.0989
 4196W        W 7940   8.143   7.721  10.527  0.2259  0.2433 -0.1708
 4197W        W 7941   9.877   9.186  10.953  0.0974 -0.0058  0.1987
 4198W        W 7942   5.582   4.730   4.286 -0.0113  0.0677  0.0052
 4199W        W 7943   3.225   2.454   9.772  0.0409 -0.0599 -0.0649
 4200W        W 7944   0.300   9.843   1.953  0.2659  0.0936 -0.0166
 4201W        W 7945   2.371   5.047  10.027  0.1393 -0.1755  0.0053
 4202W        W 7946   8.233   8.192   0.928  0.1302  0.2989  0.0214
 4203W        W 7947   3.729   6.365   1.699 -0.0478  0.0574 -0.0227
 4204W        W 7948   8.888   2.280  10.014 -0.1684 -0.0704 -0.4839
 4205W        W 7949   0.881   7.882   9.262 -0.3155 -0.0862 -0.1101
 4206W        W 7950   6.868   2.858  11.975  0.0063 -0.1232 -0.1015
 4207W        W 7951   3.880   8.481  11.663 -0.1188 -0.0624 -0.0471
 4208W        W 7952   7.884   5.055  10.909 -0.2985 -0.2868 -0.1902
 4209W        W 7953   1.118   2.960   9.977 -0.0190  0.0599 -0.0869
 4210W        W 7954   3.787   8.667   8.178  0.2382  0.0006  0.0374
 4211W        W 7955   2.649   9.930  12.054  0.0838 -0.0648 -0.2626
 4212W        W 7956   1.546   6.506  11.992  0.0910 -0.1837 -0.1917
 4213W        W 7957   7.731   5.704  12.129  0.0341  0.0810  0.0667
 4214W        W 7958   8.152   7.095   3.678 -0.1266  0.0414 -0.1017
 4215W        W 7959   9.272   4.935   8.935 -0.1206  0.0331  0.2919
 4216W        W 7960   5.472   6.226  11.919  0.0907  0.2365 -0.0091
 4217W        W 7961   5.961   4.766   3.599 -0.0475  0.1892 -0.1713
 4218W        W 7962   6.658   5.080   9.599 -0.3019  0.2284  0.2732
 4219W        W 7963   1.127   8.300   1.024 -0.2293  0.2466  0.0913
 4220W        W 7964   0.001   3.251   4.273  0.0682 -0.0209 -0.5389
 4221W        W 7965   3.508   9.759  11.120  0.0456 -0.1355 -0.0809
 4222W        W 7966   8.111   7.765   0.387  0.1797  0.3958  0.0344
 4223W        W 7967   7.852   8.662   2.244 -0.1664 -0.2721 -0.0150
 4224W        W 7968   8.029   2.242   0.955  0.1000  0.1457  0.2177
 4225W        W 7969   1.759   4.218  10.333 -0.3354  0.0630  0.5389
 4226W        W 7970   7.599   8.079   9.666  0.1387 -0.0266  0.4429
 4227W        W 7971   6.579   5.405   4.648  0.0732  0.3114  0.0119
 4228W        W 7972   4.711   6.384  11.441 -0.0683 -0.1132 -0.1303
 4229W        W 7973   9.678   3.456   1.788  0.0426  0.1627  0.1857
 4230W        W 7974   1.207   7.776  10.174 -0.1826  0.0549  0.1032
 4231W        W 7975   6.570   7.775   2.918 -0.0181  0.0630  0.2657
 4232W        W 7976   4.422   8.013  10.476 -0.0801  0.2050 -0.0818
 4233W        W 7977   4.818   4.211   4.481 -0.0679  0.2129  0.1670
 4234W        W 7978   1.493   6.972  10.878  0.2817 -0.3177 -0.1728
 4235W        W 7979   6.143   6.067  11.108 -0.0675 -0.0732  0.0410
 4236W        W 7980   7.061   4.710   1.986 -0.3115  0.0007 -0.2956
 4237W        W 7981   5.661   4.638   1.952 -0.2754  0.0839  0.1616
 4238W        W 7982   8.563   2.234  11.297 -0.1962  0.2906 -0.2841
 4239W        W 7983   4.750   4.209   0.185  0.1540  0.0788 -0.1043
 4240W        W 7984   3.427   0.854   2.168  0.2670 -0.2580 -0.3168
 4241W        W 7985   3.153   6.057  10.980 -0.0190  0.1759 -0.0712
 4242W        W 7986   9.061   6.610  10.647 -0.1893 -0.2024 -0.2141
 4243W        W 7987   0.452   8.980  12.354 -0.0030  0.1442 -0.0796
 4244W        W 7988   8.384   4.641  11.799  0.1553  0.1348 -0.1564
 4245W        W 7989   3.452   2.261   8.982  0.0014  0.1722 -0.1848
 4246W        W 7990   1.074   9.801  12.322 -0.0653 -0.0163 -0.2465
 4247W        W 7991   3.702   2.761   2.945 -0.0056  0.0741 -0.1681
 4248W        W 7992   8.139   6.528   0.295  0.0975  0.0100  0.1178
 4249W        W 7993   0.424   9.505  11.282  0.2531 -0.1405  0.1040
 4250W        W 7994   3.528   3.282   1.126  0.1905  0.3741 -0.1324
 4251W        W 7995   0.719   1.170   4.101  0.2177 -0.1260  0.1382
 4252W        W 7996   1.483   3.750   3.571 -0.0371  0.0837 -0.3740
 4253W        W 7997   2.322   5.935  11.158  0.0476 -0.1838 -0.0708
 4254W        W 7998   8.399   8.062   1.598  0.0797  0.3795 -0.0688
 4255W        W 7999   6.865   5.555  11.076  0.2164 -0.0898  0.0579
 4256W        W 8000   0.925   0.642  11.320  0.1367  0.4528  0.1578
 4257W        W 8001   8.922   8.575  11.075 -0.2074 -0.2680  0.1686
 4258W        W 8002   7.386   2.189   2.577 -0.0122  0.4260  0.1369
 4259W        W 8003   6.693   8.368   1.779  0.1334 -0.0442  0.0185
 4260W        W 8004   0.571   4.917   2.840 -0.0464 -0.1912  0.0523
 4261W        W 8005   7.873   3.175  11.955  0.2362  0.2306  0.1982
 4262W        W 8006   4.253   7.290  11.250 -0.2542  0.2578 -0.1375
 4263W        W 8007   1.318   1.248   2.877 -0.0324 -0.0693 -0.0214
 4264W        W 8008   8.131   5.798   0.797  0.1464 -0.2262  0.0887
 4265W        W 8009   4.494   9.488   2.205 -0.0298  0.1594  0.2642
 4266W        W 8010   0.483   1.796   2.231  0.1664 -0.0314 -0.0609
 4267W        W 8011   2.425   2.517   9.594 -0.2018  0.1368  0.2039
 4268W        W 8012   2.266   1.461   1.094  0.2185  0.1988  0.2226
 4269W        W 8013   6.603   6.852   2.219 -0.0383  0.0855  0.0270
 4270W        W 8014   9.229   1.265   0.357  0.1141  0.1060 -0.3142
 4271W        W 8015   7.757   8.172  10.504 -0.1121 -0.3898  0.1946
 4272W        W 8016   5.171   5.553   2.604 -0.0331  0.1151 -0.1376
 4273W        W 8017   0.116   0.198  11.403 -0.0935  0.1152  0.2329
 4274W        W 8018   7.202   9.487  12.672  0.0777  0.1067  0.1336
 4275W        W 8019   8.303   7.357   4.053  0.1018  0.0239 -0.0673
 4276W        W 8020   1.020   7.359   8.228  0.1310 -0.2164 -0.1788
 4277W        W 8021   8.417   7.711  11.344  0.1190  0.0591 -0.1346
 4278W        W 8022   3.373   6.196   7.869 -0.4599  0.2253  0.0428
 4279W        W 8023   5.883   5.473  12.312 -0.1773 -0.1817 -0.0187
 4280W        W 8024   8.363   2.410   3.120  0.4327 -0.5217  0.2303
 4281W        W 8025   9.113   5.775   8.973 -0.1750 -0.2690 -0.0199
 4282W        W 8026   5.817   4.653  12.458  0.1090 -0.4107 -0.0034
 4283W        W 8027   4.519   9.004  10.372  0.0016 -0.0627  0.0315
 4284W        W 8028   6.185   6.888   9.373  0.0574  0.0710  0.0878
 4285W        W 8029   4.680   6.174  10.451 -0.0252  0.0829 -0.1790
 4286W        W 8030   9.585   7.964  10.110  0.0883  0.0168 -0.1348
 4287W        W 8031   6.676   1.319   2.905 -0.1705 -0.0862  0.0893
 4288W        W 8032   3.121   4.412  10.127 -0.1607  0.0801  0.1873
 4289W        W 8033   0.008   7.065  11.205  0.1785 -0.3968 -0.1127
 4290W        W 8034   9.234   7.002   9.108  0.2581 -0.3064 -0.0753
 4291W        W 8035   2.981   4.221  12.458 -0.0425 -0.1505 -0.2485
 4292W        W 8036   2.634   3.963   7.775  0.2447  0.3002  0.2717
 4293W        W 8037   8.069   5.892   1.496  0.4286  0.1330 -0.0357
 4294W        W 8038   2.853   2.231   9.391  0.1783  0.3546 -0.2680
 4295W        W 8039   1.256   2.357   1.345 -0.2242 -0.0844  0.2071
 4296W        W 8040   4.713   6.973  12.205  0.2439  0.1464 -0.0006
 4297W        W 8041   6.526   5.910  11.838 -0.5414 -0.2136  0.0671
 4298W        W 8042   2.108   5.258   2.645  0.2131  0.0087 -0.0249
 4299W        W 8043   0.452   7.563   0.980 -0.1276  0.1186 -0.1314
 4300W        W 8044   0.043   3.386   8.882 -0.1993  0.1267  0.1052
 4301W        W 8045   3.231   0.550   3.478 -0.0118  0.1761 -0.1769
 4302W        W 8046   8.990   7.461   2.510 -0.0448  0.2821  0.0302
 4303W        W 8047   4.352   4.195  10.823 -0.0747  0.2852 -0.0708
 4304W        W 8048   8.438   8.361  12.414  0.0747  0.0183  0.2619
 4305W        W 8049   7.889   1.607  10.946  0.0055  0.1331 -0.1164
 4306W        W 8050   2.205   4.701  11.735 -0.0073 -0.0131  0.0371
 4307W        W 8051   8.134   8.344   0.418 -0.3016 -0.0652  0.4162
 4308W        W 8052   0.186   8.343   0.586  0.1382  0.1647 -0.0584
 4309W        W 8053   2.984   0.398   3.949  0.3563 -0.1073  0.0210
 4310W        W 8054   1.544   7.201   3.390  0.4309  0.0654 -0.2362
 4311W        W 8055   0.133   4.717  10.965  0.5402 -0.2011  0.0582
 4312W        W 8056   4.545   3.217   0.615  0.0689 -0.2007 -0.0834
 4313W        W 8057   6.231   9.372   0.608  0.1762  0.0123  0.0606
 4314W        W 8058   0.429   9.077   2.706  0.2524  0.1211  0.1867
 4315W        W 8059   9.953   3.654  12.323  0.0939  0.0676 -0.1301
 4316W        W 8060   0.573   0.496  12.142  0.3233  0.0419  0.1629
 4317W        W 8061   1.754   8.025   2.218  0.0393 -0.2501  0.1291
 4318W        W 8062   4.650   7.011   9.394 -0.0657  0.0659 -0.0941
 4319W        W 8063   4.345   4.892   2.766  0.0175  0.3340  0.0088
 4320W        W 8064   9.922   5.711  10.622  0.3337 -0.2755  0.1213
 4321W        W 8065   4.283   5.849  10.791  0.0589  0.3040 -0.1845
 4322W        W 8066   5.311   1.609   3.045 -0.1699 -0.1310  0.1041
 4323W        W 8067   6.815   3.498   1.201 -0.1284  0.0541 -0.2142
 4324W        W 8068   2.803   3.500   9.235 -0.1700 -0.0812  0.1926
 4325W        W 8069   6.124   5.998  12.753  0.1662 -0.2753  0.0315
 4326W        W 8070   7.762   9.218  11.219 -0.1141 -0.0594  0.1385
 4327W        W 8071   9.266   5.315   8.609 -0.2326  0.0304 -0.1354
 4328W        W 8072   1.470   0.592   1.369  0.1062 -0.1388  0.1553
 4329W        W 8073   2.507   2.820   4.126  0.2091 -0.0778 -0.1881
 4330W        W 8074   0.427   1.266   2.160  0.0934 -0.2874 -0.4152
 4331W        W 8075   2.028   4.045   8.963 -0.0738  0.0241  0.0570
 4332W        W 8076   9.436   1.079  10.002 -0.1531  0.1449  0.3396
 4333W        W 8077   8.904   6.402   4.200 -0.0061  0.4019  0.1878
 4334W        W 8078   5.746   2.124  10.707 -0.2906 -0.0965 -0.1798
 4335W        W 8079   0.312   0.537   2.726 -0.0507 -0.1143 -0.0561
 4336W        W 8080   6.792   0.115  10.776 -0.0031 -0.2677  0.2809
 4337W        W 8081   2.497   3.772  12.148 -0.0910  0.0402  0.0088
 4338W        W 8082   8.648   6.854   9.787 -0.0735  0.2055  0.0534
 4339W        W 8083   3.473   1.264   1.464  0.3193 -0.2377  0.2400
 4340W        W 8084   4.629   2.060  12.415 -0.0333  0.0364 -0.1305
 4341W        W 8085   0.840   6.614  11.654  0.1460 -0.2306 -0.3876
 4342W        W 8086   9.762   5.098   1.699  0.1670  0.1669 -0.1318
 4343W        W 8087   1.580   7.193   9.274 -0.1763 -0.1361  0.0253
 4344W        W 8088   5.388   2.909   0.433 -0.2051  0.4104  0.1948
 4345W        W 8089   2.107   2.940   1.462  0.0384  0.1449 -0.2677
 4346W        W 8090   7.110   9.598   9.490  0.0392  0.0247  0.3071
 4347W        W 8091   2.914   7.381   3.895 -0.0884 -0.1910 -0.0536
 4348W        W 8092   8.931   4.226  10.369  0.1821  0.0361 -0.1234
 4349W        W 8093   4.766   5.916  11.105  0.1583  0.0092  0.1387
 4350W        W 8094   2.069   0.490   9.875  0.4061 -0.1871  0.0555
 4351W        W 8095   7.237   1.481  11.646  0.1589 -0.0771 -0.1357
 4352W        W 8096   9.798   5.342  11.549 -0.1448 -0.2443 -0.2238
 4353W        W 8097   2.411   0.339   2.916 -0.2794  0.0329 -0.0953
 4354W        W 8098   6.720   0.967   9.946  0.0488 -0.1167  0.0718
 4355W        W 8099   2.862   4.277   9.680  0.1903 -0.2177 -0.1833
 4356W        W 8100   7.550   0.869   1.088  0.1457  0.2499  0.1340
 4357W        W 8101   6.771   0.297  11.287 -0.0537 -0.0948  0.1241
 4358W        W 8102   2.060   0.384   0.055 -0.1821  0.0095  0.2517
 4359W        W 8103   3.686   5.458   4.455 -0.0687  0.1208  0.0155
 4360W        W 8104   6.386   4.843   3.776 -0.3298  0.0046  0.0041
 4361W        W 8105   8.658   0.338  11.330  0.2762 -0.0266 -0.1309
 4362W        W 8106   3.696   4.501   8.849  0.0570  0.0676 -0.0389
 4363W        W 8107   1.393   0.644  11.038  0.0672  0.1638  0.0414
 4364W        W 8108   5.564   7.737   9.388 -0.0312  0.2333  0.1245
 4365W        W 8109   3.152   7.580   1.641  0.1400 -0.3887 -0.1196
 4366W        W 8110   8.273   5.238   9.660  0.1839 -0.0320  0.0068
 4367W        W 8111   3.024   4.874   2.541  0.1244  0.2601 -0.2749
 4368W        W 8112   7.109   8.089   9.460  0.0264  0.3234 -0.0827
 4369W        W 8113   1.311   8.102   9.094  0.0751 -0.2776 -0.1412
 4370W        W 8114   2.012   0.886   0.845 -0.0980 -0.0205 -0.1869
 4371W        W 8115   6.681   8.643  10.577  0.2084  0.1879 -0.1796
 4372W        W 8116   5.033   4.456   2.684 -0.1671  0.3492 -0.0018
 4373W        W 8117   4.643   5.041   3.146 -0.0948 -0.1555  0.1646
 4374W        W 8118   7.913   6.426  12.649 -0.0465 -0.4347  0.0126
 4375W        W 8119   8.021   2.817   9.646  0.0494 -0.0615  0.3139
 4376W        W 8120   5.411   3.008  11.933 -0.3213  0.2041  0.2136
 4377W        W 8121   1.944   7.281   8.844  0.0116  0.0772  0.1929
 4378W        W 8122   9.941   8.521   1.087 -0.0963 -0.1730  0.0727
 4379W        W 8123   4.016   0.606   2.692  0.1537  0.2726 -0.2137
 4380W        W 8124   3.151   7.708   0.272  0.3719 -0.3149  0.4708
 4381W        W 8125   2.323   0.738  12.254  0.1758 -0.0407  0.0505
 4382W        W 8126   5.114   2.391   0.854  0.1167 -0.2161 -0.1443
 4383W        W 8127   6.098   5.080  11.721  0.2545  0.1925  0.1376
 4384W        W 8128   6.922   8.685   4.057  0.2522  0.1926  0.0571
 4385W        W 8129   9.917   2.586   2.519 -0.2010 -0.0887 -0.0203
 4386W        W 8130   4.414   1.386  10.787 -0.1210 -0.1031  0.1991
 4387W        W 8131   6.027   9.491   4.461 -0.2336 -0.2051 -0.0268
 4388W        W 8132   5.310   4.005   8.654  0.0815  0.0001 -0.0548
 4389W        W 8133   0.658   6.779   4.878  0.1012  0.4234 -0.2131
 4390W        W 8134   6.632   8.185  10.827 -0.2773  0.2145 -0.1486
 4391W        W 8135   4.837   4.685  12.744 -0.2276  0.2726 -0.3758
 4392W        W 8136   3.141   8.384   4.844  0.1574 -0.1034  0.2593
 4393W        W 8137   3.737   7.179  12.537  0.0792  0.0843 -0.2864
 4394W        W 8138   9.154   3.150   3.403 -0.2556 -0.2039 -0.0254
 4395W        W 8139   7.702   8.392   3.332  0.0098  0.0732 -0.1552
 4396W        W 8140   5.297   3.172  10.866 -0.0583  0.1549 -0.0539
 4397W        W 8141   2.742   2.608   0.280 -0.2630  0.3138 -0.2364
 4398W        W 8142   4.659   0.841   8.971 -0.1367  0.0927 -0.2208
 4399W        W 8143   2.535   7.451   2.503 -0.1612 -0.1083  0.0932
 4400W        W 8144   5.040   7.791   5.121  0.2930  0.4169  0.0059
 4401W        W 8145   8.571   7.252   4.505  0.0323 -0.0554 -0.2471
 4402W        W 8146   5.515   9.498   3.438 -0.0643 -0.1702 -0.1107
 4403W        W 8147   7.875   0.380   9.740  0.2305 -0.1262  0.2472
 4404W        W 8148   9.323   9.664   1.440  0.0729 -0.0697  0.0007
 4405W        W 8149   7.830   4.526  12.212  0.0257  0.0035  0.1664
 4406W        W 8150   0.146   0.244   3.813  0.0488 -0.2057  0.0594
 4407W        W 8151   3.911   9.056   1.796  0.1402  0.0874 -0.2675
 4408W        W 8152   6.051   6.835  10.584  0.1038  0.0446  0.0059
 4409W        W 8153   5.120   6.636   2.288 -0.0620 -0.1294  0.4801
 4410W        W 8154   1.512   2.357   1.889 -0.0973 -0.1549 -0.3189
 4411W        W 8155   3.954   0.782   4.122 -0.0123 -0.0490 -0.0806
 4412W        W 8156   2.633   2.336   3.698 -0.0186  0.1263  0.0822
 4413W        W 8157   9.575   4.650   0.425 -0.3203  0.0594  0.0225
 4414W        W 8158   1.006   8.267   2.025 -0.2004  0.1029  0.1236
 4415W        W 8159   3.316   0.297   3.059  0.4217  0.2005 -0.2739
 4416W        W 8160   3.677   8.538   2.417 -0.2808  0.0585  0.0220
 4417W        W 8161   2.671   0.860   1.604 -0.0608 -0.1716  0.4336
 4418W        W 8162   4.274   4.212  12.652 -0.1738 -0.2034  0.4977
 4419W        W 8163   2.072   8.710   0.015 -0.0519  0.0676 -0.1604
 4420W        W 8164   8.972   8.435   3.735 -0.3857 -0.2898 -0.0753
 4421W        W 8165   9.563   6.261   0.272  0.2735 -0.0626  0.1042
 4422W        W 8166   5.684   5.131  10.303  0.0717  0.1364  0.3800
 4423W        W 8167   4.552   3.074   3.750 -0.1969 -0.1952 -0.1750
 4424W        W 8168   9.029   5.563   1.828 -0.2240 -0.2591  0.0109
 4425W        W 8169   8.592   0.715   1.440  0.0522  0.1853 -0.1737
 4426W        W 8170   5.188   0.914   1.529  0.2141 -0.1101  0.2557
 4427W        W 8171   2.512   6.425  10.119  0.0939 -0.0231  0.2076
 4428W        W 8172   7.684   0.646  10.750 -0.3581 -0.1110  0.1865
 4429W        W 8173   4.913   1.611   0.114  0.1764  0.0923  0.1482
 4430W        W 8174   7.319   7.213   1.215 -0.0359 -0.1866  0.1007
 4431W        W 8175   9.211   2.605  12.713 -0.1494 -0.0929  0.1676
 4432W        W 8176   0.737   1.415   0.918 -0.1267 -0.1508 -0.0226
 4433W        W 8177   5.632   6.116  10.860  0.5127 -0.0707  0.0434
 4434W        W 8178   8.831   4.583   9.938  0.0968  0.2230 -0.1982
 4435W        W 8179   7.657   5.543   4.254 -0.1808  0.4420 -0.6144
 4436W        W 8180   2.538   3.186   8.333 -0.0660 -0.2760  0.0462
 4437W        W 8181   3.432   4.986   2.952  0.2158  0.1300 -0.0978
 4438W        W 8182   5.139   5.433   1.754  0.0504  0.0752  0.3958
 4439W        W 8183   1.320   4.321   1.122 -0.1203 -0.1560 -0.0809
 4440W        W 8184   9.817   1.483   9.717 -0.0101  0.1164 -0.1941
 4441W        W 8185   2.720   1.159   4.203 -0.0433 -0.0109  0.2234
 4442W        W 8186   7.705   8.355  11.647 -0.2050  0.3006 -0.1727
 4443W        W 8187   9.781   1.521   3.057 -0.0287  0.1927 -0.2704
 4444W        W 8188   3.055   5.717   2.765  0.1158 -0.1116  0.2251
 4445W        W 8189   6.929   2.023   2.393 -0.1513 -0.2136 -0.1985
 4446W        W 8190   9.703   7.030   0.802  0.0885  0.0425 -0.0989
 4447W        W 8191   7.624   5.270  11.666  0.1009 -0.1519 -0.1924
 4448W        W 8192   9.813   4.953   3.445 -0.1718 -0.0279 -0.0075
 4449W        W 8193   0.724   5.522   2.939  0.1353 -0.2598  0.0336
 4450W        W 8194   7.726   2.248  12.603  0.3431  0.0391  0.0359
 4451W        W 8195   7.275   1.407  10.470 -0.0679 -0.0294 -0.3481
 4452W        W 8196   1.373   7.357  12.093  0.0366  0.4842 -0.0311
 4453W        W 8197   4.493   0.507   5.528 -0.0911  0.2523  0.2448
 4454W        W 8198   0.548   1.244  12.603 -0.2053 -0.0323  0.3259
 4455W        W 8199   4.302   1.122  10.399 -0.0450 -0.1488 -0.0280
 4456W        W 8200   0.498   7.213  12.438 -0.1580 -0.0900 -0.0229
 4457W        W 8201   5.065   3.796   3.181  0.0119  0.2995  0.3988
 4458W        W 8202   7.836   6.488  12.119 -0.0172  0.2037  0.2540
 4459W        W 8203   6.934   9.538  12.209  0.1528  0.0021  0.5466
 4460W        W 8204   1.712   1.284   9.295 -0.1854 -0.0619  0.1431
 4461W        W 8205   6.837   6.545   1.272  0.1270  0.0552 -0.2571
 4462W        W 8206   2.873   8.992   2.988 -0.0578  0.0723  0.1694
 4463W        W 8207   0.681   0.780   0.211  0.1693  0.1335  0.0324
 4464W        W 8208   4.256   9.510  11.438 -0.1329 -0.1704  0.2550
 4465W        W 8209   8.365   2.356   1.568  0.5223 -0.2885 -0.1207
 4466W        W 8210   7.356   4.612  12.332  0.0978 -0.2680 -0.0392
 4467W        W 8211   1.852   3.519   8.994 -0.5256 -0.2508 -0.0270
 4468W        W 8212   2.961   1.697  12.665 -0.1734 -0.0448 -0.0735
 4469W        W 8213   0.082   4.922   8.054 -0.2108 -0.0132  0.1297
 4470W        W 8214   2.681   7.892   8.619 -0.2009 -0.1001  0.0432
 4471W        W 8215   6.837   0.223   2.012  0.1227 -0.3690  0.0870
 4472W        W 8216   9.566   6.085   3.171  0.1108  0.1756 -0.1209
 4473W        W 8217   8.130   8.340   4.120  0.2972 -0.3749 -0.2156
 4474W        W 8218   9.230   5.230  10.901 -0.1760  0.1101  0.0157
 4475W        W 8219   4.078   8.344  10.342  0.0558  0.5196  0.1783
 4476W        W 8220   8.272   1.974   0.611 -0.3615  0.0629  0.0977
 4477W        W 8221   1.545   4.162  11.869  0.0666  0.1151  0.2479
 4478W        W 8222   1.383   0.569  11.988  0.1856  0.0714 -0.3453
 4479W        W 8223   2.651   4.081  10.122 -0.3291  0.2006 -0.0644
 4480W        W 8224   9.614   6.513   9.204 -0.0869  0.0808 -0.1219
 4481W        W 8225   8.199   2.904   3.165 -0.0961 -0.0109  0.1539
 4482W        W 8226   6.008   5.452  10.122  0.1189 -0.0898  0.0733
 4483W        W 8227   5.881   7.526   1.553  0.0117  0.3196 -0.4742
 4484W        W 8228   3.937   4.900   9.009 -0.1043 -0.3116 -0.1255
 4485W        W 8229   0.501   3.932   3.803 -0.0516 -0.1824 -0.0912
 4486W        W 8230   4.054   0.063   9.462 -0.1839  0.2704  0.1722
 4487W        W 8231   6.343   2.384   1.369 -0.0039 -0.0840  0.0714
 4488W        W 8232   4.730   2.535   9.123 -0.0058 -0.0433  0.0653
 4489W        W 8233   8.654   5.391  12.295 -0.0628 -0.2848  0.0434
 4490W        W 8234   7.021   4.660  10.906  0.0941 -0.1149  0.1041
 4491W        W 8235   0.212   2.491  10.684 -0.2389  0.0502 -0.3827
 4492W        W 8236   5.148   4.233  11.752 -0.0440  0.0351  0.0494
 4493W        W 8237   3.230   1.274   4.508  0.1840 -0.0156 -0.2666
 4494W        W 8238   0.372   8.445   3.995  0.3811  0.0556  0.1161
 4495W        W 8239   4.221   8.899   0.726  0.1122  0.0497 -0.2628
 4496W        W 8240   2.586   3.576   4.357 -0.2901  0.1669  0.4041
 4497W        W 8241   4.845   4.951   3.987  0.0658 -0.1447  0.2158
 4498W        W 8242   3.823   7.008  11.208  0.1448 -0.1853 -0.0866
 4499W        W 8243   8.052   4.556   3.925 -0.1175 -0.0689  0.3497
 4500W        W 8244   2.499   4.542   9.899  0.3205 -0.2067  0.0114
 4501W        W 8245   5.436   4.141   2.980 -0.1461  0.2608  0.2234
 4502W        W 8246   4.831   4.141   9.868 -0.4087  0.0343 -0.1396
 4503W        W 8247   3.519   1.456   2.482  0.0046 -0.3609 -0.0753
 4504W        W 8248   0.198   2.241   1.147  0.0149  0.0785  0.1363
 4505W        W 8249   3.440   9.126   8.146 -0.1502  0.2032 -0.0211
 4506W        W 8250   6.631   1.571  10.731  0.4140  0.2979 -0.0614
 4507W        W 8251   0.293   4.957   3.808  0.0108  0.0608  0.0675
 4508W        W 8252   8.654   8.950   1.705  0.1254 -0.0817  0.3908
 4509W        W 8253   0.258   8.239  10.724  0.2711  0.2088  0.2455
 4510W        W 8254   6.106   1.241   2.813 -0.0299  0.1437  0.3032
 4511W        W 8255   9.187   7.711   4.190 -0.0412 -0.1502  0.1037
 4512W        W 8256   5.051   9.100   2.803 -0.1327  0.0422  0.2350
 4513W        W 8257   5.378   7.409   0.522  0.0304  0.0359  0.2896
 4514W        W 8258   6.041   7.223   8.825 -0.2222  0.2041  0.3701
 4515W        W 8259   2.246   0.990   1.288 -0.0532  0.1845  0.0032
 4516W        W 8260   6.077   7.529  10.671  0.0994  0.1752 -0.2190
 4517W        W 8261   0.139   4.256   1.394 -0.3191 -0.0268 -0.2191
 4518W        W 8262   3.633   9.228   1.316  0.0133  0.1658 -0.3544
 4519W        W 8263   5.373   3.039   9.412 -0.0097 -0.1279 -0.0498
 4520W        W 8264   4.080   3.490  10.600  0.2813 -0.2159  0.4637
 4521W        W 8265   6.554   5.074   4.232  0.3109  0.1273  0.0697
 4522W        W 8266   9.642   9.216   9.394 -0.0815  0.0098 -0.3968
 4523W        W 8267   7.406   0.892  12.731 -0.1077  0.3417  0.1084
 4524W        W 8268   0.311   7.352   4.573 -0.0951 -0.2078  0.0835
 4525W        W 8269   6.882   7.813   3.298  0.0192 -0.1005 -0.0797
 4526W        W 8270   6.553   4.487  10.754  0.5593 -0.0093 -0.0826
 4527W        W 8271   6.365   7.922   2.081 -0.1776  0.0350  0.2610
 4528W        W 8272   5.409   9.584  11.289  0.0630  0.0734  0.0503
 4529W        W 8273   2.736   5.802   0.030  0.0900 -0.1700 -0.1189
 4530W        W 8274   0.240   1.941   1.671  0.0930  0.2332 -0.0128
 4531W        W 8275   2.889   0.399   8.985 -0.2094  0.0807  0.4317
 4532W        W 8276   9.313   5.383   9.864  0.0428 -0.0254 -0.0975
 4533W        W 8277   0.819   2.459   9.089  0.3145  0.1002  0.1541
 4534W        W 8278   7.333   6.398   9.278  0.2333  0.1463  0.0493
 4535W        W 8279   7.252   0.234  10.501  0.0594 -0.0063 -0.0731
 4536W        W 8280   4.349   4.943  12.564 -0.1124 -0.1691 -0.4304
 4537W        W 8281   4.125   3.101   2.637  0.0594  0.1207 -0.1277
 4538W        W 8282   6.820   5.858   2.030  0.1744 -0.1695 -0.0526
 4539W        W 8283   6.548   8.507  12.194  0.1802 -0.0837 -0.2468
 4540W        W 8284   5.648   6.739   4.897  0.5247 -0.1071 -0.1295
 4541W        W 8285   4.574   3.758   9.581  0.0163 -0.2172 -0.3028
 4542W        W 8286   1.118   7.410  11.144  0.2868 -0.3208 -0.1579
 4543W        W 8287   5.665   3.909   2.543 -0.2404  0.0183  0.1128
 4544W        W 8288   2.170   4.519   9.066  0.0182 -0.1005 -0.1833
 4545W        W 8289   3.089   1.081   2.737  0.0004 -0.0659 -0.1060
 4546W        W 8290   5.052   1.937  12.144 -0.1421  0.2623  0.3584
 4547W        W 8291   9.076   4.612  10.707 -0.2367 -0.1719  0.2532
 4548W        W 8292   5.520   0.998   8.671  0.1911 -0.2682 -0.0634
 4549W        W 8293   1.260   6.893   3.651 -0.1215 -0.0747  0.0138
 4550W        W 8294   3.776   2.799   4.185  0.0513 -0.0610 -0.1131
 4551W        W 8295   2.937   6.624  12.437 -0.0597  0.1165  0.1542
 4552W        W 8296   2.835   2.330  11.869 -0.0080  0.0548  0.0330
 4553W        W 8297   7.191   6.471  10.332  0.1375 -0.2614 -0.1686
 4554W        W 8298   5.043   2.423   0.310  0.0458  0.0479  0.0673
 4555W        W 8299   4.580   1.386   9.399 -0.1927 -0.1839  0.1731
 4556W        W 8300   9.784   5.496   0.801  0.0768  0.2264 -0.2165
 4557W        W 8301   5.599   6.568   0.220 -0.2430 -0.1185 -0.0216
 4558W        W 8302   6.812   4.274   8.665  0.1437 -0.0573  0.1474
 4559W        W 8303   4.966   9.067  11.286  0.1113  0.1733  0.1974
 4560W        W 8304   9.871   3.031   3.788 -0.1807 -0.2846  0.1837
 4561W        W 8305   8.157   1.870  10.619 -0.1815 -0.3769  0.0887
 4562W        W 8306   1.016   5.125  10.058 -0.1772  0.0046  0.2808
 4563W        W 8307   6.021   0.699   3.503  0.2363  0.0945 -0.1229
 4564W        W 8308   3.955   4.204   9.651 -0.2935 -0.1567 -0.0325
 4565W        W 8309   7.825   0.605   3.456  0.2077  0.0278  0.1658
 4566W        W 8310   3.152   7.140   9.614 -0.1310  0.0772 -0.1598
 4567W        W 8311   1.777   6.982   8.395  0.0277  0.0514  0.0260
 4568W        W 8312   7.975   3.311  11.403 -0.1538 -0.2948 -0.1648
 4569W        W 8313   2.693   7.447  12.219 -0.0838 -0.1784 -0.1744
 4570W        W 8314   6.751   6.357   2.263  0.1666  0.0432 -0.0008
 4571W        W 8315   3.715   0.421   2.039  0.0737 -0.3334  0.0382
 4572W        W 8316   8.390   8.185   9.639  0.2069 -0.0425 -0.1080
 4573W        W 8317   3.730   1.335   1.036  0.1222 -0.1478  0.2912
 4574W        W 8318   2.919   6.145  10.388 -0.0077 -0.0992  0.0201
 4575W        W 8319   5.828   3.700  10.797 -0.1269  0.1804  0.1053
 4576W        W 8320   5.869   9.511   1.010 -0.1960  0.3590 -0.0806
 4577W        W 8321   6.544   0.865   0.658 -0.1692  0.2035  0.0586
 4578W        W 8322   2.000   8.025   3.251  0.0983 -0.2100  0.2380
 4579W        W 8323   7.555   4.729   3.099 -0.2440 -0.0160 -0.1371
 4580W        W 8324   1.532   8.633   5.110 -0.2675  0.2590  0.1587
 4581W        W 8325   4.200   4.508  12.233 -0.1211  0.0790  0.0457
 4582W        W 8326   3.750   7.164   9.968  0.4846  0.0654 -0.0181
 4583W        W 8327   0.370   6.995   4.056 -0.0281  0.3905 -0.3018
 4584W        W 8328   5.144   6.658   9.187 -0.0005  0.0471 -0.2658
 4585W        W 8329   7.808   2.284  12.066 -0.5189  0.2470 -0.1043
 4586W        W 8330   7.204   9.406   3.421  0.3511  0.1619 -0.0404
 4587W        W 8331   2.872   8.258  12.779 -0.0170  0.1048  0.1705
 4588W        W 8332   4.626   2.551  11.582  0.1884 -0.0628 -0.2410
 4589W        W 8333   3.178   7.438   4.309  0.0784 -0.1530  0.2275
 4590W        W 8334   6.089   8.532  11.947  0.1174 -0.2400 -0.0370
 4591W        W 8335   0.825   6.670   2.388  0.1241  0.2828 -0.0342
 4592W        W 8336   3.724   2.045   1.763  0.1954 -0.1318 -0.1024
 4593W        W 8337   1.508   3.690  10.588 -0.2123 -0.1325  0.0704
 4594W        W 8338   0.603   0.036   3.999  0.1129  0.2524 -0.1532
 4595W        W 8339   5.051   7.790   3.027  0.0339 -0.2068  0.2065
 4596W        W 8340   9.586   3.984   3.557  0.5013 -0.0789  0.0198
 4597W        W 8341   3.752   7.810   3.706 -0.2741 -0.1219  0.0902
 4598W        W 8342   6.521   7.376   2.090  0.0985  0.0660 -0.2644
 4599W        W 8343   3.290   8.664   3.144  0.1253 -0.1037  0.0323
 4600W        W 8344   7.381   9.118   0.254 -0.0634  0.0228  0.0265
 4601W        W 8345   2.304   3.557   7.885 -0.0381 -0.0680  0.0893
 4602W        W 8346   4.857   5.166   8.467 -0.1590  0.1441  0.1644
 4603W        W 8347   7.196   0.421   0.059  0.1942 -0.0660 -0.0195
 4604W        W 8348   7.171   5.982   0.033 -0.0014 -0.2535 -0.0892
 4605W        W 8349   0.683   3.340   9.408  0.2927  0.1038  0.0370
 4606W        W 8350   5.094   9.791   0.569  0.5091  0.1231 -0.5134
 4607W        W 8351   7.548   2.234   1.141  0.1808 -0.0327  0.2227
 4608W        W 8352   9.910   1.093   1.355 -0.0228  0.0395  0.1081
 4609W        W 8353   1.200   9.552   2.625 -0.1494  0.0930 -0.3250
 4610W        W 8354   1.163   0.181   1.422 -0.2776 -0.1052  0.2274
 4611W        W 8355   7.796   1.526  10.398  0.2907 -0.0293  0.2541
 4612W        W 8356   0.114   3.116  10.910  0.0697 -0.1778  0.2259
 4613W        W 8357   9.355   6.409  11.481 -0.0771 -0.2537 -0.0088
 4614W        W 8358   9.932   7.849  10.531  0.0259  0.0556 -0.1781
 4615W        W 8359   3.655   0.501   5.483  0.1235  0.1119 -0.0761
 4616W        W 8360   3.652   8.142  10.183 -0.1512  0.0026  0.0244
 4617W        W 8361   6.844   6.205   9.286 -0.3874  0.1317 -0.0036
 4618W        W 8362   4.031   3.031   1.713 -0.0594  0.4051  0.0094
 4619W        W 8363   4.576   2.315   2.487  0.0243  0.1411 -0.0985
 4620W        W 8364   6.830   2.589   3.568  0.3732  0.1407 -0.2597
 4621W        W 8365   3.161   8.008   1.360 -0.2056 -0.2103  0.2216
 4622W        W 8366   9.582   6.648   1.748 -0.1134  0.0655 -0.2772
 4623W        W 8367   0.527   8.309   3.543  0.2886 -0.2939 -0.0625
 4624W        W 8368   0.390   2.804   1.197  0.1480  0.1486 -0.0387
 4625W        W 8369   1.546   5.535  10.945 -0.1721  0.0035 -0.1005
 4626W        W 8370   0.094   1.114  11.841 -0.0856  0.0332 -0.0242
 4627W        W 8371   5.397   4.129  11.149  0.0298 -0.0315  0.1078
 4628W        W 8372   0.897   7.129  11.636 -0.2482 -0.3005  0.1808
 4629W        W 8373   0.461   9.064   3.286  0.0327  0.3963  0.1199
 4630W        W 8374   7.297   8.037   3.316  0.1718 -0.2004  0.0419
 4631W        W 8375   5.036   0.074  10.476 -0.0118 -0.1930 -0.3172
 4632W        W 8376   6.157   8.785   9.872  0.3728 -0.0206  0.1560
 4633W        W 8377   8.210   8.359   3.579  0.1765 -0.2126  0.1484
 4634W        W 8378   3.083   7.171   0.533  0.1163  0.2391 -0.0305
 4635W        W 8379   3.890   4.762  12.658 -0.0283  0.1166  0.0727
 4636W        W 8380   9.815   4.841  11.427 -0.4288 -0.0616 -0.1482
 4637W        W 8381   8.502   3.680   2.040  0.2573 -0.0824  0.3608
 4638W        W 8382   3.842   5.577   3.080 -0.0638  0.3970  0.1208
 4639W        W 8383   6.844   3.921   1.779  0.1072 -0.2614  0.0677
 4640W        W 8384   6.379   5.110  11.309 -0.2102 -0.0272 -0.0524
 4641W        W 8385   7.096   2.137   0.448 -0.0520 -0.3262 -0.0726
 4642W        W 8386   3.361   4.345   9.699 -0.2147 -0.1411  0.0035
 4643W        W 8387   9.939   4.879   0.674 -0.0526  0.1852  0.0063
 4644W        W 8388   1.300   5.709   1.743 -0.0808 -0.0424  0.1779
 4645W        W 8389   9.028   5.500   3.732 -0.0397 -0.0715 -0.0427
 4646W        W 8390   6.719   2.406   9.727  0.1608  0.1080 -0.0887
 4647W        W 8391   1.063   4.218  11.585  0.3108 -0.0624  0.3536
 4648W        W 8392   2.801   3.530   1.913  0.0908  0.1617 -0.0920
 4649W        W 8393   8.489   9.887   2.842  0.0132 -0.0108  0.0302
 4650W        W 8394   3.586   2.788  11.589 -0.1312 -0.0377 -0.4042
 4651W        W 8395   1.955   6.110   3.175 -0.0120  0.2279  0.1071
 4652W        W 8396   4.384   0.843  10.804 -0.1052  0.1023  0.1662
 4653W        W 8397   6.971   3.984   0.676 -0.0335  0.1087 -0.1968
 4654W        W 8398   6.604   2.341   0.476 -0.4153 -0.3334  0.0931
 4655W        W 8399   3.196   3.033   3.004 -0.0993 -0.3047  0.0719
 4656W        W 8400   8.244   0.925   0.279 -0.0873 -0.0383 -0.1222
 4657W        W 8401   3.697   7.498  10.800 -0.0321 -0.1875  0.1075
 4658W        W 8402   6.938   3.243   9.666 -0.1887  0.0870 -0.0280
 4659W        W 8403   7.892   9.212   2.395 -0.1128  0.0912 -0.1162
 4660W        W 8404   4.523   2.178   3.079 -0.0799 -0.1340 -0.0887
 4661W        W 8405   5.519   1.119   2.335  0.2223  0.2173  0.1779
 4662W        W 8406   0.251   9.422  12.340  0.2367  0.0832  0.2083
 4663W        W 8407   1.318   2.786   1.046 -0.0601  0.0112 -0.0921
 4664W        W 8408   3.951   1.569   1.513 -0.2183 -0.0367  0.0733
 4665W        W 8409   5.862   9.717  12.717  0.0099 -0.0416 -0.3274
 4666W        W 8410   7.145   8.101  12.485 -0.0525 -0.0291 -0.1802
 4667W        W 8411   6.047   6.869  11.868 -0.2544  0.0403  0.1029
 4668W        W 8412   0.015   9.003  11.417  0.1311  0.1047  0.3282
 4669W        W 8413   9.296   6.141   9.352 -0.3807  0.3013 -0.0026
 4670W        W 8414   7.590   5.224  12.176 -0.0698  0.2495  0.1091
 4671W        W 8415   6.276   4.317  10.341 -0.0664  0.4073 -0.0170
 4672W        W 8416   8.164   4.031   2.408  0.0330  0.1011 -0.2574
 4673W        W 8417   7.055   1.439  10.069 -0.3277  0.3231  0.0999
 4674W        W 8418   8.229   1.432   0.023 -0.2786 -0.0647  0.0956
 4675W        W 8419   5.781   8.685  10.322 -0.2962  0.0141  0.0636
 4676W        W 8420   8.968   6.570   2.150 -0.3689 -0.2664  0.1736
 4677W        W 8421   7.107   3.109   9.197 -0.1620  0.0438 -0.1105
 4678W        W 8422   3.311   5.148  11.311 -0.0767 -0.0682 -0.0727
 4679W        W 8423   6.444   0.024   1.482 -0.0060 -0.1379 -0.0429
 4680W        W 8424   0.136   2.995   1.650  0.2127 -0.2690  0.3571
 4681W        W 8425   7.344   4.941   0.429 -0.1332 -0.1249 -0.1289
 4682W        W 8426   3.777   6.893   4.575  0.0941  0.2049  0.2125
 4683W        W 8427   4.449   7.216  10.446 -0.2663  0.0746 -0.3148
 4684W        W 8428   6.216   2.929   2.392 -0.0284 -0.1681  0.0152
 4685W        W 8429   3.813   9.574   3.832 -0.1581  0.0083 -0.1253
 4686W        W 8430   5.752   3.788   9.374 -0.3495  0.1879  0.1245
 4687W        W 8431   0.643   1.631  10.720  0.3295  0.5138  0.1051
 4688W        W 8432   1.253   2.456   0.271  0.1496 -0.2041  0.1535
 4689W        W 8433   6.952   8.568  12.472  0.0623 -0.0531  0.3287
 4690W        W 8434   2.747   0.339  11.372 -0.1925 -0.1116  0.1873
 4691W        W 8435   1.179   3.590   2.219  0.4018  0.2349 -0.0767
 4692W        W 8436   2.482   6.848   3.189  0.1531  0.2112 -0.0367
 4693W        W 8437   0.780   1.600  11.574 -0.0762 -0.0291  0.0653
 4694W        W 8438   3.175   4.669   9.354  0.4217 -0.0186  0.2394
 4695W        W 8439   0.585   5.223   1.524 -0.4514  0.2857 -0.0663
 4696W        W 8440   5.401   4.849   1.597 -0.1963  0.1196  0.0574
 4697W        W 8441   4.081   3.356  11.250 -0.0367  0.1939  0.0127
 4698W        W 8442   8.510   0.739  11.013  0.0836  0.3545  0.1623
 4699W        W 8443   6.461   5.261   0.154 -0.4112 -0.0355 -0.1167
 4700W        W 8444   9.840   7.685   3.380  0.1581  0.0796  0.1197
 4701W        W 8445   3.493   2.431   2.179  0.1722 -0.5348 -0.0140
 4702W        W 8446   8.316   8.557   4.556  0.0809  0.2307  0.0170
 4703W        W 8447   7.993   2.562   1.871 -0.4250  0.1510 -0.2238
 4704W        W 8448   3.516   1.709  10.098 -0.4492 -0.2538  0.0477
 4705W        W 8449   3.750   0.619  11.401 -0.1823 -0.2254 -0.1848
 4706W        W 8450   2.956   3.047   9.006 -0.1317 -0.0994  0.2211
 4707W        W 8451   3.028   2.970   4.343  0.0612 -0.0492  0.1176
 4708W        W 8452   2.251   9.023   3.768  0.2430 -0.1561 -0.2041
 4709W        W 8453   9.524   0.617  12.266  0.1827  0.3267 -0.1886
 4710W        W 8454   8.785   4.089   3.442  0.1416  0.0653  0.0789
 4711W        W 8455   3.608   3.993   9.931  0.2529  0.3005 -0.2528
 4712W        W 8456   6.444   4.486   3.223  0.1714 -0.2577  0.0903
 4713W        W 8457   7.663   3.515   1.715 -0.1757 -0.1021 -0.0513
 4714W        W 8458   8.446   8.267   2.906  0.0254 -0.2174 -0.3406
 4715W        W 8459   9.563   9.291   3.884 -0.1891  0.2944 -0.0070
 4716W        W 8460   5.625   7.785  10.657  0.4342  0.1402  0.0237
 4717W        W 8461   3.471   7.607  10.323  0.2270  0.0684  0.0417
 4718W        W 8462   6.124   6.116   7.894  0.0553  0.1342 -0.0210
 4719W        W 8463   0.447   5.716   1.663 -0.0891  0.0954  0.1560
 4720W        W 8464   0.201   1.709  10.872 -0.4032 -0.2237 -0.0371
 4721W        W 8465   2.476   2.073   0.744  0.1424  0.3445  0.3742
 4722W        W 8466   5.418   9.464   0.097  0.1117 -0.1292 -0.0529
 4723W        W 8467   8.287   4.667  12.608  0.2219 -0.4909  0.4894
 4724W        W 8468   9.173   7.619   9.491 -0.4294 -0.2968 -0.0685
 4725W        W 8469   9.668   5.764   1.208 -0.1214  0.1743  0.1184
 4726W        W 8470   7.977   8.339  12.715  0.2468  0.2599  0.0836
 4727W        W 8471   1.290   6.699  11.314  0.2942 -0.0818 -0.2396
 4728W        W 8472   8.202   9.160   0.763  0.3270 -0.3229 -0.1882
 4729W        W 8473   7.001   4.480  10.439 -0.1473 -0.1874 -0.1059
 4730W        W 8474   9.835   8.315  10.394  0.1570  0.1075 -0.2061
 4731W        W 8475   9.677   1.693   2.563 -0.0838  0.1340  0.2698
 4732W        W 8476   1.385   0.321   8.480 -0.0800 -0.1679 -0.1891
 4733W        W 8477   2.939   5.647   9.038 -0.2387 -0.2970 -0.2440
 4734W        W 8478   5.810   5.641  11.020  0.2805 -0.0603 -0.1779
 4735W        W 8479   2.476   5.549   2.612  0.0792  0.1379 -0.0991
 4736W        W 8480   1.626   8.451   8.299 -0.0322  0.0213  0.0981
 4737W        W 8481   5.652   0.447  11.049 -0.1968 -0.1553  0.2108
 4738W        W 8482   6.756   5.473  12.194 -0.2722  0.1512  0.1097
 4739W        W 8483   8.587   4.736   2.894 -0.4045 -0.1489  0.1297
 4740W        W 8484   7.285   7.303   2.593  0.4208 -0.0884 -0.0809
 4741W        W 8485   1.635   5.284   2.451  0.1437 -0.0147  0.1332
 4742W        W 8486   7.076   4.562  11.433  0.3485  0.3404  0.0514
 4743W        W 8487   2.040   7.542   3.389 -0.0276  0.0027  0.0249
 4744W        W 8488   2.504   8.765  10.190 -0.3297  0.1050  0.1495
 4745W        W 8489   4.770   8.463   0.964  0.2099 -0.0187 -0.0869
 4746W        W 8490   6.747   0.283   3.146  0.2285  0.0382 -0.4318
 4747W        W 8491   0.765   2.785   2.154  0.1495  0.2205  0.0656
 4748W        W 8492   0.060   4.593   9.601  0.2343  0.5272  0.2821
 4749W        W 8493   6.876   2.793  10.457 -0.1917 -0.0517 -0.1778
 4750W        W 8494   1.535   3.341  11.888 -0.0429 -0.1501 -0.1985
 4751W        W 8495   3.859   2.984   8.617 -0.1351 -0.1004 -0.1146
 4752W        W 8496   4.964   1.110   4.054  0.2905  0.2410  0.0173
 4753W        W 8497   9.473   5.729   2.770  0.0422 -0.2807  0.0820
 4754W        W 8498   7.931   7.801  12.180 -0.1165 -0.1408  0.1227
 4755W        W 8499   0.583   8.738  11.901 -0.0698 -0.0918 -0.1295
 4756W        W 8500   5.169   2.915  12.307 -0.5531  0.1020 -0.2946
 4757W        W 8501   5.521   2.137  12.519 -0.0911 -0.2145  0.0931
 4758W        W 8502   5.412   3.509   2.876 -0.0080  0.0696 -0.1289
 4759W        W 8503   0.003   4.369   8.733  0.1557  0.2247 -0.1063
 4760W        W 8504   3.556   3.229   2.444  0.2786 -0.1132 -0.0107
 4761W        W 8505   4.587   8.064   7.897 -0.1483  0.1744  0.1738
 4762W        W 8506   9.701   5.142   1.177 -0.0374  0.0233  0.0945
 4763W        W 8507   4.253   0.049  10.299  0.1842 -0.1362 -0.1951
 4764W        W 8508   5.979   9.271   0.200  0.2301 -0.1530  0.0208
 4765W        W 8509   4.608   4.543   9.013  0.0666 -0.0461 -0.1848
 4766W        W 8510   9.950   3.303  10.065  0.0101 -0.2862 -0.2235
 4767W        W 8511   7.285   0.928  10.589 -0.1530  0.0992 -0.1344
 4768W        W 8512   8.854   4.319   0.326  0.0914 -0.2015  0.5080
 4769W        W 8513   2.943   2.582   2.858 -0.1486  0.0143  0.1933
 4770W        W 8514   0.106   5.569   9.220 -0.3327 -0.0910 -0.0437
 4771W        W 8515   8.194   3.379  12.328  0.4424  0.1913 -0.3696
 4772W        W 8516   0.924   2.971  11.370  0.0340  0.0374  0.3350
 4773W        W 8517   2.483   1.947  12.582 -0.2834 -0.4115  0.2661
 4774W        W 8518   8.354   4.240   2.812  0.2333  0.0319  0.4639
 4775W        W 8519   0.584   3.748   9.696 -0.1543 -0.2308  0.1227
 4776W        W 8520   5.890   4.295   8.468 -0.1951  0.0752 -0.3080
 4777W        W 8521   6.256   5.652   9.735 -0.3760 -0.0620  0.0708
 4778W        W 8522   0.949   5.423   4.499  0.0174  0.1454  0.1228
 4779W        W 8523   8.904   5.708  12.731 -0.0007 -0.0512  0.1340
 4780W        W 8524   9.926   5.010  11.911 -0.0881  0.1133  0.0593
 4781W        W 8525   6.309   7.951  10.027  0.0750 -0.3563  0.2725
 4782W        W 8526   7.307   6.760   2.395  0.0932 -0.0265  0.0932
 4783W        W 8527   5.908   1.824  12.728  0.2961 -0.1683 -0.0528
 4784W        W 8528   4.710   6.259  12.487  0.1499 -0.0115  0.1174
 4785W        W 8529   0.712   9.088   9.758 -0.0456 -0.1388 -0.2372
 4786W        W 8530   3.961   7.274   7.678 -0.1138  0.3670 -0.2002
 4787W        W 8531   5.978   0.290  10.205 -0.2986 -0.0415 -0.1971
 4788W        W 8532   8.192   4.048   9.435 -0.2618 -0.1214 -0.0788
 4789W        W 8533   1.378   4.635   9.788  0.0938  0.0497 -0.0016
 4790W        W 8534   2.455   0.091   1.004 -0.1180  0.3376  0.0452
 4791W        W 8535   7.190   7.698   3.721 -0.2386  0.1650  0.0130
 4792W        W 8536   0.436   6.245   1.769 -0.2959 -0.2959 -0.0637
 4793W        W 8537   2.894   9.545   3.367 -0.1474 -0.2795  0.0157
 4794W        W 8538   6.374   2.170   4.507  0.0030 -0.2206 -0.1535
 4795W        W 8539   9.848   2.212  12.021 -0.1732  0.0298 -0.2669
 4796W        W 8540   1.395   0.817   8.605 -0.1007 -0.1947 -0.1426
 4797W        W 8541   4.969   9.102  10.674 -0.3173 -0.1472  0.0302
 4798W        W 8542   8.601   5.024  12.660 -0.2370  0.2308  0.0198
 4799W        W 8543   8.438   6.495   9.327 -0.2214 -0.0762  0.0779
 4800W        W 8544   2.504   9.661   9.078 -0.1345 -0.2803 -0.1938
 4801W        W 8545   8.580   5.236   0.308 -0.1475 -0.1008 -0.2180
 4802W        W 8546   8.557   8.237   3.924 -0.1963 -0.1410  0.0269
 4803W        W 8547   4.021   6.791   7.844 -0.0783 -0.2452  0.1242
 4804W        W 8548   1.595   8.197   2.996 -0.1673  0.0578  0.2115
 4805W        W 8549   3.747   8.968  10.835  0.0766 -0.0298  0.1392
 4806W        W 8550   3.152   4.523   2.133 -0.0391  0.0798 -0.0952
 4807W        W 8551   5.080   9.144   2.169 -0.1746  0.0231  0.0028
 4808W        W 8552   7.181   5.490  11.896  0.3206 -0.2081  0.1273
 4809W        W 8553   2.742   1.162   4.705  0.0562 -0.0532  0.0478
 4810W        W 8554   7.545   1.819   1.654  0.4667 -0.1231  0.2092
 4811W        W 8555   5.179   6.436   0.438 -0.1423  0.3590  0.1646
 4812W        W 8556   8.896   2.565   0.890 -0.0034 -0.3083 -0.2968
 4813W        W 8557   3.580   5.474  12.350 -0.0316  0.0002 -0.1686
 4814W        W 8558   3.757   4.791  10.525 -0.4783  0.2189  0.2653
 4815W        W 8559   0.284   6.786  10.192 -0.1353  0.1425 -0.2420
 4816W        W 8560   1.693   7.767  12.667 -0.0496 -0.0932  0.1165
 4817W        W 8561   3.584   9.105   3.935 -0.0665 -0.0667  0.0080
 4818W        W 8562   5.913   5.353   2.307 -0.1841  0.2015  0.2123
 4819W        W 8563   0.262   8.574   2.391 -0.1610  0.1512  0.0863
 4820W        W 8564   6.057   2.147  10.330 -0.0871 -0.0130 -0.3369
 4821W        W 8565   6.522   8.304   4.964 -0.1291  0.1739 -0.1052
 4822W        W 8566   1.243   9.589  11.819  0.1940 -0.2238  0.3049
 4823W        W 8567   7.864   0.921   0.643  0.1163  0.1044  0.0767
 4824W        W 8568   7.600   3.290   0.856  0.1288  0.2939  0.1529
 4825W        W 8569   2.143   2.469   3.666  0.2289 -0.0630 -0.1155
 4826W        W 8570   3.908   6.603   2.322 -0.2299 -0.0861 -0.1182
 4827W        W 8571   2.546   4.350   1.296  0.2209 -0.0933  0.1548
 4828W        W 8572   9.832   2.673   1.269  0.3157 -0.1697 -0.1816
 4829W        W 8573   2.245   0.369   2.031 -0.3532  0.1270 -0.2285
 4830W        W 8574   6.501   7.565   8.839  0.0941  0.1048  0.3057
 4831W        W 8575   8.982   9.374  11.002  0.1321 -0.0393 -0.0315
 4832W        W 8576   0.665   8.634  10.562  0.1624  0.0969 -0.1483
 4833W        W 8577   1.417   8.852   1.647  0.0246 -0.1844  0.0031
 4834W        W 8578   1.595   7.695   3.218 -0.1171 -0.2788  0.1929
 4835W        W 8579   0.320   9.620  11.733 -0.0318  0.0879  0.0868
 4836W        W 8580   7.586   7.409   3.766  0.0426  0.2830  0.1699
 4837W        W 8581   2.467   9.855  10.598 -0.2992  0.1909 -0.0446
 4838W        W 8582   6.298   8.671   9.295 -0.0821 -0.1075 -0.2738
 4839W        W 8583   0.467   2.490   0.197  0.0553 -0.1265  0.1895
 4840W        W 8584   3.978   6.836  10.387  0.1350 -0.1939  0.2417
 4841W        W 8585   1.252   0.777   2.699  0.1936 -0.2650 -0.0604
 4842W        W 8586   5.262   3.395   0.181  0.0080  0.1140 -0.0078
 4843W        W 8587   0.120   1.970  12.383 -0.3957 -0.1367  0.0697
 4844W        W 8588   5.809   7.894  10.190 -0.1400  0.0357  0.0503
 4845W        W 8589   0.290   1.104   0.300  0.1310  0.1014 -0.3474
 4846W        W 8590   5.484   1.567   8.761 -0.2633  0.0335  0.0106
 4847W        W 8591   7.591   5.504   2.532  0.0769 -0.0521 -0.1405
 4848W        W 8592   2.166   6.126   2.720 -0.1571 -0.2441  0.0401
 4849W        W 8593   5.214   7.680   9.778  0.2340  0.2868 -0.2312
 4850W        W 8594   1.523   6.771   7.992  0.3130  0.0922  0.2812
 4851W        W 8595   7.765   2.068   2.036 -0.0655 -0.1258  0.1165
 4852W        W 8596   5.597   8.928   0.256 -0.1738  0.0077  0.2728
 4853W        W 8597   1.280   5.861   1.187 -0.0311  0.2361 -0.1575
 4854W        W 8598   9.073   3.268  11.583  0.0131 -0.5480 -0.0441
 4855W        W 8599   2.395   8.133   4.101 -0.2573  0.1548 -0.3629
 4856W        W 8600   8.530   6.352   2.170 -0.2123 -0.0241 -0.3012
 4857W        W 8601   8.403   9.923  12.230  0.1531 -0.2821 -0.3658
 4858W        W 8602   1.971   6.768   1.638 -0.0642 -0.1632 -0.1942
 4859W        W 8603   5.967   9.169   3.629  0.1910 -0.1179  0.1983
 4860W        W 8604   7.910   2.494   3.410  0.4093 -0.1185  0.2739
 4861W        W 8605   6.765   0.674  10.381 -0.1764  0.0945 -0.1118
 4862W        W 8606   8.302   4.021  10.975  0.0103 -0.2117  0.0530
 4863W        W 8607   2.296   8.586   1.206 -0.1554 -0.0849  0.1028
 4864W        W 8608   4.483   4.952  11.234 -0.1203  0.0920  0.3891
 4865W        W 8609   1.410   8.201  10.488  0.1346  0.2850  0.0918
 4866W        W 8610   9.070   6.760   0.940  0.0373 -0.0005  0.2601
 4867W        W 8611   4.850   5.595   0.808  0.0098 -0.3008  0.0409
 4868W        W 8612   6.191   7.941   8.080  0.0845 -0.0380  0.3068
 4869W        W 8613   7.479   9.170   1.970 -0.1101 -0.0844  0.0603
 4870W        W 8614   4.017   7.965   2.985 -0.1095 -0.0333  0.2164
 4871W        W 8615   4.807   8.508  12.094  0.0399 -0.2592  0.1246
 4872W        W 8616   0.191   0.196   1.224  0.1085 -0.0440 -0.1124
 4873W        W 8617   4.484   6.193   4.445 -0.1277  0.0620  0.1641
 4874W        W 8618   3.002   7.079   3.202 -0.1417  0.2416  0.3463
 4875W        W 8619   1.930   7.624  10.209  0.3909 -0.0368 -0.2770
 4876W        W 8620   9.018   5.013  10.194 -0.0588  0.1048 -0.2252
 4877W        W 8621   6.677   8.063  12.316 -0.1057 -0.1068  0.0696
 4878W        W 8622   5.000   2.947  11.530  0.3822  0.3928  0.3808
 4879W        W 8623   0.087   6.088   1.450 -0.2445  0.2750  0.0990
 4880W        W 8624   7.711   6.400   3.949 -0.0130 -0.3101  0.0593
 4881W        W 8625   2.026   3.781  12.453  0.0073 -0.2814 -0.0963
 4882W        W 8626   3.174   8.658   4.264 -0.0297 -0.3829 -0.1618
 4883W        W 8627   6.554   5.073  11.861 -0.3633  0.4509  0.0600
 4884W        W 8628   9.092   7.832   1.599  0.0258  0.0212  0.0905
 4885W        W 8629   2.046   6.563   3.443 -0.0242  0.1292  0.1776
 4886W        W 8630   0.682   7.112   9.924 -0.1735 -0.0025 -0.0996
 4887W        W 8631   3.429   6.801  12.597  0.2843  0.1013  0.4435
 4888W        W 8632   0.273   9.197   1.597 -0.0804 -0.2675  0.1209
 4889W        W 8633   3.813   8.358   3.344  0.0750 -0.0345  0.1680
 4890W        W 8634   6.727   9.472   8.714 -0.0111 -0.1625  0.0029
 4891W        W 8635   7.710   6.662   2.853 -0.1652  0.0449  0.2149
 4892W        W 8636   0.235   3.400  11.982  0.2689 -0.1340  0.1668
 4893W        W 8637   5.890   0.046   4.729 -0.3845 -0.2684 -0.1749
 4894W        W 8638   3.355   5.383   1.859  0.0928 -0.0081  0.1127
 4895W        W 8639   6.062   1.150  11.321 -0.0314 -0.1929 -0.2560
 4896W        W 8640   6.099   7.488  10.147  0.2329  0.1009  0.0131
 4897W        W 8641   0.455   8.424   2.945 -0.0204  0.0639  0.4394
 4898W        W 8642   9.908   0.707   3.516  0.1298  0.4347  0.0128
 4899W        W 8643   4.603   7.486  12.456 -0.0585 -0.1975  0.3876
 4900W        W 8644   3.836   9.678  10.221 -0.1649  0.4392  0.2438
 4901W        W 8645   4.812   6.406   2.598  0.0124  0.2794  0.2596
 4902W        W 8646   0.966   2.019  10.553  0.2223  0.0969 -0.1596
 4903W        W 8647   4.688   8.934   2.517 -0.2452  0.1898  0.0332
 4904W        W 8648   4.175   8.153  12.441  0.0874 -0.0029  0.0912
 4905W        W 8649   1.023   3.736   3.324 -0.3900 -0.0794 -0.0014
 4906W        W 8650   0.139   2.346   9.765 -0.2794  0.0954  0.0157
 4907W        W 8651   8.506   2.394   2.222  0.1068  0.1097 -0.1324
 4908W        W 8652   3.081   3.904   9.997 -0.0596  0.0148 -0.0044
 4909W        W 8653   3.907   8.106   2.467  0.1022 -0.0130  0.1060
 4910W        W 8654   0.734   7.990   1.104 -0.0335  0.2268  0.1323
 4911W        W 8655   5.833   3.017  10.153  0.0342 -0.0474 -0.1210
 4912W        W 8656   6.460   2.480  10.243  0.0943 -0.2185 -0.0788
 4913W        W 8657   5.368   0.012   3.235  0.1430 -0.1929 -0.0350
 4914W        W 8658   2.750   6.979   9.404 -0.0921  0.1972  0.0847
 4915W        W 8659   0.481   9.131  10.854  0.0295  0.2422  0.4583
 4916W        W 8660   1.928   1.579   3.832 -0.1695 -0.1847  0.0377
 4917W        W 8661   3.461   1.574   0.680 -0.4475 -0.1037 -0.0159
 4918W        W 8662   2.629   6.044  10.823 -0.0667 -0.1895 -0.2262
 4919W        W 8663   4.316   2.834   4.139  0.0821 -0.0390  0.1704
 4920W        W 8664   3.039   2.420   1.140  0.1278 -0.3601  0.3513
 4921W        W 8665   3.849   6.410  12.039  0.4293 -0.0367 -0.0498
 4922W        W 8666   8.108   5.440   2.335 -0.1213  0.2512  0.0687
 4923W        W 8667   9.290   9.261   2.397 -0.3911  0.2723  0.3577
 4924W        W 8668   5.034   8.811   0.273 -0.1396  0.1064  0.0590
 4925W        W 8669   4.326   3.130  12.042  0.4194  0.3938 -0.0460
 4926W        W 8670   5.069   1.366   1.385 -0.2031  0.1645 -0.1436
 4927W        W 8671   7.632   8.937   9.883 -0.1634  0.0553 -0.0100
 4928W        W 8672   2.737   4.795  10.268 -0.0413 -0.1853 -0.1454
 4929W        W 8673   9.489   6.679   2.269  0.0344  0.1854 -0.1010
 4930W        W 8674   8.069   3.660   4.257 -0.1434 -0.1659  0.1093
 4931W        W 8675   1.898   5.755   3.451  0.2240 -0.1018 -0.1222
 4932W        W 8676   3.482   1.346   4.072  0.1296 -0.1007 -0.1631
 4933W        W 8677   4.542   7.891  12.724  0.1979  0.0002 -0.0930
 4934W        W 8678   1.494   0.138  12.241 -0.1435 -0.0604  0.2032
 4935W        W 8679   8.431   2.382  12.334  0.1502  0.0545  0.0837
 4936W        W 8680   4.550   2.498   1.116  0.1046 -0.0152 -0.0554
 4937W        W 8681   4.931   3.539   2.286 -0.0600 -0.0943  0.1102
 4938W        W 8682   1.524   6.674  10.428  0.0625  0.0445 -0.0160
 4939W        W 8683   3.783   1.724   3.856  0.3294 -0.0309 -0.1355
 4940W        W 8684   4.992   4.249   0.679 -0.1493 -0.1871 -0.2571
 4941W        W 8685   2.991   4.067   1.993  0.3534  0.0294  0.2769
 4942W        W 8686   7.681   3.892   9.513  0.0556 -0.2148  0.2299
 4943W        W 8687   9.372   0.598   1.115  0.0947  0.1210 -0.2343
 4944W        W 8688   4.513   0.251   3.669  0.1248  0.2013 -0.1262
 4945W        W 8689   3.462   4.937   9.678  0.0292  0.1158 -0.1679
 4946W        W 8690   0.717   4.392   0.383  0.3289  0.3120  0.2280
 4947W        W 8691   5.396   3.051   2.138 -0.1013 -0.0736 -0.2129
 4948W        W 8692   6.199   3.264   9.557  0.1060 -0.2098  0.0998
 4949W        W 8693   5.033   2.410  12.389 -0.1076 -0.0132 -0.1248
 4950W        W 8694   5.960   6.473  12.634 -0.0216  0.0387  0.1355
 4951W        W 8695   7.973   9.379   1.820  0.0823  0.1327  0.0449
 4952W        W 8696   1.806   7.343   2.923 -0.1581 -0.0466 -0.4677
 4953W        W 8697   2.413   9.056   2.715 -0.2425 -0.3709 -0.2668
 4954W        W 8698   4.257   9.295   3.243  0.3367 -0.2833 -0.2490
 4955W        W 8699   0.013   3.896   8.935  0.1072 -0.0467  0.1149
 4956W        W 8700   2.477   0.896  10.813 -0.0604  0.0472 -0.0654
 4957W        W 8701   6.488   0.964  11.222 -0.3550 -0.3000  0.0751
 4958W        W 8702   8.257   2.403   9.733  0.0415  0.1604  0.4622
 4959W        W 8703   2.813   3.619   0.919 -0.2920 -0.0260  0.1935
 4960W        W 8704   0.970   9.083   0.469 -0.2065 -0.0312 -0.0867
 4961W        W 8705   9.047   6.341  10.186  0.0033 -0.0266  0.0894
 4962W        W 8706   0.860   9.035  12.769 -0.0023 -0.0252 -0.0508
 4963W        W 8707   4.435   3.527   2.561  0.1053 -0.1675 -0.3515
 4964W        W 8708   2.187   1.215   9.049 -0.1001  0.0120 -0.3568
 4965W        W 8709   9.934   9.305   2.576 -0.0844 -0.1301  0.0695
 4966W        W 8710   0.917   7.308   3.241  0.0899  0.0939 -0.0322
 4967W        W 8711   7.001   1.958  11.395 -0.3668  0.0924 -0.0396
 4968W        W 8712   0.508   9.892   9.614 -0.0634  0.2435  0.0209
 4969W        W 8713   5.189   4.208  10.200 -0.2123  0.1146 -0.1252
 4970W        W 8714   6.518   1.892   2.924  0.0384 -0.0178 -0.2269
 4971W        W 8715   7.385   9.345  10.745  0.0680 -0.0978 -0.1603
 4972W        W 8716   6.757   2.449   4.181 -0.0791 -0.1501 -0.2617
 4973W        W 8717   6.526   1.925  10.438 -0.2149  0.0966 -0.0396
 4974W        W 8718   5.234   0.615   4.039  0.2208 -0.1638  0.2408
 4975W        W 8719   8.866   1.855  10.247 -0.0197  0.1867  0.1488
 4976W        W 8720   2.784   8.239   8.966  0.0503  0.1559  0.0843
 4977W        W 8721   1.137   4.316   3.352 -0.2569 -0.1758  0.1773
 4978W        W 8722   9.714   1.478   1.062 -0.0557 -0.3853  0.0663
 4979W        W 8723   5.705   5.698   0.373 -0.2155  0.2348 -0.0929
 4980W        W 8724   2.718   1.965   2.564 -0.2861  0.1496 -0.4327
 4981W        W 8725   0.448   1.855  11.936 -0.1703  0.1699 -0.2774
 4982W        W 8726   1.081   2.250   9.581 -0.1586  0.4601 -0.0962
 4983W        W 8727   1.310   7.261  12.656 -0.1641 -0.1613 -0.1274
 4984W        W 8728   2.441   0.533   0.801  0.1796 -0.0978 -0.1399
 4985W        W 8729   3.127   6.161   8.823 -0.0945  0.0983 -0.1945
 4986W        W 8730   3.572   4.138   3.369  0.1174  0.0059  0.1798
 4987W        W 8731   0.849   9.301   2.456  0.0381  0.0404 -0.0528
 4988W        W 8732   7.721   3.148  11.023 -0.2542  0.0783  0.1684
 4989W        W 8733   4.714   6.124   3.555  0.0879 -0.0202 -0.0834
 4990W        W 8734   4.118   0.961   0.833  0.1371  0.3708 -0.2954
 4991W        W 8735   0.333   6.994   8.910  0.1323  0.2809  0.0117
 4992W        W 8736   7.608   0.365   2.443  0.2020 -0.1911  0.0522
 4993W        W 8737   5.948   3.816  11.282  0.3835  0.1589  0.1152
 4994W        W 8738   7.273   2.381  10.645 -0.0301 -0.0153 -0.2918
 4995W        W 8739   5.171   7.218  11.103 -0.2351 -0.0110 -0.0737
 4996W        W 8740   8.294   9.434  11.915  0.0243  0.0757  0.0095
 4997W        W 8741   8.094   0.329  12.486  0.0511  0.0923 -0.0262
 4998W        W 8742   9.934   7.612  11.148  0.3912 -0.1099 -0.0061
 4999W        W 8743   7.368   3.024   0.431  0.2497  0.1135 -0.4958
 5000W        W 8744   3.604   8.895  12.666  0.1479 -0.0971  0.3757
 5001W        W 8745   9.665   8.406   9.881  0.2591  0.1747  0.1658
 5002W        W 8746   4.678   2.855  10.021 -0.2943 -0.0162  0.0135
 5003W        W 8747   7.751   3.335   0.336  0.1716  0.0397 -0.0070
 5004W        W 8748   0.862   8.833   2.716  0.1022  0.1965 -0.2933
 5005W        W 8749   4.709   0.962   2.664  0.0545 -0.0909  0.2436
 5006W        W 8750   6.669   9.418   2.732  0.2513  0.3019  0.1026
 5007W        W 8751   0.996   0.603   1.176 -0.2528  0.2212 -0.0877
 5008W        W 8752   6.802   4.605   2.842 -0.0520  0.0881 -0.0521
 5009W        W 8753   0.354   8.786   0.812 -0.1118  0.1934  0.1508
 5010W        W 8754   6.743   7.196   2.588 -0.1223 -0.0574  0.0980
 5011W        W 8755   8.238   4.575   0.868  0.0763 -0.3920  0.2982
 5012W        W 8756   2.642   9.071   1.803 -0.1382 -0.1495 -0.1583
 5013W        W 8757   6.020   5.801  10.525  0.1714 -0.2030  0.1653
 5014W        W 8758   9.418   8.703   4.276 -0.1020  0.1335  0.1822
 5015W        W 8759   3.908   6.062   3.148 -0.3539 -0.1559 -0.2234
 5016W        W 8760   7.920   3.779   3.811  0.2631 -0.0193 -0.1650
 5017W        W 8761   2.569   4.253   0.311  0.1670 -0.0046  0.2297
 5018W        W 8762   7.492   6.001  11.198 -0.3560  0.4509 -0.0641
 5019W        W 8763   1.457   1.566   2.514 -0.2285  0.0450 -0.1275
 5020W        W 8764   5.179   1.836   3.699  0.0191 -0.0360  0.0176
 5021W        W 8765   5.798   8.201   1.305  0.0283  0.0532 -0.0637
 5022W        W 8766   7.472   4.336  11.631 -0.0024 -0.0507  0.1318
 5023W        W 8767   6.728   4.278  10.037  0.0975  0.0188  0.1425
 5024W        W 8768   5.496   0.961   9.620  0.0726 -0.1179 -0.2586
 5025W        W 8769   3.621   0.949   4.419  0.1359  0.2061  0.0322
 5026W        W 8770   7.072   9.061   9.518 -0.2316  0.0160 -0.4870
 5027W        W 8771   2.892   4.859   3.896 -0.1341 -0.1010 -0.1831
 5028W        W 8772   4.600   3.104   3.162  0.1172  0.1927 -0.2164
 5029W        W 8773   9.069   1.151  10.978  0.3643  0.0960  0.1283
 5030W        W 8774   3.589   9.833   2.755  0.3084  0.1041 -0.0793
 5031W        W 8775   1.510   9.828  11.301 -0.0991 -0.4601 -0.0149
 5032W        W 8776   3.325   9.954   0.926  0.3716  0.2069  0.2647
 5033W        W 8777   1.241   0.045   1.841  0.0152  0.3843 -0.0624
 5034W        W 8778   5.896   9.716   9.865  0.0004 -0.0538  0.0423
 5035W        W 8779   3.779   0.529  12.743  0.5475 -0.0608 -0.0371
 5036W        W 8780   0.547   4.551   1.266  0.1196 -0.2911 -0.2433
 5037W        W 8781   5.231   0.858  11.865 -0.2216 -0.1524 -0.1643
 5038W        W 8782   8.143   6.311   4.260  0.1258  0.1751  0.0788
 5039W        W 8783   2.509   3.350   8.804  0.3395  0.1134 -0.0566
 5040W        W 8784   9.206   0.733   9.619 -0.1757  0.4697 -0.0938
 5041W        W 8785   2.747   7.800   2.022  0.2175 -0.1422 -0.3032
 5042W        W 8786   7.061   7.798  12.143  0.0715  0.2752 -0.0177
 5043W        W 8787   2.108   6.626   2.957 -0.0622  0.1217  0.0492
 5044W        W 8788   7.517   7.857  10.215 -0.0232 -0.2538  0.1713
 5045W        W 8789   4.470   0.004   4.636 -0.0532  0.3119  0.1022
 5046W        W 8790   0.932   3.260   3.510  0.0845 -0.4251  0.2264
 5047W        W 8791   2.025   2.789  10.327 -0.1057  0.1812  0.1505
 5048W        W 8792   7.508   8.244   1.606  0.2311  0.2283 -0.1710
 5049W        W 8793   3.091   7.009   8.088 -0.1989  0.1926  0.0542
 5050W        W 8794   6.051   1.571   3.696  0.4064 -0.0563  0.1012
 5051W        W 8795   5.521   0.712   2.032 -0.3035 -0.0720 -0.1293
 5052W        W 8796   9.136   3.593  11.206 -0.2756  0.3558  0.1670
 5053W        W 8797   2.698   3.618  11.196 -0.1164  0.1503 -0.1772
 5054W        W 8798   9.774   2.543   2.033 -0.1905 -0.1842  0.0464
 5055W        W 8799   7.881   4.749   0.301 -0.1347 -0.1758 -0.1830
 5056W        W 8800   8.254   2.599  10.770  0.0761  0.0835  0.1615
 5057W        W 8801   8.888   7.997   2.483  0.1710 -0.0664 -0.0225
 5058W        W 8802   0.073   6.491   8.901 -0.1186  0.2671  0.0468
 5059W        W 8803   2.970   1.728   9.464 -0.1970 -0.0814 -0.2483
 5060W        W 8804   2.555   2.074  11.448 -0.1739 -0.3300  0.2110
 5061W        W 8805   5.536   5.483   4.012 -0.2447 -0.2575  0.1243
 5062W        W 8806   6.045   5.624   0.825  0.2374 -0.0191  0.1472
 5063W        W 8807   2.151   8.632   2.607  0.2172  0.0424 -0.5091
 5064W        W 8808   5.249   5.261  11.674  0.2609  0.0387 -0.2860
 5065W        W 8809   9.623   1.866   1.874 -0.2563  0.0176  0.0959
 5066W        W 8810   9.225   9.200  11.803  0.1116 -0.0577 -0.1986
 5067W        W 8811   7.529   1.289   9.598 -0.0880  0.0070 -0.2528
 5068W        W 8812   9.927   3.162   2.701  0.0337  0.2198  0.3007
 5069W        W 8813   2.501   0.496   8.603  0.0615  0.1387 -0.1385
 5070W        W 8814   3.681   8.518  10.590 -0.2164  0.1767  0.2082
 5071W        W 8815   5.434   9.941  10.898  0.2122 -0.1574 -0.2136
 5072W        W 8816   3.741   2.370  12.643 -0.3876  0.2683  0.2993
 5073W        W 8817   2.379   4.354   3.916  0.1686 -0.1284 -0.1264
 5074W        W 8818   9.679   6.674  12.771  0.0578  0.2198  0.0894
 5075W        W 8819   8.742   9.624   2.434  0.0369  0.0051  0.0260
 5076W        W 8820   3.934   3.193   0.744 -0.3625  0.0397 -0.1444
 5077W        W 8821   1.309   9.120   8.901 -0.1485 -0.0169 -0.3493
 5078W        W 8822   8.172   6.421  10.806 -0.3359  0.0688  0.2150
 5079W        W 8823   9.397   2.349  11.891 -0.2076  0.3369  0.0731
 5080W        W 8824   8.138   3.385   1.816  0.1771 -0.2410 -0.0323
 5081W        W 8825   6.278   6.260   2.023 -0.0377 -0.4531 -0.0409
 5082W        W 8826   7.853   5.332  10.028  0.2421 -0.1470 -0.0981
 5083W        W 8827   0.681   4.791   3.538 -0.1317 -0.1799 -0.0972
 5084W        W 8828   2.489   9.880  12.711  0.1232  0.2038  0.1959
 5085W        W 8829   9.189   7.749   2.156  0.0679  0.0638  0.2017
 5086W        W 8830   6.881   0.246  10.135 -0.4184  0.0305  0.0933
 5087W        W 8831   4.271   1.151   0.265 -0.1918  0.0927  0.1544
 5088W        W 8832   0.103   5.920  12.279  0.2068  0.2143  0.0988
 5089W        W 8833   6.182   7.146   2.977 -0.2582 -0.1586 -0.1600
 5090W        W 8834   0.211   1.572   2.622  0.3230  0.0194 -0.3842
 5091W        W 8835   5.825   7.724   2.520 -0.0509 -0.0673 -0.3766
 5092W        W 8836   1.624   1.725   4.183 -0.0061 -0.2334 -0.0290
 5093W        W 8837   7.564   9.076  10.339 -0.2520  0.0316 -0.0110
 5094W        W 8838   2.575   1.921   1.725 -0.2337  0.2097  0.3197
 5095W        W 8839   2.478   7.411   3.507  0.3292 -0.1710 -0.1545
 5096W        W 8840   3.821   0.428   3.162  0.0641  0.0971 -0.2470
 5097W        W 8841   2.666   4.422   1.848  0.0234 -0.0515  0.0036
 5098W        W 8842   3.992   7.765   0.322  0.0818 -0.2315 -0.0304
 5099W        W 8843   8.968   8.062   9.379 -0.0419 -0.0756  0.0106
 5100W        W 8844   3.602   3.556  11.786 -0.0023 -0.4629  0.0894
 5101W        W 8845   3.922   6.688  12.431  0.0190 -0.1466 -0.4007
 5102W        W 8846   2.956   5.606   4.185  0.2170 -0.1518  0.0867
 5103W        W 8847   6.002   2.626   2.992  0.1581 -0.1632 -0.2799
 5104W        W 8848   9.688   4.054   2.567  0.1180 -0.1482  0.0818
 5105W        W 8849   7.363   1.373   1.924 -0.0410 -0.0186  0.0318
 5106W        W 8850   2.629   5.807   1.938 -0.1803 -0.1037 -0.0128
 5107W        W 8851   5.979   4.307  12.771 -0.0478  0.0219  0.0952
 5108W        W 8852   4.444   5.959  12.753 -0.0636 -0.2514 -0.0498
 5109W        W 8853   0.511   8.298   0.238 -0.1586  0.1291 -0.0106
 5110W        W 8854   2.194   6.709  11.976 -0.0349  0.0137 -0.0819
 5111W        W 8855   1.459   3.526   8.586  0.2141 -0.0860 -0.2401
 5112W        W 8856   9.362   9.328   1.869 -0.0530  0.1883  0.0343
 5113W        W 8857   6.891   9.012  11.972 -0.1356  0.0333 -0.0161
 5114W        W 8858   1.439   3.998   8.964 -0.0211 -0.1298  0.0794
 5115W        W 8859   5.953   0.761   2.989  0.1038 -0.0742 -0.2426
 5116W        W 8860   3.719   2.157   8.158 -0.0940 -0.0453 -0.3256
 5117W        W 8861   4.769   5.127  11.798  0.1773 -0.0558  0.1061
 5118W        W 8862   9.064   5.124  12.528 -0.0996  0.1373  0.1121
 5119W        W 8863   1.505   7.513   9.888  0.1199 -0.0165 -0.0286
 5120W        W 8864   8.314   9.460   2.194  0.0093  0.0226  0.0902
 5121W        W 8865   7.720   2.866  11.422 -0.0822  0.2006 -0.0298
 5122W        W 8866   2.660   8.622   0.821 -0.3344 -0.0699  0.0839
 5123W        W 8867   0.655   0.553  10.360  0.1068 -0.1010 -0.0541
 5124W        W 8868   1.136   5.433  11.458 -0.0869 -0.0067 -0.3103
 5125W        W 8869   1.831   1.914   3.374 -0.2826 -0.1593 -0.0046
 5126W        W 8870   6.021   9.801   0.596  0.1568  0.2103  0.1702
 5127W        W 8871   2.342   3.576  11.528  0.1136  0.2359 -0.1155
 5128W        W 8872   3.708   7.105   3.721 -0.0304 -0.2200 -0.1553
 5129W        W 8873   9.580   1.771   3.385  0.1830  0.1752 -0.0352
 5130W        W 8874   6.063   6.577   1.695 -0.1590 -0.0634  0.0124
 5131W        W 8875   8.812   2.270   3.227  0.1147 -0.3426  0.0006
 5132W        W 8876   7.125   8.209   1.932  0.1517  0.1874  0.0092
 5133W        W 8877   9.167   4.970   3.983 -0.3673 -0.1693  0.1591
 5134W        W 8878   0.846   1.663   1.345  0.1439  0.1514  0.3693
 5135W        W 8879   7.430   4.496   8.739  0.0330  0.0852  0.0040
 5136W        W 8880   3.150   3.931   8.036 -0.4479 -0.0441  0.3760
 5137W        W 8881   7.899   7.678   8.777 -0.0264  0.1124 -0.4498
 5138W        W 8882   8.879   3.048  11.077  0.0264 -0.1322 -0.1284
 5139W        W 8883   4.769   6.250   0.239 -0.1188 -0.2467  0.1015
 5140W        W 8884   2.899   6.195   3.801 -0.1018 -0.1576 -0.3827
 5141W        W 8885   9.811   8.693   3.792 -0.2893 -0.0011 -0.2756
 5142W        W 8886   5.175   5.058   9.283  0.0856 -0.1354  0.0777
 5143W        W 8887   9.703   5.111   9.694 -0.0030  0.1768 -0.3129
 5144W        W 8888   1.686   5.733   2.030  0.2377 -0.0255 -0.0515
 5145W        W 8889   4.180   0.603   1.206  0.2058  0.0154  0.0058
 5146W        W 8890   5.904   3.991  10.316 -0.4068 -0.0807  0.1951
 5147W        W 8891   7.471   6.455   3.265  0.0799  0.1560  0.0642
 5148W        W 8892   8.057   8.353   1.853 -0.0817  0.1263  0.4192
 5149W        W 8893   0.846   8.807  10.992 -0.5230 -0.0447  0.1760
 5150W        W 8894   0.420   4.459   9.212 -0.1806 -0.2149 -0.1137
 5151W        W 8895   2.919   9.446   9.386 -0.1223  0.0618  0.1794
 5152W        W 8896   8.061   6.804   4.100  0.1081  0.0584  0.0881
 5153W        W 8897   5.338   3.527   9.384  0.1422 -0.2107 -0.1567
 5154W        W 8898   7.515   9.605   0.307  0.1557 -0.1475  0.2780
 5155W        W 8899   0.631   6.836  12.038 -0.0909 -0.3489  0.0919
 5156W        W 8900   7.427   7.772   9.163 -0.0475 -0.1862 -0.0581
 5157W        W 8901   6.359   6.526   3.731  0.0476 -0.2875 -0.0236
 5158W        W 8902   1.877   8.732   1.834  0.1227  0.0636  0.3557
 5159W        W 8903   3.309   7.018   4.065 -0.0677 -0.0172  0.2497
 5160W        W 8904   7.536   5.855   3.138  0.2343  0.1120  0.0229
 5161W        W 8905   7.184   1.579   0.545  0.0517  0.5376  0.3836
 5162W        W 8906   0.050   0.707   1.956  0.0238 -0.2399  0.4018
 5163W        W 8907   5.543   3.852  11.593 -0.4013  0.0666 -0.0029
 5164W        W 8908   7.478   2.934  12.701 -0.1394 -0.1551  0.1240
 5165W        W 8909   8.915   6.982   4.768  0.1255  0.1543  0.0331
 5166W        W 8910   2.431   0.231  10.121  0.1027 -0.3215  0.1663
 5167W        W 8911   4.562   4.526   3.080  0.0760 -0.0596  0.1316
 5168W        W 8912   9.898   6.499   0.552 -0.0585 -0.4326  0.0588
 5169W        W 8913   1.350   8.349   4.565 -0.5098 -0.0557  0.0656
 5170W        W 8914   2.780   8.107   1.002  0.0554  0.3812  0.2817
 5171W        W 8915   8.238   5.020   3.825  0.3267  0.0319 -0.0677
 5172W        W 8916   8.732   5.138   8.504 -0.3925  0.1561  0.2284
 5173W        W 8917   5.554   1.541   0.560  0.0253 -0.1572  0.0079
 5174W        W 8918   9.657   2.385  11.400 -0.0033 -0.1079  0.2719
 5175W        W 8919   4.212   5.391  10.471  0.2182 -0.0444 -0.1811
 5176W        W 8920   7.434   7.820   1.940  0.1463 -0.3887  0.0854
 5177W        W 8921   3.627   4.551   0.721 -0.1523  0.2004 -0.2553
 5178W        W 8922   7.091   9.301   9.046 -0.0055  0.2315  0.2231
 5179W        W 8923   4.691   6.841  11.700  0.0680  0.4261 -0.0406
 5180W        W 8924   8.793   8.120   1.308  0.0595 -0.0217 -0.2850
 5181W        W 8925   2.748   1.279  11.884  0.1123  0.0989 -0.0594
 5182W        W 8926   1.568   6.233  11.383  0.4042  0.2768 -0.5287
 5183W        W 8927   7.701   8.353   3.908  0.5047 -0.4237  0.0059
 5184W        W 8928   7.442   4.123  12.457  0.1854 -0.5396 -0.0905
 5185W        W 8929   7.501   3.514  12.014  0.0409 -0.0189  0.0412
 5186W        W 8930   0.122   8.898   0.395  0.3110  0.0655 -0.0860
 5187W        W 8931   2.072   5.660   2.343  0.3963  0.0218 -0.2095
 5188W        W 8932   2.479   6.723   9.040 -0.0306  0.0785  0.0939
 5189W        W 8933   3.001   5.123  12.507  0.1842  0.2768 -0.2047
 5190W        W 8934   1.522   5.580   9.613  0.1336 -0.1968  0.0933
 5191W        W 8935   6.312   5.514  11.033 -0.0506  0.0081  0.1242
 5192W        W 8936   1.931   6.827   0.445  0.0480 -0.0278 -0.0195
 5193W        W 8937   9.448   2.353  12.354 -0.0971  0.4332 -0.0554
 5194W        W 8938   3.339   3.735   1.155 -0.2204 -0.2296  0.0470
 5195W        W 8939   4.279   3.443   3.032  0.1409  0.1079  0.1037
 5196W        W 8940   3.949   1.284   4.088  0.1810 -0.0485  0.1794
 5197W        W 8941   5.875   6.704   9.044 -0.0787  0.0563  0.4190
 5198W        W 8942   5.382   1.637   1.621  0.2894  0.0215  0.1984
 5199W        W 8943   9.494   6.138  10.481 -0.0734  0.0545  0.0136
 5200W        W 8944   4.175   2.095  11.880 -0.3011  0.0299  0.1062
 5201W        W 8945   4.429   9.491  10.192  0.1405 -0.1223  0.1957
 5202W        W 8946   7.233   8.916  11.478 -0.0311 -0.2824  0.0046
 5203W        W 8947   3.108   1.966   0.942  0.1774 -0.2523 -0.3274
 5204W        W 8948   7.844   4.296   0.907  0.1410 -0.0552  0.0017
 5205W        W 8949   8.708   8.786   2.194 -0.0973 -0.0870  0.2630
 5206W        W 8950   3.734   4.536  11.993  0.0541  0.2040  0.1006
 5207W        W 8951   2.776   6.109  11.339  0.0011 -0.0731 -0.0513
 5208W        W 8952   3.132   1.474  12.193 -0.1054 -0.0327 -0.1083
 5209W        W 8953   3.139   1.308   2.222 -0.1140  0.1556 -0.2455
 5210W        W 8954   4.975   7.146  12.548 -0.1964  0.3940  0.0262
 5211W        W 8955   8.784   3.780   9.319  0.0259 -0.2004 -0.0840
 5212W        W 8956   7.163   4.168   0.313 -0.0580 -0.1468  0.0836
 5213W        W 8957   9.911   5.202  12.456  0.1432 -0.0736  0.0357
 5214W        W 8958   1.773   4.015   0.796 -0.0388  0.0174 -0.2345
 5215W        W 8959   7.382   5.125  12.698  0.0953  0.0756  0.1282
 5216W        W 8960   1.189   7.183   8.948  0.1998 -0.1499  0.0371
 5217W        W 8961   7.170   1.917   0.988 -0.0928  0.0450  0.2298
 5218W        W 8962   5.613   1.657   3.931  0.1231 -0.0061 -0.0763
 5219W        W 8963   1.656   2.746   4.542 -0.0001 -0.4174 -0.2025
 5220W        W 8964   7.429   8.065   8.300  0.0961  0.0066  0.2398
 5221W        W 8965   2.875   6.098  12.389 -0.1401 -0.0075 -0.2747
 5222W        W 8966   6.328   6.664   8.693 -0.0786 -0.0197  0.0494
 5223W        W 8967   2.270   7.127   1.680  0.3459  0.6145  0.4562
 5224W        W 8968   1.973   7.652   9.741 -0.0675 -0.0563 -0.1210
 5225W        W 8969   9.409   1.915  12.128 -0.1745  0.0477 -0.1791
 5226W        W 8970   9.955   7.265   2.554 -0.3295 -0.2738  0.1045
 5227W        W 8971   8.013   6.905   0.742  0.0245  0.1018 -0.0560
 5228W        W 8972   7.723   5.627   3.533  0.0278 -0.1473 -0.0146
 5229W        W 8973   0.867   9.295   2.935  0.2057 -0.0306 -0.0176
 5230W        W 8974   9.847   5.883   2.373 -0.0168 -0.2039  0.0786
 5231W        W 8975   2.253   3.599  10.452  0.1841  0.0555  0.0635
 5232W        W 8976   9.826   4.409  10.614  0.1026 -0.0400 -0.4043
 5233W        W 8977   0.409   5.893   2.152  0.1903  0.0365  0.0574
 5234W        W 8978   3.215   8.281   3.410 -0.0319  0.0695 -0.0560
 5235W        W 8979   0.688   9.520  12.501 -0.0387  0.3134 -0.3573
 5236W        W 8980   0.228   5.263   0.939 -0.0295 -0.0586 -0.0098
 5237W        W 8981   1.798   0.309  11.149 -0.1930 -0.0506  0.2023
 5238W        W 8982   1.154   0.595   9.506 -0.0121  0.1089 -0.2307
 5239W        W 8983   3.630   3.072  10.390  0.0917 -0.0329 -0.2296
 5240W        W 8984   8.873   7.706  10.317 -0.1622 -0.1985 -0.1236
 5241W        W 8985   1.256   3.256  10.764  0.2590  0.0442  0.1575
 5242W        W 8986   9.298   2.841   1.173  0.0080 -0.3118  0.0168
 5243W        W 8987   6.792   2.214   1.155 -0.0926  0.3666  0.0127
 5244W        W 8988   4.485   4.156   8.696  0.3613  0.1323  0.0746
 5245W        W 8989   7.440   6.832   4.754  0.1347  0.1259 -0.0836
 5246W        W 8990   2.071   0.091  11.501 -0.0786  0.0101 -0.1744
 5247W        W 8991   5.569   0.121   9.649  0.0214 -0.0059 -0.1018
 5248W        W 8992   8.808   0.912   0.197  0.0173 -0.1482  0.0392
 5249W        W 8993   3.516   4.155   1.410 -0.1578 -0.1238 -0.2798
 5250W        W 8994   9.058   8.615  11.780 -0.0360 -0.0488 -0.0737
 5251W        W 8995   3.679   8.487  11.141 -0.1117  0.0817  0.0514
 5252W        W 8996   2.208   2.441   0.976 -0.1279 -0.4961 -0.2424
 5253W        W 8997   6.322   3.756   9.542 -0.0872 -0.0262  0.1683
 5254W        W 8998   8.536   8.450   1.800 -0.2432  0.1944  0.1627
 5255W        W 8999   8.002   3.072  12.731  0.2030 -0.0937  0.0012
 5256W        W 9000   2.542   5.868   9.301  0.0118  0.4638  0.0777
 5257W        W 9001   8.055   8.945  10.148  0.1294 -0.0294 -0.1342
 5258W        W 9002   7.677   1.417  11.429 -0.3419 -0.0588 -0.0825
 5259W        W 9003   1.051   5.539   9.818 -0.1019  0.5515  0.4804
 5260W        W 9004   3.458   9.861   2.250  0.0934 -0.0232 -0.4767
 5261W        W 9005   9.628   3.447   3.512 -0.2526 -0.2868 -0.0318
 5262W        W 9006   7.615   9.846   0.798 -0.0403  0.1442 -0.3256
 5263W        W 9007   9.564   4.954   2.569 -0.0373  0.0155  0.0902
 5264W        W 9008   9.287   0.319   9.293  0.2933  0.2791  0.0247
 5265W        W 9009   0.045   0.596  12.155  0.2471  0.1340  0.0952
 5266W        W 9010   3.451   4.144  11.191 -0.1759  0.2086 -0.2930
 5267W        W 9011   6.182   2.488   0.383 -0.2868 -0.3095  0.0638
 5268W        W 9012   4.787   9.373  12.188  0.0453 -0.2105 -0.5057
 5269W        W 9013   7.457   7.530  12.064 -0.3136  0.0501 -0.0835
 5270W        W 9014   5.601   9.383   9.573 -0.0739 -0.1534 -0.0249
 5271W        W 9015   5.263   2.055   3.243  0.0249  0.1448  0.1821
 5272W        W 9016   0.275   6.902  10.670  0.1758  0.2003  0.1736
 5273W        W 9017   4.668   5.071   9.030  0.1431  0.0299  0.1479
 5274W        W 9018   3.221   5.270   9.941  0.1402  0.0004 -0.1717
 5275W        W 9019   0.540   3.644  10.666  0.1122  0.2485 -0.3202
 5276W        W 9020   5.202   0.797  10.594 -0.0539 -0.5281  0.0637
 5277W        W 9021   9.941   7.446   1.536 -0.2190 -0.0826 -0.1199
 5278W        W 9022   7.539   4.401  11.137  0.0977  0.2657  0.1182
 5279W        W 9023   1.494   5.298   1.922  0.0923 -0.0193 -0.0006
 5280W        W 9024   7.436   8.596   9.534 -0.0055  0.0630  0.1086
 5281W        W 9025   3.286   6.533   9.396 -0.0114  0.1426 -0.2637
 5282W        W 9026   3.743   1.867  10.621 -0.0269  0.0597  0.2215
 5283W        W 9027   3.419   9.305   4.540  0.1499  0.3505 -0.1633
 5284W        W 9028   9.746   1.446   0.555 -0.1893  0.0652  0.2557
 5285W        W 9029   4.998   9.830  12.299 -0.4169 -0.1118 -0.0733
 5286W        W 9030   5.076   9.932   1.098  0.1051  0.0332  0.0075
 5287W        W 9031   7.178   9.470   2.866 -0.0951  0.3029 -0.0089
 5288W        W 9032   9.755   3.722   9.367  0.1258 -0.0194 -0.0486
 5289W        W 9033   1.527   7.837  12.188 -0.0330  0.1585 -0.2200
 5290W        W 9034   7.492   0.655   0.359 -0.1788 -0.0731  0.1501
 5291W        W 9035   8.906   7.009   8.661 -0.1663  0.1200  0.2512
 5292W        W 9036   5.106   3.934  12.176 -0.1501 -0.0082  0.2020
 5293W        W 9037   4.180   7.867   3.437  0.0035 -0.2156  0.1844
 5294W        W 9038   8.389   5.951  10.112  0.2995  0.0051  0.0187
 5295W        W 9039   4.307   6.754  11.379  0.0021 -0.1708 -0.0586
 5296W        W 9040   3.220   9.394  10.892  0.2333  0.0239  0.4800
 5297W        W 9041   7.281   5.676  10.812 -0.0376  0.3626 -0.0252
 5298W        W 9042   5.716   2.853   2.495 -0.0831  0.1093  0.0068
 5299W        W 9043   5.532   9.951   0.320  0.0545  0.1420  0.0060
 5300W        W 9044   8.976   5.308   2.230 -0.3878 -0.1569  0.2281
 5301W        W 9045   7.391   2.038  12.226 -0.1862  0.0439 -0.0275
 5302W        W 9046   4.237   8.113   9.922  0.1839 -0.1907  0.2487
 5303W        W 9047   0.914   5.547   0.466  0.0840  0.0769  0.0317
 5304W        W 9048   6.171   4.737   0.283  0.1245  0.0511 -0.0719
 5305W        W 9049   8.638   3.826  12.381 -0.1482  0.0487 -0.0940
 5306W        W 9050   1.548   7.938   1.369  0.1144 -0.1356 -0.2304
 5307W        W 9051   2.313   3.011   2.704  0.0221 -0.2343  0.0169
 5308W        W 9052   8.681   3.588   1.031  0.1969  0.1258  0.3147
 5309W        W 9053   8.490   3.121   2.799  0.0357 -0.0343  0.3901
 5310W        W 9054   7.573   5.164   9.450  0.1182 -0.0208  0.1860
 5311W        W 9055   9.469   3.675  12.163 -0.1815 -0.1384 -0.1777
 5312W        W 9056   3.784   8.681  10.145 -0.5403  0.1449 -0.0369
 5313W        W 9057   4.489   6.222   1.010  0.1903 -0.2046 -0.3639
 5314W        W 9058   6.523   6.721   8.235 -0.0039  0.3051  0.2123
 5315W        W 9059   5.827   0.305   8.331 -0.0881 -0.0104  0.1797
 5316W        W 9060   8.577   9.809  11.121  0.0338  0.0687 -0.1254
 5317W        W 9061   0.507   3.076   0.266 -0.2105 -0.2069  0.2438
 5318W        W 9062   6.879   5.763   0.428 -0.2138 -0.0123  0.1690
 5319W        W 9063   1.949   3.874   9.438  0.1378 -0.1506  0.2520
 5320W        W 9064   2.468   1.942   9.521  0.2889 -0.0565 -0.1891
 5321W        W 9065   3.707   9.196  12.261 -0.4032  0.0702  0.3245
 5322W        W 9066   1.536   0.264   3.914 -0.1829 -0.4154  0.1350
 5323W        W 9067   0.972   6.432   2.843 -0.0419 -0.0283  0.1127
 5324W        W 9068   0.909   2.849   9.474  0.0846 -0.0056  0.0183
 5325W        W 9069   8.794   7.810   9.772  0.0663 -0.1618 -0.2926
 5326W        W 9070   5.528   4.575   3.277 -0.1341  0.0986 -0.0214
 5327W        W 9071   8.721   6.335   4.653  0.0110 -0.0731 -0.1308
 5328W        W 9072   4.550   5.008   8.134  0.0682  0.0465  0.0214
 5329W        W 9073   5.674   2.476   0.538  0.0727  0.0584 -0.1333
 5330W        W 9074   9.623   8.413   8.894 -0.0937 -0.0411 -0.0436
 5331W        W 9075   1.235   5.637   5.291  0.1547 -0.2103  0.0279
 5332W        W 9076   4.822   6.101   7.994  0.2189  0.2036 -0.5344
 5333W        W 9077   5.675   7.289  10.490 -0.2368 -0.0983  0.0857
 5334W        W 9078   7.247   1.875   8.478 -0.1191  0.0782  0.2873
 5335W        W 9079   4.576   3.134   8.680 -0.0876  0.0405  0.1343
 5336W        W 9080   9.436   6.660  10.282  0.0904 -0.0659 -0.2600
 5337W        W 9081   3.936   7.097   2.379  0.0046  0.1811  0.0214
 5338W        W 9082   1.837   5.684   4.425  0.0086  0.4078 -0.2695
 5339W        W 9083   6.303   7.985  10.539  0.2767 -0.1825  0.2149
 5340W        W 9084   7.059   4.592   0.451  0.1925 -0.1282 -0.1145
 5341W        W 9085   9.617   7.832  12.370 -0.0245 -0.0583 -0.2019
 5342W        W 9086   7.186   1.602   1.380 -0.0126 -0.3445 -0.1882
 5343W        W 9087   4.026   9.170  10.445  0.1614 -0.2815 -0.1348
 5344W        W 9088   8.055   6.966   0.129 -0.0899  0.3065 -0.0323
 5345W        W 9089   9.736   3.274  12.034 -0.0653 -0.1716  0.0574
 5346W        W 9090   6.456   7.085  12.289 -0.1714  0.3461 -0.0621
 5347W        W 9091   0.860   7.136   3.879  0.1387  0.3575  0.0513
 5348W        W 9092   9.501   6.691   5.022  0.0681 -0.1088 -0.0151
 5349W        W 9093   0.820   5.883   4.392 -0.0954 -0.0394 -0.0282
 5350W        W 9094   4.795   1.763   2.513  0.0432  0.1150  0.0800
 5351W        W 9095   3.217   9.474  10.248  0.2982  0.1246 -0.0011
 5352W        W 9096   9.043   2.231  10.504 -0.1940 -0.4696  0.0880
 5353W        W 9097   1.671   4.547  12.704 -0.0851 -0.0208  0.0499
 5354W        W 9098   8.614   6.795  10.793 -0.3597  0.2571 -0.1835
 5355W        W 9099   5.536   1.615  10.016 -0.2049 -0.2164  0.2048
 5356W        W 9100   0.771   5.800  11.526  0.1769 -0.1093 -0.0401
 5357W        W 9101   4.272   0.478   2.253 -0.1235  0.2840 -0.0752
 5358W        W 9102   0.558   0.416   0.872  0.0631 -0.3243  0.1811
 5359W        W 9103   1.371   0.013   2.347 -0.0647 -0.1936 -0.0369
 5360W        W 9104   8.842   1.573  12.067 -0.1119  0.0738  0.1078
 5361W        W 9105   9.323   3.934   9.518 -0.1235 -0.0776  0.1979
 5362W        W 9106   5.400   8.210   2.586  0.0907  0.1046 -0.3231
 5363W        W 9107   8.526   5.095   2.509  0.4537 -0.1000  0.0496
 5364W        W 9108   8.744   6.896   2.944  0.0653 -0.4153 -0.1052
 5365W        W 9109   4.695   4.242  12.335  0.3178  0.0694  0.4079
 5366W        W 9110   4.586   8.873  10.866  0.6083 -0.2659 -0.1297
 5367W        W 9111   6.506   2.770  10.830  0.0632 -0.5153 -0.0357
 5368W        W 9112   5.512   4.965   3.895  0.1614  0.1701  0.3580
 5369W        W 9113   5.709   0.384   0.642  0.0555  0.1594 -0.2072
 5370W        W 9114   5.731   3.459   9.751 -0.2175  0.3568 -0.0211
 5371W        W 9115   1.091   3.186   1.853  0.2446  0.1136  0.2808
 5372W        W 9116   9.325   5.733   2.225 -0.0287 -0.3426  0.0033
 5373W        W 9117   5.397   0.954  10.156 -0.1012 -0.2076 -0.2298
 5374W        W 9118   5.303   1.610   1.013 -0.1236  0.0356  0.0610
 5375W        W 9119   0.673   7.691  12.350  0.2230  0.3103  0.1770
 5376W        W 9120   9.257   8.231  11.090  0.0929 -0.1158  0.0620
 5377W        W 9121   8.905   0.024  12.144  0.1494  0.1194 -0.1945
 5378W        W 9122   0.389   4.735   8.795  0.0675  0.0072  0.2924
 5379W        W 9123   1.968   4.720   1.252 -0.0354  0.0831  0.1802
 5380W        W 9124   7.517   2.664   2.098  0.0227  0.1069 -0.0980
 5381W        W 9125   2.570   0.381   2.394  0.1387 -0.0816  0.1215
 5382W        W 9126   2.119   4.437   3.489  0.2070  0.2861 -0.1826
 5383W        W 9127   1.392   5.373  10.277  0.0055 -0.2008  0.0076
 5384W        W 9128   1.159   6.168  11.736 -0.0674  0.2305  0.2979
 5385W        W 9129   2.860   8.110   0.539 -0.1809  0.1807  0.1358
 5386W        W 9130   3.097   2.325   3.580 -0.2195  0.0409  0.1510
 5387W        W 9131   2.487   6.438   8.516 -0.1374  0.0595  0.2001
 5388W        W 9132   0.754   6.855   3.361 -0.5864  0.1635 -0.1070
 5389W        W 9133   2.490   6.548  10.637 -0.2437 -0.2627 -0.3242
 5390W        W 9134   6.085   7.028   0.942  0.1743 -0.1360  0.3645
 5391W        W 9135   1.605   0.202   9.763 -0.1244 -0.2825  0.0301
 5392W        W 9136   9.575   8.010   8.521 -0.1956  0.1979 -0.3156
 5393W        W 9137   6.796   1.566   1.070  0.1252  0.0206  0.1256
 5394W        W 9138   5.016   7.012   4.516 -0.0225 -0.0283 -0.1611
 5395W        W 9139   8.430   1.564  10.203  0.4152 -0.0325  0.1547
 5396W        W 9140   1.545   0.210   1.023  0.0308 -0.0716  0.0058
 5397W        W 9141   0.672   3.497   2.174 -0.0826 -0.3080 -0.0871
 5398W        W 9142   3.167   7.216  12.084  0.0983 -0.3305  0.3911
 5399W        W 9143   5.629   8.153  11.205 -0.0041 -0.3266 -0.0151
 5400W        W 9144   5.628   9.445   0.556 -0.0460 -0.1599  0.0862
 5401W        W 9145   4.248   1.955   9.627  0.0366 -0.0204 -0.2556
 5402W        W 9146   2.324   6.881  11.453  0.1345  0.2276 -0.2814
 5403W        W 9147   0.308   0.157   9.206  0.2830  0.4109  0.0264
 5404W        W 9148   9.381   2.753   2.271  0.0707  0.0463  0.1646
 5405W        W 9149   7.014   2.528   0.773 -0.0959 -0.2335  0.5745
 5406W        W 9150   1.338   2.102   3.264  0.0183 -0.0640  0.3380
 5407W        W 9151   9.340   4.821   3.112 -0.1239 -0.0555  0.0396
 5408W        W 9152   7.418   8.723   4.039 -0.1811 -0.2123 -0.1362
 5409W        W 9153   5.392   5.511   9.313 -0.0797 -0.2563 -0.3665
 5410W        W 9154   5.322   4.342   0.989  0.2145 -0.0397  0.0679
 5411W        W 9155   8.844   0.129   9.460  0.0429 -0.0804  0.0390
 5412W        W 9156   9.431   9.168   1.387 -0.4746  0.2296  0.2038
 5413W        W 9157   9.460   7.351  12.271 -0.0455  0.1078  0.3437
 5414W        W 9158   8.093   8.863  11.082  0.1076 -0.0154 -0.1312
 5415W        W 9159   2.854   5.362   1.353 -0.1776 -0.0673 -0.0704
 5416W        W 9160   5.430   1.245   9.166  0.2461  0.2008  0.0948
 5417W        W 9161   3.767   4.945   8.567  0.0984  0.1803  0.0388
 5418W        W 9162   2.936   2.863  12.068 -0.1500 -0.3463  0.1689
 5419W        W 9163   8.490   7.273   9.565 -0.0970 -0.2245  0.0318
 5420W        W 9164   9.938   3.260   9.379 -0.0216 -0.1036 -0.1102
 5421W        W 9165   6.166   3.662   9.111 -0.1033 -0.1360 -0.2556
 5422W        W 9166   9.423   8.687   1.448  0.3223 -0.2247  0.2232
 5423W        W 9167   5.935   0.153  12.426  0.3585 -0.1670 -0.4488
 5424W        W 9168   8.631   5.410   4.008 -0.1597 -0.1700 -0.3051
 5425W        W 9169   3.989   1.328   3.546 -0.1186  0.2321  0.0049
 5426W        W 9170   9.558   5.739   0.439  0.1314  0.0628 -0.3490
 5427W        W 9171   1.718   9.273   3.950 -0.1064 -0.2198  0.0502
 5428W        W 9172   6.227   6.829   0.460  0.1980 -0.2819 -0.1123
 5429W        W 9173   1.556   0.437   2.547  0.0915 -0.4954 -0.0596
 5430W        W 9174   0.644   6.124   1.309 -0.4360  0.2694 -0.1305
 5431W        W 9175   6.056   0.766  10.967 -0.3249 -0.1889  0.4340
 5432W        W 9176   2.946   5.596  12.415 -0.2766  0.0462  0.0396
 5433W        W 9177   7.071   9.405   2.390 -0.2369  0.3202 -0.1667
 5434W        W 9178   9.444   5.980  12.206 -0.1455  0.3216  0.0048
 5435W        W 9179   9.428   4.077   2.107  0.4079  0.0819  0.0719
 5436W        W 9180   6.364   4.312   9.250  0.2612 -0.0868  0.0415
 5437W        W 9181   1.056   3.146   2.481  0.1262  0.3087 -0.0595
 5438W        W 9182   8.737   3.779   2.934  0.0156  0.0241  0.1568
 5439W        W 9183   1.419   1.449  11.726  0.3087 -0.0547 -0.1998
 5440W        W 9184   1.767   2.077   1.610  0.0938  0.0884  0.1698
 5441W        W 9185   0.638   0.240   1.983  0.0293  0.0226  0.1850
 5442W        W 9186   8.735   1.413   0.090 -0.2477 -0.1663 -0.2129
 5443W        W 9187   7.536   5.815  11.675  0.3000  0.1646 -0.1776
 5444W        W 9188   3.935   2.938   0.287  0.0978  0.1890 -0.0470
 5445W        W 9189   0.703   5.259   2.487 -0.2448  0.1039 -0.0057
 5446W        W 9190   5.594   3.105  12.542  0.2547 -0.1076  0.1348
 5447W        W 9191   0.800   8.614  12.446 -0.1641  0.2097 -0.0465
 5448W        W 9192   3.864   9.908   1.914  0.1877 -0.3531 -0.1127
 5449W        W 9193   1.378   4.757   3.239  0.0166 -0.3331  0.1425
 5450W        W 9194   6.696   9.510   9.188 -0.1239  0.2507 -0.0797
 5451W        W 9195   1.607   8.336  10.969 -0.2113  0.0059 -0.0639
 5452W        W 9196   4.588   2.649  12.127  0.0031 -0.0562 -0.1496
 5453W        W 9197   0.581   7.994   2.706  0.4919  0.2783 -0.0640
 5454W        W 9198   3.199   9.675   8.273 -0.0209 -0.2525  0.4695
 5455W        W 9199   6.316   5.688   1.245  0.2835  0.5324  0.0591
 5456W        W 9200   0.558   1.947   2.789 -0.4079 -0.2200  0.2926
 5457W        W 9201   4.044   2.484   3.913 -0.0429  0.0656  0.1971
 5458W        W 9202   1.437   8.713   3.355 -0.5115 -0.1249  0.1107
 5459W        W 9203   4.080   5.495   9.918 -0.2279 -0.0973  0.0043
 5460W        W 9204   8.143   7.497   2.914 -0.2227 -0.1324  0.1765
 5461W        W 9205   4.952   8.025  12.007 -0.0457  0.0024  0.1517
 5462W        W 9206   5.127   8.262   3.145 -0.0063 -0.0553  0.0764
 5463W        W 9207   9.397   9.044   0.857 -0.1569 -0.0475 -0.0435
 5464W        W 9208   4.994   4.400  11.299 -0.0467  0.1647 -0.0784
 5465W        W 9209   3.922   6.607   3.056 -0.0251 -0.2809 -0.0621
 5466W        W 9210   8.460   3.273   1.311 -0.1439  0.3009 -0.0218
 5467W        W 9211   8.937   8.855  12.306  0.2419  0.1250  0.1667
 5468W        W 9212   1.287   4.367   9.310  0.0549  0.0187  0.1253
 5469W        W 9213   6.311   5.697   0.356  0.2180  0.1244 -0.2438
 5470W        W 9214   7.016   4.955   1.494  0.2008 -0.1576  0.0309
 5471W        W 9215   3.090   9.055   9.103 -0.1511  0.0077 -0.1040
 5472W        W 9216   8.192   6.292   1.020  0.1201  0.1073 -0.2527
 5473W        W 9217   8.398   1.613   2.401 -0.1037  0.0189 -0.0106
 5474W        W 9218   7.690   5.743   0.001 -0.0158 -0.0172  0.0071
 5475W        W 9219   9.695   8.433   9.422 -0.2274  0.0242  0.2460
 5476W        W 9220   0.244   8.865  10.129  0.1393  0.2723  0.1895
 5477W        W 9221   0.370   7.704   1.438  0.0854 -0.1026 -0.0307
 5478W        W 9222   9.123   4.192   3.790 -0.2373 -0.0295  0.3289
 5479W        W 9223   6.919   8.157   1.067 -0.2250  0.3283 -0.2001
 5480W        W 9224   3.933   5.820  12.649  0.0487 -0.1900  0.1413
 5481W        W 9225   5.581   0.430  10.512  0.4497 -0.0331 -0.1687
 5482W        W 9226   1.984   8.199  12.771 -0.0608 -0.0954 -0.2725
 5483W        W 9227   4.482   9.807  12.310 -0.0540 -0.0308 -0.0746
 5484W        W 9228   6.756   1.668   9.245 -0.1748  0.0715  0.2572
 5485W        W 9229   7.027   2.065   9.317  0.1752 -0.1065 -0.2354
 5486W        W 9230   3.333   8.558  11.537 -0.0393  0.1810  0.2635
 5487W        W 9231   0.924   5.430   4.971  0.4136 -0.1281  0.1827
 5488W        W 9232   5.264   4.821   0.088 -0.0920  0.0488  0.2052
 5489W        W 9233   5.841   1.811   0.958 -0.3427  0.2234  0.1150
 5490W        W 9234   7.161   9.942   0.376 -0.0004 -0.0461  0.2494
 5491W        W 9235   2.153   8.476   3.468 -0.0668  0.3049  0.2577
 5492W        W 9236   6.200   1.919  12.281 -0.4334 -0.1067 -0.0689
 5493W        W 9237   9.605   4.607  11.985 -0.1649 -0.0953 -0.0073
 5494W        W 9238   4.450   7.033   8.854 -0.1277  0.2201  0.1940
 5495W        W 9239   4.089   1.094   1.347 -0.2457  0.0442 -0.0142
 5496W        W 9240   4.417   5.657   3.260 -0.0348 -0.0078 -0.0084
 5497W        W 9241   3.062   6.770   0.202 -0.1547  0.0483  0.1661
 5498W        W 9242   1.943   3.716   2.010 -0.2252 -0.0172 -0.0780
 5499W        W 9243   6.468   7.289  11.058  0.0264  0.1838 -0.1178
 5500W        W 9244   1.785   4.410   2.544 -0.1149 -0.1788 -0.0867
 5501W        W 9245   7.545   1.845  11.820 -0.1998 -0.2316 -0.0746
 5502W        W 9246   0.888   2.115  12.117  0.0025 -0.1799 -0.0582
 5503W        W 9247   0.455   0.692   2.259 -0.0773 -0.1741  0.7359
 5504W        W 9248   8.628   9.838  11.629  0.2002  0.0386 -0.3319
 5505W        W 9249   9.687   9.828   2.053 -0.0714  0.2077  0.2697
 5506W        W 9250   9.145   6.536   1.568 -0.0543 -0.0630  0.0961
 5507W        W 9251   0.557   8.794   3.684 -0.1482 -0.0881 -0.0515
 5508W        W 9252   0.266   7.782   3.790  0.2526  0.2599 -0.0471
 5509W        W 9253   9.262   8.434  12.212  0.0506  0.1904 -0.0098
 5510W        W 9254   3.054   7.847  11.306 -0.1323 -0.1615  0.1834
 5511W        W 9255   2.241   9.592   2.524  0.1359  0.3658  0.0009
 5512W        W 9256   2.846   6.925  11.174  0.0988 -0.1620 -0.3196
 5513W        W 9257   3.442   7.554  11.241 -0.1096 -0.2551  0.0474
 5514W        W 9258   3.818   7.194   8.641 -0.1849  0.1212  0.0564
 5515W        W 9259   6.350   6.016  12.300  0.0028 -0.2689 -0.0358
 5516W        W 9260   8.867   3.004  10.321 -0.2465  0.0627  0.4993
 5517W        W 9261   9.793   7.777  11.934 -0.0842  0.0331  0.0551
 5518W        W 9262   9.938   7.244   3.782 -0.0600 -0.1162  0.0814
 5519W        W 9263   2.897   4.633   1.045  0.1645 -0.2977 -0.1107
 5520W        W 9264   7.565   6.277   0.156 -0.4035 -0.1486 -0.1530
 5521W        W 9265   0.493   3.698  12.420 -0.2079 -0.1760 -0.0073
 5522W        W 9266   7.628   7.241  10.920  0.1553  0.0899  0.0050
 5523W        W 9267   5.329   4.356   4.543 -0.1559 -0.2386  0.1282
 5524W        W 9268   7.821   6.672   2.058  0.0557 -0.3023  0.1293
 5525W        W 9269   1.991   7.501   2.445  0.1583  0.1194 -0.2240
 5526W        W 9270   1.495   5.909   3.155 -0.2180 -0.0521 -0.4604
 5527W        W 9271   6.453   2.210  11.922  0.1219 -0.0850 -0.1639
 5528W        W 9272   7.666   7.799   3.124  0.1454 -0.3803 -0.0168
 5529W        W 9273   0.865   5.321   0.053  0.0286  0.1341  0.1799
 5530W        W 9274   5.897   6.127   0.999  0.1877  0.5176 -0.2935
 5531W        W 9275   7.739   4.591   2.608 -0.1453  0.1315 -0.4432
 5532W        W 9276   0.477   2.087  10.683  0.0236 -0.0984 -0.0397
 5533W        W 9277   6.044   0.685  11.489 -0.2429  0.1071  0.1470
 5534W        W 9278   9.177   6.600   0.063 -0.0094 -0.3181  0.0730
 5535W        W 9279   3.482   2.918   1.962  0.3167 -0.1273 -0.0152
 5536W        W 9280   6.018   0.174   8.917  0.2580  0.1511  0.2000
 5537W        W 9281   5.019   0.423  11.697 -0.0949  0.2591  0.0227
 5538W        W 9282   8.913   5.932  10.498  0.1864  0.0758 -0.0653
 5539W        W 9283   3.138   3.297   0.743 -0.4805 -0.2009 -0.0938
 5540W        W 9284   7.214   2.525  12.165  0.0198 -0.0792 -0.4737
 5541W        W 9285   1.035   8.375   2.900  0.1275 -0.1027 -0.0367
 5542W        W 9286   6.895   9.504   0.330  0.0823 -0.1410 -0.1061
 5543W        W 9287   4.820   1.221   3.563 -0.0040  0.0045 -0.1506
 5544W        W 9288   8.949   9.822   0.592  0.0707 -0.1267  0.1963
 5545W        W 9289   0.626   8.045   9.844 -0.1085 -0.1407 -0.2146
 5546W        W 9290   0.975   1.141  11.490  0.2311 -0.3217  0.0092
 5547W        W 9291   1.070   2.449  11.368 -0.1189  0.2681  0.0212
 5548W        W 9292   5.725   6.102   8.339 -0.0368 -0.0508 -0.1576
 5549W        W 9293   5.027   5.077  12.529  0.2861 -0.0670  0.0969
 5550W        W 9294   6.061   1.996   2.747 -0.2323  0.0353  0.0825
 5551W        W 9295   8.225   0.589   0.629 -0.2775  0.1935 -0.0899
 5552W        W 9296   2.213   2.787   3.171  0.3011  0.1736  0.0579
 5553W        W 9297   7.076   1.919  10.836 -0.0367 -0.1209 -0.2187
 5554W        W 9298   1.710   4.769   7.933  0.0745  0.0170  0.1285
 5555W        W 9299   7.753   3.989   2.848 -0.0900  0.0273  0.0112
 5556W        W 9300   6.626   3.425   1.627  0.0333 -0.1507 -0.1716
 5557W        W 9301   7.797   3.117   2.099  0.0506  0.2750 -0.1391
 5558W        W 9302   9.053   4.613  11.944 -0.1207 -0.0347 -0.0020
 5559W        W 9303   6.244   1.128   0.049  0.0852  0.4855  0.4267
 5560W        W 9304   6.236   0.505   9.278  0.1521  0.0429  0.1849
 5561W        W 9305   1.773   3.204   2.780  0.3242 -0.0484 -0.2162
 5562W        W 9306   1.410   6.138  12.289 -0.1465  0.0725 -0.1338
 5563W        W 9307   0.009   4.419  11.639  0.1765  0.0133  0.0424
 5564W        W 9308   7.353   9.832   3.670  0.0101 -0.0572  0.1959
 5565W        W 9309   1.068   1.742   9.837  0.2397  0.2104  0.0898
 5566W        W 9310   3.646   4.101   9.313  0.2120 -0.0087  0.0989
 5567W        W 9311   9.766   5.564   3.326  0.1407 -0.0894 -0.0830
 5568W        W 9312   0.045   3.941  10.857 -0.1784 -0.3172  0.3792
 5569W        W 9313   5.197   4.530  12.420  0.1473  0.1547 -0.0557
 5570W        W 9314   6.388   0.763   2.764 -0.0648 -0.0748  0.4405
 5571W        W 9315   6.652   3.127   3.681 -0.0749 -0.1416  0.2454
 5572W        W 9316   8.647   0.574   3.405 -0.1588 -0.2247 -0.0202
 5573W        W 9317   3.639   7.569   1.206  0.0934 -0.2213 -0.0188
 5574W        W 9318   7.621   1.160   2.955 -0.0838 -0.1915 -0.2932
 5575W        W 9319   0.369   7.615   1.974 -0.2326  0.4548  0.3916
 5576W        W 9320   4.496   7.484   9.226  0.0423 -0.1703 -0.3495
 5577W        W 9321   3.317   4.929   8.325 -0.2175 -0.2661  0.1751
 5578W        W 9322   4.206   6.556   1.871 -0.1870  0.1213 -0.3236
 5579W        W 9323   5.639   8.652  10.892  0.1859  0.1210  0.0914
 5580W        W 9324   0.155   2.799  12.784 -0.0395 -0.2506 -0.1288
 5581W        W 9325   6.012   8.872  11.130  0.1296  0.3483  0.1487
 5582W        W 9326   2.515   5.663   1.108 -0.1222  0.0126  0.1127
 5583W        W 9327   1.384   5.776   3.645 -0.1736 -0.1682 -0.2299
 5584W        W 9328   7.579   5.762   9.958  0.1279  0.1620 -0.0939
 5585W        W 9329   0.948   1.600   0.112 -0.0460 -0.2748 -0.0118
 5586W        W 9330   7.385   5.063   9.999  0.1689 -0.1788  0.0763
 5587W        W 9331   3.134   0.266   9.883 -0.1077  0.0162 -0.2361
 5588W        W 9332   0.955   3.780  11.376 -0.1289  0.1172 -0.1297
 5589W        W 9333   1.037   4.950   5.175 -0.2436 -0.4465 -0.1739
 5590W        W 9334   6.444   2.643   2.750  0.0644 -0.1274  0.2585
 5591W        W 9335   1.562   5.103   9.833 -0.3021 -0.1061 -0.2235
 5592W        W 9336   4.568   8.377   3.887 -0.0040  0.0381 -0.1052
 5593W        W 9337   8.819   4.992  10.983  0.0653  0.2513  0.2973
 5594W        W 9338   6.516   1.870  11.579  0.1938 -0.0375  0.0734
 5595W        W 9339   7.222   0.008   2.216  0.0863  0.4388 -0.2301
 5596W        W 9340   8.963   0.101   3.184  0.0299 -0.1491 -0.1851
 5597W        W 9341   0.977   4.591   0.818 -0.0067 -0.1159  0.2805
 5598W        W 9342   7.659   9.537   3.229  0.1533  0.0182  0.0498
 5599W        W 9343   8.112   3.607   9.208 -0.2902  0.0171 -0.1133
 5600W        W 9344   2.663   7.107  11.743 -0.1283 -0.2591  0.1669
 5601W        W 9345   6.388   3.137  10.493 -0.0139 -0.0982  0.0540
 5602W        W 9346   1.846   7.312  12.463 -0.0577 -0.0259  0.3206
 5603W        W 9347   2.561   8.054   1.445  0.0126 -0.2838  0.1416
 5604W        W 9348   8.385   4.075   0.031 -0.1955  0.0758 -0.0706
 5605W        W 9349   9.862   4.835   8.528  0.2083  0.0831 -0.0575
 5606W        W 9350   0.692   0.000  11.017  0.1812  0.3673 -0.0283
 5607W        W 9351   2.956   3.536   2.505 -0.0650  0.1282  0.0466
 5608W        W 9352   9.428   1.421  12.085  0.1668 -0.2267  0.4165
 5609W        W 9353   0.470   1.883  11.264  0.0626  0.1342 -0.2091
 5610W        W 9354   6.628   6.018   8.852 -0.1592 -0.0244 -0.1161
 5611W        W 9355   4.644   5.176   3.608  0.0948  0.0388  0.0962
 5612W        W 9356   2.868   7.882   4.239 -0.2738  0.0143 -0.0714
 5613W        W 9357   8.474   3.852  11.962  0.0232 -0.2876  0.2869
 5614W        W 9358   3.434   8.281   9.491  0.1545  0.4821 -0.2431
 5615W        W 9359   4.971   5.018   2.665 -0.0275  0.0560 -0.1049
 5616W        W 9360   6.265   9.851  12.200  0.0964  0.2921 -0.2388
 5617W        W 9361   5.356   4.810   1.068 -0.0085 -0.1892  0.0446
 5618W        W 9362   1.530   2.024   1.134  0.0035 -0.0537  0.0576
 5619W        W 9363   4.242   9.024   2.282 -0.1840  0.0514 -0.2296
 5620W        W 9364   4.249   2.327  11.257  0.1478 -0.0038 -0.0624
 5621W        W 9365   6.706   4.476   0.815 -0.2872 -0.0183 -0.0534
 5622W        W 9366   3.185   9.692   3.015 -0.1813  0.0588 -0.0590
 5623W        W 9367   9.425   4.418  11.448 -0.1110 -0.2484 -0.1106
 5624W        W 9368   4.598   5.797   1.765 -0.1919 -0.1664  0.1545
 5625W        W 9369   4.345   1.387  12.457  0.3939  0.0553  0.1427
 5626W        W 9370   5.296   9.336   8.445 -0.0290 -0.0695  0.4647
 5627W        W 9371   0.984   2.345   1.793  0.1369 -0.1967  0.3297
 5628W        W 9372   5.997   4.584   8.995  0.3030 -0.0972 -0.3014
 5629W        W 9373   1.412   7.817  11.677 -0.1567  0.0843  0.2558
 5630W        W 9374   9.841   3.052  11.537 -0.1878  0.4049  0.1574
 5631W        W 9375   4.506   9.283   0.469  0.0330  0.2446  0.0997
 5632W        W 9376   4.137   4.781   0.766 -0.1461 -0.2145 -0.1706
 5633W        W 9377   6.202   8.267   8.895  0.0820  0.0671  0.1171
 5634W        W 9378   6.743   2.493   9.187 -0.0083 -0.3258  0.0057
 5635W        W 9379   8.983   9.069  11.415  0.3001  0.3101  0.0832
 5636W        W 9380   0.819   7.569  10.389  0.2559  0.4514  0.0366
 5637W        W 9381   8.487   9.024   1.181 -0.2070  0.0956 -0.2619
 5638W        W 9382   1.003   0.409   3.514 -0.2226  0.0205  0.0497
 5639W        W 9383   0.520   5.588   8.433  0.3220  0.0606  0.2552
 5640W        W 9384   6.361   0.288  12.611  0.0880 -0.1146  0.1147
 5641W        W 9385   5.625   0.695   2.624  0.0351  0.1291 -0.6093
 5642W        W 9386   8.545   8.060   3.361  0.1587  0.4258 -0.3169
 5643W        W 9387   6.774   1.117  12.337  0.1906 -0.0570  0.5611
 5644W        W 9388   0.721   6.970  10.432  0.2127  0.0278  0.0765
 5645W        W 9389   1.592   2.116   8.740 -0.2018  0.0728 -0.3040
 5646W        W 9390   2.573   7.300   3.046 -0.0157 -0.0041 -0.0621
 5647W        W 9391   4.514   1.370  11.725  0.0003  0.1818 -0.0672
 5648W        W 9392   4.757   7.375  10.861 -0.3832 -0.0061 -0.0863
 5649W        W 9393   1.215   5.320  12.506  0.0530 -0.1038 -0.0943
 5650W        W 9394   5.744   1.475  11.479 -0.1499 -0.1449 -0.2296
 5651W        W 9395   2.890   4.096  11.389  0.0123 -0.3267 -0.0888
 5652W        W 9396   4.099   2.440   3.139 -0.0507 -0.2490 -0.4075
 5653W        W 9397   9.753   8.963   1.693  0.1222  0.0992  0.0947
 5654W        W 9398   4.214   9.734  11.019 -0.1165  0.0415 -0.2381
 5655W        W 9399   0.370   7.325  10.313 -0.2728  0.1068  0.0623
 5656W        W 9400   5.468   4.396   8.236 -0.0461  0.0198 -0.0121
 5657W        W 9401   7.990   1.517   3.186 -0.0630 -0.0519  0.0268
 5658W        W 9402   5.453   2.361   1.807 -0.2794 -0.0576 -0.2204
 5659W        W 9403   8.641   6.409  12.033 -0.5092  0.0725  0.2574
 5660W        W 9404   0.952   7.978   0.164  0.2117  0.1883  0.1712
 5661W        W 9405   5.333   5.652  11.265 -0.1108 -0.0167  0.3526
 5662W        W 9406   3.769   3.914  12.094 -0.1014  0.0130 -0.0349
 5663W        W 9407   4.599   4.759   8.536 -0.2168 -0.0978  0.1484
 5664W        W 9408   4.846   1.059  12.442 -0.0160  0.1175 -0.3435
 5665W        W 9409   3.296   4.569   3.770 -0.3046  0.1212  0.0119
 5666W        W 9410   9.744   6.091  10.030 -0.3549 -0.3995 -0.2036
 5667W        W 9411   6.876   8.754   3.501  0.0844  0.0451  0.0387
 5668W        W 9412   2.140   7.212  10.259 -0.0157 -0.0934  0.2586
 5669W        W 9413   1.171   3.432  12.216 -0.0996 -0.0782  0.0859
 5670W        W 9414   0.045   3.250   3.251 -0.3050  0.2707 -0.3527
 5671W        W 9415   0.327   4.595  10.242 -0.1980 -0.4444 -0.1667
 5672W        W 9416   9.163   0.838   0.658  0.2005 -0.2568 -0.0380
 5673W        W 9417   2.886   3.575   1.440 -0.1790 -0.3806  0.0013
 5674W        W 9418   0.504   2.470   2.549 -0.1561 -0.0399  0.1083
 5675W        W 9419   4.784   6.933  10.177  0.0045 -0.0385 -0.0168
 5676W        W 9420   7.601   0.460  12.513 -0.1287 -0.1347 -0.1842
 5677W        W 9421   1.643   0.792   9.081  0.1154 -0.0309 -0.3076
 5678W        W 9422   2.032   2.669   9.332 -0.1385 -0.2055  0.0176
 5679W        W 9423   4.482   3.405   1.990 -0.1226  0.1036  0.1239
 5680W        W 9424   1.670   6.194  10.338  0.0108 -0.2015 -0.2616
 5681W        W 9425   3.282   6.869   3.607  0.2609 -0.0859  0.1569
 5682W        W 9426   3.333   8.155   0.413 -0.5020  0.1925  0.0652
 5683W        W 9427   2.188   0.035   9.700 -0.0761  0.0311 -0.1529
 5684W        W 9428   6.917   6.723   3.441 -0.3686 -0.2783  0.0530
 5685W        W 9429   6.395   8.319   1.194  0.0280 -0.0548 -0.2479
 5686W        W 9430   5.460   0.382   3.660  0.0919 -0.0525 -0.0330
 5687W        W 9431   6.253   2.141   8.617  0.0896 -0.3706 -0.3354
 5688W        W 9432   6.120   5.389   4.489 -0.1256  0.0148  0.2493
 5689W        W 9433   3.197   9.519   0.657  0.0728 -0.0395  0.0455
 5690W        W 9434   6.727   8.259   3.802  0.1672  0.2229  0.1035
 5691W        W 9435   5.998   6.580   1.171 -0.1749  0.1541  0.2085
 5692W        W 9436   4.992   2.831   2.983 -0.0094  0.0393 -0.0164
 5693W        W 9437   6.941   7.460   1.588  0.1265  0.1861 -0.0450
 5694W        W 9438   1.594   1.778  11.250 -0.3603 -0.1626 -0.1633
 5695W        W 9439   3.337   6.717   1.505 -0.0390 -0.0442 -0.3175
 5696W        W 9440   2.637   4.516   9.302 -0.0900 -0.0066  0.2226
 5697W        W 9441   3.883   6.474  11.319  0.3048  0.1981 -0.1739
 5698W        W 9442   4.738   0.110   1.935  0.0241 -0.0094 -0.0592
 5699W        W 9443   9.402   8.843   9.636 -0.0013 -0.1147  0.3378
 5700W        W 9444   5.815   6.595   0.679  0.0482 -0.1563 -0.2171
 5701W        W 9445   9.191   2.860  10.709  0.2288  0.1384 -0.2131
 5702W        W 9446   9.096   6.843   9.952 -0.0899  0.1709 -0.0614
 5703W        W 9447   5.158   8.649   1.999  0.5944 -0.0622  0.1249
 5704W        W 9448   9.916   3.968   1.058  0.2510  0.0299 -0.2184
 5705W        W 9449   1.198   4.664   3.783  0.1517 -0.2339 -0.0612
 5706W        W 9450   2.984   7.115   2.328  0.3534 -0.2192 -0.2212
 5707W        W 9451   4.924   3.249   9.647 -0.0238 -0.1268  0.2565
 5708W        W 9452   2.641   3.257  12.014 -0.3270  0.3411 -0.2788
 5709W        W 9453   9.842   4.769   2.964 -0.0953  0.1859 -0.0906
 5710W        W 9454   3.304   6.172   1.499 -0.0864  0.1431  0.1974
 5711W        W 9455   8.074   9.738   9.807 -0.1544  0.0362  0.1375
 5712W        W 9456   7.050   1.471   2.536 -0.0550 -0.3000 -0.0567
 5713W        W 9457   0.172   0.354   3.237 -0.1707  0.1675  0.0230
 5714W        W 9458   9.031   5.125  12.030 -0.0834 -0.0886  0.1584
 5715W        W 9459   5.297   1.384   8.227 -0.1860 -0.1524  0.1515
 5716W        W 9460   5.892   7.685   4.620 -0.1158  0.3905 -0.2695
 5717W        W 9461   4.606   8.476  10.274 -0.3006 -0.2165  0.0704
 5718W        W 9462   2.003   7.643   1.575  0.0966  0.1995 -0.1108
 5719W        W 9463   8.647   2.876  12.550  0.0585 -0.1275  0.0521
 5720W        W 9464   2.059   6.261  11.879 -0.1033  0.0898  0.1389
 5721W        W 9465   3.315   1.633  10.632  0.2532  0.1586 -0.1162
 5722W        W 9466   5.143   8.277   3.868  0.0569 -0.2079  0.0911
 5723W        W 9467   5.630   4.332  11.523 -0.1309 -0.3629 -0.1620
 5724W        W 9468   5.107   7.150   3.605  0.3572  0.1120  0.6116
 5725W        W 9469   6.153   9.762  11.204  0.1774 -0.0894 -0.1028
 5726W        W 9470   6.455   0.873   4.373 -0.2843 -0.3900 -0.0592
 5727W        W 9471   6.923   7.200  10.875  0.0896  0.5917 -0.0764
 5728W        W 9472   2.071   2.162   2.568  0.1837 -0.0842  0.0291
 5729W        W 9473   2.721   9.064  10.941  0.0910  0.1949  0.1759
 5730W        W 9474   9.274   6.211   3.904  0.4233 -0.2898  0.0170
 5731W        W 9475   9.121   8.697   3.269 -0.0396 -0.0231 -0.2472
 5732W        W 9476   9.340   8.297   2.731 -0.0035  0.3557  0.0006
 5733W        W 9477   4.168   1.974   8.343  0.0685 -0.0588 -0.3364
 5734W        W 9478   6.755   7.724   2.412 -0.2002  0.2401 -0.2149
 5735W        W 9479   5.416   9.490  10.528 -0.1202  0.2521 -0.3005
 5736W        W 9480   6.818   0.035   9.708  0.3734  0.3761 -0.0196
 5737W        W 9481   2.676   9.496   2.923  0.2648  0.2202 -0.0535
 5738W        W 9482   7.271   2.610   3.277  0.3521  0.0149  0.0222
 5739W        W 9483   2.235   1.966   3.703 -0.0875 -0.4092 -0.0965
 5740W        W 9484   7.252   6.874  10.059 -0.1534  0.0272  0.3377
 5741W        W 9485   4.158   4.695   9.796 -0.0634  0.2092  0.0783
 5742W        W 9486   1.932   4.106   2.970  0.0631  0.1971 -0.0311
 5743W        W 9487   5.251   8.569   9.579 -0.1847  0.1064 -0.0798
 5744W        W 9488   1.189   9.835   8.834 -0.0652 -0.0577  0.1236
 5745W        W 9489   0.186   0.309   2.215 -0.1641  0.0731  0.0016
 5746W        W 9490   2.172   6.620   8.118 -0.0965  0.1341  0.0500
 5747W        W 9491   2.957   6.122   9.380 -0.2026 -0.0034 -0.0970
 5748W        W 9492   6.367   3.905  10.124 -0.1081  0.2807  0.0680
 5749W        W 9493   2.618   2.354  12.319 -0.1682  0.0151  0.2634
 5750W        W 9494   3.237   9.116   0.968  0.1469 -0.0691  0.1864
 5751W        W 9495   3.906   5.264  12.749 -0.5239  0.0787 -0.1642
 5752W        W 9496   2.514   1.987   8.250  0.1798  0.0086 -0.1446
 5753W        W 9497   3.256   8.219   0.927 -0.0939 -0.5415  0.3032
 5754W        W 9498   9.764   9.788  10.515  0.0123  0.1070 -0.1500
 5755W        W 9499   2.687   0.909   0.189 -0.0014  0.1672  0.1007
 5756W        W 9500   3.196   0.414   2.112 -0.0740  0.1585 -0.2809
 5757W        W 9501   7.708   3.922   3.325  0.0273  0.3391  0.0342
 5758W        W 9502   8.459   1.050   1.013 -0.2730 -0.2523 -0.1700
 5759W        W 9503   5.283   1.219   1.889  0.0666 -0.1291  0.3930
 5760W        W 9504   9.410   3.600  11.700  0.1177  0.1185  0.2628
 5761W        W 9505   4.459   1.218   3.238  0.1811 -0.0832  0.1245
 5762W        W 9506   9.673   1.500   1.557 -0.0265  0.1037  0.3688
 5763W        W 9507   3.644   4.623  10.061 -0.1544  0.0215  0.0042
 5764W        W 9508   3.742   1.846  11.610  0.2325  0.3492  0.1691
 5765W        W 9509   4.693   5.612  10.582  0.0000 -0.0059 -0.1812
 5766W        W 9510   5.092   5.586   9.816 -0.0040 -0.0734  0.2729
 5767W        W 9511   9.256   5.859  10.147  0.1647 -0.1316 -0.1260
 5768W        W 9512   6.111   4.300  12.281  0.2778  0.0575 -0.4665
 5769W        W 9513   8.275   7.837   2.558  0.2027 -0.1150  0.0174
 5770W        W 9514   7.487   2.547   0.204 -0.2448  0.3043  0.0965
 5771W        W 9515   7.886   6.270   0.658 -0.0720  0.3301  0.0684
 5772W        W 9516   0.374   8.087   2.133  0.1010 -0.3736  0.2085
 5773W        W 9517   4.219   8.569   3.606 -0.0164 -0.1200  0.2726
 5774W        W 9518   8.049   8.097   3.046 -0.0394  0.0477 -0.0961
 5775W        W 9519   4.076   3.453   4.083 -0.0447 -0.0361  0.1844
 5776W        W 9520   3.098   8.380   2.709  0.0620 -0.2588 -0.1220
 5777W        W 9521   0.495   0.156  10.093 -0.1121  0.0919  0.0070
 5778W        W 9522   3.495   2.596   9.410  0.1109 -0.1146  0.0241
 5779W        W 9523   3.340   5.591   9.296  0.0006  0.0259  0.0231
 5780W        W 9524   5.347   1.753   9.362 -0.0943  0.0456  0.1512
 5781W        W 9525   8.775   9.523  12.081 -0.0479  0.1103  0.2628
 5782W        W 9526   2.308   9.728   3.806 -0.0430 -0.0314 -0.2811
 5783W        W 9527   3.160   4.664  11.130 -0.1100  0.2182  0.2407
 5784W        W 9528   4.263   0.256   0.223  0.3044 -0.2285 -0.0517
 5785W        W 9529   2.410   8.862   3.192 -0.1231  0.0982 -0.1304
 5786W        W 9530   1.705   6.736   5.337 -0.2128 -0.2715  0.2792
 5787W        W 9531   2.025   9.592  10.500  0.1814 -0.3629  0.2932
 5788W        W 9532   2.419   6.582   0.459 -0.3044 -0.3192 -0.0750
 5789W        W 9533   4.289   8.572   2.421 -0.0810  0.1852 -0.0839
 5790W        W 9534   8.782   6.422   3.141 -0.0619 -0.0347  0.2723
 5791W        W 9535   4.780   9.724   4.063 -0.0178 -0.1791 -0.0498
 5792W        W 9536   8.558   6.863   3.955  0.2881 -0.0407  0.0874
 5793W        W 9537   4.637   9.445  11.062  0.1322  0.0012  0.0909
 5794W        W 9538   4.849   9.693   2.731 -0.2762 -0.3105  0.2471
 5795W        W 9539   3.195   8.617   0.168 -0.1060  0.0297  0.0751
 5796W        W 9540   0.748   4.717   4.037  0.0081 -0.1705  0.1131
 5797W        W 9541   8.888   4.634   3.417  0.1094  0.0336 -0.1832
 5798W        W 9542   6.264   2.838  12.684  0.0875  0.0327 -0.3265
 5799W        W 9543   9.528   8.988   3.400 -0.2075 -0.2054  0.1519
 5800W        W 9544   2.393   4.849   3.683  0.0651 -0.1666  0.0010
 5801W        W 9545   4.350   4.936  12.005 -0.0929 -0.0064 -0.1245
 5802W        W 9546   9.824   4.328  11.157 -0.5733  0.2563 -0.1339
 5803W        W 9547   6.092   2.421  12.411 -0.0996  0.2299 -0.0695
 5804W        W 9548   5.458   1.657   0.054  0.3291  0.3013 -0.1615
 5805W        W 9549   2.535   3.287   1.301 -0.2237 -0.2952  0.1289
 5806W        W 9550   7.924   2.281   0.438  0.0684  0.0977 -0.2623
 5807W        W 9551   9.314   7.467   1.764  0.1873 -0.1970 -0.1038
 5808W        W 9552   6.930   6.828  12.183 -0.1850  0.0106 -0.2251
 5809W        W 9553   0.779   6.121   2.515 -0.2189 -0.0239  0.3702
 5810W        W 9554   7.641   8.565   0.309  0.0272  0.1571  0.0987
 5811W        W 9555   4.257   7.942   9.273 -0.0880 -0.0617  0.1617
 5812W        W 9556   7.901   4.315  10.743  0.2208 -0.1045 -0.0452
 5813W        W 9557   9.384   0.738  10.812 -0.0754  0.0505 -0.1525
 5814W        W 9558   5.887   3.496   2.615  0.0406  0.2166  0.0571
 5815W        W 9559   6.923   7.760   0.627  0.0312 -0.0711 -0.1492
 5816W        W 9560   0.794   9.668  10.088  0.1382 -0.1445 -0.0775
 5817W        W 9561   2.642   3.962   1.679  0.0012 -0.0331  0.3926
 5818W        W 9562   1.739   6.263   8.084 -0.0114  0.0920 -0.1014
 5819W        W 9563   7.685   0.128   3.403  0.0924  0.1272 -0.0391
 5820W        W 9564   2.573   2.081   0.262  0.2447 -0.2550 -0.4345
 5821W        W 9565   2.761   5.150  11.484 -0.2431 -0.0167  0.1843
 5822W        W 9566   0.497   5.831   4.847 -0.0075 -0.1614  0.3550
 5823W        W 9567   9.419   9.493  10.222 -0.1517 -0.1508 -0.3520
 5824W        W 9568   8.334   6.291   1.596  0.1114 -0.1106 -0.1250
 5825W        W 9569   4.145   7.280   1.992 -0.0920  0.1764 -0.0746
 5826W        W 9570   7.619   8.026  11.053  0.1889  0.0471 -0.4284
 5827W        W 9571   9.784   4.927   3.957 -0.4059 -0.1401 -0.1133
 5828W        W 9572   9.390   5.809   4.180  0.0240  0.3070  0.5614
 5829W        W 9573   5.637   8.069   3.789 -0.2214 -0.1680  0.1495
 5830W        W 9574   6.983   8.581   9.576  0.0655 -0.0368 -0.3486
 5831W        W 9575   4.267   9.855   3.970 -0.1471 -0.0475 -0.0334
 5832W        W 9576   0.295   9.747  10.323  0.1836 -0.1966  0.1824
 5833W        W 9577   4.953   2.827   3.558  0.1312 -0.2335  0.1535
 5834W        W 9578   2.356   4.007  11.183  0.5134  0.3922  0.0315
 5835W        W 9579   5.849   6.937  10.125  0.1978 -0.1409  0.1465
 5836W        W 9580   8.342   0.828  10.564 -0.0181 -0.3185  0.0080
 5837W        W 9581   3.656   5.558   3.608 -0.4036  0.1458 -0.1370
 5838W        W 9582   8.956   3.693   9.791  0.1436 -0.3606  0.0872
 5839W        W 9583   3.331   2.781   2.473  0.0305 -0.0517  0.2596
 5840W        W 9584   1.048   8.130  11.601  0.0351  0.0698  0.2992
 5841W        W 9585   5.386   2.980  10.422 -0.1567 -0.3124  0.0185
 5842W        W 9586   5.644   6.867   3.274  0.0659 -0.0088 -0.2442
 5843W        W 9587   3.395   8.822   1.859 -0.0190 -0.0173 -0.0471
 5844W        W 9588   6.458   6.200   0.373  0.1480 -0.0296 -0.2313
 5845W        W 9589   0.263   6.710   0.853 -0.1078 -0.0084  0.4992
 5846W        W 9590   8.105   8.840   0.214  0.4002 -0.2174 -0.2954
 5847W        W 9591   4.737   6.683   0.508  0.2636  0.0703 -0.0410
 5848W        W 9592   6.397   5.003   2.287  0.4501  0.0150  0.0344
 5849W        W 9593   0.785   9.909   0.026 -0.0712 -0.3855 -0.0851
 5850W        W 9594   6.327   8.051   2.549  0.0179 -0.1888 -0.2581
 5851W        W 9595   2.465   4.045   3.531 -0.1000 -0.0218 -0.3096
 5852W        W 9596   0.523   6.062   2.910  0.1972  0.0715 -0.2834
 5853W        W 9597   7.704   9.051   0.642  0.0862  0.1652 -0.0207
 5854W        W 9598   0.532   5.347   7.950 -0.1468 -0.0335 -0.2578
 5855W        W 9599   5.455   0.683   0.873 -0.0152 -0.0551 -0.0578
 5856W        W 9600   9.619   2.744  11.917 -0.0860 -0.1160  0.0135
 5857W        W 9601   2.152   5.071  12.613 -0.0745 -0.2209 -0.0590
 5858W        W 9602   3.411   5.905  12.621 -0.3505  0.2734 -0.2463
 5859W        W 9603   0.869   2.770   2.771  0.1069  0.0427  0.1538
 5860W        W 9604   6.562   7.669  12.019  0.1230  0.0006 -0.1250
 5861W        W 9605   1.433   8.508   1.990 -0.0930  0.3007 -0.0887
 5862W        W 9606   0.017   5.926   2.920  0.1120 -0.2480 -0.3463
 5863W        W 9607   5.545   2.068  10.201 -0.1464  0.0511 -0.5102
 5864W        W 9608   2.429   0.084  11.071  0.0361 -0.1395  0.1733
 5865W        W 9609   5.194   4.375   1.712 -0.0514  0.0038 -0.0467
 5866W        W 9610   7.740   3.741   1.023  0.2057  0.1792 -0.1182
 5867W        W 9611   7.233   3.132  12.259 -0.1988  0.1556  0.1041
 5868W        W 9612   6.239   3.543   4.440  0.0338  0.0611 -0.1380
 5869W        W 9613   5.972   9.588  10.398  0.1241  0.1231  0.0798
 5870W        W 9614   4.098   8.513   1.086  0.5914 -0.0779 -0.3625
 5871W        W 9615   8.850   9.829   1.478  0.1024  0.0313  0.0777
 5872W        W 9616   0.029   4.693   9.095 -0.1119  0.1669 -0.0848
 5873W        W 9617   6.317   5.610   1.957 -0.2994  0.1389 -0.1110
 5874W        W 9618   9.335   5.518  11.844  0.2484 -0.1855 -0.1988
 5875W        W 9619   0.637   7.257  10.832  0.0489 -0.0822 -0.0810
 5876W        W 9620   4.069   4.721  11.537  0.0369  0.1448  0.0151
 5877W        W 9621   5.590   9.808   2.190 -0.1167  0.1445 -0.0752
 5878W        W 9622   7.144   6.310   9.717  0.3447  0.0704  0.0237
 5879W        W 9623   4.464   3.024   1.112  0.2863  0.0734  0.2305
 5880W        W 9624   8.220   3.740   2.777 -0.0844  0.2803  0.4310
 5881W        W 9625   7.447   4.751   9.148 -0.0083  0.2660  0.1161
 5882W        W 9626   9.493   3.512  10.348  0.0452  0.1395  0.3544
 5883W        W 9627   1.733   0.526  10.448 -0.2096 -0.1716  0.1512
 5884W        W 9628   9.486   0.217   2.401  0.0908 -0.0378  0.1884
 5885W        W 9629   5.064   6.690  12.282 -0.1413 -0.1018  0.1419
 5886W        W 9630   5.901   6.219   3.991 -0.1969 -0.0083  0.1945
 5887W        W 9631   4.762   9.299   9.363 -0.2840 -0.3485 -0.2391
 5888W        W 9632   8.733   4.242  11.815 -0.0591  0.5018 -0.1315
 5889W        W 9633   1.570   1.728   2.069 -0.2449 -0.0230 -0.1146
 5890W        W 9634   6.796   1.052   8.894  0.2059 -0.0588  0.0958
 5891W        W 9635   0.885   6.567   3.855 -0.1952  0.0533 -0.1738
 5892W        W 9636   3.514   0.705  12.377  0.0925 -0.1384  0.2371
 5893W        W 9637   2.281   0.701   0.377  0.3888 -0.2888 -0.3702
 5894W        W 9638   8.744   2.711   2.991 -0.1932 -0.2812  0.1103
 5895W        W 9639   1.405   2.534   9.777  0.1152 -0.2183 -0.2643
 5896W        W 9640   7.650   6.737   0.358 -0.3395 -0.1639 -0.1536
 5897W        W 9641   8.890   6.213  12.535 -0.1437 -0.3065  0.0437
 5898W        W 9642   0.746   4.044  10.122  0.0734  0.2270 -0.1426
 5899W        W 9643   9.244   3.045   0.579  0.2057  0.0024  0.2747
 5900W        W 9644   4.744   3.307   0.091  0.0384 -0.5182 -0.1285
 5901W        W 9645   0.824   3.385  11.049 -0.1491 -0.1953 -0.0089
 5902W        W 9646   3.467   3.192   3.900 -0.1122 -0.2854  0.1635
 5903W        W 9647   4.165   5.714   0.325  0.1662 -0.0134  0.3335
 5904W        W 9648   5.976   0.941   2.414 -0.0253  0.2699 -0.2956
 5905W        W 9649   8.411   4.259  10.475  0.0014 -0.2512 -0.0789
 5906W        W 9650   1.929   7.052   2.102  0.1707  0.0159 -0.4163
 5907W        W 9651   9.752   4.007   1.647 -0.0290  0.0948 -0.2041
 5908W        W 9652   9.483   7.237   2.266  0.2181  0.1341 -0.3159
 5909W        W 9653   5.771   1.584   2.578 -0.0732  0.1617  0.2068
 5910W        W 9654   7.447   6.942  10.535 -0.2590  0.1544 -0.2823
 5911W        W 9655   1.733   4.277   2.075  0.1856 -0.3299 -0.3288
 5912W        W 9656   2.211   9.459  12.521  0.0011 -0.3117 -0.0715
 5913W        W 9657   3.326   2.574   4.355  0.1227  0.2156 -0.2214
 5914W        W 9658   2.660   2.541   0.787  0.1942  0.1114  0.0138
 5915W        W 9659   9.616   3.390  11.283 -0.1546 -0.3012 -0.0805
 5916W        W 9660   1.914   5.057  10.254 -0.1295 -0.1277  0.0887
 5917W        W 9661   5.346   8.538  11.357 -0.1098 -0.2034 -0.0485
 5918W        W 9662   3.584   7.972  10.929  0.2239  0.2402 -0.0274
 5919W        W 9663   1.387   9.301   0.654 -0.1682 -0.1100 -0.1613
 5920W        W 9664   2.311   3.856   4.028 -0.1981 -0.2278 -0.0461
 5921W        W 9665   2.982   5.537  11.142  0.1044 -0.0066  0.3416
 5922W        W 9666   5.237   1.950   9.850 -0.2412  0.0378  0.0325
 5923W        W 9667   0.532   7.486   4.093  0.2293  0.1224 -0.1992
 5924W        W 9668   0.503   1.120  11.578 -0.4488 -0.3000 -0.0023
 5925W        W 9669   8.207   2.342   8.636 -0.1942  0.1250  0.1222
 5926W        W 9670   1.618   2.375  11.684  0.1743 -0.0560  0.0069
 5927W        W 9671   4.166   9.887  11.822 -0.1147 -0.0561  0.0094
 5928W        W 9672   4.148   6.940   1.477 -0.0614  0.0889 -0.0516
 5929W        W 9673   2.241   9.011  12.341 -0.3455  0.1198  0.0256
 5930W        W 9674   1.269   1.042   9.661 -0.1966  0.1797  0.2719
 5931W        W 9675   0.929   7.624  11.604 -0.1685  0.1333  0.4119
 5932W        W 9676   3.372   5.895   0.738  0.2690  0.0081 -0.2803
 5933W        W 9677   9.911   9.321   1.985  0.1028  0.0664 -0.2929
 5934W        W 9678   9.571   3.802   2.990 -0.0203  0.2960 -0.1183
 5935W        W 9679   9.577   8.500   3.305 -0.1583  0.0037 -0.0646
 5936W        W 9680   1.453   3.874   9.469  0.0966  0.2459 -0.1023
 5937W        W 9681   3.445   0.793  10.897  0.0302 -0.0979  0.2019
 5938W        W 9682   1.764   5.662   8.685 -0.1558 -0.5376 -0.1466
 5939W        W 9683   9.198   5.238   2.724  0.3212 -0.0937 -0.0232
 5940W        W 9684   0.323   2.885   4.061  0.0713 -0.1169  0.1520
 5941W        W 9685   3.995   4.848   1.268  0.3288  0.0634  0.1157
 5942W        W 9686   0.128   1.202  11.237 -0.1814  0.1155  0.1417
 5943W        W 9687   3.860   1.409  12.680  0.0584  0.1941 -0.2932
 5944W        W 9688   5.794   3.098   0.597 -0.0138  0.2969 -0.3938
 5945W        W 9689   0.061   3.628   2.941 -0.0739  0.0146 -0.0354
 5946W        W 9690   7.168   3.478  10.078  0.1136  0.2208  0.2192
 5947W        W 9691   5.817   1.596   1.395  0.1646  0.0474 -0.0842
 5948W        W 9692   4.523   7.882  11.017 -0.0945  0.0010 -0.1779
 5949W        W 9693   1.389   4.214  11.249  0.1784  0.2122 -0.1677
 5950W        W 9694   2.694   1.166   1.117 -0.0357 -0.2543 -0.0093
 5951W        W 9695   6.240   4.444   1.530  0.0481 -0.3472 -0.0977
 5952W        W 9696   5.092   2.417   3.851  0.1604  0.2471 -0.2379
 5953W        W 9697   5.717   4.410   1.382  0.0696  0.0233 -0.1303
 5954W        W 9698   7.118   7.398  11.702  0.3378 -0.1049  0.0789
 5955W        W 9699   0.497   2.060   3.623 -0.1198  0.2501  0.5261
 5956W        W 9700   6.352   1.637   2.530 -0.1117  0.2997  0.1995
 5957W        W 9701   0.370   3.287   1.274 -0.0958 -0.1661  0.1801
 5958W        W 9702   1.676   1.834  12.642 -0.3458  0.0873 -0.1545
 5959W        W 9703   2.779   8.873   0.282 -0.2388  0.1365 -0.1708
 5960W        W 9704   7.203   7.934   2.443 -0.1656 -0.2990 -0.2257
 5961W        W 9705   7.934   2.571   1.364 -0.0225 -0.0908 -0.5828
 5962W        W 9706   4.166   0.943  11.660  0.0403 -0.2452  0.0183
 5963W        W 9707   6.372   8.217   3.036  0.0053 -0.4006  0.3209
 5964W        W 9708   3.566   0.967   0.008 -0.0902 -0.0977  0.0447
 5965W        W 9709   7.919   4.640  11.529 -0.1029 -0.2332  0.0372
 5966W        W 9710   0.156   1.859   3.173  0.2923 -0.0969 -0.0434
 5967W        W 9711   4.839   9.941   8.262 -0.2431  0.2577 -0.1115
 5968W        W 9712   4.302   8.710   9.894 -0.2516 -0.3143  0.1575
 5969W        W 9713   1.005   6.093   9.761 -0.0192  0.1078  0.3396
 5970W        W 9714   8.070   7.116   4.466  0.2780 -0.2599 -0.1853
 5971W        W 9715   2.710   3.134  11.463  0.0449 -0.1817  0.0802
 5972W        W 9716   2.494   1.269   2.925  0.0659  0.0740 -0.0079
 5973W        W 9717   8.845   3.332  12.236 -0.0380 -0.2360 -0.3284
 5974W        W 9718   5.889   5.916   9.921  0.4841  0.2188 -0.0279
 5975W        W 9719   5.066   1.874   0.508 -0.1361  0.1635  0.1962
 5976W        W 9720   3.311   2.043  11.834 -0.0232  0.3387  0.0311
 5977W        W 9721   4.889   6.351   9.921  0.1247 -0.0089 -0.2141
 5978W        W 9722   4.605   5.648   3.794  0.1336  0.0885  0.0710
 5979W        W 9723   8.447   5.981   2.965 -0.3669  0.0534 -0.2483
 5980W        W 9724   5.020   1.315  12.041 -0.0867  0.2787 -0.0607
 5981W        W 9725   6.849   5.706   9.343 -0.2188  0.0549  0.1058
 5982W        W 9726   6.261   5.469  11.958  0.0850 -0.0325 -0.1858
 5983W        W 9727   5.062   6.798   3.991  0.0580  0.1869  0.0601
 5984W        W 9728   2.225   6.134  12.687 -0.0125 -0.0460  0.0807
 5985W        W 9729   9.423   5.933  12.700 -0.0288  0.1780  0.0247
 5986W        W 9730   1.735   6.779   9.503  0.2204  0.1600  0.2318
 5987W        W 9731   6.387   5.242   1.511  0.1674 -0.1590 -0.1046
 5988W        W 9732   2.834   3.261   4.019  0.2976 -0.0442  0.3847
 5989W        W 9733   2.840   7.532   1.239  0.4254 -0.0775 -0.0561
 5990W        W 9734   5.758   3.855   3.769  0.2170 -0.3184  0.0871
 5991W        W 9735   9.366   2.359   9.723  0.0425  0.0523 -0.0201
 5992W        W 9736   7.749   0.046  12.215 -0.2198  0.0237  0.0453
 5993W        W 9737   7.258   6.006   3.567 -0.2599 -0.1899  0.1966
 5994W        W 9738   5.251   8.165  10.190  0.1552  0.1308  0.2515
 5995W        W 9739   0.958   8.857  10.212  0.1899  0.0238 -0.0293
 5996W        W 9740   4.317   4.784   9.337  0.2042 -0.1656 -0.0355
 5997W        W 9741   5.938   6.704   3.949  0.4442 -0.3399  0.0547
 5998W        W 9742   6.686   7.942   1.472  0.2896  0.0293 -0.0766
 5999W        W 9743   8.862   8.529  10.158 -0.0268  0.2171  0.1738
 6000W        W 9744   1.412   0.401  11.507 -0.0259  0.0446  0.0745
 6001W        W 9745   6.149   3.872   4.080 -0.0476 -0.0386  0.1601
 6002W        W 9746   0.796   0.815  12.453  0.0852  0.0153  0.0574
 6003W        W 9747   4.433   3.511  12.453 -0.0650  0.2169  0.0008
 6004W        W 9748   5.330   1.418  10.919  0.0561 -0.0524 -0.0495
 6005W        W 9749   3.489   1.655   9.122  0.3636  0.2495  0.0747
 6006W        W 9750   9.792   1.102   2.175  0.0979  0.2493  0.0350
 6007W        W 9751   7.237   6.823   2.968  0.2118 -0.1133  0.2442
 6008W        W 9752   2.531   7.890   3.311 -0.0011  0.1025  0.2809
 6009W        W 9753   0.154   8.640   3.418 -0.0826  0.1374  0.2424
 6010W        W 9754   1.972   8.085   8.247  0.2325 -0.0830 -0.1598
 6011W        W 9755   3.084   0.638  12.711 -0.2080 -0.1814  0.2190
 6012W        W 9756   5.089   0.522   1.198 -0.2403  0.1597 -0.1077
 6013W        W 9757   2.709   3.663   0.414  0.2645 -0.1245  0.1755
 6014W        W 9758   6.036   7.676   0.927 -0.1457  0.1041 -0.2606
 6015W        W 9759   4.747   0.535  10.544  0.0579  0.1738  0.0629
 6016W        W 9760   5.604   7.779   2.974  0.0416  0.2881 -0.0242
 6017W        W 9761   7.898   4.402  10.245 -0.3333  0.0529  0.3308
 6018W        W 9762   2.515   8.481  11.635 -0.0017 -0.2809 -0.3929
 6019W        W 9763   1.013   7.030   1.657  0.2444 -0.0888 -0.1524
 6020W        W 9764   9.102   8.296   2.082 -0.2078 -0.0384  0.0250
 6021W        W 9765   9.127   3.383  10.705 -0.2606 -0.0727  0.1225
 6022W        W 9766   4.437   3.182  10.377 -0.0624  0.0358 -0.1398
 6023W        W 9767   3.930   8.551   2.835  0.6058 -0.5715 -0.0719
 6024W        W 9768   7.100   1.132   1.236 -0.1360  0.1436 -0.3353
 6025W        W 9769   8.797   4.303  12.276 -0.2670  0.1809  0.0869
 6026W        W 9770   1.916   2.736  11.436  0.0758 -0.2673 -0.1238
 6027W        W 9771   0.886   4.950  11.563  0.0445 -0.2084 -0.2340
 6028W        W 9772   8.146   7.304  11.471 -0.2126  0.0245 -0.3253
 6029W        W 9773   3.709   5.990  12.255 -0.0770  0.0179 -0.1379
 6030W        W 9774   0.086   8.057   2.546  0.1802  0.3062  0.0331
 6031W        W 9775   4.948   0.644  12.167 -0.1626  0.0476  0.1568
 6032W        W 9776   7.975   7.684   0.864  0.0842  0.1131  0.0805
 6033W        W 9777   4.733   6.709  12.747 -0.1394 -0.3054  0.0263
 6034W        W 9778   8.795   5.710  10.009  0.0712  0.1934 -0.1426
 6035W        W 9779   2.236   8.422  10.351 -0.0599  0.0390 -0.3261
 6036W        W 9780   7.480   5.942   2.632 -0.1427  0.0989  0.1608
 6037W        W 9781   6.084   1.274   1.045 -0.1051  0.3787  0.3108
 6038W        W 9782   9.335   7.960   0.297  0.1585  0.5115  0.1062
 6039W        W 9783   6.372   4.487   8.558  0.1276 -0.1588 -0.1967
 6040W        W 9784   3.327   6.464   3.058 -0.1259  0.0831 -0.4673
 6041W        W 9785   0.500   9.243  10.370 -0.2466 -0.2091 -0.0333
 6042W        W 9786   0.997   4.403   1.482  0.1672  0.1896  0.1447
 6043W        W 9787   6.339   7.902   9.468 -0.0465 -0.1221 -0.0415
 6044W        W 9788   0.113   4.018   3.514  0.3078  0.1535 -0.1714
 6045W        W 9789   2.145   5.589   9.012 -0.2224  0.1076  0.0125
 6046W        W 9790   3.729   6.349  10.275  0.0796 -0.0607 -0.4650
 6047W        W 9791   8.794   5.526  11.781 -0.2474  0.3060  0.3537
 6048W        W 9792   0.197   0.181  11.926 -0.0531  0.2212 -0.1832
 6049W        W 9793   7.180   3.700   1.472  0.1074 -0.1598 -0.0378
 6050W        W 9794   8.862   1.428  11.401 -0.2568 -0.0703  0.0426
 6051W        W 9795   5.856   3.203   3.275 -0.1238 -0.0549 -0.4801
 6052W        W 9796   0.692   5.224   3.858 -0.1554 -0.0276 -0.0434
 6053W        W 9797   5.345   7.187  12.220  0.0590  0.1442  0.2051
 6054W        W 9798   3.874   1.815   0.989  0.1284  0.0395  0.3466
 6055W        W 9799   1.878   3.530   3.763 -0.3341 -0.1662 -0.2402
 6056W        W 9800   6.401   9.188   8.963 -0.1865 -0.0878 -0.1179
 6057W        W 9801   6.218   3.809   2.500 -0.1097 -0.2450  0.0714
 6058W        W 9802   0.654   3.906   0.606  0.2210 -0.0502  0.0466
 6059W        W 9803   6.161   9.405   2.579 -0.1723  0.0002 -0.1284
 6060W        W 9804   4.094   7.608   2.543 -0.3296 -0.0796 -0.1145
 6061W        W 9805   7.885   0.792  11.201  0.0278  0.1638  0.0947
 6062W        W 9806   2.162   0.810   2.998 -0.2791 -0.0231  0.2272
 6063W        W 9807   5.378   2.982   9.936  0.2113  0.1363  0.0067
 6064W        W 9808   6.341   1.506  11.235 -0.0758 -0.0527 -0.1707
 6065W        W 9809   9.454   7.216   4.085 -0.1801 -0.0931 -0.0012
 6066W        W 9810   8.323   6.516   2.904 -0.0474  0.1422 -0.5239
 6067W        W 9811   1.831   1.422   2.808 -0.3766  0.0571 -0.2010
 6068W        W 9812   3.755   0.245   0.410  0.2116  0.2321  0.0841
 6069W        W 9813   8.537   2.201   1.010  0.0478  0.0562  0.0409
 6070W        W 9814   0.345   4.490  12.734 -0.0556 -0.0537  0.1210
 6071W        W 9815   3.332   2.043  10.936 -0.5296 -0.0766 -0.4790
 6072W        W 9816   1.219   0.556   1.753  0.1129  0.2647 -0.2751
 6073W        W 9817   2.463   1.153   0.642 -0.1868 -0.0448 -0.0955
 6074W        W 9818   6.839   8.167   2.832  0.1661  0.0818 -0.0826
 6075W        W 9819   5.068   6.885   3.186  0.4142  0.1605 -0.1238
 6076W        W 9820   5.854   1.162  10.162 -0.2458  0.0102  0.1740
 6077W        W 9821   2.408   5.447   1.629  0.1223  0.0352 -0.0890
 6078W        W 9822   4.584   2.581   8.586  0.1356 -0.0688 -0.0111
 6079W        W 9823   5.823   7.021   0.140  0.0558  0.1129 -0.0619
 6080W        W 9824   7.938   3.908  10.484  0.0591 -0.2220  0.2309
 6081W        W 9825   1.089   4.146   0.661  0.2827 -0.2016  0.0220
 6082W        W 9826   8.583   1.854  12.603 -0.0477  0.1896 -0.0771
 6083W        W 9827   2.714   2.855   9.836  0.2117  0.1085  0.0438
 6084W        W 9828   5.884   2.104   4.412  0.1920 -0.2128 -0.3633
 6085W        W 9829   3.138   9.738  12.094  0.3595 -0.0513 -0.0146
 6086W        W 9830   0.788   5.565   3.478 -0.0438 -0.0083 -0.2200
 6087W        W 9831   1.021   0.037   9.442 -0.1715 -0.2963 -0.0824
 6088W        W 9832   5.013   1.979   9.047  0.0544 -0.1138 -0.0277
 6089W        W 9833   7.392   6.274   2.200 -0.1023 -0.0300 -0.0612
 6090W        W 9834   8.941   1.987  11.072 -0.1239  0.1795  0.2314
 6091W        W 9835   6.425   3.808  11.059  0.0285 -0.1767 -0.0358
 6092W        W 9836   6.174   8.360  10.261 -0.0240  0.0706 -0.3684
 6093W        W 9837   6.811   6.462   0.775  0.0718 -0.1698 -0.1663
 6094W        W 9838   5.206   0.275   0.747  0.1801 -0.1634  0.0045
 6095W        W 9839   1.894   8.884   3.501 -0.3186  0.1394 -0.0585
 6096W        W 9840   4.510   9.323  12.619 -0.0730 -0.4548 -0.0820
 6097W        W 9841   4.958   5.737   2.110  0.1772 -0.0979 -0.0779
 6098W        W 9842   1.963   6.527   4.040  0.2074  0.0595  0.0680
 6099W        W 9843   0.823   5.421  11.881  0.0610 -0.2472 -0.0565
 6100W        W 9844   3.333   3.034   3.438 -0.1581  0.1326  0.1474
 6101W        W 9845   9.635   1.398  11.597  0.0447 -0.2078  0.1001
 6102W        W 9846   5.689   9.254  10.147  0.1826  0.1191  0.2994
 6103W        W 9847   8.205   6.193   2.579  0.0920  0.2893  0.0727
 6104W        W 9848   8.729   3.613  11.585 -0.0274 -0.0926  0.0576
 6105W        W 9849   2.893   5.098  10.841 -0.1148 -0.0746 -0.3957
 6106W        W 9850   7.578   1.313  11.982  0.2463  0.2327 -0.3842
 6107W        W 9851   2.982   6.647   9.013 -0.0738 -0.3347  0.1886
 6108W        W 9852   0.648   9.619   3.321  0.1294  0.0777  0.0145
 6109W        W 9853   7.213   7.722   9.729  0.0167  0.0791 -0.1138
 6110W        W 9854   0.836   0.778   9.950 -0.1473 -0.2463  0.0050
 6111W        W 9855   4.981   4.279   3.234 -0.1156 -0.4684 -0.2106
 6112W        W 9856   7.163   4.925  10.441 -0.0167  0.0038  0.2232
 6113W        W 9857   6.645   4.103  11.591  0.0048  0.0869 -0.2415
 6114W        W 9858   7.607   7.463   2.252  0.3685  0.3099  0.0517
 6115W        W 9859   0.861   6.084   2.004  0.2041 -0.1625 -0.1137
 6116W        W 9860   0.880   3.486   0.428 -0.0413  0.2192 -0.0983
 6117W        W 9861   2.602   3.147   3.124 -0.2824  0.2400 -0.1012
 6118W        W 9862   6.060   1.275  10.828  0.2670 -0.0179 -0.1281
 6119W        W 9863   3.669   9.560   4.900 -0.2265 -0.1598 -0.0410
 6120W        W 9864   6.030   4.264   2.325 -0.2231 -0.1158 -0.0449
 6121W        W 9865   4.768   0.481   2.899 -0.1024  0.1774 -0.2876
 6122W        W 9866   5.620   3.560   0.519 -0.1843 -0.1012 -0.2787
 6123W        W 9867   5.198   7.269   9.482  0.0755 -0.2158  0.2570
 6124W        W 9868   3.284   2.592   3.204  0.0001  0.0708 -0.0088
 6125W        W 9869   1.702   3.919   1.308 -0.1580  0.0676 -0.0052
 6126W        W 9870   2.348   1.759   2.764  0.1547 -0.1199 -0.1560
 6127W        W 9871   7.372   6.486  11.939  0.2265 -0.1452 -0.4107
 6128W        W 9872   3.148   1.116  10.692  0.1082 -0.1528  0.4471
 6129W        W 9873   5.386   3.315  11.483  0.1975  0.0898  0.1310
 6130W        W 9874   1.629   9.297   1.753 -0.0833  0.0700  0.3149
 6131W        W 9875   8.001   2.761   0.873 -0.0561  0.0523  0.1318
 6132W        W 9876   3.388   7.150   0.135 -0.0762 -0.0743  0.0855
 6133W        W 9877   1.837   8.725  11.178 -0.2639  0.0481 -0.2712
 6134W        W 9878   2.441   7.826  10.979  0.0098 -0.2578  0.2935
 6135W        W 9879   6.875   0.728  10.874  0.0621  0.4065  0.1036
 6136W        W 9880   8.812   8.133  12.078  0.0498  0.2363  0.2404
 6137W        W 9881   2.563   3.389  12.507  0.1856  0.2397 -0.2268
 6138W        W 9882   7.685   8.068   1.032 -0.1777  0.1714  0.1013
 6139W        W 9883   2.974   4.595  12.768  0.2325  0.0659 -0.0592
 6140W        W 9884   8.119   1.893  12.447 -0.0541  0.1792 -0.0566
 6141W        W 9885   5.403   3.985   9.134  0.0786 -0.0356  0.0674
 6142W        W 9886   4.253   8.706   1.611  0.0191  0.2204 -0.1731
 6143W        W 9887   9.271   9.850   3.675 -0.1878  0.1323 -0.0223
 6144W        W 9888   3.028   6.041   3.273 -0.2382 -0.1509 -0.0583
 6145W        W 9889   4.818   6.416  10.931  0.0737 -0.1188  0.2208
 6146W        W 9890   7.085   2.522   2.362  0.0808 -0.1629  0.1714
 6147W        W 9891   7.525   4.116   3.924  0.1821 -0.2981 -0.0268
 6148W        W 9892   4.839   6.346   8.949  0.1271  0.0675  0.0803
 6149W        W 9893   0.757   2.461  10.563  0.0325 -0.3529 -0.0447
 6150W        W 9894   2.418   6.284   3.168  0.1347 -0.0082  0.0468
 6151W        W 9895   2.498   3.278   9.690 -0.1505  0.3001 -0.0501
 6152W        W 9896   5.963   1.206   3.975 -0.1287  0.2990  0.0069
 6153W        W 9897   2.742   6.003  11.851  0.0741  0.1044 -0.3029
 6154W        W 9898   1.674   3.233   0.190 -0.2161  0.2988 -0.0170
 6155W        W 9899   5.672   4.445   3.810 -0.2966 -0.0980 -0.1239
 6156W        W 9900   3.546   0.039   3.855  0.3752  0.0925 -0.0861
 6157W        W 9901   8.729   9.639   3.400  0.0432  0.1205 -0.3906
 6158W        W 9902   7.539   0.350   1.238 -0.0170 -0.0009  0.2593
 6159W        W 9903   2.720   7.831   3.761 -0.0412  0.0881 -0.2431
 6160W        W 9904   5.662   9.907   3.675 -0.0047 -0.0270  0.2007
 6161W        W 9905   0.958   9.854   0.478  0.2927 -0.0556 -0.1679
 6162W        W 9906   3.967   1.540   0.473 -0.1404  0.0687 -0.0715
 6163W        W 9907   0.325   1.468   9.908  0.2117 -0.0123 -0.2445
 6164W        W 9908   9.842   0.783   2.956  0.0720 -0.2330 -0.1934
 6165W        W 9909   0.725   8.050   3.184 -0.2109 -0.1914 -0.2275
 6166W        W 9910   6.393   5.723   3.484  0.2055 -0.2667  0.1874
 6167W        W 9911   1.572   5.072  10.684  0.1094 -0.0408  0.1798
 6168W        W 9912   2.588   5.660  11.473 -0.3211 -0.1720 -0.2791
 6169W        W 9913   0.588   5.385   9.471  0.2235  0.3162  0.1375
 6170W        W 9914   3.919   0.978  11.123  0.2510  0.0891  0.0376
 6171W        W 9915   8.613   8.653  10.591  0.0498 -0.0846  0.1684
 6172W        W 9916   5.833   2.468  11.275  0.1039 -0.0728 -0.1371
 6173W        W 9917   3.193   5.134   1.084  0.3035  0.1153  0.3236
 6174W        W 9918   6.850   9.551   1.312 -0.0865  0.2742  0.2729
 6175W        W 9919   5.320   1.494  12.374  0.0158  0.0343  0.2558
 6176W        W 9920   9.943   6.015   3.537 -0.1487 -0.1242 -0.1112
 6177W        W 9921   6.202   2.931   9.214 -0.0659 -0.1240  0.0528
 6178W        W 9922   2.833   9.503   9.919  0.2434  0.2205  0.1133
 6179W        W 9923   8.414   0.006  12.783 -0.0382  0.3534  0.0906
 6180W        W 9924   3.860   2.985  10.911  0.1172  0.1127 -0.0243
 6181W        W 9925   6.951   4.782   4.380  0.1330 -0.0469  0.0411
 6182W        W 9926   4.458   9.687   1.731  0.3118 -0.0468  0.2130
 6183W        W 9927   6.642   5.370   3.251  0.1394 -0.0433  0.0652
 6184W        W 9928   7.500   4.182  10.436  0.1769  0.0081  0.0475
 6185W        W 9929   1.771   4.498   3.949  0.0100  0.2597 -0.0455
 6186W        W 9930   3.126   3.849   9.518  0.4283 -0.0694 -0.1791
 6187W        W 9931   3.893   3.842   3.647 -0.0254 -0.3285 -0.0313
 6188W        W 9932   9.817   8.733  11.854 -0.0852  0.2664  0.1460
 6189W        W 9933   1.040   0.401   2.210 -0.0742  0.0511 -0.1067
 6190W        W 9934   3.002   9.935   9.284  0.0329 -0.1129 -0.0622
 6191W        W 9935   5.011   5.100   0.744 -0.0488 -0.1618  0.1433
 6192W        W 9936   3.400   5.106   3.598 -0.1434  0.0085  0.1484
 6193W        W 9937   6.851   5.839   3.360  0.1343 -0.0028  0.2691
 6194W        W 9938   1.492   8.289   9.548 -0.0602 -0.3211 -0.3136
 6195W        W 9939   4.124   7.842   2.011 -0.1014  0.1781  0.4215
 6196W        W 9940   0.262   6.444   3.792  0.2082  0.0473  0.1294
 6197W        W 9941   5.520   5.723   1.651 -0.1312  0.4173  0.3404
 6198W        W 9942   6.975   3.754   0.170 -0.1355  0.1792  0.1262
 6199W        W 9943   6.791   8.657  11.623 -0.0003 -0.2777 -0.1798
 6200W        W 9944   1.971   3.673   0.340  0.1457 -0.1001 -0.1985
 6201W        W 9945   5.475   5.265   1.325 -0.2181 -0.1658  0.4033
 6202W        W 9946   4.087   3.355   0.050  0.0486  0.0647  0.3406
 6203W        W 9947   4.578   7.883   4.738  0.1553 -0.0977  0.0322
 6204W        W 9948   2.469   6.348  12.229 -0.2746  0.3462  0.2656
 6205W        W 9949   9.155   2.627   1.836  0.1044  0.1469 -0.0228
 6206W        W 9950   3.007   0.045   5.059  0.1316  0.1393 -0.3528
 6207W        W 9951   2.400   6.187   1.690 -0.1569  0.4484 -0.0495
 6208W        W 9952   5.200   7.938   0.382  0.0225 -0.2230  0.0117
 6209W        W 9953   7.701   2.975   2.643  0.0200 -0.1594 -0.1181
 6210W        W 9954   7.510   3.985   0.667  0.1516 -0.1870 -0.0616
 6211W        W 9955   6.349   5.572  12.525  0.4471  0.0024  0.0128
 6212W        W 9956   9.677   7.760   3.822 -0.2542 -0.3786 -0.3271
 6213W        W 9957   2.617   8.666   4.057 -0.1576 -0.1510 -0.1396
 6214W        W 9958   3.327   8.796  12.132  0.0816  0.2345 -0.0535
 6215W        W 9959   1.414   0.057   3.425  0.0847  0.3253  0.2651
 6216W        W 9960   5.741   6.619   8.575  0.2365 -0.0340 -0.0898
 6217W        W 9961   6.397   7.716  11.498  0.2039 -0.0458 -0.0329
 6218W        W 9962   7.268   5.749   1.294  0.3836  0.1910  0.1039
 6219W        W 9963   1.949   7.200  11.464 -0.0260  0.1673 -0.0564
 6220W        W 9964   8.097   5.801   3.273  0.1310  0.1422  0.2059
 6221W        W 9965   2.941   9.820   4.621  0.0952 -0.0418  0.1189
 6222W        W 9966   8.516   5.950  11.547 -0.3836 -0.0305  0.0030
 6223W        W 9967   6.558   3.410  11.270 -0.1014 -0.0112 -0.0235
 6224W        W 9968   6.770   0.556  12.622  0.3720  0.1771 -0.1195
 6225W        W 9969   0.083   6.990   1.237 -0.2065  0.2400  0.0411
 6226W        W 9970   2.934   1.980  12.248  0.0739 -0.1428 -0.2610
 6227W        W 9971   1.407   4.713   1.840 -0.2693 -0.1705  0.1806
 6228W        W 9972   3.367   2.558  12.015  0.1065  0.3855  0.1463
 6229W        W 9973   4.493   0.120  11.500  0.1822  0.2932 -0.2941
 6230W        W 9974   4.663   0.157  10.044 -0.2453  0.0200  0.2356
 6231W        W 9975   8.808   2.236   0.532  0.1970 -0.0167  0.3459
 6232W        W 9976   3.515   8.705   3.592  0.1305  0.0099 -0.0681
 6233W        W 9977   8.837   6.355  11.545  0.1346 -0.0955  0.0373
 6234W        W 9978   0.587   6.469  10.420  0.0018  0.1950  0.1132
 6235W        W 9979   3.409   3.086  12.048  0.0151 -0.0691  0.0997
 6236W        W 9980   0.508   4.017   9.021 -0.0199 -0.0090  0.0260
 6237W        W 9981   2.253   7.247  11.963  0.0171 -0.2137 -0.2138
 6238W        W 9982   5.820   9.602  10.870 -0.1539  0.0553 -0.2933
 6239W        W 9983   2.460   9.509   0.520 -0.1824 -0.1557  0.0699
 6240W        W 9984   3.106   7.866   3.013 -0.1837  0.0294 -0.1878
 6241W        W 9985   0.606   7.788  10.803 -0.0260 -0.0700  0.1463
 6242W        W 9986   1.671   9.629   1.037  0.0819 -0.3658  0.1568
 6243W        W 9987   9.239   7.451   3.687 -0.0247  0.0288  0.0324
 6244W        W 9988   2.098   9.083  11.459 -0.0752  0.1113  0.0976
 6245W        W 9989   8.087   5.585   0.354 -0.1106  0.2416 -0.1337
 6246W        W 9990   1.000   5.009  12.049  0.1333  0.2764 -0.3470
 6247W        W 9991   3.578   8.995   2.232  0.0272 -0.1251 -0.2883
 6248W        W 9992   4.983   0.325   3.729 -0.1960 -0.0105  0.1721
 6249W        W 9993   7.581   6.121  12.461  0.1719  0.0874  0.3253
 6250W        W 9994   7.143   1.330   3.066 -0.2764  0.1380  0.3948
 6251W        W 9995   7.577   4.639   3.893 -0.0076 -0.0181  0.1585
 6252W        W 9996   2.712   3.316  10.766  0.0565  0.1116 -0.0918
 6253W        W 9997   4.116   0.039   1.299  0.0919  0.0507  0.0426
 6254W        W 9998   9.599   4.319   1.259 -0.3550  0.3040 -0.3984
 6255W        W 9999   2.020   7.753   8.651 -0.1572 -0.0540  0.0237
 6256W        W10000   3.068   3.535  10.475  0.1011  0.0094 -0.0642
 6257W        W10001   7.357   3.779   2.532  0.0212  0.1583 -0.0973
 6258W        W10002   0.241   7.465   8.777 -0.0127 -0.2398 -0.0343
 6259W        W10003   8.487   9.104   0.346  0.0050  0.1443 -0.1613
 6260W        W10004   7.399   2.952  10.477 -0.3709  0.0148  0.3816
 6261W        W10005   8.228   3.905   0.966  0.0390  0.0923  0.3076
 6262W        W10006   7.855   3.306   1.312  0.1186 -0.0111 -0.0408
 6263W        W10007   9.228   1.662  11.689 -0.0476 -0.0441 -0.1243
 6264W        W10008   6.756   9.474   9.812 -0.2839  0.0999  0.1866
 6265W        W10009   1.971   1.785  10.886 -0.0199 -0.1126  0.1984
 6266W        W10010   7.298   5.622  12.456 -0.2421 -0.2064 -0.1212
 6267W        W10011   3.310   1.918   2.235  0.4072  0.1440 -0.3877
 6268W        W10012   9.171   3.587   0.640  0.0273 -0.1492 -0.0181
 6269W        W10013   9.750   8.568  12.409  0.1447 -0.1595 -0.1851
 6270W        W10014   8.270   8.673   2.599  0.0370 -0.1252 -0.2182
 6271W        W10015   2.993   6.085   1.071 -0.2710  0.1122 -0.1376
 6272W        W10016   2.324   0.610  11.438  0.2674  0.1980 -0.0935
 6273W        W10017   5.884   4.729   0.833 -0.1766 -0.0034 -0.1123
 6274W        W10018   2.259   4.217   2.526 -0.0667  0.1680 -0.1337
 6275W        W10019   3.873   3.721   3.183 -0.0024  0.1992 -0.3829
 6276W        W10020   1.706   9.644   3.206 -0.2410 -0.3782 -0.0169
 6277W        W10021   5.452   3.757  10.165  0.5920 -0.2818 -0.1721
 6278W        W10022   7.947   3.805   2.027 -0.1933  0.3655  0.1380
 6279W        W10023   8.970   7.092  12.051 -0.0633  0.4880  0.3181
 6280W        W10024   6.632   4.065   3.952  0.3581 -0.2016 -0.0243
 6281W        W10025   7.403   5.474  10.337 -0.4609  0.2859 -0.1608
 6282W        W10026   1.108   4.663  11.275  0.2952  0.2550 -0.0508
 6283W        W10027   4.130   2.412   9.934  0.1419 -0.0928  0.1250
 6284W        W10028   2.067   4.245   1.096  0.3051  0.2401 -0.1483
 6285W        W10029   3.887   0.149   4.221  0.1115 -0.0055  0.0237
 6286W        W10030   7.553   8.772   1.577  0.2512  0.1468  0.1422
 6287W        W10031   8.476   2.764   9.442  0.0288  0.0359  0.0471
 6288W        W10032   0.420   7.834  10.312  0.2125 -0.0858  0.0535
 6289W        W10033   3.480   0.123  11.497  0.1656  0.1668 -0.3002
 6290W        W10034   2.935   0.817   2.323 -0.1083  0.1211  0.0604
 6291W        W10035   1.071   7.823   2.806 -0.0198  0.0857  0.2420
 6292W        W10036   5.024   4.353   2.169 -0.0860 -0.1851 -0.1255
 6293W        W10037   9.574   5.240   2.974  0.1297 -0.2594  0.0375
 6294W        W10038   3.437   1.815   4.392 -0.0720  0.0152  0.1688
 6295W        W10039   2.551   1.542   0.136 -0.0788  0.1268  0.3583
 6296W        W10040   5.264   4.908  12.096 -0.0704  0.1322  0.1965
 6297W        W10041   5.446   3.286   1.031  0.0691 -0.0860  0.1557
 6298W        W10042   4.019   2.307   0.874 -0.0375 -0.2593  0.0920
 6299W        W10043   5.533   3.499   8.939 -0.0133  0.0864  0.4068
 6300W        W10044   1.163   9.724   1.047 -0.0928  0.3257 -0.0287
 6301W        W10045   5.285   9.488   3.000  0.0275  0.0585 -0.0403
 6302W        W10046   1.208   9.558   3.306  0.0187  0.0550  0.1609
 6303W        W10047   8.323   2.004   2.781  0.0083 -0.2344 -0.2581
 6304W        W10048   2.333   3.862   0.713 -0.0030  0.0068  0.0595
 6305W        W10049   7.888   7.268   3.296 -0.0558 -0.2270 -0.0295
 6306W        W10050   5.636   6.915   9.615 -0.1550  0.1512 -0.0722
 6307W        W10051   9.279   5.978   0.854  0.1874 -0.0101 -0.2266
 6308W        W10052   7.151   8.535   0.244 -0.2907  0.0896  0.0697
 6309W        W10053   6.385   8.459   0.722 -0.2146  0.0399  0.0748
 6310W        W10054   7.821   3.095   9.967  0.1003 -0.0840  0.0521
 6311W        W10055   0.212   9.806   2.469  0.0804 -0.3132  0.2213
 6312W        W10056   2.289   4.654   2.190  0.1988 -0.1858 -0.2652
 6313W        W10057   9.037   1.530   2.383 -0.0723  0.0861  0.4713
 6314W        W10058   4.749   0.246   1.467  0.0626 -0.2547  0.1171
 6315W        W10059   1.168   9.052   2.080 -0.1277  0.1006 -0.1989
 6316W        W10060   2.624   7.258  10.498 -0.0927  0.4052 -0.0355
 6317W        W10061   5.243   7.123  10.262  0.2348 -0.3342  0.1576
 6318W        W10062   8.730   5.276  11.345 -0.1152  0.2830 -0.1170
 6319W        W10063   9.494   5.080  12.247 -0.0157 -0.1160  0.2043
 6320W        W10064   6.149   0.989  11.889  0.2131  0.1312 -0.1174
 6321W        W10065   3.151   0.462   1.576  0.0631 -0.2695 -0.0919
 6322W        W10066   3.100   1.207  12.619 -0.2718 -0.0075  0.3534
 6323W        W10067   5.082   5.261   2.187  0.0009  0.2749  0.0608
 6324W        W10068   0.074   7.166   9.810 -0.4581  0.0490 -0.0075
 6325W        W10069   0.885   8.741   0.826  0.0344  0.2886  0.2496
 6326W        W10070   8.160   6.653   9.784  0.2387  0.2980 -0.0498
 6327W        W10071   0.406   6.593  11.432 -0.0837 -0.0836 -0.1304
 6328W        W10072   0.608   5.047   4.354  0.0728  0.1233 -0.2924
 6329W        W10073   7.668   7.967   3.633 -0.2104 -0.0297 -0.1840
 6330W        W10074   6.364   4.558  12.641 -0.2285 -0.0761  0.2371
 6331W        W10075   4.264   0.660   3.566 -0.1359 -0.1970 -0.0022
 6332W        W10076   1.868   9.376   2.221  0.0926  0.2951  0.1978
 6333W        W10077   8.914   4.053   0.711  0.1376  0.0744 -0.0732
 6334W        W10078   7.307   9.237  11.872 -0.1030 -0.0552 -0.1207
 6335W        W10079   4.314   7.386   3.588 -0.2405 -0.0095 -0.2439
 6336W        W10080   3.725   3.280   2.958  0.3439 -0.0570 -0.0240
 6337W        W10081   6.307   9.766   0.156 -0.2001  0.0746 -0.0643
 6338W        W10082   1.301   8.085   2.444  0.1522  0.1237 -0.2774
 6339W        W10083   0.828   7.223   4.422 -0.0033  0.1776 -0.0215
 6340W        W10084   7.320   8.660   2.009 -0.0143 -0.0763 -0.0162
 6341W        W10085   0.659   4.901  11.063 -0.1839  0.3239 -0.1075
 6342W        W10086   9.535   7.909   2.482 -0.3035  0.0108 -0.1435
 6343W        W10087   3.979   2.678  12.108  0.0059 -0.1379  0.2750
 6344W        W10088   9.724   4.258   9.260 -0.2280 -0.1624  0.0616
 6345W        W10089   6.619   6.955   0.754 -0.2198  0.1849 -0.0277
 6346W        W10090   1.879   1.882  11.722 -0.1532  0.6105  0.2288
 6347W        W10091   8.433   7.554  10.181 -0.0474  0.4314 -0.3580
 6348W        W10092   7.788   0.689   2.025 -0.1396  0.1140 -0.1544
 6349W        W10093   9.294   5.302   1.408  0.1399  0.3928 -0.1299
 6350W        W10094   5.412   0.293  12.199 -0.1719 -0.1610 -0.0716
 6351W        W10095   5.447   5.079   9.739 -0.0255 -0.4265  0.0410
 6352W        W10096   6.927   5.991  10.537 -0.0528  0.4250  0.1520
 6353W        W10097   3.142   7.120  11.550 -0.1263  0.0977  0.0337
 6354W        W10098   0.418   3.082  11.286  0.0001 -0.0928 -0.1884
 6355W        W10099   8.727   0.701  11.650 -0.4968  0.2821  0.0509
 6356W        W10100   0.733   8.333   2.421  0.0322 -0.0183 -0.2268
 6357W        W10101   4.646   4.709   9.936 -0.2517  0.0262 -0.0736
 6358W        W10102   7.711   6.854   1.513 -0.3414 -0.0402 -0.0018
 6359W        W10103   6.555   7.016   9.879 -0.0266  0.0630 -0.2189
 6360W        W10104   1.012   3.683  10.403 -0.0767  0.2558 -0.1921
 6361W        W10105   0.131   9.141   3.599  0.1789 -0.1458 -0.1064
 6362W        W10106   9.482   0.251   9.723  0.0489 -0.0332 -0.1848
 6363W        W10107   2.892   9.323   0.310 -0.0897 -0.0051  0.0566
 6364W        W10108   9.085   5.726   9.593 -0.0913  0.0444 -0.0232
 6365W        W10109   4.094   4.371   9.182 -0.1224 -0.1131  0.0235
 6366W        W10110   7.184   8.529   3.023  0.0026 -0.0191  0.1355
 6367W        W10111   2.768   0.556   1.179 -0.1507  0.2538 -0.4936
 6368W        W10112   5.662   5.876   3.705  0.0943  0.0024  0.2622
 6369W        W10113   9.039   0.362  10.615  0.0282  0.3774  0.0369
 6370W        W10114   6.251   1.195   9.777  0.1218 -0.2583 -0.1512
 6371W        W10115   3.230   3.724   8.998 -0.0277  0.0158 -0.3800
 6372W        W10116   8.487   5.917   1.172 -0.0495 -0.2210  0.2011
 6373W        W10117   0.382   6.485   2.246 -0.0987  0.1330 -0.0423
 6374W        W10118   1.299   7.371   2.890 -0.1974 -0.2183 -0.0817
 6375W        W10119   2.159   3.374   1.031  0.4042  0.0670 -0.0463
 6376W        W10120   0.515   5.718  12.470  0.0245  0.3678 -0.1290
 6377W        W10121   1.937   8.897   5.270 -0.2416  0.0640  0.1482
 6378W        W10122   6.395   9.741  10.805 -0.1782 -0.1814 -0.0684
 6379W        W10123   4.253   1.954   0.553  0.1280  0.1550 -0.0239
 6380W        W10124   2.066   0.169  10.622  0.0023  0.0298 -0.0361
 6381W        W10125   2.247   7.537   2.004 -0.2168  0.3366  0.0961
 6382W        W10126   0.111   6.329   3.188  0.2668 -0.0013  0.2754
 6383W        W10127   4.963   3.410  11.184 -0.2566  0.0629 -0.1344
 6384W        W10128   6.308   1.805   8.962  0.1248 -0.0566  0.2321
 6385W        W10129   2.625   1.371   3.430  0.1191  0.1062 -0.4200
 6386W        W10130   5.182   4.582   3.759  0.2750 -0.0534 -0.0125
 6387W        W10131   9.712   3.207   1.329 -0.1750  0.0677 -0.3567
 6388W        W10132   7.786   6.382   2.482 -0.3661  0.2752  0.2132
 6389W        W10133   1.818   4.593  10.018  0.0746 -0.0551 -0.0915
 6390W        W10134   3.717   0.740   3.516  0.1215 -0.1454  0.1664
 6391W        W10135   2.529   0.520  12.752  0.2745 -0.0737 -0.1072
 6392W        W10136   0.598   5.399  10.067 -0.0987 -0.0695  0.0829
 6393W        W10137   9.888   7.045   4.406  0.0729 -0.0831 -0.0559
 6394W        W10138   0.838   4.241  11.146 -0.1388  0.0353  0.0998
 6395W        W10139   7.109   4.025  10.139  0.3028 -0.0534 -0.1517
 6396W        W10140   0.140   7.990   0.933 -0.2688  0.1886  0.0950
 6397W        W10141   9.754   3.107   2.120  0.3516  0.0532 -0.0169
 6398W        W10142   7.393   8.864   9.094  0.2503 -0.5463 -0.0303
 6399W        W10143   4.596   2.112   8.803  0.0825 -0.0143  0.0178
 6400W        W10144   3.011   6.691   9.783 -0.0491 -0.0285  0.1123
 6401W        W10145   9.469   8.787   2.865 -0.1112 -0.0987 -0.1927
 6402W        W10146   8.889   1.351   1.256 -0.0801 -0.2299  0.3824
 6403W        W10147   2.204   7.117   2.763  0.1034  0.1034  0.2953
 6404W        W10148   9.339   1.060   2.508 -0.0551 -0.2192  0.0833
 6405W        W10149   7.213   9.878   3.160 -0.0925 -0.1464 -0.1464
 6406W        W10150   3.249   0.094   4.235  0.0313  0.0843  0.1262
 6407W        W10151   4.763   1.783   3.368 -0.0715 -0.0170 -0.1559
 6408W        W10152   0.360   2.394  11.951 -0.2187  0.0519 -0.0649
 6409W        W10153   8.632   1.659   0.892 -0.0487  0.3074  0.1104
 6410W        W10154   0.679   0.211   1.300 -0.0053  0.0219  0.1619
 6411W        W10155   8.673   6.827   1.756  0.0208  0.1718 -0.1731
 6412W        W10156   9.876   8.985  12.641  0.1000 -0.0417  0.0069
 6413W        W10157   4.365   8.400   3.150  0.1392  0.0757 -0.1668
 6414W        W10158   2.217   7.877   3.692 -0.1789 -0.0700 -0.0725
 6415W        W10159   7.701   0.093   1.958 -0.1003 -0.0661  0.1652
 6416W        W10160   3.814   3.569   8.583  0.1791 -0.2543 -0.2265
 6417W        W10161   2.600   1.525   9.193  0.2719  0.3615 -0.1795
 6418W        W10162   4.727   9.457   1.390  0.3016 -0.1474 -0.0294
 6419W        W10163   9.032   6.473   9.069  0.0818  0.1663  0.0295
 6420W        W10164   5.703   1.785  12.238 -0.0473 -0.0404 -0.0850
 6421W        W10165   7.540   4.335   3.480  0.0917 -0.0746  0.0369
 6422W        W10166   0.736   0.535   3.101  0.1394 -0.1795  0.2097
 6423W        W10167   5.430   6.859  12.585  0.2053 -0.1234  0.0827
 6424W        W10168   2.781   2.519   1.614  0.1317  0.1437 -0.1553
 6425W        W10169   1.915   6.081  12.310 -0.0418  0.0372  0.1305
 6426W        W10170   0.748   6.705   4.335 -0.0642 -0.0013 -0.2661
 6427W        W10171   6.244   3.486   0.509 -0.0914  0.3246 -0.3197
 6428W        W10172   7.104   5.627   2.887  0.2233  0.0596  0.0692
 6429W        W10173   8.345   9.069   3.419 -0.4020 -0.0377  0.1563
 6430W        W10174   3.699   5.016   0.909 -0.1365 -0.0765 -0.0929
 6431W        W10175   2.733   2.568   2.416 -0.2282 -0.0182 -0.0235
 6432W        W10176   1.010   0.835   3.888 -0.3067 -0.0194  0.4350
 6433W        W10177   1.184   5.171   3.720  0.1120  0.4178 -0.1056
 6434W        W10178   7.472   3.549   3.575 -0.1689  0.0764  0.3531
 6435W        W10179   3.837   2.575  11.222  0.0119  0.2326  0.1146
 6436W        W10180   5.588   0.993  11.135  0.0686  0.1320  0.0288
 6437W        W10181   5.179   8.985   4.416  0.2198  0.3436  0.0175
 6438W        W10182   1.136   6.805  10.055  0.1542  0.1868  0.4123
 6439W        W10183   5.433   2.036   8.807  0.1299 -0.1643 -0.0485
 6440W        W10184   2.762   9.608  11.173  0.1215 -0.2744 -0.1241
 6441W        W10185   2.697   8.604   9.239 -0.2629  0.1839 -0.1121
 6442W        W10186   3.581   9.847   3.313  0.0838  0.0678 -0.0022
 6443W        W10187   4.116   3.553   0.491  0.0425  0.3231 -0.3550
 6444W        W10188   2.471   0.391  11.876 -0.2999 -0.2792  0.1917
 6445W        W10189   4.269   6.465   2.725  0.0555  0.2543 -0.6780
 6446W        W10190   9.516   8.048   1.938  0.2927  0.0175 -0.1993
 6447W        W10191   4.136   2.478   2.631  0.0030  0.2905  0.2966
 6448W        W10192   8.893   7.328   4.030  0.0196 -0.0935  0.2059
 6449W        W10193   3.487   2.652   3.848  0.1246 -0.3858  0.0159
 6450W        W10194   4.472   6.197   3.133 -0.1308 -0.1882  0.2720
 6451W        W10195   4.795   5.447   9.418  0.4159  0.0804  0.3702
 6452W        W10196   3.019   7.796   4.722  0.2312 -0.0279 -0.1183
 6453W        W10197   7.785   5.410   3.049 -0.1135  0.1052 -0.0024
 6454W        W10198   9.909   6.768  11.612  0.0739 -0.2794  0.0840
 6455W        W10199   3.826   4.308  12.450  0.1220 -0.1386  0.2471
 6456W        W10200   4.775   6.932   8.391 -0.2739  0.1607 -0.1023
 6457W        W10201   7.678   4.962  10.376  0.2018  0.1499 -0.0006
 6458W        W10202   0.895   5.549   1.296  0.0146  0.1631 -0.4663
 6459W        W10203   1.713   7.486   4.280  0.0469  0.0054  0.5126
 6460W        W10204   4.622   7.195   1.054 -0.1640 -0.0224 -0.1962
 6461W        W10205   4.977   2.432   4.762 -0.2030  0.2494  0.1834
 6462W        W10206   7.869   7.361  12.562 -0.4250 -0.0011  0.1436
 6463W        W10207   5.644   8.111   8.083  0.2048 -0.2857 -0.1799
 6464W        W10208   5.832   5.287   8.378  0.1322 -0.0739 -0.1374
 6465W        W10209   8.605   0.235  10.757 -0.0201  0.2597  0.0775
 6466W        W10210   1.699   5.164  12.418 -0.1167 -0.1310  0.2315
 6467W        W10211   0.661   9.066   4.049 -0.1687 -0.2438  0.1104
 6468W        W10212   4.705   4.022   1.031  0.1287  0.0651 -0.0198
 6469W        W10213   7.573   2.689   9.690  0.1028 -0.0428  0.0985
 6470W        W10214   2.552   6.415  11.643  0.3362  0.0725 -0.1622
 6471W        W10215   9.626   0.549   0.676 -0.1087  0.0605 -0.1300
 6472W        W10216   1.433   1.940   0.672 -0.2972 -0.1549 -0.2414
 6473W        W10217   5.816   8.647  11.494 -0.1791 -0.1228  0.2546
 6474W        W10218   0.486   1.079  10.225 -0.2122  0.1683 -0.2310
 6475W        W10219   1.420   6.529   8.469  0.3426 -0.0448 -0.0225
 6476W        W10220   1.818   4.775   2.211  0.3810 -0.1404 -0.1173
 6477W        W10221   2.804   6.487   2.893  0.2302  0.0115  0.2758
 6478W        W10222   9.175   2.631  10.218  0.0912  0.0897  0.0367
 6479W        W10223   2.353   6.055   9.731  0.1534  0.0293  0.0327
 6480W        W10224   4.058   3.811   9.367 -0.0651  0.0694  0.0173
 6481W        W10225   4.566   7.554   0.663  0.0693  0.0137  0.1667
 6482W        W10226   0.857   1.980   3.292  0.0562 -0.1300  0.1151
 6483W        W10227   0.803   3.960   2.371 -0.1849 -0.0470 -0.1253
 6484W        W10228   1.796   3.880   8.538 -0.1492  0.0764 -0.2439
 6485W        W10229   3.171   1.423  11.095  0.2443  0.1488  0.0640
 6486W        W10230   8.771   2.632  11.376 -0.1083 -0.3560  0.0973
 6487W        W10231   8.210   7.688   1.309 -0.2058  0.1237  0.1223
 6488W        W10232   0.598   6.557   8.758  0.1057  0.1829 -0.2050
 6489W        W10233   3.992   6.791   8.888 -0.0802 -0.1558  0.3374
 6490W        W10234   6.850   8.277   3.305  0.0582 -0.1793 -0.0423
 6491W        W10235   9.469   9.925  11.357 -0.0088 -0.0842 -0.0635
 6492W        W10236   4.404   6.281  10.018 -0.1650  0.4112 -0.0904
 6493W        W10237   0.068   5.415   2.007 -0.3506  0.3243  0.0229
 6494W        W10238   8.774   6.080   1.673 -0.1733  0.1634  0.1109
 6495W        W10239   4.746   5.526   2.869 -0.0479 -0.1387 -0.2814
 6496W        W10240   7.348   0.470   1.975 -0.1820  0.2390 -0.3575
 6497W        W10241   3.850   7.455   3.372 -0.1265  0.1933  0.1264
 6498W        W10242   3.411   6.758  10.071  0.0414  0.0050  0.1636
 6499W        W10243   7.292   3.643   8.229 -0.0029 -0.1174 -0.4770
 6500W        W10244   2.190   5.275   1.150 -0.0908  0.0042 -0.0733
 6501W        W10245   4.983   4.073   9.405  0.0263  0.0016 -0.2188
 6502W        W10246   4.375   5.809  10.254  0.1456 -0.0447 -0.1164
 6503W        W10247   3.333   8.067  12.574  0.2317  0.1813 -0.2459
 6504W        W10248   7.195   7.773   2.871 -0.2147 -0.1081  0.0848
 6505W        W10249   4.988   6.801  11.228  0.0980  0.0860 -0.0080
 6506W        W10250   7.815   0.811   2.490 -0.0130  0.1515 -0.1377
 6507W        W10251   4.741   6.727   1.883  0.1850 -0.1832  0.1147
 6508W        W10252   0.464   6.561   0.398  0.2504  0.2363  0.1206
 6509W        W10253   0.407   4.394   2.817  0.2732 -0.1520 -0.1475
 6510W        W10254   7.015   7.049   4.277 -0.0312 -0.0634  0.1228
 6511W        W10255   2.506   6.507   3.723 -0.1416  0.2210 -0.0986
 6512W        W10256   2.043   2.654  10.877  0.1294  0.0095  0.0316
 6513W        W10257   3.386   6.214   2.031  0.0841 -0.2559 -0.0026
 6514W        W10258   8.894   5.934   2.131  0.1111  0.0068 -0.0901
 6515W        W10259   1.814   9.358  11.146 -0.3196 -0.0226  0.3627
 6516W        W10260   0.390   6.789   9.700  0.2470 -0.2354  0.3430
 6517W        W10261   8.653   1.147   2.328  0.0085  0.2182 -0.0807
 6518W        W10262   6.120   5.514   3.118 -0.0893 -0.1873  0.1975
 6519W        W10263   4.886   5.652  12.715  0.0154  0.0797  0.0743
 6520W        W10264   2.592   4.834  12.513  0.0006 -0.2547 -0.2664
 6521W        W10265   5.031   7.699   9.268 -0.0058  0.0634 -0.0584
 6522W        W10266   3.561   3.596   9.623  0.1869  0.0143 -0.2627
 6523W        W10267   5.468   8.527   3.493 -0.4323 -0.0325  0.0688
 6524W        W10268   1.816   9.006   0.262  0.0455 -0.3482 -0.2113
 6525W        W10269   8.063   5.736   4.599 -0.3276 -0.0329 -0.0661
 6526W        W10270   8.831   5.183   8.953 -0.1403  0.1239  0.0859
 6527W        W10271   7.567   3.825  10.896 -0.3351  0.1882 -0.3371
 6528W        W10272   2.520   1.975   8.961 -0.1245 -0.0192  0.1120
 6529W        W10273   0.782   3.524   0.903 -0.1491  0.0256 -0.0813
 6530W        W10274   3.549   7.859   3.217 -0.0054 -0.0736 -0.0303
 6531W        W10275   4.451   3.758   0.077  0.0156  0.2142  0.1204
 6532W        W10276   5.942   2.113   1.476 -0.1700  0.0243 -0.0556
 6533W        W10277   7.969   3.788   0.012 -0.2518  0.1175 -0.1300
 6534W        W10278   0.795   1.178   0.460 -0.0302 -0.2289  0.2003
 6535W        W10279   9.553   7.471  10.426 -0.1412 -0.1403 -0.4968
 6536W        W10280   6.022   6.794   2.206  0.4637  0.2445  0.1105
 6537W        W10281   6.350   3.093   1.913 -0.2408 -0.0247 -0.0067
 6538W        W10282   1.405   9.168   3.549  0.1309 -0.0822  0.0058
 6539W        W10283   1.159   5.126  11.038 -0.4065  0.2390 -0.1711
 6540W        W10284   6.762   1.851   1.620 -0.0292  0.0073 -0.0325
 6541W        W10285   9.893   5.740  11.317  0.2541 -0.0416 -0.1243
 6542W        W10286   9.762   8.586   0.157 -0.1315  0.0071 -0.0787
 6543W        W10287   1.339   0.498   3.107 -0.1194  0.0408 -0.1098
 6544W        W10288   7.213   5.308   9.102 -0.2179  0.0622 -0.2766
 6545W        W10289   0.016   2.623   0.463  0.1268 -0.1828  0.0632
 6546W        W10290   3.520   6.927   3.166 -0.1731  0.0696 -0.0252
 6547W        W10291   3.162   5.520   4.616 -0.1816  0.0643  0.0108
 6548W        W10292   7.521   4.705   9.670  0.0095 -0.0129  0.1570
 6549W        W10293   2.034   7.003  10.682 -0.1000 -0.1053 -0.1401
 6550W        W10294   8.612   3.201   1.808 -0.1650  0.2384 -0.0746
 6551W        W10295   4.284   1.364   4.844  0.2725 -0.2961 -0.1591
 6552W        W10296   2.869   0.157  10.729 -0.1385  0.2248  0.0655
 6553W        W10297   0.144   4.036  11.398 -0.0348  0.2172  0.3108
 6554W        W10298   8.257   1.884   1.812 -0.0587  0.0643 -0.0831
 6555W        W10299   8.299   4.957   8.173  0.0818  0.0920  0.2244
 6556W        W10300   3.823   6.591  10.773 -0.0998 -0.2702 -0.0640
 6557W        W10301   2.463   7.541  10.106  0.1332 -0.1525 -0.5077
 6558W        W10302   9.497   3.958  12.611  0.3577  0.2154  0.0525
 6559W        W10303   8.482   0.302  11.883  0.0450  0.1519 -0.2784
 6560W        W10304   5.063   3.365   1.803  0.1320 -0.0753 -0.1605
 6561W        W10305   4.206   4.506   1.584 -0.0973  0.0479  0.1782
 6562W        W10306   5.629   6.045  11.516  0.1488  0.0174  0.1703
 6563W        W10307   5.475   0.871   3.244 -0.1305 -0.4044  0.0591
 6564W        W10308   1.441   9.937   2.898  0.4704 -0.0215  0.0949
 6565W        W10309   9.154   3.443   1.099 -0.1533  0.1034  0.1087
 6566W        W10310   6.045   3.036   4.288 -0.1980 -0.0590 -0.0083
 6567W        W10311   4.010   8.395   0.607 -0.1676  0.1199  0.0852
 6568W        W10312   2.770   9.103   0.730  0.2012 -0.2643  0.4040
 6569W        W10313   2.106   1.321   3.208  0.1309 -0.1382 -0.0929
 6570W        W10314   4.992   6.333   3.106 -0.1015  0.3201 -0.0401
 6571W        W10315   1.379   4.800   1.153 -0.2003  0.2364 -0.0759
 6572W        W10316   3.332   5.954   9.694 -0.0557 -0.1873  0.1754
 6573W        W10317   7.503   3.508   2.152 -0.2167 -0.0284  0.0331
 6574W        W10318   7.122   4.371   9.704 -0.0922 -0.2040  0.0117
 6575W        W10319   9.009   9.614   9.444 -0.1900  0.0422  0.2388
 6576W        W10320   3.578   7.331   9.444  0.0675  0.0528  0.1076
 6577W        W10321   5.589   6.066   0.068  0.4322 -0.0353  0.1262
 6578W        W10322   8.363   9.442  10.131 -0.0087 -0.1166  0.1166
 6579W        W10323   5.699   4.986   0.286 -0.0034  0.3084 -0.0369
 6580W        W10324   0.224   1.599   1.242 -0.0521  0.0157  0.1904
 6581W        W10325   5.928   2.774   3.813  0.2534 -0.0746 -0.0633
 6582W        W10326   9.263   7.469  11.821  0.3337  0.2018  0.1284
 6583W        W10327   7.181   5.085   3.071  0.0390 -0.1036 -0.2782
 6584W        W10328   3.623   3.184  12.708 -0.0823 -0.1311 -0.2423
 6585W        W10329   0.773   4.557  11.824 -0.3064 -0.0447 -0.1261
 6586W        W10330   3.646   8.127   1.352 -0.1218 -0.4821 -0.0172
 6587W        W10331   8.605   9.004   4.247  0.2483 -0.3234 -0.0620
 6588W        W10332   1.154   1.647   4.172  0.2328  0.0644  0.1781
 6589W        W10333   5.880   8.548   3.078  0.0815 -0.1135 -0.2700
 6590W        W10334   0.335   5.371  12.759  0.2224  0.0143 -0.2956
 6591W        W10335   9.716   0.713  12.700 -0.2565  0.0705 -0.2281
 6592W        W10336   8.738   5.587   2.988  0.0006  0.0181 -0.5052
 6593W        W10337   9.493   7.147   9.976  0.0340 -0.0492  0.0006
 6594W        W10338   8.809   5.394   1.198  0.2304 -0.0524  0.2519
 6595W        W10339   0.476   0.915   1.779 -0.1886  0.0187  0.0989
 6596W        W10340   3.701   2.712   0.738 -0.1684 -0.1392  0.1503
 6597W        W10341   7.217   6.223   4.015 -0.0558 -0.0405 -0.3269
 6598W        W10342   5.406   9.080  11.506  0.0802  0.1847  0.0474
 6599W        W10343   4.286   4.189   2.798 -0.0717  0.2313  0.1220
 6600W        W10344   4.395   0.253   3.174  0.1094 -0.1393  0.0935
 6601W        W10345   1.309   7.569   2.386  0.2869 -0.1117  0.0681
 6602W        W10346   5.156   0.844   3.606 -0.0703 -0.2342 -0.1436
 6603W        W10347   0.018   3.507  10.526 -0.0922 -0.0581  0.2333
 6604W        W10348   8.142   6.796   1.217 -0.2208  0.2261  0.0693
 6605W        W10349   3.463   4.145  12.708  0.0756  0.1850 -0.1152
 6606W        W10350   8.300   7.409  12.349  0.4689 -0.3739 -0.1485
 6607W        W10351   2.964   2.707   9.412  0.2809 -0.2395 -0.1192
 6608W        W10352   8.960   2.044   0.938 -0.2670 -0.1707 -0.2228
 6609W        W10353   5.293   5.953   2.937  0.1298  0.0710 -0.0610
 6610W        W10354   8.421   4.244   0.528  0.0499  0.3403 -0.0778
 6611W        W10355   4.956   4.776  10.317  0.1859 -0.0767 -0.1128
 6612W        W10356   3.373   2.301  11.400 -0.1853 -0.3660  0.1783
 6613W        W10357   6.697   9.472  12.678  0.0517 -0.1751 -0.1338
 6614W        W10358   0.476   5.050  11.990 -0.2063  0.3343 -0.2148
 6615W        W10359   5.713   8.146   3.299  0.1397  0.0768  0.2354
 6616W        W10360   5.324   7.642  11.931  0.0069  0.2015  0.0500
 6617W        W10361   9.662   4.141   0.350 -0.1470 -0.0554  0.3565
 6618W        W10362   8.436   4.941  10.149 -0.1753  0.1208  0.3625
 6619W        W10363   9.024   7.937  12.516 -0.1979  0.2422 -0.3075
 6620W        W10364   6.312   0.918  12.393 -0.1966  0.2033 -0.1106
 6621W        W10365   7.043   6.770  11.657  0.0541  0.2879 -0.1580
 6622W        W10366   5.398   8.330   1.085  0.1103 -0.3398 -0.1240
 6623W        W10367   0.357   8.369  10.216 -0.0891 -0.2054  0.2704
 6624W        W10368   5.989   1.222   3.399  0.0140  0.1343  0.0111
 6625W        W10369   4.469   6.613   9.168  0.2287 -0.0972  0.1543
 6626W        W10370   2.743   6.575   0.973 -0.0431  0.1156  0.1529
 6627W        W10371   1.724   6.838   3.671 -0.1422 -0.0484  0.2860
 6628W        W10372   9.820   6.081  10.900 -0.0060 -0.2217 -0.2713
 6629W        W10373   0.415   3.820   1.055  0.0030 -0.1727  0.0354
 6630W        W10374   5.111   3.649  11.776  0.2055  0.1723 -0.1124
 6631W        W10375   0.205   5.331  10.333 -0.1605  0.2666  0.0928
 6632W        W10376   9.131   4.023  11.579 -0.1013  0.1774 -0.2010
 6633W        W10377   3.884   0.970   2.218 -0.0759  0.1446  0.0218
 6634W        W10378   4.514   9.322   2.718 -0.0474  0.0165  0.2639
 6635W        W10379   1.195   2.448  11.878  0.3454  0.0438  0.1563
 6636W        W10380   5.843   2.317   0.062 -0.3136 -0.1761  0.1939
 6637W        W10381   7.657   7.324   9.110 -0.0613  0.2713 -0.1827
 6638W        W10382   3.307   2.828   1.003  0.0556  0.1378  0.0015
 6639W        W10383   5.187   0.795   2.783  0.1242  0.0082  0.0089
 6640W        W10384   0.438   5.720  11.112 -0.0058 -0.0362 -0.3604
 6641W        W10385   4.119   8.810   9.037  0.3352 -0.1372  0.2384
 6642W        W10386   3.624   7.815   1.708  0.1452  0.0095 -0.0552
 6643W        W10387   0.117   5.840   8.176 -0.1998 -0.0866  0.0929
 6644W        W10388   9.636   9.356  12.431  0.2156 -0.0606  0.0477
 6645W        W10389   6.863   4.160  12.587 -0.0156  0.2089 -0.3630
 6646W        W10390   2.060   3.631  11.103  0.0058  0.2743  0.1951
 6647W        W10391   4.525   3.886   3.238  0.0881  0.0743 -0.3618
 6648W        W10392   2.477   7.581   1.581 -0.1587 -0.0497  0.0834
 6649W        W10393   8.091   9.581   2.677 -0.2192 -0.0466  0.0107
 6650W        W10394   9.279   3.252   1.562  0.0651  0.1175  0.1986
 6651W        W10395   5.531   4.458   8.801 -0.2068  0.0079  0.1022
 6652W        W10396   2.209   5.002   9.173  0.0773 -0.1115 -0.0348
 6653W        W10397   1.068   8.463   0.031  0.2537 -0.1136 -0.1023
 6654W        W10398   1.146   9.267   9.912 -0.1970  0.3674  0.2774
 6655W        W10399   3.619   5.710   0.284  0.1108 -0.2871  0.0766
 6656W        W10400   0.706   8.850   2.243  0.4807  0.0415  0.4104
 6657W        W10401   3.985   2.238   4.972  0.2020 -0.2276  0.1286
 6658W        W10402   4.667   5.436   1.302 -0.0328 -0.3464 -0.1781
 6659W        W10403   1.126   8.382  10.097  0.0835 -0.1172 -0.1512
 6660W        W10404   5.490   4.076   0.572  0.0581 -0.0735 -0.1560
 6661W        W10405   9.811   6.743   9.925  0.0137 -0.0008 -0.1145
 6662W        W10406   5.604   1.707   5.091  0.0303 -0.0982  0.3407
 6663W        W10407   8.234   4.228   7.682  0.2050  0.0234  0.1124
 6664W        W10408   5.812   6.998   1.494 -0.0536  0.2577  0.4464
 6665W        W10409   4.507   2.860   0.214  0.1301  0.1556  0.0400
 6666W        W10410   2.087   5.310   3.216  0.4459 -0.1141 -0.2991
 6667W        W10411   7.262   8.469   2.498  0.0651  0.0202  0.0835
 6668W        W10412   4.974   8.589   3.460 -0.0884  0.2237  0.1961
 6669W        W10413   0.313   8.485  12.240  0.1131  0.0220 -0.3733
 6670W        W10414   5.970   5.857  11.943  0.0547 -0.0142 -0.1482
 6671W        W10415   7.508   1.640   2.815  0.2166 -0.0077 -0.1015
 6672W        W10416   5.795   5.047  12.117  0.1023  0.1986 -0.0682
 6673W        W10417   6.593   8.385   4.273 -0.0726 -0.1395  0.2487
 6674W        W10418   8.268   9.100  11.548 -0.0009 -0.1199 -0.0158
 6675W        W10419   5.278   1.837  10.713 -0.0317 -0.2847  0.0767
 6676W        W10420   0.435   2.598   0.727  0.2018  0.2201 -0.4931
 6677W        W10421   9.331   8.016  11.964 -0.0285  0.0514  0.4381
 6678W        W10422   1.455   5.244   5.116  0.2072 -0.0638 -0.0391
 6679W        W10423   1.860   6.111   2.279 -0.1106 -0.0022 -0.0975
 6680W        W10424   5.054   0.737   0.023  0.1695 -0.2374  0.0811
 6681W        W10425   5.528   6.398  12.380 -0.2355  0.4233 -0.1656
 6682W        W10426   9.064   3.097  12.771  0.0083 -0.0692  0.1266
 6683W        W10427   0.933   4.649   3.071  0.0652 -0.2548  0.1652
 6684W        W10428   9.076   6.643   9.516 -0.0256  0.1699  0.5124
 6685W        W10429   8.350   9.665   0.412 -0.0798  0.1850 -0.0782
 6686W        W10430   0.435   3.086   3.584 -0.1614 -0.0117 -0.0945
 6687W        W10431   2.900   7.737  10.370  0.2525 -0.0757  0.2290
 6688W        W10432   9.679   5.538  12.210  0.1777  0.2372 -0.1577
 6689W        W10433   7.976   1.224   1.062 -0.0870 -0.3577  0.3379
 6690W        W10434   0.152   2.094  11.603  0.2320  0.2117  0.0368
 6691W        W10435   4.391   9.606   9.466  0.2266 -0.0289 -0.1299
 6692W        W10436   5.347   9.362   0.949  0.4289 -0.1887  0.0273
 6693W        W10437   4.948   8.457   8.820  0.1503  0.3350 -0.3063
 6694W        W10438   3.906   7.605  11.567 -0.3300  0.0855 -0.0913
 6695W        W10439   9.062   9.490   1.038 -0.3633 -0.0699  0.1292
 6696W        W10440   3.098   7.619   2.389  0.0091  0.0216 -0.3068
 6697W        W10441   9.206   9.652   2.624  0.0510 -0.1254 -0.3040
 6698W        W10442   4.589   1.361   2.377  0.4406  0.3384  0.2211
 6699W        W10443   3.837   9.941  12.774 -0.2142  0.2795 -0.0908
 6700W        W10444   4.059   8.034   1.138 -0.1097  0.0244  0.1177
 6701W        W10445   5.749   9.270  12.523  0.2671  0.1957 -0.0902
 6702W        W10446   9.869   9.298   0.752  0.0938  0.0405 -0.1382
 6703W        W10447   6.350   5.067   8.586  0.0098 -0.1568 -0.1768
 6704W        W10448   4.685   4.242   1.553 -0.0604 -0.1382  0.0564
 6705W        W10449   4.927   7.076   1.467  0.0386 -0.2603 -0.0324
 6706W        W10450   3.935   0.141  11.301  0.1495 -0.3338  0.1522
 6707W        W10451   6.775   4.211  11.162  0.1449 -0.2306  0.1550
 6708W        W10452   6.931   6.273   0.342  0.0703  0.0758 -0.0473
 6709W        W10453   0.264   8.646  12.740 -0.2164 -0.0111 -0.0131
 6710W        W10454   1.305   0.899   0.433 -0.2605 -0.1565  0.0849
 6711W        W10455   2.108   5.795   1.887 -0.3145 -0.0020 -0.0097
 6712W        W10456   8.763   2.129   1.852  0.3170 -0.4497  0.0374
 6713W        W10457   7.931   4.822   9.961  0.2212  0.1990 -0.0493
 6714W        W10458   0.974   8.879   3.238  0.0883  0.2072  0.0298
 6715W        W10459   8.684   6.828  10.279 -0.0339 -0.1001  0.0820
 6716W        W10460   5.659   7.394   1.086 -0.1750  0.0498  0.0584
 6717W        W10461   2.058   1.168   4.152  0.3299  0.0338 -0.2063
 6718W        W10462   5.930   5.623   9.281 -0.0596  0.1510 -0.4191
 6719W        W10463   3.744   6.215   9.638  0.0340  0.1506 -0.0160
 6720W        W10464   0.341   7.965  12.047  0.1637  0.2108  0.2162
 6721W        W10465   7.886   2.488   2.873 -0.0752  0.0615  0.0222
 6722W        W10466   1.145   2.518  10.264 -0.0271  0.0186 -0.0427
 6723W        W10467   0.372   3.693  10.157 -0.1940  0.4116  0.0468
 6724W        W10468   8.005   4.330   2.021  0.2234 -0.0804 -0.2825
 6725W        W10469   7.788   2.952   1.630 -0.0092  0.0915 -0.1847
 6726W        W10470   3.232   5.663   1.337 -0.0024 -0.3116  0.1263
 6727W        W10471   0.093   2.149   2.139 -0.0485  0.5582  0.1888
 6728W        W10472   8.341   9.056   9.304  0.0296  0.1335 -0.1140
 6729W        W10473   2.282   9.177   0.107 -0.0956  0.1658  0.1432
 6730W        W10474   7.764   9.189   1.449  0.2661  0.1063 -0.0454
 6731W        W10475   6.730   0.122   0.147  0.3602 -0.2328 -0.3408
 6732W        W10476   0.418   0.951  12.163 -0.0633  0.1179 -0.0611
 6733W        W10477   2.408   6.009   0.359 -0.2523  0.1842 -0.0073
 6734W        W10478   0.565   7.461   0.465  0.1151 -0.0313  0.0838
 6735W        W10479   9.796   4.414  12.736  0.0418 -0.1325  0.0313
 6736W        W10480   0.430   5.732   1.127 -0.0429  0.2430  0.0077
 6737W        W10481   9.852   3.837   2.157  0.0457 -0.0599 -0.2399
 6738W        W10482   0.738   3.533   8.962 -0.0045  0.0829 -0.0403
 6739W        W10483   2.847   7.521   9.848 -0.0742 -0.3266 -0.0959
 6740W        W10484   2.746   0.402   3.493 -0.2730  0.1689 -0.3307
 6741W        W10485   9.775   1.203   2.683  0.0338  0.0170 -0.1562
 6742W        W10486   8.827   5.157   1.632  0.0948  0.5166 -0.1845
 6743W        W10487   4.023   1.626  10.929  0.1649 -0.0415  0.3804
 6744W        W10488   5.068   5.306  10.273  0.3768 -0.0228 -0.0058
 6745W        W10489   2.182   8.387  12.272  0.2096 -0.0748 -0.2126
 6746W        W10490   5.908   7.781   9.698 -0.0537 -0.0067  0.1042
 6747W        W10491   7.796   8.900  11.750 -0.2115 -0.0060  0.1623
 6748W        W10492   4.853   3.371   1.099 -0.3290 -0.1164 -0.1706
 6749W        W10493   9.890   5.343   0.307  0.0608 -0.0223  0.2676
 6750W        W10494   6.158   4.143  10.770 -0.3259  0.1281 -0.1839
 6751W        W10495   0.130   9.795   0.887 -0.0324  0.3843  0.3343
 6752W        W10496   3.150   1.846   0.373  0.1543 -0.0696  0.1320
 6753W        W10497   2.560   8.684  12.632  0.1418  0.1887  0.1030
 6754W        W10498   5.071   9.804   0.073  0.0543 -0.1898  0.0848
 6755W        W10499   5.868   1.601   3.084 -0.0485 -0.3914 -0.0196
 6756W        W10500   3.935   7.692   9.983 -0.1089 -0.1286 -0.0520
 6757W        W10501   3.091   3.429   3.617 -0.3888  0.3464  0.2405
 6758W        W10502   7.039   7.319   2.138  0.4333 -0.0645  0.0216
 6759W        W10503   3.825   7.797   9.097 -0.1351  0.0738  0.0922
 6760W        W10504   6.540   8.951   2.574 -0.1498 -0.0578  0.3288
 6761W        W10505   5.943   7.238   3.501  0.0712 -0.0987  0.0393
 6762W        W10506   8.822   7.604  12.217 -0.3323  0.1101 -0.0393
 6763W        W10507   7.405   8.908  10.944 -0.2438 -0.1359  0.0307
 6764W        W10508   3.835   2.761   2.331 -0.2352  0.2609  0.2288
 6765W        W10509   8.978   3.928   1.975 -0.2286 -0.2157  0.1232
 6766W        W10510   8.548   4.227   2.090 -0.0780  0.1984  0.0023
 6767W        W10511   6.645   2.460  12.256  0.3658 -0.0158 -0.1255
 6768W        W10512   9.598   7.926   3.016  0.1992  0.0089 -0.0708
 6769W        W10513   8.035   5.966   9.192 -0.1442 -0.0112  0.1627
 6770W        W10514   3.110   9.212   2.058  0.1192 -0.0218  0.2217
 6771W        W10515   2.942   8.208   2.294 -0.0907 -0.0639  0.1150
 6772W        W10516   4.528   1.270   1.186  0.0379 -0.1520 -0.0236
 6773W        W10517   0.831   9.746   2.145 -0.2065 -0.1026 -0.1120
 6774W        W10518   7.107   3.567   9.072  0.0278 -0.4982 -0.1468
 6775W        W10519   0.705   7.915   1.815  0.1809  0.1459  0.2551
 6776W        W10520   5.739   8.602   2.590  0.1744  0.2291  0.1165
 6777W        W10521   5.968   0.288   0.215 -0.0045 -0.0093  0.1676
 6778W        W10522   6.844   3.442  12.088  0.1786 -0.1384  0.0555
 6779W        W10523   5.261   9.081   3.267  0.3864  0.0477 -0.1028
 6780W        W10524   1.673   1.143   1.217 -0.0481 -0.0706 -0.4755
 6781W        W10525   8.672   8.535   9.380 -0.0339  0.0547  0.0122
 6782W        W10526   2.108   0.899  12.712  0.3219 -0.0337 -0.3461
 6783W        W10527   1.683   0.353   2.028 -0.2119  0.0075  0.1776
 6784W        W10528   0.783   0.406   9.240  0.2476 -0.0524 -0.2149
 6785W        W10529   6.959   7.300   3.037  0.2418 -0.2206 -0.1341
 6786W        W10530   9.066   1.139   2.069  0.0012 -0.0754 -0.0516
 6787W        W10531   8.055   2.223  10.330  0.1568  0.2665 -0.0081
 6788W        W10532   7.900   4.833   4.921  0.1505  0.0154  0.0215
 6789W        W10533   7.303   5.743   2.118  0.2403  0.2467 -0.0944
 6790W        W10534   1.425   8.867  10.305 -0.1832  0.0693 -0.1599
 6791W        W10535   1.289   4.474   8.693  0.1543 -0.1945 -0.1428
 6792W        W10536   6.578   9.711   3.932  0.1967 -0.1538 -0.0677
 6793W        W10537   3.941   5.942  10.041  0.2544 -0.2219  0.2074
 6794W        W10538   3.292   3.980   2.982  0.2164 -0.1949  0.0597
 6795W        W10539   1.531   6.469   0.432  0.2440 -0.3142 -0.0246
 6796W        W10540   8.999   1.171   9.503  0.2888  0.0720 -0.2138
 6797W        W10541   7.462   1.399   0.963  0.0046  0.1034 -0.2225
 6798W        W10542   5.795   1.342  12.495  0.0966  0.0547 -0.1486
 6799W        W10543   9.527   9.317  11.362 -0.2502  0.2086 -0.0912
 6800W        W10544   3.547   5.133   9.131 -0.2519 -0.3087 -0.0026
 6801W        W10545   9.656   9.535   3.429 -0.4612  0.2096 -0.1716
 6802W        W10546   6.129   4.749  10.802 -0.0085 -0.1201 -0.0537
 6803W        W10547   0.786   2.652  12.183  0.1879  0.1955  0.1951
 6804W        W10548   4.266   4.812   4.511  0.1660 -0.1836  0.2684
 6805W        W10549   5.031   0.758   0.610  0.3770  0.1227  0.1340
 6806W        W10550   1.887   5.637   9.963  0.3512  0.2243 -0.0477
 6807W        W10551   4.981   8.048   1.810 -0.0654 -0.1482  0.1507
 6808W        W10552   1.262   0.566  10.483 -0.0729 -0.0346 -0.0566
 6809W        W10553   2.987   3.494   3.070 -0.3356 -0.1066  0.0041
 6810W        W10554   3.740   2.701   3.449  0.3214 -0.1630  0.0475
 6811W        W10555   9.144   5.768   8.465  0.1737 -0.1408  0.1271
 6812W        W10556   6.652   4.344   0.245  0.0746 -0.3771 -0.0528
 6813W        W10557   7.336   5.505   0.259 -0.0849  0.2187 -0.0776
 6814W        W10558   7.671   2.605  10.209  0.0097  0.1630  0.1406
 6815W        W10559   8.233   3.413   0.306 -0.0193  0.2154 -0.1678
 6816W        W10560   7.818   1.168   1.924  0.0382  0.2773  0.2390
 6817W        W10561   4.545   5.269   0.632 -0.2576 -0.1237 -0.1610
 6818W        W10562   2.463   5.352   2.181  0.1673  0.4734  0.0121
 6819W        W10563   5.219   7.462  10.649 -0.2015 -0.2043  0.0015
 6820W        W10564   6.651   3.226  11.701 -0.3271 -0.2531  0.1538
 6821W        W10565   0.278   4.420   3.707  0.0330 -0.0736  0.0462
 6822W        W10566   0.324   1.077   2.663 -0.0953  0.1727 -0.0080
 6823W        W10567   3.107   9.131   1.550  0.2556  0.2419  0.4761
 6824W        W10568   6.098   5.145   1.926  0.2149 -0.4046  0.2537
 6825W        W10569   5.872   7.721   4.094  0.0087  0.0609 -0.0728
 6826W        W10570   2.517   2.933   3.661  0.2992  0.2226  0.1345
 6827W        W10571   4.799   0.432   2.376 -0.0504 -0.1746  0.0629
 6828W        W10572   2.596   5.354  12.683  0.0948  0.1003  0.1442
 6829W        W10573   3.843   6.446   9.207 -0.1308  0.0566 -0.0274
 6830W        W10574   0.542   4.921   9.787  0.3071  0.0372 -0.0599
 6831W        W10575   1.930   9.529   1.447 -0.0790 -0.0638  0.3141
 6832W        W10576   7.500   8.055  12.007 -0.5036 -0.2239  0.2348
 6833W        W10577   1.282   1.460   0.454 -0.3651 -0.1297 -0.1288
 6834W        W10578   6.090   8.899   2.318 -0.0651  0.1611 -0.2806
 6835W        W10579   6.713   4.617   1.355 -0.0664 -0.2734  0.1919
 6836W        W10580   7.649   4.956   2.188 -0.2067  0.0022  0.0259
 6837W        W10581   1.807   1.617   0.300  0.0254  0.0079 -0.0491
 6838W        W10582   6.858   5.525   2.401 -0.3160 -0.2166 -0.1094
 6839W        W10583   3.840   4.632   4.751  0.1590  0.1347 -0.1646
 6840W        W10584   7.959   9.673  10.439  0.2625  0.2463  0.2384
 6841W        W10585   8.676   5.662   8.728  0.1857 -0.0983  0.0461
 6842W        W10586   5.130   5.024   3.555 -0.4560 -0.1973 -0.1013
 6843W        W10587   3.387   1.454   0.177 -0.0454  0.1219 -0.0940
 6844W        W10588   1.920   3.902  10.696 -0.0581  0.0869  0.2183
 6845W        W10589   5.505   8.032  11.636  0.0543 -0.2937  0.0209
 6846W        W10590   7.084   7.561   8.883  0.1650  0.1676  0.3076
 6847W        W10591   8.523   7.486   0.510 -0.3351 -0.1016 -0.0894
 6848W        W10592   9.829   5.795  11.829  0.0030  0.1681  0.0904
 6849W        W10593   0.506   7.295   8.330 -0.2266  0.3426  0.1642
 6850W        W10594   3.741   4.612   3.399 -0.0725 -0.1174 -0.2049
 6851W        W10595   2.389   7.537  11.525 -0.0165  0.0056  0.1262
 6852W        W10596   1.673   9.467  12.772 -0.1022 -0.0429 -0.0221
 6853W        W10597   5.514   6.859   4.202 -0.1835  0.0265  0.2169
 6854W        W10598   6.342   7.824  11.013  0.0651 -0.2154  0.0753
 6855W        W10599   6.281   4.367   0.618  0.0178  0.2122  0.1366
 6856W        W10600   7.236   5.481   1.706  0.1999  0.0099 -0.1555
 6857W        W10601   5.953   5.906   2.284  0.0783 -0.1278  0.3215
 6858W        W10602   3.387   7.718  11.728 -0.2549 -0.0079  0.2409
 6859W        W10603   4.689   9.218  11.728  0.1865 -0.1861 -0.1136
 6860W        W10604   9.814   9.285   0.248  0.3380 -0.0478  0.2061
 6861W        W10605   2.302   5.274  11.695  0.0160  0.0178 -0.0154
 6862W        W10606   8.114   5.271  10.445  0.1763 -0.0010 -0.2505
 6863W        W10607   6.290   4.238   9.751  0.0533 -0.2736 -0.1571
 6864W        W10608   6.581   3.821   2.969 -0.0615 -0.0017  0.1194
 6865W        W10609   9.280   2.857   3.021  0.2144  0.1378  0.2668
 6866W        W10610   5.818   9.868   1.617 -0.0058  0.1273  0.0441
 6867W        W10611   9.672   0.996   0.967  0.0734 -0.0989  0.1106
 6868W        W10612   1.288   9.532   2.121 -0.2169  0.2287  0.0307
 6869W        W10613   5.641   0.828   4.346  0.3161 -0.0319 -0.1165
 6870W        W10614   3.596   5.856  11.769 -0.2759  0.1109  0.1997
 6871W        W10615   1.287   3.206   9.451  0.0982 -0.1179  0.2634
 6872W        W10616   2.459   2.118   2.141  0.1812 -0.1522 -0.1307
 6873W        W10617   6.370   0.988   3.162 -0.0119 -0.3040 -0.2449
 6874W        W10618   4.132   0.900  12.602 -0.1323 -0.0321  0.2817
 6875W        W10619   3.993   7.214   9.180  0.0760 -0.1088  0.2930
 6876W        W10620   0.695   2.706  10.092 -0.0563 -0.1626  0.1205
 6877W        W10621   7.471   6.494   1.756  0.0613  0.1213 -0.2180
 6878W        W10622   2.164   2.915   9.769  0.0489 -0.0513 -0.1121
 6879W        W10623   4.128   3.967  10.448  0.0381 -0.0361  0.0536
 6880W        W10624   4.943   9.268  12.772  0.0008 -0.4254 -0.1360
 6881W        W10625   7.462   7.126   0.628  0.2824 -0.2857 -0.1659
 6882W        W10626   8.824   1.774   2.814  0.0238  0.0021 -0.1207
 6883W        W10627   5.916   6.395   3.003  0.0389 -0.2016 -0.1909
 6884W        W10628   3.063   5.571   0.901 -0.1295 -0.1656  0.0489
 6885W        W10629   3.874   3.772   1.235 -0.0712  0.0331 -0.0853
 6886W        W10630   3.698   4.009  10.811  0.1353  0.1663 -0.0081
 6887W        W10631   2.565   9.910  11.583 -0.1963  0.1703 -0.0145
 6888W        W10632   8.248   6.163   9.639 -0.1514  0.4347 -0.4083
 6889W        W10633   7.724   5.899   1.109 -0.1438 -0.3299  0.1251
 6890W        W10634   9.023   3.711  10.350 -0.0791  0.2600  0.1119
 6891W        W10635   6.641   2.963   9.030 -0.1834 -0.1938  0.0516
 6892W        W10636   4.044   5.586  11.132  0.0050  0.1397  0.3621
 6893W        W10637   4.589   6.740   1.371  0.0172  0.2325 -0.0902
 6894W        W10638   5.025   3.900  11.380 -0.2585 -0.1476 -0.2009
 6895W        W10639   3.216   0.585  11.968 -0.0185  0.0812  0.1678
 6896W        W10640   1.332   3.895   4.443  0.0213  0.0445 -0.1693
 6897W        W10641   4.901   1.736  11.707  0.0039  0.1309  0.0469
 6898W        W10642   8.532   4.640   1.289  0.2265 -0.0372 -0.3197
 6899W        W10643   6.127   5.748  11.495 -0.2533  0.0875 -0.2963
 6900W        W10644   5.426   5.147  11.155 -0.0922 -0.2456 -0.2663
 6901W        W10645   5.129   8.843   3.940  0.3507 -0.1001 -0.3435
 6902W        W10646   7.949   4.989  11.876 -0.2180 -0.3632  0.0709
 6903W        W10647   7.577   2.016  10.861 -0.0842 -0.4815  0.2915
 6904W        W10648   1.715   9.615   9.517  0.0452  0.0401 -0.3981
 6905W        W10649   8.091   4.741  10.530 -0.1662 -0.3039 -0.1036
 6906W        W10650   8.245   6.360   4.853 -0.0392 -0.0370 -0.2599
 6907W        W10651   6.819   7.659   9.351  0.1430 -0.0992 -0.0586
 6908W        W10652   5.161   4.692  11.679 -0.0058 -0.0259 -0.0948
 6909W        W10653   4.295   0.237   1.735  0.2221  0.0700  0.0774
 6910W        W10654   9.312   2.273   0.461  0.0732 -0.1962  0.0691
 6911W        W10655   2.041   9.833   0.658  0.1681 -0.0796  0.1946
 6912W        W10656   0.899   1.000   2.999 -0.1228  0.1280 -0.1856
 6913W        W10657   5.115   5.982  11.655  0.1571 -0.1649 -0.1577
 6914W        W10658   8.544   1.845   3.245  0.2588 -0.1075 -0.1540
 6915W        W10659   0.469   4.812   0.362  0.0647 -0.2263 -0.1477
 6916W        W10660   8.066   0.394  10.436 -0.1846 -0.1022  0.2334
 6917W        W10661   6.370   4.821   0.980  0.0257 -0.0259  0.0904
 6918W        W10662   8.981   6.925  11.556 -0.1176  0.0618 -0.0692
 6919W        W10663   4.985   6.444   1.273  0.3876 -0.0485 -0.1478
 6920W        W10664   9.270   1.540   2.863 -0.0638  0.1745  0.1294
 6921W        W10665   6.592   7.654  10.338 -0.2169  0.3671  0.0424
 6922W        W10666   0.318   6.153   0.900  0.0278  0.0134  0.1964
 6923W        W10667   9.204   4.465   0.681 -0.0411  0.1918  0.0136
 6924W        W10668   1.976   5.100   8.701  0.1765 -0.1331  0.1150
 6925W        W10669   9.810   7.168   3.071  0.0344 -0.2093 -0.2876
 6926W        W10670   4.058   8.724  12.237  0.0861 -0.0720 -0.0545
 6927W        W10671   8.077   0.406   2.663 -0.1347  0.1430 -0.0835
 6928W        W10672   2.354   4.478  10.740  0.1588  0.3188  0.2215
 6929W        W10673   9.780   4.395   3.392 -0.4086 -0.0545 -0.1661
 6930W        W10674   5.022   7.549   1.895  0.0311 -0.0500 -0.1370
 6931W        W10675   4.585   8.762   1.993 -0.2238  0.1916  0.0530
 6932W        W10676   6.709   1.957  12.461 -0.2897 -0.1090  0.2551
 6933W        W10677   6.400   9.640   1.050 -0.0538 -0.0046  0.0576
 6934W        W10678   0.748   3.560   1.433  0.1249 -0.0456 -0.1741
 6935W        W10679   5.965   2.451   9.950 -0.3632 -0.1505  0.0978
 6936W        W10680   1.275   2.306   9.083 -0.3937  0.4144  0.1825
 6937W        W10681   5.698   5.517   9.696 -0.3195  0.1618 -0.1571
 6938W        W10682   5.620   4.900  11.687  0.1751  0.2384  0.1192
 6939W        W10683   1.000   2.007   1.086 -0.1275 -0.0021  0.2791
 6940W        W10684   2.347   3.731   9.168 -0.1617  0.2720 -0.0558
 6941W        W10685   0.474   5.296   0.451  0.4408  0.0841 -0.3343
 6942W        W10686   6.205   8.848   8.582 -0.0755  0.0154 -0.0525
 6943W        W10687   4.405   0.396   9.337  0.2186 -0.1614 -0.0911
 6944W        W10688   9.369   0.267  12.631 -0.3358  0.2882 -0.2953
 6945W        W10689   6.337   6.390   4.309 -0.1331  0.2726  0.0359
 6946W        W10690   3.035   2.530  10.729  0.1210  0.1188  0.1376
 6947W        W10691   0.323   9.498   2.953 -0.0939  0.2295 -0.3558
 6948W        W10692   4.936   3.027   9.181 -0.2342  0.1552 -0.2322
 6949W        W10693   7.701   1.169  10.734 -0.1276 -0.0180  0.2830
 6950W        W10694   3.366   0.261   0.118  0.1307 -0.6641 -0.0894
 6951W        W10695   3.564   2.924   1.428  0.0609  0.0901 -0.1547
 6952W        W10696   2.840   7.048   4.275  0.2495 -0.1892 -0.1273
 6953W        W10697   8.644   6.654   2.531  0.2893  0.0161  0.0444
 6954W        W10698   3.322   8.382   1.687  0.2459  0.2789  0.2491
 6955W        W10699   0.692   6.726   1.888  0.0228  0.1919 -0.1585
 6956W        W10700   9.254   0.119   1.722 -0.1184 -0.1433 -0.0807
 6957W        W10701   1.905   6.268   1.708  0.1847 -0.0828 -0.1199
 6958W        W10702   3.939   0.621   9.507  0.0962  0.1745 -0.0769
 6959W        W10703   1.070   2.947  11.987 -0.0638  0.0133  0.0486
 6960W        W10704   2.502   2.815   1.171  0.1606  0.3350 -0.0233
 6961W        W10705   0.137   6.726   1.766  0.3742  0.1809  0.1313
 6962W        W10706   8.707   9.438   2.967  0.2475  0.0581 -0.2069
 6963W        W10707   6.390   5.135  10.018  0.3331 -0.0674  0.0170
 6964W        W10708   4.076   6.998   3.320 -0.2233 -0.0181 -0.1292
 6965W        W10709   5.678   5.056   3.226 -0.1669  0.0564  0.2612
 6966W        W10710   8.583   6.316  10.509 -0.1490 -0.3485  0.1154
 6967W        W10711   0.704   1.150  10.667  0.0238  0.5485  0.1697
 6968W        W10712   9.300   1.952   9.949  0.3307 -0.0529 -0.0027
 6969W        W10713   7.644   9.316   2.816 -0.0883  0.2801  0.7161
 6970W        W10714   7.946   4.737   3.477 -0.0165 -0.1499  0.2140
 6971W        W10715   4.241   9.793   9.884  0.1524 -0.1723  0.0977
 6972W        W10716   2.990   4.644  10.658 -0.1067  0.1434 -0.1911
 6973W        W10717   8.273   2.892   2.151  0.2733  0.0214 -0.1587
 6974W        W10718   4.571   1.293   9.953 -0.1822  0.0422 -0.0039
 6975W        W10719   6.252   3.279  10.929 -0.0177  0.3628  0.4428
 6976W        W10720   7.585   0.461  11.903  0.0409  0.2940  0.0511
 6977W        W10721   3.570   2.464  10.750  0.1276  0.3111 -0.0616
 6978W        W10722   7.978   6.239  10.170 -0.1481  0.1309  0.1084
 6979W        W10723   4.241   1.453   0.886  0.2957  0.0969  0.1704
 6980W        W10724   2.420   1.071  11.393  0.2688  0.0443  0.0653
 6981W        W10725   1.208   2.560   2.379  0.3340 -0.0342 -0.0959
 6982W        W10726   6.774   7.979   9.810 -0.2878 -0.0265 -0.0804
 6983W        W10727   2.807   8.066   9.441  0.0529  0.2225 -0.0210
 6984W        W10728   2.101   5.520  11.237  0.0244  0.2389 -0.1921
 6985W        W10729   6.931   5.321   1.148  0.3901 -0.0967  0.0295
 6986W        W10730   4.912   2.687  10.465 -0.1540 -0.0425 -0.0340
 6987W        W10731   5.006   5.059   1.258  0.1385  0.0534  0.0556
 6988W        W10732   7.949   2.112   1.472  0.3235 -0.3405 -0.0435
 6989W        W10733   8.097   3.391   0.859 -0.0351  0.1961  0.1727
 6990W        W10734   6.089   8.571   4.603  0.2370  0.1827  0.2663
 6991W        W10735   0.941   1.819   3.799  0.1531 -0.2055 -0.1503
 6992W        W10736   2.486   6.965  10.849  0.0675 -0.1805 -0.1023
 6993W        W10737   9.561   4.746   9.355 -0.0096 -0.1588 -0.0419
 6994W        W10738   3.665   4.565   8.171 -0.0143  0.0465 -0.2761
 6995W        W10739   1.552   5.179  11.957 -0.0459  0.0977  0.1448
 6996W        W10740   6.498   2.434  11.277  0.4215  0.0015 -0.2544
 6997W        W10741   6.581   5.711   2.876  0.2372  0.0266 -0.2917
 6998W        W10742   4.245   3.540   1.571 -0.1259  0.2070 -0.0784
 6999W        W10743   4.907   9.479   1.880  0.5389  0.0326  0.0884
 7000W        W10744   9.545   3.269   3.073  0.2142 -0.1384  0.2033
 7001W        W10745   2.634   5.937   2.892  0.0410  0.1131 -0.3370
 7002W        W10746   8.528   1.949  12.092 -0.1171 -0.0742  0.0089
 7003W        W10747   1.161   8.260  12.353  0.3882 -0.0010  0.0982
 7004W        W10748   8.765   4.829   4.815 -0.0270 -0.1826 -0.0202
 7005W        W10749   8.560   0.250   0.556 -0.1747 -0.0786  0.0163
 7006W        W10750   0.793   4.171   9.387 -0.2665  0.0272 -0.0792
 7007W        W10751   7.702   3.593   9.982  0.1375 -0.4338 -0.1548
 7008W        W10752   7.383   4.994   3.608 -0.2294 -0.0222 -0.3959
 7009W        W10753   5.625   5.391   8.852 -0.3468 -0.0098  0.0575
 7010W        W10754   8.869   7.781  11.687  0.2675 -0.0440 -0.0100
 7011W        W10755   0.045   7.948   1.789 -0.0850 -0.1371  0.1827
 7012W        W10756   0.582   0.306   0.365 -0.1407 -0.1457  0.1018
 7013W        W10757   0.949   0.650   0.595  0.1769 -0.0178  0.1952
 7014W        W10758   2.865   4.274   3.892 -0.1204  0.0309  0.0885
 7015W        W10759   1.194   2.812   1.541 -0.3303  0.2373  0.0610
 7016W        W10760   6.030   9.887   2.437 -0.3219  0.0671  0.2114
 7017W        W10761   8.367   2.473   0.647 -0.1358  0.5675  0.1784
 7018W        W10762   3.679   0.224   9.776 -0.1799  0.2685  0.1112
 7019W        W10763   8.488   1.433  11.701 -0.1951  0.0756 -0.0689
 7020W        W10764   9.394   9.737  11.875  0.0855 -0.0601 -0.0696
 7021W        W10765   2.757   4.658   0.511  0.5150 -0.0939 -0.2094
 7022W        W10766   8.762   9.710  12.539 -0.0104 -0.1805 -0.1334
 7023W        W10767   6.184   0.287  11.112  0.3149  0.1640  0.2420
 7024W        W10768   5.085   7.911   8.805 -0.0553  0.0857 -0.2385
 7025W        W10769   5.967   8.684   3.647  0.3234 -0.2923 -0.3495
 7026W        W10770   4.157   2.006   4.072 -0.3146 -0.2084  0.2093
 7027W        W10771   3.117   0.022   3.535 -0.2085 -0.2668 -0.0895
 7028W        W10772   9.128   1.478   1.659 -0.2732  0.0963 -0.4179
 7029W        W10773   8.042   5.966  12.452 -0.2106  0.1796 -0.0611
 7030W        W10774   7.710   9.694  11.167 -0.5338  0.3761  0.0378
 7031W        W10775   6.056   4.663   4.187  0.1577  0.0487  0.1384
 7032W        W10776   9.546   2.022   2.906 -0.1376 -0.3361 -0.0534
 7033W        W10777   8.273   3.366   2.388  0.2185  0.0134  0.0009
 7034W        W10778   6.072   7.322  12.517  0.3217 -0.0255  0.1093
 7035W        W10779   0.431   1.938   9.822 -0.2027  0.1954  0.3619
 7036W        W10780   3.681   8.936  11.817  0.1204  0.1425 -0.1984
 7037W        W10781   2.940   6.676  10.267  0.1780 -0.1058 -0.1001
 7038W        W10782   5.097   9.089  10.152 -0.0436 -0.1693  0.1928
 7039W        W10783   9.137   9.302  12.400  0.1149 -0.1898  0.0141
 7040W        W10784   5.690   6.207   1.935 -0.1381  0.3677  0.0813
 7041W        W10785   3.905   3.595   2.599  0.0231 -0.3892  0.0169
 7042W        W10786   8.374   0.503   0.104 -0.0780  0.0582  0.1569
 7043W        W10787   1.149   1.033   0.909 -0.4294 -0.2051  0.0684
 7044W        W10788   0.595   1.542   9.460 -0.0482 -0.3146  0.0533
 7045W        W10789   6.258   2.888  10.059  0.0052 -0.0051  0.0693
 7046W        W10790   7.822   6.010  10.825  0.2455  0.2304  0.3902
 7047W        W10791   9.712   7.317   0.401 -0.1155  0.2205 -0.4206
 7048W        W10792   4.827   9.674   9.853  0.2477  0.1722 -0.0217
 7049W        W10793   7.456   2.149   3.653  0.0125 -0.2905  0.1579
 7050W        W10794   1.865   0.957   3.721 -0.3205 -0.0239 -0.0751
 7051W        W10795   0.267   8.951   2.039 -0.0870 -0.4900  0.1605
 7052W        W10796   7.939   0.499   0.220 -0.2069 -0.0347  0.3503
 7053W        W10797   4.283   6.468  12.663  0.0983  0.3425 -0.2256
 7054W        W10798   5.422   0.573   0.309 -0.0874 -0.0633  0.2478
 7055W        W10799   2.747   9.949   9.745  0.1932  0.0191 -0.0206
 7056W        W10800   7.469   3.229   9.672 -0.0834  0.0238  0.0070
 7057W        W10801   3.603   4.618  11.380  0.1739 -0.0762  0.0528
 7058W        W10802   3.031   2.002   1.534  0.2820  0.0458 -0.1217
 7059W        W10803   4.047   8.192   3.867  0.0100  0.0616  0.4117
 7060W        W10804   9.858   6.271   4.141  0.0707  0.0454 -0.1234
 7061W        W10805   2.282   8.315   0.766  0.1589  0.1637  0.0612
 7062W        W10806   9.934   7.288  12.021  0.2791 -0.0716 -0.0880
 7063W        W10807   3.844   5.435   1.415 -0.0689 -0.0489  0.1472
 7064W        W10808   4.021   2.041   2.846  0.0511  0.0951 -0.0303
 7065W        W10809   3.094   5.735  11.567 -0.0589  0.3573  0.0884
 7066W        W10810   7.244   7.104  11.289 -0.2755  0.3105  0.0849
 7067W        W10811   6.602   4.621  11.303  0.0734 -0.3911 -0.0547
 7068W        W10812   1.807   7.694   1.083  0.2056  0.0044  0.0515
 7069W        W10813   2.959   7.690   8.954  0.0792 -0.0951 -0.0801
 7070W        W10814   1.465   1.019  11.442 -0.1547  0.1790 -0.0975
 7071W        W10815   8.717   2.734   1.918  0.1400  0.2016 -0.1194
 7072W        W10816   9.210   9.710   2.117  0.2110  0.1100  0.1251
 7073W        W10817   7.754   4.879   0.815  0.1828  0.0658 -0.2727
 7074W        W10818   4.634   3.762   0.552  0.1892 -0.1434 -0.0087
 7075W        W10819   8.830   4.312   2.999  0.1202 -0.1412  0.0078
 7076W        W10820   6.606   5.049  10.855  0.0121  0.1953 -0.1455
 7077W        W10821   2.912   4.952   2.065  0.0970  0.0106 -0.2886
 7078W        W10822   7.544   9.819   2.662  0.2340  0.2568  0.0741
 7079W        W10823   3.660   8.248   2.004  0.2349  0.4859 -0.2379
 7080W        W10824   9.410   6.167   8.837  0.1699 -0.0037 -0.2883
 7081W        W10825   8.010   3.324   2.919 -0.1307  0.3424 -0.0323
 7082W        W10826   8.110   8.633   3.122 -0.3096  0.1489  0.1321
 7083W        W10827   4.076   3.952   8.841  0.2212  0.0217 -0.1746
 7084W        W10828   5.254   3.563   1.405 -0.0006 -0.0725  0.1723
 7085W        W10829   1.342   9.525   9.202  0.1015 -0.0242  0.2717
 7086W        W10830   7.847   7.258  10.495  0.1091  0.1242 -0.1178
 7087W        W10831   6.132   3.534   3.047 -0.1514 -0.2596  0.1929
 7088W        W10832   5.887   4.249   9.325  0.0155  0.0615  0.1820
 7089W        W10833   7.438   1.771   2.291  0.0324  0.0392 -0.1179
 7090W        W10834   0.732   2.694   1.567 -0.1889  0.2190  0.1926
 7091W        W10835   2.957   3.107  10.271 -0.1074  0.1160 -0.1229
 7092W        W10836   3.775   5.087  11.129  0.0307  0.3471  0.0036
 7093W        W10837   7.700   2.667   8.821 -0.1147  0.3844 -0.1711
 7094W        W10838   8.731   9.045  11.852  0.1180 -0.1092  0.0231
 7095W        W10839   0.678   3.303  12.225  0.2303  0.1284  0.0050
 7096W        W10840   1.955   2.172   2.068  0.0549  0.0695  0.0708
 7097W        W10841   9.802   6.483   4.694 -0.4339  0.2493 -0.4367
 7098W        W10842   2.327   1.486   2.114 -0.2781  0.0353  0.0253
 7099W        W10843   8.712   9.931   1.042 -0.0896  0.0505  0.1562
 7100W        W10844   8.585   2.463   0.109  0.2162  0.3390 -0.0516
 7101W        W10845   8.631   8.586   3.423  0.0250 -0.1213  0.3304
 7102W        W10846   2.672   0.706   3.131 -0.1069 -0.2214 -0.0522
 7103W        W10847   0.735   7.324   4.889 -0.0670  0.0350 -0.3096
 7104W        W10848   4.776   7.378   9.820  0.0354  0.2303 -0.0864
 7105W        W10849   8.038   5.736   9.813  0.0093  0.0205  0.2551
 7106W        W10850   7.283   3.145   2.954 -0.0951 -0.1153 -0.0012
 7107W        W10851   4.067   4.031   0.252 -0.0738 -0.2345  0.0596
 7108W        W10852   5.842   6.913  12.351  0.3148  0.4011  0.2698
 7109W        W10853   3.645   6.819   9.605  0.1989  0.0802 -0.2411
 7110W        W10854   0.357   9.139   0.004  0.1205 -0.1417 -0.3984
 7111W        W10855   7.791   6.436  11.148  0.0557  0.1844 -0.3243
 7112W        W10856   5.119   9.098   9.612 -0.0431  0.2526 -0.0605
 7113W        W10857   6.660   9.737   1.908 -0.2679  0.0915  0.1307
 7114W        W10858   9.586   2.480  10.648  0.3968  0.0512 -0.2534
 7115W        W10859   6.686   3.939   9.071 -0.0717  0.0231 -0.4112
 7116W        W10860   2.781   5.915   0.663 -0.0363 -0.0064 -0.2588
 7117W        W10861   0.445   7.839   0.038 -0.0247  0.3339 -0.3036
 7118W        W10862   2.461   2.611  11.512 -0.1563 -0.0769  0.3314
 7119W        W10863   1.502   4.894   0.571 -0.1240 -0.1344  0.0441
 7120W        W10864   4.026   3.102  12.425 -0.3957  0.2090 -0.2031
 7121W        W10865   4.945   7.191   0.597  0.1748 -0.0452  0.1203
 7122W        W10866   5.495   6.058   0.708  0.2248 -0.2173 -0.2313
 7123W        W10867   2.994   6.561   8.392  0.0800 -0.2151 -0.1451
 7124W        W10868   6.746   9.355   0.848  0.2964 -0.1117  0.1253
 7125W        W10869   1.575   1.462  12.294 -0.2410 -0.0867 -0.1805
 7126W        W10870   3.205   0.252  12.319 -0.1200 -0.2330  0.2610
 7127W        W10871   9.509   1.070   1.748  0.0546 -0.1531 -0.0662
 7128W        W10872   5.393   8.526   8.920 -0.0995 -0.1919  0.0801
 7129W        W10873   2.294   4.237   9.503 -0.0190 -0.0536  0.1964
 7130W        W10874   8.278   9.424   0.008  0.2114  0.1124 -0.0607
 7131W        W10875   4.254   8.552   4.228 -0.5396  0.1691 -0.4348
 7132W        W10876   3.982   7.348  10.412  0.0203  0.1082  0.2991
 7133W        W10877   4.471   1.005  12.111 -0.0041  0.1296 -0.0385
 7134W        W10878   7.945   1.035  10.313 -0.0735 -0.0461  0.1692
 7135W        W10879   3.921   5.386   4.028 -0.1835  0.1491  0.1354
 7136W        W10880   8.532   3.391  12.663  0.1271 -0.3881 -0.0057
 7137W        W10881   8.353   0.859   1.983  0.1796 -0.2008 -0.2214
 7138W        W10882   1.395   1.865   9.372  0.4214  0.0316  0.3673
 7139W        W10883   7.732   8.548  11.217 -0.1761 -0.0673  0.3893
 7140W        W10884   7.216   7.366   9.365  0.4490  0.2587  0.0571
 7141W        W10885   6.202   4.115  11.815  0.2606 -0.5793 -0.0522
 7142W        W10886   2.173   0.931  11.814 -0.0492  0.1670 -0.3949
 7143W        W10887   2.213   6.785   9.779  0.1524  0.2283  0.1593
 7144W        W10888   9.839   8.285  11.989  0.3695  0.3758  0.0661
 7145W        W10889   6.408   5.964   9.322 -0.0501 -0.1220  0.1624
 7146W        W10890   0.190   5.341   9.820  0.2738 -0.3119 -0.1844
 7147W        W10891   8.872   8.462  12.656  0.3731  0.0030  0.1729
 7148W        W10892   5.609   8.031   8.921 -0.1371 -0.1260 -0.0682
 7149W        W10893   4.930   7.967  10.620 -0.2807  0.2276  0.1944
 7150W        W10894   9.885   9.769  12.113 -0.1377 -0.1533  0.1010
 7151W        W10895   0.662   6.978   1.249 -0.0792 -0.0047 -0.2389
 7152W        W10896   3.809   1.959   2.358 -0.0391  0.4358  0.0868
 7153W        W10897   9.786   2.847   9.754  0.1494 -0.0405  0.2693
 7154W        W10898   2.391   7.986   0.400  0.3046 -0.0882  0.1976
 7155W        W10899   3.267   9.796   9.714 -0.0484  0.2505  0.2222
 7156W        W10900   5.491   8.895   9.317  0.1006  0.0721 -0.1860
 7157W        W10901   8.206   4.575   2.409 -0.3027 -0.0778  0.0006
 7158W        W10902   0.036   8.981   9.691 -0.1126  0.0468  0.0516
 7159W        W10903   7.960   9.316   0.362 -0.0703 -0.3054  0.3558
 7160W        W10904   8.327   2.221  11.746 -0.0668  0.0231 -0.2007
 7161W        W10905   1.921   5.394   1.623  0.3205 -0.0888  0.1372
 7162W        W10906   9.226   4.942   1.880  0.5182 -0.3117  0.0338
 7163W        W10907   8.082   4.125  11.793 -0.1713 -0.4451 -0.0278
 7164W        W10908   3.072   1.314   9.241  0.1469 -0.3517 -0.1927
 7165W        W10909   8.880   6.713  12.417  0.0278  0.2232  0.0509
 7166W        W10910   5.354   7.317   1.482 -0.2414 -0.0840 -0.0404
 7167W        W10911   9.264   3.773   1.598  0.3665 -0.1619 -0.1177
 7168W        W10912   1.663   6.164   8.685  0.0912  0.0783  0.3475
 7169W        W10913   5.719   6.100   2.684  0.2123  0.1731 -0.1290
 7170W        W10914   4.103   2.761   9.573 -0.0826 -0.2357 -0.1462
 7171W        W10915   8.734   6.964   8.007 -0.1361  0.2908 -0.0175
 7172W        W10916   9.095   6.938   2.474  0.0687  0.0425 -0.0496
 7173W        W10917   4.246   5.778   0.856 -0.3288  0.0576  0.1450
 7174W        W10918   2.254   3.721   3.079  0.0792 -0.0519 -0.1506
 7175W        W10919   6.432   7.429   0.670 -0.3109 -0.2325 -0.0280
 7176W        W10920   0.192   6.407  11.906  0.0948 -0.3802 -0.1056
 7177W        W10921   0.582   6.375   3.406  0.2139 -0.1367 -0.0079
 7178W        W10922   2.107   7.005   9.287 -0.1189 -0.1096  0.0150
 7179W        W10923   0.301   2.313  10.207 -0.1571 -0.0664  0.1295
 7180W        W10924   3.580   1.655  12.007 -0.3938  0.2137 -0.1064
 7181W        W10925   9.197   3.954   0.302  0.0655  0.2627 -0.0129
 7182W        W10926   0.364   4.292  10.948 -0.0620  0.0615 -0.0035
 7183W        W10927   2.207   7.507   4.574  0.2317 -0.0937  0.4007
 7184W        W10928   3.867   5.079   1.793 -0.2982  0.1451  0.0969
 7185W        W10929   2.816   8.488   9.912 -0.3731 -0.1957  0.1257
 7186W        W10930   5.176   9.471   4.045 -0.0366  0.3357 -0.1820
 7187W        W10931   5.204   3.727   3.648  0.1136 -0.3640 -0.3370
 7188W        W10932   6.883   2.436   2.789  0.0986 -0.0366  0.3429
 7189W        W10933   1.585   8.794   3.851 -0.2843 -0.0422 -0.1726
 7190W        W10934   1.209   4.791   9.038 -0.1177 -0.5030 -0.1923
 7191W        W10935   3.211   6.354  12.754 -0.1061  0.0304  0.2033
 7192W        W10936   6.028   7.694   9.004  0.3135 -0.0737  0.1100
 7193W        W10937   8.828   0.279  12.670 -0.0509  0.2124 -0.2429
 7194W        W10938   0.599   8.361   0.860  0.1419 -0.1042  0.1823
 7195W        W10939   7.808   3.590   2.496  0.0687  0.1522 -0.1757
 7196W        W10940   7.558   8.215   2.869  0.0952  0.1552 -0.0310
 7197W        W10941   7.387   1.071   0.557 -0.5580 -0.0102 -0.0280
 7198W        W10942   2.071   9.044   1.118  0.0977  0.1103  0.2079
 7199W        W10943   9.578   5.259  10.279 -0.3162 -0.0714 -0.1570
 7200W        W10944   4.351   3.610   1.007  0.0296  0.1153  0.2632
 7201W        W10945   3.626   9.762   1.359 -0.0475 -0.0317  0.0929
 7202W        W10946   0.953   5.135   3.148  0.3413  0.1763  0.0130
 7203W        W10947   2.731   7.453   4.503 -0.0239 -0.2880  0.1771
 7204W        W10948   2.555   7.992  11.499  0.0842 -0.0322 -0.1533
 7205W        W10949   3.363   9.117   0.373 -0.1298 -0.0262 -0.0543
 7206W        W10950   8.192   5.567  11.605 -0.0277 -0.1162 -0.0714
 7207W        W10951   6.698   7.148   9.433  0.1335  0.1239  0.2216
 7208W        W10952   4.970   2.179   2.855 -0.1907 -0.0421  0.2631
 7209W        W10953   3.751   0.258   0.946  0.1420 -0.3949 -0.1325
 7210W        W10954   2.793   1.725   2.145 -0.2580  0.0475  0.1763
 7211W        W10955   7.382   7.131  12.450 -0.0572 -0.2710  0.0618
 7212W        W10956   8.404   5.387   0.729 -0.1612  0.0192 -0.1078
 7213W        W10957   3.968   9.589   8.417 -0.0109 -0.2723 -0.1956
 7214W        W10958   4.464   9.021  12.136  0.0902 -0.1287  0.2385
 7215W        W10959   2.657   6.261   8.931 -0.0094  0.3499 -0.2145
 7216W        W10960   3.833   6.785   0.142 -0.3399  0.2697 -0.0031
 7217W        W10961   2.853   4.447   8.766  0.0641  0.0871  0.0984
 7218W        W10962   7.049   5.025  11.748 -0.4017  0.1674 -0.3047
 7219W        W10963   4.835   7.503  10.379 -0.1627 -0.3047  0.0358
 7220W        W10964   6.725   5.349   1.977  0.0636  0.1873  0.0250
 7221W        W10965   0.185   3.384   2.036 -0.0490  0.3117  0.0425
 7222W        W10966   8.163   5.009   0.552 -0.1430  0.2354 -0.3004
 7223W        W10967   8.234   7.117  10.016 -0.1433  0.2590 -0.1965
 7224W        W10968   2.909   5.676  10.660 -0.2701  0.0223 -0.0626
 7225W        W10969   6.247   2.497   9.520 -0.2165 -0.1189  0.2049
 7226W        W10970   2.549   5.190   4.074 -0.3166  0.1600  0.1287
 7227W        W10971   9.483   0.172  10.239  0.0383  0.0295  0.3057
 7228W        W10972   0.117   2.093   2.728 -0.0255  0.0303  0.5299
 7229W        W10973   1.184   6.896   4.159 -0.2181 -0.3100  0.1291
 7230ION    NA+10974   1.817   3.754  10.168  0.0728  0.0367  0.0483
 7231ION    NA+10975   3.277   3.755   1.709 -0.1972 -0.2296 -0.0636
 7232ION    NA+10976   4.369   4.544   0.218 -0.1867 -0.1377  0.0754
 7233ION    NA+10977   5.621   4.953   8.111 -0.1905 -0.0384 -0.0737
 7234ION    NA+10978   0.868   2.624  12.756  0.4395 -0.1841 -0.0375
 7235ION    NA+10979   0.813   4.110   1.078 -0.0180  0.2106  0.1052
 7236ION    NA+10980   3.303   7.405   3.627 -0.1082  0.0617 -0.0176
 7237ION    NA+10981   9.491   9.526  10.863 -0.0253  0.0832 -0.2326
 7238ION    NA+10982   1.745   1.441  10.476 -0.2521 -0.0697 -0.2374
 7239ION    NA+10983   1.984   6.264   0.415  0.2231  0.0911 -0.1680
 7240ION    NA+10984   4.183   5.068  10.852 -0.2851  0.0910  0.2686
 7241ION    NA+10985   5.557   3.072   4.170  0.3092 -0.1714  0.0698
 7242ION    NA+10986   6.263   3.429  12.713  0.0105 -0.0281 -0.1659
 7243ION    NA+10987   1.361   7.307   3.978  0.0793  0.0664  0.2168
 7244ION    NA+10988   4.256   6.512   3.420 -0.0410 -0.1592  0.1142
 7245ION    NA+10989   4.023   6.600   9.919  0.4013 -0.0060 -0.3327
 7246ION    NA+10990   1.229   4.198  10.307 -0.0642 -0.0255  0.2453
 7247ION    NA+10991   0.321   7.644   5.008  0.0282 -0.2042  0.0980
 7248ION    NA+10992   6.866   2.928   2.651 -0.1862 -0.0594  0.0798
 7249ION    NA+10993   5.803   2.757   8.260  0.3817 -0.4542  0.2567
 7250ION    NA+10994   4.408   6.827   2.282  0.0398 -0.0935 -0.0398
 7251ION    NA+10995   9.394   6.968   4.629  0.0395 -0.0615 -0.0817
 7252ION    NA+10996   3.704   6.122  10.907  0.0449 -0.1189 -0.0475
 7253ION    NA+10997   0.895   2.473   4.040 -0.0057  0.1728  0.0108
 7254ION    NA+10998   1.202   8.881   4.830 -0.0355  0.3417  0.1447
 7255ION    NA+10999   5.293   7.079   2.841 -0.2547  0.0047 -0.0840
 7256ION    NA+11000   3.786   3.319   3.538  0.0994 -0.2272 -0.1944
 7257ION    NA+11001   5.892   9.120   1.860 -0.2075 -0.2388 -0.1224
 7258ION    NA+11002   7.628   7.648   0.151 -0.1208  0.0045 -0.3009
 7259ION    NA+11003   5.980   7.603   2.081 -0.0547  0.1780 -0.0890
 7260ION    NA+11004   0.280   4.359   1.835  0.2460  0.1752  0.0235
 7261ION    NA+11005   1.832   3.975   3.946  0.0702  0.0750 -0.0528
 7262ION    NA+11006   1.958   6.532   8.553  0.0783  0.1081  0.3536
 7263ION    NA+11007   6.833   8.198   0.480 -0.2665  0.1840 -0.0946
 7264ION    NA+11008   6.891   8.184   4.630 -0.0118  0.2640  0.1000
 7265ION    NA+11009   2.040   2.433   8.815 -0.1551 -0.0571 -0.1322
 7266ION    NA+11010   2.439   1.116   9.984 -0.0274  0.0493  0.0329
 7267ION    NA+11011   7.560   6.843   9.242 -0.0803 -0.0609  0.1415
 7268ION    NA+11012   8.640   3.007   3.468  0.0542  0.1194  0.1704
 7269ION    NA+11013   3.472   5.052  12.731 -0.0448  0.0388  0.0678
 7270ION    NA+11014   2.343   2.440  12.778  0.1450 -0.1137  0.4018
 7271ION    NA+11015   9.196   6.566   2.795 -0.0890 -0.1046  0.1573
 7272ION    NA+11016   6.494   3.517   8.748 -0.3406  0.2345 -0.2223
 7273ION    NA+11017   4.624   5.431  10.051  0.2895 -0.1278  0.2720
 7274ION    NA+11018   8.070   3.100   9.214  0.0420  0.1315  0.0456
 7275ION    NA+11019   7.533   5.734   4.728 -0.2538  0.0121  0.2147
 7276ION    NA+11020   3.405   4.990  10.833  0.1638 -0.1851  0.4091
 7277ION    NA+11021   0.529   8.195   4.636  0.0743 -0.1427  0.2261
 7278ION    NA+11022   1.250   4.668   8.111  0.2549 -0.3205 -0.0574
 7279ION    NA+11023   6.991   5.857  11.626 -0.1379  0.0354  0.1275
 7280ION    NA+11024   3.628   2.796  12.404  0.1943  0.1363 -0.0565
 7281ION    NA+11025   3.594   4.065   8.261  0.1681  0.0375 -0.3416
 7282ION    NA+11026   7.229   3.242   1.824  0.1038 -0.0410  0.1394
 7283ION    NA+11027   2.913   0.417   9.442 -0.1668 -0.1369 -0.0210
 7284ION    NA+11028   4.547   0.652   8.466  0.2027  0.3204 -0.4202
 7285ION    NA+11029   3.159   0.951   1.255  0.0317  0.1968  0.2153
 7286ION    NA+11030   4.659   2.717   4.517 -0.1207  0.1328 -0.1332
 7287ION    NA+11031   1.206   7.973   3.273  0.1923 -0.1786  0.3278
 7288ION    NA+11032   7.609   6.607   0.876 -0.1675 -0.1994  0.2364
 7289ION    NA+11033   1.137   9.214   1.539  0.1083 -0.1028  0.1607
 7290ION    NA+11034   2.166   5.841   1.406 -0.0776 -0.0737  0.0956
 7291ION    NA+11035   7.665   0.862  12.200  0.0574 -0.1030 -0.1393
 7292ION    NA+11036   5.309   6.785   1.379 -0.0079 -0.3028 -0.0129
 7293ION    NA+11037   1.984   5.308  10.734  0.0914  0.2517  0.2703
 7294ION    NA+11038   6.939   4.785   0.019  0.2027  0.2262 -0.2614
 7295ION    NA+11039   6.979   7.859   8.416 -0.1529 -0.2028 -0.2348
 7296ION    NA+11040   0.521   9.022  11.397  0.0470 -0.1011  0.5966
 7297ION    NA+11041   8.072   7.390   2.409  0.2507 -0.0849  0.1769
 7298ION    NA+11042   0.305   6.597  12.681 -0.0213 -0.0215 -0.0794
 7299ION    NA+11043   2.131   4.377   4.433 -0.1161  0.0271 -0.0912
 7300ION    NA+11044   3.798   7.892   4.281  0.3476  0.1422 -0.0251
 7301ION    NA+11045   6.914   8.791   2.245  0.1734 -0.0950 -0.0900
 7302ION    NA+11046   7.442   6.999   3.361 -0.1115 -0.1509 -0.1054
 7303ION    NA+11047   9.332   9.372   0.070 -0.3997 -0.3264 -0.1422
 7304ION    NA+11048   3.864   3.701   4.542  0.1724  0.0292 -0.0179
 7305ION    NA+11049   4.727   8.158   9.192 -0.0905 -0.1854 -0.1534
 7306ION    CL-11050   0.586   4.072   1.514  0.0633 -0.1420  0.1179
 7307ION    CL-11051   2.408   4.980  10.637  0.0874 -0.3209  0.2287
 7308ION    CL-11052   4.581   9.777   0.404  0.3354 -0.2305  0.0879
 7309ION    CL-11053   5.519   7.761   2.126  0.0703  0.1466 -0.3666
 7310ION    CL-11054   7.958   7.292   0.482 -0.1045  0.1504  0.0375
 7311ION    CL-11055   2.594   1.981   4.145  0.0147  0.1105 -0.0746
 7312ION    CL-11056   9.220   9.838   0.229  0.1378  0.0574 -0.2222
 7313ION    CL-11057   1.563   4.104   9.929  0.0199  0.2746 -0.4259
 7314ION    CL-11058   3.152   0.829   9.618 -0.2190  0.2517  0.2162
 7315ION    CL-11059   2.026   2.819  12.511  0.0289 -0.2609  0.0074
 7316ION    CL-11060   6.368   2.095   9.931 -0.1103 -0.0649 -0.0988
 7317ION    CL-11061   2.100   6.145   3.776  0.0083  0.0363 -0.0696
 7318ION    CL-11062   5.467   9.480   1.856  0.1508 -0.1388  0.1782
 7319ION    CL-11063   7.300   6.667   4.191  0.1451  0.2090  0.0160
 7320ION    CL-11064   9.723   6.888   8.907  0.0177 -0.1544 -0.0060
 7321ION    CL-11065   5.866   7.666  11.754 -0.1541 -0.0191 -0.3323
 7322ION    CL-11066   9.499   9.110  10.560  0.1680  0.0614  0.0495
 7323ION    CL-11067   4.586   6.712   3.060 -0.3068  0.0084  0.1185
 7324ION    CL-11068   9.501   3.380   9.065  0.1768 -0.2262  0.2300
 7325ION    CL-11069   6.022   3.746   0.902  0.2181  0.2343 -0.3095
 7326ION    CL-11070   4.409   8.347   9.513  0.1590 -0.1851  0.3466
 7327ION    CL-11071   4.655   4.744   0.561  0.0484  0.1932 -0.0574
 7328ION    CL-11072   4.275   3.504   3.525  0.2772 -0.0126 -0.1151
 7329ION    CL-11073   4.431   2.246   4.425 -0.2542 -0.3351  0.3503
 7330ION    CL-11074   3.493   6.145  11.339 -0.0043  0.1281 -0.1826
 7331ION    CL-11075   3.770   5.331  10.685 -0.1832 -0.1938  0.0616
 7332ION    CL-11076   5.585   9.886   0.835  0.0965 -0.0031  0.3145
 7333ION    CL-11077   7.271   1.229  12.335  0.0897 -0.0491  0.1566
 7334ION    CL-11078   1.962   9.453   3.580 -0.0788  0.0290 -0.0709
 7335ION    CL-11079   7.185   5.436  11.400  0.0137  0.0401 -0.3467
 7336ION    CL-11080   2.232   1.217  10.447  0.1401  0.0563 -0.0804
 7337ION    CL-11081   3.623   8.442  12.417 -0.2443  0.2830  0.0414
 7338ION    CL-11082   1.233   7.531   3.571  0.0490 -0.2061  0.2658
 7339ION    CL-11083   0.910   2.006  11.130  0.0242 -0.0017 -0.0249
 7340ION    CL-11084   8.662   1.781   0.373  0.4129 -0.3196  0.0246
 7341ION    CL-11085   4.902   9.392   8.746  0.2437 -0.2495  0.0276
 7342ION    CL-11086   6.285   8.549   2.652 -0.0441  0.1207 -0.1889
 7343ION    CL-11087   7.687   0.514   2.980 -0.1086 -0.2920  0.1216
 7344ION    CL-11088   4.441   4.442  11.266 -0.3308  0.0175  0.1019
 7345ION    CL-11089   1.705   5.879   1.508 -0.0932 -0.2385 -0.0165
 7346ION    CL-11090   1.139   9.182   1.022  0.0437  0.0985  0.0718
 7347ION    CL-11091   0.905   9.240  11.115  0.3657  0.1612  0.1808
 7348ION    CL-11092   3.117   0.992   1.748 -0.1409  0.0073 -0.0865
 7349ION    CL-11093   1.285   0.979   3.460 -0.1406 -0.0905 -0.0944
 7350ION    CL-11094   2.659   6.921   2.698 -0.3955 -0.3599  0.0790
 7351ION    CL-11095   6.406   2.976   1.441  0.2070 -0.1373 -0.0814
 7352ION    CL-11096   7.322   6.365   2.743  0.0272  0.1118 -0.1488
 7353ION    CL-11097   0.869   1.272   9.800 -0.0420 -0.1649  0.1662
 7354ION    CL-11098   4.497   7.284   2.482 -0.2317  0.2768  0.1035
 7355ION    CL-11099   6.732   6.072   9.812 -0.0260 -0.1841  0.1213
 7356ION    CL-11100   3.727   4.907   0.368 -0.2226  0.1354 -0.1947
 7357ION    CL-11101   7.948   0.810  12.608  0.3242  0.1156 -0.1898
 7358ION    CL-11102   9.774   5.179   8.922 -0.0651 -0.2524 -0.1656
 7359ION    CL-11103   1.698   9.743   1.950 -0.1705 -0.1392 -0.1109
 7360ION    CL-11104   5.126   3.262   3.824  0.0995  0.2637  0.0224
 7361ION    CL-11105   5.719   6.797   2.704 -0.1086 -0.0726  0.1203
 7362ION    CL-11106   0.607   8.461   1.942  0.0179 -0.1270  0.1791
 7363ION    CL-11107   2.146   0.863   9.419  0.0344 -0.0598  0.1706
 7364ION    CL-11108   6.780   4.905   3.331  0.1959  0.4140  0.2886
 7365ION    CL-11109   2.201   9.103   1.579 -0.1543  0.1433  0.1104
 7366ION    CL-11110   2.715   1.633   0.754 -0.1086  0.0449  0.1234
 7367ION    CL-11111   0.743   4.298   2.024  0.1541 -0.0052  0.0222
 7368ION    CL-11112   4.680   5.131  10.535 -0.1333  0.0260  0.3139
 7369ION    CL-11113   7.350   2.619   2.781  0.1337 -0.1745 -0.0302
 7370ION    CL-11114   6.526   7.964   0.839  0.3137  0.4237  0.0011
 7371ION    CL-11115   2.529   2.318   8.605  0.4357  0.0410  0.1502
 7372ION    CL-11116   5.140   0.452   3.295  0.0507  0.0899 -0.1141
 7373ION    CL-11117   8.912   9.035   0.055  0.1472 -0.1597  0.3187
 7374ION    CL-11118   7.317   9.018   3.086 -0.0516  0.1626  0.6589
 7375ION    CL-11119   5.773   2.643   9.251 -0.0104 -0.1320 -0.1129
 7376ION    CL-11120   1.666   6.054   0.868  0.0408  0.0407  0.3134
 7377ION    CL-11121   2.009   2.996   3.855  0.2062  0.0602  0.0092
 7378ION    CL-11122   7.150   1.665   9.518  0.1843  0.0459 -0.0660
 7379ION    CL-11123   3.435   2.702   0.056  0.2166 -0.0362 -0.2851
 7380ION    CL-11124   1.059   3.052  12.503 -0.0240  0.2438  0.1556
 7381ION    CL-11125   5.166   6.511   1.780 -0.0707  0.1258 -0.2125
   9.95530   9.95530  12.78843
