Protein in INSANE! Membrane UpperLeaflet>POPC=1.0 LowerLeaflet>POPC=1.0
11530
    1AU     AUC    1   5.260   5.280   6.001
    1AU     AUC    2   5.561   5.322   5.834
    1AU     AUC    3   5.536   5.302   6.171
    1AU     AUC    4   4.973   5.260   5.835
    1AU     AUC    5   4.969   5.262   6.185
    1AU     AUC    6   5.068   5.526   6.016
    1AU     AUC    7   5.409   5.559   6.004
    1AU     AUC    8   5.106   4.995   6.006
    1AU     AUC    9   5.465   5.043   5.993
    1AU     AUC   10   5.295   5.113   6.272
    1AU     AUC   11   5.238   5.441   6.280
    1AU     AUC   12   5.282   5.120   5.724
    1AU     AUC   13   5.276   5.458   5.731
    1AU     AUC   14   5.869   5.353   5.681
    1AU     AUC   15   5.905   5.346   6.003
    1AU     AUC   16   5.839   5.310   6.368
    1AU     AUC   17   4.674   5.232   5.660
    1AU     AUC   18   4.634   5.283   6.027
    1AU     AUC   19   4.687   5.250   6.360
    1AU     AUC   20   4.895   5.825   5.996
    1AU     AUC   21   5.238   5.890   5.990
    1AU     AUC   22   5.552   5.876   6.014
    1AU     AUC   23   4.936   4.675   6.011
    1AU     AUC   24   5.283   4.716   6.002
    1AU     AUC   25   5.674   4.767   5.967
    1AU     AUC   26   5.312   4.890   6.558
    1AU     AUC   27   5.255   5.215   6.598
    1AU     AUC   28   5.245   5.595   6.566
    1AU     AUC   29   5.284   4.927   5.439
    1AU     AUC   30   5.277   5.272   5.419
    1AU     AUC   31   5.292   5.630   5.433
    1AU     AUC   32   5.592   5.064   6.468
    1AU     AUC   33   5.557   5.430   6.511
    1AU     AUC   34   5.574   5.140   5.518
    1AU     AUC   35   5.594   5.501   5.510
    1AU     AUC   36   4.968   5.053   6.484
    1AU     AUC   37   4.958   5.415   6.492
    1AU     AUC   38   4.941   5.058   5.554
    1AU     AUC   39   4.946   5.433   5.523
    1AU     AUC   40   5.761   5.620   5.858
    1AU     AUC   41   5.703   5.590   6.214
    1AU     AUC   42   4.780   5.545   5.801
    1AU     AUC   43   4.757   5.566   6.192
    1AU     AUC   44   5.781   5.042   5.808
    1AU     AUC   45   5.790   5.017   6.137
    1AU     AUC   46   4.747   4.970   5.857
    1AU     AUC   47   4.780   4.975   6.188
    1AU     AUC   48   5.055   5.757   6.289
    1AU     AUC   49   5.392   5.762   6.307
    1AU     AUC   50   5.085   4.769   6.277
    1AU     AUC   51   5.498   4.793   6.298
    1AU     AUC   52   5.068   5.717   5.672
    1AU     AUC   53   5.460   5.763   5.678
    1AU     AUC   54   5.076   4.789   5.730
    1AU     AUC   55   5.464   4.826   5.675
    1AU    AUSL   56   5.842   5.211   6.727
    1AU    AUSL   57   5.706   4.738   6.592
    1AU     AUL   58   5.955   4.841   6.802
    1AU       S   59   6.128   4.472   6.591
    1AU     LIG   60   6.014   4.189   6.889
    1AU     LIG   61   6.085   3.762   7.049
    1AU       S   62   6.097   5.269   6.906
    1AU     LIG   63   6.045   5.390   7.332
    1AU     LIG   64   6.084   5.092   7.687
    1AU    AUSL   65   5.452   5.018   6.806
    1AU    AUSL   66   5.109   5.349   6.877
    1AU     AUL   67   5.308   5.195   7.132
    1AU       S   68   5.743   5.030   7.156
    1AU     LIG   69   5.575   5.103   7.565
    1AU     LIG   70   5.667   5.024   8.013
    1AU       S   71   4.567   5.135   7.197
    1AU     LIG   72   4.733   5.437   7.518
    1AU     LIG   73   4.667   5.452   7.982
    1AU    AUSL   74   5.457   5.436   6.672
    1AU    AUSL   75   5.862   5.631   6.643
    1AU     AUL   76   5.679   5.459   6.963
    1AU       S   77   5.284   5.693   7.117
    1AU     LIG   78   5.580   5.603   7.430
    1AU     LIG   79   5.812   5.508   7.810
    1AU       S   80   5.982   5.796   6.851
    1AU     LIG   81   6.389   5.750   6.914
    1AU     LIG   82   6.803   5.958   6.958
    1AU    AUSL   83   5.828   5.391   5.268
    1AU    AUSL   84   5.707   5.825   5.334
    1AU     AUL   85   5.845   5.680   5.002
    1AU       S   86   5.734   5.264   4.826
    1AU     LIG   87   6.097   5.393   4.577
    1AU     LIG   88   6.232   5.192   4.163
    1AU       S   89   6.068   5.944   5.302
    1AU     LIG   90   5.882   6.203   5.029
    1AU     LIG   91   6.065   6.589   4.841
    1AU    AUSL   92   5.485   5.139   5.233
    1AU    AUSL   93   5.814   5.068   5.554
    1AU     AUL   94   5.920   5.083   5.198
    1AU       S   95   5.902   4.303   5.191
    1AU     LIG   96   6.305   4.160   5.008
    1AU     LIG   97   6.514   4.164   4.562
    1AU       S   98   5.564   4.951   4.910
    1AU     LIG   99   5.425   4.767   4.507
    1AU     LIG  100   5.689   4.781   4.117
    1AU    AUSL  101   5.416   5.565   5.159
    1AU    AUSL  102   5.106   4.995   5.132
    1AU     AUL  103   5.274   5.303   4.927
    1AU       S  104   4.899   5.023   4.819
    1AU     LIG  105   4.942   4.949   4.373
    1AU     LIG  106   4.574   4.977   4.084
    1AU       S  107   5.802   4.996   4.722
    1AU     LIG  108   5.672   5.251   4.329
    1AU     LIG  109   5.883   5.554   4.023
    1AU    AUSL  110   4.744   5.223   6.687
    1AU    AUSL  111   4.981   5.682   6.654
    1AU     AUL  112   4.837   5.534   6.957
    1AU       S  113   4.507   5.211   6.895
    1AU     LIG  114   4.363   5.585   7.179
    1AU     LIG  115   4.241   5.542   7.648
    1AU       S  116   4.587   5.901   6.782
    1AU     LIG  117   4.459   6.109   7.151
    1AU     LIG  118   4.265   6.405   7.475
    1AU    AUSL  119   5.036   4.922   6.847
    1AU    AUSL  120   4.646   4.827   6.551
    1AU     AUL  121   4.715   4.802   6.845
    1AU       S  122   4.493   4.426   6.662
    1AU     LIG  123   4.057   4.564   6.763
    1AU     LIG  124   3.757   4.383   7.102
    1AU       S  125   4.831   5.097   7.164
    1AU     LIG  126   5.032   5.018   7.541
    1AU     LIG  127   4.806   4.949   7.933
    1AU    AUSL  128   4.728   5.151   5.273
    1AU    AUSL  129   4.990   4.843   5.514
    1AU     AUL  130   4.842   4.763   5.194
    1AU       S  131   4.535   5.079   5.012
    1AU     LIG  132   4.188   5.211   4.720
    1AU     LIG  133   4.139   5.257   4.242
    1AU       S  134   4.394   4.586   5.189
    1AU     LIG  135   4.547   4.164   5.067
    1AU     LIG  136   4.363   3.786   4.848
    1AU    AUSL  137   5.078   5.398   5.334
    1AU    AUSL  138   4.631   5.537   5.414
    1AU     AUL  139   4.823   5.438   5.057
    1AU       S  140   4.447   5.677   5.212
    1AU     LIG  141   4.145   6.016   5.096
    1AU     LIG  142   4.051   6.255   4.690
    1AU       S  143   4.614   4.928   4.773
    1AU     LIG  144   4.631   5.330   4.507
    1AU     LIG  145   4.570   5.493   4.062
    1AU    AUSL  146   5.935   5.905   6.055
    1AU    AUSL  147   5.940   5.609   5.618
    1AU     AUL  148   6.096   5.997   5.765
    1AU       S  149   6.191   5.654   5.441
    1AU     LIG  150   6.327   5.577   5.021
    1AU     LIG  151   6.321   6.008   4.836
    1AU       S  152   6.460   5.879   6.412
    1AU     LIG  153   6.588   6.237   6.113
    1AU     LIG  154   6.888   6.292   5.769
    1AU    AUSL  155   6.208   5.572   5.934
    1AU    AUSL  156   6.220   5.186   6.177
    1AU     AUL  157   6.526   5.379   6.046
    1AU       S  158   6.373   5.790   6.164
    1AU     LIG  159   6.638   5.824   5.806
    1AU     LIG  160   7.061   5.689   5.675
    1AU       S  161   6.480   4.907   6.032
    1AU     LIG  162   6.732   4.839   6.396
    1AU     LIG  163   7.123   4.540   6.432
    1AU    AUSL  164   5.949   5.503   6.258
    1AU    AUSL  165   5.621   5.806   6.319
    1AU     AUL  166   5.972   5.908   6.399
    1AU       S  167   5.950   6.095   6.863
    1AU     LIG  168   6.355   6.246   6.739
    1AU     LIG  169   6.697   6.459   6.973
    1AU       S  170   6.304   5.578   6.433
    1AU     LIG  171   6.827   5.549   6.426
    1AU     LIG  172   7.326   5.663   6.411
    1AU    AUSL  173   4.600   5.775   6.025
    1AU    AUSL  174   4.613   5.557   6.452
    1AU     AUL  175   4.335   5.896   6.295
    1AU       S  176   4.468   5.642   6.662
    1AU     LIG  177   4.094   5.878   6.846
    1AU     LIG  178   3.962   6.008   7.279
    1AU       S  179   4.554   6.181   5.990
    1AU     LIG  180   4.134   6.119   5.848
    1AU     LIG  181   3.824   6.377   5.628
    1AU    AUSL  182   4.530   5.407   5.792
    1AU    AUSL  183   4.682   5.911   5.635
    1AU     AUL  184   4.382   5.730   5.689
    1AU       S  185   4.238   5.280   5.444
    1AU     LIG  186   3.932   5.687   5.486
    1AU     LIG  187   3.531   5.971   5.444
    1AU       S  188   4.510   6.111   5.437
    1AU     LIG  189   4.341   6.470   5.275
    1AU     LIG  190   3.940   6.563   5.100
    1AU    AUSL  191   4.317   5.466   6.164
    1AU    AUSL  192   4.311   5.070   5.913
    1AU     AUL  193   4.130   5.383   5.881
    1AU       S  194   4.056   5.013   6.173
    1AU     LIG  195   3.805   4.961   5.801
    1AU     LIG  196   3.482   4.653   5.617
    1AU       S  197   4.079   5.507   6.353
    1AU     LIG  198   3.819   5.872   6.416
    1AU     LIG  199   3.388   6.066   6.380
    1AU    AUSL  200   5.989   4.895   5.954
    1AU    AUSL  201   5.855   5.046   6.343
    1AU     AUL  202   6.177   4.922   6.384
    1AU       S  203   6.285   4.752   5.962
    1AU     LIG  204   6.333   4.393   5.806
    1AU     LIG  205   6.719   4.143   5.680
    1AU       S  206   6.376   4.467   6.389
    1AU     LIG  207   6.536   4.349   6.826
    1AU     LIG  208   6.409   4.158   7.239
    1AU    AUSL  209   6.173   5.207   5.718
    1AU    AUSL  210   5.893   4.623   5.650
    1AU     AUL  211   6.126   4.873   5.551
    1AU       S  212   6.488   4.995   5.791
    1AU     LIG  213   6.724   4.676   5.602
    1AU     LIG  214   7.160   4.511   5.723
    1AU       S  215   6.028   4.446   5.397
    1AU     LIG  216   6.066   4.025   5.567
    1AU     LIG  217   6.094   3.687   5.247
    1AU    AUSL  218   4.672   4.842   6.017
    1AU    AUSL  219   4.566   4.946   5.597
    1AU     AUL  220   4.311   4.742   5.846
    1AU       S  221   4.408   4.793   5.397
    1AU     LIG  222   3.975   4.630   5.453
    1AU     LIG  223   3.725   4.342   5.164
    1AU       S  224   3.971   4.805   6.265
    1AU     LIG  225   3.885   4.469   5.953
    1AU     LIG  226   3.714   4.195   5.641
    1AU    AUSL  227   4.500   5.120   6.302
    1AU    AUSL  228   4.749   4.519   6.262
    1AU     AUL  229   4.435   4.705   6.291
    1AU       S  230   4.608   4.268   6.329
    1AU     LIG  231   4.140   4.278   6.347
    1AU     LIG  232   3.984   4.043   6.739
    1AU       S  233   4.161   5.045   6.425
    1AU     LIG  234   3.718   5.009   6.627
    1AU     LIG  235   3.290   4.885   6.461
    1AU    AUSL  236   5.220   5.971   6.445
    1AU    AUSL  237   4.791   5.942   6.366
    1AU     AUL  238   5.033   6.024   6.729
    1AU       S  239   4.664   6.162   6.491
    1AU     LIG  240   4.244   6.305   6.596
    1AU     LIG  241   4.082   6.438   7.001
    1AU       S  242   5.191   6.405   6.473
    1AU     LIG  243   5.380   6.788   6.706
    1AU     LIG  244   5.384   7.258   6.798
    1AU    AUSL  245   5.031   6.167   6.102
    1AU    AUSL  246   5.371   6.209   5.765
    1AU     AUL  247   5.053   6.428   5.867
    1AU       S  248   5.273   6.648   6.242
    1AU     LIG  249   5.203   7.099   6.315
    1AU     LIG  250   4.874   7.183   6.618
    1AU       S  251   5.329   6.438   5.484
    1AU     LIG  252   5.559   6.803   5.647
    1AU     LIG  253   5.828   7.213   5.544
    1AU    AUSL  254   5.491   6.167   6.165
    1AU    AUSL  255   5.490   5.844   6.739
    1AU     AUL  256   5.571   6.129   6.536
    1AU       S  257   5.690   5.947   6.973
    1AU     LIG  258   6.000   5.911   7.330
    1AU     LIG  259   6.390   6.149   7.259
    1AU       S  260   5.438   6.426   6.195
    1AU     LIG  261   5.770   6.637   6.378
    1AU     LIG  262   5.741   7.100   6.451
    1AU    AUSL  263   5.337   4.536   6.615
    1AU    AUSL  264   5.886   4.581   6.216
    1AU     AUL  265   5.671   4.366   6.513
    1AU       S  266   5.064   3.977   6.588
    1AU     LIG  267   4.979   3.585   6.780
    1AU     LIG  268   5.159   3.185   6.895
    1AU       S  269   6.105   4.412   6.284
    1AU     LIG  270   6.290   3.984   6.509
    1AU     LIG  271   6.559   3.825   6.873
    1AU    AUSL  272   5.143   4.383   6.253
    1AU    AUSL  273   5.062   4.795   6.449
    1AU     AUL  274   4.976   4.458   6.598
    1AU       S  275   5.073   4.078   6.328
    1AU     LIG  276   4.936   3.612   6.267
    1AU     LIG  277   4.760   3.214   6.479
    1AU       S  278   4.573   4.153   6.597
    1AU     LIG  279   4.427   3.953   6.988
    1AU     LIG  280   4.121   4.051   7.334
    1AU    AUSL  281   5.479   4.631   6.187
    1AU    AUSL  282   5.118   4.476   5.844
    1AU     AUL  283   5.434   4.278   6.054
    1AU       S  284   5.010   4.143   5.854
    1AU     LIG  285   4.750   3.787   5.832
    1AU     LIG  286   4.865   3.455   5.530
    1AU       S  287   5.318   3.937   6.415
    1AU     LIG  288   5.402   3.486   6.467
    1AU     LIG  289   5.660   3.327   6.812
    1AU    AUSL  290   5.320   5.941   5.439
    1AU    AUSL  291   5.631   5.873   5.769
    1AU     AUL  292   5.683   6.144   5.537
    1AU       S  293   5.349   6.185   5.208
    1AU     LIG  294   5.641   6.622   5.158
    1AU     LIG  295   5.471   7.059   5.205
    1AU       S  296   6.366   5.929   5.367
    1AU     LIG  297   6.307   6.394   5.277
    1AU     LIG  298   6.553   6.697   5.018
    1AU    AUSL  299   5.066   5.896   5.790
    1AU    AUSL  300   4.953   5.802   5.308
    1AU     AUL  301   4.968   6.125   5.500
    1AU       S  302   5.168   6.468   5.220
    1AU     LIG  303   5.046   6.850   5.488
    1AU     LIG  304   5.168   7.285   5.608
    1AU       S  305   4.689   5.933   5.148
    1AU     LIG  306   4.550   6.256   4.856
    1AU     LIG  307   4.344   6.683   4.780
    1AU    AUSL  308   5.255   4.533   5.428
    1AU    AUSL  309   4.722   4.550   5.714
    1AU     AUL  310   4.954   4.415   5.483
    1AU       S  311   4.483   4.483   5.478
    1AU     LIG  312   4.161   4.158   5.397
    1AU     LIG  313   3.934   3.764   5.260
    1AU       S  314   5.224   4.027   5.663
    1AU     LIG  315   4.902   3.926   5.356
    1AU     LIG  316   4.802   3.594   5.036
    1AU    AUSL  317   5.500   4.652   5.773
    1AU    AUSL  318   5.604   4.751   5.344
    1AU     AUL  319   5.580   4.390   5.548
    1AU       S  320   5.232   3.859   5.895
    1AU     LIG  321   5.386   3.545   5.576
    1AU     LIG  322   5.278   3.199   5.279
    1AU       S  323   5.811   4.597   5.159
    1AU     LIG  324   5.915   4.361   4.708
    1AU     LIG  325   6.084   3.892   4.628
    2POPC   NC3  326   3.343   8.742   7.976
    2POPC   PO4  327   3.907   8.436   8.213
    2POPC   GL1  328   3.858   8.831   7.747
    2POPC   GL2  329   3.581   9.057   7.668
    2POPC   C1A  330   3.778   8.832   7.260
    2POPC   D2A  331   3.758   8.489   6.951
    2POPC   C3A  332   3.487   8.417   6.586
    2POPC   C4A  333   3.559   8.568   6.205
    2POPC   C1B  334   3.276   8.896   7.333
    2POPC   C2B  335   3.264   8.679   6.966
    2POPC   C3B  336   3.102   8.731   6.562
    2POPC   C4B  337   3.184   8.915   6.169
    3POPC   NC3  338   1.135   4.985   8.130
    3POPC   PO4  339   0.554   4.590   8.159
    3POPC   GL1  340   0.883   4.746   7.759
    3POPC   GL2  341   1.071   5.078   7.654
    3POPC   C1A  342   1.123   4.671   7.361
    3POPC   D2A  343   0.967   4.836   6.958
    3POPC   C3A  344   1.065   4.627   6.569
    3POPC   C4A  345   1.140   4.795   6.147
    3POPC   C1B  346   1.343   5.146   7.320
    3POPC   C2B  347   1.463   5.058   6.935
    3POPC   C3B  348   1.289   5.069   6.569
    3POPC   C4B  349   1.414   5.211   6.198
    4POPC   NC3  350   9.329   1.764   8.133
    4POPC   PO4  351   8.821   2.150   7.846
    4POPC   GL1  352   9.173   1.912   7.578
    4POPC   GL2  353   9.545   1.801   7.646
    4POPC   C1A  354   9.190   2.009   7.160
    4POPC   D2A  355   9.277   1.786   6.783
    4POPC   C3A  356   9.467   2.060   6.499
    4POPC   C4A  357   9.648   2.263   6.155
    4POPC   C1B  358   9.510   1.611   7.235
    4POPC   C2B  359   9.749   1.660   6.879
    4POPC   C3B  360   9.759   1.625   6.442
    4POPC   C4B  361   9.980   1.369   6.172
    5POPC   NC3  362   0.196   7.791   8.377
    5POPC   PO4  363   0.060   7.327   8.027
    5POPC   GL1  364   0.198   7.611   7.628
    5POPC   GL2  365   0.243   7.983   7.515
    5POPC   C1A  366   0.375   7.599   7.195
    5POPC   D2A  367   0.581   7.778   6.812
    5POPC   C3A  368   0.550   7.668   6.348
    5POPC   C4A  369   0.230   7.721   5.979
    5POPC   C1B  370   0.339   8.340   7.274
    5POPC   C2B  371   0.436   8.268   6.873
    5POPC   C3B  372   0.265   8.058   6.534
    5POPC   C4B  373   0.386   8.151   6.152
    6POPC   NC3  374   2.996   1.501   8.171
    6POPC   PO4  375   3.619   1.734   8.294
    6POPC   GL1  376   3.586   1.483   7.919
    6POPC   GL2  377   3.615   1.114   7.884
    6POPC   C1A  378   3.515   1.505   7.493
    6POPC   D2A  379   3.476   1.668   7.072
    6POPC   C3A  380   3.666   1.517   6.674
    6POPC   C4A  381   3.496   1.482   6.253
    6POPC   C1B  382   3.396   1.011   7.455
    6POPC   C2B  383   3.527   1.154   7.030
    6POPC   C3B  384   3.389   1.063   6.586
    6POPC   C4B  385   3.557   0.999   6.165
    7POPC   NC3  386   8.514   9.227   8.132
    7POPC   PO4  387   9.003   9.665   8.381
    7POPC   GL1  388   8.987   9.703   7.841
    7POPC   GL2  389   8.703   9.483   7.711
    7POPC   C1A  390   8.924   9.753   7.357
    7POPC   D2A  391   8.635   9.689   6.989
    7POPC   C3A  392   8.694   9.417   6.642
    7POPC   C4A  393   8.680   9.590   6.237
    7POPC   C1B  394   8.521   9.209   7.367
    7POPC   C2B  395   8.387   9.075   6.949
    7POPC   C3B  396   8.213   9.179   6.562
    7POPC   C4B  397   8.289   9.306   6.128
    8POPC   NC3  398   6.221   0.419   8.184
    8POPC   PO4  399   6.739  10.486   8.054
    8POPC   GL1  400   6.622   0.228   7.659
    8POPC   GL2  401   6.360   0.462   7.703
    8POPC   C1A  402   6.523   0.439   7.216
    8POPC   D2A  403   6.347   0.722   6.898
    8POPC   C3A  404   6.498   0.704   6.482
    8POPC   C4A  405   6.740   0.552   6.119
    8POPC   C1B  406   6.215   0.075   7.421
    8POPC   C2B  407   6.334  10.450   7.005
    8POPC   C3B  408   6.403   0.213   6.641
    8POPC   C4B  409   6.288   0.299   6.215
    9POPC   NC3  410   8.929   4.732   8.171
    9POPC   PO4  411   8.546   5.223   7.947
    9POPC   GL1  412   8.880   5.066   7.717
    9POPC   GL2  413   8.738   4.742   7.690
    9POPC   C1A  414   8.936   5.146   7.280
    9POPC   D2A  415   8.737   5.063   6.890
    9POPC   C3A  416   8.744   4.870   6.513
    9POPC   C4A  417   8.834   4.972   6.103
    9POPC   C1B  418   8.555   4.809   7.289
    9POPC   C2B  419   8.334   4.752   6.885
    9POPC   C3B  420   8.363   4.546   6.476
    9POPC   C4B  421   8.414   4.642   6.001
   10POPC   NC3  422   4.421   9.438   8.017
   10POPC   PO4  423   3.746   9.343   8.161
   10POPC   GL1  424   3.978   9.501   7.739
   10POPC   GL2  425   4.076   9.229   7.491
   10POPC   C1A  426   4.047   9.684   7.281
   10POPC   D2A  427   4.054   9.466   6.867
   10POPC   C3A  428   3.784   9.517   6.502
   10POPC   C4A  429   3.946   9.487   6.044
   10POPC   C1B  430   4.424   9.271   7.161
   10POPC   C2B  431   4.622   9.013   6.855
   10POPC   C3B  432   4.467   8.843   6.480
   10POPC   C4B  433   4.192   9.219   6.409
   11POPC   NC3  434  10.033   5.683   8.464
   11POPC   PO4  435   9.824   5.317   7.921
   11POPC   GL1  436   9.905   5.385   7.533
   11POPC   GL2  437  10.219   5.526   7.682
   11POPC   C1A  438   9.771   5.205   7.138
   11POPC   D2A  439   9.746   5.467   6.807
   11POPC   C3A  440   9.653   5.402   6.393
   11POPC   C4A  441   9.841   5.656   6.078
   11POPC   C1B  442  10.242   5.750   7.326
   11POPC   C2B  443  10.068   5.906   6.941
   11POPC   C3B  444  10.099   5.750   6.535
   11POPC   C4B  445  10.320   5.832   6.146
   12POPC   NC3  446   6.294   1.564   8.313
   12POPC   PO4  447   5.967   2.123   8.294
   12POPC   GL1  448   6.309   1.883   7.914
   12POPC   GL2  449   6.494   2.110   7.691
   12POPC   C1A  450   6.233   1.704   7.436
   12POPC   D2A  451   6.437   1.669   6.986
   12POPC   C3A  452   6.231   1.575   6.567
   12POPC   C4A  453   6.269   1.666   6.131
   12POPC   C1B  454   6.352   2.157   7.243
   12POPC   C2B  455   6.613   2.161   6.871
   12POPC   C3B  456   6.566   1.950   6.500
   12POPC   C4B  457   6.620   2.014   6.071
   13POPC   NC3  458   1.422   0.904   8.060
   13POPC   PO4  459   2.089   0.852   8.059
   13POPC   GL1  460   1.942   1.071   7.675
   13POPC   GL2  461   2.275   1.209   7.661
   13POPC   C1A  462   1.762   1.060   7.271
   13POPC   D2A  463   1.676   0.858   6.844
   13POPC   C3A  464   1.927   0.857   6.453
   13POPC   C4A  465   1.714   0.810   6.026
   13POPC   C1B  466   2.149   1.419   7.284
   13POPC   C2B  467   1.988   1.281   6.875
   13POPC   C3B  468   1.772   1.332   6.497
   13POPC   C4B  469   1.995   1.223   6.107
   14POPC   NC3  470   7.128   2.024   8.118
   14POPC   PO4  471   6.710   1.463   8.184
   14POPC   GL1  472   6.811   1.695   7.765
   14POPC   GL2  473   7.156   1.820   7.657
   14POPC   C1A  474   6.797   1.886   7.312
   14POPC   D2A  475   6.945   1.752   6.896
   14POPC   C3A  476   7.052   2.061   6.578
   14POPC   C4A  477   7.046   1.838   6.256
   14POPC   C1B  478   7.340   1.663   7.260
   14POPC   C2B  479   7.579   1.512   6.890
   14POPC   C3B  480   7.482   1.755   6.519
   14POPC   C4B  481   7.503   2.085   6.204
   15POPC   NC3  482   6.312   9.149   8.017
   15POPC   PO4  483   6.729   9.626   8.186
   15POPC   GL1  484   6.639   9.564   7.711
   15POPC   GL2  485   6.365   9.377   7.570
   15POPC   C1A  486   6.536   9.767   7.295
   15POPC   D2A  487   6.537   9.594   6.869
   15POPC   C3A  488   6.519   9.817   6.481
   15POPC   C4A  489   6.443   9.748   6.025
   15POPC   C1B  490   6.250   9.251   7.161
   15POPC   C2B  491   6.065   9.377   6.765
   15POPC   C3B  492   6.255   9.331   6.374
   15POPC   C4B  493   6.153   9.303   5.931
   16POPC   NC3  494   9.488   3.236   8.171
   16POPC   PO4  495   9.840   3.797   8.116
   16POPC   GL1  496   9.642   3.533   7.794
   16POPC   GL2  497   9.323   3.557   7.705
   16POPC   C1A  498   9.647   3.318   7.365
   16POPC   D2A  499   9.550   3.539   6.955
   16POPC   C3A  500   9.771   3.538   6.559
   16POPC   C4A  501   9.596   3.540   6.129
   16POPC   C1B  502   9.177   3.382   7.286
   16POPC   C2B  503   9.041   3.487   6.889
   16POPC   C3B  504   9.254   3.470   6.506
   16POPC   C4B  505   9.202   3.208   6.126
   17POPC   NC3  506   0.519   5.740   8.309
   17POPC   PO4  507  10.396   5.523   8.218
   17POPC   GL1  508   0.214   5.563   7.827
   17POPC   GL2  509   0.549   5.772   7.797
   17POPC   C1A  510   0.278   5.507   7.332
   17POPC   D2A  511   0.099   5.767   6.950
   17POPC   C3A  512   0.180   5.810   6.503
   17POPC   C4A  513   0.203   5.463   6.199
   17POPC   C1B  514   0.665   5.891   7.362
   17POPC   C2B  515   0.637   5.706   6.948
   17POPC   C3B  516   0.609   5.557   6.523
   17POPC   C4B  517   0.585   5.784   6.124
   18POPC   NC3  518  10.286   0.513   8.249
   18POPC   PO4  519   9.661   0.253   8.170
   18POPC   GL1  520   9.989   0.192   7.827
   18POPC   GL2  521  10.233   0.425   7.697
   18POPC   C1A  522   9.909   0.227   7.352
   18POPC   D2A  523  10.060   0.502   7.045
   18POPC   C3A  524  10.082   0.518   6.614
   18POPC   C4A  525  10.217   0.378   6.208
   18POPC   C1B  526  10.499   0.451   7.303
   18POPC   C2B  527   0.089   0.590   6.865
   18POPC   C3B  528   0.001   0.780   6.449
   18POPC   C4B  529  10.465   0.729   5.946
   19POPC   NC3  530   1.466  10.406   8.093
   19POPC   PO4  531   2.160  10.297   8.036
   19POPC   GL1  532   1.824  10.260   7.697
   19POPC   GL2  533   1.735   9.924   7.564
   19POPC   C1A  534   1.642  10.364   7.275
   19POPC   D2A  535   1.504  10.270   6.872
   19POPC   C3A  536   1.780  10.442   6.566
   19POPC   C4A  537   1.644  10.451   6.140
   19POPC   C1B  538   2.004  10.002   7.265
   19POPC   C2B  539   1.860   9.932   6.867
   19POPC   C3B  540   1.625   9.988   6.450
   19POPC   C4B  541   1.981   9.949   6.153
   20POPC   NC3  542   0.546   6.667   8.253
   20POPC   PO4  543   0.858   6.032   8.164
   20POPC   GL1  544   0.672   6.305   7.803
   20POPC   GL2  545   0.336   6.432   7.760
   20POPC   C1A  546   0.612   6.405   7.336
   20POPC   D2A  547   0.676   6.249   6.931
   20POPC   C3A  548   0.633   6.501   6.556
   20POPC   C4A  549   0.445   6.272   6.219
   20POPC   C1B  550   0.134   6.643   7.382
   20POPC   C2B  551   0.081   6.825   6.973
   20POPC   C3B  552   0.114   6.671   6.580
   20POPC   C4B  553   0.301   6.772   6.199
   21POPC   NC3  554   2.453   2.039   8.057
   21POPC   PO4  555   2.531   1.399   8.082
   21POPC   GL1  556   2.718   1.666   7.760
   21POPC   GL2  557   2.764   2.047   7.654
   21POPC   C1A  558   2.628   1.634   7.346
   21POPC   D2A  559   2.806   1.794   6.995
   21POPC   C3A  560   2.636   1.710   6.598
   21POPC   C4A  561   2.536   1.532   6.225
   21POPC   C1B  562   2.480   2.114   7.311
   21POPC   C2B  563   2.366   2.076   6.879
   21POPC   C3B  564   2.441   2.160   6.453
   21POPC   C4B  565   2.864   2.082   6.294
   22POPC   NC3  566   9.236  10.494   8.193
   22POPC   PO4  567   9.478   9.956   7.974
   22POPC   GL1  568   9.440  10.336   7.716
   22POPC   GL2  569   9.773  10.300   7.579
   22POPC   C1A  570   9.441   0.017   7.278
   22POPC   D2A  571   9.542  10.409   6.836
   22POPC   C3A  572   9.166  10.399   6.557
   22POPC   C4A  573   9.000   0.073   6.170
   22POPC   C1B  574   9.575   9.998   7.320
   22POPC   C2B  575   9.643   9.840   6.910
   22POPC   C3B  576   9.499   9.998   6.540
   22POPC   C4B  577   9.743  10.322   6.282
   23POPC   NC3  578   9.687   8.564   8.022
   23POPC   PO4  579   9.123   8.305   7.821
   23POPC   GL1  580   9.398   8.600   7.614
   23POPC   GL2  581   9.387   8.942   7.767
   23POPC   C1A  582   9.694   8.561   7.283
   23POPC   D2A  583   9.555   8.475   6.890
   23POPC   C3A  584   9.815   8.460   6.566
   23POPC   C4A  585   9.689   8.363   6.178
   23POPC   C1B  586   9.635   9.056   7.399
   23POPC   C2B  587   9.504   8.979   6.981
   23POPC   C3B  588   9.648   8.951   6.551
   23POPC   C4B  589   9.377   8.792   6.231
   24POPC   NC3  590   5.478   2.116   8.269
   24POPC   PO4  591   6.006   2.273   7.784
   24POPC   GL1  592   5.681   2.415   7.542
   24POPC   GL2  593   5.611   2.766   7.599
   24POPC   C1A  594   5.718   2.495   7.112
   24POPC   D2A  595   5.709   2.318   6.742
   24POPC   C3A  596   5.745   2.529   6.384
   24POPC   C4A  597   5.552   2.741   6.009
   24POPC   C1B  598   5.587   2.982   7.185
   24POPC   C2B  599   5.501   2.825   6.750
   24POPC   C3B  600   5.717   3.044   6.397
   24POPC   C4B  601   5.987   3.110   6.051
   25POPC   NC3  602   7.375   4.233   8.059
   25POPC   PO4  603   6.908   3.831   7.935
   25POPC   GL1  604   7.220   3.874   7.646
   25POPC   GL2  605   7.194   4.224   7.564
   25POPC   C1A  606   7.369   3.909   7.218
   25POPC   D2A  607   7.417   4.269   6.899
   25POPC   C3A  608   7.415   4.109   6.473
   25POPC   C4A  609   7.204   4.110   6.044
   25POPC   C1B  610   6.923   4.120   7.162
   25POPC   C2B  611   6.958   4.116   6.697
   25POPC   C3B  612   6.761   4.137   6.317
   25POPC   C4B  613   6.768   4.471   6.058
   26POPC   NC3  614   2.610   9.967   7.981
   26POPC   PO4  615   3.103   0.031   8.194
   26POPC   GL1  616   2.983  10.396   7.814
   26POPC   GL2  617   2.626  10.447   7.818
   26POPC   C1A  618   2.985  10.310   7.378
   26POPC   D2A  619   3.162  10.142   7.010
   26POPC   C3A  620   2.841  10.165   6.719
   26POPC   C4A  621   2.643  10.364   6.370
   26POPC   C1B  622   2.446  10.264   7.414
   26POPC   C2B  623   2.432  10.066   7.004
   26POPC   C3B  624   2.259  10.084   6.592
   26POPC   C4B  625   2.459   9.854   6.298
   27POPC   NC3  626   0.999   0.216   8.099
   27POPC   PO4  627   0.951   0.914   8.007
   27POPC   GL1  628   1.186   0.599   7.708
   27POPC   GL2  629   1.238   0.275   7.672
   27POPC   C1A  630   1.016   0.469   7.267
   27POPC   D2A  631   1.072   0.558   6.802
   27POPC   C3A  632   0.911   0.303   6.442
   27POPC   C4A  633   0.834   0.504   6.029
   27POPC   C1B  634   1.518   0.368   7.339
   27POPC   C2B  635   1.467   0.262   6.944
   27POPC   C3B  636   1.422   0.307   6.518
   27POPC   C4B  637   1.374   0.399   6.097
   28POPC   NC3  638   4.367  10.306   8.113
   28POPC   PO4  639   3.847   9.982   7.948
   28POPC   GL1  640   4.099  10.091   7.589
   28POPC   GL2  641   4.237  10.406   7.635
   28POPC   C1A  642   4.031  10.211   7.132
   28POPC   D2A  643   3.923   9.957   6.750
   28POPC   C3A  644   4.189   9.863   6.374
   28POPC   C4A  645   4.163   9.919   5.898
   28POPC   C1B  646   4.526  10.296   7.299
   28POPC   C2B  647   4.504  10.259   6.862
   28POPC   C3B  648   4.207  10.370   6.568
   28POPC   C4B  649   4.226  10.360   6.153
   29POPC   NC3  650   8.392   1.942   7.889
   29POPC   PO4  651   8.884   1.667   8.223
   29POPC   GL1  652   8.773   1.663   7.719
   29POPC   GL2  653   8.960   1.416   7.597
   29POPC   C1A  654   8.543   1.908   7.293
   29POPC   D2A  655   8.371   2.201   6.927
   29POPC   C3A  656   8.431   2.049   6.490
   29POPC   C4A  657   8.523   1.986   6.028
   29POPC   C1B  658   8.955   1.554   7.174
   29POPC   C2B  659   8.777   1.833   6.863
   29POPC   C3B  660   8.882   1.817   6.459
   29POPC   C4B  661   9.016   2.168   6.265
   30POPC   NC3  662   3.318   4.133   7.952
   30POPC   PO4  663   3.794   3.702   8.104
   30POPC   GL1  664   3.716   3.827   7.626
   30POPC   GL2  665   3.372   3.906   7.500
   30POPC   C1A  666   3.705   3.839   7.134
   30POPC   D2A  667   3.446   4.098   6.829
   30POPC   C3A  668   3.625   4.186   6.413
   30POPC   C4A  669   3.758   3.958   6.076
   30POPC   C1B  670   3.239   4.312   7.294
   30POPC   C2B  671   3.205   4.568   6.901
   30POPC   C3B  672   3.168   4.388   6.492
   30POPC   C4B  673   3.369   4.503   6.091
   31POPC   NC3  674   3.653   1.270   8.403
   31POPC   PO4  675   4.277   1.409   8.147
   31POPC   GL1  676   4.114   1.315   7.771
   31POPC   GL2  677   4.269   0.977   7.762
   31POPC   C1A  678   3.889   1.113   7.431
   31POPC   D2A  679   3.925   0.812   7.077
   31POPC   C3A  680   3.895   1.001   6.654
   31POPC   C4A  681   3.954   1.284   6.300
   31POPC   C1B  682   4.399   1.114   7.348
   31POPC   C2B  683   4.452   0.984   6.930
   31POPC   C3B  684   4.388   1.101   6.533
   31POPC   C4B  685   4.239   0.867   6.238
   32POPC   NC3  686   2.009   9.186   8.172
   32POPC   PO4  687   2.209   8.548   8.137
   32POPC   GL1  688   1.860   8.662   7.837
   32POPC   GL2  689   1.610   8.929   7.892
   32POPC   C1A  690   1.820   8.544   7.391
   32POPC   D2A  691   2.012   8.338   7.025
   32POPC   C3A  692   1.999   8.573   6.653
   32POPC   C4A  693   2.297   8.835   6.419
   32POPC   C1B  694   1.593   9.005   7.433
   32POPC   C2B  695   1.650   8.881   7.001
   32POPC   C3B  696   1.505   8.768   6.585
   32POPC   C4B  697   1.746   8.682   6.218
   33POPC   NC3  698   0.139   5.005   8.050
   33POPC   PO4  699   0.756   5.361   8.142
   33POPC   GL1  700   0.608   5.255   7.725
   33POPC   GL2  701   0.436   4.957   7.657
   33POPC   C1A  702   0.721   5.157   7.293
   33POPC   D2A  703   0.546   5.187   6.883
   33POPC   C3A  704   0.775   5.065   6.512
   33POPC   C4A  705   0.650   4.997   6.082
   33POPC   C1B  706   0.261   4.919   7.255
   33POPC   C2B  707   0.116   4.935   6.843
   33POPC   C3B  708   0.233   4.979   6.401
   33POPC   C4B  709   0.279   4.632   6.078
   34POPC   NC3  710   9.908   4.929   8.140
   34POPC   PO4  711  10.475   4.564   8.029
   34POPC   GL1  712  10.213   4.667   7.744
   34POPC   GL2  713  10.226   5.009   7.730
   34POPC   C1A  714  10.299   4.673   7.313
   34POPC   D2A  715  10.126   4.882   6.964
   34POPC   C3A  716  10.229   4.791   6.543
   34POPC   C4A  717  10.317   4.874   6.115
   34POPC   C1B  718  10.337   5.189   7.335
   34POPC   C2B  719  10.248   5.387   6.970
   34POPC   C3B  720  10.422   5.356   6.610
   34POPC   C4B  721  10.140   5.290   6.323
   35POPC   NC3  722   7.867   0.785   8.070
   35POPC   PO4  723   8.237   0.345   7.914
   35POPC   GL1  724   8.150   0.532   7.540
   35POPC   GL2  725   7.781   0.613   7.561
   35POPC   C1A  726   8.069   0.495   7.093
   35POPC   D2A  727   8.210   0.740   6.750
   35POPC   C3A  728   8.092   0.668   6.307
   35POPC   C4A  729   8.294   0.538   5.894
   35POPC   C1B  730   7.791   0.175   7.392
   35POPC   C2B  731   7.741  10.470   6.984
   35POPC   C3B  732   7.696  10.475   6.558
   35POPC   C4B  733   7.764   0.266   6.188
   36POPC   NC3  734   8.132   5.820   8.597
   36POPC   PO4  735   7.988   5.419   8.118
   36POPC   GL1  736   8.087   5.461   7.695
   36POPC   GL2  737   8.088   5.824   7.717
   36POPC   C1A  738   7.959   5.516   7.259
   36POPC   D2A  739   7.667   5.320   6.949
   36POPC   C3A  740   7.789   5.355   6.529
   36POPC   C4A  741   8.139   5.600   6.412
   36POPC   C1B  742   8.054   6.018   7.337
   36POPC   C2B  743   7.796   5.928   6.979
   36POPC   C3B  744   7.891   6.015   6.562
   36POPC   C4B  745   7.752   5.965   6.153
   37POPC   NC3  746   8.649   0.436   8.121
   37POPC   PO4  747   9.022   0.964   7.878
   37POPC   GL1  748   8.714   0.652   7.661
   37POPC   GL2  749   8.711   0.268   7.636
   37POPC   C1A  750   8.577   0.591   7.243
   37POPC   D2A  751   8.695   0.350   6.874
   37POPC   C3A  752   8.588   0.505   6.468
   37POPC   C4A  753   8.808   0.554   6.089
   37POPC   C1B  754   8.471   0.105   7.284
   37POPC   C2B  755   8.262   0.020   6.943
   37POPC   C3B  756   8.127   0.244   6.620
   37POPC   C4B  757   8.257   0.186   6.230
   38POPC   NC3  758   3.115   7.174   7.911
   38POPC   PO4  759   2.563   7.020   8.161
   38POPC   GL1  760   2.671   6.934   7.731
   38POPC   GL2  761   2.654   7.291   7.681
   38POPC   C1A  762   2.773   6.927   7.269
   38POPC   D2A  763   2.631   6.811   6.839
   38POPC   C3A  764   2.842   6.896   6.451
   38POPC   C4A  765   2.870   7.200   6.127
   38POPC   C1B  766   2.730   7.446   7.283
   38POPC   C2B  767   2.574   7.467   6.882
   38POPC   C3B  768   2.475   7.247   6.521
   38POPC   C4B  769   2.478   7.520   6.191
   39POPC   NC3  770   4.668   8.699   7.979
   39POPC   PO4  771   5.334   8.649   8.013
   39POPC   GL1  772   5.165   8.883   7.696
   39POPC   GL2  773   5.111   8.555   7.544
   39POPC   C1A  774   4.952   8.975   7.303
   39POPC   D2A  775   5.014   8.702   6.961
   39POPC   C3A  776   5.026   8.923   6.561
   39POPC   C4A  777   5.200   9.075   6.168
   39POPC   C1B  778   4.698   8.539   7.324
   39POPC   C2B  779   4.564   8.475   6.896
   39POPC   C3B  780   4.821   8.435   6.565
   39POPC   C4B  781   4.902   8.442   6.178
   40POPC   NC3  782   5.818   1.888   7.917
   40POPC   PO4  783   5.218   1.746   8.139
   40POPC   GL1  784   5.354   2.053   7.771
   40POPC   GL2  785   5.484   1.796   7.557
   40POPC   C1A  786   5.328   2.155   7.275
   40POPC   D2A  787   5.442   1.880   6.914
   40POPC   C3A  788   5.419   2.013   6.474
   40POPC   C4A  789   5.501   1.734   6.158
   40POPC   C1B  790   5.833   1.994   7.229
   40POPC   C2B  791   6.105   2.028   6.805
   40POPC   C3B  792   5.936   1.979   6.370
   40POPC   C4B  793   5.699   2.172   6.025
   41POPC   NC3  794   0.379   2.057   8.111
   41POPC   PO4  795   0.881   1.560   8.193
   41POPC   GL1  796   0.669   1.771   7.762
   41POPC   GL2  797   0.557   2.128   7.641
   41POPC   C1A  798   0.574   1.790   7.283
   41POPC   D2A  799   0.732   2.002   6.955
   41POPC   C3A  800   0.542   2.052   6.595
   41POPC   C4A  801   0.679   1.839   6.247
   41POPC   C1B  802   0.179   2.289   7.413
   41POPC   C2B  803   0.136   2.456   6.984
   41POPC   C3B  804   0.036   2.339   6.550
   41POPC   C4B  805   0.190   2.062   6.230
   42POPC   NC3  806   6.013   1.006   7.954
   42POPC   PO4  807   6.594   0.712   8.120
   42POPC   GL1  808   6.483   0.973   7.774
   42POPC   GL2  809   6.382   1.346   7.798
   42POPC   C1A  810   6.349   0.953   7.359
   42POPC   D2A  811   6.199   1.219   7.044
   42POPC   C3A  812   6.108   1.090   6.613
   42POPC   C4A  813   6.319   1.125   6.214
   42POPC   C1B  814   6.618   1.389   7.399
   42POPC   C2B  815   6.786   1.212   7.051
   42POPC   C3B  816   6.602   1.215   6.678
   42POPC   C4B  817   6.687   1.483   6.335
   43POPC   NC3  818   1.244   1.932   8.187
   43POPC   PO4  819   1.437   2.599   8.245
   43POPC   GL1  820   1.395   2.362   7.801
   43POPC   GL2  821   1.182   2.051   7.704
   43POPC   C1A  822   1.458   2.204   7.320
   43POPC   D2A  823   1.527   1.995   6.897
   43POPC   C3A  824   1.460   2.232   6.499
   43POPC   C4A  825   1.464   2.152   6.034
   43POPC   C1B  826   1.092   1.802   7.356
   43POPC   C2B  827   1.136   1.657   6.964
   43POPC   C3B  828   1.076   1.868   6.589
   43POPC   C4B  829   1.299   1.724   6.258
   44POPC   NC3  830   2.592   4.048   8.080
   44POPC   PO4  831   3.141   3.704   7.944
   44POPC   GL1  832   2.882   3.898   7.647
   44POPC   GL2  833   2.766   4.220   7.605
   44POPC   C1A  834   2.935   3.896   7.225
   44POPC   D2A  835   2.860   4.202   6.940
   44POPC   C3A  836   2.783   4.066   6.561
   44POPC   C4A  837   2.845   4.173   6.136
   44POPC   C1B  838   2.456   4.078   7.262
   44POPC   C2B  839   2.343   4.262   6.827
   44POPC   C3B  840   2.369   4.284   6.351
   44POPC   C4B  841   2.487   4.489   5.962
   45POPC   NC3  842   8.445   8.086   8.120
   45POPC   PO4  843   8.998   8.270   8.348
   45POPC   GL1  844   8.841   7.913   7.893
   45POPC   GL2  845   8.561   7.954   7.653
   45POPC   C1A  846   8.992   7.741   7.456
   45POPC   D2A  847   9.078   7.878   7.026
   45POPC   C3A  848   8.989   7.802   6.573
   45POPC   C4A  849   8.996   7.536   6.197
   45POPC   C1B  850   8.618   8.159   7.270
   45POPC   C2B  851   8.660   8.084   6.850
   45POPC   C3B  852   8.575   8.190   6.471
   45POPC   C4B  853   8.694   7.955   6.156
   46POPC   NC3  854   9.825  10.272   8.073
   46POPC   PO4  855  10.472   0.130   8.070
   46POPC   GL1  856   0.013  10.434   7.729
   46POPC   GL2  857  10.285  10.149   7.802
   46POPC   C1A  858  10.327  10.463   7.355
   46POPC   D2A  859  10.368   0.118   6.929
   46POPC   C3A  860  10.206   0.004   6.540
   46POPC   C4A  861  10.304  10.346   6.120
   46POPC   C1B  862  10.121   9.989   7.411
   46POPC   C2B  863   9.972  10.216   7.052
   46POPC   C3B  864  10.009  10.059   6.635
   46POPC   C4B  865  10.098   9.918   6.250
   47POPC   NC3  866   0.957   4.360   8.056
   47POPC   PO4  867   1.451   4.310   8.499
   47POPC   GL1  868   1.355   4.085   7.928
   47POPC   GL2  869   1.067   3.901   7.763
   47POPC   C1A  870   1.422   4.232   7.414
   47POPC   D2A  871   1.413   4.496   6.971
   47POPC   C3A  872   1.403   4.240   6.561
   47POPC   C4A  873   1.500   4.265   6.094
   47POPC   C1B  874   0.921   4.143   7.405
   47POPC   C2B  875   0.939   4.314   6.992
   47POPC   C3B  876   0.889   4.154   6.575
   47POPC   C4B  877   1.049   4.051   6.183
   48POPC   NC3  878   2.168   0.359   8.067
   48POPC   PO4  879   1.447   0.372   8.125
   48POPC   GL1  880   1.740   0.269   7.791
   48POPC   GL2  881   1.724   0.618   7.723
   48POPC   C1A  882   2.042   0.146   7.426
   48POPC   D2A  883   2.074  10.444   7.005
   48POPC   C3A  884   2.277   0.092   6.638
   48POPC   C4A  885   2.173  10.493   6.205
   48POPC   C1B  886   2.082   0.657   7.417
   48POPC   C2B  887   2.226   0.460   7.034
   48POPC   C3B  888   1.909   0.414   6.728
   48POPC   C4B  889   1.872   0.389   6.293
   49POPC   NC3  890   6.937   0.413   8.007
   49POPC   PO4  891   7.419   0.911   8.011
   49POPC   GL1  892   7.267   0.728   7.658
   49POPC   GL2  893   7.324   0.357   7.652
   49POPC   C1A  894   7.350   0.632   7.224
   49POPC   D2A  895   7.323   0.301   6.921
   49POPC   C3A  896   7.523   0.461   6.582
   49POPC   C4A  897   7.577   0.767   6.235
   49POPC   C1B  898   6.991   0.289   7.335
   49POPC   C2B  899   6.829   0.143   6.943
   49POPC   C3B  900   6.900   0.345   6.568
   49POPC   C4B  901   7.197   0.348   6.207
   50POPC   NC3  902   6.863   2.926   8.184
   50POPC   PO4  903   7.577   3.136   8.094
   50POPC   GL1  904   7.526   2.885   7.725
   50POPC   GL2  905   7.299   2.599   7.821
   50POPC   C1A  906   7.518   2.670   7.313
   50POPC   D2A  907   7.137   2.661   7.056
   50POPC   C3A  908   7.123   2.781   6.642
   50POPC   C4A  909   6.942   2.934   6.273
   50POPC   C1B  910   7.166   2.305   7.481
   50POPC   C2B  911   7.216   2.169   7.041
   50POPC   C3B  912   7.445   2.378   6.656
   50POPC   C4B  913   7.300   2.554   6.241
   51POPC   NC3  914   6.857  10.001   8.409
   51POPC   PO4  915   7.266   9.820   7.829
   51POPC   GL1  916   7.126  10.025   7.490
   51POPC   GL2  917   7.085  10.378   7.670
   51POPC   C1A  918   7.048   9.757   7.158
   51POPC   D2A  919   7.214   9.658   6.791
   51POPC   C3A  920   7.066   9.947   6.559
   51POPC   C4A  921   6.908  10.051   6.186
   51POPC   C1B  922   7.343  10.434   7.314
   51POPC   C2B  923   7.195  10.287   6.947
   51POPC   C3B  924   7.188  10.435   6.533
   51POPC   C4B  925   7.400  10.215   6.225
   52POPC   NC3  926  10.260   1.400   8.161
   52POPC   PO4  927   9.950   0.828   8.166
   52POPC   GL1  928  10.188   0.935   7.810
   52POPC   GL2  929  10.266   1.276   7.674
   52POPC   C1A  930  10.114   0.873   7.375
   52POPC   D2A  931  10.250   0.964   6.935
   52POPC   C3A  932   9.965   1.042   6.596
   52POPC   C4A  933  10.060   0.872   6.220
   52POPC   C1B  934  10.250   1.390   7.256
   52POPC   C2B  935  10.195   1.460   6.832
   52POPC   C3B  936  10.405   1.274   6.528
   52POPC   C4B  937  10.490   1.225   6.126
   53POPC   NC3  938   8.758   7.062   8.175
   53POPC   PO4  939   9.188   7.500   8.082
   53POPC   GL1  940   8.708   7.443   7.800
   53POPC   GL2  941   8.516   7.106   7.729
   53POPC   C1A  942   8.534   7.522   7.357
   53POPC   D2A  943   8.762   7.492   6.938
   53POPC   C3A  944   8.519   7.624   6.559
   53POPC   C4A  945   8.498   7.459   6.130
   53POPC   C1B  946   8.359   7.038   7.313
   53POPC   C2B  947   8.340   7.216   6.898
   53POPC   C3B  948   8.478   7.101   6.523
   53POPC   C4B  949   8.729   6.998   6.220
   54POPC   NC3  950   8.860   4.011   8.097
   54POPC   PO4  951   8.480   4.549   8.096
   54POPC   GL1  952   8.519   4.253   7.709
   54POPC   GL2  953   8.820   4.220   7.642
   54POPC   C1A  954   8.498   3.919   7.366
   54POPC   D2A  955   8.428   3.763   6.950
   54POPC   C3A  956   8.488   4.043   6.624
   54POPC   C4A  957   8.471   3.817   6.247
   54POPC   C1B  958   8.940   4.459   7.320
   54POPC   C2B  959   8.795   4.532   6.925
   54POPC   C3B  960   8.903   4.394   6.559
   54POPC   C4B  961   8.714   4.259   6.217
   55POPC   NC3  962   9.472   7.118   8.043
   55POPC   PO4  963   9.069   6.714   8.294
   55POPC   GL1  964   9.056   7.090   7.787
   55POPC   GL2  965   9.263   7.318   7.614
   55POPC   C1A  966   8.885   7.134   7.332
   55POPC   D2A  967   8.895   6.959   6.895
   55POPC   C3A  968   9.060   7.201   6.570
   55POPC   C4A  969   9.229   7.090   6.153
   55POPC   C1B  970   9.536   7.084   7.330
   55POPC   C2B  971   9.468   6.923   6.922
   55POPC   C3B  972   9.565   7.084   6.553
   55POPC   C4B  973   9.800   7.011   6.224
   56POPC   NC3  974  10.147   7.564   8.032
   56POPC   PO4  975  10.458   8.149   8.244
   56POPC   GL1  976  10.333   7.972   7.792
   56POPC   GL2  977  10.009   7.848   7.660
   56POPC   C1A  978  10.348   7.764   7.320
   56POPC   D2A  979   0.050   7.916   6.991
   56POPC   C3A  980  10.316   7.778   6.702
   56POPC   C4A  981  10.359   7.795   6.298
   56POPC   C1B  982   9.892   8.003   7.299
   56POPC   C2B  983  10.012   8.135   6.920
   56POPC   C3B  984   9.883   7.959   6.509
   56POPC   C4B  985   9.810   7.877   6.098
   57POPC   NC3  986   1.474   2.994   8.481
   57POPC   PO4  987   0.908   3.097   8.110
   57POPC   GL1  988   0.979   3.364   7.757
   57POPC   GL2  989   1.362   3.392   7.711
   57POPC   C1A  990   1.033   3.262   7.326
   57POPC   D2A  991   1.283   3.213   6.971
   57POPC   C3A  992   1.046   3.277   6.603
   57POPC   C4A  993   1.162   3.377   6.197
   57POPC   C1B  994   1.300   3.704   7.355
   57POPC   C2B  995   1.103   3.817   6.966
   57POPC   C3B  996   1.231   3.752   6.552
   57POPC   C4B  997   1.523   3.764   6.199
   58POPC   NC3  998  10.280   3.662   8.072
   58POPC   PO4  999   9.918   3.104   8.245
   58POPC   GL1 1000   9.874   3.083   7.773
   58POPC   GL2 1001  10.066   3.354   7.621
   58POPC   C1A 1002   9.995   2.951   7.337
   58POPC   D2A 1003   9.885   3.148   6.927
   58POPC   C3A 1004  10.119   3.145   6.560
   58POPC   C4A 1005  10.007   3.222   6.133
   58POPC   C1B 1006  10.058   3.565   7.207
   58POPC   C2B 1007  10.272   3.590   6.807
   58POPC   C3B 1008  10.225   3.648   6.357
   58POPC   C4B 1009  10.038   3.695   5.963
   59POPC   NC3 1010   7.221   7.860   8.405
   59POPC   PO4 1011   7.258   7.979   7.867
   59POPC   GL1 1012   7.106   8.014   7.542
   59POPC   GL2 1013   6.991   8.349   7.497
   59POPC   C1A 1014   7.132   7.768   7.210
   59POPC   D2A 1015   7.347   7.598   6.885
   59POPC   C3A 1016   7.167   7.678   6.472
   59POPC   C4A 1017   7.328   7.669   6.015
   59POPC   C1B 1018   7.340   8.259   7.204
   59POPC   C2B 1019   7.194   8.099   6.838
   59POPC   C3B 1020   7.185   8.193   6.478
   59POPC   C4B 1021   7.033   8.042   6.123
   60POPC   NC3 1022   2.804   6.629   8.171
   60POPC   PO4 1023   3.011   5.939   7.988
   60POPC   GL1 1024   2.802   6.240   7.686
   60POPC   GL2 1025   2.508   6.404   7.807
   60POPC   C1A 1026   2.860   6.384   7.227
   60POPC   D2A 1027   3.150   6.269   6.849
   60POPC   C3A 1028   3.015   6.402   6.410
   60POPC   C4A 1029   3.031   6.149   5.994
   60POPC   C1B 1030   2.345   6.290   7.386
   60POPC   C2B 1031   2.239   6.240   6.950
   60POPC   C3B 1032   2.422   6.402   6.538
   60POPC   C4B 1033   2.577   6.360   6.109
   61POPC   NC3 1034   8.114   4.246   8.000
   61POPC   PO4 1035   7.623   3.850   8.207
   61POPC   GL1 1036   7.697   3.744   7.794
   61POPC   GL2 1037   7.710   4.081   7.644
   61POPC   C1A 1038   7.807   3.697   7.350
   61POPC   D2A 1039   7.773   3.917   6.927
   61POPC   C3A 1040   8.005   3.904   6.555
   61POPC   C4A 1041   8.131   4.176   6.218
   61POPC   C1B 1042   8.040   4.168   7.303
   61POPC   C2B 1043   8.094   4.306   6.856
   61POPC   C3B 1044   7.804   4.423   6.520
   61POPC   C4B 1045   7.562   4.493   6.120
   62POPC   NC3 1046   0.185   0.524   7.916
   62POPC   PO4 1047   0.581   0.026   8.032
   62POPC   GL1 1048   0.495   0.182   7.633
   62POPC   GL2 1049   0.690   0.489   7.745
   62POPC   C1A 1050   0.329   0.058   7.194
   62POPC   D2A 1051   0.323   0.144   6.706
   62POPC   C3A 1052   0.265  10.450   6.296
   62POPC   C4A 1053   0.542   0.089   5.965
   62POPC   C1B 1054   0.521   0.630   7.359
   62POPC   C2B 1055   0.592   0.494   6.966
   62POPC   C3B 1056   0.531   0.616   6.560
   62POPC   C4B 1057   0.299   0.435   6.242
   63POPC   NC3 1058   0.198   4.424   8.418
   63POPC   PO4 1059   0.279   3.811   8.104
   63POPC   GL1 1060   0.542   4.105   7.790
   63POPC   GL2 1061   0.419   4.442   7.705
   63POPC   C1A 1062   0.415   4.101   7.320
   63POPC   D2A 1063   0.560   3.982   6.926
   63POPC   C3A 1064   0.388   4.104   6.526
   63POPC   C4A 1065   0.536   4.036   6.123
   63POPC   C1B 1066   0.625   4.571   7.340
   63POPC   C2B 1067   0.464   4.517   6.937
   63POPC   C3B 1068   0.551   4.596   6.527
   63POPC   C4B 1069   0.759   4.476   6.164
   64POPC   NC3 1070   3.958   0.714   8.094
   64POPC   PO4 1071   3.937   0.051   8.148
   64POPC   GL1 1072   3.925   0.292   7.786
   64POPC   GL2 1073   4.268   0.434   7.786
   64POPC   C1A 1074   3.917   0.189   7.353
   64POPC   D2A 1075   3.714   0.326   6.979
   64POPC   C3A 1076   3.821   0.242   6.550
   64POPC   C4A 1077   3.810   0.605   6.316
   64POPC   C1B 1078   4.399   0.311   7.370
   64POPC   C2B 1079   4.234   0.218   6.963
   64POPC   C3B 1080   4.187   0.560   6.685
   64POPC   C4B 1081   4.301   0.359   6.315
   65POPC   NC3 1082   5.002   9.593   8.277
   65POPC   PO4 1083   4.664   9.090   8.242
   65POPC   GL1 1084   4.919   9.318   7.836
   65POPC   GL2 1085   5.014   9.683   7.784
   65POPC   C1A 1086   5.137   9.435   7.387
   65POPC   D2A 1087   4.908   9.438   7.008
   65POPC   C3A 1088   5.140   9.433   6.644
   65POPC   C4A 1089   5.088   9.569   6.270
   65POPC   C1B 1090   4.652   9.636   7.458
   65POPC   C2B 1091   4.498   9.773   7.038
   65POPC   C3B 1092   4.559   9.589   6.620
   65POPC   C4B 1093   4.708   9.263   6.343
   66POPC   NC3 1094   2.765   5.033   8.105
   66POPC   PO4 1095   2.996   4.453   8.024
   66POPC   GL1 1096   2.794   4.728   7.701
   66POPC   GL2 1097   2.436   4.768   7.777
   66POPC   C1A 1098   2.689   5.031   7.361
   66POPC   D2A 1099   2.775   5.370   7.084
   66POPC   C3A 1100   2.871   5.131   6.712
   66POPC   C4A 1101   2.898   5.181   6.280
   66POPC   C1B 1102   2.460   4.574   7.351
   66POPC   C2B 1103   2.645   4.681   6.954
   66POPC   C3B 1104   2.604   4.731   6.513
   66POPC   C4B 1105   2.888   4.681   6.192
   67POPC   NC3 1106   8.848   8.600   8.042
   67POPC   PO4 1107   8.985   9.220   8.036
   67POPC   GL1 1108   8.880   8.943   7.642
   67POPC   GL2 1109   8.756   8.559   7.567
   67POPC   C1A 1110   9.090   8.790   7.265
   67POPC   D2A 1111   9.046   8.409   7.036
   67POPC   C3A 1112   9.086   8.528   6.617
   67POPC   C4A 1113   9.002   8.371   6.229
   67POPC   C1B 1114   8.560   8.690   7.234
   67POPC   C2B 1115   8.596   8.599   6.814
   67POPC   C3B 1116   8.633   8.694   6.376
   67POPC   C4B 1117   8.500   8.425   6.009
   68POPC   NC3 1118   5.295   0.381   7.808
   68POPC   PO4 1119   4.931  10.447   8.112
   68POPC   GL1 1120   4.735   0.183   7.758
   68POPC   GL2 1121   4.784   0.555   7.733
   68POPC   C1A 1122   4.877   0.205   7.311
   68POPC   D2A 1123   5.126   0.448   7.061
   68POPC   C3A 1124   5.102   0.421   6.641
   68POPC   C4A 1125   5.043   0.373   6.225
   68POPC   C1B 1126   4.739   0.706   7.306
   68POPC   C2B 1127   4.651   0.501   6.915
   68POPC   C3B 1128   4.661   0.659   6.521
   68POPC   C4B 1129   4.683   0.697   6.107
   69POPC   NC3 1130   9.357   5.443   8.019
   69POPC   PO4 1131   9.753   5.986   8.228
   69POPC   GL1 1132   9.724   5.830   7.797
   69POPC   GL2 1133   9.381   5.795   7.652
   69POPC   C1A 1134   9.765   5.967   7.370
   69POPC   D2A 1135   9.480   5.859   7.045
   69POPC   C3A 1136   9.607   5.930   6.639
   69POPC   C4A 1137   9.458   5.948   6.255
   69POPC   C1B 1138   9.373   5.446   7.354
   69POPC   C2B 1139   9.242   5.377   6.925
   69POPC   C3B 1140   9.192   5.551   6.523
   69POPC   C4B 1141   9.200   5.345   6.147
   70POPC   NC3 1142   4.333   2.773   7.976
   70POPC   PO4 1143   3.866   2.314   8.015
   70POPC   GL1 1144   4.044   2.520   7.628
   70POPC   GL2 1145   3.965   2.848   7.583
   70POPC   C1A 1146   4.326   2.527   7.234
   70POPC   D2A 1147   4.429   2.775   6.830
   70POPC   C3A 1148   4.241   2.758   6.436
   70POPC   C4A 1149   4.157   2.546   6.064
   70POPC   C1B 1150   3.843   2.701   7.182
   70POPC   C2B 1151   3.830   2.717   6.738
   70POPC   C3B 1152   3.754   2.879   6.349
   70POPC   C4B 1153   3.712   2.735   5.918
   71POPC   NC3 1154   6.990   6.909   8.468
   71POPC   PO4 1155   7.550   6.840   8.116
   71POPC   GL1 1156   7.569   6.695   7.706
   71POPC   GL2 1157   7.330   6.431   7.642
   71POPC   C1A 1158   7.363   6.819   7.298
   71POPC   D2A 1159   7.104   6.796   6.939
   71POPC   C3A 1160   7.232   6.795   6.526
   71POPC   C4A 1161   7.098   6.511   6.205
   71POPC   C1B 1162   7.190   6.341   7.180
   71POPC   C2B 1163   7.105   6.313   6.716
   71POPC   C3B 1164   6.981   6.049   6.377
   71POPC   C4B 1165   7.253   6.020   6.017
   72POPC   NC3 1166   1.112   5.644   8.080
   72POPC   PO4 1167   1.535   6.145   8.072
   72POPC   GL1 1168   1.585   5.838   7.744
   72POPC   GL2 1169   1.390   5.502   7.689
   72POPC   C1A 1170   1.501   5.825   7.319
   72POPC   D2A 1171   1.465   5.589   6.978
   72POPC   C3A 1172   1.496   5.874   6.598
   72POPC   C4A 1173   1.344   5.783   6.187
   72POPC   C1B 1174   1.056   5.557   7.365
   72POPC   C2B 1175   1.024   5.367   6.944
   72POPC   C3B 1176   1.109   5.537   6.564
   72POPC   C4B 1177   0.951   5.415   6.160
   73POPC   NC3 1178   3.541  10.305   8.119
   73POPC   PO4 1179   3.059   9.872   7.929
   73POPC   GL1 1180   3.395  10.074   7.655
   73POPC   GL2 1181   3.659  10.355   7.641
   73POPC   C1A 1182   3.592   9.933   7.261
   73POPC   D2A 1183   3.496   9.687   6.897
   73POPC   C3A 1184   3.333   9.938   6.558
   73POPC   C4A 1185   2.975   9.987   6.272
   73POPC   C1B 1186   3.500  10.432   7.255
   73POPC   C2B 1187   3.601  10.351   6.823
   73POPC   C3B 1188   3.709  10.278   6.387
   73POPC   C4B 1189   3.728   9.914   6.196
   74POPC   NC3 1190   0.234   8.368   7.939
   74POPC   PO4 1191   0.805   8.712   8.092
   74POPC   GL1 1192   0.699   8.497   7.750
   74POPC   GL2 1193   0.497   8.760   7.604
   74POPC   C1A 1194   0.822   8.472   7.340
   74POPC   D2A 1195   0.647   8.714   7.009
   74POPC   C3A 1196   0.762   8.583   6.610
   74POPC   C4A 1197   0.631   8.582   6.208
   74POPC   C1B 1198   0.198   8.861   7.281
   74POPC   C2B 1199   0.179   8.840   6.853
   74POPC   C3B 1200   0.230   8.581   6.523
   74POPC   C4B 1201   0.075   8.545   6.136
   75POPC   NC3 1202   1.141   6.406   8.017
   75POPC   PO4 1203   0.957   6.943   8.246
   75POPC   GL1 1204   1.163   6.887   7.775
   75POPC   GL2 1205   1.001   6.632   7.576
   75POPC   C1A 1206   1.414   6.714   7.330
   75POPC   D2A 1207   1.181   6.532   6.939
   75POPC   C3A 1208   1.394   6.532   6.506
   75POPC   C4A 1209   1.304   6.490   6.044
   75POPC   C1B 1210   1.122   6.215   7.372
   75POPC   C2B 1211   1.106   5.960   6.992
   75POPC   C3B 1212   1.038   6.112   6.574
   75POPC   C4B 1213   0.970   6.131   6.147
   76POPC   NC3 1214   0.044   4.141   7.864
   76POPC   PO4 1215  10.032   4.461   8.243
   76POPC   GL1 1216  10.050   4.193   7.841
   76POPC   GL2 1217  10.090   3.874   7.655
   76POPC   C1A 1218   9.944   4.289   7.391
   76POPC   D2A 1219  10.126   4.342   6.965
   76POPC   C3A 1220   9.896   4.388   6.603
   76POPC   C4A 1221  10.050   4.443   6.196
   76POPC   C1B 1222  10.349   3.977   7.278
   76POPC   C2B 1223   0.038   4.043   6.888
   76POPC   C3B 1224  10.371   4.136   6.467
   76POPC   C4B 1225  10.438   4.017   6.022
   77POPC   NC3 1226   1.874   5.813   8.194
   77POPC   PO4 1227   1.505   5.269   8.147
   77POPC   GL1 1228   1.866   5.414   7.834
   77POPC   GL2 1229   2.096   5.686   7.756
   77POPC   C1A 1230   1.804   5.392   7.384
   77POPC   D2A 1231   1.923   5.331   6.957
   77POPC   C3A 1232   1.700   5.390   6.584
   77POPC   C4A 1233   1.882   5.409   6.193
   77POPC   C1B 1234   2.023   5.882   7.358
   77POPC   C2B 1235   1.862   5.894   6.949
   77POPC   C3B 1236   2.013   5.790   6.539
   77POPC   C4B 1237   2.245   5.985   6.247
   78POPC   NC3 1238   8.512   3.330   7.975
   78POPC   PO4 1239   9.096   3.088   8.007
   78POPC   GL1 1240   8.880   3.287   7.659
   78POPC   GL2 1241   8.828   3.670   7.702
   78POPC   C1A 1242   8.688   3.440   7.278
   78POPC   D2A 1243   8.540   3.245   6.927
   78POPC   C3A 1244   8.693   3.406   6.525
   78POPC   C4A 1245   8.481   3.330   6.129
   78POPC   C1B 1246   9.051   3.874   7.349
   78POPC   C2B 1247   8.902   3.992   6.939
   78POPC   C3B 1248   8.965   3.889   6.498
   78POPC   C4B 1249   8.932   3.628   6.139
   79POPC   NC3 1250   9.828   4.098   8.482
   79POPC   PO4 1251   9.220   4.348   8.149
   79POPC   GL1 1252   9.294   4.133   7.761
   79POPC   GL2 1253   9.579   4.023   7.745
   79POPC   C1A 1254   9.428   4.316   7.356
   79POPC   D2A 1255   9.274   4.334   6.944
   79POPC   C3A 1256   9.405   4.500   6.566
   79POPC   C4A 1257   9.259   4.245   6.214
   79POPC   C1B 1258   9.637   3.843   7.373
   79POPC   C2B 1259   9.698   4.036   6.986
   79POPC   C3B 1260   9.494   3.979   6.600
   79POPC   C4B 1261   9.763   4.020   6.251
   80POPC   NC3 1262   6.291   6.706   7.782
   80POPC   PO4 1263   6.774   7.136   8.103
   80POPC   GL1 1264   6.732   7.163   7.657
   80POPC   GL2 1265   6.400   7.293   7.635
   80POPC   C1A 1266   6.711   6.894   7.265
   80POPC   D2A 1267   6.629   6.928   6.801
   80POPC   C3A 1268   6.630   6.605   6.471
   80POPC   C4A 1269   6.290   6.651   6.148
   80POPC   C1B 1270   6.567   7.386   7.216
   80POPC   C2B 1271   6.388   7.366   6.831
   80POPC   C3B 1272   6.268   7.165   6.449
   80POPC   C4B 1273   6.043   7.406   6.146
   81POPC   NC3 1274   0.709   1.142   8.340
   81POPC   PO4 1275   0.085   0.880   8.189
   81POPC   GL1 1276   0.203   1.027   7.767
   81POPC   GL2 1277   0.253   1.398   7.841
   81POPC   C1A 1278   0.116   0.947   7.302
   81POPC   D2A 1279   0.432   0.992   6.970
   81POPC   C3A 1280   0.407   1.105   6.544
   81POPC   C4A 1281   0.399   0.906   6.144
   81POPC   C1B 1282   0.272   1.407   7.382
   81POPC   C2B 1283   0.202   1.481   6.912
   81POPC   C3B 1284   0.307   1.574   6.435
   81POPC   C4B 1285   0.551   1.365   6.085
   82POPC   NC3 1286   9.300   6.221   8.171
   82POPC   PO4 1287   8.964   6.628   7.798
   82POPC   GL1 1288   9.056   6.228   7.707
   82POPC   GL2 1289   9.422   6.302   7.669
   82POPC   C1A 1290   9.100   6.118   7.293
   82POPC   D2A 1291   8.934   6.353   6.917
   82POPC   C3A 1292   9.132   6.268   6.526
   82POPC   C4A 1293   9.206   6.686   6.431
   82POPC   C1B 1294   9.354   6.553   7.274
   82POPC   C2B 1295   9.484   6.402   6.872
   82POPC   C3B 1296   9.639   6.414   6.443
   82POPC   C4B 1297   9.968   6.170   6.290
   83POPC   NC3 1298   9.498   0.901   7.885
   83POPC   PO4 1299   9.151   0.436   8.311
   83POPC   GL1 1300   9.177   0.434   7.836
   83POPC   GL2 1301   9.511   0.369   7.681
   83POPC   C1A 1302   9.112   0.502   7.352
   83POPC   D2A 1303   9.294   0.364   6.933
   83POPC   C3A 1304   9.108   0.456   6.544
   83POPC   C4A 1305   9.058   0.858   6.414
   83POPC   C1B 1306   9.616   0.645   7.300
   83POPC   C2B 1307   9.654   0.749   6.868
   83POPC   C3B 1308   9.605   0.668   6.432
   83POPC   C4B 1309   9.478   0.268   6.231
   84POPC   NC3 1310   7.211   7.081   7.897
   84POPC   PO4 1311   7.577   7.526   8.295
   84POPC   GL1 1312   7.465   7.507   7.778
   84POPC   GL2 1313   7.138   7.491   7.618
   84POPC   C1A 1314   7.534   7.345   7.327
   84POPC   D2A 1315   7.538   7.105   6.913
   84POPC   C3A 1316   7.538   7.306   6.507
   84POPC   C4A 1317   7.244   7.218   6.235
   84POPC   C1B 1318   7.060   7.262   7.181
   84POPC   C2B 1319   7.005   7.252   6.707
   84POPC   C3B 1320   6.781   7.061   6.323
   84POPC   C4B 1321   6.752   6.760   5.944
   85POPC   NC3 1322   7.811   1.774   8.149
   85POPC   PO4 1323   8.180   2.340   8.038
   85POPC   GL1 1324   7.963   1.988   7.674
   85POPC   GL2 1325   7.665   1.770   7.657
   85POPC   C1A 1326   8.020   1.777   7.247
   85POPC   D2A 1327   8.173   1.748   6.819
   85POPC   C3A 1328   7.972   1.635   6.431
   85POPC   C4A 1329   8.109   1.617   5.954
   85POPC   C1B 1330   7.617   2.098   7.337
   85POPC   C2B 1331   7.698   2.015   6.919
   85POPC   C3B 1332   7.904   2.129   6.570
   85POPC   C4B 1333   8.030   2.068   6.176
   86POPC   NC3 1334   6.971   9.217   8.144
   86POPC   PO4 1335   7.255   9.780   8.374
   86POPC   GL1 1336   7.388   9.350   7.921
   86POPC   GL2 1337   7.104   9.353   7.662
   86POPC   C1A 1338   7.495   9.100   7.469
   86POPC   D2A 1339   7.351   8.966   7.006
   86POPC   C3A 1340   7.338   9.183   6.601
   86POPC   C4A 1341   7.468   9.044   6.182
   86POPC   C1B 1342   6.808   9.294   7.302
   86POPC   C2B 1343   6.884   9.229   6.859
   86POPC   C3B 1344   6.912   9.455   6.446
   86POPC   C4B 1345   7.320   9.612   6.274
   87POPC   NC3 1346   6.973   1.078   8.171
   87POPC   PO4 1347   7.400   1.577   8.104
   87POPC   GL1 1348   7.207   1.326   7.742
   87POPC   GL2 1349   6.936   1.158   7.688
   87POPC   C1A 1350   7.276   1.153   7.325
   87POPC   D2A 1351   7.279   1.078   6.909
   87POPC   C3A 1352   7.121   1.362   6.595
   87POPC   C4A 1353   7.164   1.363   6.134
   87POPC   C1B 1354   6.851   0.817   7.385
   87POPC   C2B 1355   6.918   0.686   6.947
   87POPC   C3B 1356   7.114   0.795   6.528
   87POPC   C4B 1357   6.853   1.012   6.292
   88POPC   NC3 1358   2.539   0.927   8.126
   88POPC   PO4 1359   3.184   1.028   8.172
   88POPC   GL1 1360   3.107   1.267   7.754
   88POPC   GL2 1361   2.791   1.151   7.703
   88POPC   C1A 1362   3.066   1.382   7.297
   88POPC   D2A 1363   3.021   1.113   6.958
   88POPC   C3A 1364   2.874   1.245   6.566
   88POPC   C4A 1365   3.018   1.102   6.209
   88POPC   C1B 1366   2.608   1.126   7.297
   88POPC   C2B 1367   2.513   1.323   6.920
   88POPC   C3B 1368   2.346   1.174   6.529
   88POPC   C4B 1369   2.456   1.045   6.122
   89POPC   NC3 1370   0.510   9.072   8.014
   89POPC   PO4 1371   0.403   9.735   7.956
   89POPC   GL1 1372   0.611   9.415   7.664
   89POPC   GL2 1373   0.323   9.274   7.571
   89POPC   C1A 1374   0.662   9.173   7.232
   89POPC   D2A 1375   0.437   9.277   6.832
   89POPC   C3A 1376   0.500   9.023   6.469
   89POPC   C4A 1377   0.527   9.030   5.991
   89POPC   C1B 1378   0.433   9.645   7.280
   89POPC   C2B 1379   0.295   9.760   6.909
   89POPC   C3B 1380   0.487   9.789   6.536
   89POPC   C4B 1381   0.353   9.468   6.250
   90POPC   NC3 1382   5.615   8.997   8.096
   90POPC   PO4 1383   5.473   9.665   8.120
   90POPC   GL1 1384   5.531   9.423   7.752
   90POPC   GL2 1385   5.883   9.318   7.768
   90POPC   C1A 1386   5.574   9.163   7.379
   90POPC   D2A 1387   5.335   9.100   6.980
   90POPC   C3A 1388   5.539   9.103   6.574
   90POPC   C4A 1389   5.741   9.329   6.245
   90POPC   C1B 1390   5.903   9.572   7.383
   90POPC   C2B 1391   5.627   9.527   7.021
   90POPC   C3B 1392   5.643   9.651   6.630
   90POPC   C4B 1393   6.008   9.773   6.358
   91POPC   NC3 1394   3.735   2.769   8.035
   91POPC   PO4 1395   3.134   2.962   8.230
   91POPC   GL1 1396   3.307   2.908   7.794
   91POPC   GL2 1397   3.377   2.501   7.799
   91POPC   C1A 1398   3.180   3.017   7.362
   91POPC   D2A 1399   3.051   2.786   6.999
   91POPC   C3A 1400   3.200   2.889   6.577
   91POPC   C4A 1401   3.314   3.051   6.202
   91POPC   C1B 1402   3.356   2.528   7.368
   91POPC   C2B 1403   3.444   2.475   6.953
   91POPC   C3B 1404   3.455   2.451   6.526
   91POPC   C4B 1405   3.291   2.526   6.139
   92POPC   NC3 1406   1.825   8.206   8.091
   92POPC   PO4 1407   1.726   7.559   8.219
   92POPC   GL1 1408   1.605   7.789   7.801
   92POPC   GL2 1409   1.679   8.092   7.604
   92POPC   C1A 1410   1.682   7.640   7.349
   92POPC   D2A 1411   1.688   7.907   6.975
   92POPC   C3A 1412   1.669   7.778   6.532
   92POPC   C4A 1413   1.682   8.179   6.279
   92POPC   C1B 1414   2.059   7.962   7.365
   92POPC   C2B 1415   2.167   7.776   6.958
   92POPC   C3B 1416   2.101   8.037   6.606
   92POPC   C4B 1417   2.086   7.845   6.223
   93POPC   NC3 1418   7.764   7.846   7.987
   93POPC   PO4 1419   8.106   8.387   8.157
   93POPC   GL1 1420   8.071   8.139   7.738
   93POPC   GL2 1421   7.720   8.178   7.599
   93POPC   C1A 1422   8.149   7.919   7.333
   93POPC   D2A 1423   8.174   8.135   6.935
   93POPC   C3A 1424   8.118   7.987   6.553
   93POPC   C4A 1425   8.080   8.198   6.183
   93POPC   C1B 1426   7.643   7.849   7.302
   93POPC   C2B 1427   7.689   7.985   6.897
   93POPC   C3B 1428   7.631   7.850   6.500
   93POPC   C4B 1429   7.567   8.102   6.176
   94POPC   NC3 1430   0.590   7.519   7.906
   94POPC   PO4 1431   0.509   6.897   7.868
   94POPC   GL1 1432   0.578   6.886   7.507
   94POPC   GL2 1433   0.621   7.231   7.476
   94POPC   C1A 1434   0.753   6.865   7.130
   94POPC   D2A 1435   0.500   7.154   6.963
   94POPC   C3A 1436   0.488   7.034   6.588
   94POPC   C4A 1437   0.711   7.151   6.239
   94POPC   C1B 1438   0.167   7.161   7.362
   94POPC   C2B 1439  10.441   7.350   7.031
   94POPC   C3B 1440   0.194   7.461   6.667
   94POPC   C4B 1441   0.210   7.298   6.249
   95POPC   NC3 1442   2.164   7.396   8.126
   95POPC   PO4 1443   1.614   6.912   8.024
   95POPC   GL1 1444   1.702   7.051   7.626
   95POPC   GL2 1445   1.852   7.351   7.722
   95POPC   C1A 1446   1.675   7.155   7.186
   95POPC   D2A 1447   1.634   6.870   6.857
   95POPC   C3A 1448   1.599   7.029   6.474
   95POPC   C4A 1449   1.677   6.823   6.117
   95POPC   C1B 1450   2.197   7.447   7.430
   95POPC   C2B 1451   2.235   7.166   7.096
   95POPC   C3B 1452   1.996   7.248   6.732
   95POPC   C4B 1453   1.999   7.322   6.281
   96POPC   NC3 1454   4.270   3.514   8.062
   96POPC   PO4 1455   4.656   3.986   7.811
   96POPC   GL1 1456   4.336   3.659   7.590
   96POPC   GL2 1457   4.340   3.259   7.624
   96POPC   C1A 1458   4.170   3.538   7.197
   96POPC   D2A 1459   4.496   3.383   6.899
   96POPC   C3A 1460   4.513   3.661   6.556
   96POPC   C4A 1461   4.177   3.783   6.319
   96POPC   C1B 1462   4.266   3.042   7.239
   96POPC   C2B 1463   4.047   3.145   6.853
   96POPC   C3B 1464   4.191   3.275   6.451
   96POPC   C4B 1465   4.472   3.410   6.087
   97POPC   NC3 1466   5.124   2.890   8.100
   97POPC   PO4 1467   4.581   3.132   8.085
   97POPC   GL1 1468   4.736   2.896   7.674
   97POPC   GL2 1469   5.086   2.765   7.601
   97POPC   C1A 1470   4.768   2.882   7.194
   97POPC   D2A 1471   4.939   2.755   6.764
   97POPC   C3A 1472   4.738   2.718   6.371
   97POPC   C4A 1473   4.548   2.861   5.981
   97POPC   C1B 1474   5.229   2.637   7.181
   97POPC   C2B 1475   5.204   2.339   6.815
   97POPC   C3B 1476   5.242   2.527   6.392
   97POPC   C4B 1477   5.206   2.992   6.353
   98POPC   NC3 1478   1.811   6.515   8.125
   98POPC   PO4 1479   2.231   6.081   8.105
   98POPC   GL1 1480   1.985   6.206   7.757
   98POPC   GL2 1481   2.024   6.586   7.677
   98POPC   C1A 1482   1.709   6.283   7.401
   98POPC   D2A 1483   1.671   6.376   6.960
   98POPC   C3A 1484   1.894   6.313   6.572
   98POPC   C4A 1485   1.701   6.201   6.195
   98POPC   C1B 1486   1.958   6.718   7.255
   98POPC   C2B 1487   2.119   6.728   6.844
   98POPC   C3B 1488   2.094   6.818   6.430
   98POPC   C4B 1489   2.095   6.524   6.095
   99POPC   NC3 1490   1.290   2.895   7.923
   99POPC   PO4 1491   0.854   2.226   8.046
   99POPC   GL1 1492   0.920   2.499   7.681
   99POPC   GL2 1493   0.870   2.860   7.640
   99POPC   C1A 1494   0.936   2.295   7.303
   99POPC   D2A 1495   1.138   2.303   6.909
   99POPC   C3A 1496   0.971   2.372   6.493
   99POPC   C4A 1497   1.106   2.487   6.055
   99POPC   C1B 1498   1.104   2.762   7.241
   99POPC   C2B 1499   1.059   2.790   6.787
   99POPC   C3B 1500   1.228   2.839   6.420
   99POPC   C4B 1501   0.872   2.923   6.214
  100POPC   NC3 1502   8.299  10.410   7.853
  100POPC   PO4 1503   8.194   9.831   8.034
  100POPC   GL1 1504   7.972   9.973   7.680
  100POPC   GL2 1505   7.635  10.148   7.661
  100POPC   C1A 1506   8.030  10.196   7.300
  100POPC   D2A 1507   8.107  10.025   6.912
  100POPC   C3A 1508   8.165  10.224   6.523
  100POPC   C4A 1509   7.931  10.291   6.154
  100POPC   C1B 1510   7.573   9.972   7.235
  100POPC   C2B 1511   7.592  10.005   6.797
  100POPC   C3B 1512   7.763   9.908   6.438
  100POPC   C4B 1513   7.691   9.860   6.014
  101POPC   NC3 1514   2.012   1.347   8.073
  101POPC   PO4 1515   1.914   2.027   8.181
  101POPC   GL1 1516   1.713   1.938   7.762
  101POPC   GL2 1517   1.879   2.246   7.681
  101POPC   C1A 1518   1.690   1.713   7.318
  101POPC   D2A 1519   1.982   1.778   6.933
  101POPC   C3A 1520   2.108   1.709   6.485
  101POPC   C4A 1521   1.801   1.687   6.115
  101POPC   C1B 1522   1.971   2.141   7.298
  101POPC   C2B 1523   1.908   2.343   6.948
  101POPC   C3B 1524   1.957   2.379   6.550
  101POPC   C4B 1525   1.911   2.143   6.264
  102POPC   NC3 1526   0.559   3.421   8.132
  102POPC   PO4 1527   0.016   3.409   7.781
  102POPC   GL1 1528   0.184   3.719   7.586
  102POPC   GL2 1529   0.510   3.618   7.667
  102POPC   C1A 1530   0.240   3.632   7.155
  102POPC   D2A 1531   0.209   3.247   6.929
  102POPC   C3A 1532   0.116   3.327   6.494
  102POPC   C4A 1533   0.228   3.672   6.280
  102POPC   C1B 1534   0.734   3.668   7.322
  102POPC   C2B 1535   0.702   3.501   6.918
  102POPC   C3B 1536   0.707   3.667   6.511
  102POPC   C4B 1537   0.651   3.390   6.201
  103POPC   NC3 1538   0.297  10.169   8.089
  103POPC   PO4 1539   1.044  10.196   8.145
  103POPC   GL1 1540   0.828  10.261   7.684
  103POPC   GL2 1541   0.509  10.147   7.639
  103POPC   C1A 1542   0.790  10.059   7.233
  103POPC   D2A 1543   0.535  10.200   6.882
  103POPC   C3A 1544   0.703  10.311   6.492
  103POPC   C4A 1545   0.631  10.112   6.137
  103POPC   C1B 1546   0.155  10.064   7.398
  103POPC   C2B 1547  10.469  10.121   7.017
  103POPC   C3B 1548   0.049  10.131   6.614
  103POPC   C4B 1549   0.125   9.953   6.222
  104POPC   NC3 1550   7.682   1.292   7.868
  104POPC   PO4 1551   8.249   1.050   8.136
  104POPC   GL1 1552   8.064   1.028   7.662
  104POPC   GL2 1553   7.895   1.303   7.419
  104POPC   C1A 1554   8.237   0.978   7.227
  104POPC   D2A 1555   8.059   1.254   6.898
  104POPC   C3A 1556   8.118   1.162   6.486
  104POPC   C4A 1557   7.985   1.137   6.090
  104POPC   C1B 1558   7.737   0.956   7.168
  104POPC   C2B 1559   7.719   0.913   6.716
  104POPC   C3B 1560   7.597   1.245   6.423
  104POPC   C4B 1561   7.627   1.542   6.076
  105POPC   NC3 1562   6.844   9.979   7.895
  105POPC   PO4 1563   6.233   9.625   8.004
  105POPC   GL1 1564   6.230   9.930   7.691
  105POPC   GL2 1565   6.455  10.223   7.684
  105POPC   C1A 1566   6.090  10.069   7.295
  105POPC   D2A 1567   6.103   9.891   6.884
  105POPC   C3A 1568   6.142  10.224   6.581
  105POPC   C4A 1569   6.341  10.226   6.205
  105POPC   C1B 1570   6.711  10.293   7.322
  105POPC   C2B 1571   6.713  10.093   6.929
  105POPC   C3B 1572   6.686  10.301   6.576
  105POPC   C4B 1573   6.728   0.044   6.217
  106POPC   NC3 1574   4.821   1.901   7.993
  106POPC   PO4 1575   5.123   2.431   8.102
  106POPC   GL1 1576   4.905   2.290   7.673
  106POPC   GL2 1577   4.944   1.936   7.509
  106POPC   C1A 1578   4.820   2.356   7.237
  106POPC   D2A 1579   4.646   2.294   6.845
  106POPC   C3A 1580   4.841   2.231   6.454
  106POPC   C4A 1581   4.677   2.328   6.022
  106POPC   C1B 1582   4.769   1.856   7.120
  106POPC   C2B 1583   4.953   1.832   6.752
  106POPC   C3B 1584   5.021   1.728   6.366
  106POPC   C4B 1585   5.068   2.004   6.069
  107POPC   NC3 1586  10.225   8.509   8.105
  107POPC   PO4 1587   9.817   9.018   8.049
  107POPC   GL1 1588  10.009   8.772   7.688
  107POPC   GL2 1589  10.020   8.399   7.638
  107POPC   C1A 1590  10.188   8.720   7.286
  107POPC   D2A 1591   9.997   8.817   6.925
  107POPC   C3A 1592  10.243   8.746   6.601
  107POPC   C4A 1593  10.073   8.747   6.216
  107POPC   C1B 1594  10.339   8.261   7.360
  107POPC   C2B 1595  10.438   8.405   6.938
  107POPC   C3B 1596  10.311   8.264   6.524
  107POPC   C4B 1597  10.174   8.234   6.127
  108POPC   NC3 1598   1.939   9.874   8.016
  108POPC   PO4 1599   1.564   9.347   8.237
  108POPC   GL1 1600   1.778   9.428   7.787
  108POPC   GL2 1601   2.013   9.152   7.681
  108POPC   C1A 1602   1.971   9.500   7.336
  108POPC   D2A 1603   1.772   9.421   6.940
  108POPC   C3A 1604   1.884   9.572   6.514
  108POPC   C4A 1605   1.638   9.569   6.159
  108POPC   C1B 1606   2.131   8.989   7.298
  108POPC   C2B 1607   2.132   9.055   6.877
  108POPC   C3B 1608   1.875   9.083   6.557
  108POPC   C4B 1609   1.934   9.143   6.162
  109POPC   NC3 1610   0.850   9.808   7.918
  109POPC   PO4 1611   1.492   9.957   8.019
  109POPC   GL1 1612   1.255   9.983   7.683
  109POPC   GL2 1613   1.320  10.286   7.636
  109POPC   C1A 1614   1.300   9.969   7.248
  109POPC   D2A 1615   1.342   9.766   6.894
  109POPC   C3A 1616   1.034   9.926   6.636
  109POPC   C4A 1617   1.153   9.797   6.260
  109POPC   C1B 1618   1.129  10.463   7.280
  109POPC   C2B 1619   1.036  10.442   6.847
  109POPC   C3B 1620   1.215  10.349   6.418
  109POPC   C4B 1621   1.040   0.008   6.025
  110POPC   NC3 1622   7.642   9.716   8.124
  110POPC   PO4 1623   8.097   9.246   8.327
  110POPC   GL1 1624   7.919   9.280   7.901
  110POPC   GL2 1625   8.206   9.398   7.750
  110POPC   C1A 1626   7.793   9.510   7.483
  110POPC   D2A 1627   7.545   9.471   7.107
  110POPC   C3A 1628   7.738   9.475   6.689
  110POPC   C4A 1629   7.816   9.414   6.258
  110POPC   C1B 1630   8.272   9.659   7.381
  110POPC   C2B 1631   8.147   9.526   6.983
  110POPC   C3B 1632   8.242   9.681   6.560
  110POPC   C4B 1633   8.193   9.822   6.157
  111POPC   NC3 1634   9.262   7.966   8.121
  111POPC   PO4 1635   9.929   8.155   8.058
  111POPC   GL1 1636   9.590   8.124   7.731
  111POPC   GL2 1637   9.497   7.772   7.718
  111POPC   C1A 1638   9.415   8.139   7.293
  111POPC   D2A 1639   9.545   7.961   6.898
  111POPC   C3A 1640   9.390   8.126   6.532
  111POPC   C4A 1641   9.277   7.952   6.148
  111POPC   C1B 1642   9.497   7.632   7.300
  111POPC   C2B 1643   9.360   7.443   6.932
  111POPC   C3B 1644   9.449   7.598   6.536
  111POPC   C4B 1645   9.557   7.460   6.169
  112POPC   NC3 1646   8.679   1.286   8.052
  112POPC   PO4 1647   8.083   1.533   7.858
  112POPC   GL1 1648   8.368   1.428   7.569
  112POPC   GL2 1649   8.548   1.127   7.601
  112POPC   C1A 1650   8.448   1.439   7.163
  112POPC   D2A 1651   8.546   1.405   6.763
  112POPC   C3A 1652   8.462   1.538   6.354
  112POPC   C4A 1653   8.559   1.426   5.944
  112POPC   C1B 1654   8.795   1.058   7.248
  112POPC   C2B 1655   8.668   0.914   6.860
  112POPC   C3B 1656   8.593   1.017   6.463
  112POPC   C4B 1657   8.470   0.955   6.098
  113POPC   NC3 1658   5.249   0.235   8.305
  113POPC   PO4 1659   5.768   0.677   8.168
  113POPC   GL1 1660   5.709   0.658   7.706
  113POPC   GL2 1661   5.828   0.324   7.685
  113POPC   C1A 1662   5.574   0.510   7.246
  113POPC   D2A 1663   5.542   0.647   6.794
  113POPC   C3A 1664   5.514   0.541   6.323
  113POPC   C4A 1665   5.449   0.774   5.931
  113POPC   C1B 1666   6.047   0.543   7.333
  113POPC   C2B 1667   6.002   0.339   6.965
  113POPC   C3B 1668   5.917   0.358   6.567
  113POPC   C4B 1669   5.996   0.715   6.295
  114POPC   NC3 1670   2.058   3.499   8.146
  114POPC   PO4 1671   2.389   2.902   8.279
  114POPC   GL1 1672   2.257   3.155   7.827
  114POPC   GL2 1673   1.968   3.412   7.674
  114POPC   C1A 1674   2.178   3.095   7.359
  114POPC   D2A 1675   1.983   2.918   6.997
  114POPC   C3A 1676   2.165   3.057   6.633
  114POPC   C4A 1677   2.132   3.422   6.379
  114POPC   C1B 1678   1.710   3.365   7.299
  114POPC   C2B 1679   1.605   3.608   6.915
  114POPC   C3B 1680   1.593   3.380   6.544
  114POPC   C4B 1681   1.643   3.164   6.184
  115POPC   NC3 1682   7.824   2.734   8.114
  115POPC   PO4 1683   7.568   2.139   8.022
  115POPC   GL1 1684   7.785   2.442   7.696
  115POPC   GL2 1685   8.024   2.727   7.676
  115POPC   C1A 1686   8.062   2.367   7.325
  115POPC   D2A 1687   7.886   2.500   6.956
  115POPC   C3A 1688   8.087   2.601   6.586
  115POPC   C4A 1689   7.813   2.548   6.230
  115POPC   C1B 1690   8.186   2.886   7.342
  115POPC   C2B 1691   8.067   2.986   6.955
  115POPC   C3B 1692   7.807   3.055   6.625
  115POPC   C4B 1693   8.025   3.022   6.240
  116POPC   NC3 1694   2.955   9.505   8.233
  116POPC   PO4 1695   2.302   9.569   8.058
  116POPC   GL1 1696   2.462   9.396   7.680
  116POPC   GL2 1697   2.746   9.574   7.654
  116POPC   C1A 1698   2.468   9.467   7.229
  116POPC   D2A 1699   2.281   9.599   6.841
  116POPC   C3A 1700   2.333   9.355   6.465
  116POPC   C4A 1701   2.412   9.242   6.054
  116POPC   C1B 1702   2.833   9.827   7.291
  116POPC   C2B 1703   2.975   9.685   6.907
  116POPC   C3B 1704   2.778   9.589   6.595
  116POPC   C4B 1705   2.815   9.508   6.197
  117POPC   NC3 1706   9.377   2.737   7.909
  117POPC   PO4 1707   9.499   2.197   8.281
  117POPC   GL1 1708   9.454   2.259   7.798
  117POPC   GL2 1709   9.194   2.435   7.545
  117POPC   C1A 1710   9.617   2.287   7.332
  117POPC   D2A 1711   9.388   2.419   6.940
  117POPC   C3A 1712   9.538   2.576   6.563
  117POPC   C4A 1713   9.301   2.652   6.181
  117POPC   C1B 1714   9.477   2.785   7.292
  117POPC   C2B 1715   9.372   3.035   6.957
  117POPC   C3B 1716   9.191   2.971   6.582
  117POPC   C4B 1717   9.597   3.076   6.408
  118POPC   NC3 1718   5.570   8.272   7.914
  118POPC   PO4 1719   6.022   8.777   8.135
  118POPC   GL1 1720   5.981   8.599   7.745
  118POPC   GL2 1721   5.668   8.729   7.647
  118POPC   C1A 1722   6.052   8.788   7.329
  118POPC   D2A 1723   5.846   8.946   6.962
  118POPC   C3A 1724   5.894   8.722   6.559
  118POPC   C4A 1725   6.005   8.876   6.171
  118POPC   C1B 1726   5.495   8.689   7.241
  118POPC   C2B 1727   5.464   8.576   6.803
  118POPC   C3B 1728   5.378   8.621   6.372
  118POPC   C4B 1729   5.662   8.496   6.090
  119POPC   NC3 1730   1.186   8.995   8.165
  119POPC   PO4 1731   1.444   8.461   8.137
  119POPC   GL1 1732   1.378   8.488   7.730
  119POPC   GL2 1733   1.161   8.714   7.722
  119POPC   C1A 1734   1.334   8.398   7.298
  119POPC   D2A 1735   1.519   8.371   6.903
  119POPC   C3A 1736   1.267   8.316   6.558
  119POPC   C4A 1737   1.216   8.542   6.229
  119POPC   C1B 1738   1.097   8.886   7.339
  119POPC   C2B 1739   1.148   8.733   6.954
  119POPC   C3B 1740   1.047   8.987   6.650
  119POPC   C4B 1741   0.951   8.967   6.253
  120POPC   NC3 1742   2.753  10.318   8.388
  120POPC   PO4 1743   2.611   0.462   8.214
  120POPC   GL1 1744   2.816   0.426   7.808
  120POPC   GL2 1745   3.046   0.703   7.740
  120POPC   C1A 1746   2.624   0.266   7.414
  120POPC   D2A 1747   2.631   0.046   7.022
  120POPC   C3A 1748   2.753   0.289   6.678
  120POPC   C4A 1749   2.883   0.295   6.268
  120POPC   C1B 1750   2.894   0.707   7.305
  120POPC   C2B 1751   2.648   0.777   6.912
  120POPC   C3B 1752   2.705   0.761   6.478
  120POPC   C4B 1753   2.395   0.484   6.326
  121POPC   NC3 1754   4.246   7.884   8.333
  121POPC   PO4 1755   4.557   7.356   8.103
  121POPC   GL1 1756   4.294   7.394   7.716
  121POPC   GL2 1757   4.013   7.157   7.683
  121POPC   C1A 1758   4.245   7.321   7.244
  121POPC   D2A 1759   4.473   7.427   6.850
  121POPC   C3A 1760   4.374   7.228   6.450
  121POPC   C4A 1761   4.628   6.933   6.184
  121POPC   C1B 1762   3.982   6.868   7.294
  121POPC   C2B 1763   4.094   6.929   6.832
  121POPC   C3B 1764   4.034   6.850   6.369
  121POPC   C4B 1765   4.186   7.104   5.973
  122POPC   NC3 1766   7.922   3.412   8.224
  122POPC   PO4 1767   8.441   3.794   8.012
  122POPC   GL1 1768   8.179   3.586   7.692
  122POPC   GL2 1769   7.949   3.262   7.726
  122POPC   C1A 1770   8.199   3.395   7.294
  122POPC   D2A 1771   8.012   3.476   6.928
  122POPC   C3A 1772   8.190   3.408   6.577
  122POPC   C4A 1773   8.034   3.527   6.222
  122POPC   C1B 1774   7.719   3.179   7.330
  122POPC   C2B 1775   7.518   3.451   7.010
  122POPC   C3B 1776   7.631   3.556   6.587
  122POPC   C4B 1777   7.587   3.309   6.228
  123POPC   NC3 1778   2.530   8.370   8.423
  123POPC   PO4 1779   2.220   7.943   7.988
  123POPC   GL1 1780   2.530   7.808   7.678
  123POPC   GL2 1781   2.865   7.897   7.843
  123POPC   C1A 1782   2.547   7.928   7.243
  123POPC   D2A 1783   2.509   8.183   6.915
  123POPC   C3A 1784   2.598   7.930   6.583
  123POPC   C4A 1785   2.597   8.025   6.171
  123POPC   C1B 1786   2.999   7.889   7.407
  123POPC   C2B 1787   2.987   7.765   6.951
  123POPC   C3B 1788   2.934   7.553   6.527
  123POPC   C4B 1789   2.987   7.690   6.120
  124POPC   NC3 1790   2.458   8.303   7.825
  124POPC   PO4 1791   2.953   8.290   8.251
  124POPC   GL1 1792   3.017   8.386   7.768
  124POPC   GL2 1793   2.916   8.753   7.679
  124POPC   C1A 1794   2.903   8.411   7.291
  124POPC   D2A 1795   2.718   8.664   6.915
  124POPC   C3A 1796   2.665   8.463   6.478
  124POPC   C4A 1797   3.003   8.429   6.157
  124POPC   C1B 1798   2.760   9.031   7.304
  124POPC   C2B 1799   2.621   9.164   6.862
  124POPC   C3B 1800   2.762   9.078   6.455
  124POPC   C4B 1801   2.692   8.834   6.094
  125POPC   NC3 1802   7.823   6.457   8.148
  125POPC   PO4 1803   8.332   6.878   8.192
  125POPC   GL1 1804   8.120   6.723   7.758
  125POPC   GL2 1805   8.010   6.365   7.699
  125POPC   C1A 1806   8.193   6.552   7.289
  125POPC   D2A 1807   8.060   6.350   6.924
  125POPC   C3A 1808   8.029   6.517   6.509
  125POPC   C4A 1809   8.274   6.718   6.197
  125POPC   C1B 1810   7.710   6.412   7.302
  125POPC   C2B 1811   7.574   6.545   6.869
  125POPC   C3B 1812   7.536   6.372   6.438
  125POPC   C4B 1813   7.572   6.435   5.990
  126POPC   NC3 1814   2.565   5.828   7.931
  126POPC   PO4 1815   2.337   5.204   8.078
  126POPC   GL1 1816   2.408   5.289   7.682
  126POPC   GL2 1817   2.718   5.488   7.595
  126POPC   C1A 1818   2.311   5.472   7.300
  126POPC   D2A 1819   2.321   5.690   6.944
  126POPC   C3A 1820   2.560   5.541   6.638
  126POPC   C4A 1821   2.497   5.499   6.236
  126POPC   C1B 1822   2.660   5.868   7.286
  126POPC   C2B 1823   2.690   6.041   6.849
  126POPC   C3B 1824   2.737   5.971   6.413
  126POPC   C4B 1825   2.992   5.679   6.216
  127POPC   NC3 1826   9.361   9.504   8.125
  127POPC   PO4 1827   9.984   9.833   8.142
  127POPC   GL1 1828   9.816   9.691   7.703
  127POPC   GL2 1829   9.457   9.539   7.634
  127POPC   C1A 1830   9.808   9.547   7.275
  127POPC   D2A 1831   9.839   9.333   6.864
  127POPC   C3A 1832   9.800   9.569   6.484
  127POPC   C4A 1833   9.635   9.781   6.120
  127POPC   C1B 1834   9.301   9.417   7.219
  127POPC   C2B 1835   9.337   9.468   6.768
  127POPC   C3B 1836   9.273   9.495   6.333
  127POPC   C4B 1837   9.028   9.224   6.084
  128POPC   NC3 1838   4.678   1.283   7.944
  128POPC   PO4 1839   5.149   0.758   8.059
  128POPC   GL1 1840   5.197   0.861   7.621
  128POPC   GL2 1841   4.945   1.118   7.541
  128POPC   C1A 1842   5.281   0.940   7.178
  128POPC   D2A 1843   5.002   0.898   6.828
  128POPC   C3A 1844   5.106   0.859   6.365
  128POPC   C4A 1845   5.017   1.031   5.924
  128POPC   C1B 1846   5.162   1.449   7.273
  128POPC   C2B 1847   5.232   1.392   6.816
  128POPC   C3B 1848   4.859   1.289   6.540
  128POPC   C4B 1849   4.650   1.346   6.139
  129POPC   NC3 1850   8.634   9.825   8.175
  129POPC   PO4 1851   8.705  10.480   8.064
  129POPC   GL1 1852   8.819  10.205   7.751
  129POPC   GL2 1853   8.548   9.977   7.683
  129POPC   C1A 1854   9.004  10.258   7.343
  129POPC   D2A 1855   9.186  10.039   6.982
  129POPC   C3A 1856   8.996   9.857   6.623
  129POPC   C4A 1857   8.842  10.063   6.282
  129POPC   C1B 1858   8.526  10.101   7.255
  129POPC   C2B 1859   8.705  10.238   6.863
  129POPC   C3B 1860   8.617  10.463   6.488
  129POPC   C4B 1861   8.433  10.255   6.062
  130POPC   NC3 1862   3.438   3.403   8.124
  130POPC   PO4 1863   4.023   3.113   8.006
  130POPC   GL1 1864   3.790   3.327   7.701
  130POPC   GL2 1865   3.412   3.398   7.612
  130POPC   C1A 1866   3.752   3.217   7.277
  130POPC   D2A 1867   3.502   3.046   6.955
  130POPC   C3A 1868   3.455   3.344   6.619
  130POPC   C4A 1869   3.733   3.486   6.294
  130POPC   C1B 1870   3.323   3.507   7.152
  130POPC   C2B 1871   3.115   3.733   6.780
  130POPC   C3B 1872   3.224   3.837   6.364
  130POPC   C4B 1873   3.299   3.547   6.024
  131POPC   NC3 1874   5.252  10.092   7.983
  131POPC   PO4 1875   4.653   9.853   8.125
  131POPC   GL1 1876   4.767  10.122   7.712
  131POPC   GL2 1877   5.078  10.342   7.605
  131POPC   C1A 1878   4.952   9.978   7.263
  131POPC   D2A 1879   5.230   9.877   6.898
  131POPC   C3A 1880   5.103  10.040   6.500
  131POPC   C4A 1881   4.653  10.078   6.377
  131POPC   C1B 1882   5.249  10.376   7.202
  131POPC   C2B 1883   4.989  10.461   6.850
  131POPC   C3B 1884   4.738   0.067   6.489
  131POPC   C4B 1885   4.987  10.382   6.130
  132POPC   NC3 1886   6.531   7.622   8.037
  132POPC   PO4 1887   6.772   8.111   8.325
  132POPC   GL1 1888   6.665   8.055   7.785
  132POPC   GL2 1889   6.691   7.721   7.588
  132POPC   C1A 1890   6.682   8.058   7.239
  132POPC   D2A 1891   6.757   7.743   6.881
  132POPC   C3A 1892   6.728   7.977   6.532
  132POPC   C4A 1893   6.537   8.031   6.139
  132POPC   C1B 1894   6.283   7.773   7.376
  132POPC   C2B 1895   6.252   7.875   6.942
  132POPC   C3B 1896   6.281   7.730   6.502
  132POPC   C4B 1897   6.057   7.911   6.194
  133POPC   NC3 1898   5.442   1.040   8.277
  133POPC   PO4 1899   5.912   1.443   8.076
  133POPC   GL1 1900   5.853   1.412   7.659
  133POPC   GL2 1901   5.592   1.178   7.687
  133POPC   C1A 1902   5.691   1.478   7.252
  133POPC   D2A 1903   5.883   1.595   6.927
  133POPC   C3A 1904   5.694   1.540   6.579
  133POPC   C4A 1905   5.864   1.373   6.214
  133POPC   C1B 1906   5.791   0.989   7.312
  133POPC   C2B 1907   5.694   1.110   6.897
  133POPC   C3B 1908   5.589   1.037   6.472
  133POPC   C4B 1909   5.305   1.304   6.297
  134POPC   NC3 1910   4.749   7.706   7.891
  134POPC   PO4 1911   5.414   7.828   7.899
  134POPC   GL1 1912   5.172   8.009   7.602
  134POPC   GL2 1913   4.824   8.139   7.623
  134POPC   C1A 1914   5.175   7.751   7.234
  134POPC   D2A 1915   4.952   7.605   6.899
  134POPC   C3A 1916   5.156   7.616   6.522
  134POPC   C4A 1917   5.207   7.686   6.101
  134POPC   C1B 1918   4.768   8.060   7.188
  134POPC   C2B 1919   4.618   7.969   6.795
  134POPC   C3B 1920   4.784   7.933   6.402
  134POPC   C4B 1921   4.644   8.020   6.032
  135POPC   NC3 1922   1.045   8.230   8.086
  135POPC   PO4 1923   0.402   7.932   7.993
  135POPC   GL1 1924   0.713   8.000   7.654
  135POPC   GL2 1925   1.064   8.095   7.610
  135POPC   C1A 1926   0.723   7.987   7.243
  135POPC   D2A 1927   0.946   8.196   6.926
  135POPC   C3A 1928   0.800   8.104   6.480
  135POPC   C4A 1929   0.880   8.172   6.045
  135POPC   C1B 1930   1.245   7.874   7.276
  135POPC   C2B 1931   1.338   7.551   6.966
  135POPC   C3B 1932   1.177   7.814   6.670
  135POPC   C4B 1933   1.250   7.889   6.238
  136POPC   NC3 1934   8.677   6.518   8.132
  136POPC   PO4 1935   8.146   6.092   8.191
  136POPC   GL1 1936   8.497   6.117   7.826
  136POPC   GL2 1937   8.529   6.441   7.651
  136POPC   C1A 1938   8.587   6.063   7.343
  136POPC   D2A 1939   8.387   5.934   6.961
  136POPC   C3A 1940   8.409   6.177   6.601
  136POPC   C4A 1941   8.295   6.085   6.198
  136POPC   C1B 1942   8.674   6.637   7.244
  136POPC   C2B 1943   8.468   6.675   6.845
  136POPC   C3B 1944   8.697   6.580   6.489
  136POPC   C4B 1945   8.768   6.287   6.164
  137POPC   NC3 1946   5.727   7.520   7.979
  137POPC   PO4 1947   6.209   7.957   8.015
  137POPC   GL1 1948   5.880   7.964   7.638
  137POPC   GL2 1949   5.709   8.250   7.431
  137POPC   C1A 1950   5.768   7.797   7.194
  137POPC   D2A 1951   5.869   7.534   6.787
  137POPC   C3A 1952   5.644   7.601   6.385
  137POPC   C4A 1953   5.570   7.365   5.969
  137POPC   C1B 1954   5.303   8.236   7.177
  137POPC   C2B 1955   5.129   8.094   6.795
  137POPC   C3B 1956   5.279   8.115   6.371
  137POPC   C4B 1957   5.598   7.988   6.048
  138POPC   NC3 1958   8.390   5.636   8.081
  138POPC   PO4 1959   9.029   5.854   8.093
  138POPC   GL1 1960   8.871   5.738   7.677
  138POPC   GL2 1961   8.562   5.625   7.608
  138POPC   C1A 1962   8.914   5.657   7.225
  138POPC   D2A 1963   9.000   5.867   6.857
  138POPC   C3A 1964   8.792   5.878   6.474
  138POPC   C4A 1965   8.983   5.810   6.093
  138POPC   C1B 1966   8.475   5.416   7.237
  138POPC   C2B 1967   8.617   5.522   6.801
  138POPC   C3B 1968   8.713   5.375   6.403
  138POPC   C4B 1969   8.527   5.607   6.113
  139POPC   NC3 1970   3.828   8.096   7.891
  139POPC   PO4 1971   4.506   8.088   8.015
  139POPC   GL1 1972   4.283   7.917   7.638
  139POPC   GL2 1973   3.936   7.732   7.554
  139POPC   C1A 1974   4.302   7.817   7.190
  139POPC   D2A 1975   4.037   7.670   6.846
  139POPC   C3A 1976   4.290   7.740   6.470
  139POPC   C4A 1977   4.351   7.590   6.055
  139POPC   C1B 1978   3.821   8.017   7.203
  139POPC   C2B 1979   3.665   7.998   6.776
  139POPC   C3B 1980   3.851   8.103   6.392
  139POPC   C4B 1981   3.875   7.739   6.188
  140POPC   NC3 1982   3.346   8.055   8.214
  140POPC   PO4 1983   3.576   8.439   7.732
  140POPC   GL1 1984   3.423   8.173   7.502
  140POPC   GL2 1985   3.395   7.902   7.695
  140POPC   C1A 1986   3.315   8.176   7.089
  140POPC   D2A 1987   3.010   8.257   6.801
  140POPC   C3A 1988   3.096   8.043   6.476
  140POPC   C4A 1989   3.381   8.069   6.157
  140POPC   C1B 1990   3.440   7.709   7.273
  140POPC   C2B 1991   3.440   7.541   6.855
  140POPC   C3B 1992   3.438   7.641   6.415
  140POPC   C4B 1993   3.452   7.581   5.937
  141POPC   NC3 1994   3.492   9.727   8.063
  141POPC   PO4 1995   3.203   9.141   8.124
  141POPC   GL1 1996   3.214   9.403   7.749
  141POPC   GL2 1997   3.495   9.567   7.601
  141POPC   C1A 1998   3.138   9.392   7.290
  141POPC   D2A 1999   3.113   9.161   6.892
  141POPC   C3A 2000   3.250   9.358   6.522
  141POPC   C4A 2001   3.322   9.610   6.161
  141POPC   C1B 2002   3.654   9.360   7.263
  141POPC   C2B 2003   3.613   9.170   6.905
  141POPC   C3B 2004   3.576   8.933   6.581
  141POPC   C4B 2005   3.623   9.136   6.217
  142POPC   NC3 2006   3.437   6.106   7.972
  142POPC   PO4 2007   3.341   6.798   8.052
  142POPC   GL1 2008   3.122   6.676   7.659
  142POPC   GL2 2009   3.288   6.368   7.535
  142POPC   C1A 2010   3.256   6.753   7.205
  142POPC   D2A 2011   3.211   6.753   6.762
  142POPC   C3A 2012   3.479   6.689   6.392
  142POPC   C4A 2013   3.410   6.466   5.991
  142POPC   C1B 2014   3.583   6.366   7.145
  142POPC   C2B 2015   3.709   6.340   6.683
  142POPC   C3B 2016   3.844   6.340   6.228
  142POPC   C4B 2017   3.646   5.999   5.940
  143POPC   NC3 2018   1.960   2.504   8.118
  143POPC   PO4 2019   1.663   3.133   8.088
  143POPC   GL1 2020   1.752   2.939   7.685
  143POPC   GL2 2021   2.034   2.735   7.661
  143POPC   C1A 2022   1.679   2.659   7.327
  143POPC   D2A 2023   1.517   2.656   6.917
  143POPC   C3A 2024   1.716   2.820   6.561
  143POPC   C4A 2025   1.635   2.618   6.177
  143POPC   C1B 2026   2.247   2.574   7.264
  143POPC   C2B 2027   2.354   2.566   6.794
  143POPC   C3B 2028   2.340   2.659   6.344
  143POPC   C4B 2029   2.101   2.969   6.121
  144POPC   NC3 2030   2.722   3.175   8.118
  144POPC   PO4 2031   2.407   3.718   8.360
  144POPC   GL1 2032   2.540   3.580   7.868
  144POPC   GL2 2033   2.837   3.395   7.683
  144POPC   C1A 2034   2.399   3.565   7.411
  144POPC   D2A 2035   2.394   3.364   6.980
  144POPC   C3A 2036   2.583   3.576   6.652
  144POPC   C4A 2037   2.494   3.782   6.271
  144POPC   C1B 2038   2.841   3.394   7.234
  144POPC   C2B 2039   2.978   3.266   6.848
  144POPC   C3B 2040   2.978   3.374   6.391
  144POPC   C4B 2041   2.911   3.206   5.931
  145POPC   NC3 2042   0.735   2.664   8.137
  145POPC   PO4 2043   0.155   2.827   8.236
  145POPC   GL1 2044   0.364   2.965   7.841
  145POPC   GL2 2045   0.421   2.626   7.735
  145POPC   C1A 2046   0.500   3.150   7.418
  145POPC   D2A 2047   0.690   3.015   7.031
  145POPC   C3A 2048   0.563   3.072   6.602
  145POPC   C4A 2049   0.354   2.976   6.193
  145POPC   C1B 2050   0.546   2.624   7.317
  145POPC   C2B 2051   0.644   2.511   6.898
  145POPC   C3B 2052   0.494   2.571   6.488
  145POPC   C4B 2053   0.627   2.392   6.126
  146POPC   NC3 2054   7.885   8.815   8.200
  146POPC   PO4 2055   8.462   8.822   7.933
  146POPC   GL1 2056   8.254   8.600   7.696
  146POPC   GL2 2057   7.910   8.661   7.727
  146POPC   C1A 2058   8.130   8.435   7.331
  146POPC   D2A 2059   8.089   8.648   6.967
  146POPC   C3A 2060   8.150   8.525   6.565
  146POPC   C4A 2061   8.170   8.799   6.222
  146POPC   C1B 2062   8.027   8.990   7.414
  146POPC   C2B 2063   7.859   9.088   7.002
  146POPC   C3B 2064   7.782   8.918   6.575
  146POPC   C4B 2065   7.725   8.585   6.239
  147POPC   NC3 2066   1.206   9.762   8.318
  147POPC   PO4 2067   0.881   9.336   8.072
  147POPC   GL1 2068   1.259   9.496   7.843
  147POPC   GL2 2069   1.208   9.228   7.682
  147POPC   C1A 2070   1.476   9.512   7.385
  147POPC   D2A 2071   1.284   9.265   7.026
  147POPC   C3A 2072   1.400   9.351   6.577
  147POPC   C4A 2073   1.422   9.104   6.199
  147POPC   C1B 2074   0.988   9.541   7.361
  147POPC   C2B 2075   0.832   9.592   6.954
  147POPC   C3B 2076   0.856   9.436   6.532
  147POPC   C4B 2077   0.834   9.436   6.095
  148POPC   NC3 2078   9.650   4.447   7.999
  148POPC   PO4 2079   9.456   5.031   8.230
  148POPC   GL1 2080   9.506   4.915   7.797
  148POPC   GL2 2081   9.245   4.655   7.732
  148POPC   C1A 2082   9.805   4.792   7.447
  148POPC   D2A 2083   9.692   4.625   7.029
  148POPC   C3A 2084   9.702   4.925   6.683
  148POPC   C4A 2085   9.804   4.894   6.255
  148POPC   C1B 2086   9.315   4.827   7.329
  148POPC   C2B 2087   9.208   4.849   6.920
  148POPC   C3B 2088   9.224   5.021   6.533
  148POPC   C4B 2089   9.312   4.807   6.169
  149POPC   NC3 2090   0.961   1.335   7.803
  149POPC   PO4 2091   1.538   1.351   7.975
  149POPC   GL1 2092   1.336   1.068   7.586
  149POPC   GL2 2093   0.916   0.962   7.479
  149POPC   C1A 2094   1.288   0.888   7.168
  149POPC   D2A 2095   1.109   1.072   6.792
  149POPC   C3A 2096   1.380   0.995   6.421
  149POPC   C4A 2097   1.487   1.275   6.072
  149POPC   C1B 2098   0.774   1.317   7.178
  149POPC   C2B 2099   0.690   1.519   6.777
  149POPC   C3B 2100   0.909   1.392   6.436
  149POPC   C4B 2101   0.874   0.956   6.315
  150POPC   NC3 2102   7.929   7.172   8.246
  150POPC   PO4 2103   8.215   7.712   7.988
  150POPC   GL1 2104   7.994   7.483   7.669
  150POPC   GL2 2105   7.831   7.154   7.740
  150POPC   C1A 2106   8.024   7.421   7.240
  150POPC   D2A 2107   7.865   7.507   6.850
  150POPC   C3A 2108   8.031   7.507   6.435
  150POPC   C4A 2109   7.850   7.673   6.054
  150POPC   C1B 2110   7.853   6.932   7.350
  150POPC   C2B 2111   7.987   6.862   6.940
  150POPC   C3B 2112   7.965   7.017   6.542
  150POPC   C4B 2113   7.674   6.878   6.233
  151POPC   NC3 2114   5.903   9.917   8.121
  151POPC   PO4 2115   5.511  10.484   8.001
  151POPC   GL1 2116   5.638  10.308   7.636
  151POPC   GL2 2117   5.668   9.936   7.680
  151POPC   C1A 2118   5.744  10.492   7.238
  151POPC   D2A 2119   5.500   0.152   6.860
  151POPC   C3A 2120   5.397   0.052   6.432
  151POPC   C4A 2121   5.765   0.080   6.171
  151POPC   C1B 2122   5.573   9.973   7.262
  151POPC   C2B 2123   5.666  10.157   6.868
  151POPC   C3B 2124   5.644  10.129   6.455
  151POPC   C4B 2125   5.497   9.841   6.184
  152POPC   NC3 2126   6.269   2.532   8.063
  152POPC   PO4 2127   6.907   2.444   8.182
  152POPC   GL1 2128   6.743   2.581   7.741
  152POPC   GL2 2129   6.365   2.601   7.582
  152POPC   C1A 2130   6.731   2.481   7.286
  152POPC   D2A 2131   6.413   2.618   6.989
  152POPC   C3A 2132   6.625   2.688   6.624
  152POPC   C4A 2133   6.805   2.437   6.305
  152POPC   C1B 2134   6.071   2.819   7.316
  152POPC   C2B 2135   5.997   2.909   6.853
  152POPC   C3B 2136   6.170   2.796   6.442
  152POPC   C4B 2137   6.295   2.356   6.345
  153POPC   NC3 2138  10.209   5.910   8.004
  153POPC   PO4 2139   0.102   6.437   8.216
  153POPC   GL1 2140  10.317   6.421   7.804
  153POPC   GL2 2141   9.949   6.308   7.755
  153POPC   C1A 2142  10.307   6.255   7.360
  153POPC   D2A 2143   0.080   6.285   6.991
  153POPC   C3A 2144  10.372   6.205   6.607
  153POPC   C4A 2145  10.445   6.380   6.200
  153POPC   C1B 2146   9.864   6.499   7.321
  153POPC   C2B 2147  10.109   6.541   6.926
  153POPC   C3B 2148  10.091   6.647   6.486
  153POPC   C4B 2149  10.006   6.612   6.014
  154POPC   NC3 2150   8.153   4.993   8.023
  154POPC   PO4 2151   7.727   4.491   7.942
  154POPC   GL1 2152   7.893   4.580   7.566
  154POPC   GL2 2153   8.214   4.668   7.626
  154POPC   C1A 2154   7.794   4.618   7.124
  154POPC   D2A 2155   7.856   4.872   6.757
  154POPC   C3A 2156   7.527   4.900   6.446
  154POPC   C4A 2157   7.476   5.011   5.999
  154POPC   C1B 2158   8.096   5.020   7.291
  154POPC   C2B 2159   8.185   5.247   6.869
  154POPC   C3B 2160   8.269   5.095   6.469
  154POPC   C4B 2161   7.999   4.821   6.262
  155POPC   NC3 2162   6.360   8.344   8.233
  155POPC   PO4 2163   6.739   8.825   7.996
  155POPC   GL1 2164   6.541   8.869   7.604
  155POPC   GL2 2165   6.496   8.517   7.636
  155POPC   C1A 2166   6.542   8.805   7.138
  155POPC   D2A 2167   6.331   8.928   6.738
  155POPC   C3A 2168   6.481   8.871   6.299
  155POPC   C4A 2169   6.416   8.908   5.818
  155POPC   C1B 2170   6.226   8.299   7.363
  155POPC   C2B 2171   6.150   8.434   6.933
  155POPC   C3B 2172   6.395   8.413   6.540
  155POPC   C4B 2173   6.778   8.453   6.282
  156POPC   NC3 2174   9.541   0.690   8.349
  156POPC   PO4 2175   9.583   1.329   8.069
  156POPC   GL1 2176   9.451   1.317   7.638
  156POPC   GL2 2177   9.769   1.221   7.542
  156POPC   C1A 2178   9.327   1.083   7.266
  156POPC   D2A 2179   9.166   0.890   6.918
  156POPC   C3A 2180   9.021   1.277   6.694
  156POPC   C4A 2181   8.956   1.336   6.255
  156POPC   C1B 2182   9.801   1.188   7.095
  156POPC   C2B 2183   9.517   1.235   6.755
  156POPC   C3B 2184   9.472   1.172   6.316
  156POPC   C4B 2185   9.682   1.037   5.943
  157POPC   NC3 2186   1.730   4.301   8.145
  157POPC   PO4 2187   2.163   3.909   7.922
  157POPC   GL1 2188   1.833   4.063   7.684
  157POPC   GL2 2189   1.811   4.445   7.671
  157POPC   C1A 2190   1.818   3.881   7.293
  157POPC   D2A 2191   2.123   3.795   6.976
  157POPC   C3A 2192   1.944   3.840   6.585
  157POPC   C4A 2193   2.010   3.925   6.196
  157POPC   C1B 2194   1.996   4.358   7.270
  157POPC   C2B 2195   1.833   4.233   6.879
  157POPC   C3B 2196   1.879   4.368   6.443
  157POPC   C4B 2197   1.980   4.379   5.965
  158POPC   NC3 2198   4.008   1.807   8.041
  158POPC   PO4 2199   4.562   1.662   7.714
  158POPC   GL1 2200   4.423   2.018   7.496
  158POPC   GL2 2201   4.081   2.021   7.586
  158POPC   C1A 2202   4.222   2.030   7.086
  158POPC   D2A 2203   4.135   2.331   6.781
  158POPC   C3A 2204   4.337   2.233   6.426
  158POPC   C4A 2205   4.528   1.831   6.316
  158POPC   C1B 2206   3.980   1.637   7.362
  158POPC   C2B 2207   4.053   1.365   7.007
  158POPC   C3B 2208   4.203   1.573   6.647
  158POPC   C4B 2209   3.996   1.837   6.366
  159POPC   NC3 2210   2.787   2.675   8.341
  159POPC   PO4 2211   2.358   2.442   7.890
  159POPC   GL1 2212   2.584   2.764   7.819
  159POPC   GL2 2213   2.880   2.635   7.836
  159POPC   C1A 2214   2.669   2.979   7.470
  159POPC   D2A 2215   2.573   2.909   7.074
  159POPC   C3A 2216   2.674   2.935   6.653
  159POPC   C4A 2217   2.549   3.139   6.297
  159POPC   C1B 2218   2.832   2.501   7.399
  159POPC   C2B 2219   2.804   2.339   6.988
  159POPC   C3B 2220   2.916   2.471   6.595
  159POPC   C4B 2221   2.847   2.729   6.221
  160POPC   NC3 2222   7.282   3.573   8.082
  160POPC   PO4 2223   6.766   3.350   8.328
  160POPC   GL1 2224   6.948   3.333   7.795
  160POPC   GL2 2225   7.343   3.364   7.645
  160POPC   C1A 2226   6.968   3.535   7.314
  160POPC   D2A 2227   7.059   3.663   6.860
  160POPC   C3A 2228   6.756   3.641   6.448
  160POPC   C4A 2229   6.837   3.728   5.983
  160POPC   C1B 2230   7.176   3.068   7.384
  160POPC   C2B 2231   7.122   3.159   6.962
  160POPC   C3B 2232   7.175   3.295   6.540
  160POPC   C4B 2233   7.229   3.673   6.307
  161POPC   NC3 2234   6.531   3.584   8.020
  161POPC   PO4 2235   6.444   2.946   7.986
  161POPC   GL1 2236   6.554   3.075   7.588
  161POPC   GL2 2237   6.504   3.423   7.512
  161POPC   C1A 2238   6.688   3.012   7.178
  161POPC   D2A 2239   6.661   3.305   6.829
  161POPC   C3A 2240   6.526   3.177   6.417
  161POPC   C4A 2241   6.413   3.425   6.062
  161POPC   C1B 2242   6.247   3.279   7.141
  161POPC   C2B 2243   6.155   3.383   6.690
  161POPC   C3B 2244   5.971   3.593   6.327
  161POPC   C4B 2245   5.858   4.010   6.106
  162POPC   NC3 2246   3.477   2.168   8.210
  162POPC   PO4 2247   2.913   1.990   8.148
  162POPC   GL1 2248   3.218   1.853   7.786
  162POPC   GL2 2249   3.567   1.991   7.715
  162POPC   C1A 2250   3.178   2.015   7.321
  162POPC   D2A 2251   3.209   2.053   6.839
  162POPC   C3A 2252   3.162   1.669   6.621
  162POPC   C4A 2253   3.025   1.607   6.195
  162POPC   C1B 2254   3.696   2.122   7.264
  162POPC   C2B 2255   3.723   2.026   6.804
  162POPC   C3B 2256   3.512   1.974   6.397
  162POPC   C4B 2257   3.720   2.252   6.112
  163POPC   NC3 2258   3.742   7.046   8.123
  163POPC   PO4 2259   3.614   7.689   8.094
  163POPC   GL1 2260   3.556   7.403   7.696
  163POPC   GL2 2261   3.505   7.030   7.610
  163POPC   C1A 2262   3.733   7.311   7.265
  163POPC   D2A 2263   3.601   7.061   6.923
  163POPC   C3A 2264   3.798   7.277   6.579
  163POPC   C4A 2265   3.749   7.252   6.167
  163POPC   C1B 2266   3.217   7.252   7.281
  163POPC   C2B 2267   3.037   7.209   6.881
  163POPC   C3B 2268   3.281   7.169   6.472
  163POPC   C4B 2269   3.321   7.024   6.036
  164POPC   NC3 2270   1.898   5.030   8.156
  164POPC   PO4 2271   1.382   4.590   8.022
  164POPC   GL1 2272   1.577   4.914   7.729
  164POPC   GL2 2273   1.962   4.945   7.673
  164POPC   C1A 2274   1.700   4.781   7.287
  164POPC   D2A 2275   1.975   4.741   6.906
  164POPC   C3A 2276   1.769   4.881   6.556
  164POPC   C4A 2277   1.652   4.748   6.163
  164POPC   C1B 2278   2.177   4.993   7.301
  164POPC   C2B 2279   2.374   5.117   6.907
  164POPC   C3B 2280   2.234   5.129   6.490
  164POPC   C4B 2281   2.158   4.759   6.252
  165POPC   NC3 2282   6.991   8.415   7.998
  165POPC   PO4 2283   7.419   8.902   8.196
  165POPC   GL1 2284   7.213   8.851   7.805
  165POPC   GL2 2285   7.402   8.587   7.668
  165POPC   C1A 2286   7.032   8.836   7.382
  165POPC   D2A 2287   6.992   8.565   7.007
  165POPC   C3A 2288   6.823   8.763   6.674
  165POPC   C4A 2289   6.973   8.956   6.301
  165POPC   C1B 2290   7.658   8.641   7.278
  165POPC   C2B 2291   7.603   8.514   6.842
  165POPC   C3B 2292   7.320   8.669   6.546
  165POPC   C4B 2293   7.243   8.545   6.111
  166POPC   NC3 2294   3.101   0.508   8.237
  166POPC   PO4 2295   3.665   0.820   8.414
  166POPC   GL1 2296   3.503   0.612   7.940
  166POPC   GL2 2297   3.384   0.268   7.841
  166POPC   C1A 2298   3.586   0.554   7.457
  166POPC   D2A 2299   3.342   0.671   7.055
  166POPC   C3A 2300   3.369   0.500   6.624
  166POPC   C4A 2301   3.229   0.638   6.234
  166POPC   C1B 2302   3.157   0.280   7.428
  166POPC   C2B 2303   3.154   0.160   6.965
  166POPC   C3B 2304   3.207  10.482   6.519
  166POPC   C4B 2305   3.418   0.122   6.125
  167POPC   NC3 2306   3.916   8.911   8.220
  167POPC   PO4 2307   4.454   9.056   7.766
  167POPC   GL1 2308   4.313   8.742   7.563
  167POPC   GL2 2309   4.211   8.446   7.757
  167POPC   C1A 2310   4.262   8.783   7.146
  167POPC   D2A 2311   4.056   8.925   6.814
  167POPC   C3A 2312   3.995   8.635   6.481
  167POPC   C4A 2313   4.020   8.862   6.097
  167POPC   C1B 2314   4.229   8.306   7.300
  167POPC   C2B 2315   4.153   8.185   6.839
  167POPC   C3B 2316   4.354   8.247   6.442
  167POPC   C4B 2317   4.396   8.490   6.099
  168POPC   NC3 2318   9.940   2.347   8.236
  168POPC   PO4 2319  10.429   1.858   8.138
  168POPC   GL1 2320   0.065   1.875   7.716
  168POPC   GL2 2321  10.249   2.061   7.639
  168POPC   C1A 2322   0.015   1.833   7.266
  168POPC   D2A 2323  10.328   2.048   6.950
  168POPC   C3A 2324  10.443   1.851   6.631
  168POPC   C4A 2325  10.330   1.708   6.268
  168POPC   C1B 2326   9.967   1.919   7.290
  168POPC   C2B 2327   9.827   2.141   6.887
  168POPC   C3B 2328  10.007   2.098   6.493
  168POPC   C4B 2329  10.199   2.324   6.160
  169POPC   NC3 2330   1.334   7.274   8.150
  169POPC   PO4 2331   0.952   7.780   8.024
  169POPC   GL1 2332   1.009   7.570   7.609
  169POPC   GL2 2333   1.318   7.401   7.645
  169POPC   C1A 2334   0.875   7.511   7.144
  169POPC   D2A 2335   0.865   7.385   6.698
  169POPC   C3A 2336   1.216   7.366   6.458
  169POPC   C4A 2337   1.149   7.410   6.038
  169POPC   C1B 2338   1.156   7.148   7.344
  169POPC   C2B 2339   1.180   7.062   6.932
  169POPC   C3B 2340   1.006   6.885   6.581
  169POPC   C4B 2341   1.179   6.937   6.187
  170POPC   NC3 2342  10.321   3.050   8.009
  170POPC   PO4 2343   9.807   2.598   7.882
  170POPC   GL1 2344  10.141   2.571   7.656
  170POPC   GL2 2345  10.432   2.550   7.823
  170POPC   C1A 2346  10.158   2.443   7.245
  170POPC   D2A 2347   9.881   2.633   6.956
  170POPC   C3A 2348  10.061   2.623   6.568
  170POPC   C4A 2349   9.862   2.719   6.183
  170POPC   C1B 2350   0.032   2.794   7.411
  170POPC   C2B 2351  10.355   2.879   6.985
  170POPC   C3B 2352   0.047   2.839   6.598
  170POPC   C4B 2353  10.353   2.867   6.200
  171POPC   NC3 2354  10.103   9.406   8.030
  171POPC   PO4 2355   0.031   8.826   7.938
  171POPC   GL1 2356  10.338   9.172   7.654
  171POPC   GL2 2357  10.432   9.584   7.696
  171POPC   C1A 2358  10.152   9.202   7.260
  171POPC   D2A 2359  10.348   9.227   6.870
  171POPC   C3A 2360  10.156   9.203   6.460
  171POPC   C4A 2361   0.032   9.040   6.227
  171POPC   C1B 2362  10.429   9.614   7.267
  171POPC   C2B 2363  10.182   9.706   6.943
  171POPC   C3B 2364  10.392   9.645   6.564
  171POPC   C4B 2365  10.358   9.517   6.129
  172POPC   NC3 2366   0.058   6.857   8.004
  172POPC   PO4 2367   9.929   7.155   8.038
  172POPC   GL1 2368  10.188   7.046   7.711
  172POPC   GL2 2369  10.269   7.346   7.596
  172POPC   C1A 2370  10.181   6.931   7.284
  172POPC   D2A 2371   9.997   7.065   6.896
  172POPC   C3A 2372  10.319   7.108   6.592
  172POPC   C4A 2373  10.324   6.986   6.199
  172POPC   C1B 2374   9.960   7.416   7.320
  172POPC   C2B 2375   9.888   7.589   6.930
  172POPC   C3B 2376   9.943   7.448   6.523
  172POPC   C4B 2377  10.080   7.425   6.127
  173POPC   NC3 2378   8.621   2.467   8.110
  173POPC   PO4 2379   8.193   3.031   8.128
  173POPC   GL1 2380   8.515   2.859   7.768
  173POPC   GL2 2381   8.487   2.496   7.607
  173POPC   C1A 2382   8.694   2.894   7.324
  173POPC   D2A 2383   8.495   2.708   6.924
  173POPC   C3A 2384   8.457   2.948   6.517
  173POPC   C4A 2385   8.793   2.937   6.202
  173POPC   C1B 2386   8.771   2.369   7.233
  173POPC   C2B 2387   8.890   2.333   6.792
  173POPC   C3B 2388   8.673   2.496   6.448
  173POPC   C4B 2389   8.340   2.470   6.158
  174POPC   NC3 2390   6.323   0.677   3.891
  174POPC   PO4 2391   6.820   0.180   3.850
  174POPC   GL1 2392   6.676   0.437   4.170
  174POPC   GL2 2393   6.336   0.299   4.227
  174POPC   C1A 2394   6.749   0.508   4.591
  174POPC   D2A 2395   6.726   0.197   4.935
  174POPC   C3A 2396   6.659   0.378   5.332
  174POPC   C4A 2397   6.602   0.227   5.755
  174POPC   C1B 2398   6.242   0.454   4.631
  174POPC   C2B 2399   6.208   0.294   5.047
  174POPC   C3B 2400   6.172   0.414   5.483
  174POPC   C4B 2401   6.325   0.673   5.861
  175POPC   NC3 2402   5.619   2.179   3.939
  175POPC   PO4 2403   6.018   1.612   3.903
  175POPC   GL1 2404   6.074   1.720   4.328
  175POPC   GL2 2405   5.726   1.844   4.322
  175POPC   C1A 2406   5.936   1.739   4.776
  175POPC   D2A 2407   5.633   1.824   5.103
  175POPC   C3A 2408   5.815   1.969   5.484
  175POPC   C4A 2409   5.870   1.689   5.813
  175POPC   C1B 2410   5.605   2.115   4.673
  175POPC   C2B 2411   5.276   2.173   4.989
  175POPC   C3B 2412   5.335   2.257   5.389
  175POPC   C4B 2413   5.300   2.340   5.799
  176POPC   NC3 2414  10.482   9.526   3.973
  176POPC   PO4 2415   0.576   9.863   3.760
  176POPC   GL1 2416   0.573   9.605   4.139
  176POPC   GL2 2417   0.419   9.281   4.093
  176POPC   C1A 2418   0.772   9.629   4.542
  176POPC   D2A 2419   0.905   9.625   4.967
  176POPC   C3A 2420   0.659   9.383   5.208
  176POPC   C4A 2421   0.641   9.372   5.630
  176POPC   C1B 2422   0.231   9.249   4.529
  176POPC   C2B 2423   0.177   9.369   4.962
  176POPC   C3B 2424   0.200   9.222   5.368
  176POPC   C4B 2425   0.150   9.342   5.777
  177POPC   NC3 2426   3.531   0.987   3.743
  177POPC   PO4 2427   3.424   0.349   3.961
  177POPC   GL1 2428   3.474   0.409   4.340
  177POPC   GL2 2429   3.658   0.138   4.387
  177POPC   C1A 2430   3.488   0.519   4.746
  177POPC   D2A 2431   3.676   0.533   5.115
  177POPC   C3A 2432   3.620   0.793   5.458
  177POPC   C4A 2433   3.558   0.563   5.856
  177POPC   C1B 2434   3.316   0.040   4.663
  177POPC   C2B 2435   3.193   0.216   5.055
  177POPC   C3B 2436   3.251   0.443   5.415
  177POPC   C4B 2437   3.096   0.369   5.807
  178POPC   NC3 2438   2.937   4.338   3.955
  178POPC   PO4 2439   2.359   4.138   4.078
  178POPC   GL1 2440   2.592   4.277   4.381
  178POPC   GL2 2441   2.922   4.152   4.411
  178POPC   C1A 2442   2.638   4.315   4.802
  178POPC   D2A 2443   2.486   4.136   5.124
  178POPC   C3A 2444   2.621   4.338   5.493
  178POPC   C4A 2445   2.982   4.483   5.730
  178POPC   C1B 2446   2.989   3.876   4.738
  178POPC   C2B 2447   2.981   3.973   5.145
  178POPC   C3B 2448   3.227   4.100   5.476
  178POPC   C4B 2449   3.280   4.043   5.898
  179POPC   NC3 2450   9.538   8.010   3.637
  179POPC   PO4 2451   8.945   8.097   3.918
  179POPC   GL1 2452   9.047   8.107   4.340
  179POPC   GL2 2453   9.378   7.902   4.369
  179POPC   C1A 2454   9.084   7.949   4.761
  179POPC   D2A 2455   9.436   7.964   5.025
  179POPC   C3A 2456   9.232   7.894   5.397
  179POPC   C4A 2457   9.492   7.947   5.707
  179POPC   C1B 2458   9.664   7.653   4.657
  179POPC   C2B 2459   9.953   7.600   4.996
  179POPC   C3B 2460   9.841   7.691   5.386
  179POPC   C4B 2461   9.792   7.518   5.727
  180POPC   NC3 2462   9.385   6.463   3.826
  180POPC   PO4 2463   9.860   6.875   3.913
  180POPC   GL1 2464   9.704   6.625   4.251
  180POPC   GL2 2465   9.358   6.561   4.330
  180POPC   C1A 2466   9.697   6.594   4.706
  180POPC   D2A 2467   9.673   6.361   5.134
  180POPC   C3A 2468   9.693   6.608   5.547
  180POPC   C4A 2469   9.492   6.640   5.991
  180POPC   C1B 2470   9.322   6.267   4.744
  180POPC   C2B 2471   9.187   6.216   5.156
  180POPC   C3B 2472   9.211   6.403   5.525
  180POPC   C4B 2473   9.208   6.219   5.909
  181POPC   NC3 2474   3.145   7.321   4.091
  181POPC   PO4 2475   3.781   7.531   3.934
  181POPC   GL1 2476   3.670   7.387   4.401
  181POPC   GL2 2477   3.306   7.431   4.552
  181POPC   C1A 2478   3.660   7.439   4.907
  181POPC   D2A 2479   3.390   7.283   5.271
  181POPC   C3A 2480   3.617   7.144   5.647
  181POPC   C4A 2481   3.769   6.800   5.935
  181POPC   C1B 2482   3.171   7.042   4.786
  181POPC   C2B 2483   3.122   6.831   5.196
  181POPC   C3B 2484   3.040   7.016   5.594
  181POPC   C4B 2485   3.050   7.449   5.673
  182POPC   NC3 2486   9.659   9.937   3.881
  182POPC   PO4 2487   9.019   9.813   4.162
  182POPC   GL1 2488   9.128  10.080   4.431
  182POPC   GL2 2489   9.369  10.231   4.202
  182POPC   C1A 2490   9.212   9.958   4.865
  182POPC   D2A 2491   9.493   9.938   5.219
  182POPC   C3A 2492   9.453   9.953   5.676
  182POPC   C4A 2493   9.301  10.156   6.086
  182POPC   C1B 2494   9.551  10.354   4.580
  182POPC   C2B 2495   9.538  10.406   5.000
  182POPC   C3B 2496   9.699  10.385   5.411
  182POPC   C4B 2497   9.537  10.497   5.805
  183POPC   NC3 2498   9.276   2.911   3.793
  183POPC   PO4 2499   9.610   2.518   4.067
  183POPC   GL1 2500   9.311   2.599   4.325
  183POPC   GL2 2501   9.049   2.811   4.233
  183POPC   C1A 2502   9.532   2.717   4.701
  183POPC   D2A 2503   9.574   2.501   5.046
  183POPC   C3A 2504   9.452   2.714   5.388
  183POPC   C4A 2505   9.611   2.575   5.759
  183POPC   C1B 2506   9.082   2.925   4.653
  183POPC   C2B 2507   9.256   3.033   5.021
  183POPC   C3B 2508   9.035   3.039   5.367
  183POPC   C4B 2509   9.130   2.853   5.755
  184POPC   NC3 2510   8.808   7.641   4.046
  184POPC   PO4 2511   8.405   8.146   4.103
  184POPC   GL1 2512   8.525   8.037   4.447
  184POPC   GL2 2513   8.671   7.753   4.501
  184POPC   C1A 2514   8.632   8.161   4.818
  184POPC   D2A 2515   8.574   7.965   5.203
  184POPC   C3A 2516   8.583   8.151   5.571
  184POPC   C4A 2517   8.954   8.168   5.767
  184POPC   C1B 2518   8.697   7.586   4.872
  184POPC   C2B 2519   8.462   7.474   5.217
  184POPC   C3B 2520   8.472   7.456   5.619
  184POPC   C4B 2521   8.798   7.695   5.743
  185POPC   NC3 2522   4.669   0.572   3.809
  185POPC   PO4 2523   5.305   0.168   3.891
  185POPC   GL1 2524   5.087   0.270   4.269
  185POPC   GL2 2525   4.787   0.431   4.268
  185POPC   C1A 2526   5.184   0.542   4.654
  185POPC   D2A 2527   5.070   0.743   5.032
  185POPC   C3A 2528   5.109   0.467   5.354
  185POPC   C4A 2529   4.995   0.535   5.754
  185POPC   C1B 2530   4.672   0.385   4.673
  185POPC   C2B 2531   4.639   0.405   5.104
  185POPC   C3B 2532   4.654   0.228   5.517
  185POPC   C4B 2533   4.627   0.176   5.968
  186POPC   NC3 2534   5.691  10.404   3.844
  186POPC   PO4 2535   5.324  10.011   3.578
  186POPC   GL1 2536   5.400  10.214   4.178
  186POPC   GL2 2537   5.731  10.174   4.319
  186POPC   C1A 2538   5.375  10.087   4.661
  186POPC   D2A 2539   5.518  10.083   5.087
  186POPC   C3A 2540   5.317  10.292   5.459
  186POPC   C4A 2541   5.413  10.253   5.912
  186POPC   C1B 2542   5.833  10.383   4.734
  186POPC   C2B 2543   5.871  10.445   5.185
  186POPC   C3B 2544   5.799  10.317   5.591
  186POPC   C4B 2545   5.890  10.136   6.015
  187POPC   NC3 2546  10.423   7.928   4.010
  187POPC   PO4 2547   9.922   8.239   3.762
  187POPC   GL1 2548   9.910   8.050   4.159
  187POPC   GL2 2549  10.011   7.695   4.244
  187POPC   C1A 2550   9.836   8.113   4.584
  187POPC   D2A 2551  10.042   8.114   4.957
  187POPC   C3A 2552   9.847   8.175   5.297
  187POPC   C4A 2553   9.890   8.235   5.712
  187POPC   C1B 2554  10.273   7.739   4.616
  187POPC   C2B 2555  10.475   7.834   5.010
  187POPC   C3B 2556  10.300   7.926   5.392
  187POPC   C4B 2557  10.213   7.802   5.797
  188POPC   NC3 2558   2.811   1.574   3.937
  188POPC   PO4 2559   2.698   0.908   3.856
  188POPC   GL1 2560   2.573   1.183   4.144
  188POPC   GL2 2561   2.953   1.195   4.262
  188POPC   C1A 2562   2.543   1.205   4.558
  188POPC   D2A 2563   2.734   0.980   4.882
  188POPC   C3A 2564   2.408   0.848   5.177
  188POPC   C4A 2565   2.369   0.982   5.601
  188POPC   C1B 2566   3.055   1.433   4.636
  188POPC   C2B 2567   2.932   1.447   5.060
  188POPC   C3B 2568   2.731   1.215   5.348
  188POPC   C4B 2569   2.793   1.252   5.787
  189POPC   NC3 2570   5.631   8.825   3.863
  189POPC   PO4 2571   6.164   8.302   3.855
  189POPC   GL1 2572   5.839   8.396   4.202
  189POPC   GL2 2573   5.746   8.730   4.339
  189POPC   C1A 2574   5.827   8.355   4.662
  189POPC   D2A 2575   6.027   8.452   5.046
  189POPC   C3A 2576   5.832   8.179   5.317
  189POPC   C4A 2577   5.583   8.271   5.640
  189POPC   C1B 2578   5.550   8.996   4.672
  189POPC   C2B 2579   5.697   9.051   5.082
  189POPC   C3B 2580   5.596   8.843   5.454
  189POPC   C4B 2581   5.613   8.980   5.879
  190POPC   NC3 2582   7.292   1.264   3.892
  190POPC   PO4 2583   6.714   0.909   3.883
  190POPC   GL1 2584   6.998   0.881   4.257
  190POPC   GL2 2585   7.070   1.221   4.335
  190POPC   C1A 2586   6.941   0.957   4.734
  190POPC   D2A 2587   7.050   1.121   5.145
  190POPC   C3A 2588   6.894   0.842   5.477
  190POPC   C4A 2589   7.119   0.823   5.912
  190POPC   C1B 2590   7.227   1.378   4.726
  190POPC   C2B 2591   7.090   1.654   4.986
  190POPC   C3B 2592   7.046   1.633   5.387
  190POPC   C4B 2593   7.093   1.270   5.647
  191POPC   NC3 2594   5.859   7.946   3.939
  191POPC   PO4 2595   5.218   8.079   3.937
  191POPC   GL1 2596   5.458   8.075   4.321
  191POPC   GL2 2597   5.784   7.892   4.429
  191POPC   C1A 2598   5.390   8.035   4.745
  191POPC   D2A 2599   5.124   8.213   5.017
  191POPC   C3A 2600   5.127   7.986   5.382
  191POPC   C4A 2601   5.398   7.748   5.636
  191POPC   C1B 2602   5.851   7.874   4.886
  191POPC   C2B 2603   5.746   7.652   5.268
  191POPC   C3B 2604   5.908   7.724   5.682
  191POPC   C4B 2605   6.120   8.111   5.737
  192POPC   NC3 2606   8.093   4.227   3.598
  192POPC   PO4 2607   7.898   4.793   4.017
  192POPC   GL1 2608   7.924   4.496   4.459
  192POPC   GL2 2609   8.089   4.085   4.485
  192POPC   C1A 2610   7.953   4.365   4.881
  192POPC   D2A 2611   8.173   4.040   5.043
  192POPC   C3A 2612   8.084   4.109   5.438
  192POPC   C4A 2613   7.905   4.294   5.793
  192POPC   C1B 2614   7.763   3.891   4.785
  192POPC   C2B 2615   7.713   3.846   5.217
  192POPC   C3B 2616   7.629   3.874   5.665
  192POPC   C4B 2617   7.680   3.868   6.116
  193POPC   NC3 2618   0.388   0.518   3.673
  193POPC   PO4 2619  10.106   0.412   3.777
  193POPC   GL1 2620   9.989   0.242   4.215
  193POPC   GL2 2621  10.182   0.549   4.288
  193POPC   C1A 2622  10.113  10.485   4.613
  193POPC   D2A 2623  10.278   0.073   5.017
  193POPC   C3A 2624  10.224   0.282   5.412
  193POPC   C4A 2625  10.046   0.111   5.790
  193POPC   C1B 2626   9.946   0.442   4.677
  193POPC   C2B 2627   9.791   0.330   5.083
  193POPC   C3B 2628   9.732   0.380   5.516
  193POPC   C4B 2629   9.802   0.543   5.928
  194POPC   NC3 2630   7.213   8.545   4.044
  194POPC   PO4 2631   6.831   8.995   3.684
  194POPC   GL1 2632   6.845   8.892   4.248
  194POPC   GL2 2633   7.131   8.685   4.505
  194POPC   C1A 2634   6.753   8.857   4.732
  194POPC   D2A 2635   7.122   8.762   5.030
  194POPC   C3A 2636   7.076   8.554   5.455
  194POPC   C4A 2637   6.858   8.691   5.827
  194POPC   C1B 2638   7.484   8.464   4.674
  194POPC   C2B 2639   7.743   8.482   5.029
  194POPC   C3B 2640   7.613   8.466   5.441
  194POPC   C4B 2641   7.488   8.776   5.735
  195POPC   NC3 2642   3.793   9.573   3.890
  195POPC   PO4 2643   4.433   9.688   3.895
  195POPC   GL1 2644   4.382   9.366   4.253
  195POPC   GL2 2645   4.179   9.111   4.237
  195POPC   C1A 2646   4.476   9.121   4.673
  195POPC   D2A 2647   4.257   9.173   5.104
  195POPC   C3A 2648   4.500   9.212   5.494
  195POPC   C4A 2649   4.388   9.245   5.932
  195POPC   C1B 2650   4.036   9.376   4.653
  195POPC   C2B 2651   4.090   9.655   5.071
  195POPC   C3B 2652   4.125   9.562   5.516
  195POPC   C4B 2653   3.972   9.150   5.645
  196POPC   NC3 2654   8.775   0.451   3.886
  196POPC   PO4 2655   9.140   0.995   3.972
  196POPC   GL1 2656   9.133   0.653   4.257
  196POPC   GL2 2657   8.985   0.323   4.315
  196POPC   C1A 2658   9.144   0.788   4.659
  196POPC   D2A 2659   8.916   0.852   4.997
  196POPC   C3A 2660   8.995   0.687   5.365
  196POPC   C4A 2661   8.687   0.602   5.599
  196POPC   C1B 2662   8.740   0.480   4.644
  196POPC   C2B 2663   8.669   0.391   5.077
  196POPC   C3B 2664   8.790   0.143   5.426
  196POPC   C4B 2665   8.618   0.153   5.834
  197POPC   NC3 2666  10.016   2.766   4.013
  197POPC   PO4 2667   9.918   2.213   3.690
  197POPC   GL1 2668  10.038   2.286   4.166
  197POPC   GL2 2669  10.272   2.491   4.416
  197POPC   C1A 2670   9.876   2.302   4.637
  197POPC   D2A 2671  10.047   2.642   4.921
  197POPC   C3A 2672   9.963   2.603   5.372
  197POPC   C4A 2673  10.078   2.833   5.748
  197POPC   C1B 2674  10.404   2.887   4.578
  197POPC   C2B 2675  10.410   3.034   5.001
  197POPC   C3B 2676  10.460   2.799   5.364
  197POPC   C4B 2677   0.084   2.919   5.749
  198POPC   NC3 2678   8.353   3.538   3.774
  198POPC   PO4 2679   8.968   3.260   3.877
  198POPC   GL1 2680   8.711   3.414   4.196
  198POPC   GL2 2681   8.832   3.734   4.197
  198POPC   C1A 2682   8.724   3.283   4.631
  198POPC   D2A 2683   8.507   3.164   5.018
  198POPC   C3A 2684   8.586   3.340   5.401
  198POPC   C4A 2685   8.830   3.257   5.777
  198POPC   C1B 2686   8.540   3.761   4.561
  198POPC   C2B 2687   8.537   3.690   4.984
  198POPC   C3B 2688   8.539   3.875   5.373
  198POPC   C4B 2689   8.596   3.700   5.767
  199POPC   NC3 2690   7.934   7.155   4.054
  199POPC   PO4 2691   8.596   7.201   3.948
  199POPC   GL1 2692   8.313   7.310   4.362
  199POPC   GL2 2693   7.924   7.330   4.509
  199POPC   C1A 2694   8.311   7.238   4.810
  199POPC   D2A 2695   7.993   7.087   5.139
  199POPC   C3A 2696   7.994   7.283   5.560
  199POPC   C4A 2697   8.073   7.201   6.038
  199POPC   C1B 2698   7.633   7.255   4.811
  199POPC   C2B 2699   7.556   7.437   5.210
  199POPC   C3B 2700   7.323   7.422   5.565
  199POPC   C4B 2701   7.595   7.261   5.887
  200POPC   NC3 2702   0.439   7.798   3.794
  200POPC   PO4 2703   0.102   8.357   3.953
  200POPC   GL1 2704   0.353   8.053   4.238
  200POPC   GL2 2705   0.287   7.692   4.270
  200POPC   C1A 2706   0.351   8.093   4.690
  200POPC   D2A 2707   0.493   8.001   5.120
  200POPC   C3A 2708   0.240   8.195   5.389
  200POPC   C4A 2709   0.047   8.183   5.775
  200POPC   C1B 2710   0.284   7.588   4.659
  200POPC   C2B 2711   0.353   7.493   5.071
  200POPC   C3B 2712   0.264   7.679   5.474
  200POPC   C4B 2713   0.566   7.974   5.695
  201POPC   NC3 2714   7.548   7.151   3.671
  201POPC   PO4 2715   7.722   6.701   4.125
  201POPC   GL1 2716   7.499   7.051   4.307
  201POPC   GL2 2717   7.230   7.246   4.120
  201POPC   C1A 2718   7.288   6.879   4.667
  201POPC   D2A 2719   7.488   6.799   5.066
  201POPC   C3A 2720   7.544   6.964   5.472
  201POPC   C4A 2721   7.293   6.852   5.863
  201POPC   C1B 2722   7.178   7.353   4.571
  201POPC   C2B 2723   7.145   7.215   5.024
  201POPC   C3B 2724   7.016   7.038   5.436
  201POPC   C4B 2725   6.936   7.221   5.842
  202POPC   NC3 2726   8.879  10.227   3.977
  202POPC   PO4 2727   8.392   9.766   3.886
  202POPC   GL1 2728   8.550  10.030   4.301
  202POPC   GL2 2729   8.645  10.405   4.395
  202POPC   C1A 2730   8.698  10.061   4.752
  202POPC   D2A 2731   8.531  10.399   5.039
  202POPC   C3A 2732   8.451  10.253   5.479
  202POPC   C4A 2733   8.505   9.861   5.742
  202POPC   C1B 2734   8.976  10.489   4.682
  202POPC   C2B 2735   9.043  10.378   5.081
  202POPC   C3B 2736   9.167  10.305   5.480
  202POPC   C4B 2737   8.884  10.227   5.797
  203POPC   NC3 2738   9.527   5.717   3.618
  203POPC   PO4 2739   9.550   6.142   4.124
  203POPC   GL1 2740   9.658   5.903   4.420
  203POPC   GL2 2741   9.529   5.607   4.304
  203POPC   C1A 2742   9.709   5.926   4.820
  203POPC   D2A 2743   9.538   5.827   5.172
  203POPC   C3A 2744   9.573   6.042   5.513
  203POPC   C4A 2745   9.719   6.198   5.868
  203POPC   C1B 2746   9.281   5.569   4.688
  203POPC   C2B 2747   9.425   5.353   5.065
  203POPC   C3B 2748   9.329   5.453   5.481
  203POPC   C4B 2749   9.400   5.688   5.826
  204POPC   NC3 2750   6.425   1.927   3.930
  204POPC   PO4 2751   6.053   2.443   3.859
  204POPC   GL1 2752   6.102   2.222   4.261
  204POPC   GL2 2753   6.442   2.102   4.386
  204POPC   C1A 2754   6.121   2.260   4.732
  204POPC   D2A 2755   6.160   2.046   5.118
  204POPC   C3A 2756   6.227   2.264   5.481
  204POPC   C4A 2757   6.166   2.102   5.883
  204POPC   C1B 2758   6.422   1.842   4.728
  204POPC   C2B 2759   6.603   1.791   5.142
  204POPC   C3B 2760   6.466   1.791   5.574
  204POPC   C4B 2761   6.760   1.594   5.849
  205POPC   NC3 2762   1.815   3.331   3.763
  205POPC   PO4 2763   1.573   2.806   3.777
  205POPC   GL1 2764   1.685   3.074   4.197
  205POPC   GL2 2765   1.638   3.468   4.254
  205POPC   C1A 2766   1.626   3.196   4.670
  205POPC   D2A 2767   1.856   3.081   5.039
  205POPC   C3A 2768   1.804   3.281   5.416
  205POPC   C4A 2769   2.163   3.130   5.626
  205POPC   C1B 2770   1.969   3.564   4.647
  205POPC   C2B 2771   1.952   3.732   5.105
  205POPC   C3B 2772   2.139   3.649   5.531
  205POPC   C4B 2773   1.943   3.491   5.918
  206POPC   NC3 2774   6.303   3.533   3.910
  206POPC   PO4 2775   6.754   3.850   3.939
  206POPC   GL1 2776   6.640   3.686   4.343
  206POPC   GL2 2777   6.375   3.461   4.400
  206POPC   C1A 2778   6.560   3.703   4.810
  206POPC   D2A 2779   6.538   3.445   5.185
  206POPC   C3A 2780   6.484   3.695   5.602
  206POPC   C4A 2781   6.360   3.928   6.006
  206POPC   C1B 2782   6.175   3.353   4.786
  206POPC   C2B 2783   6.114   3.158   5.193
  206POPC   C3B 2784   6.204   3.281   5.603
  206POPC   C4B 2785   5.970   3.583   5.816
  207POPC   NC3 2786   9.872   7.336   3.868
  207POPC   PO4 2787   0.068   7.512   3.852
  207POPC   GL1 2788  10.401   7.354   4.223
  207POPC   GL2 2789  10.167   7.106   4.241
  207POPC   C1A 2790  10.438   7.232   4.660
  207POPC   D2A 2791  10.286   7.141   5.059
  207POPC   C3A 2792  10.279   7.416   5.405
  207POPC   C4A 2793  10.459   7.346   5.801
  207POPC   C1B 2794   9.914   7.221   4.577
  207POPC   C2B 2795   9.697   7.152   4.962
  207POPC   C3B 2796   9.847   7.122   5.372
  207POPC   C4B 2797  10.042   7.069   5.764
  208POPC   NC3 2798   0.137  10.007   3.688
  208POPC   PO4 2799   0.464   0.097   3.906
  208POPC   GL1 2800   0.259  10.361   4.246
  208POPC   GL2 2801   0.262  10.011   4.185
  208POPC   C1A 2802   0.208  10.493   4.698
  208POPC   D2A 2803   0.504   0.016   5.060
  208POPC   C3A 2804   0.473  10.247   5.454
  208POPC   C4A 2805   0.225  10.244   5.814
  208POPC   C1B 2806   0.449  10.038   4.613
  208POPC   C2B 2807   0.429   9.824   5.008
  208POPC   C3B 2808   0.237   9.745   5.412
  208POPC   C4B 2809   0.393   9.772   5.831
  209POPC   NC3 2810   3.897   0.426   3.988
  209POPC   PO4 2811   4.284   0.790   3.665
  209POPC   GL1 2812   4.310   0.656   4.172
  209POPC   GL2 2813   4.260   0.314   4.340
  209POPC   C1A 2814   4.290   0.728   4.640
  209POPC   D2A 2815   4.132   0.721   5.070
  209POPC   C3A 2816   4.323   0.638   5.435
  209POPC   C4A 2817   4.302   0.520   5.828
  209POPC   C1B 2818   4.016   0.295   4.737
  209POPC   C2B 2819   4.128   0.215   5.175
  209POPC   C3B 2820   3.903   0.346   5.548
  209POPC   C4B 2821   3.917   0.239   6.001
  210POPC   NC3 2822   1.927   8.231   3.795
  210POPC   PO4 2823   2.034   7.535   3.682
  210POPC   GL1 2824   2.118   7.692   4.138
  210POPC   GL2 2825   2.041   8.039   4.274
  210POPC   C1A 2826   2.287   7.596   4.576
  210POPC   D2A 2827   2.434   7.734   5.006
  210POPC   C3A 2828   2.254   7.606   5.401
  210POPC   C4A 2829   2.100   7.529   5.815
  210POPC   C1B 2830   1.980   7.977   4.734
  210POPC   C2B 2831   2.032   8.008   5.173
  210POPC   C3B 2832   1.813   7.864   5.506
  210POPC   C4B 2833   1.660   7.817   5.918
  211POPC   NC3 2834   1.755   9.722   4.011
  211POPC   PO4 2835   2.088  10.308   3.815
  211POPC   GL1 2836   1.950  10.183   4.208
  211POPC   GL2 2837   1.579  10.212   4.203
  211POPC   C1A 2838   2.098  10.145   4.645
  211POPC   D2A 2839   2.206  10.353   5.053
  211POPC   C3A 2840   2.102  10.118   5.431
  211POPC   C4A 2841   1.968  10.278   5.785
  211POPC   C1B 2842   1.518  10.219   4.652
  211POPC   C2B 2843   1.754  10.105   5.028
  211POPC   C3B 2844   1.591  10.175   5.433
  211POPC   C4B 2845   1.704   9.853   5.723
  212POPC   NC3 2846   2.343   5.683   3.759
  212POPC   PO4 2847   1.724   5.370   3.701
  212POPC   GL1 2848   1.839   5.433   4.170
  212POPC   GL2 2849   1.514   5.466   4.312
  212POPC   C1A 2850   1.980   5.564   4.647
  212POPC   D2A 2851   2.171   5.853   5.006
  212POPC   C3A 2852   2.325   5.771   5.438
  212POPC   C4A 2853   2.217   5.596   5.846
  212POPC   C1B 2854   1.507   5.766   4.661
  212POPC   C2B 2855   1.695   5.758   5.075
  212POPC   C3B 2856   1.833   5.600   5.511
  212POPC   C4B 2857   1.766   5.804   5.902
  213POPC   NC3 2858   3.114   9.502   3.923
  213POPC   PO4 2859   3.748   9.128   3.785
  213POPC   GL1 2860   3.699   9.244   4.272
  213POPC   GL2 2861   3.622   9.599   4.374
  213POPC   C1A 2862   3.587   9.147   4.709
  213POPC   D2A 2863   3.745   9.096   5.107
  213POPC   C3A 2864   3.661   9.436   5.345
  213POPC   C4A 2865   3.526   9.368   5.781
  213POPC   C1B 2866   3.273   9.535   4.650
  213POPC   C2B 2867   3.198   9.341   5.057
  213POPC   C3B 2868   3.186   9.543   5.466
  213POPC   C4B 2869   2.984   9.783   5.801
  214POPC   NC3 2870   1.717   7.212   3.676
  214POPC   PO4 2871   2.194   6.800   3.907
  214POPC   GL1 2872   1.961   6.947   4.235
  214POPC   GL2 2873   1.830   7.270   4.177
  214POPC   C1A 2874   2.071   7.124   4.639
  214POPC   D2A 2875   2.308   7.240   5.003
  214POPC   C3A 2876   2.191   7.091   5.416
  214POPC   C4A 2877   2.057   7.013   5.845
  214POPC   C1B 2878   1.756   7.531   4.566
  214POPC   C2B 2879   1.864   7.540   5.036
  214POPC   C3B 2880   1.748   7.354   5.470
  214POPC   C4B 2881   1.627   7.302   5.924
  215POPC   NC3 2882   1.776   6.475   3.989
  215POPC   PO4 2883   2.357   6.116   3.909
  215POPC   GL1 2884   2.117   6.174   4.248
  215POPC   GL2 2885   2.215   6.498   4.317
  215POPC   C1A 2886   1.915   6.092   4.638
  215POPC   D2A 2887   1.829   6.281   5.047
  215POPC   C3A 2888   1.890   6.090   5.431
  215POPC   C4A 2889   2.124   6.125   5.785
  215POPC   C1B 2890   1.983   6.609   4.665
  215POPC   C2B 2891   2.119   6.716   5.080
  215POPC   C3B 2892   2.087   6.592   5.534
  215POPC   C4B 2893   1.720   6.471   5.749
  216POPC   NC3 2894   4.632   2.107   4.086
  216POPC   PO4 2895   5.263   1.853   4.019
  216POPC   GL1 2896   5.209   2.009   4.390
  216POPC   GL2 2897   4.890   2.102   4.518
  216POPC   C1A 2898   5.198   1.739   4.745
  216POPC   D2A 2899   4.972   1.760   5.112
  216POPC   C3A 2900   5.245   1.634   5.401
  216POPC   C4A 2901   5.391   1.854   5.698
  216POPC   C1B 2902   4.807   2.397   4.844
  216POPC   C2B 2903   4.833   2.406   5.301
  216POPC   C3B 2904   4.914   2.053   5.584
  216POPC   C4B 2905   4.645   1.797   5.824
  217POPC   NC3 2906   7.933   9.936   3.830
  217POPC   PO4 2907   7.693   0.083   3.968
  217POPC   GL1 2908   7.909   0.155   4.326
  217POPC   GL2 2909   8.152  10.409   4.231
  217POPC   C1A 2910   7.807   0.063   4.758
  217POPC   D2A 2911   8.022  10.426   5.126
  217POPC   C3A 2912   7.717  10.352   5.419
  217POPC   C4A 2913   7.583  10.458   5.811
  217POPC   C1B 2914   8.203  10.231   4.647
  217POPC   C2B 2915   8.259   9.958   4.994
  217POPC   C3B 2916   8.119   9.850   5.378
  217POPC   C4B 2917   8.032  10.073   5.719
  218POPC   NC3 2918   4.994   7.671   3.952
  218POPC   PO4 2919   4.599   7.960   4.243
  218POPC   GL1 2920   4.959   7.876   4.457
  218POPC   GL2 2921   4.969   8.222   4.508
  218POPC   C1A 2922   4.974   7.738   4.917
  218POPC   D2A 2923   4.753   7.563   5.299
  218POPC   C3A 2924   4.853   7.682   5.735
  218POPC   C4A 2925   4.797   7.440   6.184
  218POPC   C1B 2926   4.650   8.140   4.852
  218POPC   C2B 2927   4.623   8.085   5.298
  218POPC   C3B 2928   4.799   8.301   5.644
  218POPC   C4B 2929   5.143   8.137   5.871
  219POPC   NC3 2930   2.767   8.611   3.912
  219POPC   PO4 2931   3.242   9.119   4.131
  219POPC   GL1 2932   3.048   8.709   4.303
  219POPC   GL2 2933   2.677   8.758   4.379
  219POPC   C1A 2934   2.945   8.385   4.647
  219POPC   D2A 2935   2.879   8.531   5.044
  219POPC   C3A 2936   2.966   8.391   5.408
  219POPC   C4A 2937   2.992   8.717   5.710
  219POPC   C1B 2938   2.489   8.650   4.767
  219POPC   C2B 2939   2.337   8.813   5.140
  219POPC   C3B 2940   2.492   8.641   5.505
  219POPC   C4B 2941   2.575   8.408   5.854
  220POPC   NC3 2942   6.356   7.179   4.026
  220POPC   PO4 2943   6.820   7.549   3.812
  220POPC   GL1 2944   6.768   7.455   4.281
  220POPC   GL2 2945   6.737   7.111   4.416
  220POPC   C1A 2946   6.739   7.493   4.776
  220POPC   D2A 2947   6.644   7.197   5.120
  220POPC   C3A 2948   6.526   7.272   5.535
  220POPC   C4A 2949   6.426   7.144   5.956
  220POPC   C1B 2950   6.353   7.085   4.723
  220POPC   C2B 2951   6.155   6.993   5.163
  220POPC   C3B 2952   6.178   6.842   5.605
  220POPC   C4B 2953   5.915   6.948   5.984
  221POPC   NC3 2954   0.949   4.557   3.893
  221POPC   PO4 2955   1.155   5.247   3.962
  221POPC   GL1 2956   1.195   5.066   4.317
  221POPC   GL2 2957   1.229   4.744   4.274
  221POPC   C1A 2958   1.376   5.007   4.692
  221POPC   D2A 2959   1.521   5.306   4.924
  221POPC   C3A 2960   1.507   5.218   5.351
  221POPC   C4A 2961   1.519   4.962   5.734
  221POPC   C1B 2962   0.939   4.723   4.613
  221POPC   C2B 2963   0.971   4.963   5.002
  221POPC   C3B 2964   1.133   4.841   5.409
  221POPC   C4B 2965   1.029   5.115   5.755
  222POPC   NC3 2966   3.022   0.640   4.032
  222POPC   PO4 2967   2.437   0.243   4.084
  222POPC   GL1 2968   2.605   0.345   4.421
  222POPC   GL2 2969   2.971   0.255   4.339
  222POPC   C1A 2970   2.405   0.268   4.813
  222POPC   D2A 2971   2.351   0.320   5.230
  222POPC   C3A 2972   2.375   0.050   5.547
  222POPC   C4A 2973   2.537   0.221   5.907
  222POPC   C1B 2974   2.970   0.524   4.713
  222POPC   C2B 2975   2.806   0.524   5.125
  222POPC   C3B 2976   2.825   0.735   5.514
  222POPC   C4B 2977   2.765   0.705   5.960
  223POPC   NC3 2978   8.499   5.745   3.924
  223POPC   PO4 2979   9.200   5.668   3.949
  223POPC   GL1 2980   8.866   5.624   4.274
  223POPC   GL2 2981   8.679   5.937   4.384
  223POPC   C1A 2982   8.714   5.495   4.671
  223POPC   D2A 2983   8.915   5.279   4.991
  223POPC   C3A 2984   8.837   5.305   5.412
  223POPC   C4A 2985   8.850   5.409   5.798
  223POPC   C1B 2986   8.868   5.977   4.801
  223POPC   C2B 2987   9.043   5.737   5.142
  223POPC   C3B 2988   8.985   5.866   5.558
  223POPC   C4B 2989   8.597   5.966   5.783
  224POPC   NC3 2990   3.395  10.379   3.946
  224POPC   PO4 2991   2.877   9.914   3.863
  224POPC   GL1 2992   3.199   9.892   4.257
  224POPC   GL2 2993   3.502  10.124   4.409
  224POPC   C1A 2994   3.118  10.013   4.710
  224POPC   D2A 2995   3.243  10.218   5.079
  224POPC   C3A 2996   3.256  10.064   5.490
  224POPC   C4A 2997   3.345  10.114   5.948
  224POPC   C1B 2998   3.748  10.315   4.781
  224POPC   C2B 2999   3.647   0.028   5.169
  224POPC   C3B 3000   3.503   0.013   5.599
  224POPC   C4B 3001   3.800  10.288   5.854
  225POPC   NC3 3002   6.655  10.235   3.928
  225POPC   PO4 3003   6.024  10.015   3.929
  225POPC   GL1 3004   6.255  10.257   4.289
  225POPC   GL2 3005   6.621  10.414   4.392
  225POPC   C1A 3006   6.302  10.183   4.731
  225POPC   D2A 3007   6.201  10.057   5.152
  225POPC   C3A 3008   6.346  10.413   5.412
  225POPC   C4A 3009   6.168   0.022   5.826
  225POPC   C1B 3010   6.830  10.197   4.720
  225POPC   C2B 3011   6.725  10.157   5.120
  225POPC   C3B 3012   6.681   9.902   5.476
  225POPC   C4B 3013   6.638  10.206   5.800
  226POPC   NC3 3014   6.536   8.682   3.907
  226POPC   PO4 3015   6.890   8.165   4.018
  226POPC   GL1 3016   6.692   8.411   4.374
  226POPC   GL2 3017   6.335   8.489   4.333
  226POPC   C1A 3018   6.548   8.423   4.827
  226POPC   D2A 3019   6.630   8.668   5.209
  226POPC   C3A 3020   6.415   8.486   5.544
  226POPC   C4A 3021   6.327   8.465   6.025
  226POPC   C1B 3022   6.168   8.763   4.651
  226POPC   C2B 3023   6.235   8.963   5.049
  226POPC   C3B 3024   6.073   9.032   5.469
  226POPC   C4B 3025   5.967   8.637   5.711
  227POPC   NC3 3026   7.144   1.851   3.855
  227POPC   PO4 3027   6.702   2.347   3.969
  227POPC   GL1 3028   6.935   2.196   4.317
  227POPC   GL2 3029   6.975   1.866   4.353
  227POPC   C1A 3030   6.863   2.066   4.773
  227POPC   D2A 3031   7.062   2.143   5.121
  227POPC   C3A 3032   6.862   2.101   5.533
  227POPC   C4A 3033   7.054   2.224   5.917
  227POPC   C1B 3034   7.350   2.012   4.673
  227POPC   C2B 3035   7.547   1.905   5.076
  227POPC   C3B 3036   7.393   2.042   5.474
  227POPC   C4B 3037   7.256   1.780   5.817
  228POPC   NC3 3038   9.390   1.373   3.919
  228POPC   PO4 3039  10.037   1.443   3.902
  228POPC   GL1 3040   9.782   1.490   4.260
  228POPC   GL2 3041   9.691   1.138   4.268
  228POPC   C1A 3042   9.868   1.353   4.714
  228POPC   D2A 3043   9.842   1.078   5.072
  228POPC   C3A 3044   9.714   1.185   5.459
  228POPC   C4A 3045   9.761   1.513   5.729
  228POPC   C1B 3046   9.382   1.256   4.561
  228POPC   C2B 3047   9.315   1.197   4.971
  228POPC   C3B 3048   9.230   1.155   5.382
  228POPC   C4B 3049   9.293   1.327   5.837
  229POPC   NC3 3050   9.326   5.195   4.038
  229POPC   PO4 3051   9.896   5.229   3.906
  229POPC   GL1 3052   9.758   5.079   4.328
  229POPC   GL2 3053   9.521   4.801   4.309
  229POPC   C1A 3054   9.705   4.917   4.767
  229POPC   D2A 3055   9.669   4.747   5.190
  229POPC   C3A 3056   9.705   5.092   5.461
  229POPC   C4A 3057   9.632   5.221   5.897
  229POPC   C1B 3058   9.215   5.012   4.622
  229POPC   C2B 3059   9.231   4.907   4.986
  229POPC   C3B 3060   9.213   4.953   5.360
  229POPC   C4B 3061   9.199   5.033   5.744
  230POPC   NC3 3062   7.039   0.590   3.802
  230POPC   PO4 3063   7.683   0.768   3.814
  230POPC   GL1 3064   7.519   0.531   4.204
  230POPC   GL2 3065   7.187   0.388   4.229
  230POPC   C1A 3066   7.317   0.598   4.656
  230POPC   D2A 3067   7.125   0.601   5.084
  230POPC   C3A 3068   7.400   0.744   5.450
  230POPC   C4A 3069   7.500   0.483   5.826
  230POPC   C1B 3070   7.087   0.134   4.569
  230POPC   C2B 3071   7.261   0.113   4.989
  230POPC   C3B 3072   7.347   0.223   5.399
  230POPC   C4B 3073   7.050   0.395   5.659
  231POPC   NC3 3074   1.939   4.346   4.017
  231POPC   PO4 3075   1.922   3.732   3.925
  231POPC   GL1 3076   1.957   3.937   4.319
  231POPC   GL2 3077   1.607   4.006   4.275
  231POPC   C1A 3078   2.111   4.228   4.693
  231POPC   D2A 3079   2.100   4.466   5.101
  231POPC   C3A 3080   2.122   4.163   5.462
  231POPC   C4A 3081   2.351   4.014   5.836
  231POPC   C1B 3082   1.655   3.971   4.735
  231POPC   C2B 3083   1.645   4.282   5.067
  231POPC   C3B 3084   1.660   4.354   5.537
  231POPC   C4B 3085   1.771   3.950   5.760
  232POPC   NC3 3086   2.295   7.247   3.914
  232POPC   PO4 3087   2.834   7.568   3.859
  232POPC   GL1 3088   2.658   7.344   4.248
  232POPC   GL2 3089   2.517   6.970   4.273
  232POPC   C1A 3090   2.705   7.261   4.671
  232POPC   D2A 3091   2.899   7.424   5.024
  232POPC   C3A 3092   2.669   7.302   5.369
  232POPC   C4A 3093   2.526   7.239   5.763
  232POPC   C1B 3094   2.471   6.802   4.697
  232POPC   C2B 3095   2.611   6.841   5.148
  232POPC   C3B 3096   2.577   6.756   5.614
  232POPC   C4B 3097   2.478   6.862   6.090
  233POPC   NC3 3098   3.969   1.363   3.976
  233POPC   PO4 3099   3.265   1.333   3.882
  233POPC   GL1 3100   3.517   1.223   4.203
  233POPC   GL2 3101   3.440   0.905   4.250
  233POPC   C1A 3102   3.600   1.346   4.594
  233POPC   D2A 3103   3.429   1.358   4.997
  233POPC   C3A 3104   3.642   1.447   5.385
  233POPC   C4A 3105   3.676   1.301   5.783
  233POPC   C1B 3106   3.249   0.961   4.639
  233POPC   C2B 3107   3.222   0.865   5.068
  233POPC   C3B 3108   3.223   1.119   5.422
  233POPC   C4B 3109   3.220   0.930   5.789
  234POPC   NC3 3110   2.061   8.823   3.699
  234POPC   PO4 3111   2.160   8.877   4.319
  234POPC   GL1 3112   1.873   8.787   4.581
  234POPC   GL2 3113   1.744   8.434   4.552
  234POPC   C1A 3114   1.856   8.994   4.949
  234POPC   D2A 3115   1.766   8.954   5.338
  234POPC   C3A 3116   2.118   9.042   5.585
  234POPC   C4A 3117   2.210   8.780   5.915
  234POPC   C1B 3118   2.003   8.461   4.933
  234POPC   C2B 3119   1.996   8.484   5.388
  234POPC   C3B 3120   1.865   8.394   5.814
  234POPC   C4B 3121   2.170   8.359   6.200
  235POPC   NC3 3122   6.846   2.768   4.122
  235POPC   PO4 3123   7.412   3.100   3.875
  235POPC   GL1 3124   7.364   2.903   4.262
  235POPC   GL2 3125   7.320   2.540   4.227
  235POPC   C1A 3126   7.262   2.989   4.688
  235POPC   D2A 3127   7.441   2.919   5.082
  235POPC   C3A 3128   7.268   3.007   5.494
  235POPC   C4A 3129   7.378   2.970   5.929
  235POPC   C1B 3130   7.142   2.492   4.664
  235POPC   C2B 3131   7.003   2.651   5.045
  235POPC   C3B 3132   7.127   2.525   5.456
  235POPC   C4B 3133   6.965   2.709   5.827
  236POPC   NC3 3134   7.130   3.616   3.830
  236POPC   PO4 3135   7.751   3.808   3.926
  236POPC   GL1 3136   7.404   3.530   4.227
  236POPC   GL2 3137   7.050   3.312   4.223
  236POPC   C1A 3138   7.333   3.497   4.646
  236POPC   D2A 3139   7.564   3.397   4.995
  236POPC   C3A 3140   7.433   3.471   5.405
  236POPC   C4A 3141   7.310   3.496   5.839
  236POPC   C1B 3142   6.838   3.280   4.635
  236POPC   C2B 3143   7.032   3.275   5.066
  236POPC   C3B 3144   6.934   3.420   5.496
  236POPC   C4B 3145   6.865   3.226   5.876
  237POPC   NC3 3146   2.371   3.654   3.996
  237POPC   PO4 3147   3.010   3.871   3.925
  237POPC   GL1 3148   2.773   3.683   4.310
  237POPC   GL2 3149   2.645   3.335   4.306
  237POPC   C1A 3150   2.486   3.810   4.681
  237POPC   D2A 3151   2.453   3.642   5.121
  237POPC   C3A 3152   2.661   3.810   5.496
  237POPC   C4A 3153   2.849   3.733   5.901
  237POPC   C1B 3154   2.544   3.298   4.750
  237POPC   C2B 3155   2.400   3.141   5.153
  237POPC   C3B 3156   2.616   3.308   5.518
  237POPC   C4B 3157   2.443   3.439   5.909
  238POPC   NC3 3158   9.646   0.427   3.740
  238POPC   PO4 3159   9.166   0.088   3.884
  238POPC   GL1 3160   9.482   0.249   4.205
  238POPC   GL2 3161   9.641   0.613   4.250
  238POPC   C1A 3162   9.435   0.347   4.644
  238POPC   D2A 3163   9.159   0.374   4.959
  238POPC   C3A 3164   9.290   0.268   5.332
  238POPC   C4A 3165   9.142   0.320   5.746
  238POPC   C1B 3166   9.637   0.828   4.688
  238POPC   C2B 3167   9.473   0.736   5.138
  238POPC   C3B 3168   9.433   0.759   5.602
  238POPC   C4B 3169   9.306   0.711   6.016
  239POPC   NC3 3170   8.466   8.575   3.945
  239POPC   PO4 3171   8.996   8.969   3.880
  239POPC   GL1 3172   8.950   8.730   4.329
  239POPC   GL2 3173   8.684   8.513   4.388
  239POPC   C1A 3174   8.960   8.614   4.796
  239POPC   D2A 3175   9.023   8.325   5.138
  239POPC   C3A 3176   8.967   8.599   5.493
  239POPC   C4A 3177   8.868   8.757   5.910
  239POPC   C1B 3178   8.451   8.646   4.767
  239POPC   C2B 3179   8.528   8.499   5.174
  239POPC   C3B 3180   8.464   8.649   5.550
  239POPC   C4B 3181   8.389   8.946   5.802
  240POPC   NC3 3182   1.990   0.215   3.978
  240POPC   PO4 3183   1.809   0.800   3.816
  240POPC   GL1 3184   2.141   0.660   4.194
  240POPC   GL2 3185   1.921   0.486   4.413
  240POPC   C1A 3186   2.279   0.741   4.661
  240POPC   D2A 3187   1.966   0.548   4.986
  240POPC   C3A 3188   2.022   0.612   5.458
  240POPC   C4A 3189   2.180   0.660   5.915
  240POPC   C1B 3190   1.902   0.119   4.669
  240POPC   C2B 3191   1.671   0.098   5.036
  240POPC   C3B 3192   1.873   0.117   5.403
  240POPC   C4B 3193   1.905   0.263   5.816
  241POPC   NC3 3194   4.254   3.640   3.924
  241POPC   PO4 3195   4.670   3.256   3.913
  241POPC   GL1 3196   4.478   3.247   4.331
  241POPC   GL2 3197   4.132   3.183   4.345
  241POPC   C1A 3198   4.423   3.267   4.807
  241POPC   D2A 3199   4.447   3.309   5.270
  241POPC   C3A 3200   4.387   3.715   5.500
  241POPC   C4A 3201   4.298   4.053   5.879
  241POPC   C1B 3202   3.970   3.034   4.708
  241POPC   C2B 3203   3.957   3.133   5.140
  241POPC   C3B 3204   4.032   3.317   5.543
  241POPC   C4B 3205   4.035   3.586   5.872
  242POPC   NC3 3206   0.359   8.773   3.972
  242POPC   PO4 3207   0.737   8.172   3.854
  242POPC   GL1 3208   0.775   8.366   4.295
  242POPC   GL2 3209   0.451   8.516   4.396
  242POPC   C1A 3210   0.834   8.753   4.606
  242POPC   D2A 3211   0.569   8.937   4.981
  242POPC   C3A 3212   0.659   8.858   5.461
  242POPC   C4A 3213   0.481   8.485   5.736
  242POPC   C1B 3214   0.117   8.744   4.596
  242POPC   C2B 3215   0.035   8.875   4.985
  242POPC   C3B 3216   0.193   8.710   5.339
  242POPC   C4B 3217   0.143   8.850   5.736
  243POPC   NC3 3218   1.248   2.597   4.022
  243POPC   PO4 3219   1.322   3.302   3.822
  243POPC   GL1 3220   1.175   3.090   4.184
  243POPC   GL2 3221   1.105   3.403   4.306
  243POPC   C1A 3222   1.173   2.977   4.630
  243POPC   D2A 3223   0.900   3.220   4.896
  243POPC   C3A 3224   0.892   3.167   5.335
  243POPC   C4A 3225   0.925   3.223   5.774
  243POPC   C1B 3226   1.284   3.582   4.666
  243POPC   C2B 3227   1.351   3.428   5.081
  243POPC   C3B 3228   1.213   3.516   5.487
  243POPC   C4B 3229   1.460   3.450   5.800
  244POPC   NC3 3230   6.035   2.832   4.102
  244POPC   PO4 3231   5.465   2.826   3.904
  244POPC   GL1 3232   5.533   2.844   4.335
  244POPC   GL2 3233   5.680   2.513   4.326
  244POPC   C1A 3234   5.475   3.008   4.792
  244POPC   D2A 3235   5.691   2.861   5.212
  244POPC   C3A 3236   5.708   3.080   5.615
  244POPC   C4A 3237   5.469   3.253   5.987
  244POPC   C1B 3238   5.758   2.597   4.763
  244POPC   C2B 3239   5.759   2.361   5.143
  244POPC   C3B 3240   5.766   2.485   5.598
  244POPC   C4B 3241   6.035   2.585   5.977
  245POPC   NC3 3242   0.210   4.515   3.965
  245POPC   PO4 3243   0.732   4.926   3.732
  245POPC   GL1 3244   0.720   4.978   4.181
  245POPC   GL2 3245   0.512   4.759   4.360
  245POPC   C1A 3246   0.666   5.173   4.606
  245POPC   D2A 3247   0.470   5.058   5.001
  245POPC   C3A 3248   0.644   4.979   5.413
  245POPC   C4A 3249   0.659   4.657   5.697
  245POPC   C1B 3250   0.140   4.884   4.661
  245POPC   C2B 3251   0.042   4.770   5.093
  245POPC   C3B 3252   0.161   4.790   5.529
  245POPC   C4B 3253   0.183   5.088   5.857
  246POPC   NC3 3254   4.364  10.133   3.970
  246POPC   PO4 3255   3.660  10.007   3.940
  246POPC   GL1 3256   3.969   9.972   4.230
  246POPC   GL2 3257   4.041  10.326   4.308
  246POPC   C1A 3258   3.978   9.886   4.632
  246POPC   D2A 3259   3.617   9.830   4.911
  246POPC   C3A 3260   3.736  10.012   5.302
  246POPC   C4A 3261   3.694   9.824   5.695
  246POPC   C1B 3262   4.273  10.326   4.686
  246POPC   C2B 3263   4.451  10.053   5.015
  246POPC   C3B 3264   4.278  10.075   5.421
  246POPC   C4B 3265   4.233  10.472   5.654
  247POPC   NC3 3266   6.228   9.575   4.001
  247POPC   PO4 3267   6.830   9.831   4.019
  247POPC   GL1 3268   6.561   9.854   4.411
  247POPC   GL2 3269   6.295   9.603   4.496
  247POPC   C1A 3270   6.527   9.764   4.898
  247POPC   D2A 3271   6.334   9.453   5.152
  247POPC   C3A 3272   6.215   9.595   5.515
  247POPC   C4A 3273   6.199   9.999   5.659
  247POPC   C1B 3274   6.587   9.314   4.712
  247POPC   C2B 3275   6.767   9.190   5.139
  247POPC   C3B 3276   6.668   9.315   5.581
  247POPC   C4B 3277   6.648   9.281   6.053
  248POPC   NC3 3278   0.881   7.038   4.129
  248POPC   PO4 3279   1.514   6.885   3.937
  248POPC   GL1 3280   1.363   7.089   4.318
  248POPC   GL2 3281   1.188   7.431   4.298
  248POPC   C1A 3282   1.190   7.037   4.736
  248POPC   D2A 3283   1.290   6.934   5.156
  248POPC   C3A 3284   0.919   6.935   5.374
  248POPC   C4A 3285   0.886   7.028   5.783
  248POPC   C1B 3286   1.236   7.554   4.743
  248POPC   C2B 3287   1.356   7.599   5.183
  248POPC   C3B 3288   1.226   7.339   5.532
  248POPC   C4B 3289   1.374   6.905   5.692
  249POPC   NC3 3290   4.108   7.208   3.963
  249POPC   PO4 3291   4.626   7.470   3.780
  249POPC   GL1 3292   4.502   7.456   4.242
  249POPC   GL2 3293   4.194   7.311   4.440
  249POPC   C1A 3294   4.587   7.446   4.717
  249POPC   D2A 3295   4.362   7.170   5.013
  249POPC   C3A 3296   4.318   7.260   5.440
  249POPC   C4A 3297   4.630   7.229   5.748
  249POPC   C1B 3298   3.948   7.050   4.736
  249POPC   C2B 3299   3.886   7.062   5.206
  249POPC   C3B 3300   4.091   6.819   5.551
  249POPC   C4B 3301   4.247   6.600   5.952
  250POPC   NC3 3302   4.791   8.298   3.992
  250POPC   PO4 3303   4.703   8.933   4.009
  250POPC   GL1 3304   4.926   8.699   4.311
  250POPC   GL2 3305   5.243   8.542   4.167
  250POPC   C1A 3306   4.922   8.738   4.761
  250POPC   D2A 3307   4.796   8.569   5.140
  250POPC   C3A 3308   4.801   8.801   5.536
  250POPC   C4A 3309   4.749   8.884   5.993
  250POPC   C1B 3310   5.356   8.524   4.601
  250POPC   C2B 3311   5.488   8.560   5.032
  250POPC   C3B 3312   5.217   8.520   5.416
  250POPC   C4B 3313   5.219   8.653   5.844
  251POPC   NC3 3314   7.744   5.200   4.290
  251POPC   PO4 3315   8.264   5.315   3.934
  251POPC   GL1 3316   8.267   5.215   4.346
  251POPC   GL2 3317   8.260   4.879   4.371
  251POPC   C1A 3318   8.176   5.347   4.761
  251POPC   D2A 3319   7.925   5.130   5.147
  251POPC   C3A 3320   7.909   5.293   5.594
  251POPC   C4A 3321   7.919   5.277   6.048
  251POPC   C1B 3322   8.091   4.855   4.749
  251POPC   C2B 3323   8.257   4.719   5.092
  251POPC   C3B 3324   7.998   4.626   5.403
  251POPC   C4B 3325   7.906   4.812   5.780
  252POPC   NC3 3326   7.568   9.007   3.766
  252POPC   PO4 3327   8.093   8.554   3.661
  252POPC   GL1 3328   7.931   8.761   4.086
  252POPC   GL2 3329   8.186   8.687   4.331
  252POPC   C1A 3330   7.804   8.830   4.585
  252POPC   D2A 3331   8.027   9.019   4.959
  252POPC   C3A 3332   7.989   8.881   5.411
  252POPC   C4A 3333   7.894   9.054   5.868
  252POPC   C1B 3334   8.051   8.373   4.618
  252POPC   C2B 3335   8.141   8.152   4.995
  252POPC   C3B 3336   8.105   8.317   5.403
  252POPC   C4B 3337   8.018   8.555   5.800
  253POPC   NC3 3338   8.789   1.331   3.956
  253POPC   PO4 3339   8.373   0.764   3.839
  253POPC   GL1 3340   8.408   1.084   4.187
  253POPC   GL2 3341   8.715   0.955   4.348
  253POPC   C1A 3342   8.411   1.413   4.561
  253POPC   D2A 3343   8.455   1.682   4.960
  253POPC   C3A 3344   8.404   1.488   5.406
  253POPC   C4A 3345   8.447   1.054   5.593
  253POPC   C1B 3346   8.880   1.258   4.670
  253POPC   C2B 3347   8.807   1.332   5.117
  253POPC   C3B 3348   8.868   1.413   5.565
  253POPC   C4B 3349   8.911   1.009   5.838
  254POPC   NC3 3350   1.363   5.642   3.829
  254POPC   PO4 3351   0.749   5.914   3.777
  254POPC   GL1 3352   0.991   5.977   4.131
  254POPC   GL2 3353   0.993   5.636   4.232
  254POPC   C1A 3354   1.057   6.009   4.587
  254POPC   D2A 3355   0.812   6.017   4.983
  254POPC   C3A 3356   0.974   6.007   5.389
  254POPC   C4A 3357   0.976   5.739   5.774
  254POPC   C1B 3358   1.090   5.464   4.641
  254POPC   C2B 3359   1.140   5.624   5.052
  254POPC   C3B 3360   1.354   5.702   5.429
  254POPC   C4B 3361   1.410   5.471   5.785
  255POPC   NC3 3362   7.225   9.540   3.934
  255POPC   PO4 3363   7.325   8.972   4.147
  255POPC   GL1 3364   7.215   9.294   4.379
  255POPC   GL2 3365   6.882   9.411   4.305
  255POPC   C1A 3366   7.113   9.226   4.763
  255POPC   D2A 3367   7.313   9.266   5.112
  255POPC   C3A 3368   7.158   9.064   5.456
  255POPC   C4A 3369   7.090   9.143   5.853
  255POPC   C1B 3370   6.967   9.695   4.651
  255POPC   C2B 3371   6.998   9.677   5.084
  255POPC   C3B 3372   7.126   9.582   5.491
  255POPC   C4B 3373   6.954   9.642   5.899
  256POPC   NC3 3374   0.414   3.747   4.133
  256POPC   PO4 3375   0.682   3.226   3.949
  256POPC   GL1 3376   0.406   3.235   4.275
  256POPC   GL2 3377   0.630   3.416   4.459
  256POPC   C1A 3378   0.198   3.297   4.654
  256POPC   D2A 3379   0.361   3.505   5.016
  256POPC   C3A 3380   0.213   3.342   5.404
  256POPC   C4A 3381   0.432   3.269   5.770
  256POPC   C1B 3382   0.774   3.689   4.744
  256POPC   C2B 3383   0.878   3.663   5.139
  256POPC   C3B 3384   0.692   3.615   5.485
  256POPC   C4B 3385   0.837   3.715   5.869
  257POPC   NC3 3386   7.252   0.004   3.917
  257POPC   PO4 3387   7.464   9.922   3.869
  257POPC   GL1 3388   7.292   9.879   4.303
  257POPC   GL2 3389   7.089  10.184   4.287
  257POPC   C1A 3390   7.459   9.748   4.749
  257POPC   D2A 3391   7.737   9.978   5.046
  257POPC   C3A 3392   7.608   9.840   5.479
  257POPC   C4A 3393   7.282  10.000   5.760
  257POPC   C1B 3394   7.358  10.225   4.682
  257POPC   C2B 3395   7.256  10.124   5.140
  257POPC   C3B 3396   7.026  10.341   5.476
  257POPC   C4B 3397   7.087  10.455   5.894
  258POPC   NC3 3398   0.223   3.834   3.649
  258POPC   PO4 3399   0.714   4.112   3.958
  258POPC   GL1 3400   0.486   4.223   4.340
  258POPC   GL2 3401   0.174   4.405   4.459
  258POPC   C1A 3402   0.357   4.006   4.714
  258POPC   D2A 3403   0.532   4.024   5.087
  258POPC   C3A 3404   0.268   3.877   5.369
  258POPC   C4A 3405   0.301   3.747   5.783
  258POPC   C1B 3406   0.473   4.521   4.817
  258POPC   C2B 3407   0.740   4.486   5.189
  258POPC   C3B 3408   0.716   4.163   5.548
  258POPC   C4B 3409   0.316   4.255   5.723
  259POPC   NC3 3410   9.127   7.277   3.693
  259POPC   PO4 3411   9.589   7.679   3.968
  259POPC   GL1 3412   9.301   7.412   4.172
  259POPC   GL2 3413   9.467   7.090   4.202
  259POPC   C1A 3414   9.210   7.455   4.602
  259POPC   D2A 3415   9.183   7.515   5.020
  259POPC   C3A 3416   9.421   7.404   5.352
  259POPC   C4A 3417   9.272   7.506   5.762
  259POPC   C1B 3418   9.341   6.959   4.642
  259POPC   C2B 3419   9.348   6.761   5.074
  259POPC   C3B 3420   9.291   6.925   5.500
  259POPC   C4B 3421   9.547   7.086   5.779
  260POPC   NC3 3422   2.739   2.559   3.854
  260POPC   PO4 3423   2.283   3.156   3.907
  260POPC   GL1 3424   2.418   2.847   4.239
  260POPC   GL2 3425   2.555   2.502   4.320
  260POPC   C1A 3426   2.491   2.800   4.702
  260POPC   D2A 3427   2.805   2.859   5.014
  260POPC   C3A 3428   2.654   2.796   5.443
  260POPC   C4A 3429   2.520   2.847   5.857
  260POPC   C1B 3430   2.940   2.526   4.583
  260POPC   C2B 3431   3.235   2.489   4.916
  260POPC   C3B 3432   3.126   2.587   5.331
  260POPC   C4B 3433   2.944   2.522   5.762
  261POPC   NC3 3434   8.915   4.354   3.911
  261POPC   PO4 3435   9.566   3.986   3.928
  261POPC   GL1 3436   9.268   4.022   4.250
  261POPC   GL2 3437   9.230   4.364   4.314
  261POPC   C1A 3438   9.386   3.992   4.682
  261POPC   D2A 3439   9.454   3.744   5.050
  261POPC   C3A 3440   9.377   3.982   5.411
  261POPC   C4A 3441   9.505   3.992   5.821
  261POPC   C1B 3442   9.354   4.504   4.708
  261POPC   C2B 3443   9.185   4.450   5.149
  261POPC   C3B 3444   9.350   4.499   5.566
  261POPC   C4B 3445   9.612   4.472   5.939
  262POPC   NC3 3446   5.045   2.997   3.893
  262POPC   PO4 3447   4.518   2.505   3.875
  262POPC   GL1 3448   4.787   2.579   4.257
  262POPC   GL2 3449   5.143   2.490   4.181
  262POPC   C1A 3450   4.892   2.864   4.624
  262POPC   D2A 3451   4.829   3.040   5.060
  262POPC   C3A 3452   4.804   2.952   5.529
  262POPC   C4A 3453   4.932   3.206   5.955
  262POPC   C1B 3454   5.261   2.513   4.622
  262POPC   C2B 3455   5.221   2.674   5.076
  262POPC   C3B 3456   5.285   2.763   5.538
  262POPC   C4B 3457   5.036   2.721   5.946
  263POPC   NC3 3458   0.248   6.125   3.891
  263POPC   PO4 3459   0.655   6.705   3.916
  263POPC   GL1 3460   0.601   6.352   4.176
  263POPC   GL2 3461   0.235   6.395   4.306
  263POPC   C1A 3462   0.583   6.212   4.589
  263POPC   D2A 3463   0.509   6.471   4.955
  263POPC   C3A 3464   0.554   6.279   5.350
  263POPC   C4A 3465   0.664   6.129   5.757
  263POPC   C1B 3466   0.078   6.291   4.724
  263POPC   C2B 3467  10.474   6.539   5.041
  263POPC   C3B 3468   0.200   6.629   5.371
  263POPC   C4B 3469   0.384   6.535   5.764
  264POPC   NC3 3470   0.647   1.464   3.820
  264POPC   PO4 3471   0.815   0.803   3.708
  264POPC   GL1 3472   0.699   1.027   4.110
  264POPC   GL2 3473   0.378   1.212   4.166
  264POPC   C1A 3474   0.695   1.168   4.567
  264POPC   D2A 3475   0.589   1.004   4.974
  264POPC   C3A 3476   0.642   1.101   5.399
  264POPC   C4A 3477   0.757   0.985   5.787
  264POPC   C1B 3478   0.168   1.108   4.570
  264POPC   C2B 3479   0.114   0.878   4.949
  264POPC   C3B 3480   0.060   0.834   5.400
  264POPC   C4B 3481   0.229   1.113   5.703
  265POPC   NC3 3482   6.526   7.925   3.829
  265POPC   PO4 3483   6.041   7.513   3.987
  265POPC   GL1 3484   6.289   7.673   4.291
  265POPC   GL2 3485   6.558   7.917   4.335
  265POPC   C1A 3486   6.250   7.593   4.723
  265POPC   D2A 3487   6.230   7.509   5.157
  265POPC   C3A 3488   6.416   7.767   5.469
  265POPC   C4A 3489   6.382   7.650   5.870
  265POPC   C1B 3490   6.246   8.080   4.604
  265POPC   C2B 3491   6.317   8.028   5.046
  265POPC   C3B 3492   6.710   8.145   5.272
  265POPC   C4B 3493   6.790   8.201   5.716
  266POPC   NC3 3494   8.029   1.107   3.769
  266POPC   PO4 3495   7.528   1.611   3.676
  266POPC   GL1 3496   7.751   1.331   4.107
  266POPC   GL2 3497   7.540   1.040   4.295
  266POPC   C1A 3498   7.990   1.129   4.477
  266POPC   D2A 3499   8.121   0.928   4.872
  266POPC   C3A 3500   7.857   0.951   5.253
  266POPC   C4A 3501   7.976   1.240   5.594
  266POPC   C1B 3502   7.585   1.027   4.792
  266POPC   C2B 3503   7.522   1.366   5.134
  266POPC   C3B 3504   7.533   1.463   5.548
  266POPC   C4B 3505   7.532   1.106   5.846
  267POPC   NC3 3506   0.706   5.376   3.848
  267POPC   PO4 3507   0.207   4.970   4.036
  267POPC   GL1 3508   0.328   5.334   4.236
  267POPC   GL2 3509   0.427   5.697   4.153
  267POPC   C1A 3510   0.183   5.431   4.643
  267POPC   D2A 3511   0.024   5.302   5.031
  267POPC   C3A 3512   0.264   5.306   5.401
  267POPC   C4A 3513   0.563   5.416   5.755
  267POPC   C1B 3514   0.618   5.695   4.584
  267POPC   C2B 3515   0.509   5.596   5.039
  267POPC   C3B 3516   0.365   5.814   5.448
  267POPC   C4B 3517   0.189   6.026   5.845
  268POPC   NC3 3518   9.108   6.079   4.173
  268POPC   PO4 3519   8.550   6.206   3.862
  268POPC   GL1 3520   8.614   6.424   4.219
  268POPC   GL2 3521   8.878   6.517   4.161
  268POPC   C1A 3522   8.514   6.352   4.650
  268POPC   D2A 3523   8.395   6.264   5.052
  268POPC   C3A 3524   8.645   6.271   5.391
  268POPC   C4A 3525   8.489   6.466   5.783
  268POPC   C1B 3526   8.960   6.601   4.624
  268POPC   C2B 3527   8.866   6.584   5.056
  268POPC   C3B 3528   8.830   6.732   5.502
  268POPC   C4B 3529   8.986   6.687   5.916
  269POPC   NC3 3530   5.577   9.822   3.901
  269POPC   PO4 3531   5.895   9.218   3.958
  269POPC   GL1 3532   5.816   9.604   4.289
  269POPC   GL2 3533   5.482   9.687   4.375
  269POPC   C1A 3534   5.868   9.846   4.697
  269POPC   D2A 3535   5.854   9.648   5.104
  269POPC   C3A 3536   5.730   9.837   5.481
  269POPC   C4A 3537   5.848   9.676   5.866
  269POPC   C1B 3538   5.414   9.570   4.785
  269POPC   C2B 3539   5.383   9.449   5.191
  269POPC   C3B 3540   5.637   9.349   5.521
  269POPC   C4B 3541   5.402   9.455   5.882
  270POPC   NC3 3542   4.337   2.938   3.919
  270POPC   PO4 3543   3.909   2.419   3.996
  270POPC   GL1 3544   4.215   2.400   4.263
  270POPC   GL2 3545   4.288   2.701   4.364
  270POPC   C1A 3546   4.288   2.264   4.653
  270POPC   D2A 3547   4.358   2.308   5.066
  270POPC   C3A 3548   4.024   2.214   5.271
  270POPC   C4A 3549   3.922   2.332   5.655
  270POPC   C1B 3550   4.414   2.752   4.786
  270POPC   C2B 3551   4.380   2.798   5.230
  270POPC   C3B 3552   4.144   2.813   5.614
  270POPC   C4B 3553   4.092   3.068   6.003
  271POPC   NC3 3554   3.430   2.177   3.975
  271POPC   PO4 3555   3.925   1.723   3.687
  271POPC   GL1 3556   3.647   1.727   4.162
  271POPC   GL2 3557   3.277   1.679   4.264
  271POPC   C1A 3558   3.530   1.834   4.657
  271POPC   D2A 3559   3.629   1.960   5.090
  271POPC   C3A 3560   3.478   1.899   5.499
  271POPC   C4A 3561   3.217   1.566   5.712
  271POPC   C1B 3562   3.054   1.968   4.630
  271POPC   C2B 3563   3.091   1.961   5.082
  271POPC   C3B 3564   3.028   2.098   5.510
  271POPC   C4B 3565   3.234   2.029   5.949
  272POPC   NC3 3566   7.801   3.352   3.986
  272POPC   PO4 3567   8.252   3.957   3.935
  272POPC   GL1 3568   8.187   3.596   4.240
  272POPC   GL2 3569   7.871   3.599   4.410
  272POPC   C1A 3570   8.232   3.332   4.617
  272POPC   D2A 3571   8.054   3.503   4.989
  272POPC   C3A 3572   8.126   3.585   5.421
  272POPC   C4A 3573   8.111   3.805   5.829
  272POPC   C1B 3574   7.754   3.155   4.583
  272POPC   C2B 3575   7.934   2.993   4.955
  272POPC   C3B 3576   7.826   3.140   5.370
  272POPC   C4B 3577   7.811   3.376   5.773
  273POPC   NC3 3578   2.244   0.960   3.798
  273POPC   PO4 3579   2.331   1.652   3.846
  273POPC   GL1 3580   2.091   1.456   4.209
  273POPC   GL2 3581   1.969   1.126   4.227
  273POPC   C1A 3582   2.067   1.416   4.660
  273POPC   D2A 3583   2.363   1.351   5.005
  273POPC   C3A 3584   2.213   1.427   5.372
  273POPC   C4A 3585   2.316   1.449   5.787
  273POPC   C1B 3586   1.817   0.960   4.647
  273POPC   C2B 3587   1.935   1.050   5.092
  273POPC   C3B 3588   1.864   1.068   5.544
  273POPC   C4B 3589   1.800   1.427   5.687
  274POPC   NC3 3590   7.165   7.785   4.001
  274POPC   PO4 3591   7.609   8.329   4.004
  274POPC   GL1 3592   7.364   8.106   4.331
  274POPC   GL2 3593   7.456   7.732   4.426
  274POPC   C1A 3594   7.065   8.157   4.668
  274POPC   D2A 3595   7.229   8.255   5.065
  274POPC   C3A 3596   7.197   8.017   5.410
  274POPC   C4A 3597   7.323   8.189   5.751
  274POPC   C1B 3598   7.260   7.734   4.903
  274POPC   C2B 3599   6.925   7.620   5.262
  274POPC   C3B 3600   6.881   7.705   5.727
  274POPC   C4B 3601   6.772   7.567   6.183
  275POPC   NC3 3602   4.191   2.121   3.779
  275POPC   PO4 3603   4.546   1.653   4.086
  275POPC   GL1 3604   4.427   1.794   4.436
  275POPC   GL2 3605   4.117   1.902   4.274
  275POPC   C1A 3606   4.528   1.854   4.864
  275POPC   D2A 3607   4.518   1.886   5.313
  275POPC   C3A 3608   4.417   2.212   5.592
  275POPC   C4A 3609   4.215   2.058   5.963
  275POPC   C1B 3610   4.022   1.825   4.730
  275POPC   C2B 3611   4.066   1.694   5.148
  275POPC   C3B 3612   3.987   1.810   5.569
  275POPC   C4B 3613   3.731   1.787   5.928
  276POPC   NC3 3614   2.417   9.224   4.176
  276POPC   PO4 3615   1.870   9.337   3.775
  276POPC   GL1 3616   1.911   9.311   4.250
  276POPC   GL2 3617   1.644   9.115   4.269
  276POPC   C1A 3618   2.086   9.395   4.716
  276POPC   D2A 3619   2.369   9.339   5.085
  276POPC   C3A 3620   2.161   9.557   5.428
  276POPC   C4A 3621   2.034   9.509   5.843
  276POPC   C1B 3622   1.581   9.299   4.643
  276POPC   C2B 3623   1.673   9.544   5.005
  276POPC   C3B 3624   1.647   9.454   5.417
  276POPC   C4B 3625   1.637   9.204   5.756
  277POPC   NC3 3626   4.978   1.477   4.161
  277POPC   PO4 3627   4.945   0.949   3.734
  277POPC   GL1 3628   4.716   0.942   4.165
  277POPC   GL2 3629   4.552   1.210   4.325
  277POPC   C1A 3630   4.771   0.879   4.638
  277POPC   D2A 3631   4.590   0.909   5.039
  277POPC   C3A 3632   4.766   0.877   5.449
  277POPC   C4A 3633   4.477   1.021   5.781
  277POPC   C1B 3634   4.790   1.384   4.747
  277POPC   C2B 3635   4.960   1.251   5.141
  277POPC   C3B 3636   4.850   1.367   5.563
  277POPC   C4B 3637   5.065   1.532   5.901
  278POPC   NC3 3638   0.756   0.502   4.072
  278POPC   PO4 3639   0.175   0.777   3.982
  278POPC   GL1 3640   0.355   0.678   4.358
  278POPC   GL2 3641   0.203   0.365   4.305
  278POPC   C1A 3642   0.543   0.426   4.709
  278POPC   D2A 3643   0.799   0.443   5.077
  278POPC   C3A 3644   0.540   0.618   5.356
  278POPC   C4A 3645   0.413   0.583   5.753
  278POPC   C1B 3646  10.482   0.453   4.690
  278POPC   C2B 3647   0.158   0.398   5.097
  278POPC   C3B 3648   0.233   0.189   5.473
  278POPC   C4B 3649   0.046   0.217   5.857
  279POPC   NC3 3650   0.336   2.203   3.905
  279POPC   PO4 3651   0.668   1.711   4.190
  279POPC   GL1 3652   0.376   1.769   4.409
  279POPC   GL2 3653   0.481   2.153   4.398
  279POPC   C1A 3654   0.373   1.523   4.796
  279POPC   D2A 3655   0.265   1.362   5.202
  279POPC   C3A 3656   0.473   1.544   5.577
  279POPC   C4A 3657   0.204   1.660   5.922
  279POPC   C1B 3658   0.630   1.987   4.787
  279POPC   C2B 3659   0.454   1.881   5.147
  279POPC   C3B 3660   0.251   1.988   5.485
  279POPC   C4B 3661   0.489   2.039   5.818
  280POPC   NC3 3662   9.869   4.362   3.929
  280POPC   PO4 3663   0.021   3.988   4.028
  280POPC   GL1 3664  10.257   4.186   4.257
  280POPC   GL2 3665   9.997   3.996   4.326
  280POPC   C1A 3666  10.307   4.178   4.705
  280POPC   D2A 3667   0.066   4.253   5.057
  280POPC   C3A 3668  10.366   4.202   5.445
  280POPC   C4A 3669  10.374   4.475   5.813
  280POPC   C1B 3670   9.812   4.268   4.631
  280POPC   C2B 3671   9.631   4.254   5.047
  280POPC   C3B 3672   9.795   4.286   5.448
  280POPC   C4B 3673   9.991   4.150   5.785
  281POPC   NC3 3674   2.570   6.519   3.929
  281POPC   PO4 3675   3.002   6.891   4.093
  281POPC   GL1 3676   2.822   6.562   4.379
  281POPC   GL2 3677   2.645   6.220   4.351
  281POPC   C1A 3678   2.889   6.531   4.814
  281POPC   D2A 3679   2.838   6.378   5.214
  281POPC   C3A 3680   3.042   6.486   5.596
  281POPC   C4A 3681   2.947   6.687   5.986
  281POPC   C1B 3682   2.398   6.286   4.768
  281POPC   C2B 3683   2.340   6.278   5.229
  281POPC   C3B 3684   2.570   6.238   5.615
  281POPC   C4B 3685   2.621   5.885   5.893
  282POPC   NC3 3686   2.501  10.287   4.015
  282POPC   PO4 3687   2.274   9.691   4.161
  282POPC   GL1 3688   2.656   9.918   4.353
  282POPC   GL2 3689   2.862  10.256   4.353
  282POPC   C1A 3690   2.596  10.064   4.772
  282POPC   D2A 3691   2.423   9.887   5.120
  282POPC   C3A 3692   2.621  10.078   5.498
  282POPC   C4A 3693   2.467  10.191   5.911
  282POPC   C1B 3694   2.827  10.499   4.741
  282POPC   C2B 3695   2.723  10.456   5.143
  282POPC   C3B 3696   2.951  10.488   5.505
  282POPC   C4B 3697   2.939  10.396   5.946
  283POPC   NC3 3698   5.331   0.669   4.013
  283POPC   PO4 3699   5.939   0.940   3.865
  283POPC   GL1 3700   5.877   0.569   4.240
  283POPC   GL2 3701   5.655   0.235   4.258
  283POPC   C1A 3702   5.736   0.458   4.713
  283POPC   D2A 3703   5.565   0.670   5.095
  283POPC   C3A 3704   5.768   0.735   5.484
  283POPC   C4A 3705   5.857   0.473   5.871
  283POPC   C1B 3706   5.389   0.080   4.607
  283POPC   C2B 3707   5.424   0.154   5.048
  283POPC   C3B 3708   5.572   0.263   5.469
  283POPC   C4B 3709   5.391   0.252   5.878
  284POPC   NC3 3710   4.513   1.175   3.743
  284POPC   PO4 3711   3.891   0.901   4.006
  284POPC   GL1 3712   3.983   1.034   4.380
  284POPC   GL2 3713   4.079   1.395   4.451
  284POPC   C1A 3714   3.807   0.921   4.750
  284POPC   D2A 3715   3.916   1.195   5.063
  284POPC   C3A 3716   4.054   1.079   5.458
  284POPC   C4A 3717   3.952   0.878   5.840
  284POPC   C1B 3718   4.310   1.241   4.766
  284POPC   C2B 3719   4.470   1.387   5.159
  284POPC   C3B 3720   4.354   1.469   5.561
  284POPC   C4B 3721   4.207   1.547   5.965
  285POPC   NC3 3722   3.232   5.213   4.031
  285POPC   PO4 3723   2.684   5.377   3.793
  285POPC   GL1 3724   2.391   5.338   4.156
  285POPC   GL2 3725   2.297   5.683   4.262
  285POPC   C1A 3726   2.398   5.256   4.609
  285POPC   D2A 3727   2.460   5.432   5.028
  285POPC   C3A 3728   2.731   5.436   5.382
  285POPC   C4A 3729   2.768   5.399   5.813
  285POPC   C1B 3730   2.520   5.785   4.642
  285POPC   C2B 3731   2.678   5.907   5.079
  285POPC   C3B 3732   2.938   5.924   5.471
  285POPC   C4B 3733   3.204   5.698   5.758
  286POPC   NC3 3734   4.772   9.370   3.929
  286POPC   PO4 3735   5.119   9.841   4.059
  286POPC   GL1 3736   4.748   9.735   4.288
  286POPC   GL2 3737   4.868   9.423   4.435
  286POPC   C1A 3738   4.471   9.660   4.675
  286POPC   D2A 3739   4.613   9.552   5.117
  286POPC   C3A 3740   4.628   9.720   5.576
  286POPC   C4A 3741   4.588   9.689   6.062
  286POPC   C1B 3742   4.983   9.265   4.847
  286POPC   C2B 3743   5.171   8.978   5.160
  286POPC   C3B 3744   5.185   9.109   5.589
  286POPC   C4B 3745   4.898   9.356   5.833
  287POPC   NC3 3746   7.865   5.188   3.749
  287POPC   PO4 3747   7.674   5.754   4.031
  287POPC   GL1 3748   7.904   5.679   4.391
  287POPC   GL2 3749   8.226   5.725   4.373
  287POPC   C1A 3750   7.833   5.695   4.818
  287POPC   D2A 3751   8.036   5.621   5.219
  287POPC   C3A 3752   7.727   5.774   5.555
  287POPC   C4A 3753   7.517   5.566   5.925
  287POPC   C1B 3754   8.353   5.826   4.808
  287POPC   C2B 3755   8.542   5.736   5.215
  287POPC   C3B 3756   8.387   5.537   5.590
  287POPC   C4B 3757   8.103   5.720   5.880
  288POPC   NC3 3758   9.793   9.033   3.750
  288POPC   PO4 3759  10.474   9.069   3.844
  288POPC   GL1 3760  10.170   9.152   4.176
  288POPC   GL2 3761  10.043   9.507   4.247
  288POPC   C1A 3762  10.172   9.047   4.624
  288POPC   D2A 3763  10.154   9.215   5.040
  288POPC   C3A 3764  10.247   8.984   5.414
  288POPC   C4A 3765  10.194   9.100   5.851
  288POPC   C1B 3766  10.291   9.565   4.640
  288POPC   C2B 3767  10.310   9.712   5.083
  288POPC   C3B 3768  10.250   9.501   5.478
  288POPC   C4B 3769   9.964   9.575   5.815
  289POPC   NC3 3770   9.211   9.185   4.220
  289POPC   PO4 3771   9.364   9.619   3.736
  289POPC   GL1 3772   9.535   9.610   4.244
  289POPC   GL2 3773   9.317   9.601   4.508
  289POPC   C1A 3774   9.781   9.474   4.707
  289POPC   D2A 3775   9.771   9.508   5.206
  289POPC   C3A 3776   9.778   9.180   5.560
  289POPC   C4A 3777   9.746   9.181   6.085
  289POPC   C1B 3778   9.315   9.369   4.868
  289POPC   C2B 3779   9.057   9.137   5.088
  289POPC   C3B 3780   9.173   9.360   5.472
  289POPC   C4B 3781   9.430   9.454   5.804
  290POPC   NC3 3782   8.908   9.484   3.863
  290POPC   PO4 3783   8.558   8.989   4.154
  290POPC   GL1 3784   8.755   9.347   4.344
  290POPC   GL2 3785   8.501   9.537   4.406
  290POPC   C1A 3786   8.846   9.551   4.773
  290POPC   D2A 3787   8.753   9.541   5.223
  290POPC   C3A 3788   8.965   9.825   5.485
  290POPC   C4A 3789   9.042   9.748   5.923
  290POPC   C1B 3790   8.485   9.175   4.744
  290POPC   C2B 3791   8.530   9.006   5.152
  290POPC   C3B 3792   8.763   9.071   5.499
  290POPC   C4B 3793   8.690   9.397   5.755
  291POPC   NC3 3794   2.488   4.963   3.814
  291POPC   PO4 3795   3.121   4.775   3.963
  291POPC   GL1 3796   2.810   4.992   4.208
  291POPC   GL2 3797   2.535   4.794   4.303
  291POPC   C1A 3798   2.885   5.131   4.624
  291POPC   D2A 3799   2.806   5.039   5.057
  291POPC   C3A 3800   3.086   4.899   5.390
  291POPC   C4A 3801   3.103   4.979   5.842
  291POPC   C1B 3802   2.333   4.730   4.706
  291POPC   C2B 3803   2.336   4.910   5.138
  291POPC   C3B 3804   2.608   4.930   5.552
  291POPC   C4B 3805   2.521   5.000   5.998
  292POPC   NC3 3806  10.230   8.580   3.770
  292POPC   PO4 3807   9.580   8.643   3.703
  292POPC   GL1 3808   9.893   8.664   4.121
  292POPC   GL2 3809  10.236   8.637   4.263
  292POPC   C1A 3810   9.855   8.622   4.608
  292POPC   D2A 3811  10.058   8.670   5.002
  292POPC   C3A 3812   9.847   8.676   5.408
  292POPC   C4A 3813   9.747   8.739   5.827
  292POPC   C1B 3814  10.325   8.314   4.572
  292POPC   C2B 3815  10.488   8.358   4.982
  292POPC   C3B 3816  10.286   8.426   5.383
  292POPC   C4B 3817  10.226   8.595   5.763
  293POPC   NC3 3818   8.317   9.328   3.980
  293POPC   PO4 3819   7.719   9.445   3.774
  293POPC   GL1 3820   7.751   9.267   4.219
  293POPC   GL2 3821   8.078   9.202   4.397
  293POPC   C1A 3822   7.643   9.289   4.690
  293POPC   D2A 3823   7.777   9.478   5.103
  293POPC   C3A 3824   7.667   9.289   5.473
  293POPC   C4A 3825   7.495   9.433   5.833
  293POPC   C1B 3826   8.100   9.533   4.707
  293POPC   C2B 3827   8.280   9.458   5.098
  293POPC   C3B 3828   8.240   9.333   5.495
  293POPC   C4B 3829   8.003   9.547   5.777
  294POPC   NC3 3830   0.985   8.559   3.865
  294POPC   PO4 3831   1.480   8.240   3.957
  294POPC   GL1 3832   1.289   8.441   4.286
  294POPC   GL2 3833   1.241   8.808   4.215
  294POPC   C1A 3834   1.158   8.373   4.715
  294POPC   D2A 3835   0.996   8.569   5.086
  294POPC   C3A 3836   0.916   8.333   5.467
  294POPC   C4A 3837   0.962   8.605   5.808
  294POPC   C1B 3838   1.376   8.825   4.634
  294POPC   C2B 3839   1.517   8.617   4.998
  294POPC   C3B 3840   1.446   8.556   5.422
  294POPC   C4B 3841   1.453   8.745   5.813
  295POPC   NC3 3842   1.435   0.910   4.090
  295POPC   PO4 3843   1.104   1.424   3.736
  295POPC   GL1 3844   1.062   1.387   4.234
  295POPC   GL2 3845   1.193   1.148   4.443
  295POPC   C1A 3846   1.044   1.552   4.704
  295POPC   D2A 3847   0.797   1.497   5.097
  295POPC   C3A 3848   1.020   1.417   5.493
  295POPC   C4A 3849   1.023   1.417   5.932
  295POPC   C1B 3850   1.380   1.154   4.848
  295POPC   C2B 3851   1.479   1.290   5.263
  295POPC   C3B 3852   1.360   1.066   5.626
  295POPC   C4B 3853   1.211   0.851   5.953
  296POPC   NC3 3854   7.906   1.793   3.877
  296POPC   PO4 3855   7.357   1.616   4.178
  296POPC   GL1 3856   7.690   1.789   4.348
  296POPC   GL2 3857   7.660   2.135   4.232
  296POPC   C1A 3858   7.954   1.633   4.674
  296POPC   D2A 3859   8.021   1.425   5.072
  296POPC   C3A 3860   7.951   1.712   5.431
  296POPC   C4A 3861   7.752   1.925   5.783
  296POPC   C1B 3862   7.858   2.160   4.655
  296POPC   C2B 3863   8.050   2.001   5.023
  296POPC   C3B 3864   7.930   2.203   5.402
  296POPC   C4B 3865   7.988   2.378   5.787
  297POPC   NC3 3866   2.496   2.041   3.645
  297POPC   PO4 3867   3.008   1.984   3.990
  297POPC   GL1 3868   2.678   1.998   4.276
  297POPC   GL2 3869   2.527   1.680   4.335
  297POPC   C1A 3870   2.575   2.184   4.706
  297POPC   D2A 3871   2.745   2.349   5.087
  297POPC   C3A 3872   2.558   2.298   5.499
  297POPC   C4A 3873   2.536   2.332   5.971
  297POPC   C1B 3874   2.625   1.689   4.730
  297POPC   C2B 3875   2.574   1.842   5.127
  297POPC   C3B 3876   2.730   1.690   5.490
  297POPC   C4B 3877   2.739   1.853   5.861
  298POPC   NC3 3878  10.392   0.112   3.976
  298POPC   PO4 3879  10.225   9.925   3.884
  298POPC   GL1 3880  10.261  10.141   4.253
  298POPC   GL2 3881   9.912  10.197   4.249
  298POPC   C1A 3882  10.418  10.069   4.695
  298POPC   D2A 3883   0.088  10.188   5.110
  298POPC   C3A 3884  10.342  10.263   5.481
  298POPC   C4A 3885  10.360   9.903   5.785
  298POPC   C1B 3886   9.911   9.975   4.630
  298POPC   C2B 3887   9.992  10.121   5.044
  298POPC   C3B 3888   9.956   9.935   5.445
  298POPC   C4B 3889   9.903  10.126   5.834
  299POPC   NC3 3890   0.971   9.551   3.828
  299POPC   PO4 3891   0.789   8.962   3.932
  299POPC   GL1 3892   0.919   9.212   4.280
  299POPC   GL2 3893   1.206   9.430   4.299
  299POPC   C1A 3894   1.054   9.208   4.723
  299POPC   D2A 3895   1.341   9.129   5.064
  299POPC   C3A 3896   1.139   9.285   5.405
  299POPC   C4A 3897   1.053   9.093   5.780
  299POPC   C1B 3898   1.307   9.720   4.652
  299POPC   C2B 3899   1.298   9.917   5.067
  299POPC   C3B 3900   1.261   9.787   5.467
  299POPC   C4B 3901   1.277   9.543   5.828
  300POPC   NC3 3902   8.010   0.431   3.897
  300POPC   PO4 3903   8.546   0.060   3.923
  300POPC   GL1 3904   8.420   0.352   4.254
  300POPC   GL2 3905   8.197   0.633   4.334
  300POPC   C1A 3906   8.290   0.240   4.674
  300POPC   D2A 3907   8.155   0.435   5.043
  300POPC   C3A 3908   8.300   0.261   5.426
  300POPC   C4A 3909   8.089   0.077   5.760
  300POPC   C1B 3910   7.838   0.577   4.622
  300POPC   C2B 3911   7.645   0.477   5.039
  300POPC   C3B 3912   7.821   0.423   5.445
  300POPC   C4B 3913   7.893   0.766   5.745
  301POPC   NC3 3914   4.082   8.805   3.812
  301POPC   PO4 3915   4.428   8.259   3.689
  301POPC   GL1 3916   4.335   8.441   4.132
  301POPC   GL2 3917   4.065   8.616   4.273
  301POPC   C1A 3918   4.471   8.549   4.577
  301POPC   D2A 3919   4.325   8.693   4.980
  301POPC   C3A 3920   4.378   8.533   5.402
  301POPC   C4A 3921   4.321   8.784   5.710
  301POPC   C1B 3922   3.966   8.809   4.640
  301POPC   C2B 3923   3.785   8.595   4.989
  301POPC   C3B 3924   3.894   8.692   5.418
  301POPC   C4B 3925   3.890   8.472   5.819
  302POPC   NC3 3926  10.045   3.665   3.961
  302POPC   PO4 3927   0.154   3.422   3.832
  302POPC   GL1 3928  10.451   3.545   4.274
  302POPC   GL2 3929  10.114   3.415   4.408
  302POPC   C1A 3930  10.415   3.695   4.738
  302POPC   D2A 3931  10.279   3.512   5.145
  302POPC   C3A 3932  10.346   3.678   5.565
  302POPC   C4A 3933  10.455   3.390   5.941
  302POPC   C1B 3934   9.892   3.702   4.723
  302POPC   C2B 3935   9.997   3.928   5.105
  302POPC   C3B 3936   9.834   3.734   5.479
  302POPC   C4B 3937   9.988   3.317   5.617
  303POPC   NC3 3938   0.900   6.352   3.744
  303POPC   PO4 3939   1.469   6.112   3.917
  303POPC   GL1 3940   1.347   6.348   4.257
  303POPC   GL2 3941   1.099   6.573   4.185
  303POPC   C1A 3942   1.461   6.353   4.678
  303POPC   D2A 3943   1.331   6.108   5.015
  303POPC   C3A 3944   1.409   6.278   5.393
  303POPC   C4A 3945   1.359   6.081   5.773
  303POPC   C1B 3946   0.977   6.538   4.654
  303POPC   C2B 3947   0.998   6.483   5.137
  303POPC   C3B 3948   0.987   6.499   5.629
  303POPC   C4B 3949   0.796   6.617   6.064
  304POPC   NC3 3950   9.966   5.963   4.018
  304POPC   PO4 3951   0.053   5.658   3.776
  304POPC   GL1 3952  10.365   5.566   4.239
  304POPC   GL2 3953  10.029   5.525   4.288
  304POPC   C1A 3954  10.242   5.718   4.698
  304POPC   D2A 3955   0.032   5.831   5.003
  304POPC   C3A 3956  10.372   5.645   5.363
  304POPC   C4A 3957   0.011   5.569   5.750
  304POPC   C1B 3958   9.788   5.444   4.691
  304POPC   C2B 3959   9.931   5.491   5.100
  304POPC   C3B 3960   9.845   5.581   5.514
  304POPC   C4B 3961  10.073   5.877   5.696
  305POPC   NC3 3962   8.407   4.830   3.904
  305POPC   PO4 3963   9.095   4.765   4.019
  305POPC   GL1 3964   8.795   4.692   4.323
  305POPC   GL2 3965   8.759   5.055   4.337
  305POPC   C1A 3966   8.873   4.625   4.766
  305POPC   D2A 3967   8.751   4.811   5.177
  305POPC   C3A 3968   8.784   4.792   5.611
  305POPC   C4A 3969   8.969   4.532   5.891
  305POPC   C1B 3970   8.565   5.015   4.746
  305POPC   C2B 3971   8.425   5.203   5.157
  305POPC   C3B 3972   8.334   5.012   5.538
  305POPC   C4B 3973   8.389   5.149   5.956
  306POPC   NC3 3974   0.980   2.935   3.735
  306POPC   PO4 3975   0.948   2.274   4.101
  306POPC   GL1 3976   0.951   2.417   4.440
  306POPC   GL2 3977   1.268   2.456   4.512
  306POPC   C1A 3978   0.794   2.469   4.791
  306POPC   D2A 3979   0.867   2.748   5.068
  306POPC   C3A 3980   1.044   2.642   5.439
  306POPC   C4A 3981   0.826   2.366   5.639
  306POPC   C1B 3982   1.296   2.507   4.955
  306POPC   C2B 3983   1.374   2.899   5.113
  306POPC   C3B 3984   1.361   3.040   5.500
  306POPC   C4B 3985   1.290   2.926   5.915
  307POPC   NC3 3986   8.013   8.136   3.875
  307POPC   PO4 3987   7.646   7.514   3.949
  307POPC   GL1 3988   8.012   7.715   4.191
  307POPC   GL2 3989   7.886   8.003   4.337
  307POPC   C1A 3990   8.178   7.741   4.656
  307POPC   D2A 3991   8.003   7.612   5.043
  307POPC   C3A 3992   8.134   7.807   5.436
  307POPC   C4A 3993   8.286   7.857   5.868
  307POPC   C1B 3994   7.707   8.005   4.756
  307POPC   C2B 3995   7.659   7.973   5.183
  307POPC   C3B 3996   7.644   7.804   5.576
  307POPC   C4B 3997   7.834   8.092   5.761
  308POPC   NC3 3998   4.356   7.850   3.866
  308POPC   PO4 3999   3.874   8.395   3.854
  308POPC   GL1 4000   3.910   8.127   4.220
  308POPC   GL2 4001   4.075   7.794   4.273
  308POPC   C1A 4002   4.028   8.262   4.644
  308POPC   D2A 4003   4.193   8.216   5.046
  308POPC   C3A 4004   4.047   8.154   5.455
  308POPC   C4A 4005   4.161   8.065   5.931
  308POPC   C1B 4006   4.194   7.776   4.722
  308POPC   C2B 4007   4.284   7.715   5.139
  308POPC   C3B 4008   4.324   7.741   5.572
  308POPC   C4B 4009   3.961   7.511   5.751
  309POPC   NC3 4010   0.819  10.245   3.893
  309POPC   PO4 4011   1.297   9.821   3.994
  309POPC   GL1 4012   1.055  10.013   4.292
  309POPC   GL2 4013   1.098  10.403   4.325
  309POPC   C1A 4014   0.959  10.088   4.712
  309POPC   D2A 4015   0.839  10.145   5.110
  309POPC   C3A 4016   0.761   9.836   5.415
  309POPC   C4A 4017   0.889   9.850   5.812
  309POPC   C1B 4018   1.021   0.100   4.757
  309POPC   C2B 4019   1.157   0.056   5.201
  309POPC   C3B 4020   1.072  10.261   5.556
  309POPC   C4B 4021   1.330  10.113   5.911
  310POPC   NC3 4022   3.418   8.793   3.872
  310POPC   PO4 4023   3.243   8.291   3.570
  310POPC   GL1 4024   3.439   8.371   4.131
  310POPC   GL2 4025   3.565   8.722   4.335
  310POPC   C1A 4026   3.519   8.307   4.593
  310POPC   D2A 4027   3.324   8.281   5.011
  310POPC   C3A 4028   3.528   8.356   5.379
  310POPC   C4A 4029   3.370   8.395   5.772
  310POPC   C1B 4030   3.298   8.743   4.729
  310POPC   C2B 4031   3.295   8.803   5.138
  310POPC   C3B 4032   3.331   9.023   5.468
  310POPC   C4B 4033   3.563   8.866   5.794
  311POPC   NC3 4034   8.625   2.949   3.998
  311POPC   PO4 4035   9.003   2.487   3.800
  311POPC   GL1 4036   8.834   2.359   4.206
  311POPC   GL2 4037   8.533   2.531   4.285
  311POPC   C1A 4038   8.883   2.360   4.645
  311POPC   D2A 4039   9.070   2.535   5.033
  311POPC   C3A 4040   8.919   2.462   5.465
  311POPC   C4A 4041   8.816   2.502   5.936
  311POPC   C1B 4042   8.600   2.778   4.677
  311POPC   C2B 4043   8.566   2.669   5.127
  311POPC   C3B 4044   8.604   2.842   5.545
  311POPC   C4B 4045   8.374   2.893   5.890
  312POPC   NC3 4046   8.879   2.012   3.842
  312POPC   PO4 4047   8.310   1.544   3.881
  312POPC   GL1 4048   8.319   1.834   4.260
  312POPC   GL2 4049   8.688   1.873   4.335
  312POPC   C1A 4050   8.384   2.129   4.641
  312POPC   D2A 4051   8.606   2.169   5.029
  312POPC   C3A 4052   8.417   2.013   5.388
  312POPC   C4A 4053   8.449   2.348   5.642
  312POPC   C1B 4054   8.926   1.838   4.741
  312POPC   C2B 4055   8.917   1.810   5.207
  312POPC   C3B 4056   8.876   1.958   5.606
  312POPC   C4B 4057   8.966   1.745   5.958
  313POPC   NC3 4058   7.888   4.238   4.060
  313POPC   PO4 4059   8.498   4.412   3.712
  313POPC   GL1 4060   8.373   4.405   4.167
  313POPC   GL2 4061   8.594   4.181   4.271
  313POPC   C1A 4062   8.411   4.459   4.647
  313POPC   D2A 4063   8.597   4.315   5.052
  313POPC   C3A 4064   8.469   4.435   5.460
  313POPC   C4A 4065   8.452   4.180   5.803
  313POPC   C1B 4066   8.889   4.129   4.621
  313POPC   C2B 4067   8.984   3.990   5.045
  313POPC   C3B 4068   8.914   4.186   5.472
  313POPC   C4B 4069   8.988   4.022   5.842
  314POPC   NC3 4070   3.573   8.034   3.783
  314POPC   PO4 4071   2.978   8.209   4.047
  314POPC   GL1 4072   3.128   7.855   4.240
  314POPC   GL2 4073   3.469   7.829   4.228
  314POPC   C1A 4074   3.233   7.904   4.688
  314POPC   D2A 4075   3.293   7.749   5.104
  314POPC   C3A 4076   3.264   7.946   5.507
  314POPC   C4A 4077   2.969   8.077   5.802
  314POPC   C1B 4078   3.712   7.844   4.599
  314POPC   C2B 4079   3.750   7.974   5.003
  314POPC   C3B 4080   3.730   7.763   5.381
  314POPC   C4B 4081   3.693   7.989   5.774
  315POPC   NC3 4082   2.772   8.002   3.701
  315POPC   PO4 4083   2.324   8.466   3.902
  315POPC   GL1 4084   2.517   8.256   4.256
  315POPC   GL2 4085   2.588   7.889   4.200
  315POPC   C1A 4086   2.454   8.148   4.688
  315POPC   D2A 4087   2.447   8.296   5.114
  315POPC   C3A 4088   2.448   8.114   5.455
  315POPC   C4A 4089   2.210   8.034   5.781
  315POPC   C1B 4090   2.769   7.769   4.599
  315POPC   C2B 4091   2.858   8.004   5.005
  315POPC   C3B 4092   2.814   7.795   5.372
  315POPC   C4B 4093   2.612   7.725   5.751
  316POPC   NC3 4094   0.262   2.973   3.874
  316POPC   PO4 4095   0.674   2.564   3.669
  316POPC   GL1 4096   0.671   2.725   4.119
  316POPC   GL2 4097   0.347   2.650   4.296
  316POPC   C1A 4098   0.679   2.902   4.561
  316POPC   D2A 4099   0.417   2.955   4.947
  316POPC   C3A 4100   0.477   2.894   5.387
  316POPC   C4A 4101   0.637   2.802   5.794
  316POPC   C1B 4102   0.281   2.495   4.733
  316POPC   C2B 4103   0.449   2.412   5.177
  316POPC   C3B 4104   0.309   2.470   5.612
  316POPC   C4B 4105   0.161   2.516   6.038
  317POPC   NC3 4106   2.008   2.727   3.900
  317POPC   PO4 4107   1.525   2.207   4.053
  317POPC   GL1 4108   1.701   2.550   4.273
  317POPC   GL2 4109   2.030   2.536   4.360
  317POPC   C1A 4110   1.688   2.708   4.705
  317POPC   D2A 4111   1.795   2.555   5.131
  317POPC   C3A 4112   1.580   2.553   5.522
  317POPC   C4A 4113   1.759   2.880   5.764
  317POPC   C1B 4114   2.133   2.428   4.757
  317POPC   C2B 4115   2.301   2.612   5.131
  317POPC   C3B 4116   2.152   2.619   5.536
  317POPC   C4B 4117   2.057   2.482   5.931
  318POPC   NC3 4118  10.220   1.886   3.827
  318POPC   PO4 4119  10.486   2.513   3.973
  318POPC   GL1 4120  10.483   2.060   4.249
  318POPC   GL2 4121  10.147   1.858   4.379
  318POPC   C1A 4122   0.057   2.007   4.720
  318POPC   D2A 4123  10.456   1.768   5.113
  318POPC   C3A 4124  10.243   1.973   5.468
  318POPC   C4A 4125  10.309   2.370   5.672
  318POPC   C1B 4126  10.016   1.842   4.838
  318POPC   C2B 4127   9.826   2.077   5.192
  318POPC   C3B 4128   9.767   2.079   5.655
  318POPC   C4B 4129   9.956   1.895   6.008
  319POPC   NC3 4130   7.727   6.233   4.025
  319POPC   PO4 4131   7.957   6.883   3.687
  319POPC   GL1 4132   8.187   6.773   4.213
  319POPC   GL2 4133   8.122   6.430   4.302
  319POPC   C1A 4134   8.035   6.839   4.654
  319POPC   D2A 4135   7.945   6.579   4.996
  319POPC   C3A 4136   8.132   6.602   5.409
  319POPC   C4A 4137   7.936   6.782   5.788
  319POPC   C1B 4138   8.010   6.174   4.660
  319POPC   C2B 4139   7.926   6.093   5.112
  319POPC   C3B 4140   8.173   6.055   5.478
  319POPC   C4B 4141   8.021   6.266   5.823
  320POPC   NC3 4142   5.022  10.235   3.833
  320POPC   PO4 4143   4.470   0.090   3.926
  320POPC   GL1 4144   4.629  10.434   4.328
  320POPC   GL2 4145   4.916  10.224   4.340
  320POPC   C1A 4146   4.775  10.410   4.777
  320POPC   D2A 4147   4.952  10.484   5.157
  320POPC   C3A 4148   4.803  10.199   5.467
  320POPC   C4A 4149   4.600  10.170   5.857
  320POPC   C1B 4150   4.904   9.920   4.721
  320POPC   C2B 4151   5.048   9.854   5.128
  320POPC   C3B 4152   5.196   9.791   5.540
  320POPC   C4B 4153   5.034   9.911   5.920
  321POPC   NC3 4154   7.684   2.764   3.715
  321POPC   PO4 4155   8.206   3.107   3.889
  321POPC   GL1 4156   8.124   2.920   4.278
  321POPC   GL2 4157   7.836   2.688   4.217
  321POPC   C1A 4158   8.138   2.613   4.622
  321POPC   D2A 4159   8.057   2.502   5.026
  321POPC   C3A 4160   8.121   2.721   5.421
  321POPC   C4A 4161   7.860   2.860   5.794
  321POPC   C1B 4162   7.635   2.635   4.639
  321POPC   C2B 4163   7.530   2.418   5.024
  321POPC   C3B 4164   7.622   2.594   5.423
  321POPC   C4B 4165   7.499   2.444   5.804
  322POPC   NC3 4166   3.748   2.847   3.949
  322POPC   PO4 4167   3.200   2.598   3.984
  322POPC   GL1 4168   3.456   2.464   4.382
  322POPC   GL2 4169   3.759   2.689   4.418
  322POPC   C1A 4170   3.743   2.311   4.731
  322POPC   D2A 4171   3.927   2.627   5.007
  322POPC   C3A 4172   3.660   2.706   5.386
  322POPC   C4A 4173   3.434   2.393   5.664
  322POPC   C1B 4174   3.402   2.907   4.622
  322POPC   C2B 4175   3.278   3.050   5.027
  322POPC   C3B 4176   3.068   3.081   5.420
  322POPC   C4B 4177   3.272   2.892   5.733
  323POPC   NC3 4178   1.184   3.743   3.924
  323POPC   PO4 4179   1.420   4.443   3.919
  323POPC   GL1 4180   1.153   4.230   4.229
  323POPC   GL2 4181   0.960   3.932   4.348
  323POPC   C1A 4182   1.329   4.344   4.609
  323POPC   D2A 4183   1.215   4.527   4.987
  323POPC   C3A 4184   1.183   4.318   5.374
  323POPC   C4A 4185   1.117   4.435   5.790
  323POPC   C1B 4186   0.871   4.184   4.722
  323POPC   C2B 4187   1.205   4.003   4.977
  323POPC   C3B 4188   1.480   3.893   5.327
  323POPC   C4B 4189   1.276   3.948   5.740
  324POPC   NC3 4190   9.190   8.531   3.915
  324POPC   PO4 4191   9.653   9.112   4.168
  324POPC   GL1 4192   9.447   8.749   4.333
  324POPC   GL2 4193   9.512   8.378   4.257
  324POPC   C1A 4194   9.405   8.866   4.750
  324POPC   D2A 4195   9.656   9.013   5.060
  324POPC   C3A 4196   9.393   8.888   5.375
  324POPC   C4A 4197   9.301   8.961   5.757
  324POPC   C1B 4198   9.384   8.354   4.667
  324POPC   C2B 4199   9.531   8.481   5.049
  324POPC   C3B 4200   9.425   8.383   5.460
  324POPC   C4B 4201   9.332   8.460   5.851
  325POPC   NC3 4202   5.625   1.332   3.844
  325POPC   PO4 4203   5.187   1.064   4.210
  325POPC   GL1 4204   5.620   1.000   4.311
  325POPC   GL2 4205   5.902   1.241   4.285
  325POPC   C1A 4206   5.805   0.974   4.734
  325POPC   D2A 4207   5.995   1.283   5.030
  325POPC   C3A 4208   5.833   1.262   5.460
  325POPC   C4A 4209   5.918   1.003   5.877
  325POPC   C1B 4210   5.590   1.420   4.606
  325POPC   C2B 4211   5.462   1.294   5.042
  325POPC   C3B 4212   5.336   1.098   5.463
  325POPC   C4B 4213   5.501   1.297   5.839
  326POPC   NC3 4214  10.354   1.108   3.899
  326POPC   PO4 4215   0.170   1.729   3.819
  326POPC   GL1 4216  10.466   1.511   4.209
  326POPC   GL2 4217  10.206   1.221   4.345
  326POPC   C1A 4218  10.390   1.528   4.667
  326POPC   D2A 4219  10.302   1.272   5.005
  326POPC   C3A 4220  10.121   1.462   5.352
  326POPC   C4A 4221  10.256   1.561   5.767
  326POPC   C1B 4222  10.170   0.907   4.664
  326POPC   C2B 4223  10.169   0.676   5.068
  326POPC   C3B 4224  10.034   0.775   5.474
  326POPC   C4B 4225  10.152   1.079   5.749
  327POPC   NC3 4226   1.087   1.847   4.035
  327POPC   PO4 4227   1.553   1.367   4.078
  327POPC   GL1 4228   1.549   1.604   4.428
  327POPC   GL2 4229   1.364   1.911   4.440
  327POPC   C1A 4230   1.556   1.647   4.861
  327POPC   D2A 4231   1.242   1.753   5.175
  327POPC   C3A 4232   1.325   2.065   5.510
  327POPC   C4A 4233   1.408   1.716   5.760
  327POPC   C1B 4234   1.141   2.056   4.782
  327POPC   C2B 4235   0.931   2.164   5.167
  327POPC   C3B 4236   0.843   1.888   5.490
  327POPC   C4B 4237   1.001   1.973   5.908
  328POPC   NC3 4238   9.331   3.582   3.946
  328POPC   PO4 4239   9.881   3.223   3.958
  328POPC   GL1 4240   9.537   3.083   4.251
  328POPC   GL2 4241   9.219   3.279   4.321
  328POPC   C1A 4242   9.570   3.258   4.688
  328POPC   D2A 4243   9.770   3.339   5.102
  328POPC   C3A 4244   9.508   3.233   5.454
  328POPC   C4A 4245   9.601   3.065   5.867
  328POPC   C1B 4246   9.126   3.571   4.640
  328POPC   C2B 4247   8.987   3.470   5.050
  328POPC   C3B 4248   8.998   3.640   5.439
  328POPC   C4B 4249   9.259   3.558   5.753
  329POPC   NC3 4250   9.421   2.195   3.795
  329POPC   PO4 4251   9.082   1.670   4.093
  329POPC   GL1 4252   9.254   2.052   4.260
  329POPC   GL2 4253   9.621   2.001   4.259
  329POPC   C1A 4254   9.363   2.221   4.661
  329POPC   D2A 4255   9.335   2.027   5.038
  329POPC   C3A 4256   9.348   2.218   5.409
  329POPC   C4A 4257   9.246   2.233   5.828
  329POPC   C1B 4258   9.538   1.741   4.656
  329POPC   C2B 4259   9.603   1.597   5.128
  329POPC   C3B 4260   9.352   1.724   5.528
  329POPC   C4B 4261   9.455   1.798   6.018
  330POPC   NC3 4262   0.350   7.118   3.833
  330POPC   PO4 4263   0.036   6.520   3.728
  330POPC   GL1 4264   0.124   6.856   4.178
  330POPC   GL2 4265   0.372   7.157   4.332
  330POPC   C1A 4266   0.209   6.793   4.645
  330POPC   D2A 4267   0.411   6.980   5.023
  330POPC   C3A 4268   0.209   7.129   5.404
  330POPC   C4A 4269   0.389   7.080   5.811
  330POPC   C1B 4270   0.686   7.266   4.684
  330POPC   C2B 4271   0.878   7.364   5.078
  330POPC   C3B 4272   0.675   7.372   5.468
  330POPC   C4B 4273   0.674   7.507   5.876
  331POPC   NC3 4274   1.503   4.970   3.850
  331POPC   PO4 4275   2.121   4.766   3.984
  331POPC   GL1 4276   2.044   4.986   4.344
  331POPC   GL2 4277   1.710   4.950   4.317
  331POPC   C1A 4278   1.957   5.068   4.788
  331POPC   D2A 4279   1.986   5.332   5.122
  331POPC   C3A 4280   2.219   5.251   5.489
  331POPC   C4A 4281   2.029   5.063   5.859
  331POPC   C1B 4282   1.742   4.634   4.657
  331POPC   C2B 4283   1.639   4.788   5.080
  331POPC   C3B 4284   1.886   4.865   5.394
  331POPC   C4B 4285   2.194   4.652   5.589
  332POPC   NC3 4286   1.122   7.955   3.981
  332POPC   PO4 4287   0.678   7.432   3.973
  332POPC   GL1 4288   0.779   7.758   4.308
  332POPC   GL2 4289   1.079   7.953   4.457
  332POPC   C1A 4290   0.751   7.766   4.755
  332POPC   D2A 4291   1.024   7.975   5.014
  332POPC   C3A 4292   0.919   7.804   5.374
  332POPC   C4A 4293   1.077   7.808   5.758
  332POPC   C1B 4294   1.482   7.989   4.621
  332POPC   C2B 4295   1.554   8.099   5.038
  332POPC   C3B 4296   1.360   8.064   5.428
  332POPC   C4B 4297   1.359   8.237   5.846
  333POPC   NC3 4298  10.072   6.493   3.771
  333POPC   PO4 4299  10.381   6.062   4.173
  333POPC   GL1 4300  10.095   6.293   4.389
  333POPC   GL2 4301  10.213   6.583   4.251
  333POPC   C1A 4302  10.074   6.273   4.819
  333POPC   D2A 4303  10.070   6.011   5.174
  333POPC   C3A 4304  10.428   6.154   5.397
  333POPC   C4A 4305  10.295   6.318   5.740
  333POPC   C1B 4306  10.181   6.770   4.657
  333POPC   C2B 4307  10.001   6.734   5.073
  333POPC   C3B 4308  10.188   6.708   5.443
  333POPC   C4B 4309  10.463   6.799   5.775
  334POPC   NC3 4310   3.353   3.608   3.816
  334POPC   PO4 4311   3.911   3.298   3.919
  334POPC   GL1 4312   3.601   3.245   4.263
  334POPC   GL2 4313   3.278   3.461   4.295
  334POPC   C1A 4314   3.585   3.379   4.713
  334POPC   D2A 4315   3.463   3.533   5.116
  334POPC   C3A 4316   3.544   3.230   5.436
  334POPC   C4A 4317   3.643   3.229   5.857
  334POPC   C1B 4318   3.053   3.362   4.678
  334POPC   C2B 4319   2.929   3.458   5.110
  334POPC   C3B 4320   3.142   3.581   5.514
  334POPC   C4B 4321   3.582   3.702   5.632
  335POPC   NC3 4322  10.361   5.224   3.863
  335POPC   PO4 4323  10.284   4.487   3.800
  335POPC   GL1 4324  10.288   4.699   4.218
  335POPC   GL2 4325  10.279   5.040   4.306
  335POPC   C1A 4326  10.160   4.671   4.654
  335POPC   D2A 4327  10.090   4.469   5.049
  335POPC   C3A 4328  10.138   4.665   5.416
  335POPC   C4A 4329   9.956   4.790   5.775
  335POPC   C1B 4330  10.202   5.182   4.668
  335POPC   C2B 4331  10.100   5.021   5.062
  335POPC   C3B 4332  10.258   5.152   5.456
  335POPC   C4B 4333  10.122   5.277   5.830
  336POPC   NC3 4334   6.293   1.251   3.882
  336POPC   PO4 4335   6.730   1.749   3.614
  336POPC   GL1 4336   6.701   1.513   4.103
  336POPC   GL2 4337   6.560   1.173   4.289
  336POPC   C1A 4338   6.745   1.485   4.617
  336POPC   D2A 4339   6.555   1.247   4.976
  336POPC   C3A 4340   6.643   1.315   5.415
  336POPC   C4A 4341   6.656   1.084   5.839
  336POPC   C1B 4342   6.300   0.974   4.599
  336POPC   C2B 4343   6.213   0.811   5.037
  336POPC   C3B 4344   6.259   0.972   5.459
  336POPC   C4B 4345   6.250   1.356   5.738
  337POPC   NC3 4346   2.445   9.745   3.745
  337POPC   PO4 4347   2.750   9.133   3.848
  337POPC   GL1 4348   2.839   9.424   4.311
  337POPC   GL2 4349   2.932   9.181   4.512
  337POPC   C1A 4350   2.769   9.588   4.752
  337POPC   D2A 4351   2.917   9.795   5.125
  337POPC   C3A 4352   2.685   9.570   5.439
  337POPC   C4A 4353   2.492   9.687   5.819
  337POPC   C1B 4354   2.833   9.013   4.864
  337POPC   C2B 4355   2.814   8.989   5.279
  337POPC   C3B 4356   2.653   9.106   5.636
  337POPC   C4B 4357   3.009   9.242   5.834
  338POPC   NC3 4358   6.447   2.531   3.628
  338POPC   PO4 4359   6.422   3.093   4.018
  338POPC   GL1 4360   6.472   2.950   4.425
  338POPC   GL2 4361   6.416   2.611   4.338
  338POPC   C1A 4362   6.475   2.929   4.880
  338POPC   D2A 4363   6.186   2.651   5.123
  338POPC   C3A 4364   6.185   2.786   5.556
  338POPC   C4A 4365   6.451   2.921   5.956
  338POPC   C1B 4366   6.607   2.480   4.690
  338POPC   C2B 4367   6.586   2.335   5.098
  338POPC   C3B 4368   6.630   2.576   5.444
  338POPC   C4B 4369   6.537   2.446   5.852
  339POPC   NC3 4370   1.262   1.001   3.612
  339POPC   PO4 4371   1.213   0.482   4.052
  339POPC   GL1 4372   1.203   0.551   4.448
  339POPC   GL2 4373   1.438   0.278   4.531
  339POPC   C1A 4374   0.993   0.788   4.756
  339POPC   D2A 4375   1.066   0.926   5.198
  339POPC   C3A 4376   1.030   0.602   5.525
  339POPC   C4A 4377   0.790   0.201   5.547
  339POPC   C1B 4378   1.379   0.510   4.928
  339POPC   C2B 4379   1.546   0.752   5.250
  339POPC   C3B 4380   1.532   0.555   5.624
  339POPC   C4B 4381   1.426   0.107   5.680
  340POPC   NC3 4382   1.784   1.794   3.998
  340POPC   PO4 4383   2.297   2.344   3.929
  340POPC   GL1 4384   2.172   2.045   4.296
  340POPC   GL2 4385   1.862   2.056   4.406
  340POPC   C1A 4386   2.148   1.911   4.785
  340POPC   D2A 4387   2.132   2.131   5.198
  340POPC   C3A 4388   2.273   1.898   5.559
  340POPC   C4A 4389   2.262   1.904   6.014
  340POPC   C1B 4390   1.664   2.206   4.722
  340POPC   C2B 4391   1.600   2.097   5.086
  340POPC   C3B 4392   1.756   1.809   5.359
  340POPC   C4B 4393   1.836   2.040   5.733
  341POPC   NC3 4394   8.447   6.738   3.814
  341POPC   PO4 4395   9.080   6.831   3.821
  341POPC   GL1 4396   8.955   6.990   4.268
  341POPC   GL2 4397   8.816   7.270   4.392
  341POPC   C1A 4398   8.545   6.858   4.528
  341POPC   D2A 4399   8.417   6.767   4.970
  341POPC   C3A 4400   8.453   7.000   5.337
  341POPC   C4A 4401   8.434   6.969   5.777
  341POPC   C1B 4402   8.872   7.108   4.787
  341POPC   C2B 4403   8.944   7.079   5.140
  341POPC   C3B 4404   8.920   7.313   5.425
  341POPC   C4B 4405   8.887   7.189   5.798
  342W        W 4406   1.306   4.684  10.427
  343W        W 4407   6.555   2.881   1.427
  344W        W 4408   6.592   8.559   9.146
  345W        W 4409   2.643   8.757  11.384
  346W        W 4410   6.239   6.133   1.302
  347W        W 4411   8.640   1.937   1.233
  348W        W 4412   3.764   7.519  11.550
  349W        W 4413   3.836   1.827   1.731
  350W        W 4414   6.954   3.264   0.063
  351W        W 4415   3.727   7.486   2.321
  352W        W 4416   7.556   7.377   3.124
  353W        W 4417   7.252   2.904  10.962
  354W        W 4418   6.624   6.053   2.539
  355W        W 4419  10.436   4.070   2.332
  356W        W 4420   0.728   2.893  11.582
  357W        W 4421   2.101   0.969  11.408
  358W        W 4422   0.641   2.527   8.759
  359W        W 4423   3.834   2.365  10.510
  360W        W 4424   7.590   0.758  11.938
  361W        W 4425   7.985   6.277  10.353
  362W        W 4426   9.613   5.020   1.968
  363W        W 4427   2.645   7.904   2.218
  364W        W 4428   3.764   6.446  10.487
  365W        W 4429   3.597   8.905   2.301
  366W        W 4430   5.594   9.696   1.312
  367W        W 4431   2.549   8.890   9.203
  368W        W 4432   4.955   4.811   1.654
  369W        W 4433   6.099   8.019   0.890
  370W        W 4434   9.200   3.318   9.419
  371W        W 4435  10.268   4.669   1.615
  372W        W 4436   8.554   9.401   3.221
  373W        W 4437   9.803   1.704  10.535
  374W        W 4438   4.634   4.389  10.873
  375W        W 4439   2.850   9.545   0.886
  376W        W 4440   3.922   8.621  11.472
  377W        W 4441  10.438   0.174   9.898
  378W        W 4442   8.559   8.320  10.398
  379W        W 4443   2.354   4.462   3.642
  380W        W 4444   3.349   9.671   0.985
  381W        W 4445   1.132   4.464   1.792
  382W        W 4446   6.129   8.576  10.965
  383W        W 4447   1.680   6.048   3.444
  384W        W 4448   1.527   9.235   0.395
  385W        W 4449   0.380   1.126   3.121
  386W        W 4450   2.176   7.849  11.043
  387W        W 4451   6.778   9.043  10.331
  388W        W 4452   3.060   7.710  11.938
  389W        W 4453   6.105   7.790  10.623
  390W        W 4454   2.609   5.265   2.831
  391W        W 4455   6.643   8.453  11.096
  392W        W 4456   9.013   9.525   3.036
  393W        W 4457   4.638  10.256   0.047
  394W        W 4458   7.245   6.213   3.882
  395W        W 4459   3.557   4.106   2.657
  396W        W 4460   1.511   9.634   3.554
  397W        W 4461  10.208   9.564   0.174
  398W        W 4462   3.759   7.715   9.994
  399W        W 4463   7.532  10.487   1.360
  400W        W 4464   5.108   4.582   8.234
  401W        W 4465   0.308   9.563  10.113
  402W        W 4466   9.699   9.492   2.492
  403W        W 4467   6.040   3.972   1.261
  404W        W 4468   7.201   1.303  10.340
  405W        W 4469   8.394   7.663   0.764
  406W        W 4470   3.788   0.270  10.068
  407W        W 4471   9.331   4.442   3.075
  408W        W 4472   2.355   3.251   9.336
  409W        W 4473   7.904   4.488  10.886
  410W        W 4474   7.862   7.587   3.492
  411W        W 4475   5.641   6.988   0.415
  412W        W 4476   9.089   9.165   2.157
  413W        W 4477   5.610   7.299   1.853
  414W        W 4478   8.432   6.248   8.614
  415W        W 4479   1.080   9.219   9.643
  416W        W 4480   8.069  10.147  10.149
  417W        W 4481   1.915  10.434   3.305
  418W        W 4482   7.910   0.945   2.268
  419W        W 4483   6.851   4.674   0.045
  420W        W 4484   8.852   3.472   2.368
  421W        W 4485   1.682   2.035   2.278
  422W        W 4486   9.677   8.357   0.793
  423W        W 4487   5.468   7.528   9.992
  424W        W 4488   1.334   7.450  10.941
  425W        W 4489   6.051   4.761  11.449
  426W        W 4490   0.926   9.553   0.422
  427W        W 4491   1.353   9.875   2.419
  428W        W 4492   4.126   4.503   0.203
  429W        W 4493   4.092   9.473   9.843
  430W        W 4494   4.814   3.211  10.295
  431W        W 4495   5.210   7.936   8.919
  432W        W 4496   6.055  10.016   2.761
  433W        W 4497   8.859   4.806  11.817
  434W        W 4498   0.857   7.542   3.116
  435W        W 4499   0.847   4.974   2.614
  436W        W 4500   4.377  10.396  10.001
  437W        W 4501   3.850   0.439  11.452
  438W        W 4502   0.010   6.990  11.314
  439W        W 4503   8.416   3.169   8.826
  440W        W 4504   3.619   6.414   3.663
  441W        W 4505   4.260   8.474   0.750
  442W        W 4506   4.258   8.837  11.106
  443W        W 4507   1.936   5.617   3.306
  444W        W 4508   7.597   8.601   1.221
  445W        W 4509   4.969   7.206   4.158
  446W        W 4510   6.434   9.796  11.493
  447W        W 4511   7.148   0.918   9.191
  448W        W 4512   4.780  10.454  10.596
  449W        W 4513   9.045   5.585   3.452
  450W        W 4514   1.663   6.638   9.328
  451W        W 4515   8.426   3.999   2.206
  452W        W 4516   9.014   6.544   1.449
  453W        W 4517   7.468   7.670   2.695
  454W        W 4518   7.011   6.045   3.103
  455W        W 4519   1.847   6.619  10.835
  456W        W 4520   8.707   3.404   0.075
  457W        W 4521   7.154   0.813   1.019
  458W        W 4522   1.909   5.281   9.128
  459W        W 4523   9.065   5.472  10.120
  460W        W 4524  10.248   5.015   0.729
  461W        W 4525   2.827   4.702   3.536
  462W        W 4526   1.002   7.014   1.308
  463W        W 4527   0.889   4.433  10.275
  464W        W 4528   6.985   4.907   0.998
  465W        W 4529   6.423   2.048   9.539
  466W        W 4530   7.500   0.506  11.304
  467W        W 4531   5.625   8.486  10.872
  468W        W 4532   3.772   7.090   9.144
  469W        W 4533  10.132   7.576  10.402
  470W        W 4534   9.327   1.863  10.390
  471W        W 4535   1.601   1.954   1.770
  472W        W 4536   7.055   3.127   3.054
  473W        W 4537   3.993   0.355   8.691
  474W        W 4538   4.751   4.910   8.441
  475W        W 4539   5.044   2.582   0.344
  476W        W 4540   6.696   6.684  11.912
  477W        W 4541   7.728   0.468   2.337
  478W        W 4542   4.522   9.539   8.519
  479W        W 4543   8.427   0.826   2.286
  480W        W 4544   5.271   9.151  11.956
  481W        W 4545   4.726   6.613  10.725
  482W        W 4546   6.741   3.086   0.986
  483W        W 4547   0.856   2.116   0.697
  484W        W 4548   8.378   7.555   3.381
  485W        W 4549   1.349  10.326   3.302
  486W        W 4550   6.533   6.932   3.215
  487W        W 4551   3.766   8.490   0.902
  488W        W 4552   5.725   8.452   2.701
  489W        W 4553   2.688   6.139   8.322
  490W        W 4554   3.715   8.697   3.474
  491W        W 4555   2.145   8.539   1.611
  492W        W 4556   7.274   6.496  10.727
  493W        W 4557   1.176   5.645   9.018
  494W        W 4558   7.731   6.834   9.317
  495W        W 4559   4.573   7.121  10.736
  496W        W 4560   5.436   3.699   8.220
  497W        W 4561   3.156   4.099   9.759
  498W        W 4562   9.016   1.304   9.785
  499W        W 4563   0.069   3.179   2.697
  500W        W 4564   6.012   4.783   2.477
  501W        W 4565   7.731   8.979  11.488
  502W        W 4566   4.130   2.585   9.457
  503W        W 4567   9.989   0.208  10.185
  504W        W 4568   7.562  10.311   3.540
  505W        W 4569   0.738   2.517  10.748
  506W        W 4570   3.209   6.737   2.467
  507W        W 4571   1.187   2.374   9.698
  508W        W 4572   4.095   6.251   1.969
  509W        W 4573   3.836   5.013  10.637
  510W        W 4574   9.235   2.776  11.356
  511W        W 4575   5.380   4.869   3.633
  512W        W 4576   8.578   9.887   1.689
  513W        W 4577   2.430   9.181   1.266
  514W        W 4578   4.504   4.559   9.991
  515W        W 4579   6.757   7.545   1.335
  516W        W 4580   4.619   9.280  11.571
  517W        W 4581   5.185   3.610   3.254
  518W        W 4582   8.919   6.003   0.865
  519W        W 4583   2.868   3.745   3.155
  520W        W 4584   6.929   4.346   3.943
  521W        W 4585   4.820   9.851  10.307
  522W        W 4586  10.314   6.097   8.825
  523W        W 4587   5.277   4.071   0.190
  524W        W 4588   9.491   4.259   0.740
  525W        W 4589   5.308   4.130  10.325
  526W        W 4590  10.241   4.273  10.102
  527W        W 4591   4.312  10.112   2.694
  528W        W 4592   2.679   1.486   3.095
  529W        W 4593   6.194   3.448   3.093
  530W        W 4594   6.946   0.369   2.023
  531W        W 4595   2.786   1.414   1.024
  532W        W 4596   5.970   3.130   8.854
  533W        W 4597   3.154   2.250   9.527
  534W        W 4598   9.129   4.182   9.581
  535W        W 4599   8.465   2.450   0.397
  536W        W 4600   5.697   5.465   9.456
  537W        W 4601   2.684   1.493   9.104
  538W        W 4602   8.907   4.292  10.532
  539W        W 4603   2.218   9.966   9.016
  540W        W 4604   5.765   7.167  11.899
  541W        W 4605   8.486   3.865   2.744
  542W        W 4606  10.208   9.549   2.449
  543W        W 4607   9.326   5.096  11.017
  544W        W 4608   7.939   6.442   2.278
  545W        W 4609   6.942   4.742   9.799
  546W        W 4610   1.273   5.136   2.335
  547W        W 4611   9.632   0.456  10.475
  548W        W 4612   9.808   0.364   1.236
  549W        W 4613   4.796   1.779   1.939
  550W        W 4614   5.322   7.369   0.297
  551W        W 4615   0.534   4.003  11.395
  552W        W 4616   8.039   5.563   3.449
  553W        W 4617   4.241   8.282  11.174
  554W        W 4618   4.757   9.855   2.691
  555W        W 4619   1.356   9.798   1.404
  556W        W 4620  10.385   1.201   1.400
  557W        W 4621   7.945   5.461   9.369
  558W        W 4622   3.874   0.684   9.776
  559W        W 4623   0.493   0.840   2.727
  560W        W 4624   3.780   9.527   0.647
  561W        W 4625   1.584   1.969  10.996
  562W        W 4626   5.466   2.622   9.248
  563W        W 4627   3.503   3.378   0.367
  564W        W 4628   4.049   8.237  10.299
  565W        W 4629   9.068   1.457   8.877
  566W        W 4630   8.056   6.251  11.718
  567W        W 4631   8.100   4.626  10.444
  568W        W 4632   3.258   0.906   8.735
  569W        W 4633   2.330   8.198   1.300
  570W        W 4634   0.701   6.078   3.286
  571W        W 4635   3.557   6.781   3.263
  572W        W 4636   8.234   3.408   0.257
  573W        W 4637   3.036   0.111   0.947
  574W        W 4638   2.644  10.262   8.880
  575W        W 4639   3.757   1.416   1.407
  576W        W 4640   2.065   5.089   9.759
  577W        W 4641   4.250   0.231  11.752
  578W        W 4642   9.926   4.881  10.077
  579W        W 4643   5.446   1.290  10.021
  580W        W 4644   9.940   8.566   9.509
  581W        W 4645   0.719   4.029   9.966
  582W        W 4646   9.314   0.469   9.558
  583W        W 4647   3.937   5.947   3.219
  584W        W 4648  10.264   7.400   8.493
  585W        W 4649   5.188   8.230   1.458
  586W        W 4650   7.062   1.548  10.807
  587W        W 4651  10.354   1.606   2.944
  588W        W 4652   2.289   2.672   0.665
  589W        W 4653  10.342   9.415   8.983
  590W        W 4654   1.746   3.330  11.495
  591W        W 4655   7.866   9.381   2.120
  592W        W 4656   9.954   3.761   1.146
  593W        W 4657   1.244   0.038  10.313
  594W        W 4658   1.464   8.992   9.371
  595W        W 4659   7.923   8.496  10.696
  596W        W 4660  10.132   4.335   3.269
  597W        W 4661   5.556   4.999  11.353
  598W        W 4662   1.737   2.708   2.914
  599W        W 4663   0.120   4.303   3.486
  600W        W 4664   8.387   0.492  11.254
  601W        W 4665  10.331  10.390   1.254
  602W        W 4666   0.978   4.842   3.092
  603W        W 4667   4.507   6.205   8.554
  604W        W 4668  10.211   3.431   3.502
  605W        W 4669  10.389   5.169  10.094
  606W        W 4670   8.939   5.249   2.288
  607W        W 4671   9.387   6.074   3.247
  608W        W 4672  10.304   0.633  10.077
  609W        W 4673   4.318   3.733   2.717
  610W        W 4674  10.349  10.087  10.759
  611W        W 4675   7.131   3.271  10.595
  612W        W 4676   4.954   2.127   9.695
  613W        W 4677   6.332   3.570   8.498
  614W        W 4678  10.390   3.768   1.456
  615W        W 4679   9.569   5.892   2.302
  616W        W 4680   5.076   2.597   9.577
  617W        W 4681   1.769  10.270  11.660
  618W        W 4682   3.628   1.317  10.413
  619W        W 4683   8.342  10.055  10.922
  620W        W 4684   2.882   1.270   0.225
  621W        W 4685   2.395   8.378   9.231
  622W        W 4686  10.226  10.192   1.762
  623W        W 4687   9.732   2.672   0.452
  624W        W 4688   0.390   1.170   1.734
  625W        W 4689   2.112   5.544   9.537
  626W        W 4690   8.061   6.986   1.405
  627W        W 4691   0.311   9.531   9.596
  628W        W 4692   5.319   5.027   1.379
  629W        W 4693   5.345   0.200   1.186
  630W        W 4694   9.490   7.955   9.932
  631W        W 4695   9.741   7.819  11.872
  632W        W 4696   3.724   2.250   3.563
  633W        W 4697   9.902   3.877   9.329
  634W        W 4698   6.556   7.449  10.119
  635W        W 4699   7.674   3.174   9.248
  636W        W 4700   3.204   0.609   3.549
  637W        W 4701   0.923   3.971   8.965
  638W        W 4702   8.450   0.352  11.732
  639W        W 4703   0.832   0.472   8.966
  640W        W 4704   7.083   4.119   2.578
  641W        W 4705   9.610  10.390   8.536
  642W        W 4706   5.145   7.237   1.659
  643W        W 4707   6.060   2.056   2.149
  644W        W 4708   9.588   7.019  11.514
  645W        W 4709   5.173   7.669   2.584
  646W        W 4710   7.509   7.650   8.844
  647W        W 4711   3.577   5.156   1.219
  648W        W 4712   7.861   3.980  10.997
  649W        W 4713   6.134   5.983   2.735
  650W        W 4714   6.153   1.880   9.121
  651W        W 4715   7.908   4.337   0.447
  652W        W 4716   5.787   8.384  10.044
  653W        W 4717   7.137   5.948  11.813
  654W        W 4718   0.925   1.418   9.794
  655W        W 4719   9.957   6.243   0.895
  656W        W 4720   8.183   5.629   0.581
  657W        W 4721   2.829   5.041   9.565
  658W        W 4722   0.382   1.251  11.842
  659W        W 4723   8.062   5.488   1.334
  660W        W 4724   4.558   9.866   2.205
  661W        W 4725   2.596   1.982  11.794
  662W        W 4726   1.819   4.665   8.518
  663W        W 4727   6.022   3.236   0.746
  664W        W 4728   0.171   9.289   2.511
  665W        W 4729   6.549   1.383   1.343
  666W        W 4730   7.159   0.406   9.404
  667W        W 4731   2.110   6.600   9.031
  668W        W 4732   6.998   3.200   0.563
  669W        W 4733   2.426   9.647   0.201
  670W        W 4734   4.012   3.262  10.030
  671W        W 4735   5.050   3.497   2.796
  672W        W 4736   8.819   8.415  11.864
  673W        W 4737   4.580   0.602  10.500
  674W        W 4738   4.252   0.929   9.984
  675W        W 4739   5.162   0.853   8.907
  676W        W 4740   9.972   0.305   0.218
  677W        W 4741   6.039   9.656   0.019
  678W        W 4742   6.523   4.751  11.660
  679W        W 4743   2.306   1.312   8.516
  680W        W 4744   1.764   4.662  10.615
  681W        W 4745   4.210   8.014   1.627
  682W        W 4746   4.633   0.527   1.029
  683W        W 4747   7.482   0.152  10.865
  684W        W 4748   0.109   4.941  11.264
  685W        W 4749   4.041   2.879  10.388
  686W        W 4750   7.961   6.800   0.923
  687W        W 4751   7.880   9.042   1.336
  688W        W 4752   5.674   4.527  10.293
  689W        W 4753   2.099   8.574  11.440
  690W        W 4754   5.662   7.562   2.308
  691W        W 4755   7.719   1.887  11.400
  692W        W 4756   0.517   6.989  11.140
  693W        W 4757   2.819   4.508   1.487
  694W        W 4758   9.825   1.207  10.665
  695W        W 4759   6.018   0.653   1.476
  696W        W 4760   0.717   0.675  10.354
  697W        W 4761   9.577   2.631   9.976
  698W        W 4762   3.539   9.171   1.829
  699W        W 4763   1.465   5.618   2.371
  700W        W 4764   5.016   6.616   9.006
  701W        W 4765   6.401   0.721   9.503
  702W        W 4766   2.369   3.061  10.964
  703W        W 4767   4.605   6.062   2.847
  704W        W 4768   5.202   2.219   0.021
  705W        W 4769   3.791   9.836   2.722
  706W        W 4770   3.030   7.998  10.069
  707W        W 4771   3.839   8.225   1.897
  708W        W 4772   2.473   0.971   2.196
  709W        W 4773   3.014   1.106  11.362
  710W        W 4774   0.338   2.422   9.175
  711W        W 4775   8.510   7.230   1.585
  712W        W 4776   2.308   1.209   1.731
  713W        W 4777   4.149   1.765   0.207
  714W        W 4778   5.679   7.970   2.922
  715W        W 4779   2.767   7.016  11.325
  716W        W 4780   7.183   1.705   2.283
  717W        W 4781   7.311   8.565  11.512
  718W        W 4782   1.236   3.349   8.775
  719W        W 4783   0.944   3.695  11.249
  720W        W 4784   1.879   4.132   1.258
  721W        W 4785   7.983   8.343   9.714
  722W        W 4786   2.063   7.617  10.065
  723W        W 4787   6.187   3.040   2.221
  724W        W 4788   1.209  10.014  11.688
  725W        W 4789   6.451   6.993  10.525
  726W        W 4790   5.710   6.617   8.410
  727W        W 4791   0.872   2.625   0.613
  728W        W 4792   9.962   6.123  11.990
  729W        W 4793   9.382   8.733  11.330
  730W        W 4794   9.232   5.229  10.531
  731W        W 4795   8.937   2.713   3.080
  732W        W 4796   0.615   9.433   3.460
  733W        W 4797   1.427   6.703   1.417
  734W        W 4798   6.540   8.034  11.397
  735W        W 4799   6.142   8.389   8.754
  736W        W 4800   0.999  10.178   2.244
  737W        W 4801   2.775   2.187   1.279
  738W        W 4802   5.140   3.607   0.030
  739W        W 4803   7.587   4.531   3.703
  740W        W 4804   6.004   0.563  10.633
  741W        W 4805   0.795   0.134   2.290
  742W        W 4806  10.189  10.242   9.999
  743W        W 4807   3.520   8.847  11.691
  744W        W 4808   2.833   5.095   1.852
  745W        W 4809   1.464   0.969   2.556
  746W        W 4810   6.607   6.522   2.192
  747W        W 4811   2.596   7.010   9.739
  748W        W 4812   4.753   7.520   2.286
  749W        W 4813   0.008   3.451  11.958
  750W        W 4814   3.224   8.957   1.470
  751W        W 4815   4.613  10.225   3.501
  752W        W 4816   9.127   8.813   1.806
  753W        W 4817   6.184  10.490   2.664
  754W        W 4818   6.460   3.377   2.636
  755W        W 4819   4.511   3.085   8.945
  756W        W 4820   4.678   0.768   3.345
  757W        W 4821   2.150   8.015   2.420
  758W        W 4822   8.689   1.775   2.007
  759W        W 4823   9.475   6.988   8.872
  760W        W 4824   7.382   2.300   8.712
  761W        W 4825   2.749   1.650   0.566
  762W        W 4826   7.677   8.630   8.910
  763W        W 4827   3.267   4.528   1.748
  764W        W 4828   9.872   8.748   1.040
  765W        W 4829   0.234   9.858  10.548
  766W        W 4830   9.431   5.131  10.030
  767W        W 4831   7.899   4.565   1.497
  768W        W 4832   3.370   9.452   1.438
  769W        W 4833   0.689   5.636   9.583
  770W        W 4834   4.038   6.634   9.204
  771W        W 4835   5.846   1.652   1.927
  772W        W 4836   7.304  10.056   9.212
  773W        W 4837   6.735   4.668   9.090
  774W        W 4838   2.308   8.218  10.700
  775W        W 4839   4.541   8.260   8.521
  776W        W 4840   5.580   8.844   9.710
  777W        W 4841   8.348   9.428  11.809
  778W        W 4842   7.338   7.853  11.029
  779W        W 4843   6.836   9.809   1.671
  780W        W 4844   7.679   2.636  10.961
  781W        W 4845   7.084   6.900   0.855
  782W        W 4846   0.466  10.296  10.478
  783W        W 4847   1.270   7.929   9.139
  784W        W 4848   1.833   8.376   0.266
  785W        W 4849   1.686   3.821   0.435
  786W        W 4850   8.467   9.054   9.289
  787W        W 4851   2.381   5.723  11.875
  788W        W 4852   6.378   3.995   9.726
  789W        W 4853   9.789   2.817   1.458
  790W        W 4854   3.174   7.486   0.384
  791W        W 4855   1.817   5.715   0.532
  792W        W 4856   6.228   5.550   3.014
  793W        W 4857   9.972   9.972   0.366
  794W        W 4858   4.571  10.429   9.183
  795W        W 4859  10.485   7.932   1.814
  796W        W 4860   3.716   7.064  11.841
  797W        W 4861   8.259   1.108   9.098
  798W        W 4862   9.128   8.052   0.623
  799W        W 4863   1.254   5.528   0.607
  800W        W 4864   2.276  10.017   2.523
  801W        W 4865   3.762   8.440  11.945
  802W        W 4866   0.785   0.178  10.484
  803W        W 4867   9.564   8.943   0.182
  804W        W 4868   4.906   1.633   3.681
  805W        W 4869   3.410  10.377  10.381
  806W        W 4870   3.094   8.534  10.385
  807W        W 4871   4.910   4.174  11.268
  808W        W 4872   6.196   1.406   0.257
  809W        W 4873   9.096   5.542  10.944
  810W        W 4874   0.315   6.030   8.903
  811W        W 4875   7.026   2.731   1.715
  812W        W 4876   2.680   3.214   1.977
  813W        W 4877   1.898   7.958   1.456
  814W        W 4878   1.931  10.387   2.673
  815W        W 4879   8.592   4.688  10.572
  816W        W 4880  10.000   8.331   3.280
  817W        W 4881   3.918   3.390   0.698
  818W        W 4882   4.989   4.516   3.609
  819W        W 4883   3.590   7.872   9.455
  820W        W 4884   5.096   8.444   8.913
  821W        W 4885   4.614   6.860   3.473
  822W        W 4886   6.961   8.042   2.536
  823W        W 4887   0.032   3.715   8.824
  824W        W 4888   8.503   9.987   2.184
  825W        W 4889   0.367   9.872   1.715
  826W        W 4890   6.906  10.478   9.681
  827W        W 4891   6.574   6.596   9.745
  828W        W 4892  10.265   6.065   3.612
  829W        W 4893   7.682   8.892   2.002
  830W        W 4894   9.099   7.565  11.951
  831W        W 4895  10.017   3.292  10.984
  832W        W 4896   6.118   0.056   0.712
  833W        W 4897   1.254   3.631  10.090
  834W        W 4898   9.803   1.936   8.607
  835W        W 4899   0.277   2.698   1.506
  836W        W 4900   9.355   8.376   1.972
  837W        W 4901   2.840   7.415   3.375
  838W        W 4902   0.054   6.587   0.719
  839W        W 4903   8.104   9.362   8.817
  840W        W 4904   2.912   1.626  10.506
  841W        W 4905   2.361   6.998   8.789
  842W        W 4906   3.269   8.437  10.936
  843W        W 4907   4.014   6.118   8.407
  844W        W 4908   5.540   3.862   3.517
  845W        W 4909   1.705   8.032   9.389
  846W        W 4910   7.545   8.393   1.845
  847W        W 4911  10.438   4.197   1.175
  848W        W 4912   7.773   6.423  10.783
  849W        W 4913   7.045   7.444   3.225
  850W        W 4914   9.698   6.473  10.733
  851W        W 4915   3.149   2.630   0.974
  852W        W 4916   2.987   1.768   0.058
  853W        W 4917   3.279   4.888  11.526
  854W        W 4918   5.166   5.756  11.850
  855W        W 4919   1.355   3.312   1.190
  856W        W 4920   9.022   3.562  10.822
  857W        W 4921   8.179   8.784   0.412
  858W        W 4922   2.748   6.978   1.444
  859W        W 4923   9.828   7.349   1.763
  860W        W 4924   5.160  10.479  11.342
  861W        W 4925   5.631   8.072   3.470
  862W        W 4926   3.350   9.374   3.480
  863W        W 4927  10.440   0.858   1.803
  864W        W 4928   7.530   6.592   3.676
  865W        W 4929   7.491   4.899  11.806
  866W        W 4930   6.480   8.849   2.538
  867W        W 4931   6.977   7.507   1.809
  868W        W 4932   1.952   4.786   2.484
  869W        W 4933   7.618   9.142  10.000
  870W        W 4934   0.263   4.264   0.467
  871W        W 4935   7.065   2.706   8.807
  872W        W 4936   8.153   3.236   1.521
  873W        W 4937   1.321   6.213   1.501
  874W        W 4938   4.241   4.683  11.727
  875W        W 4939  10.441   7.518  10.010
  876W        W 4940   9.619   0.626   9.953
  877W        W 4941   9.925   0.729  10.801
  878W        W 4942   4.105   4.574   3.687
  879W        W 4943   3.537   9.081   9.078
  880W        W 4944   3.325   9.303   2.449
  881W        W 4945   4.996   7.621   0.015
  882W        W 4946   8.615   5.057  11.379
  883W        W 4947   0.396   0.525   9.250
  884W        W 4948   0.949   8.533  10.230
  885W        W 4949   4.189   2.403   3.033
  886W        W 4950   0.472   8.307   1.252
  887W        W 4951   1.797   8.851   1.841
  888W        W 4952   5.557   3.208   8.069
  889W        W 4953   3.818   0.390   0.451
  890W        W 4954   1.182   5.173   9.700
  891W        W 4955   9.089   9.273   3.457
  892W        W 4956   1.634   0.938   1.087
  893W        W 4957   7.615   1.053   1.155
  894W        W 4958   9.994  10.018   1.239
  895W        W 4959   1.248   5.013   0.391
  896W        W 4960   1.726   0.714   9.478
  897W        W 4961   1.817   6.670   2.278
  898W        W 4962   7.827   8.986  10.447
  899W        W 4963  10.392   3.223   8.683
  900W        W 4964  10.321   7.918   8.721
  901W        W 4965   9.114   9.584  10.958
  902W        W 4966  10.120   9.944   8.962
  903W        W 4967   2.396   7.266   0.950
  904W        W 4968  10.052   9.080   0.353
  905W        W 4969   0.283   0.688  10.673
  906W        W 4970   4.790   0.817   2.176
  907W        W 4971   4.537   8.735   3.576
  908W        W 4972  10.392   8.579   0.237
  909W        W 4973   3.273   2.099  10.799
  910W        W 4974   6.514   0.739  11.282
  911W        W 4975   0.048   3.262   2.184
  912W        W 4976   5.120   7.175   2.194
  913W        W 4977   1.140   3.792   2.385
  914W        W 4978   7.623   9.275  11.910
  915W        W 4979   9.815   1.223   0.502
  916W        W 4980   5.641   7.680  10.451
  917W        W 4981   2.827   7.438   0.741
  918W        W 4982   8.487   3.650   3.278
  919W        W 4983   0.650   5.601  11.861
  920W        W 4984   2.170   9.575   1.462
  921W        W 4985   5.466   7.646   3.747
  922W        W 4986   0.453   8.458   0.391
  923W        W 4987   5.952   7.548  11.578
  924W        W 4988   6.621   7.199   0.822
  925W        W 4989   8.764   7.319   0.888
  926W        W 4990   4.973   0.769   2.683
  927W        W 4991   4.441   6.931  11.211
  928W        W 4992   7.452   5.006   3.557
  929W        W 4993   3.076   3.030   1.718
  930W        W 4994   8.623   3.274   1.764
  931W        W 4995   1.349   2.795   3.311
  932W        W 4996   7.559   8.558  10.283
  933W        W 4997   4.854   3.086   2.213
  934W        W 4998   5.798   2.237   9.211
  935W        W 4999   6.491   9.352  10.723
  936W        W 5000   7.102   7.405   0.928
  937W        W 5001   4.978   5.500   2.127
  938W        W 5002   4.618   7.579   9.035
  939W        W 5003   0.531   9.905   0.267
  940W        W 5004   3.086   2.831  10.302
  941W        W 5005   0.299   5.532   1.871
  942W        W 5006  10.336   9.964   2.785
  943W        W 5007   9.950   9.580   9.293
  944W        W 5008   7.128   9.874   2.139
  945W        W 5009   5.644   6.017   2.933
  946W        W 5010  10.079   2.527   2.871
  947W        W 5011   8.392   2.944   0.292
  948W        W 5012   3.811   7.058  11.330
  949W        W 5013   6.117   6.554  10.062
  950W        W 5014   8.018   5.577   2.381
  951W        W 5015   5.204   7.642   2.050
  952W        W 5016   6.003   9.576   0.519
  953W        W 5017   9.782  10.450   3.833
  954W        W 5018   6.066   0.020  11.270
  955W        W 5019   6.535   4.014   0.027
  956W        W 5020   7.730   2.480   0.641
  957W        W 5021   1.892   4.887   3.543
  958W        W 5022   6.547   9.122   9.856
  959W        W 5023   1.411   0.567   2.930
  960W        W 5024   9.534   6.971  10.754
  961W        W 5025   9.119   3.053   2.325
  962W        W 5026   9.886   0.876   3.872
  963W        W 5027   0.616   4.714   8.658
  964W        W 5028   3.317   6.158  10.508
  965W        W 5029   6.249   7.246   3.532
  966W        W 5030   2.753   3.711   2.135
  967W        W 5031   3.574   6.481   2.200
  968W        W 5032   5.250   2.094   1.220
  969W        W 5033   3.392   4.997   0.781
  970W        W 5034   2.693   0.166   9.256
  971W        W 5035   4.593   4.586   1.935
  972W        W 5036  10.050   7.227   2.386
  973W        W 5037   7.129   8.360   8.560
  974W        W 5038   5.221   2.213   2.104
  975W        W 5039   1.208   5.270   2.895
  976W        W 5040   8.118   1.828   9.034
  977W        W 5041   6.657   5.392   9.529
  978W        W 5042   6.500   4.136   0.942
  979W        W 5043   4.990   1.411  10.205
  980W        W 5044   2.198   6.017   8.614
  981W        W 5045   0.891   6.827   2.829
  982W        W 5046   7.180   3.122   2.048
  983W        W 5047   7.481   6.592   0.994
  984W        W 5048   2.932   9.541  11.765
  985W        W 5049   0.733   2.347   2.153
  986W        W 5050   4.588   8.207   9.949
  987W        W 5051   2.458   9.378   3.184
  988W        W 5052   4.548   1.241   9.424
  989W        W 5053   3.847   3.676   3.577
  990W        W 5054   6.271   1.543   9.463
  991W        W 5055   4.718   6.576   4.230
  992W        W 5056   6.287   1.460   3.294
  993W        W 5057   9.513   4.129  11.347
  994W        W 5058   2.261   7.970   3.529
  995W        W 5059   1.635   5.547   1.879
  996W        W 5060   8.743   1.521   1.544
  997W        W 5061   1.289   9.494   9.259
  998W        W 5062   0.863   6.840   8.734
  999W        W 5063   2.989   1.464   2.688
 1000W        W 5064   5.595   9.514   9.981
 1001W        W 5065   0.548   1.794   1.349
 1002W        W 5066   5.521   6.933   0.925
 1003W        W 5067   5.515   4.862  10.846
 1004W        W 5068   1.756   9.968  10.831
 1005W        W 5069   3.782   4.942  11.615
 1006W        W 5070   0.024   6.228  10.905
 1007W        W 5071   8.367   2.787  11.417
 1008W        W 5072   6.786   8.498  11.571
 1009W        W 5073   1.327   0.539   1.159
 1010W        W 5074   0.960   7.304   2.647
 1011W        W 5075   1.225   0.609   1.678
 1012W        W 5076   5.205   5.587   9.456
 1013W        W 5077   7.668   4.740   8.746
 1014W        W 5078   3.764   4.557   2.435
 1015W        W 5079   9.564   9.772   9.621
 1016W        W 5080   5.832   3.239   3.898
 1017W        W 5081   9.097   3.101  10.992
 1018W        W 5082   8.173   1.741   1.292
 1019W        W 5083   0.716   9.897  11.775
 1020W        W 5084   8.705   8.978   0.492
 1021W        W 5085   6.962   7.932   9.350
 1022W        W 5086   9.068   2.601  10.886
 1023W        W 5087   7.554   1.008   8.882
 1024W        W 5088   4.085   4.701  10.274
 1025W        W 5089   4.511   8.947   1.650
 1026W        W 5090   3.562   0.018   0.194
 1027W        W 5091   6.768   6.124   1.299
 1028W        W 5092   7.680   1.770   2.347
 1029W        W 5093   7.950   1.932  10.031
 1030W        W 5094   6.031   4.475   3.879
 1031W        W 5095   2.823   6.015   0.568
 1032W        W 5096   4.905  10.499   0.419
 1033W        W 5097   1.876   6.136   9.008
 1034W        W 5098   8.932   9.406   0.808
 1035W        W 5099   6.533   8.930  11.570
 1036W        W 5100   8.642   0.207  10.372
 1037W        W 5101  10.050   2.615  10.105
 1038W        W 5102   1.329   2.399   2.971
 1039W        W 5103   1.967   7.592   2.657
 1040W        W 5104   4.227   9.955   0.151
 1041W        W 5105   0.237   8.620   9.941
 1042W        W 5106   9.412   6.565  11.669
 1043W        W 5107   2.073   7.639   8.714
 1044W        W 5108   7.486   3.154  11.825
 1045W        W 5109   4.066   6.611   0.439
 1046W        W 5110   4.100   6.604   0.951
 1047W        W 5111   8.404  10.010   0.765
 1048W        W 5112   5.029   6.740   3.856
 1049W        W 5113   6.506   3.506   0.069
 1050W        W 5114   0.282   3.714   2.239
 1051W        W 5115   0.670   6.427   8.985
 1052W        W 5116   9.075   5.011   0.366
 1053W        W 5117   9.618   3.126   2.299
 1054W        W 5118   3.444   4.659   9.126
 1055W        W 5119   9.723   7.276  10.380
 1056W        W 5120   6.749   3.928   8.433
 1057W        W 5121   1.222   4.138   9.921
 1058W        W 5122   4.252   4.690  10.763
 1059W        W 5123   8.121   9.553  10.889
 1060W        W 5124   4.484   6.937   9.343
 1061W        W 5125   9.774   9.890   2.170
 1062W        W 5126   7.411   4.666   0.284
 1063W        W 5127   8.569   3.773   0.925
 1064W        W 5128   0.069   1.955  10.704
 1065W        W 5129   4.374   5.243   1.003
 1066W        W 5130   9.278   8.864   9.886
 1067W        W 5131   5.861   0.456   9.124
 1068W        W 5132   9.952   2.206   9.288
 1069W        W 5133   4.087   7.868   9.332
 1070W        W 5134   6.561   2.789   1.934
 1071W        W 5135   3.567   1.432   3.486
 1072W        W 5136   1.729   1.668   9.105
 1073W        W 5137   5.994  10.415   1.173
 1074W        W 5138  10.007   6.141   9.621
 1075W        W 5139   2.778   4.751   3.011
 1076W        W 5140   8.998   0.968   1.694
 1077W        W 5141   2.723   5.507   0.249
 1078W        W 5142   5.900   4.859   1.981
 1079W        W 5143   2.669  10.229   0.206
 1080W        W 5144   5.600   9.738   3.239
 1081W        W 5145   0.017   2.322   0.428
 1082W        W 5146   5.708   1.907   2.536
 1083W        W 5147   5.993  10.088   0.458
 1084W        W 5148   2.646   2.691  11.265
 1085W        W 5149   4.840   8.598   1.476
 1086W        W 5150   8.122   8.024   3.400
 1087W        W 5151   0.847  10.307   3.252
 1088W        W 5152   5.598   5.947   9.470
 1089W        W 5153   2.866   7.891   0.992
 1090W        W 5154   0.292   2.688   3.305
 1091W        W 5155   6.588   1.190  11.519
 1092W        W 5156   5.978   0.838   0.948
 1093W        W 5157   7.906   7.798   0.683
 1094W        W 5158   1.830   5.518   1.392
 1095W        W 5159   2.700   3.394  11.740
 1096W        W 5160   1.385   6.471   3.560
 1097W        W 5161   3.363   8.391   2.109
 1098W        W 5162   6.618   6.699   0.881
 1099W        W 5163   3.307   8.675   1.047
 1100W        W 5164   7.391   0.278   2.930
 1101W        W 5165   0.508   3.379  11.828
 1102W        W 5166   3.795   8.794   2.789
 1103W        W 5167   2.755   4.313   1.018
 1104W        W 5168   6.011   3.672   0.472
 1105W        W 5169   2.312   8.108   0.382
 1106W        W 5170   9.968   6.334  10.313
 1107W        W 5171   9.813   8.939   9.936
 1108W        W 5172   1.648   3.877   2.340
 1109W        W 5173   2.827   9.514   3.515
 1110W        W 5174   9.910   5.429   1.924
 1111W        W 5175   2.168   7.343   9.148
 1112W        W 5176  10.495   1.137   9.881
 1113W        W 5177   3.125  10.262   1.936
 1114W        W 5178   7.016  10.355   1.245
 1115W        W 5179   0.369   9.314   0.993
 1116W        W 5180   4.514   0.449   2.999
 1117W        W 5181   3.407   3.553   0.848
 1118W        W 5182   7.227  10.347  10.530
 1119W        W 5183   5.076  10.483  11.916
 1120W        W 5184   4.758   9.973   9.304
 1121W        W 5185   7.236   8.848   0.808
 1122W        W 5186   5.395   5.784   9.898
 1123W        W 5187   9.315   9.105   3.026
 1124W        W 5188   3.516   3.101  10.078
 1125W        W 5189   1.326   8.154  10.179
 1126W        W 5190   4.114   4.166  10.864
 1127W        W 5191   9.419   3.246   2.771
 1128W        W 5192   5.696  10.038   9.817
 1129W        W 5193   4.610   9.445   1.505
 1130W        W 5194   9.261   8.578   8.863
 1131W        W 5195   3.424   1.803  11.754
 1132W        W 5196   3.517   6.253   3.190
 1133W        W 5197   0.036   4.061  11.319
 1134W        W 5198   6.506   6.144  11.000
 1135W        W 5199   5.617   8.756   1.508
 1136W        W 5200   1.315   6.920  10.534
 1137W        W 5201   4.742   1.688   9.579
 1138W        W 5202   4.541   9.587   9.549
 1139W        W 5203   6.019   1.053   9.473
 1140W        W 5204   9.589   6.703   2.751
 1141W        W 5205   6.682   7.943  10.376
 1142W        W 5206   9.949   2.612   9.598
 1143W        W 5207  10.375   4.707   1.132
 1144W        W 5208   4.319   2.262   2.518
 1145W        W 5209   3.840   9.814  10.870
 1146W        W 5210   7.782   7.034   2.800
 1147W        W 5211   9.014   7.971  10.118
 1148W        W 5212   3.237   7.295  11.685
 1149W        W 5213   7.503   7.371  10.955
 1150W        W 5214  10.454   3.248   9.208
 1151W        W 5215   4.030   6.547   2.441
 1152W        W 5216   3.269   6.230   1.371
 1153W        W 5217   5.536   5.341  11.749
 1154W        W 5218   3.697   4.588   9.898
 1155W        W 5219  10.229   9.374   1.601
 1156W        W 5220   1.267   7.597   1.196
 1157W        W 5221   0.660   1.974  10.895
 1158W        W 5222   9.040   0.349   3.478
 1159W        W 5223  10.356   6.158   9.975
 1160W        W 5224   0.803  10.274   9.575
 1161W        W 5225   9.883   8.587   0.400
 1162W        W 5226   6.064   9.448   1.442
 1163W        W 5227   0.853   1.636   0.962
 1164W        W 5228   0.344   3.703  11.030
 1165W        W 5229   8.114   8.701  11.217
 1166W        W 5230   0.375   7.824   1.438
 1167W        W 5231   4.753   8.604   0.975
 1168W        W 5232   4.693   5.149   0.270
 1169W        W 5233   5.655   2.133   1.852
 1170W        W 5234   5.448   6.489   0.413
 1171W        W 5235   9.277   9.650   0.536
 1172W        W 5236   2.727   8.031   9.009
 1173W        W 5237   3.549   9.383  10.823
 1174W        W 5238   7.556   2.710   9.042
 1175W        W 5239   0.395   6.683  10.412
 1176W        W 5240   9.388   3.924  10.877
 1177W        W 5241   9.719   0.898   2.250
 1178W        W 5242   9.085   4.456   1.246
 1179W        W 5243   8.455   9.942   9.897
 1180W        W 5244   3.774   4.550  10.867
 1181W        W 5245   7.227   0.321   2.440
 1182W        W 5246   2.110   0.280   0.119
 1183W        W 5247   7.598   5.169   0.255
 1184W        W 5248   8.057   0.840   0.954
 1185W        W 5249   6.397  10.288  11.579
 1186W        W 5250   4.963   5.711   9.004
 1187W        W 5251   8.164   0.726  10.861
 1188W        W 5252   0.671   2.402   1.639
 1189W        W 5253   6.530   5.086   9.956
 1190W        W 5254   5.622   3.121  11.407
 1191W        W 5255   9.781   2.592  10.546
 1192W        W 5256   8.399   2.662   3.062
 1193W        W 5257   3.155   8.824  11.269
 1194W        W 5258   4.148   7.979   9.825
 1195W        W 5259   6.022   2.784  11.464
 1196W        W 5260   9.846   5.293   2.408
 1197W        W 5261   2.611   2.391   9.747
 1198W        W 5262   3.639   0.345   2.498
 1199W        W 5263   4.548   3.317   3.083
 1200W        W 5264   0.312   7.957   2.361
 1201W        W 5265   4.238   5.475   3.224
 1202W        W 5266   3.368   5.486   2.730
 1203W        W 5267   3.836   7.447   9.527
 1204W        W 5268   3.918   5.801   7.995
 1205W        W 5269   0.790   3.557   9.758
 1206W        W 5270   9.952   6.261   2.419
 1207W        W 5271   1.670   0.324  11.359
 1208W        W 5272   9.571   3.669  11.945
 1209W        W 5273   2.612   8.852   3.180
 1210W        W 5274   5.164   8.610   2.401
 1211W        W 5275   8.791   4.581   8.649
 1212W        W 5276   2.171   4.179   9.570
 1213W        W 5277   9.835   3.064  10.339
 1214W        W 5278   9.724   2.657   9.143
 1215W        W 5279   8.491   8.597   0.770
 1216W        W 5280   2.190   3.974   3.554
 1217W        W 5281   2.423   7.489   9.599
 1218W        W 5282   3.634   9.001  11.204
 1219W        W 5283   4.364   3.980   2.275
 1220W        W 5284   5.228   7.160  11.829
 1221W        W 5285   0.775   3.281   1.087
 1222W        W 5286   1.440   2.591  11.110
 1223W        W 5287   2.255   6.996  11.474
 1224W        W 5288   5.697   6.416   9.359
 1225W        W 5289   4.323   3.138  10.962
 1226W        W 5290   7.642   5.840  11.812
 1227W        W 5291   1.645   5.364   9.605
 1228W        W 5292   4.227   3.147   9.449
 1229W        W 5293   0.464   2.326   2.927
 1230W        W 5294   0.366   6.400   1.652
 1231W        W 5295   1.406  10.246   8.985
 1232W        W 5296   7.092   4.707  11.010
 1233W        W 5297   9.713   3.642  11.443
 1234W        W 5298   4.418   5.737   8.764
 1235W        W 5299   8.899   8.892   9.082
 1236W        W 5300   4.996   1.322   8.674
 1237W        W 5301   5.498  10.357  11.687
 1238W        W 5302   8.046   2.802   1.222
 1239W        W 5303   9.382  10.478   0.018
 1240W        W 5304   4.184   8.851   9.057
 1241W        W 5305   2.110   1.822   2.517
 1242W        W 5306  10.010   0.464   2.048
 1243W        W 5307   3.488   8.118   9.887
 1244W        W 5308   6.459   6.797   1.771
 1245W        W 5309   6.172   3.248  10.211
 1246W        W 5310   3.302   8.580   0.130
 1247W        W 5311   0.653   9.926   8.384
 1248W        W 5312   8.907   2.712   8.598
 1249W        W 5313   5.500   6.581   4.052
 1250W        W 5314   9.537   1.673   9.022
 1251W        W 5315   9.624   4.276   9.521
 1252W        W 5316   4.555   4.222   2.745
 1253W        W 5317   5.609   5.170   0.222
 1254W        W 5318   1.587   9.126  11.292
 1255W        W 5319   9.282   7.670  11.465
 1256W        W 5320   9.934   0.794   0.752
 1257W        W 5321   3.736   6.000   1.683
 1258W        W 5322   0.370   2.158   3.396
 1259W        W 5323   5.608  10.276  11.185
 1260W        W 5324   5.991  10.464   8.976
 1261W        W 5325   7.833   2.285   9.536
 1262W        W 5326   4.620   1.212   2.479
 1263W        W 5327   6.474   4.397   9.435
 1264W        W 5328   9.612   4.750  10.797
 1265W        W 5329   3.361   5.215  10.745
 1266W        W 5330   4.541   6.443   3.196
 1267W        W 5331   2.191  10.411   0.453
 1268W        W 5332   9.812   5.685   9.423
 1269W        W 5333   4.251   2.197   2.004
 1270W        W 5334  10.341   6.931   3.090
 1271W        W 5335   7.044   1.285  11.250
 1272W        W 5336   7.424   8.285  10.733
 1273W        W 5337   9.704  10.105   9.247
 1274W        W 5338   6.529   2.797   8.965
 1275W        W 5339   0.017  10.376   2.564
 1276W        W 5340   4.509   2.315   9.848
 1277W        W 5341   6.608   2.167   3.298
 1278W        W 5342   9.849   1.284   2.565
 1279W        W 5343   2.404   5.951   9.497
 1280W        W 5344   5.794   3.785   3.082
 1281W        W 5345   8.183   1.788   3.438
 1282W        W 5346   2.704   1.460   2.281
 1283W        W 5347   1.860   2.593  10.041
 1284W        W 5348   8.965   3.643   2.855
 1285W        W 5349   1.206   5.600  11.866
 1286W        W 5350   0.914   1.293  11.224
 1287W        W 5351   0.339   4.479   0.958
 1288W        W 5352   1.222   3.123  10.327
 1289W        W 5353   0.001   4.632   3.090
 1290W        W 5354   7.032   3.569   3.310
 1291W        W 5355   3.727   0.939   9.374
 1292W        W 5356   4.855   1.858  10.587
 1293W        W 5357   5.594  10.388   0.795
 1294W        W 5358   3.633   6.199  10.934
 1295W        W 5359  10.325   8.175   2.223
 1296W        W 5360   4.071   4.718  11.247
 1297W        W 5361  10.276   3.491   2.970
 1298W        W 5362   1.566  10.148  10.379
 1299W        W 5363   8.048  10.365   1.309
 1300W        W 5364   4.745   2.060   2.748
 1301W        W 5365   7.455   4.530   1.824
 1302W        W 5366   3.140   3.797  10.597
 1303W        W 5367   5.171   5.151   0.486
 1304W        W 5368   4.739   4.513  11.619
 1305W        W 5369   8.287   1.321   2.283
 1306W        W 5370   4.678   8.474   0.462
 1307W        W 5371   5.178   1.581   1.282
 1308W        W 5372   0.051   4.826   3.555
 1309W        W 5373   1.349   9.399  10.086
 1310W        W 5374   5.496   3.824  10.717
 1311W        W 5375   3.821  10.314   9.839
 1312W        W 5376   9.213   4.481   0.107
 1313W        W 5377   5.034   4.072   1.143
 1314W        W 5378   4.913   5.589   1.204
 1315W        W 5379   7.529   1.775  10.855
 1316W        W 5380   2.304   9.460   9.147
 1317W        W 5381   2.639   7.934   3.206
 1318W        W 5382   7.522   7.152   8.970
 1319W        W 5383   3.778   6.265   0.717
 1320W        W 5384   0.567   0.341   0.258
 1321W        W 5385   3.141   3.316   2.175
 1322W        W 5386   4.906   2.070   0.403
 1323W        W 5387   6.886   2.219   8.875
 1324W        W 5388   6.499  10.192   2.397
 1325W        W 5389  10.337   6.575   9.568
 1326W        W 5390   4.616   5.038  10.086
 1327W        W 5391   9.506   0.543   0.879
 1328W        W 5392   7.487   3.304   3.222
 1329W        W 5393   3.366   5.880   4.056
 1330W        W 5394   0.023   1.832   0.589
 1331W        W 5395   8.086   1.707  11.056
 1332W        W 5396   7.875   3.464  11.126
 1333W        W 5397   4.794   2.014  11.088
 1334W        W 5398   4.481   5.705   0.213
 1335W        W 5399   8.825   6.056   2.740
 1336W        W 5400   4.019   3.623   0.264
 1337W        W 5401   4.171   2.723   0.695
 1338W        W 5402   7.455   9.855  10.596
 1339W        W 5403  10.340   7.010   3.769
 1340W        W 5404   8.543   1.937   9.323
 1341W        W 5405   3.129   7.845   3.354
 1342W        W 5406   7.488   6.102  10.459
 1343W        W 5407   0.260   2.227   1.876
 1344W        W 5408   3.118   8.491   9.839
 1345W        W 5409   9.831   9.845  10.076
 1346W        W 5410   5.889   1.124   3.378
 1347W        W 5411   3.860   2.673   1.208
 1348W        W 5412   7.283   8.991  10.342
 1349W        W 5413   9.769  10.373   1.943
 1350W        W 5414   9.811   0.344   9.228
 1351W        W 5415   5.968   2.177   9.675
 1352W        W 5416   5.666   0.848   8.700
 1353W        W 5417   0.430   6.778   9.925
 1354W        W 5418   2.548   5.598   0.724
 1355W        W 5419   1.227   3.235   9.778
 1356W        W 5420   0.773   5.688  10.914
 1357W        W 5421   0.356   3.409   0.780
 1358W        W 5422   7.924   4.782   2.853
 1359W        W 5423   7.045   6.980   8.983
 1360W        W 5424   5.572   9.326   0.411
 1361W        W 5425   2.699   3.873   0.734
 1362W        W 5426   8.318   8.526  11.703
 1363W        W 5427   2.467   6.868   0.086
 1364W        W 5428   7.757   8.656   0.735
 1365W        W 5429   1.767   9.888   2.693
 1366W        W 5430   5.077   4.181  10.767
 1367W        W 5431   0.440   5.628   3.280
 1368W        W 5432   7.256   0.305   1.079
 1369W        W 5433   7.560   2.185   2.763
 1370W        W 5434   5.691   2.472   9.999
 1371W        W 5435   0.332   4.190  10.919
 1372W        W 5436   6.961   3.728   1.716
 1373W        W 5437   3.829   9.648   0.169
 1374W        W 5438   3.244   9.317   9.489
 1375W        W 5439   8.169  10.463  11.895
 1376W        W 5440   3.872   5.764   0.674
 1377W        W 5441   8.383   0.211   1.522
 1378W        W 5442   8.769   2.386   9.431
 1379W        W 5443   1.905   2.819  10.894
 1380W        W 5444   7.092   6.583   9.877
 1381W        W 5445   2.453   3.764   1.163
 1382W        W 5446   6.071   7.036   1.498
 1383W        W 5447   1.808   7.459   1.289
 1384W        W 5448   5.962   6.159  10.360
 1385W        W 5449   9.412   1.416   9.438
 1386W        W 5450   9.477   4.201   1.746
 1387W        W 5451   8.902   8.577  11.094
 1388W        W 5452   8.940   4.297   3.405
 1389W        W 5453   3.707   7.213   3.523
 1390W        W 5454   3.136   4.041   1.831
 1391W        W 5455   2.814   7.899  11.517
 1392W        W 5456   3.410   8.034   0.196
 1393W        W 5457   3.833   5.100   8.578
 1394W        W 5458   0.481   7.355   0.561
 1395W        W 5459   2.842   7.637  10.407
 1396W        W 5460   5.949   3.559  10.817
 1397W        W 5461   2.172   6.918   9.430
 1398W        W 5462   5.041   5.496   2.638
 1399W        W 5463   9.333   0.986   0.411
 1400W        W 5464   4.971   8.104  10.823
 1401W        W 5465   0.381   8.207   3.470
 1402W        W 5466   4.637   0.830   0.159
 1403W        W 5467   6.626   4.209   2.801
 1404W        W 5468   0.023   7.060   9.772
 1405W        W 5469   1.294   3.548  10.599
 1406W        W 5470   2.624   5.536   1.719
 1407W        W 5471   0.681   9.846  10.317
 1408W        W 5472   3.089   9.720   2.278
 1409W        W 5473   1.712   8.027   8.835
 1410W        W 5474   8.567   9.463  11.349
 1411W        W 5475   5.906   3.077  10.622
 1412W        W 5476   6.999  10.462   9.179
 1413W        W 5477   0.686   2.256  10.032
 1414W        W 5478   5.989   7.335   3.072
 1415W        W 5479   5.475   6.086  10.289
 1416W        W 5480   5.455   9.400  11.466
 1417W        W 5481   4.177   4.463   3.208
 1418W        W 5482   7.199   5.139   2.382
 1419W        W 5483   3.415   7.010   2.833
 1420W        W 5484   1.890   5.849   3.873
 1421W        W 5485   8.790   6.875  10.258
 1422W        W 5486   1.274   7.624  10.045
 1423W        W 5487   3.972   8.759  10.282
 1424W        W 5488   5.076  10.067   1.367
 1425W        W 5489   6.913   5.610   8.721
 1426W        W 5490   2.905  10.373   9.658
 1427W        W 5491   6.779   2.941  10.779
 1428W        W 5492   3.051  10.256   9.185
 1429W        W 5493   8.109   2.909   9.946
 1430W        W 5494   0.956   5.633   3.414
 1431W        W 5495   3.414   9.779   9.332
 1432W        W 5496   1.580   1.797   8.576
 1433W        W 5497   9.891   4.698   9.600
 1434W        W 5498   1.189   3.454   0.742
 1435W        W 5499   9.725   5.259   3.431
 1436W        W 5500   7.866   2.447  11.407
 1437W        W 5501   7.127   5.798   9.567
 1438W        W 5502   4.199   5.274   1.975
 1439W        W 5503   5.985   4.791  10.659
 1440W        W 5504   8.491   2.866   0.934
 1441W        W 5505   0.941   6.555   3.268
 1442W        W 5506   9.484   1.385  10.294
 1443W        W 5507   3.382   4.345   0.291
 1444W        W 5508   9.364   4.976   2.408
 1445W        W 5509   9.313   3.274  11.437
 1446W        W 5510   9.497   4.714  10.297
 1447W        W 5511   2.883   8.379   2.268
 1448W        W 5512   0.444   5.883   1.526
 1449W        W 5513   8.549   8.226   3.598
 1450W        W 5514   5.338   1.850   3.520
 1451W        W 5515   7.662   5.834   9.583
 1452W        W 5516   3.533   7.998  10.921
 1453W        W 5517   3.167   6.244   2.377
 1454W        W 5518   1.393   0.945  10.389
 1455W        W 5519   5.169   5.188  11.059
 1456W        W 5520   5.711   4.384  11.955
 1457W        W 5521   6.956   6.463   8.954
 1458W        W 5522   7.023   2.838  10.257
 1459W        W 5523   7.933   8.621   1.623
 1460W        W 5524   9.788   9.790  11.914
 1461W        W 5525   1.730   1.161  11.692
 1462W        W 5526  10.365   4.502   0.685
 1463W        W 5527   5.651   4.229   0.476
 1464W        W 5528   9.758   3.014   3.520
 1465W        W 5529   6.038   1.267   1.207
 1466W        W 5530   0.247   0.953   2.264
 1467W        W 5531   3.623   0.761  10.219
 1468W        W 5532   4.425  10.487   1.528
 1469W        W 5533   8.847   3.303   3.240
 1470W        W 5534   4.251   0.832   9.459
 1471W        W 5535   6.467   2.489   0.398
 1472W        W 5536   6.580   0.311  10.929
 1473W        W 5537   2.720  10.323  11.143
 1474W        W 5538   5.305   9.767   1.724
 1475W        W 5539   3.281   1.374   1.177
 1476W        W 5540   2.272   0.051  11.044
 1477W        W 5541   1.358   5.715   1.478
 1478W        W 5542   7.950   0.280  11.554
 1479W        W 5543   9.082   3.738   0.171
 1480W        W 5544   1.715   1.177   9.258
 1481W        W 5545   7.145   1.294   1.221
 1482W        W 5546   9.799   3.305   1.293
 1483W        W 5547   3.627   5.086   3.107
 1484W        W 5548   8.529   5.211   1.249
 1485W        W 5549   8.360   3.659   9.414
 1486W        W 5550   2.675   8.166  10.370
 1487W        W 5551   3.614   7.483   0.690
 1488W        W 5552   5.998   5.091   9.330
 1489W        W 5553   8.332   9.243   0.280
 1490W        W 5554   7.060   9.410   1.455
 1491W        W 5555   6.199   7.501   9.315
 1492W        W 5556   8.116   4.010   0.802
 1493W        W 5557   8.188   9.980   9.470
 1494W        W 5558   0.827   0.579   1.008
 1495W        W 5559   7.322   5.090   0.669
 1496W        W 5560  10.455   1.338  11.384
 1497W        W 5561   3.821   9.292  10.381
 1498W        W 5562   2.750   7.413   2.322
 1499W        W 5563   8.977   3.164   0.929
 1500W        W 5564   4.028   7.451  11.983
 1501W        W 5565   6.749   7.748  11.045
 1502W        W 5566   9.504   4.073   3.413
 1503W        W 5567   1.649   5.179   3.203
 1504W        W 5568   4.704   9.976   9.833
 1505W        W 5569   0.925   8.185   0.396
 1506W        W 5570   9.936   3.630   1.684
 1507W        W 5571   8.814   6.116  11.376
 1508W        W 5572   5.156   8.017   3.197
 1509W        W 5573   1.269   2.105  11.403
 1510W        W 5574   6.473   6.506   2.695
 1511W        W 5575   0.647   5.663   9.065
 1512W        W 5576   1.801   4.396   9.275
 1513W        W 5577   8.560   4.716   1.000
 1514W        W 5578   0.905   9.015  10.852
 1515W        W 5579   6.245   7.918   8.549
 1516W        W 5580   6.018   9.022   1.712
 1517W        W 5581   8.153   5.013   9.543
 1518W        W 5582   2.746   4.257   8.870
 1519W        W 5583   9.470   9.375  10.635
 1520W        W 5584   3.736   7.674   3.274
 1521W        W 5585   0.842   6.005  11.351
 1522W        W 5586   9.953   2.429   1.146
 1523W        W 5587   8.593   1.453   1.080
 1524W        W 5588   3.259   2.913   0.495
 1525W        W 5589   4.093   4.971   3.292
 1526W        W 5590   0.313   7.785   8.869
 1527W        W 5591   3.784   0.904   2.243
 1528W        W 5592  10.265   0.824  11.434
 1529W        W 5593  10.225   0.937   2.255
 1530W        W 5594   3.403   4.258   2.199
 1531W        W 5595   0.798   7.381   9.449
 1532W        W 5596   5.746   6.332  11.638
 1533W        W 5597   1.942   1.552   0.216
 1534W        W 5598   2.860   1.016   2.984
 1535W        W 5599   1.929   2.207   1.431
 1536W        W 5600   2.607   7.982   9.501
 1537W        W 5601   4.200   2.764   9.924
 1538W        W 5602   6.973   7.915   1.044
 1539W        W 5603   6.769  10.042   8.939
 1540W        W 5604   3.199   6.671   1.043
 1541W        W 5605   4.271   7.508   2.064
 1542W        W 5606   6.008   5.735   2.187
 1543W        W 5607   8.818   7.414  11.497
 1544W        W 5608   3.336   0.429   0.670
 1545W        W 5609  10.221   0.458  11.803
 1546W        W 5610   2.442  10.407  10.041
 1547W        W 5611   7.769   6.405   3.257
 1548W        W 5612   9.031   9.859   1.466
 1549W        W 5613   5.137   9.575  10.773
 1550W        W 5614   7.882   5.716  11.207
 1551W        W 5615  10.326   1.678   1.613
 1552W        W 5616   1.750   3.550   0.856
 1553W        W 5617   4.950   5.037   3.387
 1554W        W 5618   3.796   3.658   2.632
 1555W        W 5619   4.182   4.203   0.907
 1556W        W 5620   3.670   0.310  10.553
 1557W        W 5621   6.660   0.660   3.240
 1558W        W 5622   0.761   4.770   0.316
 1559W        W 5623   6.813   2.675   3.269
 1560W        W 5624   0.936   1.760   9.396
 1561W        W 5625   7.717   9.045   8.617
 1562W        W 5626   8.180   3.196   9.274
 1563W        W 5627   5.465   8.009  10.817
 1564W        W 5628   3.584   3.657  10.890
 1565W        W 5629   5.051   7.850   9.894
 1566W        W 5630   3.260   6.200   0.824
 1567W        W 5631   1.137   9.442   2.265
 1568W        W 5632   2.574   8.027   2.714
 1569W        W 5633   5.100  10.405   9.284
 1570W        W 5634   8.357   4.389   2.828
 1571W        W 5635   9.988   4.154   1.477
 1572W        W 5636   2.136   2.732   2.572
 1573W        W 5637   9.249   0.301  11.497
 1574W        W 5638   9.868   7.959  10.621
 1575W        W 5639   5.152   7.558   8.258
 1576W        W 5640   1.609   9.871   9.943
 1577W        W 5641   1.230   5.676   9.548
 1578W        W 5642   6.548   5.992  11.502
 1579W        W 5643   4.506   4.485   0.572
 1580W        W 5644   1.213   4.749   9.368
 1581W        W 5645   8.642   6.254   1.261
 1582W        W 5646   3.580   9.961   1.399
 1583W        W 5647  10.493   2.813  11.140
 1584W        W 5648   6.125   4.668   2.946
 1585W        W 5649  10.368   9.486   1.108
 1586W        W 5650   9.836   9.284  11.934
 1587W        W 5651   4.979   3.719   8.510
 1588W        W 5652   2.675   0.649   9.460
 1589W        W 5653   7.941   5.413  10.756
 1590W        W 5654   5.141   2.350   0.782
 1591W        W 5655   8.275   7.822   2.376
 1592W        W 5656   1.910   2.355  11.140
 1593W        W 5657   3.220   3.795   2.369
 1594W        W 5658   7.070   8.537   2.738
 1595W        W 5659   7.476   3.302   2.713
 1596W        W 5660   1.329   4.648   3.451
 1597W        W 5661   3.130   1.967   2.950
 1598W        W 5662   8.293  10.317   1.839
 1599W        W 5663   2.383   2.460   1.423
 1600W        W 5664   3.464   6.911   1.961
 1601W        W 5665   7.640   0.001   2.546
 1602W        W 5666   1.351   6.963   9.023
 1603W        W 5667   7.152  10.366   2.728
 1604W        W 5668   6.566   2.244   2.334
 1605W        W 5669   1.833   9.129   2.280
 1606W        W 5670   3.676   7.226  10.053
 1607W        W 5671   2.832   2.607   1.885
 1608W        W 5672   4.902   0.257   2.584
 1609W        W 5673   7.720   1.912   3.248
 1610W        W 5674   2.951   3.605   1.095
 1611W        W 5675   3.563   2.613   0.198
 1612W        W 5676   6.745   0.139   1.578
 1613W        W 5677   8.452   4.585   1.985
 1614W        W 5678   7.975   5.962   3.140
 1615W        W 5679   1.027   9.986   9.226
 1616W        W 5680   8.480   9.234  10.476
 1617W        W 5681   8.023   0.391   9.709
 1618W        W 5682   0.211  10.371   1.593
 1619W        W 5683   8.536   0.665   9.085
 1620W        W 5684   4.759   6.462   9.433
 1621W        W 5685   3.205   9.119  11.981
 1622W        W 5686  10.045   9.962   9.595
 1623W        W 5687  10.090   4.740  10.953
 1624W        W 5688   2.165   1.668  11.715
 1625W        W 5689   1.074   0.784  11.166
 1626W        W 5690   8.874   8.006   0.152
 1627W        W 5691   3.896   5.142   0.807
 1628W        W 5692   5.560   5.868   1.011
 1629W        W 5693  10.293   8.859   9.737
 1630W        W 5694   0.215   7.879   9.372
 1631W        W 5695   6.234   6.489   3.153
 1632W        W 5696   3.201   6.059   3.591
 1633W        W 5697   9.521   2.945   9.565
 1634W        W 5698   6.454   1.857   0.481
 1635W        W 5699   0.825   1.259   2.871
 1636W        W 5700   1.693   1.514   2.365
 1637W        W 5701   5.300   7.555   9.275
 1638W        W 5702   8.812   9.974  10.742
 1639W        W 5703   8.238   7.860   0.292
 1640W        W 5704   1.407   1.975   9.493
 1641W        W 5705   4.156   9.944  10.005
 1642W        W 5706   4.934   6.493   1.455
 1643W        W 5707   2.015   8.009   0.935
 1644W        W 5708   1.291   0.783   9.059
 1645W        W 5709   6.956   0.403  10.002
 1646W        W 5710   7.221   1.863   3.339
 1647W        W 5711   3.640   1.741   0.215
 1648W        W 5712   3.305   3.649   2.853
 1649W        W 5713   2.116   3.846   0.168
 1650W        W 5714   9.454   3.251   9.989
 1651W        W 5715   8.281   6.285  10.800
 1652W        W 5716   6.639   4.991   0.435
 1653W        W 5717   1.090   5.157  11.407
 1654W        W 5718   0.467   1.317  10.017
 1655W        W 5719   9.849   7.625   2.717
 1656W        W 5720   0.022   7.224   2.153
 1657W        W 5721   4.232   5.144  11.010
 1658W        W 5722   3.103   8.212  11.824
 1659W        W 5723   1.029  10.001   0.174
 1660W        W 5724   9.624   6.215   9.959
 1661W        W 5725   8.692   6.048   2.241
 1662W        W 5726   7.516   2.402   3.248
 1663W        W 5727   4.102   0.334   2.283
 1664W        W 5728   1.946   1.723  10.647
 1665W        W 5729   1.740   4.056  11.814
 1666W        W 5730   0.509   2.703  10.192
 1667W        W 5731   6.893   2.569   9.270
 1668W        W 5732   6.964   5.871   0.867
 1669W        W 5733   6.223   0.909  11.933
 1670W        W 5734   2.931   5.639   2.955
 1671W        W 5735  10.344   3.705   1.972
 1672W        W 5736   9.190   3.757  11.343
 1673W        W 5737   6.243   4.067   3.109
 1674W        W 5738   6.278  10.103   0.872
 1675W        W 5739   0.693   0.857   1.411
 1676W        W 5740   8.756   4.635   0.299
 1677W        W 5741   4.579   4.773  11.221
 1678W        W 5742   1.436   1.873  10.498
 1679W        W 5743   5.808   9.856   1.754
 1680W        W 5744   5.141   8.491  11.629
 1681W        W 5745   4.054   7.516   0.974
 1682W        W 5746   4.678   5.573   2.972
 1683W        W 5747   4.565   0.317   2.082
 1684W        W 5748   9.481   1.140   9.001
 1685W        W 5749  10.200   1.874  11.053
 1686W        W 5750   6.694   7.644   8.540
 1687W        W 5751   7.933   6.068   2.641
 1688W        W 5752   5.009   3.343   8.953
 1689W        W 5753   3.671   6.349  11.772
 1690W        W 5754   7.884   5.931  10.726
 1691W        W 5755   3.804   5.963   2.696
 1692W        W 5756   4.218   5.177  11.547
 1693W        W 5757   6.557   5.718   3.377
 1694W        W 5758   2.994   4.713   8.923
 1695W        W 5759   2.680   3.782   2.658
 1696W        W 5760   0.830   2.782   3.246
 1697W        W 5761   6.005   9.160   0.196
 1698W        W 5762   5.515   8.923   1.981
 1699W        W 5763   7.022   6.081  11.324
 1700W        W 5764   1.351   9.131  11.761
 1701W        W 5765   3.423   7.989   2.959
 1702W        W 5766   2.637   4.089   9.364
 1703W        W 5767   5.007   3.626   3.733
 1704W        W 5768   7.086   2.828  11.860
 1705W        W 5769   8.163   4.150   1.310
 1706W        W 5770   5.165   3.287  11.241
 1707W        W 5771   5.659   1.873   1.401
 1708W        W 5772   4.030   3.224   1.885
 1709W        W 5773   7.412   0.823   2.147
 1710W        W 5774   7.031   1.442  11.723
 1711W        W 5775   7.987   4.006   2.825
 1712W        W 5776   5.242   1.686   0.508
 1713W        W 5777   9.390   0.829   3.588
 1714W        W 5778   8.370   8.837   1.403
 1715W        W 5779  10.120   7.113  10.085
 1716W        W 5780   0.400   2.270  10.466
 1717W        W 5781   4.078   1.989   3.299
 1718W        W 5782   3.049   1.666   1.979
 1719W        W 5783   8.417   5.974  10.413
 1720W        W 5784   2.206   0.919   9.457
 1721W        W 5785   0.427   3.884  11.891
 1722W        W 5786  10.053   1.755   2.388
 1723W        W 5787   4.214   9.608  10.389
 1724W        W 5788   5.254   6.634   9.472
 1725W        W 5789   9.086   1.292   3.523
 1726W        W 5790   5.403   5.569   1.388
 1727W        W 5791   7.435   6.236   9.341
 1728W        W 5792   5.202   4.799   0.860
 1729W        W 5793   1.707   9.451  11.948
 1730W        W 5794   2.845   8.832   0.212
 1731W        W 5795   0.261   5.074   3.140
 1732W        W 5796   8.918   4.575   1.696
 1733W        W 5797   4.754  10.329   2.955
 1734W        W 5798   5.700   4.520  11.186
 1735W        W 5799   7.727  10.429  10.442
 1736W        W 5800   8.159   6.772  11.548
 1737W        W 5801   0.462   7.227   0.055
 1738W        W 5802   7.423   4.818   9.485
 1739W        W 5803   5.940   7.882  10.091
 1740W        W 5804   0.127   7.510  10.496
 1741W        W 5805   7.942   9.192   9.610
 1742W        W 5806   6.269   7.022  10.043
 1743W        W 5807   8.601   5.139   0.367
 1744W        W 5808   9.413   4.692   0.518
 1745W        W 5809   5.526   4.790   2.325
 1746W        W 5810   5.578   3.627  11.251
 1747W        W 5811   7.986   8.794   9.948
 1748W        W 5812   9.464   0.343   0.406
 1749W        W 5813   8.989   7.226   9.398
 1750W        W 5814   8.878   8.083   9.631
 1751W        W 5815   7.641   5.601  10.394
 1752W        W 5816   5.051   1.265   2.834
 1753W        W 5817   2.203   0.766   0.282
 1754W        W 5818   3.613   3.527   9.827
 1755W        W 5819  10.347   6.150   2.045
 1756W        W 5820   4.257   3.689   0.976
 1757W        W 5821   9.344   7.475   9.100
 1758W        W 5822   2.175   3.791   1.603
 1759W        W 5823   9.042   6.222  11.832
 1760W        W 5824   4.747   1.302   3.303
 1761W        W 5825  10.438   1.867   2.077
 1762W        W 5826   9.736   5.133  10.485
 1763W        W 5827   1.494   1.710  10.000
 1764W        W 5828   1.109   3.280   3.335
 1765W        W 5829   4.687   9.826   0.312
 1766W        W 5830  10.012   8.482   1.451
 1767W        W 5831   2.188   5.042  10.723
 1768W        W 5832   9.534   2.190   8.981
 1769W        W 5833   4.782   7.632  10.735
 1770W        W 5834   8.206   5.377  11.418
 1771W        W 5835   6.902   0.357   2.873
 1772W        W 5836   7.064   9.834   1.183
 1773W        W 5837   2.951   8.363  11.353
 1774W        W 5838   3.283   1.042   3.302
 1775W        W 5839   6.536   5.699   9.089
 1776W        W 5840   7.867   4.531   9.574
 1777W        W 5841   4.275   4.056   0.404
 1778W        W 5842   9.602   0.336   1.716
 1779W        W 5843   9.628   7.913   3.144
 1780W        W 5844   2.226   6.428   2.055
 1781W        W 5845  10.001   6.859  10.524
 1782W        W 5846   2.642   0.786   1.704
 1783W        W 5847   8.265   2.375   9.256
 1784W        W 5848  10.124   7.459  11.808
 1785W        W 5849   7.538   4.393   9.205
 1786W        W 5850   0.449   3.661   3.231
 1787W        W 5851   7.944   7.380   8.735
 1788W        W 5852   1.053   8.353   0.947
 1789W        W 5853   0.846   1.603   2.466
 1790W        W 5854   0.401   1.398   0.722
 1791W        W 5855   9.372   0.776   1.385
 1792W        W 5856   0.488   4.797  11.878
 1793W        W 5857   6.140   2.753   9.973
 1794W        W 5858   6.640   0.902   9.069
 1795W        W 5859   7.206   8.327   9.550
 1796W        W 5860   4.575   9.494  10.047
 1797W        W 5861   7.058   3.620   8.724
 1798W        W 5862   0.859   7.081   0.342
 1799W        W 5863   6.434   8.738   3.424
 1800W        W 5864   8.044  10.447   3.305
 1801W        W 5865   8.312   3.747  11.033
 1802W        W 5866  10.105   6.610   2.766
 1803W        W 5867   7.389   5.713  11.380
 1804W        W 5868   6.001   5.628  10.843
 1805W        W 5869   1.658   7.342   9.892
 1806W        W 5870   3.853   2.712   1.748
 1807W        W 5871   2.123   0.091   1.378
 1808W        W 5872   8.390   7.486   2.005
 1809W        W 5873   4.204   4.955   2.354
 1810W        W 5874   8.824   2.106  10.445
 1811W        W 5875   4.697   5.497   0.704
 1812W        W 5876   4.672   7.897   0.430
 1813W        W 5877   7.445   2.733  11.478
 1814W        W 5878   9.133   7.076  11.727
 1815W        W 5879  10.447   6.999   2.608
 1816W        W 5880   6.486   4.896   9.502
 1817W        W 5881   6.046   5.246  10.423
 1818W        W 5882   1.615   9.637  10.453
 1819W        W 5883   0.222   8.997  10.360
 1820W        W 5884   9.956   9.450   9.788
 1821W        W 5885   2.868   4.725  11.164
 1822W        W 5886   5.413   4.093  11.161
 1823W        W 5887  10.487   0.208   3.457
 1824W        W 5888   3.675   2.808   2.804
 1825W        W 5889   2.374   3.629  11.147
 1826W        W 5890   4.165   7.058   1.227
 1827W        W 5891   7.067   5.447   1.817
 1828W        W 5892   5.929   9.448   9.151
 1829W        W 5893   1.161   6.508   9.154
 1830W        W 5894   4.658   4.048   0.781
 1831W        W 5895  10.224   8.816  11.246
 1832W        W 5896   1.188   1.844   2.141
 1833W        W 5897  10.015   0.955   9.817
 1834W        W 5898   7.086   0.859   2.972
 1835W        W 5899   0.201   0.787   1.381
 1836W        W 5900   2.903   5.783   9.862
 1837W        W 5901   8.099   7.748   1.709
 1838W        W 5902   2.175   9.815   2.979
 1839W        W 5903   0.288   2.589  11.526
 1840W        W 5904   2.974   5.233  11.326
 1841W        W 5905   0.259   5.225  11.690
 1842W        W 5906   2.768   3.192   1.336
 1843W        W 5907   6.765   6.500   3.151
 1844W        W 5908   7.872   5.783   0.943
 1845W        W 5909   7.547   4.671  11.284
 1846W        W 5910   0.257   0.925  11.463
 1847W        W 5911   1.455   1.819   3.615
 1848W        W 5912   8.567   6.380   9.428
 1849W        W 5913   5.148   4.263   0.668
 1850W        W 5914   5.740  10.421   2.895
 1851W        W 5915   5.677   2.883   1.434
 1852W        W 5916   0.219  10.063  11.860
 1853W        W 5917   2.729   2.335   0.799
 1854W        W 5918   4.493   0.271  10.907
 1855W        W 5919   3.407   9.471   2.946
 1856W        W 5920  10.004   9.380  10.295
 1857W        W 5921   9.070   9.354   9.968
 1858W        W 5922   3.627   4.525  11.399
 1859W        W 5923   1.815   1.228   1.917
 1860W        W 5924   6.720   5.088   8.337
 1861W        W 5925   8.589   9.470  10.043
 1862W        W 5926   9.421   1.464   0.238
 1863W        W 5927   6.094   5.444   0.807
 1864W        W 5928   9.211   0.431   2.673
 1865W        W 5929   2.920   5.498  10.836
 1866W        W 5930   4.136   3.607  10.862
 1867W        W 5931   1.455  10.382   2.373
 1868W        W 5932   4.995   2.710  10.559
 1869W        W 5933   4.061   1.267   9.645
 1870W        W 5934   1.789   4.781  11.104
 1871W        W 5935   9.360  10.177   2.264
 1872W        W 5936   3.250   7.538   1.033
 1873W        W 5937   5.626   0.749  10.234
 1874W        W 5938   3.294   2.715   9.797
 1875W        W 5939   3.160   9.081   8.637
 1876W        W 5940   9.924   0.216  10.833
 1877W        W 5941   5.602   5.506   0.643
 1878W        W 5942   2.280   6.897  10.441
 1879W        W 5943   5.795   4.001  10.334
 1880W        W 5944   8.594  10.267  11.668
 1881W        W 5945   3.750   5.054  10.112
 1882W        W 5946   1.930   3.364   0.366
 1883W        W 5947   6.479   3.851   0.504
 1884W        W 5948   8.908   0.168  11.890
 1885W        W 5949   6.494   6.296   9.214
 1886W        W 5950   8.293   4.706   0.512
 1887W        W 5951   6.132   2.304   3.125
 1888W        W 5952   4.533   6.647  11.666
 1889W        W 5953   9.172   1.930   0.009
 1890W        W 5954   1.478   0.752  10.840
 1891W        W 5955   1.645   8.865   8.405
 1892W        W 5956   3.809   5.198   1.659
 1893W        W 5957   2.507   6.258   2.931
 1894W        W 5958  10.246   0.354   8.893
 1895W        W 5959  10.018   2.776  10.972
 1896W        W 5960   6.226   7.418   8.802
 1897W        W 5961   5.503   4.290   9.884
 1898W        W 5962   8.771   8.968  10.125
 1899W        W 5963   8.365   2.677  10.522
 1900W        W 5964   5.445   9.189   1.277
 1901W        W 5965   3.299   2.621  10.861
 1902W        W 5966   9.205   0.955   9.432
 1903W        W 5967   7.501   3.448   8.507
 1904W        W 5968   6.132   7.003   0.985
 1905W        W 5969   5.691   0.235  10.418
 1906W        W 5970   9.724   8.427   9.951
 1907W        W 5971   0.428   6.994   9.468
 1908W        W 5972   2.589   3.354   0.829
 1909W        W 5973   0.729   6.508   9.520
 1910W        W 5974   1.687   8.188   2.303
 1911W        W 5975   7.895   2.889  10.404
 1912W        W 5976   4.697   0.829   9.712
 1913W        W 5977   9.815   1.408   8.666
 1914W        W 5978   5.717   2.952  10.172
 1915W        W 5979   4.276   9.004   9.953
 1916W        W 5980   5.510   8.361   0.210
 1917W        W 5981   1.458   0.455   0.656
 1918W        W 5982   4.169   9.737   1.290
 1919W        W 5983   2.035   5.531  10.515
 1920W        W 5984   7.842   7.487   9.741
 1921W        W 5985   2.306   8.774  11.862
 1922W        W 5986   3.004   1.752   8.691
 1923W        W 5987   5.206   8.919   3.310
 1924W        W 5988   6.052   0.923  10.006
 1925W        W 5989   6.176   7.601   2.173
 1926W        W 5990   2.156   7.749   0.067
 1927W        W 5991   7.622   9.864   2.377
 1928W        W 5992   8.358   2.668   3.605
 1929W        W 5993  10.478   5.166   1.705
 1930W        W 5994   9.827   4.564   1.825
 1931W        W 5995   7.891   7.174  10.641
 1932W        W 5996   8.126   8.182   1.467
 1933W        W 5997   4.683   3.440  11.172
 1934W        W 5998   9.222   0.268   2.190
 1935W        W 5999   7.449   0.826  10.460
 1936W        W 6000   0.071   0.342   1.149
 1937W        W 6001   1.380   3.687  11.590
 1938W        W 6002  10.003   5.453   0.529
 1939W        W 6003  10.128   9.261   3.315
 1940W        W 6004   3.621   4.054  11.234
 1941W        W 6005   4.970   9.075   1.424
 1942W        W 6006   4.631   8.405  11.957
 1943W        W 6007   1.576   5.274  11.299
 1944W        W 6008   1.654   0.753   2.087
 1945W        W 6009   3.817   9.570   1.652
 1946W        W 6010   2.644   1.980   3.151
 1947W        W 6011   1.929   4.012   3.094
 1948W        W 6012   9.843   2.124   2.669
 1949W        W 6013   6.434   8.020   2.348
 1950W        W 6014   2.859   6.433  10.590
 1951W        W 6015   3.091   5.072   2.757
 1952W        W 6016   1.250   9.069  10.468
 1953W        W 6017   2.189   7.058   3.438
 1954W        W 6018   5.131   4.689   9.224
 1955W        W 6019   8.754   6.231   9.910
 1956W        W 6020   2.247   7.352   0.426
 1957W        W 6021   6.848   4.223   9.842
 1958W        W 6022   4.657   6.088  10.965
 1959W        W 6023   7.451   4.526   4.196
 1960W        W 6024   2.759   0.989  11.803
 1961W        W 6025   8.987   8.026  11.094
 1962W        W 6026   8.864   6.323   9.005
 1963W        W 6027   7.628   4.142  11.435
 1964W        W 6028   9.733   6.242   2.894
 1965W        W 6029   9.313   2.358  10.509
 1966W        W 6030   8.183   4.635   2.424
 1967W        W 6031   0.415   6.975   2.394
 1968W        W 6032  10.452   2.249  11.347
 1969W        W 6033   2.678   6.973   3.657
 1970W        W 6034   8.045   9.068   3.590
 1971W        W 6035   5.478   8.851   0.312
 1972W        W 6036   2.554   9.897  11.783
 1973W        W 6037   4.503   3.183   9.889
 1974W        W 6038   2.227  10.293   0.960
 1975W        W 6039   0.856   9.002  11.786
 1976W        W 6040   3.597  10.488   1.212
 1977W        W 6041   8.311   5.147   0.791
 1978W        W 6042   7.545   0.713   8.471
 1979W        W 6043   0.750   1.111   2.367
 1980W        W 6044   9.466   0.155  10.070
 1981W        W 6045   8.826   2.890   3.534
 1982W        W 6046   6.598   7.126  11.007
 1983W        W 6047   5.606   7.976   9.256
 1984W        W 6048   1.987   6.966   0.222
 1985W        W 6049   6.006   4.081   3.553
 1986W        W 6050   2.780  10.041   0.974
 1987W        W 6051   9.715   3.444   9.562
 1988W        W 6052   0.672   8.554   2.451
 1989W        W 6053   0.663   8.658   0.830
 1990W        W 6054   5.879   9.940   8.917
 1991W        W 6055   7.635   3.178  10.756
 1992W        W 6056   3.571   0.275   9.060
 1993W        W 6057   2.896   2.132  10.464
 1994W        W 6058   3.904   1.316   0.327
 1995W        W 6059   0.357   5.852  10.646
 1996W        W 6060   8.336   4.741  11.030
 1997W        W 6061   3.331   9.464  10.359
 1998W        W 6062   5.083   6.233   3.751
 1999W        W 6063   7.157   4.282  11.338
 2000W        W 6064   5.466   0.929   2.634
 2001W        W 6065   7.935   2.733   3.276
 2002W        W 6066   0.363   2.540   9.675
 2003W        W 6067  10.315   7.378   3.412
 2004W        W 6068   5.774   2.714   0.938
 2005W        W 6069   7.433   2.710  10.526
 2006W        W 6070   2.261   2.895   8.910
 2007W        W 6071   6.881   8.058   1.516
 2008W        W 6072   6.540   0.621   1.684
 2009W        W 6073  10.029   8.327   9.066
 2010W        W 6074   7.331   8.738   9.254
 2011W        W 6075   3.352   3.103   3.758
 2012W        W 6076   8.335   1.293   2.818
 2013W        W 6077   9.485   1.564   3.243
 2014W        W 6078   7.244   7.633   1.389
 2015W        W 6079   0.822   1.939   2.845
 2016W        W 6080   1.290   8.066   2.024
 2017W        W 6081   5.763   3.897   2.282
 2018W        W 6082   5.006   0.411   9.685
 2019W        W 6083  10.340   7.460   9.510
 2020W        W 6084   9.662  10.272   3.116
 2021W        W 6085   5.108   8.038   9.419
 2022W        W 6086   0.464   4.538  10.003
 2023W        W 6087   5.209   8.969  11.480
 2024W        W 6088   9.143   8.325  11.474
 2025W        W 6089   2.838   9.254   2.267
 2026W        W 6090   7.721   9.459   3.246
 2027W        W 6091  10.250   8.403   9.979
 2028W        W 6092   2.726   0.722   0.241
 2029W        W 6093   1.485   7.603   0.736
 2030W        W 6094   8.060   1.419  10.373
 2031W        W 6095   3.822   7.586  11.026
 2032W        W 6096   4.242   4.461   2.284
 2033W        W 6097   7.412   7.960   0.739
 2034W        W 6098   9.044   1.563  11.632
 2035W        W 6099   1.267   8.569   3.232
 2036W        W 6100   0.459   1.397  11.358
 2037W        W 6101   9.871   8.376  10.959
 2038W        W 6102   3.791   0.395   0.953
 2039W        W 6103   8.553   1.379   0.580
 2040W        W 6104   5.729   2.882   2.339
 2041W        W 6105   3.402   5.750   3.213
 2042W        W 6106   8.431   2.812   9.538
 2043W        W 6107   8.873   6.201   1.779
 2044W        W 6108   2.372   0.312   3.230
 2045W        W 6109   8.660   9.030   1.793
 2046W        W 6110   6.706   1.803   9.185
 2047W        W 6111   1.480   9.956   9.447
 2048W        W 6112   1.882   8.081  11.463
 2049W        W 6113   1.720   6.178   8.530
 2050W        W 6114   1.327   1.075   1.831
 2051W        W 6115  10.088   6.976  11.609
 2052W        W 6116   3.578   2.271   9.108
 2053W        W 6117   2.320   5.688   2.724
 2054W        W 6118   7.430   2.599   9.526
 2055W        W 6119   2.398   9.681  11.323
 2056W        W 6120   1.236   9.401  11.036
 2057W        W 6121  10.430   5.714  10.883
 2058W        W 6122   9.957   1.372  11.554
 2059W        W 6123   0.330   1.472   9.520
 2060W        W 6124  10.404   2.384   9.536
 2061W        W 6125   6.182   6.521   0.724
 2062W        W 6126   2.377   9.634  10.132
 2063W        W 6127   1.082   7.376  10.456
 2064W        W 6128   4.605   5.143   8.868
 2065W        W 6129   5.159   9.535   2.650
 2066W        W 6130   2.365   2.111   0.519
 2067W        W 6131   3.952   4.225   4.036
 2068W        W 6132   4.705   2.422   3.139
 2069W        W 6133   2.765   4.625   8.464
 2070W        W 6134   5.556   4.378   3.574
 2071W        W 6135   5.238   0.885  11.433
 2072W        W 6136   4.521   4.658   1.425
 2073W        W 6137   5.641   0.763   3.093
 2074W        W 6138   1.453   8.945   1.496
 2075W        W 6139   1.107   8.980  11.324
 2076W        W 6140   2.347   6.034   2.351
 2077W        W 6141   0.803   2.642   9.255
 2078W        W 6142   3.898   1.904  10.251
 2079W        W 6143   0.836   7.695   1.871
 2080W        W 6144   5.292   4.446  11.506
 2081W        W 6145   5.261  10.493  10.826
 2082W        W 6146   2.863   3.997   1.401
 2083W        W 6147   7.459   6.104  11.020
 2084W        W 6148   5.907   3.188   9.769
 2085W        W 6149   8.473   9.524   9.555
 2086W        W 6150   9.618  10.176  11.600
 2087W        W 6151   8.299   5.104  10.480
 2088W        W 6152   2.632   7.099   9.217
 2089W        W 6153   6.317   9.374   8.829
 2090W        W 6154   0.823   5.251   0.528
 2091W        W 6155  10.111   1.438   9.720
 2092W        W 6156   6.521   1.131   1.866
 2093W        W 6157   0.052   9.546   2.959
 2094W        W 6158   9.472   2.896  11.786
 2095W        W 6159   3.671   9.342  11.789
 2096W        W 6160   9.859   5.289   2.942
 2097W        W 6161   6.561   4.339   0.439
 2098W        W 6162   8.296  10.472  11.266
 2099W        W 6163   9.172   6.174   2.197
 2100W        W 6164   0.452   2.057   0.383
 2101W        W 6165   3.019   8.712  11.736
 2102W        W 6166   5.482   2.138   0.448
 2103W        W 6167   8.989   7.523  11.026
 2104W        W 6168   8.738   3.564  11.252
 2105W        W 6169   5.066   5.199   9.106
 2106W        W 6170   9.004   8.352  10.638
 2107W        W 6171   2.296   4.874   8.449
 2108W        W 6172   3.691   0.860   0.187
 2109W        W 6173   4.290   9.242   3.724
 2110W        W 6174   9.090   2.452   9.012
 2111W        W 6175   2.663   0.540   2.473
 2112W        W 6176   8.488   7.936  10.975
 2113W        W 6177   7.030   3.575   2.250
 2114W        W 6178   3.661  10.394   8.714
 2115W        W 6179   6.270   6.726  11.065
 2116W        W 6180   3.531   1.729   2.174
 2117W        W 6181   9.830   1.511  11.067
 2118W        W 6182   3.762   0.404   1.475
 2119W        W 6183  10.101  10.235   3.485
 2120W        W 6184   8.388   8.128   1.029
 2121W        W 6185   8.847   9.246  11.846
 2122W        W 6186   2.944   7.654   2.912
 2123W        W 6187   9.944   9.266  10.777
 2124W        W 6188   5.678   6.716   9.762
 2125W        W 6189   7.953   6.227  11.210
 2126W        W 6190   7.488   0.382   1.897
 2127W        W 6191   6.822   9.400  11.584
 2128W        W 6192   8.149   1.326   0.871
 2129W        W 6193   1.178   2.634  11.568
 2130W        W 6194   8.904   9.959   2.498
 2131W        W 6195   4.970   6.000  10.076
 2132W        W 6196   1.011   4.701   2.218
 2133W        W 6197   2.802   8.905  10.895
 2134W        W 6198   4.264   0.330   0.721
 2135W        W 6199  10.354   0.395  10.520
 2136W        W 6200   4.059   9.854   2.280
 2137W        W 6201   9.106   3.848  10.418
 2138W        W 6202   5.744   0.214   1.483
 2139W        W 6203   3.205   3.384   8.601
 2140W        W 6204   3.644   9.047   0.808
 2141W        W 6205   0.831   0.778   9.374
 2142W        W 6206   2.381   1.242   0.351
 2143W        W 6207   0.855   6.958   9.757
 2144W        W 6208   1.896   2.179   8.710
 2145W        W 6209   3.423   1.416  11.366
 2146W        W 6210   5.778   7.395   1.239
 2147W        W 6211   0.806   5.848   0.778
 2148W        W 6212   6.080   7.941   9.057
 2149W        W 6213   1.940  10.412  10.152
 2150W        W 6214   6.155   1.673   2.464
 2151W        W 6215   1.819   6.732   3.563
 2152W        W 6216   1.386   5.928  10.960
 2153W        W 6217   1.486   2.642   1.763
 2154W        W 6218   7.879   1.694   0.583
 2155W        W 6219   9.752   1.825   0.377
 2156W        W 6220   2.077   5.424   0.919
 2157W        W 6221   3.997   6.507   3.316
 2158W        W 6222   4.267   9.552   1.870
 2159W        W 6223   2.881   5.567  11.723
 2160W        W 6224   9.261   9.904   3.310
 2161W        W 6225   8.037   2.255   3.031
 2162W        W 6226   2.196   2.228   3.288
 2163W        W 6227   8.032  10.162   2.352
 2164W        W 6228   6.908  10.338  11.454
 2165W        W 6229   2.763   3.626   8.749
 2166W        W 6230   7.824   8.498  11.610
 2167W        W 6231   9.112  10.296  11.557
 2168W        W 6232   6.954   2.712   0.351
 2169W        W 6233   3.126   0.889   1.461
 2170W        W 6234   1.035   4.981   8.899
 2171W        W 6235   0.691  10.343   1.415
 2172W        W 6236   7.092   2.309   0.062
 2173W        W 6237   6.515   4.662   2.603
 2174W        W 6238   8.601   2.828  10.028
 2175W        W 6239   3.611   7.971  10.407
 2176W        W 6240   9.057   6.972   1.167
 2177W        W 6241   7.958   4.381   3.150
 2178W        W 6242   1.413   4.658  11.468
 2179W        W 6243   4.718   8.927  10.734
 2180W        W 6244   6.709   7.210  11.903
 2181W        W 6245   8.022   9.803   8.529
 2182W        W 6246   9.476   4.087   2.256
 2183W        W 6247   9.383   8.004  10.477
 2184W        W 6248   5.004   3.288  10.759
 2185W        W 6249   5.657   5.829  11.671
 2186W        W 6250   3.677   9.554   8.945
 2187W        W 6251   4.068  10.472   9.040
 2188W        W 6252   5.655   8.485   2.201
 2189W        W 6253   3.315   6.643  10.859
 2190W        W 6254   1.646   6.623   0.068
 2191W        W 6255   8.062   1.225  10.873
 2192W        W 6256   3.269   6.646  10.330
 2193W        W 6257   9.549   1.737   2.486
 2194W        W 6258   8.929   0.838   3.352
 2195W        W 6259   7.339   4.373  11.834
 2196W        W 6260   1.184   2.736  10.679
 2197W        W 6261   1.168   4.506   0.520
 2198W        W 6262   3.355   2.038   1.816
 2199W        W 6263   2.184   7.015  10.950
 2200W        W 6264   4.510   3.188   0.797
 2201W        W 6265   5.637   6.024   0.554
 2202W        W 6266   5.349   6.823   1.896
 2203W        W 6267   1.760   3.624   1.357
 2204W        W 6268   7.621   4.052   9.584
 2205W        W 6269   9.381   7.608   1.784
 2206W        W 6270   6.976   1.949  11.711
 2207W        W 6271   1.711   5.215  10.800
 2208W        W 6272   2.832   0.572   0.806
 2209W        W 6273   9.525   7.009   9.380
 2210W        W 6274   2.627   4.138   1.844
 2211W        W 6275   2.439   6.266  11.942
 2212W        W 6276   6.185   4.731   1.580
 2213W        W 6277   0.604   8.152   0.796
 2214W        W 6278   8.968   8.358   9.215
 2215W        W 6279   9.861   1.818   8.090
 2216W        W 6280   6.443   5.201   9.102
 2217W        W 6281   3.690   5.716  11.214
 2218W        W 6282   2.555   5.580  10.451
 2219W        W 6283   5.354   1.749  10.390
 2220W        W 6284   5.278   1.280   0.160
 2221W        W 6285   8.837   7.836   1.005
 2222W        W 6286   8.783   5.092  10.335
 2223W        W 6287   6.729   5.668   2.868
 2224W        W 6288   3.171   5.304   0.428
 2225W        W 6289   8.646   2.245   0.816
 2226W        W 6290   0.663   7.913  10.990
 2227W        W 6291   8.483   9.018   8.644
 2228W        W 6292   3.334   3.017   3.188
 2229W        W 6293   2.307   0.250   2.726
 2230W        W 6294   5.245   2.137   2.626
 2231W        W 6295   6.928   8.030   9.868
 2232W        W 6296   1.880   0.125   2.219
 2233W        W 6297   2.873   9.890  10.884
 2234W        W 6298   4.034   9.118  11.484
 2235W        W 6299   1.876   2.207   3.703
 2236W        W 6300   7.006   4.018   3.546
 2237W        W 6301   0.333   0.504   9.765
 2238W        W 6302   8.998   2.275   2.826
 2239W        W 6303   2.855   2.689   1.392
 2240W        W 6304   7.105   7.916   3.007
 2241W        W 6305   3.195   1.815   9.189
 2242W        W 6306   4.628   1.298   2.000
 2243W        W 6307   9.409   9.280   9.577
 2244W        W 6308   0.406   0.737   8.755
 2245W        W 6309  10.293   8.313  11.249
 2246W        W 6310   5.417   0.388   8.844
 2247W        W 6311   0.824  10.321  11.483
 2248W        W 6312   8.441   9.481   0.734
 2249W        W 6313   8.001   2.279   3.543
 2250W        W 6314   3.489   8.905  10.326
 2251W        W 6315   4.211   6.059   0.953
 2252W        W 6316   5.276  10.470   9.762
 2253W        W 6317   7.339   8.361   3.154
 2254W        W 6318   6.646   0.204   2.469
 2255W        W 6319   1.607   9.576   2.088
 2256W        W 6320   4.368   1.962  10.462
 2257W        W 6321   1.526   4.699   2.255
 2258W        W 6322   3.158   9.462   9.003
 2259W        W 6323   8.947   1.107  11.395
 2260W        W 6324   3.074   2.199  11.735
 2261W        W 6325   3.378   8.338   9.391
 2262W        W 6326   1.405   7.568   9.508
 2263W        W 6327   0.922   7.388  11.900
 2264W        W 6328   5.160   9.044   2.817
 2265W        W 6329   6.933   6.968   1.825
 2266W        W 6330   1.866   2.168  10.362
 2267W        W 6331   9.006   0.537   0.281
 2268W        W 6332   7.564   6.814   9.812
 2269W        W 6333   6.660   1.174   0.011
 2270W        W 6334   1.421   5.139  11.790
 2271W        W 6335   4.551   9.292  11.058
 2272W        W 6336   4.720   9.292   3.434
 2273W        W 6337   3.372   7.875  11.555
 2274W        W 6338   1.056  10.479  11.928
 2275W        W 6339   8.915   1.522   0.255
 2276W        W 6340   3.647   5.554   1.974
 2277W        W 6341   6.193   1.864  10.449
 2278W        W 6342   3.039   6.966   3.184
 2279W        W 6343   1.072   1.886   1.369
 2280W        W 6344   7.336   9.661  11.056
 2281W        W 6345   8.139   9.495   2.934
 2282W        W 6346   3.279   4.273   8.800
 2283W        W 6347   2.266   9.072  11.439
 2284W        W 6348   1.546   6.162   2.902
 2285W        W 6349   8.189   2.560  10.999
 2286W        W 6350   5.670   2.043  11.988
 2287W        W 6351   1.570   1.775   1.276
 2288W        W 6352   0.425   7.134  10.653
 2289W        W 6353   0.446   2.109  11.443
 2290W        W 6354   1.235   3.831   8.554
 2291W        W 6355   1.960   7.010   0.954
 2292W        W 6356   0.971   0.279   0.617
 2293W        W 6357   3.696   2.212   3.046
 2294W        W 6358   8.968   4.168   0.421
 2295W        W 6359   2.397   8.601   0.339
 2296W        W 6360   1.767   4.238  10.969
 2297W        W 6361   1.899   8.437   8.548
 2298W        W 6362   4.253   7.043   0.191
 2299W        W 6363   9.193   7.486   2.249
 2300W        W 6364   0.697   3.996   2.933
 2301W        W 6365   2.148   7.980   9.699
 2302W        W 6366   7.195   6.705   4.064
 2303W        W 6367   9.440   6.161   0.716
 2304W        W 6368   7.656   9.727   0.854
 2305W        W 6369   1.073   9.436   2.791
 2306W        W 6370   6.894   1.287   2.196
 2307W        W 6371   2.309   4.800   3.244
 2308W        W 6372   3.845   8.477   1.410
 2309W        W 6373   8.892   8.378   0.987
 2310W        W 6374   3.955   6.729   1.976
 2311W        W 6375   9.189   3.603   8.934
 2312W        W 6376   5.544   9.854   2.181
 2313W        W 6377   0.451   6.152  11.652
 2314W        W 6378   8.808   6.684   0.562
 2315W        W 6379   6.132   1.849  11.553
 2316W        W 6380  10.447   1.333   1.955
 2317W        W 6381   9.835   1.743  10.017
 2318W        W 6382  10.001   1.157   0.025
 2319W        W 6383   8.988   1.972   1.613
 2320W        W 6384   7.981   2.716   1.731
 2321W        W 6385   1.560   5.381   0.218
 2322W        W 6386   0.849   8.107  10.574
 2323W        W 6387   6.688   8.008   0.263
 2324W        W 6388   5.464   5.212   2.648
 2325W        W 6389   0.003   8.384   2.638
 2326W        W 6390   9.926   2.579   3.347
 2327W        W 6391   3.158   3.549   1.734
 2328W        W 6392   9.847   3.244  11.823
 2329W        W 6393   7.194   3.007   9.319
 2330W        W 6394   1.398   0.545   8.608
 2331W        W 6395   3.466   4.162  10.758
 2332W        W 6396   7.639   6.012   8.352
 2333W        W 6397   4.832   2.794   0.929
 2334W        W 6398   1.734   5.859   9.715
 2335W        W 6399   7.373   6.035   1.791
 2336W        W 6400   4.114   8.837   2.388
 2337W        W 6401   4.540   3.637  10.128
 2338W        W 6402   0.756   1.665   0.455
 2339W        W 6403   1.571   6.413   1.905
 2340W        W 6404   4.335   1.002  11.407
 2341W        W 6405   7.023   7.619  10.165
 2342W        W 6406   1.695   0.065   0.360
 2343W        W 6407   4.386   2.642  11.062
 2344W        W 6408   4.232   3.403  11.422
 2345W        W 6409   3.540   1.725   0.867
 2346W        W 6410   6.461   0.220   1.996
 2347W        W 6411   5.077   4.069   8.132
 2348W        W 6412   3.195   4.631  10.052
 2349W        W 6413   1.457   0.774  11.876
 2350W        W 6414   8.972   8.492  10.125
 2351W        W 6415   9.003   7.912   1.537
 2352W        W 6416   2.922   0.274   0.408
 2353W        W 6417   9.972   8.776  11.933
 2354W        W 6418   2.215   6.040  10.998
 2355W        W 6419   3.627   2.599   0.742
 2356W        W 6420  10.154   8.737  10.733
 2357W        W 6421   1.868   7.423  11.147
 2358W        W 6422   0.250   0.236   8.853
 2359W        W 6423   7.462   7.546  11.435
 2360W        W 6424   8.519   6.535  11.798
 2361W        W 6425   9.626   6.623   0.902
 2362W        W 6426   7.251   3.202   1.009
 2363W        W 6427   7.704   9.142   9.116
 2364W        W 6428   8.908   7.840  10.612
 2365W        W 6429   3.365   6.982   8.539
 2366W        W 6430   6.702   1.657  10.261
 2367W        W 6431   3.280   7.888   0.670
 2368W        W 6432   4.597   9.833   3.164
 2369W        W 6433   9.711  10.274   9.819
 2370W        W 6434   9.873   5.439  11.530
 2371W        W 6435   7.922  10.191   0.844
 2372W        W 6436   6.659   8.749   2.989
 2373W        W 6437   0.356   1.398   2.701
 2374W        W 6438   0.158   6.742  10.881
 2375W        W 6439   7.548   5.527   1.689
 2376W        W 6440   6.699   1.660   9.732
 2377W        W 6441   6.391   5.730   1.609
 2378W        W 6442   3.388   9.763  11.630
 2379W        W 6443   4.761   1.239  11.874
 2380W        W 6444   1.197   6.091   3.266
 2381W        W 6445   6.283   3.659   0.937
 2382W        W 6446   8.139   3.058  10.826
 2383W        W 6447   7.183   5.460   2.759
 2384W        W 6448   5.687  10.261   2.428
 2385W        W 6449   1.374   6.562  10.190
 2386W        W 6450   8.087   7.543  10.328
 2387W        W 6451   8.020   2.234   2.501
 2388W        W 6452   7.054   3.371  11.582
 2389W        W 6453   2.749   8.809  10.064
 2390W        W 6454  10.072   0.156   1.624
 2391W        W 6455   1.855   6.441   3.167
 2392W        W 6456   1.664   9.235  10.772
 2393W        W 6457   2.699   4.478   0.042
 2394W        W 6458   4.487   6.610   2.705
 2395W        W 6459   1.417   7.222   1.522
 2396W        W 6460   2.236   6.008  10.458
 2397W        W 6461   7.418   4.545   1.315
 2398W        W 6462   4.692   9.359   0.071
 2399W        W 6463   8.759   5.206   3.208
 2400W        W 6464   9.838   6.962   0.589
 2401W        W 6465   4.840   5.041   1.207
 2402W        W 6466   3.185   6.352   8.343
 2403W        W 6467   2.584   3.858  11.937
 2404W        W 6468   7.497   7.498   1.846
 2405W        W 6469   6.961   0.867   1.914
 2406W        W 6470   9.522   1.536   0.772
 2407W        W 6471   7.542   5.467   1.180
 2408W        W 6472   5.041   9.657   2.167
 2409W        W 6473   1.988   2.879   9.341
 2410W        W 6474   6.907   5.597  11.521
 2411W        W 6475   9.820   5.604   0.048
 2412W        W 6476   4.268   8.341   9.208
 2413W        W 6477   2.347   2.242   2.795
 2414W        W 6478   6.994   4.202   0.191
 2415W        W 6479   0.368   7.453   3.402
 2416W        W 6480   7.011   9.857  11.773
 2417W        W 6481   5.101   5.391  11.506
 2418W        W 6482   3.812   6.479   9.630
 2419W        W 6483   2.937   9.848   9.483
 2420W        W 6484   7.931   3.333  11.619
 2421W        W 6485   3.532   4.314   9.506
 2422W        W 6486   0.803   1.134   0.978
 2423W        W 6487   7.090   5.744   4.060
 2424W        W 6488   3.722   9.925   8.498
 2425W        W 6489   4.211   7.940   0.676
 2426W        W 6490   9.057   2.365   0.551
 2427W        W 6491   8.459   2.832   1.560
 2428W        W 6492   9.388   4.575   2.094
 2429W        W 6493   8.236   1.034   1.851
 2430W        W 6494   2.974   9.227   3.136
 2431W        W 6495   5.007   0.370   3.069
 2432W        W 6496   8.551   7.977   1.894
 2433W        W 6497   8.131   6.610   9.513
 2434W        W 6498   5.202   4.636  10.518
 2435W        W 6499   6.040  10.129   9.407
 2436W        W 6500   8.330   1.715   0.278
 2437W        W 6501   1.903   7.362   1.796
 2438W        W 6502   3.251   9.406   0.569
 2439W        W 6503   3.981   1.150   3.522
 2440W        W 6504   9.897   1.291   9.260
 2441W        W 6505   5.902   4.102  11.425
 2442W        W 6506   8.014   5.648   1.860
 2443W        W 6507   7.464   8.189   2.695
 2444W        W 6508  10.302   7.904   2.657
 2445W        W 6509  10.138   6.745   0.965
 2446W        W 6510   5.730  10.290  10.669
 2447W        W 6511   5.659   0.730  11.700
 2448W        W 6512   4.216  10.333  10.837
 2449W        W 6513   3.705   6.955   2.414
 2450W        W 6514   6.882   9.660   3.510
 2451W        W 6515   3.255   3.814  11.504
 2452W        W 6516   1.203   5.655  11.357
 2453W        W 6517   2.117   3.160   0.779
 2454W        W 6518  10.490   7.009  10.412
 2455W        W 6519   4.015   2.266   9.890
 2456W        W 6520   5.906   2.653   9.537
 2457W        W 6521   3.578   6.573  11.325
 2458W        W 6522   4.736   3.205   9.393
 2459W        W 6523   3.832   2.371   2.585
 2460W        W 6524   6.378   6.723   3.647
 2461W        W 6525   0.093   6.484   2.644
 2462W        W 6526   8.634   6.469   3.434
 2463W        W 6527   4.569   7.983   9.474
 2464W        W 6528   3.663   1.362  11.842
 2465W        W 6529   5.703   7.988   8.721
 2466W        W 6530   0.825   5.024   1.257
 2467W        W 6531   0.976   3.293  10.917
 2468W        W 6532   6.547   4.376   1.396
 2469W        W 6533   7.000   2.027  10.952
 2470W        W 6534   7.608   6.681  10.350
 2471W        W 6535   4.102   9.635   9.249
 2472W        W 6536   5.006   7.751   1.605
 2473W        W 6537   1.132   8.935   3.543
 2474W        W 6538   4.097   3.098   1.056
 2475W        W 6539   1.317   1.445   3.277
 2476W        W 6540   3.826   9.871   9.600
 2477W        W 6541   3.295   1.352   1.676
 2478W        W 6542   8.463  10.247   0.277
 2479W        W 6543   3.304   8.965   2.851
 2480W        W 6544   8.033   8.196   2.000
 2481W        W 6545   0.745   9.011  10.355
 2482W        W 6546   7.263   2.849   3.440
 2483W        W 6547   9.234  10.309   0.560
 2484W        W 6548   5.964   0.352   1.917
 2485W        W 6549   7.159   4.189   1.583
 2486W        W 6550   6.147   9.100   3.214
 2487W        W 6551   8.661   3.625   8.993
 2488W        W 6552  10.484   5.307   0.385
 2489W        W 6553   8.969   2.489   1.488
 2490W        W 6554   6.472   1.929   8.708
 2491W        W 6555   6.198   7.804   3.149
 2492W        W 6556  10.003   9.213   0.855
 2493W        W 6557  10.456   7.999  10.250
 2494W        W 6558   7.974   7.309   0.801
 2495W        W 6559   3.326   9.961   8.853
 2496W        W 6560   5.974   9.121   9.538
 2497W        W 6561   8.830   0.411   3.025
 2498W        W 6562   4.341   7.010   8.405
 2499W        W 6563   1.148   8.523   2.288
 2500W        W 6564   8.634   7.028  11.778
 2501W        W 6565   5.244   8.697   1.163
 2502W        W 6566   3.714   3.862   3.107
 2503W        W 6567   6.045   1.222   1.712
 2504W        W 6568  10.389   5.715   3.217
 2505W        W 6569   3.290   0.233   2.133
 2506W        W 6570  10.413   5.760   0.700
 2507W        W 6571   9.388   2.632   3.386
 2508W        W 6572  10.074   3.040   0.368
 2509W        W 6573   1.684   7.045   3.198
 2510W        W 6574   3.633   6.750   0.700
 2511W        W 6575   8.157   7.084   9.701
 2512W        W 6576   4.206   7.036   2.339
 2513W        W 6577   5.607   8.949   9.194
 2514W        W 6578   9.310   3.306   1.408
 2515W        W 6579   8.841   7.118   2.211
 2516W        W 6580   3.530   7.519   0.028
 2517W        W 6581   2.782   6.456   1.362
 2518W        W 6582   3.077   3.142   0.911
 2519W        W 6583   8.596   3.305   0.620
 2520W        W 6584   7.436   1.395   9.181
 2521W        W 6585   0.493   9.419  10.563
 2522W        W 6586   7.354   6.745   1.520
 2523W        W 6587   5.337   3.903   4.313
 2524W        W 6588   1.254   9.449   1.746
 2525W        W 6589   8.034   3.796   9.809
 2526W        W 6590   8.159   7.068   9.153
 2527W        W 6591   1.250   0.489   9.484
 2528W        W 6592   5.587   3.180   1.013
 2529W        W 6593   1.696   2.199   0.949
 2530W        W 6594   8.514   0.237   3.448
 2531W        W 6595   2.850   8.359   1.234
 2532W        W 6596   5.419   9.792   8.616
 2533W        W 6597   0.775   6.113  10.373
 2534W        W 6598   6.667   0.153   3.339
 2535W        W 6599   2.292   6.266   1.282
 2536W        W 6600   8.498   2.198   3.316
 2537W        W 6601   2.266   0.459  10.739
 2538W        W 6602   3.116   2.799   2.797
 2539W        W 6603   0.355   0.176   2.011
 2540W        W 6604   7.511   7.688  10.063
 2541W        W 6605   7.052   8.359   9.065
 2542W        W 6606   7.246   9.294   3.459
 2543W        W 6607   2.385   0.800  10.383
 2544W        W 6608   4.696   8.377   1.921
 2545W        W 6609   5.540   8.128  11.759
 2546W        W 6610   0.189   3.614  11.509
 2547W        W 6611   8.891   9.115  11.097
 2548W        W 6612  10.392   6.509  10.521
 2549W        W 6613   0.224   2.839   8.818
 2550W        W 6614   0.049   1.660   9.903
 2551W        W 6615   1.423  10.044  11.224
 2552W        W 6616   4.469   5.173   1.538
 2553W        W 6617   6.139   2.546   2.172
 2554W        W 6618   3.252   0.901  11.927
 2555W        W 6619   2.145   6.621   9.860
 2556W        W 6620   8.073   4.116   1.811
 2557W        W 6621   7.995   8.199   2.542
 2558W        W 6622   7.039   8.569  10.518
 2559W        W 6623   7.608   2.299   1.708
 2560W        W 6624   9.313   4.041   2.748
 2561W        W 6625   9.981   4.231   0.957
 2562W        W 6626   7.450   9.456   0.436
 2563W        W 6627   9.062   0.777   0.807
 2564W        W 6628   3.081   5.619  10.349
 2565W        W 6629   6.441   5.412   8.643
 2566W        W 6630   5.678   3.023  11.947
 2567W        W 6631   4.275   0.800   1.413
 2568W        W 6632   2.763   9.277  11.284
 2569W        W 6633   3.616   2.724  11.261
 2570W        W 6634   7.187   9.369   0.927
 2571W        W 6635   5.700   1.871   9.983
 2572W        W 6636   3.673   2.131   0.543
 2573W        W 6637   0.010   5.196   9.068
 2574W        W 6638   4.655   9.830  11.268
 2575W        W 6639  10.116   4.975   1.982
 2576W        W 6640   7.454   9.270   1.761
 2577W        W 6641   4.288   7.596  10.803
 2578W        W 6642   3.175   4.589  11.904
 2579W        W 6643  10.217   4.965  10.512
 2580W        W 6644   5.606   5.521  11.226
 2581W        W 6645   0.492   4.649   2.878
 2582W        W 6646   8.123   3.889   0.286
 2583W        W 6647   2.426   8.452   2.470
 2584W        W 6648   1.263   4.207   9.347
 2585W        W 6649   7.969   0.779  11.378
 2586W        W 6650   3.382   0.895   1.921
 2587W        W 6651   5.655   5.005   0.705
 2588W        W 6652   1.970   1.618   1.577
 2589W        W 6653   4.054   5.762   9.188
 2590W        W 6654   6.565   8.444   1.267
 2591W        W 6655   3.675   6.693   8.844
 2592W        W 6656   1.804   1.061   0.170
 2593W        W 6657   5.098   7.362   3.007
 2594W        W 6658   6.161   8.655   2.924
 2595W        W 6659   1.383   5.880   0.258
 2596W        W 6660   3.060   6.531  11.357
 2597W        W 6661   0.881   9.295   8.990
 2598W        W 6662   3.120   9.963  10.262
 2599W        W 6663   2.515   7.204   1.918
 2600W        W 6664   0.396   7.750  10.125
 2601W        W 6665   7.273   3.658   0.757
 2602W        W 6666   2.935   1.724   1.452
 2603W        W 6667   1.954   3.076   3.223
 2604W        W 6668   3.730   1.875  10.751
 2605W        W 6669   9.346   2.864  10.380
 2606W        W 6670   0.843   1.378   1.448
 2607W        W 6671   1.290   3.476   2.004
 2608W        W 6672   3.081   8.837   2.422
 2609W        W 6673  10.283   9.857  10.313
 2610W        W 6674   3.787  10.427  11.698
 2611W        W 6675   1.406   5.214   9.180
 2612W        W 6676   1.316   8.295   0.059
 2613W        W 6677   6.081   4.801  10.146
 2614W        W 6678   1.313   2.324   3.568
 2615W        W 6679   3.437   5.033   3.607
 2616W        W 6680   3.977   5.721   0.174
 2617W        W 6681   6.693   3.668  10.528
 2618W        W 6682   8.458   1.864   9.902
 2619W        W 6683   2.712   6.708   2.753
 2620W        W 6684   4.238   9.870   0.719
 2621W        W 6685   8.207   6.514   1.297
 2622W        W 6686   8.912   0.032   9.525
 2623W        W 6687   5.082   9.425  10.266
 2624W        W 6688   6.516  10.312  11.103
 2625W        W 6689   7.226   7.277  11.801
 2626W        W 6690   6.590   1.246  11.020
 2627W        W 6691   2.027   1.844  11.219
 2628W        W 6692   9.573   5.521  10.779
 2629W        W 6693   0.503   4.656   2.353
 2630W        W 6694   9.416   4.722   1.558
 2631W        W 6695   8.489   4.293   9.000
 2632W        W 6696   8.297   8.769  10.436
 2633W        W 6697   6.730   8.457   9.642
 2634W        W 6698   6.483   8.080   9.414
 2635W        W 6699   2.258   3.399  11.976
 2636W        W 6700   6.431   7.919   9.920
 2637W        W 6701   0.690   5.389   2.859
 2638W        W 6702   2.785   0.751   8.585
 2639W        W 6703   8.620   0.491  10.796
 2640W        W 6704   7.504   6.218  11.512
 2641W        W 6705   1.971   0.845  10.928
 2642W        W 6706   6.090   9.960   3.295
 2643W        W 6707   8.887  10.389   2.189
 2644W        W 6708   6.417   5.509  11.654
 2645W        W 6709   7.057   4.422   9.407
 2646W        W 6710   8.619   5.903   0.463
 2647W        W 6711   5.806   9.919   0.888
 2648W        W 6712   2.092   3.881   2.636
 2649W        W 6713   7.384   2.268  11.222
 2650W        W 6714   5.652   7.812   1.857
 2651W        W 6715  10.263   0.840   8.616
 2652W        W 6716   1.402   8.471   8.657
 2653W        W 6717   9.838   3.855   0.650
 2654W        W 6718   0.869   2.221  11.729
 2655W        W 6719   9.716   0.268  11.751
 2656W        W 6720   2.148   0.860   3.299
 2657W        W 6721   4.832   6.878   1.889
 2658W        W 6722   0.263  10.373   0.311
 2659W        W 6723   1.627   0.753   9.974
 2660W        W 6724   9.240   2.719   0.206
 2661W        W 6725   8.874   0.669   2.112
 2662W        W 6726   4.406   6.537   8.169
 2663W        W 6727   4.014   2.893   9.054
 2664W        W 6728   8.550   3.366  10.789
 2665W        W 6729   9.960   3.518  10.540
 2666W        W 6730   8.915   4.573   9.155
 2667W        W 6731   0.498   9.053   1.659
 2668W        W 6732   5.154   0.406   0.210
 2669W        W 6733   8.254   8.111   8.623
 2670W        W 6734   4.418   1.686   3.612
 2671W        W 6735   7.667   0.341   9.363
 2672W        W 6736   8.903   4.714   3.095
 2673W        W 6737   3.816   5.366  11.864
 2674W        W 6738   2.841   2.104   1.786
 2675W        W 6739   7.540  10.473   9.012
 2676W        W 6740   2.535  10.159   9.374
 2677W        W 6741   7.814   5.304   0.758
 2678W        W 6742   6.556   7.725  11.840
 2679W        W 6743   3.084   4.307   9.274
 2680W        W 6744   4.781   7.343   0.376
 2681W        W 6745   7.923   8.041  11.799
 2682W        W 6746   3.799   3.313  10.550
 2683W        W 6747   2.180   5.717   9.058
 2684W        W 6748   0.015   6.103  11.912
 2685W        W 6749  10.190   0.320   2.558
 2686W        W 6750   3.217   9.099   9.948
 2687W        W 6751   9.441   4.734   1.032
 2688W        W 6752   5.997   1.249   2.231
 2689W        W 6753   8.709   6.687   8.647
 2690W        W 6754   2.851   2.873  10.803
 2691W        W 6755   5.082   8.110  11.960
 2692W        W 6756   9.316   2.886   0.667
 2693W        W 6757   1.384   4.177   1.447
 2694W        W 6758   7.368   9.504  10.244
 2695W        W 6759   4.079   0.591  10.369
 2696W        W 6760   4.232   1.907   8.909
 2697W        W 6761   8.981   5.601   2.938
 2698W        W 6762   4.506   2.841  10.585
 2699W        W 6763   2.831   4.603   1.992
 2700W        W 6764   7.653   8.492  11.138
 2701W        W 6765  10.260   2.357   1.956
 2702W        W 6766  10.257  10.400   0.341
 2703W        W 6767  10.163   2.675  11.500
 2704W        W 6768   7.820   2.272   9.007
 2705W        W 6769   8.092   0.911  11.915
 2706W        W 6770   4.086   5.154   2.808
 2707W        W 6771   3.306   4.655   8.452
 2708W        W 6772   8.478  10.230  10.438
 2709W        W 6773   8.149   5.695   9.790
 2710W        W 6774   3.248   3.961   3.448
 2711W        W 6775   9.505   6.235   1.241
 2712W        W 6776   5.003   1.259   9.715
 2713W        W 6777   3.011   8.262   3.104
 2714W        W 6778   0.421  10.001  11.372
 2715W        W 6779   0.706   4.816   9.279
 2716W        W 6780   1.835   4.763   2.981
 2717W        W 6781   8.393  10.189   3.590
 2718W        W 6782   2.451   8.223  11.274
 2719W        W 6783   7.188   0.002   1.754
 2720W        W 6784   2.877   1.856  10.991
 2721W        W 6785   1.169   5.095   0.891
 2722W        W 6786   6.386   5.283  10.801
 2723W        W 6787   5.650   6.519   2.211
 2724W        W 6788   4.544   1.477  10.434
 2725W        W 6789   2.484   1.240   2.676
 2726W        W 6790   4.145   7.407   9.935
 2727W        W 6791   5.447   1.302   8.930
 2728W        W 6792   3.723   6.005   2.204
 2729W        W 6793   6.143   0.809   1.998
 2730W        W 6794   0.271   6.347   9.747
 2731W        W 6795   6.262   8.499  11.459
 2732W        W 6796  10.337   8.971   1.176
 2733W        W 6797   4.123   2.591   3.553
 2734W        W 6798   7.655   1.172  10.089
 2735W        W 6799  10.190   2.631   0.683
 2736W        W 6800   3.659   6.513   1.181
 2737W        W 6801   6.233   6.931   2.826
 2738W        W 6802   9.055   1.314   0.735
 2739W        W 6803   9.104   7.950   2.045
 2740W        W 6804   2.758   8.988   1.657
 2741W        W 6805   2.643   1.479  11.803
 2742W        W 6806   0.300   9.445   2.003
 2743W        W 6807   1.310   6.845   0.431
 2744W        W 6808   4.786   2.138   3.594
 2745W        W 6809  10.230   3.058   1.210
 2746W        W 6810   5.504   3.793   9.968
 2747W        W 6811   7.809   4.205  10.040
 2748W        W 6812   4.875   1.678  11.475
 2749W        W 6813   6.465  10.343   0.404
 2750W        W 6814   2.533   1.871   0.979
 2751W        W 6815   7.031   7.882   8.860
 2752W        W 6816   0.296  10.215  10.941
 2753W        W 6817  10.449   6.107   9.346
 2754W        W 6818   3.800   7.937  11.866
 2755W        W 6819   1.210   0.888   0.825
 2756W        W 6820   5.249   1.332   3.457
 2757W        W 6821   2.283   5.242   1.393
 2758W        W 6822   2.728   4.995   1.354
 2759W        W 6823   0.780   9.582   9.400
 2760W        W 6824   3.348   4.422   4.269
 2761W        W 6825   4.044   9.308  10.959
 2762W        W 6826   3.039   7.123  10.873
 2763W        W 6827   0.766   2.019   3.690
 2764W        W 6828   9.616   5.130   9.555
 2765W        W 6829   8.604   3.792   0.403
 2766W        W 6830   0.406  10.487   9.283
 2767W        W 6831   4.538   5.704  10.052
 2768W        W 6832   3.142  10.455   8.715
 2769W        W 6833   7.114   8.813   3.237
 2770W        W 6834   7.913   2.787   9.484
 2771W        W 6835   9.326   9.078  11.710
 2772W        W 6836   5.597   0.904   9.729
 2773W        W 6837   8.265   4.178  11.779
 2774W        W 6838   8.819   5.564   9.146
 2775W        W 6839   5.053   3.437   4.217
 2776W        W 6840   4.382   4.306  11.326
 2777W        W 6841   9.502   5.932  11.805
 2778W        W 6842   2.775   4.413   9.772
 2779W        W 6843   2.183   6.051   3.274
 2780W        W 6844   5.152   1.078   1.409
 2781W        W 6845   7.763  10.448   9.870
 2782W        W 6846   4.684   2.183   8.858
 2783W        W 6847   0.411   0.003   9.808
 2784W        W 6848   8.511   0.793   2.799
 2785W        W 6849   6.556   7.423  11.427
 2786W        W 6850   4.377   8.774  11.649
 2787W        W 6851   3.779   9.961   0.940
 2788W        W 6852   8.409   2.637   2.029
 2789W        W 6853   9.575   8.656   1.611
 2790W        W 6854   2.082   9.403  10.508
 2791W        W 6855   0.056   4.501   2.594
 2792W        W 6856   8.426   4.663   3.259
 2793W        W 6857   8.498   9.544   8.558
 2794W        W 6858   2.661   7.849  10.851
 2795W        W 6859   4.427   2.003   1.012
 2796W        W 6860   6.046   7.678   2.683
 2797W        W 6861   1.694   6.347   9.867
 2798W        W 6862   7.948   0.325   1.103
 2799W        W 6863   1.831   0.473   1.206
 2800W        W 6864   8.050   1.442   9.867
 2801W        W 6865   7.450   2.653  10.026
 2802W        W 6866   8.913   3.959   2.445
 2803W        W 6867   3.151   0.221   3.220
 2804W        W 6868   9.971   5.656  11.067
 2805W        W 6869   2.883   5.687   3.448
 2806W        W 6870   8.789   4.226   9.991
 2807W        W 6871   9.915   7.070  11.131
 2808W        W 6872   8.388   5.820   2.653
 2809W        W 6873   8.347   3.510   2.347
 2810W        W 6874   4.595   2.761   9.594
 2811W        W 6875   4.539   6.167   9.829
 2812W        W 6876   0.419   9.771   0.761
 2813W        W 6877   0.512   4.641  11.046
 2814W        W 6878   1.746   4.605   1.470
 2815W        W 6879   5.279   8.434   9.892
 2816W        W 6880   5.495   4.636   1.734
 2817W        W 6881   0.925   4.470   9.000
 2818W        W 6882   2.739   8.539   8.867
 2819W        W 6883   0.980   0.989  10.715
 2820W        W 6884   0.340   7.471   9.688
 2821W        W 6885   4.774   4.603   3.009
 2822W        W 6886   5.095   5.914   1.827
 2823W        W 6887   8.427   4.247  10.338
 2824W        W 6888   6.976   9.403   1.959
 2825W        W 6889   2.260   6.488   3.515
 2826W        W 6890   5.252   1.395  11.181
 2827W        W 6891   7.412   4.191   0.507
 2828W        W 6892   0.278   8.808   2.644
 2829W        W 6893   2.460   0.261   1.021
 2830W        W 6894   7.875   1.356   2.583
 2831W        W 6895   8.202   6.001   2.203
 2832W        W 6896  10.216   8.875  10.253
 2833W        W 6897   1.393   8.828  10.907
 2834W        W 6898   4.264   1.254  10.969
 2835W        W 6899   1.874   8.449   1.185
 2836W        W 6900   3.922   8.813   9.523
 2837W        W 6901   5.239   2.357   3.682
 2838W        W 6902   0.817   9.037   1.149
 2839W        W 6903   7.402   1.829   1.840
 2840W        W 6904   7.630   9.544   8.748
 2841W        W 6905   5.945   0.420   8.624
 2842W        W 6906   8.022   3.829  11.467
 2843W        W 6907   1.316   4.460  10.937
 2844W        W 6908   0.412   4.983   0.679
 2845W        W 6909   8.915   5.789   0.069
 2846W        W 6910   6.961   1.362   8.960
 2847W        W 6911   7.805   9.859  11.148
 2848W        W 6912   6.856   8.510   0.409
 2849W        W 6913   5.156   0.831   9.968
 2850W        W 6914   5.596   5.027  10.332
 2851W        W 6915   3.636   8.590   9.931
 2852W        W 6916   8.782  10.378   1.681
 2853W        W 6917   2.569   3.558   0.338
 2854W        W 6918   8.449   1.471   9.549
 2855W        W 6919   5.033   5.691  10.905
 2856W        W 6920   8.594   9.088   1.023
 2857W        W 6921   3.355   2.650  11.690
 2858W        W 6922   0.125   7.521   2.533
 2859W        W 6923   5.698   2.160  10.414
 2860W        W 6924   5.859   6.055   9.019
 2861W        W 6925   9.472   6.633   9.722
 2862W        W 6926   1.149   4.715   9.934
 2863W        W 6927   9.385   2.259   2.486
 2864W        W 6928   4.685   4.617   8.901
 2865W        W 6929   4.203   2.756   2.672
 2866W        W 6930   3.110   5.322   1.403
 2867W        W 6931   0.905   6.997   2.248
 2868W        W 6932   8.403   0.255   0.259
 2869W        W 6933   1.739   1.250  10.735
 2870W        W 6934  10.428   8.109   0.533
 2871W        W 6935   7.200  10.013   9.735
 2872W        W 6936   3.558   2.861  10.519
 2873W        W 6937   4.105   4.731   4.169
 2874W        W 6938   3.934  10.327  10.347
 2875W        W 6939   0.444   9.974   9.317
 2876W        W 6940   6.092  10.438   2.178
 2877W        W 6941   6.519   8.606  10.601
 2878W        W 6942   2.451   0.570   8.979
 2879W        W 6943   5.612   5.995   1.964
 2880W        W 6944   7.588   4.033   1.938
 2881W        W 6945   9.470   8.565  11.822
 2882W        W 6946   1.897   0.326   9.828
 2883W        W 6947   8.870   7.516   1.850
 2884W        W 6948   7.512   4.179   3.338
 2885W        W 6949   3.237   7.897   9.082
 2886W        W 6950   3.710   8.709   0.405
 2887W        W 6951   1.363   2.324   8.685
 2888W        W 6952   1.219   2.426   0.939
 2889W        W 6953   3.751   9.082   9.916
 2890W        W 6954   0.360   3.245   0.301
 2891W        W 6955   4.369   2.622  11.723
 2892W        W 6956   0.260   7.392   9.190
 2893W        W 6957   8.516   7.520  10.611
 2894W        W 6958   5.256   6.175   2.270
 2895W        W 6959  10.405   0.464   0.683
 2896W        W 6960   1.357   1.212   9.969
 2897W        W 6961   7.014   5.687   8.229
 2898W        W 6962   4.206   8.275  11.703
 2899W        W 6963  10.376   5.406   2.177
 2900W        W 6964   4.495   6.540   9.004
 2901W        W 6965   4.227   4.893   9.113
 2902W        W 6966   1.383   8.474   1.308
 2903W        W 6967   3.448   5.368  11.520
 2904W        W 6968   3.240   3.322  10.450
 2905W        W 6969   3.648   4.029   9.916
 2906W        W 6970   1.790   9.876   1.698
 2907W        W 6971   4.013   2.094   9.385
 2908W        W 6972   9.345   7.514  10.114
 2909W        W 6973   7.515   0.339   3.575
 2910W        W 6974   2.038   9.599   2.372
 2911W        W 6975   0.616   5.382   0.973
 2912W        W 6976   0.391   3.329   8.950
 2913W        W 6977   6.594   5.984   8.295
 2914W        W 6978   2.447   1.679  10.786
 2915W        W 6979   9.225   7.535   0.795
 2916W        W 6980   8.985   1.123  11.922
 2917W        W 6981   6.050   4.629   9.573
 2918W        W 6982   3.109   5.681   9.408
 2919W        W 6983   6.740   6.415   0.431
 2920W        W 6984  10.486   0.782   9.077
 2921W        W 6985   5.521   1.822   3.010
 2922W        W 6986   3.776   5.477   9.815
 2923W        W 6987   6.970   9.396   9.500
 2924W        W 6988   5.637   7.506   8.511
 2925W        W 6989   8.426   9.354   1.440
 2926W        W 6990   2.123   8.886  10.568
 2927W        W 6991   1.695   9.396   1.473
 2928W        W 6992   9.893   5.889   3.234
 2929W        W 6993   1.104   9.411   3.336
 2930W        W 6994   6.474   4.214   3.728
 2931W        W 6995   6.513   8.928  11.006
 2932W        W 6996   6.781   3.618   0.851
 2933W        W 6997   1.748   3.567  11.941
 2934W        W 6998   1.503   8.049   1.016
 2935W        W 6999   0.771   5.690   1.978
 2936W        W 7000   1.694   1.748   2.896
 2937W        W 7001   7.229   6.728   9.400
 2938W        W 7002   2.163   5.690  11.386
 2939W        W 7003   4.774   9.959  10.785
 2940W        W 7004   7.807   5.094  10.362
 2941W        W 7005   9.760   5.032   0.431
 2942W        W 7006   3.413   8.833   9.527
 2943W        W 7007  10.406   8.867  11.720
 2944W        W 7008   6.414   5.591   9.932
 2945W        W 7009   1.184   4.050   2.814
 2946W        W 7010   9.527   9.130   1.838
 2947W        W 7011   1.855  10.245   9.244
 2948W        W 7012   8.361   4.654  11.943
 2949W        W 7013   4.065  10.461   0.136
 2950W        W 7014   2.569   1.621   1.808
 2951W        W 7015   0.347   9.102   9.853
 2952W        W 7016   8.504   1.213   0.081
 2953W        W 7017   5.063  10.386   0.912
 2954W        W 7018   7.441   0.359   9.827
 2955W        W 7019   6.055   9.551   2.988
 2956W        W 7020   8.788   4.523  11.008
 2957W        W 7021   8.502   4.709  10.051
 2958W        W 7022   0.979   2.608   0.064
 2959W        W 7023   6.689   2.408   1.317
 2960W        W 7024   3.838   2.204   0.055
 2961W        W 7025   7.020   4.637   2.443
 2962W        W 7026   6.011   6.148  10.872
 2963W        W 7027   2.418   3.240   3.398
 2964W        W 7028   6.655   7.278   9.124
 2965W        W 7029  10.260   8.774   0.703
 2966W        W 7030   4.142   0.021  11.311
 2967W        W 7031   2.649  10.430   0.678
 2968W        W 7032   7.936   6.332   8.613
 2969W        W 7033   2.709   9.051   2.715
 2970W        W 7034   0.728   2.210   9.532
 2971W        W 7035   5.985   3.763   1.812
 2972W        W 7036   2.140   2.881  10.410
 2973W        W 7037   7.640   6.046   7.844
 2974W        W 7038  10.462   3.865   3.237
 2975W        W 7039   1.356   1.202  11.042
 2976W        W 7040   2.625   8.392  11.753
 2977W        W 7041   2.908   4.196   2.296
 2978W        W 7042   1.366   7.200   2.262
 2979W        W 7043   9.433   4.272   9.050
 2980W        W 7044   9.031   7.105   8.630
 2981W        W 7045   9.952   5.731   0.948
 2982W        W 7046   7.574   6.787   2.394
 2983W        W 7047   7.091   5.249   7.959
 2984W        W 7048   4.089   3.647   9.357
 2985W        W 7049   2.152   7.949   3.004
 2986W        W 7050   8.565   0.192   8.846
 2987W        W 7051   0.276   8.432   2.171
 2988W        W 7052   9.603   8.078  11.430
 2989W        W 7053   2.827   9.555  10.349
 2990W        W 7054   3.853   2.670  11.770
 2991W        W 7055   8.935   7.363   2.659
 2992W        W 7056   2.356   2.534   0.190
 2993W        W 7057   8.354   8.826   3.266
 2994W        W 7058   1.800   3.293  10.552
 2995W        W 7059  10.376   0.590  10.985
 2996W        W 7060   1.137   0.690  10.008
 2997W        W 7061   9.431   1.307  11.355
 2998W        W 7062   9.517   6.103   9.477
 2999W        W 7063   6.128   4.243   1.708
 3000W        W 7064   5.394   7.093   8.221
 3001W        W 7065   5.593   9.347   2.851
 3002W        W 7066   0.925   8.170   1.688
 3003W        W 7067   4.630   7.528   0.820
 3004W        W 7068   4.134   3.808  10.387
 3005W        W 7069   0.276   0.728   0.441
 3006W        W 7070   3.679   7.479   1.396
 3007W        W 7071   3.940   5.261   8.095
 3008W        W 7072   1.261   8.564   1.795
 3009W        W 7073   4.729   2.260   1.723
 3010W        W 7074   6.525   2.209  10.980
 3011W        W 7075   8.967   8.224   2.466
 3012W        W 7076   9.045   3.779   3.358
 3013W        W 7077  10.415   3.780   9.322
 3014W        W 7078   6.606   8.187   0.775
 3015W        W 7079   8.846   9.463   0.299
 3016W        W 7080   5.663   8.434   9.016
 3017W        W 7081   2.233   3.753   9.291
 3018W        W 7082   9.130   6.528  10.079
 3019W        W 7083   3.348   3.156   9.581
 3020W        W 7084   5.220   1.780   9.352
 3021W        W 7085   3.996   8.027  10.773
 3022W        W 7086   6.924   4.226  10.873
 3023W        W 7087   0.785   8.054   3.181
 3024W        W 7088   8.350   9.733  10.424
 3025W        W 7089   5.008   7.090  10.444
 3026W        W 7090   0.970   0.921   0.011
 3027W        W 7091   0.890  10.459   9.080
 3028W        W 7092   7.809   4.029   8.971
 3029W        W 7093   3.716   5.471   3.962
 3030W        W 7094   6.522   2.644  11.404
 3031W        W 7095   8.847   7.714   3.567
 3032W        W 7096   6.929   1.776   0.214
 3033W        W 7097   1.246   3.960  10.915
 3034W        W 7098   4.038   2.986   8.522
 3035W        W 7099  10.370   9.723   1.947
 3036W        W 7100   3.057   2.618   0.085
 3037W        W 7101   0.369   1.064   3.625
 3038W        W 7102   0.058   2.663   2.820
 3039W        W 7103   7.586   2.262   2.231
 3040W        W 7104   1.271   8.105   3.041
 3041W        W 7105   9.452   7.325  11.111
 3042W        W 7106   1.900   4.423   3.371
 3043W        W 7107   3.083   1.892   2.436
 3044W        W 7108   4.400   2.012  11.407
 3045W        W 7109   4.525   1.267   8.911
 3046W        W 7110   2.215   0.686   0.905
 3047W        W 7111   9.966   5.847  10.077
 3048W        W 7112   9.392   3.808   9.352
 3049W        W 7113   3.450   4.302   3.121
 3050W        W 7114   6.684   1.158   3.131
 3051W        W 7115   9.350   1.964   9.417
 3052W        W 7116   5.650   0.328   0.476
 3053W        W 7117   8.381   7.353   0.353
 3054W        W 7118   3.640   4.629   3.903
 3055W        W 7119   0.820   6.168   1.785
 3056W        W 7120   0.203   5.562   8.734
 3057W        W 7121   9.024   6.227   0.384
 3058W        W 7122   8.739   3.519  10.244
 3059W        W 7123   8.573   6.934  11.251
 3060W        W 7124   9.862   6.614  11.932
 3061W        W 7125   3.808   4.650   2.915
 3062W        W 7126   4.965   9.032   0.359
 3063W        W 7127   6.712  10.025   9.887
 3064W        W 7128   6.204   5.879   8.671
 3065W        W 7129   8.960   7.441   1.346
 3066W        W 7130   5.557   7.947   0.805
 3067W        W 7131   5.308   3.102  10.410
 3068W        W 7132   5.951   1.385   0.715
 3069W        W 7133   5.784   3.641   0.945
 3070W        W 7134   1.380   6.348   0.453
 3071W        W 7135   3.637   3.107  11.570
 3072W        W 7136   0.563   6.408   2.921
 3073W        W 7137   4.612   6.993   0.933
 3074W        W 7138   0.819   6.895  11.853
 3075W        W 7139   9.440   3.798   0.948
 3076W        W 7140   7.574   1.143   2.950
 3077W        W 7141   7.028   2.142   1.020
 3078W        W 7142   8.899   4.028  10.992
 3079W        W 7143   3.610   7.616   8.808
 3080W        W 7144   3.272   0.746   9.274
 3081W        W 7145   3.687   4.160   1.075
 3082W        W 7146  10.338   7.453   1.706
 3083W        W 7147   6.055   9.941   1.317
 3084W        W 7148  10.451  10.334   9.069
 3085W        W 7149   8.614   8.088   0.587
 3086W        W 7150   7.583   7.569   1.008
 3087W        W 7151   5.190   7.436   8.785
 3088W        W 7152   2.207   1.439   2.190
 3089W        W 7153   6.445   4.059  10.776
 3090W        W 7154   9.947   8.422  10.408
 3091W        W 7155   1.632   4.298   2.757
 3092W        W 7156   2.317   8.144   1.897
 3093W        W 7157   8.369   3.133  11.802
 3094W        W 7158   6.727  10.239  11.946
 3095W        W 7159   9.917   3.518  10.037
 3096W        W 7160   5.256   4.525   1.273
 3097W        W 7161   2.950   1.775   3.495
 3098W        W 7162   0.881   4.225   8.535
 3099W        W 7163   7.184   8.013   3.525
 3100W        W 7164   6.834   8.322   3.191
 3101W        W 7165   5.551   6.372  10.724
 3102W        W 7166   2.102   8.983   3.198
 3103W        W 7167   6.067   8.514   1.375
 3104W        W 7168   1.858   4.535  11.981
 3105W        W 7169  10.005   0.404   9.700
 3106W        W 7170   6.138   8.161   2.795
 3107W        W 7171   3.913   5.930   4.102
 3108W        W 7172   5.037   5.128   9.615
 3109W        W 7173   7.002   9.007  10.785
 3110W        W 7174   8.905   1.710  10.112
 3111W        W 7175   7.323   0.975   1.576
 3112W        W 7176   9.866   4.844   9.107
 3113W        W 7177   2.726   2.857   3.167
 3114W        W 7178   7.912   2.454  10.039
 3115W        W 7179   4.705   1.079  10.706
 3116W        W 7180   7.125   5.700  10.503
 3117W        W 7181   2.724   3.268   2.483
 3118W        W 7182   6.012   5.226   9.853
 3119W        W 7183   1.314   6.714   2.514
 3120W        W 7184   7.832   5.147   3.217
 3121W        W 7185   9.791   1.747   9.486
 3122W        W 7186   6.530   3.142  11.213
 3123W        W 7187   7.038   0.986   3.476
 3124W        W 7188   5.976   0.028   0.238
 3125W        W 7189   7.416   8.527   0.382
 3126W        W 7190   8.442   4.828   8.950
 3127W        W 7191   8.589   5.744   1.298
 3128W        W 7192   8.860   6.484   2.494
 3129W        W 7193   7.461   2.691   2.495
 3130W        W 7194   3.723   5.120  11.140
 3131W        W 7195   3.007   9.386  10.811
 3132W        W 7196   4.039   0.443   9.225
 3133W        W 7197   3.997   1.864   2.334
 3134W        W 7198   8.122   0.542   1.970
 3135W        W 7199   8.139   5.560  10.292
 3136W        W 7200   3.797  10.371   3.224
 3137W        W 7201   5.144   9.020   9.450
 3138W        W 7202   0.184   3.094  11.534
 3139W        W 7203   8.828   5.077  10.894
 3140W        W 7204   0.894   9.987   0.673
 3141W        W 7205   5.437   5.127   3.162
 3142W        W 7206   7.889   0.775   9.205
 3143W        W 7207   9.541   1.147   9.849
 3144W        W 7208   2.284   4.353   9.090
 3145W        W 7209   9.298   8.051  11.865
 3146W        W 7210   5.130   9.958   3.061
 3147W        W 7211   5.578   5.355  10.738
 3148W        W 7212   2.254   6.552   2.550
 3149W        W 7213   5.693   2.141  11.487
 3150W        W 7214   5.914   1.400   9.110
 3151W        W 7215   7.686   5.169   8.445
 3152W        W 7216   9.909   0.189   3.357
 3153W        W 7217   0.467   4.242   8.820
 3154W        W 7218  10.392   2.318  10.363
 3155W        W 7219   4.824   6.924   3.005
 3156W        W 7220   9.426   1.020  10.923
 3157W        W 7221   9.909   9.406   2.024
 3158W        W 7222   3.664   2.632   8.728
 3159W        W 7223   7.882   6.825   8.779
 3160W        W 7224   4.661   5.263  11.295
 3161W        W 7225   1.882   7.550  11.652
 3162W        W 7226   4.612   7.312   3.275
 3163W        W 7227   6.238   6.416  11.879
 3164W        W 7228   8.511   5.567   2.204
 3165W        W 7229   0.803   0.322  11.317
 3166W        W 7230   5.178   2.306  11.508
 3167W        W 7231   5.016   8.467   3.509
 3168W        W 7232   2.646   0.823   9.947
 3169W        W 7233   8.760   7.735   2.351
 3170W        W 7234   1.055   1.926   9.891
 3171W        W 7235   8.411  10.355   9.199
 3172W        W 7236   6.135   3.780   2.688
 3173W        W 7237   9.817   9.991   2.687
 3174W        W 7238   7.379   9.870   2.842
 3175W        W 7239   6.893   5.198  10.738
 3176W        W 7240   9.456   3.676   3.074
 3177W        W 7241   4.183   7.260  10.421
 3178W        W 7242   8.535   7.843  10.231
 3179W        W 7243   9.377   1.082   3.157
 3180W        W 7244   1.379   2.771   9.960
 3181W        W 7245   2.175   3.972  10.811
 3182W        W 7246   2.205   5.442   0.343
 3183W        W 7247   4.747   2.745   1.482
 3184W        W 7248   6.195   5.572   9.479
 3185W        W 7249   6.919   0.229  11.777
 3186W        W 7250   0.521   6.227   8.487
 3187W        W 7251   1.847   3.411   9.323
 3188W        W 7252   5.114   6.112   9.586
 3189W        W 7253   6.401   5.109  11.303
 3190W        W 7254   2.332   5.553  10.910
 3191W        W 7255   8.690   5.528  10.589
 3192W        W 7256   0.812   7.444  11.031
 3193W        W 7257   4.531   1.748   0.555
 3194W        W 7258   1.941   2.743   1.552
 3195W        W 7259   0.716   5.200   3.321
 3196W        W 7260   8.591   7.564  11.940
 3197W        W 7261   9.716   1.230   3.550
 3198W        W 7262   2.426   9.104   0.280
 3199W        W 7263   6.073   6.518   9.029
 3200W        W 7264   4.704   2.442  11.389
 3201W        W 7265   2.336   9.156  10.956
 3202W        W 7266   9.083   0.243  10.963
 3203W        W 7267   1.044   1.257   0.521
 3204W        W 7268   7.198   6.178   8.087
 3205W        W 7269   0.527   0.284   3.233
 3206W        W 7270   9.130   8.398   1.511
 3207W        W 7271   6.960   5.926   3.589
 3208W        W 7272   8.320   7.092  10.223
 3209W        W 7273   1.427   3.533  11.111
 3210W        W 7274   3.718   3.589  11.439
 3211W        W 7275   8.087   1.853   9.546
 3212W        W 7276   1.237   2.370   2.272
 3213W        W 7277   5.232   2.397   1.625
 3214W        W 7278   1.300   1.986   2.632
 3215W        W 7279   8.921   9.789   9.737
 3216W        W 7280   9.900  10.431   2.428
 3217W        W 7281   3.424   9.895   0.521
 3218W        W 7282   4.533   5.557  10.880
 3219W        W 7283   3.813   4.368   0.588
 3220W        W 7284   5.313   2.851   0.709
 3221W        W 7285   7.934   7.894   8.978
 3222W        W 7286   0.187   6.457   0.237
 3223W        W 7287   5.223   6.704  10.951
 3224W        W 7288   3.467   5.490   4.409
 3225W        W 7289   7.815   4.390   0.994
 3226W        W 7290   4.759   5.562   3.469
 3227W        W 7291   9.825   3.639   2.220
 3228W        W 7292   7.998   1.298  11.372
 3229W        W 7293   2.179   5.242   2.492
 3230W        W 7294   5.784   0.348   0.963
 3231W        W 7295   0.237   9.091   3.065
 3232W        W 7296   0.913   8.249   9.355
 3233W        W 7297   3.836   8.293   2.849
 3234W        W 7298   2.741  10.475   2.700
 3235W        W 7299   8.653   5.001   1.730
 3236W        W 7300   3.588   3.068   0.949
 3237W        W 7301  10.022   0.794   2.696
 3238W        W 7302   6.127   4.344  10.497
 3239W        W 7303   8.469   4.148   3.259
 3240W        W 7304   0.050  10.354   8.539
 3241W        W 7305   7.360   3.506   9.478
 3242W        W 7306   9.281   8.090   1.129
 3243W        W 7307   5.570   5.234   8.969
 3244W        W 7308   4.178   8.524  10.709
 3245W        W 7309   1.956   0.243   0.770
 3246W        W 7310   0.997   0.782   2.687
 3247W        W 7311   2.698   0.236   8.676
 3248W        W 7312   8.417   9.045   9.777
 3249W        W 7313   9.918   7.559   0.276
 3250W        W 7314  10.294   9.353  11.727
 3251W        W 7315   0.261   4.715   9.030
 3252W        W 7316   3.777   9.441   1.141
 3253W        W 7317   4.702  10.340  11.110
 3254W        W 7318   2.676   6.009   1.063
 3255W        W 7319   2.426   0.374   0.520
 3256W        W 7320   9.377   0.894  10.392
 3257W        W 7321   5.963   9.530  11.477
 3258W        W 7322   0.730   1.470  10.777
 3259W        W 7323   6.893   7.214  10.445
 3260W        W 7324   6.153   7.499   9.823
 3261W        W 7325  10.058   1.770   0.800
 3262W        W 7326   6.241   3.933   9.247
 3263W        W 7327   8.517   6.684   9.853
 3264W        W 7328   2.164   0.549   2.337
 3265W        W 7329   4.139   8.458   3.295
 3266W        W 7330   4.156   5.658   3.705
 3267W        W 7331   1.347   3.288   9.273
 3268W        W 7332   8.892   3.121   2.764
 3269W        W 7333   9.195   2.280  11.307
 3270W        W 7334   8.956   5.428   1.494
 3271W        W 7335   6.210   4.474  11.029
 3272W        W 7336   0.438   3.252  10.806
 3273W        W 7337   5.624   6.114   3.839
 3274W        W 7338   1.711   8.942   2.753
 3275W        W 7339   8.039   5.519   2.890
 3276W        W 7340   5.661   1.205  11.446
 3277W        W 7341   2.897   5.505   2.468
 3278W        W 7342   0.508  10.248   2.431
 3279W        W 7343   1.906   8.406   9.105
 3280W        W 7344   3.110   6.152  10.984
 3281W        W 7345   3.253   5.329   9.763
 3282W        W 7346   7.829   3.656   1.616
 3283W        W 7347   6.774  10.106   0.801
 3284W        W 7348   1.174   0.504  10.522
 3285W        W 7349   0.231  10.090  10.069
 3286W        W 7350   0.967  10.378   2.736
 3287W        W 7351   3.314   8.927  10.800
 3288W        W 7352   8.119   8.888   8.993
 3289W        W 7353  10.353   8.364  11.758
 3290W        W 7354   2.158   2.757  11.375
 3291W        W 7355   6.393   0.881   1.243
 3292W        W 7356   0.734   9.478   1.409
 3293W        W 7357   6.625   8.204   8.792
 3294W        W 7358   7.511   8.685   9.765
 3295W        W 7359   6.239  10.116   0.014
 3296W        W 7360   9.549   1.974   1.014
 3297W        W 7361   0.909   6.504   1.390
 3298W        W 7362  10.372   2.419  10.857
 3299W        W 7363   6.962  10.372   2.227
 3300W        W 7364   1.885   2.371   1.912
 3301W        W 7365   1.966   4.602   9.931
 3302W        W 7366   5.171   9.441   3.171
 3303W        W 7367   5.476   0.889   3.578
 3304W        W 7368   8.935   3.225   9.862
 3305W        W 7369  10.191   4.905   0.217
 3306W        W 7370   3.852   7.790   2.765
 3307W        W 7371   3.844   8.236   0.455
 3308W        W 7372   8.681   9.943   9.318
 3309W        W 7373   4.601   6.887   1.430
 3310W        W 7374   3.794   5.937  10.515
 3311W        W 7375   9.284   4.430  11.022
 3312W        W 7376   8.336   7.561   9.871
 3313W        W 7377   9.878   4.618   1.280
 3314W        W 7378   9.457   7.631   1.252
 3315W        W 7379   3.171   4.016   0.864
 3316W        W 7380   2.897   4.392   0.533
 3317W        W 7381   0.489   2.837  11.115
 3318W        W 7382   8.810   2.579  11.577
 3319W        W 7383   8.162   6.016   0.200
 3320W        W 7384   3.409   0.273  11.692
 3321W        W 7385   6.455   7.955   1.260
 3322W        W 7386   0.791   3.510   1.556
 3323W        W 7387   9.504   6.650  11.167
 3324W        W 7388   6.487   5.703   0.628
 3325W        W 7389   7.461   9.816   0.042
 3326W        W 7390   4.293   0.858   2.071
 3327W        W 7391   3.680   2.295  11.027
 3328W        W 7392   7.802   4.815   0.638
 3329W        W 7393  10.397   1.362   0.800
 3330W        W 7394   4.614   3.201   1.291
 3331W        W 7395   8.014   0.857   8.689
 3332W        W 7396   1.984   1.764   3.471
 3333W        W 7397   5.939   4.050  10.915
 3334W        W 7398   4.066   8.428   8.729
 3335W        W 7399   8.779   4.287  11.889
 3336W        W 7400   6.023   5.105   8.778
 3337W        W 7401   1.547   9.422   2.569
 3338W        W 7402   2.227   8.883   2.703
 3339W        W 7403   8.069   8.369  10.215
 3340W        W 7404   1.054   0.256   3.123
 3341W        W 7405   7.298   4.001   9.982
 3342W        W 7406   1.696   2.142   3.234
 3343W        W 7407   0.917   5.288   9.288
 3344W        W 7408   8.159   5.034   1.578
 3345W        W 7409   2.574   9.900   3.280
 3346W        W 7410   5.457   4.824  11.829
 3347W        W 7411  10.298   9.785   3.348
 3348W        W 7412  10.479   6.117   1.506
 3349W        W 7413   4.210   7.499   2.554
 3350W        W 7414   6.619   9.753   2.126
 3351W        W 7415  10.406   1.428  11.893
 3352W        W 7416   8.952   7.014   1.678
 3353W        W 7417   0.221   9.435   1.480
 3354W        W 7418   7.872   3.609   2.136
 3355W        W 7419   2.967   5.124  11.992
 3356W        W 7420   5.546   6.551   8.890
 3357W        W 7421   6.050   2.247   8.769
 3358W        W 7422   3.849   7.159   8.628
 3359W        W 7423   3.824   8.902  10.745
 3360W        W 7424   8.128   9.010   0.862
 3361W        W 7425   5.214   2.668  10.103
 3362W        W 7426   0.986   9.485  10.566
 3363W        W 7427   3.146   1.365  11.793
 3364W        W 7428   7.498   5.572   8.114
 3365W        W 7429   6.730  10.459  10.153
 3366W        W 7430   6.706   5.022   2.291
 3367W        W 7431   0.313   0.274   2.499
 3368W        W 7432   6.889   9.414  11.057
 3369W        W 7433   5.994   8.959   2.219
 3370W        W 7434  10.031   4.361   9.215
 3371W        W 7435   9.181   6.416   2.901
 3372W        W 7436   7.123   1.919  10.449
 3373W        W 7437   5.945   5.130  11.029
 3374W        W 7438   2.679   5.521   1.218
 3375W        W 7439   6.919   2.523  11.064
 3376W        W 7440   9.512   1.130   1.728
 3377W        W 7441   1.777   0.343  10.863
 3378W        W 7442   4.958  10.073  11.593
 3379W        W 7443   6.485   3.098   9.829
 3380W        W 7444   1.188   3.961   0.576
 3381W        W 7445   0.467   6.259   1.178
 3382W        W 7446   5.144   5.733   0.742
 3383W        W 7447   2.580   8.648  10.509
 3384W        W 7448   9.516   9.590   2.956
 3385W        W 7449   1.318   7.039  11.947
 3386W        W 7450   2.249   8.148   8.788
 3387W        W 7451   6.450   8.846   1.966
 3388W        W 7452   9.356   8.665   0.559
 3389W        W 7453  10.314   5.050   2.883
 3390W        W 7454   4.618   7.805   3.213
 3391W        W 7455   7.558   8.072  11.435
 3392W        W 7456   4.720   7.046  11.962
 3393W        W 7457   3.348   2.160   0.129
 3394W        W 7458   4.672   9.418   2.452
 3395W        W 7459   4.981   9.068   0.904
 3396W        W 7460   1.107  10.469   1.838
 3397W        W 7461   6.310   9.305  11.792
 3398W        W 7462   4.580   0.806   8.139
 3399W        W 7463   8.104   6.725  11.038
 3400W        W 7464  10.388   2.358   3.482
 3401W        W 7465   8.743   8.106   8.798
 3402W        W 7466   4.666   3.631  10.626
 3403W        W 7467   7.224   4.733   9.004
 3404W        W 7468   4.135   8.148   1.138
 3405W        W 7469   3.524   5.601   1.467
 3406W        W 7470   8.487   2.167   2.783
 3407W        W 7471  10.453   1.857   3.370
 3408W        W 7472   6.521   6.132  10.424
 3409W        W 7473   9.047   2.238   3.345
 3410W        W 7474   4.245   4.910   0.481
 3411W        W 7475   5.064   7.576  11.520
 3412W        W 7476   8.891   0.635  11.223
 3413W        W 7477   5.116   0.497   3.545
 3414W        W 7478   2.037   8.869   9.318
 3415W        W 7479   5.583   1.416   2.531
 3416W        W 7480   5.048   4.302   1.680
 3417W        W 7481   7.056  10.132   3.632
 3418W        W 7482   9.401   4.535  11.644
 3419W        W 7483   4.605   1.510   1.019
 3420W        W 7484   6.594  10.366  10.618
 3421W        W 7485   6.497   3.527   9.500
 3422W        W 7486   6.098   5.103   0.412
 3423W        W 7487   2.870   1.256   3.518
 3424W        W 7488   4.463   8.596  10.292
 3425W        W 7489   3.430   1.903   3.369
 3426W        W 7490   5.729   5.563   3.163
 3427W        W 7491   7.037   7.359  11.168
 3428W        W 7492   7.397   3.393   0.290
 3429W        W 7493   3.673   5.977   1.137
 3430W        W 7494   6.299   6.398   8.583
 3431W        W 7495   5.382   1.727   2.157
 3432W        W 7496   4.738   2.177   2.242
 3433W        W 7497   1.059   7.875   0.770
 3434W        W 7498   7.204   8.392   2.253
 3435W        W 7499   5.892   5.634   1.711
 3436W        W 7500   7.981   0.958   3.277
 3437W        W 7501   5.434   4.315   8.964
 3438W        W 7502   7.734   6.434   1.415
 3439W        W 7503   6.055   5.995   3.264
 3440W        W 7504  10.186   3.181  11.451
 3441W        W 7505   9.883   7.054   1.338
 3442W        W 7506   8.029   6.686  10.024
 3443W        W 7507   9.825   1.883  11.418
 3444W        W 7508   6.418   5.153   0.006
 3445W        W 7509   9.419   5.428  11.768
 3446W        W 7510   4.062   0.424   2.796
 3447W        W 7511  10.304   4.420   0.199
 3448W        W 7512   1.804   2.166   9.239
 3449W        W 7513   0.263   0.414  11.711
 3450W        W 7514   1.306   1.385   1.008
 3451W        W 7515  10.342   5.209  10.920
 3452W        W 7516   4.377   2.587   1.131
 3453W        W 7517   1.754   8.415  10.015
 3454W        W 7518   4.793   4.516   1.004
 3455W        W 7519   1.256   6.761  11.535
 3456W        W 7520   3.327   7.386   3.189
 3457W        W 7521   1.251   1.403  10.548
 3458W        W 7522   1.412  10.382  10.811
 3459W        W 7523   0.422   3.764   0.395
 3460W        W 7524   3.780   8.019   8.501
 3461W        W 7525   2.528   1.225  11.387
 3462W        W 7526   5.110   4.602   2.102
 3463W        W 7527   2.855   9.365   0.254
 3464W        W 7528   3.917   1.876  11.237
 3465W        W 7529   9.306   4.726   8.782
 3466W        W 7530   2.880   8.431   9.367
 3467W        W 7531  10.275   5.192   1.240
 3468W        W 7532   6.081   0.932  11.449
 3469W        W 7533  10.365   7.729  10.860
 3470W        W 7534   3.222   0.353  10.268
 3471W        W 7535   4.727   0.466   0.514
 3472W        W 7536   6.913   5.709  10.032
 3473W        W 7537   7.204   9.031  11.697
 3474W        W 7538   6.513   7.790   1.750
 3475W        W 7539   1.601   9.419   9.643
 3476W        W 7540   4.286   6.121   2.442
 3477W        W 7541   8.474   6.803   2.464
 3478W        W 7542   5.194   0.342   0.715
 3479W        W 7543   8.487   0.444   9.931
 3480W        W 7544   1.431   7.246  11.443
 3481W        W 7545   9.964   6.992   9.066
 3482W        W 7546   7.132   7.381   8.639
 3483W        W 7547   4.126   9.313   8.818
 3484W        W 7548   2.609   6.679   1.829
 3485W        W 7549   6.195   2.315  11.779
 3486W        W 7550   5.015   3.342   1.794
 3487W        W 7551   9.327   6.630   0.493
 3488W        W 7552   8.876   2.826   1.914
 3489W        W 7553  10.273   7.417   9.003
 3490W        W 7554   4.905   6.343   8.233
 3491W        W 7555   9.811   5.762   2.739
 3492W        W 7556   7.940   1.451   3.126
 3493W        W 7557   5.505   6.099   8.640
 3494W        W 7558   0.272   8.130   9.808
 3495W        W 7559   1.011   2.706   1.915
 3496W        W 7560   8.396   8.544   1.819
 3497W        W 7561   6.820   6.434   8.440
 3498W        W 7562   1.055   2.619   1.404
 3499W        W 7563   7.422   0.010  11.387
 3500W        W 7564   9.554   2.033  10.857
 3501W        W 7565   8.370   5.213   9.973
 3502W        W 7566   2.074   7.357  10.552
 3503W        W 7567   0.264   2.753  10.655
 3504W        W 7568   5.738   3.873   0.092
 3505W        W 7569   2.820   7.868   0.452
 3506W        W 7570   7.429   0.511   8.955
 3507W        W 7571   3.212   1.501   3.132
 3508W        W 7572   2.401   0.622  11.815
 3509W        W 7573   4.677   6.369  10.280
 3510W        W 7574   2.115  10.373   1.847
 3511W        W 7575   3.345   5.060   8.773
 3512W        W 7576   9.133   8.679   2.831
 3513W        W 7577   8.450   7.430   9.401
 3514W        W 7578   4.255   0.799   8.937
 3515W        W 7579  10.455   9.794   9.322
 3516W        W 7580   1.377   8.914   9.939
 3517W        W 7581   7.408   3.557   1.904
 3518W        W 7582   1.652   5.722   9.224
 3519W        W 7583   5.639   2.212   0.923
 3520W        W 7584   6.838   9.122   0.607
 3521W        W 7585   6.051   7.499   0.788
 3522W        W 7586   4.193   2.224   0.444
 3523W        W 7587   5.150   5.153  10.563
 3524W        W 7588   9.657  10.391   1.434
 3525W        W 7589   4.071   1.228   9.136
 3526W        W 7590   0.439   1.933   9.009
 3527W        W 7591   3.085   7.432   8.832
 3528W        W 7592   1.422   7.590   1.870
 3529W        W 7593   6.421   4.072   8.059
 3530W        W 7594   7.653   5.926   1.385
 3531W        W 7595   6.888   2.187   0.524
 3532W        W 7596   8.423   4.603   1.476
 3533W        W 7597   9.011   3.639   0.677
 3534W        W 7598   3.286   6.983  11.293
 3535W        W 7599   7.402   7.052  11.336
 3536W        W 7600   5.540   1.248   2.041
 3537W        W 7601  10.400   8.748   2.274
 3538W        W 7602  10.247   1.512  10.707
 3539W        W 7603   0.346   8.838   1.206
 3540W        W 7604   2.924   1.132   1.969
 3541W        W 7605   2.645   3.597   1.634
 3542W        W 7606   3.143   5.777   1.134
 3543W        W 7607   8.443   8.401   0.226
 3544W        W 7608   0.347   0.516  11.181
 3545W        W 7609   9.844   3.704   2.734
 3546W        W 7610   2.360   8.640  10.978
 3547W        W 7611   0.336   6.742  11.696
 3548W        W 7612  10.388   7.037   1.400
 3549W        W 7613   4.122   6.178   3.679
 3550W        W 7614   3.893  10.425   2.710
 3551W        W 7615  10.033  10.466  11.508
 3552W        W 7616   6.050   9.112   2.700
 3553W        W 7617   0.021   9.909   0.402
 3554W        W 7618   8.566   1.886  11.210
 3555W        W 7619   9.108   6.492   0.950
 3556W        W 7620  10.455   5.668  10.117
 3557W        W 7621   4.529   6.432   0.696
 3558W        W 7622   8.139   4.876  11.499
 3559W        W 7623   9.548   5.024  11.473
 3560W        W 7624   9.470   3.570   0.458
 3561W        W 7625   7.476   6.009   3.449
 3562W        W 7626  10.399   1.196   9.379
 3563W        W 7627  10.477   4.779  11.789
 3564W        W 7628   5.277   9.471   3.676
 3565W        W 7629   8.357   9.893   3.170
 3566W        W 7630   5.051   9.521   9.774
 3567W        W 7631   4.697   8.422   2.521
 3568W        W 7632   5.848   4.029   9.597
 3569W        W 7633   6.505   6.224   3.520
 3570W        W 7634   8.642   8.599   2.727
 3571W        W 7635   1.690   6.520  11.559
 3572W        W 7636   5.479   7.830   1.349
 3573W        W 7637   8.882  10.334   3.460
 3574W        W 7638   0.859   3.187   1.963
 3575W        W 7639   2.875  10.297   3.158
 3576W        W 7640  10.296   9.128   2.808
 3577W        W 7641   4.246   3.173   0.363
 3578W        W 7642   5.443   9.890  11.528
 3579W        W 7643   9.769   0.389   8.697
 3580W        W 7644   6.883   0.097   0.271
 3581W        W 7645   3.705   4.663   3.399
 3582W        W 7646   8.573   6.900   9.390
 3583W        W 7647   7.532   6.112   8.850
 3584W        W 7648   8.842   0.066   0.397
 3585W        W 7649   4.430   5.948   3.318
 3586W        W 7650   2.073   5.208  11.203
 3587W        W 7651   7.667   4.111   1.435
 3588W        W 7652   1.603   1.292   1.445
 3589W        W 7653   7.679   8.528   2.353
 3590W        W 7654   6.879   5.108   8.852
 3591W        W 7655   1.788   6.032   1.262
 3592W        W 7656   0.981   2.835  11.116
 3593W        W 7657   5.907   5.144   2.888
 3594W        W 7658   5.467  10.352   8.882
 3595W        W 7659   2.165   3.353  10.195
 3596W        W 7660   9.745   0.355   2.905
 3597W        W 7661   6.167   8.485   2.386
 3598W        W 7662   2.211   1.758   3.016
 3599W        W 7663   6.023   7.953   9.576
 3600W        W 7664   7.667   3.137   2.276
 3601W        W 7665   7.372   9.810   3.374
 3602W        W 7666   4.488   3.614   0.526
 3603W        W 7667   3.846   6.686  10.929
 3604W        W 7668   6.932   1.281   2.701
 3605W        W 7669   1.464   8.312  10.810
 3606W        W 7670   8.272   9.890  11.395
 3607W        W 7671  10.415   0.270  11.375
 3608W        W 7672   9.342   9.159   9.070
 3609W        W 7673   6.445   2.599   9.549
 3610W        W 7674   3.618   1.256   8.916
 3611W        W 7675   5.966   9.029   0.676
 3612W        W 7676   9.339   9.887  11.295
 3613W        W 7677   4.162   6.709   3.760
 3614W        W 7678   4.594   9.079   8.737
 3615W        W 7679   0.094   1.848   2.558
 3616W        W 7680   7.173   9.727   8.865
 3617W        W 7681   6.682   4.474  11.256
 3618W        W 7682   0.934   6.566  10.553
 3619W        W 7683   9.003   4.273  11.425
 3620W        W 7684   6.529   7.689   0.836
 3621W        W 7685   9.759   2.652   2.506
 3622W        W 7686   8.082  10.431   2.792
 3623W        W 7687  10.086   0.071   8.428
 3624W        W 7688   6.418   9.274   2.292
 3625W        W 7689   4.124   4.280   8.550
 3626W        W 7690   1.112   6.460   2.098
 3627W        W 7691   1.977   8.962   1.368
 3628W        W 7692   4.246   7.000   8.908
 3629W        W 7693   2.120   0.777   1.875
 3630W        W 7694   9.943   0.817   9.011
 3631W        W 7695   6.973   4.986   3.404
 3632W        W 7696   5.246   5.295   0.962
 3633W        W 7697   8.798   9.928  11.276
 3634W        W 7698   8.609   5.682  10.041
 3635W        W 7699   4.711   0.829   9.172
 3636W        W 7700   4.282   9.489   0.375
 3637W        W 7701   0.355   9.446   9.103
 3638W        W 7702   5.660   8.284   1.695
 3639W        W 7703   7.047   4.528   2.952
 3640W        W 7704   4.709   8.094   8.992
 3641W        W 7705   2.129   5.552   1.813
 3642W        W 7706  10.286   3.596   2.472
 3643W        W 7707   5.573   2.251  10.978
 3644W        W 7708   7.447   5.636   8.633
 3645W        W 7709   5.135   3.522   2.284
 3646W        W 7710   0.692   9.434  11.988
 3647W        W 7711   0.884   6.004   8.766
 3648W        W 7712   7.337   8.905   2.414
 3649W        W 7713   3.736   7.947   0.891
 3650W        W 7714   1.773   3.387   2.153
 3651W        W 7715   0.816   0.757   0.499
 3652W        W 7716   6.934   3.456   1.293
 3653W        W 7717   3.849   3.201   0.015
 3654W        W 7718   8.072   7.879   9.476
 3655W        W 7719   4.320   0.152  10.437
 3656W        W 7720   0.968   4.691  11.234
 3657W        W 7721   5.326   6.604   8.033
 3658W        W 7722   3.718   4.832   0.416
 3659W        W 7723   2.865   5.956   1.555
 3660W        W 7724   7.191   8.081   0.294
 3661W        W 7725   3.171   1.370   0.687
 3662W        W 7726   5.025   6.658  11.829
 3663W        W 7727   8.037   1.236   1.403
 3664W        W 7728   7.064   3.604   2.765
 3665W        W 7729   1.176   9.848  10.245
 3666W        W 7730   5.087   0.872   0.469
 3667W        W 7731  10.455   6.649  10.054
 3668W        W 7732   6.068   6.000   0.824
 3669W        W 7733   7.115   0.498   1.551
 3670W        W 7734   4.289  10.460   3.111
 3671W        W 7735   4.030   1.775   0.708
 3672W        W 7736   0.466   9.515  11.500
 3673W        W 7737   6.027   3.641   8.893
 3674W        W 7738   0.511   2.791   1.951
 3675W        W 7739   8.896   7.125  10.705
 3676W        W 7740   9.078   2.162   1.081
 3677W        W 7741   6.853   8.037   2.037
 3678W        W 7742   5.740   7.582  10.940
 3679W        W 7743   0.759   0.528  10.851
 3680W        W 7744   5.532   6.920  11.476
 3681W        W 7745   1.966   9.494   3.314
 3682W        W 7746   5.007   8.813   1.903
 3683W        W 7747   2.269   3.325   1.340
 3684W        W 7748   0.722   0.358   2.763
 3685W        W 7749   1.224   6.951   3.515
 3686W        W 7750   5.210   4.091   3.839
 3687W        W 7751   6.284   3.280   1.777
 3688W        W 7752   8.830   7.615   0.466
 3689W        W 7753   5.869   3.040   3.175
 3690W        W 7754   3.088   9.894   1.389
 3691W        W 7755  10.457   8.405   9.504
 3692W        W 7756   7.490   8.155   8.871
 3693W        W 7757   5.949   4.931  11.919
 3694W        W 7758   1.929   3.423   2.813
 3695W        W 7759   0.894   8.504   2.901
 3696W        W 7760   0.071   7.698  11.692
 3697W        W 7761   4.083   3.379   8.907
 3698W        W 7762   8.380   4.577   9.431
 3699W        W 7763   4.533   2.130   9.361
 3700W        W 7764   2.624   4.289  11.024
 3701W        W 7765   2.854   6.664  10.013
 3702W        W 7766   4.977   2.811   9.106
 3703W        W 7767   8.819   4.809   3.586
 3704W        W 7768   3.281  10.162   0.974
 3705W        W 7769   1.891   2.840   0.373
 3706W        W 7770   7.401  10.165  10.998
 3707W        W 7771  10.120   7.819   0.882
 3708W        W 7772   1.480   4.140  11.366
 3709W        W 7773   6.844   5.531   2.390
 3710W        W 7774   9.466   6.329   0.116
 3711W        W 7775   2.335   1.331   3.437
 3712W        W 7776   2.231   2.205  10.015
 3713W        W 7777   8.561   4.551  11.476
 3714W        W 7778   8.500   8.107   9.267
 3715W        W 7779   4.985   6.193   8.722
 3716W        W 7780   5.183  10.044   2.486
 3717W        W 7781   1.120   4.152   3.629
 3718W        W 7782   7.523   1.650   2.837
 3719W        W 7783   7.430   4.770   2.699
 3720W        W 7784   0.690   0.870   9.863
 3721W        W 7785   5.078   2.446  11.027
 3722W        W 7786   7.579   2.186   0.228
 3723W        W 7787   1.377   2.412   0.433
 3724W        W 7788   1.230   8.469   9.777
 3725W        W 7789   8.180   0.956  10.021
 3726W        W 7790   5.965   8.654  10.470
 3727W        W 7791   8.900   8.486   0.439
 3728W        W 7792   3.134   2.253   3.583
 3729W        W 7793   0.935   6.046  11.879
 3730W        W 7794  10.128   7.943  11.570
 3731W        W 7795   5.629   3.912   8.644
 3732W        W 7796   6.958   7.522   2.691
 3733W        W 7797   6.852   5.136  11.746
 3734W        W 7798   9.825   6.463   0.444
 3735W        W 7799   0.999   2.601  10.243
 3736W        W 7800   3.619   0.306   3.004
 3737W        W 7801   8.634   9.725   1.150
 3738W        W 7802   6.141   5.970   3.779
 3739W        W 7803   6.690   7.579   2.225
 3740W        W 7804   5.303   4.067   9.449
 3741W        W 7805   9.486   2.268   0.295
 3742W        W 7806   0.520   7.676   0.962
 3743W        W 7807   7.037   1.789   2.749
 3744W        W 7808   8.216   0.127  10.686
 3745W        W 7809   3.752   1.373  10.930
 3746W        W 7810   7.806   3.586   0.034
 3747W        W 7811   4.147   0.843   3.119
 3748W        W 7812   3.602   5.532   9.337
 3749W        W 7813   2.691   6.616   9.016
 3750W        W 7814   8.913   2.996   1.412
 3751W        W 7815   5.502   2.634  10.539
 3752W        W 7816   5.191   3.057   0.225
 3753W        W 7817   4.256   1.651   9.350
 3754W        W 7818   4.313   5.124  10.500
 3755W        W 7819   1.324   7.667   3.318
 3756W        W 7820  10.205   2.979   3.087
 3757W        W 7821   5.745   7.410   9.036
 3758W        W 7822   4.816   8.012   2.803
 3759W        W 7823   3.727   4.192   9.052
 3760W        W 7824   4.792   2.871  11.909
 3761W        W 7825   4.679   5.087   2.025
 3762W        W 7826   1.373   5.325   8.653
 3763W        W 7827   3.829   3.230  11.080
 3764W        W 7828   5.581   4.137   7.998
 3765W        W 7829   1.467   3.092  10.873
 3766W        W 7830   0.033   4.224   9.088
 3767W        W 7831   2.410   8.883   9.689
 3768W        W 7832   9.938   1.335   1.019
 3769W        W 7833   3.154   1.163  10.594
 3770W        W 7834   6.771   0.452   1.172
 3771W        W 7835   7.881   7.445   0.303
 3772W        W 7836   7.948   1.889  10.553
 3773W        W 7837   1.517   7.736  11.356
 3774W        W 7838   0.017  10.242   3.171
 3775W        W 7839   4.176   1.367   2.738
 3776W        W 7840   0.965   4.945   1.726
 3777W        W 7841   5.554   5.676   0.161
 3778W        W 7842   2.772   7.455   1.269
 3779W        W 7843  10.270   1.819  10.302
 3780W        W 7844   1.531   4.481   9.694
 3781W        W 7845   8.638   8.290   1.447
 3782W        W 7846   7.819   0.449  10.573
 3783W        W 7847   5.160   3.619  10.357
 3784W        W 7848   4.983   5.478   9.967
 3785W        W 7849   1.587   5.632   0.977
 3786W        W 7850   1.948   2.893   2.053
 3787W        W 7851  10.221  10.062   2.294
 3788W        W 7852   1.800   4.093   9.915
 3789W        W 7853   6.110   5.514   3.525
 3790W        W 7854   5.549   6.969   1.443
 3791W        W 7855   7.651   4.998   1.680
 3792W        W 7856   5.692   5.603  10.304
 3793W        W 7857   1.917   4.306   2.320
 3794W        W 7858   7.701   3.770   0.511
 3795W        W 7859   3.015   9.054  10.415
 3796W        W 7860   0.051   4.623  10.821
 3797W        W 7861   3.539   9.964   2.291
 3798W        W 7862   3.286   0.450   1.674
 3799W        W 7863   9.789   7.422   8.795
 3800W        W 7864   2.493   4.788   8.898
 3801W        W 7865   0.211   1.346  10.882
 3802W        W 7866   6.931   5.432   0.535
 3803W        W 7867   0.884   9.934   1.183
 3804W        W 7868   6.407   8.854   0.453
 3805W        W 7869   7.167   7.602   9.680
 3806W        W 7870   7.458   3.229  11.304
 3807W        W 7871   9.890   1.823   1.864
 3808W        W 7872   3.086   7.953  11.100
 3809W        W 7873   0.480   7.348   2.844
 3810W        W 7874   4.496   6.433   1.208
 3811W        W 7875   4.994   3.029   9.821
 3812W        W 7876   0.894   3.923   1.246
 3813W        W 7877   2.011   9.552  10.985
 3814W        W 7878   1.153   2.233   1.788
 3815W        W 7879   7.910   2.404  10.552
 3816W        W 7880   5.722   1.602  11.759
 3817W        W 7881   5.529   1.284   3.036
 3818W        W 7882  10.242   7.660   2.191
 3819W        W 7883   9.393   5.441   2.158
 3820W        W 7884   0.873   4.134   0.198
 3821W        W 7885   0.363   7.229  10.142
 3822W        W 7886   4.718   5.055  10.822
 3823W        W 7887  10.347   3.432   9.697
 3824W        W 7888   9.378   2.660   2.172
 3825W        W 7889   4.960   6.458   2.861
 3826W        W 7890   7.439   6.620   8.948
 3827W        W 7891   8.951   5.597   9.645
 3828W        W 7892   7.336   5.215  10.501
 3829W        W 7893   8.375   4.242  10.862
 3830W        W 7894   8.190   1.816  11.577
 3831W        W 7895  10.469   7.086  11.951
 3832W        W 7896   3.254   7.219   2.315
 3833W        W 7897   6.205   0.456   3.405
 3834W        W 7898   9.396   3.384  10.497
 3835W        W 7899   0.785   0.276   9.479
 3836W        W 7900   8.305   9.897   8.953
 3837W        W 7901   5.899   0.405   2.831
 3838W        W 7902   0.357   0.199  10.775
 3839W        W 7903   9.412   9.216  11.161
 3840W        W 7904   2.032   9.404   1.901
 3841W        W 7905   0.867   6.520  10.045
 3842W        W 7906   7.016   5.613  11.025
 3843W        W 7907   2.119   5.235   2.999
 3844W        W 7908   8.672   7.227   8.991
 3845W        W 7909   4.752  10.297   2.423
 3846W        W 7910   7.591   9.982  10.105
 3847W        W 7911   2.376   8.425   2.979
 3848W        W 7912   8.749   1.999   0.347
 3849W        W 7913   0.174   5.609   0.025
 3850W        W 7914   6.425   8.934   1.415
 3851W        W 7915   9.159   5.775  10.506
 3852W        W 7916   7.789   4.105  11.966
 3853W        W 7917   2.390   6.012   1.807
 3854W        W 7918   4.187   1.872   2.819
 3855W        W 7919   5.921   6.916   3.827
 3856W        W 7920   2.115   7.133   9.896
 3857W        W 7921   4.006   7.920   2.279
 3858W        W 7922   4.685   0.869   8.645
 3859W        W 7923   7.284  10.043   1.595
 3860W        W 7924   7.042   2.229   3.030
 3861W        W 7925   1.937   3.341  11.033
 3862W        W 7926   1.201   9.717   8.823
 3863W        W 7927   7.431   3.738  11.145
 3864W        W 7928   5.954   3.474   1.402
 3865W        W 7929   2.364   3.153   2.881
 3866W        W 7930   7.378   0.004   0.290
 3867W        W 7931   7.980   6.561   2.798
 3868W        W 7932   2.885   6.958  11.835
 3869W        W 7933   4.970   4.674   0.428
 3870W        W 7934   2.385   4.828   2.722
 3871W        W 7935   0.650   0.616   2.292
 3872W        W 7936   9.961   4.528  10.479
 3873W        W 7937   7.110   0.476   3.320
 3874W        W 7938   1.661   1.651  11.792
 3875W        W 7939  10.213   0.623   1.403
 3876W        W 7940   9.380   4.658   9.796
 3877W        W 7941   2.825   7.036   0.413
 3878W        W 7942   8.422   6.498   0.833
 3879W        W 7943   1.446   4.171   3.230
 3880W        W 7944   3.608   6.479   1.695
 3881W        W 7945   1.307   0.258   9.031
 3882W        W 7946  10.245   6.728   0.322
 3883W        W 7947   6.938   3.686   0.348
 3884W        W 7948   4.410   0.101   2.630
 3885W        W 7949   7.483   8.796  10.765
 3886W        W 7950   3.397   1.028  11.026
 3887W        W 7951   4.652   2.350  10.728
 3888W        W 7952   4.938   8.461  10.433
 3889W        W 7953   9.500   8.408   3.270
 3890W        W 7954   4.713   9.372   2.939
 3891W        W 7955   6.135   4.053   8.614
 3892W        W 7956   9.228   7.995   8.945
 3893W        W 7957   8.091   8.363   9.077
 3894W        W 7958   7.151   2.274   1.490
 3895W        W 7959   3.380   0.579   9.793
 3896W        W 7960   2.316   7.808  11.572
 3897W        W 7961   0.449   5.205   0.185
 3898W        W 7962   1.963   4.569   0.882
 3899W        W 7963   2.819   5.964   0.057
 3900W        W 7964   6.185   1.932   3.483
 3901W        W 7965   2.597   2.535  10.269
 3902W        W 7966   6.657   0.300   9.372
 3903W        W 7967   2.929  10.340  10.654
 3904W        W 7968   8.651   4.210   1.233
 3905W        W 7969  10.303   4.566   8.777
 3906W        W 7970   6.730   1.235  10.537
 3907W        W 7971   7.580   5.602   3.098
 3908W        W 7972   5.290   6.182   9.124
 3909W        W 7973   2.362   6.766   1.164
 3910W        W 7974   4.735   3.293   0.211
 3911W        W 7975   6.046   7.539   1.681
 3912W        W 7976   7.020   6.449   1.780
 3913W        W 7977   9.669   3.423   8.600
 3914W        W 7978   4.159   1.251  11.827
 3915W        W 7979   7.972   7.479   2.643
 3916W        W 7980   7.813   9.969   9.088
 3917W        W 7981  10.222   3.660  11.306
 3918W        W 7982   2.645   5.089   2.337
 3919W        W 7983   1.275   1.868   8.998
 3920W        W 7984   5.082   4.633  11.038
 3921W        W 7985   9.360   6.491   1.826
 3922W        W 7986   5.157   8.548  11.106
 3923W        W 7987   3.716  10.434   2.216
 3924W        W 7988   9.400   7.192   1.510
 3925W        W 7989   7.427   2.081   0.695
 3926W        W 7990   5.182   7.675  11.043
 3927W        W 7991  10.398   0.715   9.577
 3928W        W 7992   4.053  10.399   0.894
 3929W        W 7993   7.556   3.574   9.936
 3930W        W 7994   4.703   1.715   9.079
 3931W        W 7995   0.224   8.642  11.396
 3932W        W 7996   0.891   5.693   0.286
 3933W        W 7997   7.098   6.688   2.250
 3934W        W 7998  10.088   3.724  11.798
 3935W        W 7999   5.668   0.771   2.182
 3936W        W 8000   4.277   9.086  10.535
 3937W        W 8001   1.261  10.447   9.443
 3938W        W 8002   6.975   9.960  10.767
 3939W        W 8003   7.929   4.135   2.324
 3940W        W 8004   2.653   0.760   3.373
 3941W        W 8005   1.717   8.320   1.796
 3942W        W 8006   9.020   0.869   2.845
 3943W        W 8007   6.973   9.049   2.751
 3944W        W 8008   2.628   2.792   2.668
 3945W        W 8009   4.619   3.648   1.569
 3946W        W 8010   0.475   0.779  11.983
 3947W        W 8011   0.351   5.356   9.882
 3948W        W 8012   2.283   8.981   1.804
 3949W        W 8013   3.707   8.971   1.348
 3950W        W 8014   8.468   0.297   9.435
 3951W        W 8015   7.011   0.319  11.273
 3952W        W 8016  10.373   4.932   2.403
 3953W        W 8017   4.595   6.878  10.276
 3954W        W 8018   7.217   9.002   0.277
 3955W        W 8019   6.225   4.332  11.752
 3956W        W 8020   4.185   0.969   8.466
 3957W        W 8021   1.938  10.412  10.655
 3958W        W 8022   7.943   0.008   0.374
 3959W        W 8023   4.378   5.776   8.252
 3960W        W 8024   9.902  10.330  11.984
 3961W        W 8025   6.112   2.328  11.267
 3962W        W 8026   8.917   4.758   2.170
 3963W        W 8027   5.201   6.678   8.524
 3964W        W 8028   6.971   2.429  10.568
 3965W        W 8029   1.059   9.104   0.240
 3966W        W 8030   5.471   4.682   0.340
 3967W        W 8031   6.960   7.726   0.577
 3968W        W 8032   9.991   3.187   2.647
 3969W        W 8033   2.405   2.926  11.836
 3970W        W 8034   2.645   6.136   3.506
 3971W        W 8035   9.433   9.048   2.534
 3972W        W 8036   6.854   9.058   1.148
 3973W        W 8037   2.334   7.659   1.738
 3974W        W 8038   9.522   8.323   9.250
 3975W        W 8039   3.691  10.324  10.815
 3976W        W 8040   9.770   4.285  10.912
 3977W        W 8041   6.474   1.478   2.801
 3978W        W 8042   5.680   2.370   2.345
 3979W        W 8043   1.204   9.565  11.985
 3980W        W 8044   6.278   7.459   1.238
 3981W        W 8045   5.572   7.376   2.772
 3982W        W 8046   8.312   0.087   8.384
 3983W        W 8047   1.689   0.480   2.524
 3984W        W 8048   7.391   5.211   8.943
 3985W        W 8049   2.727   3.597   9.257
 3986W        W 8050   2.726   0.284  10.888
 3987W        W 8051   5.082   2.253   9.188
 3988W        W 8052   2.343  10.301   2.993
 3989W        W 8053   4.291   1.695   1.923
 3990W        W 8054   4.354   6.622   9.706
 3991W        W 8055   0.783   8.842   9.857
 3992W        W 8056   6.918   9.870  11.274
 3993W        W 8057   7.237   1.748  11.315
 3994W        W 8058   9.319   5.655   9.275
 3995W        W 8059   6.198   3.121   3.565
 3996W        W 8060   0.762   8.570   1.945
 3997W        W 8061   9.272   1.874   8.633
 3998W        W 8062   4.757   8.869  11.275
 3999W        W 8063   5.263   9.888  10.074
 4000W        W 8064   1.378   7.995   1.520
 4001W        W 8065   1.228   2.927   0.399
 4002W        W 8066   1.751   5.965  10.213
 4003W        W 8067   9.359   0.702   1.948
 4004W        W 8068   2.260   2.243  11.510
 4005W        W 8069   4.544   3.911  11.020
 4006W        W 8070   0.893   7.022  10.784
 4007W        W 8071   1.506   0.302   3.371
 4008W        W 8072   0.566   1.797   9.836
 4009W        W 8073   9.510   7.123   1.001
 4010W        W 8074   0.324   7.302   1.454
 4011W        W 8075   3.203   4.822   1.278
 4012W        W 8076   2.825   5.923   2.096
 4013W        W 8077   4.226   7.953   8.845
 4014W        W 8078   6.005   4.342   8.196
 4015W        W 8079   6.480   3.340   0.569
 4016W        W 8080   3.037   7.917   8.611
 4017W        W 8081   7.104   0.938  11.852
 4018W        W 8082   3.190   0.238   9.407
 4019W        W 8083   2.712   9.956   2.788
 4020W        W 8084   8.629   7.954   3.187
 4021W        W 8085   7.001   9.526   2.991
 4022W        W 8086   6.070   7.117   1.998
 4023W        W 8087   6.536   7.423   3.132
 4024W        W 8088   1.157   0.724   2.205
 4025W        W 8089   4.549   9.777  11.780
 4026W        W 8090   0.027   4.629  10.301
 4027W        W 8091  10.474   7.575   1.222
 4028W        W 8092   2.637   4.349  11.537
 4029W        W 8093   5.213   1.716   9.858
 4030W        W 8094   4.543   0.402   9.439
 4031W        W 8095   5.120   1.188   2.322
 4032W        W 8096   6.125   7.271  10.815
 4033W        W 8097   0.400   0.668   1.846
 4034W        W 8098   5.710   5.177   1.640
 4035W        W 8099   4.918   0.427   8.637
 4036W        W 8100   7.962   9.429   0.586
 4037W        W 8101   4.226   5.639  10.474
 4038W        W 8102   9.729   8.929  10.461
 4039W        W 8103   4.256   6.199  10.522
 4040W        W 8104   8.591   9.102   3.623
 4041W        W 8105   0.745   3.574  10.282
 4042W        W 8106   2.293   7.687   1.225
 4043W        W 8107   1.009   8.749   9.407
 4044W        W 8108   4.593   4.062   8.791
 4045W        W 8109   3.362   3.825   1.327
 4046W        W 8110   7.546   2.762   1.466
 4047W        W 8111   9.573   5.576  10.266
 4048W        W 8112   3.161   6.541   2.943
 4049W        W 8113   9.546   9.339  10.104
 4050W        W 8114   2.567   7.532   8.890
 4051W        W 8115   7.494   3.661  11.640
 4052W        W 8116  10.379   5.701   1.224
 4053W        W 8117   4.540   4.729   3.456
 4054W        W 8118   2.793   1.325  10.937
 4055W        W 8119   7.890   0.248   1.618
 4056W        W 8120   1.547   5.652  10.551
 4057W        W 8121   7.536   7.067   0.173
 4058W        W 8122   0.399   9.041  10.876
 4059W        W 8123   2.870   7.500  11.168
 4060W        W 8124   6.569   9.455   1.319
 4061W        W 8125   5.640  10.432   1.926
 4062W        W 8126   7.441   5.327   9.498
 4063W        W 8127   8.015   2.280   1.396
 4064W        W 8128   6.015   3.674   9.936
 4065W        W 8129   5.818   7.479   0.328
 4066W        W 8130   3.429   7.943   1.889
 4067W        W 8131   5.729   6.904   9.195
 4068W        W 8132   6.056   9.084  10.844
 4069W        W 8133   8.414   6.444   2.061
 4070W        W 8134   0.353   8.560   1.671
 4071W        W 8135   6.911   5.014   2.789
 4072W        W 8136   4.124   3.895   8.918
 4073W        W 8137   9.048   4.022   1.527
 4074W        W 8138   4.840   6.835   8.078
 4075W        W 8139   6.132   1.392  11.245
 4076W        W 8140   7.936   9.036   3.028
 4077W        W 8141   3.258   7.118   0.736
 4078W        W 8142   4.963   0.413  10.784
 4079W        W 8143   4.056   3.943   1.386
 4080W        W 8144   6.540   2.980   0.238
 4081W        W 8145   2.347   3.626   3.055
 4082W        W 8146   1.681   7.164   0.571
 4083W        W 8147   6.036   3.151  11.110
 4084W        W 8148   4.733   3.818   3.028
 4085W        W 8149  10.277   4.078   2.826
 4086W        W 8150   7.964   3.666   3.249
 4087W        W 8151   8.436   0.729   3.312
 4088W        W 8152   8.502   1.721   3.048
 4089W        W 8153   1.366   6.465  10.831
 4090W        W 8154   4.073   5.629   1.636
 4091W        W 8155   3.265   2.458   3.149
 4092W        W 8156   2.679   9.292   9.877
 4093W        W 8157   6.222   1.764   9.938
 4094W        W 8158   0.761   4.100   1.709
 4095W        W 8159   5.522   7.039   8.712
 4096W        W 8160   6.168   8.551   0.832
 4097W        W 8161   9.174   5.963   9.999
 4098W        W 8162   3.788   3.571   1.157
 4099W        W 8163   9.074   4.597   2.631
 4100W        W 8164   9.837   0.919   1.269
 4101W        W 8165   5.004   9.495   9.277
 4102W        W 8166   2.387   2.587  10.767
 4103W        W 8167   1.372   6.568   0.919
 4104W        W 8168   2.907   8.906   9.589
 4105W        W 8169   0.992   3.802   3.290
 4106W        W 8170   4.214   1.236   1.703
 4107W        W 8171   0.684   7.332   8.906
 4108W        W 8172   5.570   3.823   1.423
 4109W        W 8173   8.987   0.322   9.951
 4110W        W 8174   0.997   3.053   2.868
 4111W        W 8175   2.941   7.173   2.723
 4112W        W 8176   3.157   3.834   9.081
 4113W        W 8177   8.335   0.343   2.971
 4114W        W 8178   9.786   8.999  11.513
 4115W        W 8179   5.028   6.689   0.775
 4116W        W 8180  10.489   2.828   1.931
 4117W        W 8181   8.660   6.640  10.786
 4118W        W 8182   4.256   9.106   2.817
 4119W        W 8183   9.983   3.072   9.324
 4120W        W 8184   7.444   9.313  10.703
 4121W        W 8185   5.976   5.289  11.507
 4122W        W 8186   9.430   4.292  10.543
 4123W        W 8187   6.677   4.285   2.308
 4124W        W 8188   3.734   9.834  10.329
 4125W        W 8189   7.292   2.229   9.222
 4126W        W 8190   9.744   0.762   0.239
 4127W        W 8191   5.068   3.734  10.998
 4128W        W 8192   0.480   8.260  10.249
 4129W        W 8193   0.788   7.818   2.683
 4130W        W 8194   5.173   3.068   3.078
 4131W        W 8195   9.933   0.274   0.734
 4132W        W 8196   7.484   6.297   0.029
 4133W        W 8197   3.552   1.107   9.837
 4134W        W 8198   8.279   4.278   9.845
 4135W        W 8199   2.255   3.257  11.471
 4136W        W 8200   4.149   6.169   8.906
 4137W        W 8201   4.597   4.654   0.100
 4138W        W 8202   7.885   1.394   8.843
 4139W        W 8203   9.531   0.840   2.741
 4140W        W 8204   6.649   2.287   1.814
 4141W        W 8205   4.774   1.878   1.394
 4142W        W 8206   5.693  10.272   3.361
 4143W        W 8207   4.351   7.438   9.461
 4144W        W 8208   5.800   3.183   1.882
 4145W        W 8209  10.423   3.278  10.612
 4146W        W 8210   5.166   9.063  10.970
 4147W        W 8211   8.621   2.882  10.963
 4148W        W 8212   5.543   0.679   1.249
 4149W        W 8213   4.239   7.765  10.310
 4150W        W 8214   2.397   5.622   8.374
 4151W        W 8215   1.378   6.153   2.421
 4152W        W 8216   4.704   4.963   0.734
 4153W        W 8217   0.295   7.980  10.627
 4154W        W 8218   7.444   6.069   0.925
 4155W        W 8219   4.590   5.236   2.567
 4156W        W 8220   5.240  10.050  10.564
 4157W        W 8221   5.764   6.225   9.870
 4158W        W 8222  10.397   1.094   2.924
 4159W        W 8223   7.545   1.140   3.465
 4160W        W 8224   5.661   9.026  10.185
 4161W        W 8225   2.705   5.729   9.064
 4162W        W 8226   3.620   1.612   9.926
 4163W        W 8227   5.713   2.386   1.402
 4164W        W 8228   3.403   5.779   9.968
 4165W        W 8229   8.034   2.933   0.675
 4166W        W 8230   3.409   6.111  11.395
 4167W        W 8231   2.432   6.497   8.589
 4168W        W 8232   2.372   1.956   1.495
 4169W        W 8233   4.573   5.597   1.803
 4170W        W 8234   6.913   2.169   9.595
 4171W        W 8235   0.368   0.027  11.353
 4172W        W 8236   8.399   6.967   1.998
 4173W        W 8237   6.451   3.363   1.304
 4174W        W 8238   9.407   6.212  10.410
 4175W        W 8239   8.984   6.824   9.074
 4176W        W 8240   2.437   2.906   1.652
 4177W        W 8241   0.754   8.315   9.828
 4178W        W 8242   1.943   8.450   2.662
 4179W        W 8243   2.707   9.245   8.854
 4180W        W 8244   8.899   9.117   9.561
 4181W        W 8245   5.982   6.762  11.611
 4182W        W 8246   8.672   4.989   9.370
 4183W        W 8247   5.026   2.724   3.420
 4184W        W 8248   1.702   3.206   1.682
 4185W        W 8249   4.297   6.446  11.002
 4186W        W 8250   2.685   9.104  11.792
 4187W        W 8251   0.782   9.414   1.906
 4188W        W 8252   7.465  10.283   2.122
 4189W        W 8253   9.759   4.360  10.016
 4190W        W 8254   4.091   0.381   3.339
 4191W        W 8255   4.529   8.937   0.659
 4192W        W 8256   7.245   5.741   2.183
 4193W        W 8257   0.774   3.739  10.768
 4194W        W 8258   3.143   2.319   2.179
 4195W        W 8259  10.426   9.860   1.447
 4196W        W 8260   5.926   9.582   3.595
 4197W        W 8261   6.942   8.136  10.785
 4198W        W 8262   0.779   5.173   2.138
 4199W        W 8263   0.495   1.908   2.234
 4200W        W 8264   1.132   6.414   8.570
 4201W        W 8265   4.489   1.725   2.396
 4202W        W 8266   0.833   3.060   8.953
 4203W        W 8267   2.745   6.470   0.843
 4204W        W 8268   0.511   7.714  11.423
 4205W        W 8269   3.710   0.452   1.983
 4206W        W 8270   0.837   1.789  11.404
 4207W        W 8271   4.941   4.227   9.122
 4208W        W 8272   7.761   0.866   1.781
 4209W        W 8273   5.499   6.715   3.569
 4210W        W 8274   1.252   6.075   9.924
 4211W        W 8275   9.999   4.023   0.212
 4212W        W 8276   8.384   1.267   3.359
 4213W        W 8277  10.237   5.504   2.672
 4214W        W 8278   5.763   7.123  10.043
 4215W        W 8279   7.485   2.717   1.978
 4216W        W 8280   9.195  10.253   9.871
 4217W        W 8281   0.315   5.437  11.062
 4218W        W 8282   4.794   7.936  10.322
 4219W        W 8283   8.934   1.559   9.362
 4220W        W 8284   1.216   3.983   1.927
 4221W        W 8285   3.738   5.838  11.721
 4222W        W 8286   6.587   8.350   2.715
 4223W        W 8287   3.240   6.987   9.054
 4224W        W 8288   1.359   2.272  11.885
 4225W        W 8289   7.844   9.521  10.447
 4226W        W 8290   6.745   3.996   9.323
 4227W        W 8291   8.394   2.614  11.900
 4228W        W 8292   8.021  10.000   0.373
 4229W        W 8293   7.583   6.617   0.483
 4230W        W 8294   8.748   9.527   2.264
 4231W        W 8295   4.641   4.223   3.348
 4232W        W 8296   6.128   8.412   9.261
 4233W        W 8297   3.739   1.327   1.929
 4234W        W 8298   0.867   6.922   9.230
 4235W        W 8299   7.871   1.800   0.061
 4236W        W 8300   6.678   6.493  11.362
 4237W        W 8301  10.481   8.251   3.128
 4238W        W 8302   9.657   3.833   8.892
 4239W        W 8303   4.227   7.407  11.280
 4240W        W 8304  10.421   9.398   0.610
 4241W        W 8305   4.639   8.887   3.113
 4242W        W 8306   3.195   3.721  10.086
 4243W        W 8307   6.064   9.579  10.972
 4244W        W 8308  10.483   9.703  11.411
 4245W        W 8309   1.533   3.716   2.982
 4246W        W 8310   7.616   1.303  10.628
 4247W        W 8311   8.378   7.066  10.771
 4248W        W 8312   4.340   5.272   8.436
 4249W        W 8313   2.340   3.926   8.824
 4250W        W 8314   4.755   6.037   1.015
 4251W        W 8315   1.898   3.060  11.908
 4252W        W 8316   3.317   7.150  10.453
 4253W        W 8317   9.333   2.820   1.685
 4254W        W 8318   3.509   2.703   2.318
 4255W        W 8319   4.718   7.027   2.482
 4256W        W 8320   6.138   2.249  10.128
 4257W        W 8321   1.855   5.995   1.769
 4258W        W 8322   7.814   9.758  11.661
 4259W        W 8323   6.680   6.163  11.960
 4260W        W 8324   9.375   9.054   1.335
 4261W        W 8325   9.457  10.490   2.658
 4262W        W 8326   1.947   9.757   0.688
 4263W        W 8327   2.060   9.942  10.408
 4264W        W 8328   0.386   2.894   0.699
 4265W        W 8329   2.172   4.499  10.858
 4266W        W 8330   3.278   4.451   3.591
 4267W        W 8331   0.035   2.825   0.335
 4268W        W 8332  10.311   8.215  10.740
 4269W        W 8333   5.241   9.479   0.776
 4270W        W 8334   4.812   2.336   1.185
 4271W        W 8335   1.713   8.476  11.783
 4272W        W 8336   3.223   7.217   1.417
 4273W        W 8337   0.296   5.254   3.605
 4274W        W 8338   8.915   6.214   8.493
 4275W        W 8339   6.944   4.075   0.686
 4276W        W 8340   1.344   7.857   0.311
 4277W        W 8341   2.853   9.834   1.861
 4278W        W 8342   2.110   6.636  11.806
 4279W        W 8343   1.934   9.440  11.478
 4280W        W 8344   5.951   4.311   9.092
 4281W        W 8345   7.990   9.687   9.870
 4282W        W 8346   8.122   8.656   2.728
 4283W        W 8347   9.356   1.699   9.867
 4284W        W 8348   3.623   3.547   2.157
 4285W        W 8349   3.577   9.558   9.913
 4286W        W 8350   1.389   3.185  11.853
 4287W        W 8351   2.180   3.711   9.808
 4288W        W 8352   3.183   8.851   3.419
 4289W        W 8353   8.363   5.245  10.959
 4290W        W 8354   3.249   0.659   2.978
 4291W        W 8355   3.850   4.666   8.304
 4292W        W 8356  10.228   6.087   2.854
 4293W        W 8357   6.550   4.883   1.271
 4294W        W 8358   3.739   4.549   1.946
 4295W        W 8359   2.596   1.959   8.941
 4296W        W 8360   4.403  10.101  10.433
 4297W        W 8361   7.067   2.316  10.073
 4298W        W 8362   9.587   3.000  10.808
 4299W        W 8363   1.685   7.563   9.066
 4300W        W 8364   6.730   6.164   3.985
 4301W        W 8365   1.794   7.047  11.756
 4302W        W 8366   0.026  10.234   9.587
 4303W        W 8367   0.271   3.105   1.192
 4304W        W 8368   9.507   5.631   0.717
 4305W        W 8369   8.938   5.069   8.925
 4306W        W 8370   8.555   6.654   1.632
 4307W        W 8371   0.902   4.756  10.725
 4308W        W 8372   2.349   4.756  11.251
 4309W        W 8373   3.861   8.299   9.523
 4310W        W 8374   2.085   1.024   1.311
 4311W        W 8375   6.346   9.776   9.208
 4312W        W 8376   5.061   4.229   8.621
 4313W        W 8377   6.150   2.226   1.661
 4314W        W 8378   4.663   5.889  10.500
 4315W        W 8379  10.313   2.988  11.903
 4316W        W 8380   8.426   4.266   0.258
 4317W        W 8381   7.837   9.024   2.504
 4318W        W 8382   2.831   8.557   2.757
 4319W        W 8383   3.372  10.364   2.922
 4320W        W 8384   0.016  10.475   0.774
 4321W        W 8385   2.763  10.340  11.671
 4322W        W 8386   8.191   6.686   3.269
 4323W        W 8387   0.250   6.533   9.265
 4324W        W 8388   4.145   9.232   1.425
 4325W        W 8389   3.469   0.361   8.560
 4326W        W 8390   6.548   3.664   1.991
 4327W        W 8391   8.953  10.177   0.056
 4328W        W 8392   0.365   8.946   2.145
 4329W        W 8393   1.339   1.303   0.036
 4330W        W 8394   8.841  10.001   3.012
 4331W        W 8395   0.559   0.977  11.030
 4332W        W 8396   5.945   6.427   3.577
 4333W        W 8397   6.169   0.962  10.943
 4334W        W 8398   7.868   0.843   0.378
 4335W        W 8399   9.562   7.359  11.884
 4336W        W 8400   2.354   1.108   8.985
 4337W        W 8401   2.049   9.822  11.807
 4338W        W 8402   3.367   7.490  11.228
 4339W        W 8403   0.043   2.662   1.052
 4340W        W 8404   2.752   2.191  11.362
 4341W        W 8405   5.226   9.996   0.013
 4342W        W 8406   6.513   8.346   1.769
 4343W        W 8407   4.720   5.505  11.821
 4344W        W 8408   1.673   7.901   9.884
 4345W        W 8409   1.307   2.770   2.600
 4346W        W 8410  10.173   7.259   0.973
 4347W        W 8411   6.538  10.275   9.373
 4348W        W 8412   4.155   8.499   9.883
 4349W        W 8413   5.971   0.000  11.755
 4350W        W 8414   0.113   5.341   0.889
 4351W        W 8415  10.257   6.547   9.062
 4352W        W 8416   8.115   4.115   9.379
 4353W        W 8417   3.347   2.399  10.404
 4354W        W 8418   7.677   5.276  11.422
 4355W        W 8419   6.628   6.908   0.380
 4356W        W 8420   6.135   1.865   0.065
 4357W        W 8421   9.296   0.288   1.292
 4358W        W 8422   5.909   5.737   9.865
 4359W        W 8423   9.032   5.714   2.430
 4360W        W 8424   9.540  10.492   0.936
 4361W        W 8425   0.483   6.077   9.368
 4362W        W 8426   7.499   6.109   2.935
 4363W        W 8427   6.099   6.091   9.477
 4364W        W 8428   6.708   3.054   9.372
 4365W        W 8429   0.775   8.995   2.692
 4366W        W 8430   4.949   2.651   1.971
 4367W        W 8431   3.062   0.201  11.314
 4368W        W 8432   4.238   1.068  10.475
 4369W        W 8433  10.398   6.957   8.751
 4370W        W 8434   3.694   3.293   2.967
 4371W        W 8435   7.538   4.018   4.358
 4372W        W 8436   9.344   6.157  11.377
 4373W        W 8437   2.694   7.417  11.656
 4374W        W 8438   0.522   7.736  11.945
 4375W        W 8439   7.180   4.964   1.909
 4376W        W 8440   0.321   5.063   2.642
 4377W        W 8441   4.138   6.287   2.893
 4378W        W 8442   3.616   3.758  10.370
 4379W        W 8443   5.559   1.677   0.923
 4380W        W 8444   3.734   0.746   8.910
 4381W        W 8445   7.544   1.348  11.126
 4382W        W 8446   2.731   9.769   9.021
 4383W        W 8447   4.705  10.050   0.798
 4384W        W 8448   6.695   8.481   2.238
 4385W        W 8449   5.046   4.008   9.884
 4386W        W 8450   6.901   0.796   9.624
 4387W        W 8451   2.120   6.901   1.904
 4388W        W 8452   8.823   2.916  11.984
 4389W        W 8453   5.086   6.668   2.327
 4390W        W 8454   0.773   2.239   1.169
 4391W        W 8455   9.028   8.883   0.874
 4392W        W 8456   9.876   8.184   2.801
 4393W        W 8457   3.313   7.598  10.223
 4394W        W 8458   4.919   6.192  11.552
 4395W        W 8459   7.042   5.402   1.029
 4396W        W 8460   7.916   6.290   0.929
 4397W        W 8461   8.339   5.922  11.366
 4398W        W 8462   6.335   2.705  10.920
 4399W        W 8463   8.376   6.322   2.557
 4400W        W 8464  10.019   6.163  10.985
 4401W        W 8465   2.085   8.551   2.126
 4402W        W 8466   8.949   2.643   0.992
 4403W        W 8467   9.464   5.489   1.673
 4404W        W 8468   4.086   8.891   1.000
 4405W        W 8469   2.589  10.011  10.438
 4406W        W 8470   5.084   9.560   1.288
 4407W        W 8471   7.140   7.475   9.166
 4408W        W 8472  10.158   6.657  10.969
 4409W        W 8473   4.124   3.764  11.793
 4410W        W 8474   9.929   3.007   8.803
 4411W        W 8475   2.916   9.922  11.413
 4412W        W 8476   5.524   0.745   0.733
 4413W        W 8477   0.219   6.926   3.402
 4414W        W 8478   5.610  10.388   9.380
 4415W        W 8479   7.921   3.301   9.690
 4416W        W 8480   7.381   1.431   8.628
 4417W        W 8481   5.424   5.535   1.880
 4418W        W 8482   9.552   4.471   2.595
 4419W        W 8483   9.949   4.070   1.970
 4420W        W 8484   9.277   8.831  10.825
 4421W        W 8485   5.988   3.520   9.390
 4422W        W 8486   2.849   8.330   0.260
 4423W        W 8487   1.478   4.702   0.908
 4424W        W 8488   9.757   8.866  11.016
 4425W        W 8489   9.826   5.201   0.974
 4426W        W 8490   1.461   6.170   9.428
 4427W        W 8491   8.099   6.100   9.464
 4428W        W 8492   5.192   0.272  10.333
 4429W        W 8493   4.984   3.758   0.510
 4430W        W 8494   2.713   1.185  10.327
 4431W        W 8495   8.534   1.707   2.512
 4432W        W 8496   4.570   3.851  11.529
 4433W        W 8497   5.185   9.992   9.585
 4434W        W 8498   1.382   6.655   3.043
 4435W        W 8499   0.457   8.210   2.802
 4436W        W 8500   6.127   4.286   2.609
 4437W        W 8501   8.103   0.177  10.181
 4438W        W 8502   3.559   9.912   3.176
 4439W        W 8503   5.451   8.560  10.380
 4440W        W 8504   9.472   7.272   0.382
 4441W        W 8505   2.352   7.075   2.509
 4442W        W 8506   2.781   1.839   9.508
 4443W        W 8507   2.343   7.766  10.471
 4444W        W 8508   6.112   4.174   0.251
 4445W        W 8509   4.292   8.056   2.890
 4446W        W 8510   2.680   4.617   9.325
 4447W        W 8511  10.374   8.454   1.814
 4448W        W 8512   1.806   0.304   8.899
 4449W        W 8513   2.242   4.123  11.297
 4450W        W 8514   4.775   6.060   0.010
 4451W        W 8515   6.005   0.857   2.559
 4452W        W 8516   4.688   9.022   9.219
 4453W        W 8517   8.531   1.068   1.420
 4454W        W 8518   8.380   2.621   2.544
 4455W        W 8519   4.690  10.336   1.924
 4456W        W 8520   9.085   0.697  10.757
 4457W        W 8521   0.781   8.531   3.411
 4458W        W 8522   6.118   1.680   1.484
 4459W        W 8523   5.271   8.203   2.717
 4460W        W 8524   0.311   1.684   1.775
 4461W        W 8525   7.399   7.156  10.496
 4462W        W 8526   8.306   5.096   3.004
 4463W        W 8527   6.970   5.409   3.691
 4464W        W 8528  10.303   4.194  11.756
 4465W        W 8529   0.323   7.559   1.902
 4466W        W 8530   9.932   5.533   1.427
 4467W        W 8531   5.652   3.506  11.752
 4468W        W 8532   4.061   2.392  11.369
 4469W        W 8533   6.029   4.091   0.766
 4470W        W 8534   8.030   3.548  10.656
 4471W        W 8535   3.141   0.296   2.638
 4472W        W 8536   5.763   9.155  11.761
 4473W        W 8537   2.835   0.737  10.592
 4474W        W 8538   6.690   1.401   0.468
 4475W        W 8539   7.406   5.574   9.955
 4476W        W 8540   4.184   3.434   1.440
 4477W        W 8541   3.572  10.056   0.008
 4478W        W 8542   4.275   9.615   2.740
 4479W        W 8543   5.644   6.587  10.261
 4480W        W 8544   9.381   1.525  10.810
 4481W        W 8545   8.266   3.747  10.258
 4482W        W 8546   0.703   5.495  11.382
 4483W        W 8547   0.428   1.895   0.874
 4484W        W 8548   4.133   7.050   0.711
 4485W        W 8549   4.232   0.738  11.839
 4486W        W 8550   5.295   8.540   9.374
 4487W        W 8551   1.763   2.138   9.825
 4488W        W 8552   3.320   6.128   9.571
 4489W        W 8553   7.045  10.093   0.304
 4490W        W 8554   1.603   7.805   3.721
 4491W        W 8555   8.421   3.306   9.822
 4492W        W 8556   6.566   2.137  11.489
 4493W        W 8557   1.778   6.962  10.281
 4494W        W 8558   0.351   6.018   2.008
 4495W        W 8559   5.962   7.105   9.583
 4496W        W 8560   2.692   5.161   3.328
 4497W        W 8561   1.883   0.348   1.760
 4498W        W 8562   1.701   7.967  11.939
 4499W        W 8563   6.266   8.253  10.296
 4500W        W 8564   7.090   2.235   2.501
 4501W        W 8565   6.147   8.912   9.074
 4502W        W 8566   8.891   6.209  10.417
 4503W        W 8567   6.302   2.774   3.208
 4504W        W 8568   7.094   2.736   1.204
 4505W        W 8569   9.929   6.502  11.428
 4506W        W 8570   9.514   3.771   1.441
 4507W        W 8571   0.896   6.042   2.325
 4508W        W 8572   7.786   8.159   1.030
 4509W        W 8573   4.273   3.262   3.548
 4510W        W 8574   0.540   8.951   0.207
 4511W        W 8575   5.688   0.273   2.348
 4512W        W 8576   2.163   0.352  10.261
 4513W        W 8577   9.851   6.577   9.382
 4514W        W 8578   3.788   2.972   0.461
 4515W        W 8579   8.858   4.610   9.662
 4516W        W 8580   0.968   9.433  11.533
 4517W        W 8581   1.295   1.451   2.752
 4518W        W 8582   1.865   5.729   0.017
 4519W        W 8583   7.903   7.168  11.195
 4520W        W 8584   9.220   0.049   3.107
 4521W        W 8585   1.509   9.521   0.864
 4522W        W 8586   8.557   0.252   2.021
 4523W        W 8587  10.425   4.194   1.752
 4524W        W 8588   7.216   5.140   1.427
 4525W        W 8589   8.447  10.458   2.427
 4526W        W 8590   3.183   3.323  11.554
 4527W        W 8591   4.645   6.857   0.446
 4528W        W 8592   3.396   5.731  10.779
 4529W        W 8593   9.712   5.674   8.907
 4530W        W 8594   7.853   9.097  10.972
 4531W        W 8595   2.939   0.494  11.767
 4532W        W 8596   9.101   3.740   9.915
 4533W        W 8597   5.721   5.284   2.205
 4534W        W 8598   4.257  10.326   2.224
 4535W        W 8599   0.464   8.079   1.866
 4536W        W 8600   0.912   6.615  11.086
 4537W        W 8601   0.804   3.863   8.191
 4538W        W 8602   5.734   6.888   2.767
 4539W        W 8603   8.362   2.117  10.783
 4540W        W 8604   6.747   0.790  10.846
 4541W        W 8605   5.816   1.514  10.330
 4542W        W 8606   8.275   7.273  11.518
 4543W        W 8607   5.070   9.118   2.311
 4544W        W 8608   7.030   5.252   9.828
 4545W        W 8609   9.843   5.946   0.471
 4546W        W 8610   6.983   3.249   9.788
 4547W        W 8611   4.793   3.822   2.507
 4548W        W 8612   8.658   7.171   9.824
 4549W        W 8613   5.499   7.608   3.225
 4550W        W 8614   3.558   7.149  10.897
 4551W        W 8615   3.032   0.662  11.054
 4552W        W 8616   8.054   8.961  11.914
 4553W        W 8617   9.818   5.098  11.916
 4554W        W 8618   8.919   1.957   9.673
 4555W        W 8619   6.140   3.784  11.790
 4556W        W 8620   7.383   0.330  10.338
 4557W        W 8621   1.119   2.219  10.926
 4558W        W 8622   3.317   3.313   1.322
 4559W        W 8623   8.968   7.837   2.829
 4560W        W 8624   4.735   9.410   0.601
 4561W        W 8625   7.058   1.771   1.402
 4562W        W 8626   2.233   8.639  10.128
 4563W        W 8627   4.338   9.726  10.867
 4564W        W 8628   3.133   5.565   1.853
 4565W        W 8629   5.718   3.082   9.298
 4566W        W 8630   7.193   8.089  10.315
 4567W        W 8631   6.723   5.344   1.447
 4568W        W 8632   9.830   0.772  11.711
 4569W        W 8633   3.920   9.816  11.694
 4570W        W 8634   3.688   6.960   1.508
 4571W        W 8635   1.482   0.204   1.499
 4572W        W 8636   6.063   5.790  11.329
 4573W        W 8637   3.862   4.030   2.214
 4574W        W 8638   4.050   4.202   2.700
 4575W        W 8639   3.240   4.770   3.193
 4576W        W 8640   9.075   6.889   2.723
 4577W        W 8641   2.649   8.414   3.443
 4578W        W 8642   3.853   0.871   1.711
 4579W        W 8643   4.849   6.670   9.889
 4580W        W 8644   2.557   0.234  11.448
 4581W        W 8645   3.359   3.132  10.910
 4582W        W 8646   9.611   9.325   3.378
 4583W        W 8647   6.964   2.922  11.375
 4584W        W 8648   1.260   1.566   1.714
 4585W        W 8649   5.068   6.937   1.228
 4586W        W 8650   7.052   7.200   2.279
 4587W        W 8651   8.020   7.021   2.345
 4588W        W 8652   5.457   3.791   2.681
 4589W        W 8653   8.763   9.804   3.491
 4590W        W 8654   3.656   4.721   1.486
 4591W        W 8655   5.957   8.346  11.937
 4592W        W 8656   1.230   8.084   2.538
 4593W        W 8657   7.856   0.402   2.848
 4594W        W 8658   1.904   8.845  11.026
 4595W        W 8659   1.897   9.484  10.042
 4596W        W 8660   4.693   2.884   2.857
 4597W        W 8661   9.932   1.365   1.555
 4598W        W 8662   6.182   0.418   2.387
 4599W        W 8663   6.580   7.057   1.317
 4600W        W 8664   3.826   4.088   0.148
 4601W        W 8665   3.684   0.719   3.319
 4602W        W 8666   7.842   5.301   9.875
 4603W        W 8667   7.089   8.524  10.016
 4604W        W 8668   4.714   9.039  10.227
 4605W        W 8669   0.834   0.935   1.885
 4606W        W 8670   4.253   7.476   0.473
 4607W        W 8671   2.753   1.050   0.666
 4608W        W 8672   2.774   0.460   2.963
 4609W        W 8673   7.663   3.300   0.718
 4610W        W 8674   4.190   5.336  10.051
 4611W        W 8675   0.541   2.819   2.817
 4612W        W 8676   4.233   4.384   9.036
 4613W        W 8677   7.369   3.866   0.107
 4614W        W 8678   1.932   6.457  10.328
 4615W        W 8679   3.701   4.579  11.951
 4616W        W 8680   8.424   9.074   2.815
 4617W        W 8681   6.425   8.112  10.811
 4618W        W 8682  10.448   6.476  11.354
 4619W        W 8683   6.011   5.548   9.025
 4620W        W 8684   0.724   5.892   2.807
 4621W        W 8685   0.077   6.595   1.250
 4622W        W 8686   8.668  10.464  10.867
 4623W        W 8687   0.037   2.681  10.040
 4624W        W 8688   9.831   5.166  11.051
 4625W        W 8689   5.066   2.815  11.421
 4626W        W 8690   0.602   9.009  11.333
 4627W        W 8691   2.754   2.219   8.554
 4628W        W 8692   8.715   1.090   9.355
 4629W        W 8693   3.493   4.165  11.767
 4630W        W 8694   8.782   8.834  10.639
 4631W        W 8695   8.490   5.041   2.214
 4632W        W 8696   1.128   2.936   0.930
 4633W        W 8697   9.363   6.522   9.226
 4634W        W 8698   7.114   8.354   0.819
 4635W        W 8699   9.849   2.307   1.650
 4636W        W 8700   5.614   4.742   2.830
 4637W        W 8701   2.934  10.430  10.159
 4638W        W 8702   4.517   0.582   2.515
 4639W        W 8703   6.775   6.178   9.937
 4640W        W 8704   5.920   8.609   3.410
 4641W        W 8705   3.059   8.054   2.612
 4642W        W 8706   5.111   8.971   8.929
 4643W        W 8707   6.547   3.610  10.014
 4644W        W 8708   2.532   3.296   9.846
 4645W        W 8709   0.953   6.154  10.864
 4646W        W 8710   8.904   7.428   3.164
 4647W        W 8711   6.904   6.544   3.651
 4648W        W 8712  10.349   4.724   9.835
 4649W        W 8713   5.473   0.442   1.840
 4650W        W 8714   5.493   3.608   1.922
 4651W        W 8715   8.525   7.747   1.416
 4652W        W 8716   6.486   4.532   4.138
 4653W        W 8717   1.810   9.814   1.170
 4654W        W 8718   8.630   4.146   9.480
 4655W        W 8719   0.365   2.878  11.946
 4656W        W 8720   4.993   8.567   2.933
 4657W        W 8721   8.339   5.125   3.489
 4658W        W 8722   8.060  10.342   8.818
 4659W        W 8723  10.437   2.496  11.935
 4660W        W 8724   4.299   8.583   2.815
 4661W        W 8725   9.567  10.079  10.878
 4662W        W 8726   3.889   4.636   9.375
 4663W        W 8727   1.157   7.426   9.081
 4664W        W 8728   4.781   2.095  11.766
 4665W        W 8729   8.773   0.147  11.364
 4666W        W 8730   3.948   5.607   8.487
 4667W        W 8731   3.718   2.279   1.513
 4668W        W 8732   2.249   2.392   9.039
 4669W        W 8733   7.380   4.592   0.818
 4670W        W 8734   5.156   0.847   9.438
 4671W        W 8735   7.027   8.472   1.780
 4672W        W 8736   9.336   3.169   3.282
 4673W        W 8737   0.834   1.007   8.887
 4674W        W 8738   1.164   7.976  11.066
 4675W        W 8739   0.007   0.516   2.175
 4676W        W 8740   5.654   7.044  10.949
 4677W        W 8741   6.567  10.138   3.428
 4678W        W 8742   8.506   1.480  10.866
 4679W        W 8743   7.532   4.797  10.742
 4680W        W 8744   4.685   4.697  10.460
 4681W        W 8745   3.766   0.895  11.682
 4682W        W 8746   9.602   3.841  10.335
 4683W        W 8747   8.679   3.245   9.350
 4684W        W 8748   3.334   5.528  11.999
 4685W        W 8749   5.672   4.807   9.860
 4686W        W 8750   0.264   0.826  10.169
 4687W        W 8751   3.202   5.882   8.543
 4688W        W 8752   1.783   7.926  10.397
 4689W        W 8753   6.586  10.229   1.874
 4690W        W 8754   8.065   9.864   1.935
 4691W        W 8755   4.596   7.874  11.175
 4692W        W 8756   2.619   0.908   1.165
 4693W        W 8757   6.212   7.412   0.017
 4694W        W 8758   9.319   2.475   9.497
 4695W        W 8759   1.813   6.767   2.771
 4696W        W 8760   1.671   6.846   9.793
 4697W        W 8761   0.260   2.005   9.483
 4698W        W 8762   8.536   6.038  11.840
 4699W        W 8763   3.167   2.865   8.807
 4700W        W 8764   9.941   0.884   1.776
 4701W        W 8765   5.478   8.992   0.807
 4702W        W 8766   6.115   3.257  11.659
 4703W        W 8767   9.992   1.736  11.931
 4704W        W 8768   2.999   4.107  11.833
 4705W        W 8769   1.772   1.297  10.238
 4706W        W 8770   3.575   0.066  11.243
 4707W        W 8771   0.389   6.917   8.959
 4708W        W 8772   7.155   5.754   1.375
 4709W        W 8773   5.489   2.859   9.714
 4710W        W 8774   8.417   2.065   1.682
 4711W        W 8775   8.436   9.736   0.287
 4712W        W 8776   6.436   9.352   0.374
 4713W        W 8777   6.950   4.691   4.340
 4714W        W 8778   8.564   3.802   9.854
 4715W        W 8779   3.217   2.330   1.433
 4716W        W 8780   1.390   5.205   1.377
 4717W        W 8781   0.189   0.668   3.197
 4718W        W 8782   7.895   4.999  11.049
 4719W        W 8783   0.705   4.974   9.779
 4720W        W 8784  10.278   5.674   9.625
 4721W        W 8785  10.111   3.637   8.534
 4722W        W 8786   9.118   4.742  10.652
 4723W        W 8787   7.601   0.429   0.365
 4724W        W 8788   5.255   4.062   2.291
 4725W        W 8789   9.780   9.820   3.355
 4726W        W 8790   1.935   8.320  11.019
 4727W        W 8791   9.252   4.053  11.803
 4728W        W 8792   1.395   5.565  10.042
 4729W        W 8793   2.136   8.470   9.656
 4730W        W 8794   8.442   6.433  11.281
 4731W        W 8795   8.344   8.360   3.095
 4732W        W 8796   7.700   9.962   1.317
 4733W        W 8797   7.083   3.582  10.187
 4734W        W 8798   9.399   6.014  10.896
 4735W        W 8799   7.784  10.238   1.736
 4736W        W 8800   4.749   5.774   9.577
 4737W        W 8801   6.175   6.249   2.286
 4738W        W 8802   7.537   2.174  10.240
 4739W        W 8803   6.626   0.211   0.712
 4740W        W 8804   6.159   0.888   8.447
 4741W        W 8805   7.374   0.890   0.410
 4742W        W 8806   9.599   3.872   9.824
 4743W        W 8807  10.371   9.211   2.086
 4744W        W 8808   6.108   8.049   1.890
 4745W        W 8809  10.194   1.539   0.348
 4746W        W 8810   7.105   5.085   0.191
 4747W        W 8811   8.598   3.035   2.309
 4748W        W 8812   2.800   5.196   9.052
 4749W        W 8813   8.249   6.205   9.927
 4750W        W 8814   4.222   6.718  10.568
 4751W        W 8815   3.630   3.659   8.919
 4752W        W 8816   0.769   3.574   8.667
 4753W        W 8817   4.314   3.306  10.453
 4754W        W 8818   3.685   6.725  10.052
 4755W        W 8819   0.756   0.736   3.169
 4756W        W 8820   2.779   8.350  10.868
 4757W        W 8821   4.672   4.910   9.345
 4758W        W 8822   5.519   5.862  10.763
 4759W        W 8823   5.307   5.057   1.937
 4760W        W 8824   7.507   0.798   9.548
 4761W        W 8825   5.150   6.208  11.047
 4762W        W 8826   6.511   6.086   3.032
 4763W        W 8827   5.477   1.334   9.470
 4764W        W 8828  10.434   3.515   0.467
 4765W        W 8829   2.486   5.258  11.506
 4766W        W 8830  10.192   4.012   3.646
 4767W        W 8831   9.314   6.649   2.327
 4768W        W 8832   2.639   1.184   9.507
 4769W        W 8833  10.411   9.136  10.890
 4770W        W 8834   0.862   3.104   0.071
 4771W        W 8835   4.602   6.431   3.724
 4772W        W 8836   2.441   5.142  12.000
 4773W        W 8837   7.769   0.639  10.089
 4774W        W 8838   0.873   0.253   3.620
 4775W        W 8839   3.123  10.419   1.420
 4776W        W 8840   8.432   7.311   2.459
 4777W        W 8841   8.501   7.586   2.866
 4778W        W 8842   0.855   7.650   0.346
 4779W        W 8843   0.868   9.513   0.918
 4780W        W 8844   0.936   9.865  11.264
 4781W        W 8845   8.733   9.770  11.787
 4782W        W 8846   1.052   6.311   2.794
 4783W        W 8847  10.453   9.975   0.922
 4784W        W 8848   4.581   2.986  11.427
 4785W        W 8849   1.853   0.870   2.867
 4786W        W 8850   1.702   2.554   2.356
 4787W        W 8851   5.987   0.525   0.136
 4788W        W 8852   8.074   4.839   1.107
 4789W        W 8853   2.685   2.381   2.390
 4790W        W 8854   0.282   3.649  10.511
 4791W        W 8855   3.627   6.220  10.049
 4792W        W 8856   6.571   5.232   0.885
 4793W        W 8857   6.599   5.907   9.552
 4794W        W 8858   6.694   8.689   0.850
 4795W        W 8859   2.361   0.758   2.836
 4796W        W 8860   6.752   9.124   0.036
 4797W        W 8861   1.761   3.136   8.905
 4798W        W 8862   4.996   7.332   9.952
 4799W        W 8863   1.919  10.022   0.262
 4800W        W 8864   8.721   1.839   8.666
 4801W        W 8865   6.583   0.683   2.217
 4802W        W 8866   9.609   6.571   3.266
 4803W        W 8867   2.273   3.410   8.848
 4804W        W 8868   1.773   7.441   0.160
 4805W        W 8869   1.306   6.118  10.455
 4806W        W 8870   3.837   4.642   8.822
 4807W        W 8871   3.723   8.597   9.102
 4808W        W 8872   4.069   2.391   8.968
 4809W        W 8873   1.186   7.980   9.686
 4810W        W 8874   4.316   4.851   8.120
 4811W        W 8875   3.932   2.748  10.869
 4812W        W 8876   4.020   0.008   1.817
 4813W        W 8877   6.570   9.966   1.267
 4814W        W 8878   6.993   6.180   2.201
 4815W        W 8879   4.297  10.060   9.512
 4816W        W 8880   3.662   0.826   0.692
 4817W        W 8881  10.414   3.568   0.988
 4818W        W 8882   1.233   1.080  11.557
 4819W        W 8883   9.582   7.881   0.779
 4820W        W 8884   5.543   3.447   8.971
 4821W        W 8885   7.004   2.430  11.555
 4822W        W 8886   0.990   4.201  11.323
 4823W        W 8887   9.462   0.029  10.691
 4824W        W 8888   1.239  10.219   9.896
 4825W        W 8889   4.335   0.505  11.333
 4826W        W 8890   2.718   9.979   9.938
 4827W        W 8891   4.117   2.953   3.141
 4828W        W 8892  10.472   9.427  10.498
 4829W        W 8893   3.304   8.414   1.576
 4830W        W 8894   3.366   3.191   2.601
 4831W        W 8895   3.246   5.122  10.239
 4832W        W 8896   5.244   0.014   2.285
 4833W        W 8897   9.483   1.881   1.531
 4834W        W 8898   4.151   8.957   3.308
 4835W        W 8899   2.331   5.283   8.802
 4836W        W 8900   7.934   8.453   0.116
 4837W        W 8901   0.476   4.334   9.321
 4838W        W 8902   4.565   6.982   3.954
 4839W        W 8903   9.872   4.674   0.761
 4840W        W 8904   8.144   9.044   1.820
 4841W        W 8905   0.671   9.882  10.826
 4842W        W 8906   5.180   0.418  11.665
 4843W        W 8907   4.942   7.031   9.530
 4844W        W 8908   9.751   4.162  11.802
 4845W        W 8909   1.311   5.847   8.495
 4846W        W 8910   5.715   9.889  10.333
 4847W        W 8911   2.384   4.624   2.247
 4848W        W 8912   4.137   6.909  10.076
 4849W        W 8913   6.937   4.419   1.055
 4850W        W 8914   5.734  10.074   0.021
 4851W        W 8915   9.405   2.979   8.632
 4852W        W 8916   8.115   4.333  11.312
 4853W        W 8917   6.619   9.921  10.388
 4854W        W 8918   5.470   3.586   3.933
 4855W        W 8919   2.951   6.433  11.875
 4856W        W 8920   6.799   7.068   3.627
 4857W        W 8921   2.349  10.462   2.303
 4858W        W 8922   9.728   2.185  10.241
 4859W        W 8923   6.970   4.614   0.546
 4860W        W 8924   3.716   9.494   2.170
 4861W        W 8925   0.255   4.207   3.009
 4862W        W 8926   3.077   0.442   8.925
 4863W        W 8927   0.683   6.675   1.915
 4864W        W 8928   6.642   2.588  11.906
 4865W        W 8929   6.337   9.151   3.705
 4866W        W 8930   4.714   1.832  10.073
 4867W        W 8931   0.679   3.698   2.539
 4868W        W 8932   4.490   0.354   8.920
 4869W        W 8933   0.881   6.355   0.881
 4870W        W 8934   0.336   2.350  11.011
 4871W        W 8935  10.378   0.883   0.986
 4872W        W 8936   3.603   3.670  11.937
 4873W        W 8937   7.566   8.773  11.949
 4874W        W 8938   8.515   1.369  10.076
 4875W        W 8939   7.095   7.617  10.667
 4876W        W 8940   0.369   9.994   1.222
 4877W        W 8941   5.135   6.906   0.287
 4878W        W 8942   4.916   0.040   1.412
 4879W        W 8943   4.337   7.011   1.835
 4880W        W 8944   6.455   0.289   9.844
 4881W        W 8945   0.768  10.386   0.362
 4882W        W 8946   8.373   3.166  10.350
 4883W        W 8947   2.990   5.302   0.897
 4884W        W 8948   5.983   3.212   2.680
 4885W        W 8949   2.440   6.494   9.449
 4886W        W 8950   4.880   3.230   3.452
 4887W        W 8951   6.936   0.783  10.378
 4888W        W 8952   6.344   4.602   2.083
 4889W        W 8953   1.892   8.435  10.513
 4890W        W 8954   2.642   0.724  11.377
 4891W        W 8955   7.763   1.204   8.364
 4892W        W 8956   9.469   6.723   1.358
 4893W        W 8957   0.988   0.247   1.381
 4894W        W 8958   7.205   7.690   2.246
 4895W        W 8959   5.149   7.577  10.394
 4896W        W 8960   9.411   9.524   1.551
 4897W        W 8961  10.497   8.486   1.314
 4898W        W 8962   7.440   6.624   2.849
 4899W        W 8963   8.620   2.282   8.900
 4900W        W 8964   8.230   9.961  11.890
 4901W        W 8965   2.304   2.450   8.515
 4902W        W 8966   6.638   4.935   1.787
 4903W        W 8967   0.173   8.485   0.828
 4904W        W 8968   9.280   2.740   2.696
 4905W        W 8969   4.420   6.181  11.442
 4906W        W 8970   3.128  10.313   0.485
 4907W        W 8971   8.934   1.163  10.802
 4908W        W 8972   2.818   1.260   8.634
 4909W        W 8973   8.866   2.612  10.416
 4910W        W 8974   7.793   4.989   9.182
 4911W        W 8975   0.850   4.451   9.642
 4912W        W 8976   6.417   2.848  10.428
 4913W        W 8977   0.228   8.956   0.632
 4914W        W 8978   6.455   1.150   2.411
 4915W        W 8979   5.899   3.634   4.225
 4916W        W 8980   6.465   7.373   2.635
 4917W        W 8981   7.531   3.765   2.967
 4918W        W 8982   9.639   3.223   1.793
 4919W        W 8983   9.354   1.801  11.273
 4920W        W 8984   9.428   7.766   0.297
 4921W        W 8985   1.457   8.779   0.137
 4922W        W 8986   7.020   5.475   9.191
 4923W        W 8987   0.035   4.152  10.515
 4924W        W 8988   7.706   8.075  10.388
 4925W        W 8989   0.718   7.045   3.278
 4926W        W 8990   0.625   9.836   2.149
 4927W        W 8991   2.192   1.317  11.018
 4928W        W 8992   3.285   6.012  11.869
 4929W        W 8993   0.033   3.317  11.102
 4930W        W 8994   8.555   3.308   1.192
 4931W        W 8995   4.488   6.476   1.719
 4932W        W 8996   5.987   2.608  10.442
 4933W        W 8997   1.693   8.004   2.782
 4934W        W 8998   6.936   9.546   9.980
 4935W        W 8999   7.207   6.571  11.223
 4936W        W 9000   2.471   7.522   2.754
 4937W        W 9001   7.292   1.686   0.954
 4938W        W 9002   6.230   4.524   3.407
 4939W        W 9003   6.035   0.430  10.112
 4940W        W 9004   0.131   4.686   1.975
 4941W        W 9005   0.600   4.117   3.445
 4942W        W 9006   9.954   3.518   0.262
 4943W        W 9007   7.950   7.203   1.874
 4944W        W 9008   4.694   4.010   3.836
 4945W        W 9009   9.977   9.046   2.403
 4946W        W 9010   8.518   4.975   8.421
 4947W        W 9011   7.467   4.127  10.447
 4948W        W 9012   2.239   1.144  11.869
 4949W        W 9013   0.769   3.690   2.035
 4950W        W 9014   9.099   1.670   1.201
 4951W        W 9015   4.427   4.205  11.891
 4952W        W 9016   5.578   1.399   1.550
 4953W        W 9017   7.479   0.738   2.668
 4954W        W 9018   6.654   4.691   3.661
 4955W        W 9019   0.989   9.006   1.666
 4956W        W 9020   1.993   6.259   9.473
 4957W        W 9021   3.697   2.680   3.300
 4958W        W 9022   2.355   4.281  10.030
 4959W        W 9023   7.606   7.896   3.147
 4960W        W 9024   8.822   8.978   3.122
 4961W        W 9025   0.177   4.763   0.293
 4962W        W 9026   2.766   4.832  11.644
 4963W        W 9027   6.230   8.363   9.781
 4964W        W 9028   1.053   3.553   2.861
 4965W        W 9029   6.870   8.978   2.225
 4966W        W 9030   2.658   8.488   1.702
 4967W        W 9031   6.938   3.828  11.308
 4968W        W 9032  10.399   8.817   3.345
 4969W        W 9033   1.983   2.553  11.840
 4970W        W 9034   5.610   0.893   9.208
 4971W        W 9035   7.567   8.699   2.824
 4972W        W 9036   0.961   4.353   3.180
 4973W        W 9037   5.417   3.300   9.944
 4974W        W 9038   3.071   4.106   2.788
 4975W        W 9039   7.839   4.525  11.695
 4976W        W 9040   1.397   2.992   2.136
 4977W        W 9041   7.572   9.750   1.881
 4978W        W 9042   0.797   3.167   0.582
 4979W        W 9043   3.598   6.443   2.708
 4980W        W 9044   2.765   9.071   0.685
 4981W        W 9045   9.131   6.495   3.399
 4982W        W 9046   5.476   0.608  10.697
 4983W        W 9047   0.855   9.856   2.608
 4984W        W 9048   7.562  10.065   8.667
 4985W        W 9049   4.219   7.774  11.622
 4986W        W 9050   1.974   1.020   2.379
 4987W        W 9051   2.170  10.092   1.429
 4988W        W 9052   3.569   1.939   2.636
 4989W        W 9053   7.439   4.286  10.924
 4990W        W 9054   7.214   1.815   8.939
 4991W        W 9055   8.565   6.869   1.179
 4992W        W 9056   7.933   2.689   2.247
 4993W        W 9057   9.455   5.589   9.770
 4994W        W 9058   4.607   7.874   1.921
 4995W        W 9059   4.819   0.336  11.297
 4996W        W 9060   6.398   0.854  10.474
 4997W        W 9061   1.626   2.813  10.441
 4998W        W 9062   0.826   1.697   3.304
 4999W        W 9063   4.543   7.120   9.829
 5000W        W 9064   1.939   2.825   8.516
 5001W        W 9065   9.809   5.926  10.580
 5002W        W 9066   4.854   7.544   9.501
 5003W        W 9067   3.410   6.567   9.284
 5004W        W 9068   0.484   2.559   0.308
 5005W        W 9069   1.878   4.219   8.791
 5006W        W 9070   2.204   1.626   8.916
 5007W        W 9071   2.703   3.790   9.786
 5008W        W 9072   4.822   1.175  11.377
 5009W        W 9073   1.647   5.188   0.697
 5010W        W 9074   9.899   6.115   9.122
 5011W        W 9075   9.017   4.220   2.032
 5012W        W 9076   9.191  10.044   9.372
 5013W        W 9077   6.500   9.470  10.225
 5014W        W 9078   8.248   4.534   8.567
 5015W        W 9079   8.833   2.069  11.629
 5016W        W 9080   8.119   9.260  10.118
 5017W        W 9081  10.028   2.102   3.166
 5018W        W 9082  10.215   5.669   9.082
 5019W        W 9083   7.094   6.771  10.346
 5020W        W 9084   9.967  10.301  10.513
 5021W        W 9085   2.261   0.794   8.553
 5022W        W 9086   4.742   6.000   0.520
 5023W        W 9087   8.095   6.731  10.530
 5024W        W 9088   1.250   1.925   3.143
 5025W        W 9089   8.463   5.461   1.705
 5026W        W 9090   5.553   3.355   2.920
 5027W        W 9091  10.296   7.419   2.900
 5028W        W 9092   8.849   4.213   2.903
 5029W        W 9093   0.184   5.648   9.278
 5030W        W 9094   7.611   4.606  10.283
 5031W        W 9095   6.257   0.210   1.523
 5032W        W 9096   4.302  10.043   1.766
 5033W        W 9097   7.963   9.573   0.110
 5034W        W 9098   6.477   4.560   9.940
 5035W        W 9099   9.285   8.366   9.709
 5036W        W 9100   4.161   2.232  10.872
 5037W        W 9101   0.321   4.956   1.181
 5038W        W 9102   3.872   7.214   1.917
 5039W        W 9103   1.616  10.367   1.843
 5040W        W 9104   4.667   7.511   2.787
 5041W        W 9105   8.881   9.831   8.861
 5042W        W 9106   2.087   7.189   2.933
 5043W        W 9107   1.815   1.292   3.225
 5044W        W 9108   8.067   2.138   0.424
 5045W        W 9109   7.020   6.264  10.352
 5046W        W 9110   0.717   4.341  11.747
 5047W        W 9111   5.930   7.850  11.997
 5048W        W 9112  10.349   0.930  10.512
 5049W        W 9113   9.989   6.036   1.364
 5050W        W 9114   7.542   3.611  10.465
 5051W        W 9115   1.443   0.063   0.986
 5052W        W 9116   5.949   6.598   0.276
 5053W        W 9117   2.673   7.455   0.170
 5054W        W 9118   0.208   4.084  10.051
 5055W        W 9119   5.943  10.036  11.554
 5056W        W 9120   9.320   7.899   9.444
 5057W        W 9121   4.423   0.379   8.392
 5058W        W 9122   7.932   7.688  11.352
 5059W        W 9123   6.140   5.927  11.815
 5060W        W 9124   1.837   8.968  11.711
 5061W        W 9125   6.441   6.934  11.518
 5062W        W 9126   4.737   3.384  11.699
 5063W        W 9127   8.472   2.185   2.270
 5064W        W 9128   6.895   5.142  11.243
 5065W        W 9129   5.577   7.893  11.320
 5066W        W 9130   9.395   3.708   1.926
 5067W        W 9131   2.956   0.620   2.065
 5068W        W 9132   5.291   0.457  11.156
 5069W        W 9133   2.887   8.571   0.730
 5070W        W 9134   4.071   1.547  10.590
 5071W        W 9135   1.833   4.915  11.598
 5072W        W 9136   2.815   0.125   2.223
 5073W        W 9137   4.151   0.799   0.914
 5074W        W 9138   6.134   6.751   2.344
 5075W        W 9139   3.689   6.122   0.231
 5076W        W 9140   8.801   5.979  10.870
 5077W        W 9141   7.868   9.954   3.322
 5078W        W 9142   4.162   7.480   3.548
 5079W        W 9143   2.568   7.104   3.071
 5080W        W 9144   2.774   1.252   1.506
 5081W        W 9145   1.970   7.514   0.817
 5082W        W 9146   1.225   5.787   2.810
 5083W        W 9147   8.497   7.427  11.100
 5084W        W 9148   3.939   6.786   2.883
 5085W        W 9149   6.996   7.631   0.079
 5086W        W 9150   7.934   0.081   2.101
 5087W        W 9151   0.291   2.325   2.441
 5088W        W 9152   7.999   0.883   2.770
 5089W        W 9153   5.783   3.436   8.495
 5090W        W 9154   5.264   4.622   3.176
 5091W        W 9155   6.534   1.976   2.798
 5092W        W 9156   6.653   0.675  11.771
 5093W        W 9157   1.911   9.915  11.320
 5094W        W 9158   4.718   0.914   1.678
 5095W        W 9159   9.874   8.351   1.941
 5096W        W 9160   7.577   5.719   2.601
 5097W        W 9161   0.406  10.360   3.470
 5098W        W 9162   8.153   1.804   2.178
 5099W        W 9163   9.029   1.161   1.221
 5100W        W 9164   3.851   6.449   4.111
 5101W        W 9165   6.834   3.168   8.802
 5102W        W 9166   8.721   0.394   2.515
 5103W        W 9167   1.124   6.883   1.792
 5104W        W 9168   7.938   0.941  10.468
 5105W        W 9169   9.069   9.480  11.460
 5106W        W 9170   5.060   1.268   0.903
 5107W        W 9171   9.929   0.450  11.301
 5108W        W 9172   5.939   1.056  10.500
 5109W        W 9173   9.961   6.545   1.407
 5110W        W 9174   5.578  10.211   1.423
 5111W        W 9175   7.444   2.902   0.454
 5112W        W 9176   8.554   1.514   9.027
 5113W        W 9177   6.092   9.935   2.192
 5114W        W 9178   2.278   4.668   0.248
 5115W        W 9179   1.685   8.757   0.607
 5116W        W 9180   0.328   1.189   9.044
 5117W        W 9181  10.291   5.276  11.880
 5118W        W 9182   4.038   6.660  11.931
 5119W        W 9183   8.303   0.796   9.530
 5120W        W 9184   4.330   1.772  10.955
 5121W        W 9185   5.730   5.284   1.126
 5122W        W 9186   1.670   3.174  10.081
 5123W        W 9187  10.136   7.845   3.134
 5124W        W 9188   5.613   8.885  11.197
 5125W        W 9189   4.730   0.283  10.114
 5126W        W 9190   3.653   2.445   9.576
 5127W        W 9191   3.629   2.231  11.576
 5128W        W 9192   0.499   6.341  10.762
 5129W        W 9193   8.998   0.378   1.704
 5130W        W 9194   7.130   6.684   0.222
 5131W        W 9195   7.544   9.483   1.291
 5132W        W 9196   1.649   2.559   9.556
 5133W        W 9197   1.376   6.101   8.928
 5134W        W 9198   2.477   4.147   0.369
 5135W        W 9199   0.877   8.992   2.185
 5136W        W 9200   2.293   0.563   1.423
 5137W        W 9201   6.422   9.353  11.259
 5138W        W 9202   1.597   8.596   3.607
 5139W        W 9203  10.172   6.993   1.885
 5140W        W 9204  10.354   9.311   9.488
 5141W        W 9205   0.725   9.433  11.059
 5142W        W 9206   2.497   5.118   0.917
 5143W        W 9207   0.796   2.404  11.263
 5144W        W 9208   4.186   1.240   1.193
 5145W        W 9209   6.011   5.726   0.393
 5146W        W 9210   2.249   4.235  11.862
 5147W        W 9211   9.071   8.814   0.079
 5148W        W 9212   9.464  10.007   0.227
 5149W        W 9213   4.786   6.545  11.223
 5150W        W 9214   9.344   2.311   1.820
 5151W        W 9215   1.730   7.149   9.369
 5152W        W 9216   3.881   5.490  10.807
 5153W        W 9217   4.624   3.761   0.043
 5154W        W 9218   4.361   4.285  10.422
 5155W        W 9219   2.826   0.924   9.062
 5156W        W 9220   5.314   6.241  11.884
 5157W        W 9221   4.204   0.323   1.234
 5158W        W 9222   3.188   2.380   0.546
 5159W        W 9223   8.920   1.624  10.605
 5160W        W 9224  10.356   3.718  10.232
 5161W        W 9225   6.276   9.031  10.372
 5162W        W 9226   9.586   3.304   9.084
 5163W        W 9227   1.735   9.057  10.288
 5164W        W 9228   6.100   3.635  11.298
 5165W        W 9229   0.817   1.199   3.385
 5166W        W 9230   3.530  10.490   1.725
 5167W        W 9231   4.983   9.452   8.764
 5168W        W 9232   0.352   9.102  11.770
 5169W        W 9233   2.237   8.697   8.832
 5170W        W 9234   0.367   1.298   1.228
 5171W        W 9235   6.449   3.820   1.505
 5172W        W 9236   2.794   5.987   2.613
 5173W        W 9237   0.200   5.514   2.844
 5174W        W 9238   0.900   4.444   2.659
 5175W        W 9239   3.526   2.164   9.993
 5176W        W 9240   4.620   6.058   9.132
 5177W        W 9241   7.017   6.382   0.898
 5178W        W 9242   8.128   8.709   2.213
 5179W        W 9243   5.163   7.201  10.910
 5180W        W 9244   8.947   1.548  11.126
 5181W        W 9245   9.788   4.513   8.744
 5182W        W 9246   0.370   1.431   2.207
 5183W        W 9247   1.297   7.647   2.808
 5184W        W 9248   0.470   5.996   0.171
 5185W        W 9249   6.237   6.522  10.595
 5186W        W 9250   8.291   3.647   1.846
 5187W        W 9251   9.015   6.094   9.452
 5188W        W 9252   0.636   5.371  10.520
 5189W        W 9253   2.204   0.272   8.576
 5190W        W 9254   1.623   8.680   2.299
 5191W        W 9255   5.623   8.498   0.708
 5192W        W 9256   5.207   6.018   0.314
 5193W        W 9257   4.563   1.923   3.196
 5194W        W 9258   4.091   3.758   9.865
 5195W        W 9259   2.909   6.062  11.516
 5196W        W 9260   0.870   1.380  11.745
 5197W        W 9261   6.283   1.673   0.971
 5198W        W 9262   8.208   0.402   2.469
 5199W        W 9263   9.443   7.061   3.085
 5200W        W 9264   3.128   8.056  10.587
 5201W        W 9265  10.161   2.147   9.922
 5202W        W 9266   7.731   9.022   0.367
 5203W        W 9267   5.834   6.533   1.369
 5204W        W 9268   4.568  10.058   1.305
 5205W        W 9269   7.132   8.559  11.034
 5206W        W 9270   1.456   6.129  11.810
 5207W        W 9271   8.675   5.569  11.191
 5208W        W 9272   2.198   7.857   9.197
 5209W        W 9273   4.228   4.076   3.628
 5210W        W 9274   1.691   9.963   3.187
 5211W        W 9275   7.277   4.042   8.540
 5212W        W 9276   8.033   9.545   9.271
 5213W        W 9277   1.929   5.032   0.113
 5214W        W 9278   4.285   8.353   2.237
 5215W        W 9279   0.429   4.159   2.532
 5216W        W 9280   5.387   6.366   1.699
 5217W        W 9281   7.342   9.018   1.310
 5218W        W 9282   7.715   3.753   1.024
 5219W        W 9283   1.338   4.755   2.724
 5220W        W 9284   4.220   6.202   9.426
 5221W        W 9285   6.091   3.036   1.208
 5222W        W 9286   6.158   9.991  10.579
 5223W        W 9287   7.644   1.857   9.267
 5224W        W 9288   8.083   7.578  11.863
 5225W        W 9289  10.279   1.869   9.506
 5226W        W 9290   5.064   5.053   2.373
 5227W        W 9291   5.804   8.175  10.500
 5228W        W 9292   9.195   5.555   8.777
 5229W        W 9293   1.714  10.282   1.318
 5230W        W 9294   2.701   2.302   9.276
 5231W        W 9295   7.731   6.038   0.489
 5232W        W 9296   4.357   8.576   1.299
 5233W        W 9297   6.877   3.951   1.237
 5234W        W 9298   9.466   5.582   3.130
 5235W        W 9299   5.075   8.592   0.133
 5236W        W 9300   4.826   2.289  10.256
 5237W        W 9301   9.383   1.938   2.906
 5238W        W 9302   2.451   2.799   2.175
 5239W        W 9303   8.743   1.176   2.528
 5240W        W 9304   1.523   9.493   3.059
 5241W        W 9305   7.210   0.567  10.854
 5242W        W 9306   0.825   4.196   2.208
 5243W        W 9307  10.210   4.486   2.162
 5244W        W 9308   5.420   6.143   3.371
 5245W        W 9309   8.644   0.494   0.649
 5246W        W 9310   4.503   4.041   9.323
 5247W        W 9311   6.596   7.432   0.360
 5248W        W 9312   1.481  10.209   0.073
 5249W        W 9313   0.895   2.090   8.547
 5250W        W 9314   2.962   8.103   1.856
 5251W        W 9315   8.470   6.477  10.316
 5252W        W 9316   2.122   4.229   1.859
 5253W        W 9317   5.048  10.088   8.439
 5254W        W 9318   2.041   1.836   1.097
 5255W        W 9319   0.368   3.431   9.462
 5256W        W 9320   9.471   3.303   0.900
 5257W        W 9321   4.964   7.801   1.114
 5258W        W 9322   6.498   3.761   3.483
 5259W        W 9323   9.936   3.055   9.838
 5260W        W 9324   0.474   5.048   1.674
 5261W        W 9325   2.308   1.917   8.519
 5262W        W 9326   9.130   8.686   2.322
 5263W        W 9327   9.442  10.495   9.455
 5264W        W 9328   6.432   8.206  11.860
 5265W        W 9329  10.419   9.755   9.836
 5266W        W 9330   9.688   2.183   9.732
 5267W        W 9331   8.882   0.671   1.281
 5268W        W 9332   9.426   7.443   9.622
 5269W        W 9333   4.863   1.350   0.447
 5270W        W 9334   2.035   6.133   2.765
 5271W        W 9335   6.118   2.219   2.620
 5272W        W 9336   9.747   9.489   0.423
 5273W        W 9337   9.897   1.186   3.069
 5274W        W 9338   3.395   2.807   1.377
 5275W        W 9339   1.779   5.161   2.167
 5276W        W 9340   4.544   3.678   3.475
 5277W        W 9341   4.615   0.944   0.673
 5278W        W 9342   7.657   8.742   3.338
 5279W        W 9343   1.674   5.733  11.531
 5280W        W 9344   4.839   4.380   9.589
 5281W        W 9345   5.545   7.427   0.759
 5282W        W 9346   7.815   8.024  10.938
 5283W        W 9347   3.194   5.533   8.932
 5284W        W 9348   3.924   6.151  11.360
 5285W        W 9349   9.268  10.449   1.790
 5286W        W 9350   7.013   0.825   2.450
 5287W        W 9351   5.224   6.997   2.671
 5288W        W 9352   0.529   6.836   1.426
 5289W        W 9353   2.945   3.267   3.460
 5290W        W 9354   0.904   2.422   2.679
 5291W        W 9355  10.007   4.112  11.357
 5292W        W 9356   0.066   5.967   8.411
 5293W        W 9357   5.082   7.088   3.500
 5294W        W 9358   9.699   2.879   2.990
 5295W        W 9359   7.405  10.009  11.482
 5296W        W 9360  10.426   3.097   0.755
 5297W        W 9361   9.394   9.494   1.024
 5298W        W 9362   4.630   8.119   0.901
 5299W        W 9363   8.854   9.947   0.500
 5300W        W 9364   4.284   0.411   9.907
 5301W        W 9365   8.461   5.422   9.495
 5302W        W 9366  10.419   2.141   9.073
 5303W        W 9367   2.556   9.669   2.249
 5304W        W 9368   5.272   7.397   1.190
 5305W        W 9369   1.743   6.169   0.766
 5306W        W 9370   9.509   0.508  11.009
 5307W        W 9371  10.039   8.854   1.899
 5308W        W 9372   9.695   0.816   9.457
 5309W        W 9373   9.332   5.945   2.760
 5310W        W 9374   5.212   8.342   1.952
 5311W        W 9375   2.154   0.426   9.368
 5312W        W 9376   4.013  10.229   1.375
 5313W        W 9377   0.323   0.303  10.258
 5314W        W 9378   4.059   4.983   1.296
 5315W        W 9379   3.185   0.869   0.443
 5316W        W 9380  10.013   2.389   8.798
 5317W        W 9381  10.279   5.233   3.358
 5318W        W 9382   9.071   3.228   0.394
 5319W        W 9383   6.980  10.448  10.951
 5320W        W 9384   4.059   4.452   1.346
 5321W        W 9385   6.074   8.995  11.360
 5322W        W 9386   1.979   4.239  10.398
 5323W        W 9387   7.578   1.453  11.637
 5324W        W 9388   2.909   9.835   0.458
 5325W        W 9389   7.655   5.225   2.684
 5326W        W 9390   0.921   8.416   8.871
 5327W        W 9391  10.306   4.528  11.360
 5328W        W 9392   0.759   4.503   1.348
 5329W        W 9393   3.062   0.970   9.683
 5330W        W 9394   1.176   8.871   8.934
 5331W        W 9395   7.487   3.821   2.433
 5332W        W 9396   5.236   5.843  11.363
 5333W        W 9397   4.353   7.096   2.850
 5334W        W 9398   7.500   3.712   3.502
 5335W        W 9399   0.141   3.213   3.233
 5336W        W 9400   7.442   7.002   1.949
 5337W        W 9401   2.698   6.599   3.270
 5338W        W 9402   5.126   2.598   2.873
 5339W        W 9403   2.370   6.872   0.616
 5340W        W 9404   8.968   6.928   3.228
 5341W        W 9405   8.344   0.888   0.506
 5342W        W 9406   5.358   6.519   1.199
 5343W        W 9407   2.256   7.539   2.232
 5344W        W 9408   5.001   9.456  11.253
 5345W        W 9409   9.810   0.732   3.322
 5346W        W 9410   9.365   2.865   1.173
 5347W        W 9411   0.804   7.427   9.974
 5348W        W 9412   5.174   4.730   8.727
 5349W        W 9413   6.422   1.409   8.980
 5350W        W 9414   1.503   2.773   1.259
 5351W        W 9415   9.425   8.522  10.381
 5352W        W 9416   0.637   6.452   0.016
 5353W        W 9417   1.362   8.438   9.163
 5354W        W 9418   7.573   7.068   1.174
 5355W        W 9419   4.220   6.784   4.279
 5356W        W 9420   0.492   0.344   1.443
 5357W        W 9421   8.180   8.004  10.569
 5358W        W 9422   4.138   6.150  11.899
 5359W        W 9423   7.943   5.877   9.054
 5360W        W 9424   9.958   7.853   1.793
 5361W        W 9425   5.601   8.953  10.685
 5362W        W 9426   7.854   1.391   1.993
 5363W        W 9427   0.079   0.218   2.946
 5364W        W 9428   1.274   3.671   1.534
 5365W        W 9429   8.398   7.003   0.720
 5366W        W 9430   1.268   7.074   9.520
 5367W        W 9431   4.124   5.349   8.906
 5368W        W 9432   6.127   3.530   2.247
 5369W        W 9433   9.869   2.738   1.978
 5370W        W 9434   6.544   6.172   0.842
 5371W        W 9435   9.398   4.729   9.295
 5372W        W 9436   1.564   1.305   0.557
 5373W        W 9437   9.475   5.632  11.280
 5374W        W 9438   0.767   2.986  10.541
 5375W        W 9439   2.448   5.612   3.214
 5376W        W 9440   0.649   9.406   2.412
 5377W        W 9441   2.418   0.366   9.810
 5378W        W 9442   9.943   1.821   1.301
 5379W        W 9443   2.248   7.286  11.895
 5380W        W 9444   6.946   3.791  11.834
 5381W        W 9445   4.624   8.325   3.199
 5382W        W 9446   5.614   9.839  10.863
 5383W        W 9447   8.348   6.599   9.008
 5384W        W 9448   8.837   9.894  10.236
 5385W        W 9449   4.542   9.065   1.151
 5386W        W 9450   3.197   9.181   1.017
 5387W        W 9451   3.736   8.094   9.016
 5388W        W 9452   5.964   3.577   3.532
 5389W        W 9453   8.349   0.050   0.847
 5390W        W 9454   2.006   9.384   0.361
 5391W        W 9455   4.735   1.501  11.008
 5392W        W 9456   2.336   9.186   2.287
 5393W        W 9457   6.589   4.821  10.912
 5394W        W 9458   0.288   7.477  11.016
 5395W        W 9459   9.250   1.882   0.522
 5396W        W 9460   4.180   0.468   1.773
 5397W        W 9461   2.314   4.375   8.562
 5398W        W 9462   4.139   3.522   2.288
 5399W        W 9463   7.396   6.479   8.463
 5400W        W 9464   2.923   0.370   9.835
 5401W        W 9465   4.766   7.069   8.943
 5402W        W 9466   0.791   3.119   9.488
 5403W        W 9467   0.053   1.170   0.339
 5404W        W 9468   7.482   5.685   9.137
 5405W        W 9469   1.280   1.905   0.875
 5406W        W 9470   5.153   8.963  10.467
 5407W        W 9471  10.396   0.060  10.918
 5408W        W 9472   3.147   7.715   2.238
 5409W        W 9473   2.849   6.164   9.334
 5410W        W 9474   7.076   6.953  10.865
 5411W        W 9475   0.345   5.024  10.765
 5412W        W 9476   3.766   1.280   0.882
 5413W        W 9477   9.092   0.258   0.804
 5414W        W 9478   7.933   3.358  10.193
 5415W        W 9479   8.091   2.771   8.989
 5416W        W 9480   9.852   9.777  10.589
 5417W        W 9481   4.354   8.724   8.421
 5418W        W 9482   6.291  10.303   9.825
 5419W        W 9483  10.333   4.760   9.311
 5420W        W 9484   3.193   6.254   0.293
 5421W        W 9485   5.034   3.840   1.891
 5422W        W 9486  10.214   5.747  11.732
 5423W        W 9487   3.293   5.258   2.255
 5424W        W 9488   1.236   6.573   9.677
 5425W        W 9489   1.688   7.853  10.895
 5426W        W 9490   7.267   7.192   9.996
 5427W        W 9491   5.752   1.785  10.756
 5428W        W 9492   3.032   3.262   9.975
 5429W        W 9493   7.310   6.101   9.942
 5430W        W 9494   6.430   1.202   0.855
 5431W        W 9495   7.526   0.243  11.853
 5432W        W 9496   1.984   9.354   2.828
 5433W        W 9497   8.523   7.062   3.422
 5434W        W 9498   0.351   6.863   2.910
 5435W        W 9499   6.167   0.141   9.425
 5436W        W 9500   1.920   7.577   9.536
 5437W        W 9501   7.147   4.547  10.509
 5438W        W 9502   5.251   2.640   2.379
 5439W        W 9503   5.681   3.897   9.150
 5440W        W 9504   4.310  10.015   8.991
 5441W        W 9505   3.399   7.431   1.857
 5442W        W 9506   5.665   0.286  11.448
 5443W        W 9507   1.261   7.074  10.050
 5444W        W 9508   7.466   8.272  11.907
 5445W        W 9509   2.903   1.001   2.473
 5446W        W 9510   0.079   7.543   0.193
 5447W        W 9511   5.037   7.578   3.453
 5448W        W 9512   1.247   3.723   9.565
 5449W        W 9513   4.679   4.731   2.441
 5450W        W 9514   4.221   9.368   0.877
 5451W        W 9515   3.180   1.457   9.595
 5452W        W 9516   3.211   7.071   3.641
 5453W        W 9517   1.168   5.386   1.870
 5454W        W 9518  10.033   7.033   9.578
 5455W        W 9519   9.677   7.568   8.260
 5456W        W 9520   7.530   8.182   9.909
 5457W        W 9521  10.086   6.404   3.260
 5458W        W 9522   6.528   0.247  11.434
 5459W        W 9523   1.992   4.784   8.989
 5460W        W 9524   5.645   0.909   1.681
 5461W        W 9525   2.433  10.486  10.555
 5462W        W 9526   0.158   9.783   2.371
 5463W        W 9527   2.632   4.353   2.704
 5464W        W 9528   6.117   8.809  11.848
 5465W        W 9529   4.700   6.034   1.523
 5466W        W 9530   7.525   4.272   2.827
 5467W        W 9531   5.274   3.600   0.948
 5468W        W 9532   4.595   5.934   3.805
 5469W        W 9533   9.958   9.516   3.739
 5470W        W 9534   3.431   1.828   1.369
 5471W        W 9535   4.422   5.683   1.268
 5472W        W 9536   7.688  10.006   9.584
 5473W        W 9537   6.040   9.491  10.473
 5474W        W 9538   8.333   7.041   8.666
 5475W        W 9539   8.534   8.086   2.716
 5476W        W 9540   2.865   7.577   1.824
 5477W        W 9541   1.905   1.330   3.729
 5478W        W 9542   3.615   9.189   0.281
 5479W        W 9543   1.430   7.100   1.014
 5480W        W 9544   1.688   0.211   9.382
 5481W        W 9545   6.738   6.564  10.759
 5482W        W 9546   5.606   9.844   9.336
 5483W        W 9547   0.344   0.965   9.510
 5484W        W 9548  10.458   6.168   0.994
 5485W        W 9549   5.074   6.139  10.573
 5486W        W 9550   0.104   9.182  11.340
 5487W        W 9551   7.086   7.143   1.366
 5488W        W 9552   4.945  10.440   8.803
 5489W        W 9553   3.735   6.195   9.183
 5490W        W 9554   3.338   0.470   1.175
 5491W        W 9555   4.811   2.897  10.993
 5492W        W 9556   2.743   3.231  11.260
 5493W        W 9557   6.513   9.859   3.004
 5494W        W 9558   4.241   9.558  11.381
 5495W        W 9559   0.706   9.123   0.642
 5496W        W 9560   8.978   2.195   8.366
 5497W        W 9561   9.957   6.632   9.901
 5498W        W 9562   5.163  10.003  11.106
 5499W        W 9563   7.031   2.674   2.783
 5500W        W 9564   3.798   2.939   9.661
 5501W        W 9565   3.217   2.370  11.279
 5502W        W 9566   6.587   3.781   8.893
 5503W        W 9567   1.028   7.896  11.908
 5504W        W 9568  10.344   3.157  10.124
 5505W        W 9569   3.000   2.835   2.300
 5506W        W 9570   0.450   5.597   2.387
 5507W        W 9571   7.754   1.548   1.071
 5508W        W 9572   1.135   9.729   9.739
 5509W        W 9573   2.162   6.114   9.944
 5510W        W 9574   9.253   6.532   8.726
 5511W        W 9575   0.216   6.061   3.410
 5512W        W 9576   8.076   6.458   0.457
 5513W        W 9577   7.549   1.925   1.347
 5514W        W 9578   9.825   3.339   3.126
 5515W        W 9579   5.432   2.963   8.874
 5516W        W 9580   5.993   6.614   1.849
 5517W        W 9581   6.174   0.829   3.037
 5518W        W 9582   7.593   1.614   9.729
 5519W        W 9583   0.442   6.481  11.250
 5520W        W 9584   6.294   6.152   0.345
 5521W        W 9585   3.823   3.106   2.364
 5522W        W 9586   2.840   0.464   1.308
 5523W        W 9587   3.729   9.521  11.306
 5524W        W 9588   0.711   3.663   3.696
 5525W        W 9589   8.001   6.682   1.815
 5526W        W 9590   9.282   2.897   9.122
 5527W        W 9591   1.273   0.993   9.528
 5528W        W 9592   1.382   1.484   9.535
 5529W        W 9593   1.843   3.798  11.264
 5530W        W 9594   9.067   5.285  11.422
 5531W        W 9595   4.236   8.041   0.158
 5532W        W 9596   5.082   4.129   2.800
 5533W        W 9597   3.731   3.299   9.289
 5534W        W 9598   6.076   3.258   0.188
 5535W        W 9599   3.529   7.999   2.423
 5536W        W 9600   3.331   0.691  10.628
 5537W        W 9601   0.130   7.075   0.904
 5538W        W 9602   4.492   7.616   0.053
 5539W        W 9603   1.885   0.814  10.426
 5540W        W 9604   7.332   5.267   4.011
 5541W        W 9605   1.788   6.657   0.598
 5542W        W 9606   3.942   5.525   1.146
 5543W        W 9607   8.647   8.812   2.255
 5544W        W 9608   5.056   4.894  11.484
 5545W        W 9609   9.077   5.757  11.586
 5546W        W 9610   5.283   6.410   9.947
 5547W        W 9611   5.713   6.412   0.867
 5548W        W 9612   2.471  10.368   3.490
 5549W        W 9613   2.483   0.897  10.924
 5550W        W 9614   1.042   5.676  10.456
 5551W        W 9615   7.142   2.266   1.991
 5552W        W 9616   3.989   0.315  10.936
 5553W        W 9617   7.450   6.286   2.445
 5554W        W 9618   2.265   1.953   9.327
 5555W        W 9619   5.924   7.649   3.520
 5556W        W 9620   4.401  10.349   0.506
 5557W        W 9621   4.135   6.589   8.620
 5558W        W 9622   5.742   2.525  11.829
 5559W        W 9623   6.967   7.147   9.529
 5560W        W 9624   7.425   2.247  10.724
 5561W        W 9625   6.444   5.681   0.131
 5562W        W 9626   3.374   9.537   8.525
 5563W        W 9627   2.175   5.920   0.884
 5564W        W 9628   5.993   2.817   0.437
 5565W        W 9629   6.506   2.462   8.557
 5566W        W 9630   0.818   2.825   2.376
 5567W        W 9631   2.078   8.456   0.710
 5568W        W 9632   4.210   6.105   0.430
 5569W        W 9633   5.719   1.278  10.925
 5570W        W 9634   6.405   9.129   0.912
 5571W        W 9635   0.079   6.476   3.153
 5572W        W 9636   5.135   1.830   8.831
 5573W        W 9637   5.902   0.957   0.444
 5574W        W 9638   2.099   9.966   3.461
 5575W        W 9639   4.671   9.435  10.578
 5576W        W 9640   7.053   8.593   1.270
 5577W        W 9641   1.663   8.555   9.535
 5578W        W 9642   8.093   7.885   2.925
 5579W        W 9643   6.108   0.490  11.129
 5580W        W 9644   1.181   0.430   0.169
 5581W        W 9645   1.512   4.256   0.249
 5582W        W 9646   9.319   4.605   3.576
 5583W        W 9647   3.141   3.615   9.570
 5584W        W 9648   8.904   8.816  11.554
 5585W        W 9649   9.785   7.445   0.743
 5586W        W 9650   3.290   1.572  10.864
 5587W        W 9651   7.399   1.633   0.455
 5588W        W 9652   5.919   8.039   2.354
 5589W        W 9653   6.993   2.742   9.741
 5590W        W 9654   2.675   2.846   0.947
 5591W        W 9655   3.058   9.792   3.166
 5592W        W 9656   9.498   7.174   2.537
 5593W        W 9657   8.085   6.380   3.681
 5594W        W 9658   4.716   0.341  11.961
 5595W        W 9659   0.278   5.424   1.371
 5596W        W 9660   5.967   7.971   1.399
 5597W        W 9661   6.548   3.633  11.033
 5598W        W 9662   7.174   1.376   3.157
 5599W        W 9663   9.908   7.088   2.860
 5600W        W 9664   9.819   0.981  11.238
 5601W        W 9665   5.234   3.155   9.380
 5602W        W 9666   9.356   6.071   8.967
 5603W        W 9667   1.328   9.964   1.911
 5604W        W 9668   6.966   8.105  11.834
 5605W        W 9669   3.146   6.670   0.541
 5606W        W 9670   7.269  10.419  10.036
 5607W        W 9671   7.522   2.376   1.134
 5608W        W 9672   6.613   2.089  10.022
 5609W        W 9673   9.484   1.051   0.916
 5610W        W 9674   2.248   9.134  10.101
 5611W        W 9675   8.098   1.408  11.853
 5612W        W 9676   5.629   3.396   2.371
 5613W        W 9677   3.794   5.951   9.623
 5614W        W 9678  10.449   1.959   0.048
 5615W        W 9679   4.145   1.323   2.240
 5616W        W 9680   4.689   9.287   1.979
 5617W        W 9681   7.844   5.607   0.212
 5618W        W 9682   5.567   8.924   2.510
 5619W        W 9683   0.793   5.173  10.984
 5620W        W 9684   8.991   4.585   0.759
 5621W        W 9685   5.197   9.939   9.050
 5622W        W 9686   0.220   6.947   0.398
 5623W        W 9687   8.021   4.525   9.062
 5624W        W 9688   0.262   2.824   2.380
 5625W        W 9689   7.461   3.144  10.236
 5626W        W 9690   1.375   9.238   3.860
 5627W        W 9691   2.271  10.050  10.922
 5628W        W 9692   8.884   8.813   1.355
 5629W        W 9693   6.585   7.853   2.832
 5630W        W 9694   0.930   8.626   0.135
 5631W        W 9695   4.187   6.110   1.471
 5632W        W 9696   6.569   8.657   0.011
 5633W        W 9697   2.430   1.722   0.188
 5634W        W 9698   0.160   9.891   8.861
 5635W        W 9699   7.587   8.032   2.227
 5636W        W 9700   2.286   5.101   1.983
 5637W        W 9701   2.731   3.571  10.277
 5638W        W 9702   5.289   2.640   1.178
 5639W        W 9703   5.947   9.004   1.187
 5640W        W 9704   7.880   3.208   3.511
 5641W        W 9705   4.694   7.931  11.691
 5642W        W 9706   1.956   8.897   0.207
 5643W        W 9707  10.470   0.254   9.376
 5644W        W 9708   4.983   4.460  10.101
 5645W        W 9709   0.464  10.391   2.917
 5646W        W 9710   4.539   2.845   3.419
 5647W        W 9711   7.268   3.179   1.538
 5648W        W 9712   8.415   8.100   9.807
 5649W        W 9713   1.570   8.561  11.304
 5650W        W 9714   0.868   7.968   1.232
 5651W        W 9715   8.161   3.647   1.226
 5652W        W 9716   1.887   7.846   1.976
 5653W        W 9717   2.872   9.407   1.375
 5654W        W 9718   8.502   2.430   1.267
 5655W        W 9719   1.837   1.187   9.745
 5656W        W 9720   3.341   5.044   1.771
 5657W        W 9721   7.058   5.972   9.083
 5658W        W 9722   0.118   5.399  10.512
 5659W        W 9723   6.080  10.281   1.696
 5660W        W 9724   4.084   2.910  11.384
 5661W        W 9725   6.437   9.261   9.343
 5662W        W 9726   6.929   8.935  11.290
 5663W        W 9727   3.480   2.209   1.022
 5664W        W 9728   3.339   6.740  11.749
 5665W        W 9729   0.601   4.982  11.420
 5666W        W 9730  10.368   5.428  11.364
 5667W        W 9731   5.533   4.121   1.849
 5668W        W 9732   0.877   2.272   3.245
 5669W        W 9733   5.248   7.055   9.131
 5670W        W 9734   3.255   5.142   9.279
 5671W        W 9735   0.475   8.240   9.095
 5672W        W 9736   1.010   7.370   0.779
 5673W        W 9737   0.992   2.121   0.222
 5674W        W 9738   7.861   6.647   0.010
 5675W        W 9739   9.344   0.568   3.145
 5676W        W 9740   4.544   4.488   3.918
 5677W        W 9741   6.418   0.156  11.960
 5678W        W 9742  10.492   3.929   0.156
 5679W        W 9743   6.074   9.323   9.994
 5680W        W 9744   4.551   5.304   9.673
 5681W        W 9745   8.556   5.904   9.574
 5682W        W 9746   9.890   8.282  11.969
 5683W        W 9747   5.613   1.803   9.009
 5684W        W 9748   1.244   0.316  11.030
 5685W        W 9749   3.234   8.379   8.895
 5686W        W 9750   9.468   7.830  10.982
 5687W        W 9751   9.917   9.789   1.685
 5688W        W 9752   5.702   3.477  10.349
 5689W        W 9753   7.333   3.145   8.862
 5690W        W 9754   1.839   7.887   0.461
 5691W        W 9755   1.370   3.834   1.051
 5692W        W 9756   5.136   8.648   0.643
 5693W        W 9757   0.750   0.886  11.543
 5694W        W 9758   1.401   0.233   9.882
 5695W        W 9759   8.144   6.011   1.343
 5696W        W 9760   9.510   5.728   1.225
 5697W        W 9761   0.874   5.429  10.026
 5698W        W 9762   3.682   5.898   3.645
 5699W        W 9763   3.517  10.311   9.395
 5700W        W 9764   7.683   1.859   8.707
 5701W        W 9765   1.311   4.956  10.966
 5702W        W 9766   7.743   6.340   9.748
 5703W        W 9767   5.090   3.652   1.411
 5704W        W 9768   1.210  10.276   1.390
 5705W        W 9769   6.618   3.261   3.309
 5706W        W 9770   0.818   3.974   9.460
 5707W        W 9771   1.287   7.832  10.571
 5708W        W 9772   3.388   7.540   2.695
 5709W        W 9773   2.820   4.079  10.194
 5710W        W 9774   1.670   2.799  11.519
 5711W        W 9775   0.850   6.468  11.566
 5712W        W 9776   5.448   8.445   3.159
 5713W        W 9777   2.190   3.318   1.849
 5714W        W 9778   5.991   5.448  11.981
 5715W        W 9779   7.616   0.104   0.765
 5716W        W 9780   2.130   9.306   9.611
 5717W        W 9781   7.663   1.224   0.670
 5718W        W 9782   3.707   3.613   1.659
 5719W        W 9783   7.150  10.476   3.260
 5720W        W 9784   5.684   0.787  11.136
 5721W        W 9785   7.999   2.618   0.244
 5722W        W 9786   3.334   0.718  11.463
 5723W        W 9787   8.754   2.323   9.987
 5724W        W 9788   2.768   1.481   9.903
 5725W        W 9789   6.952   4.968  10.263
 5726W        W 9790   4.418   5.200   3.628
 5727W        W 9791   1.222   9.328   1.247
 5728W        W 9792   2.406   5.668   9.966
 5729W        W 9793   3.215   3.311   9.116
 5730W        W 9794   9.118   3.285   1.879
 5731W        W 9795   5.497   3.726   0.515
 5732W        W 9796   0.193   9.571  11.951
 5733W        W 9797   5.104   3.157   1.173
 5734W        W 9798   5.678   6.504   3.131
 5735W        W 9799  10.342   7.197  10.855
 5736W        W 9800   9.882   9.039   1.450
 5737W        W 9801   6.882   9.938   2.620
 5738W        W 9802   4.613   2.383   0.697
 5739W        W 9803   1.349   0.880   0.354
 5740W        W 9804   6.153   0.068  10.770
 5741W        W 9805   3.753   5.034   2.128
 5742W        W 9806   1.214   0.996   3.091
 5743W        W 9807   3.885   0.894  11.188
 5744W        W 9808   7.467   9.581   9.765
 5745W        W 9809   7.040   8.141  11.313
 5746W        W 9810  10.110  10.451   2.918
 5747W        W 9811   1.846   1.697   9.604
 5748W        W 9812   4.750  10.461   9.662
 5749W        W 9813   6.367   9.874   8.662
 5750W        W 9814   2.870   7.580   9.304
 5751W        W 9815   2.411   6.115  11.467
 5752W        W 9816   7.596   5.387   2.178
 5753W        W 9817   4.543   3.165   1.799
 5754W        W 9818   8.976   0.379   9.144
 5755W        W 9819   8.322   2.223  10.270
 5756W        W 9820   9.149  10.309   1.273
 5757W        W 9821   6.982   6.090  10.820
 5758W        W 9822   4.438   7.745   1.231
 5759W        W 9823   9.567   2.064   3.347
 5760W        W 9824   4.141   7.019   3.313
 5761W        W 9825   4.554   8.814   2.144
 5762W        W 9826   2.140   2.418   9.552
 5763W        W 9827   4.669   8.386  11.444
 5764W        W 9828   4.515   5.507   9.213
 5765W        W 9829   5.179   0.952  10.933
 5766W        W 9830   9.527   4.897   2.892
 5767W        W 9831  10.317   2.889   3.589
 5768W        W 9832   4.628   0.440   1.546
 5769W        W 9833   3.491   5.610   8.210
 5770W        W 9834   8.610   0.971   0.922
 5771W        W 9835   1.463   9.277   8.771
 5772W        W 9836   2.227   6.413   0.792
 5773W        W 9837   2.908   4.793   0.865
 5774W        W 9838   8.098   8.550   1.102
 5775W        W 9839   8.860   7.411  10.250
 5776W        W 9840   0.973  10.201  10.563
 5777W        W 9841   7.343   4.106   1.031
 5778W        W 9842   1.148   6.520   0.010
 5779W        W 9843   2.482   9.605  10.756
 5780W        W 9844   7.096   9.955  10.238
 5781W        W 9845   3.101   7.950   9.576
 5782W        W 9846   0.429   5.222   9.393
 5783W        W 9847   9.129   8.045   3.314
 5784W        W 9848   0.302   8.604  11.914
 5785W        W 9849   7.485   5.518   3.593
 5786W        W 9850   0.529   8.612  10.613
 5787W        W 9851   8.381   9.479   1.929
 5788W        W 9852   8.926   6.626  11.509
 5789W        W 9853   0.881   2.175   9.052
 5790W        W 9854   7.525   6.488   1.957
 5791W        W 9855   4.534   4.130   1.298
 5792W        W 9856   0.470   4.565  10.535
 5793W        W 9857   3.704   0.776   2.771
 5794W        W 9858   5.506   3.328  10.838
 5795W        W 9859   2.504   1.728  11.328
 5796W        W 9860   2.386   0.326   1.921
 5797W        W 9861   3.177   5.287   3.230
 5798W        W 9862   4.249  10.206  11.711
 5799W        W 9863   0.510   4.633   3.382
 5800W        W 9864   9.159   6.638  10.590
 5801W        W 9865  10.278   7.220   0.468
 5802W        W 9866   0.719   6.075   9.843
 5803W        W 9867   0.179   8.127   0.081
 5804W        W 9868   2.127   2.095   0.021
 5805W        W 9869   3.663   5.021   4.230
 5806W        W 9870   4.640   5.744   2.425
 5807W        W 9871   7.535   2.646   0.009
 5808W        W 9872   8.954   9.442  10.465
 5809W        W 9873   9.992  10.245  11.064
 5810W        W 9874   3.354   8.384   0.607
 5811W        W 9875   0.951  10.410   0.966
 5812W        W 9876   8.449   1.747  10.419
 5813W        W 9877   3.157   4.798   0.375
 5814W        W 9878   5.661   2.315   2.887
 5815W        W 9879   0.499   1.120  10.509
 5816W        W 9880   3.710   8.188   3.334
 5817W        W 9881   9.355   9.440   0.067
 5818W        W 9882   1.770   3.724  10.267
 5819W        W 9883   6.228   7.682  11.127
 5820W        W 9884   2.612  10.382   1.327
 5821W        W 9885   9.088   9.899   0.951
 5822W        W 9886   0.662   8.232  11.964
 5823W        W 9887   9.986   4.618  11.790
 5824W        W 9888   1.471   3.452   2.554
 5825W        W 9889   3.802   9.300   2.660
 5826W        W 9890   3.076   9.597   9.900
 5827W        W 9891   0.332   3.919   9.600
 5828W        W 9892   1.374   3.764   9.064
 5829W        W 9893   0.869   8.588   1.397
 5830W        W 9894   4.081   7.477   9.007
 5831W        W 9895   3.335   0.466   0.160
 5832W        W 9896   9.457   9.990   1.764
 5833W        W 9897   2.313   5.971   0.366
 5834W        W 9898   3.823   0.418  11.954
 5835W        W 9899   1.093   9.950   3.537
 5836W        W 9900   9.507   3.451  11.007
 5837W        W 9901   2.131   4.389   2.779
 5838W        W 9902   4.927   7.139   8.466
 5839W        W 9903   4.243   1.808   9.837
 5840W        W 9904   0.484  10.283   0.793
 5841W        W 9905   2.674   5.953  10.792
 5842W        W 9906   0.794   0.314   9.986
 5843W        W 9907   6.566   1.655  11.829
 5844W        W 9908   4.538   5.076   3.067
 5845W        W 9909   3.934   5.047   3.776
 5846W        W 9910   1.944   4.701   1.967
 5847W        W 9911   1.847   7.031   8.885
 5848W        W 9912   8.311   2.341   9.752
 5849W        W 9913   4.648   5.013  11.755
 5850W        W 9914   5.123   4.968  10.104
 5851W        W 9915   0.226   6.923   1.815
 5852W        W 9916  10.309   0.054   2.109
 5853W        W 9917   6.787   7.003   9.988
 5854W        W 9918   1.050   3.974  10.408
 5855W        W 9919   6.946   4.527   1.958
 5856W        W 9920   5.959   6.448   2.714
 5857W        W 9921   1.959   9.767   9.449
 5858W        W 9922   3.051  10.005  11.963
 5859W        W 9923   2.577   6.602  11.570
 5860W        W 9924   4.720   0.731  11.625
 5861W        W 9925   7.143   1.706   9.977
 5862W        W 9926   2.608  10.280   1.834
 5863W        W 9927  10.030   9.591   2.936
 5864W        W 9928   2.157   2.289   2.332
 5865W        W 9929   1.306   3.111  11.358
 5866W        W 9930   3.749   9.342   9.466
 5867W        W 9931   0.519  10.481  11.871
 5868W        W 9932   0.970   3.361  11.634
 5869W        W 9933  10.312   7.933   9.736
 5870W        W 9934   6.131   6.625   9.527
 5871W        W 9935   0.490   5.735  10.179
 5872W        W 9936   6.787   5.135   4.086
 5873W        W 9937   7.841   3.099   0.200
 5874W        W 9938   3.767   7.136   0.351
 5875W        W 9939   6.471   4.091  10.211
 5876W        W 9940   7.672   8.251   3.513
 5877W        W 9941   6.616   2.593  10.043
 5878W        W 9942   5.991   5.707   1.229
 5879W        W 9943   4.134   4.265   1.814
 5880W        W 9944  10.477  10.417  10.389
 5881W        W 9945   5.541   9.590  11.950
 5882W        W 9946   5.500   0.259   3.226
 5883W        W 9947   6.435   4.035  11.365
 5884W        W 9948   9.470   1.344   2.186
 5885W        W 9949   8.323   5.756  10.878
 5886W        W 9950   5.716   2.167   3.404
 5887W        W 9951   3.071   9.359   1.845
 5888W        W 9952   5.015   5.042   2.878
 5889W        W 9953   2.507   2.766   9.383
 5890W        W 9954   0.347   3.048   9.812
 5891W        W 9955   4.104   3.883  11.292
 5892W        W 9956   1.262   8.989   2.518
 5893W        W 9957   1.980   0.423   3.519
 5894W        W 9958   7.847   8.336   3.037
 5895W        W 9959   6.503   7.296   1.768
 5896W        W 9960   7.259   0.841   9.991
 5897W        W 9961   1.183   8.175   3.534
 5898W        W 9962   6.567   5.670   3.887
 5899W        W 9963   2.322   5.194  10.210
 5900W        W 9964   5.027   3.417   8.063
 5901W        W 9965   1.138   4.313   1.005
 5902W        W 9966   1.587   4.963   9.924
 5903W        W 9967   8.690   1.642   3.529
 5904W        W 9968   3.536   3.091   1.918
 5905W        W 9969   2.221   5.259   3.513
 5906W        W 9970   5.517   2.642   3.296
 5907W        W 9971   7.243   6.220   0.472
 5908W        W 9972   5.226   1.344  11.677
 5909W        W 9973   9.128   7.051   0.669
 5910W        W 9974   2.306   2.795   9.901
 5911W        W 9975  10.033   4.027  10.516
 5912W        W 9976  10.074   1.331  10.224
 5913W        W 9977   7.692   9.473   2.697
 5914W        W 9978   0.855   1.638  10.277
 5915W        W 9979   3.772   8.457  11.024
 5916W        W 9980   3.090   0.022   0.005
 5917W        W 9981   2.002   9.358   1.016
 5918W        W 9982   5.411   6.966   3.138
 5919W        W 9983   9.717  10.408   0.443
 5920W        W 9984   4.308   2.440  10.316
 5921W        W 9985   7.710   8.018   0.283
 5922W        W 9986   4.706   1.395   1.510
 5923W        W 9987   6.575   9.700  11.984
 5924W        W 9988   3.296   5.765   2.306
 5925W        W 9989   6.030   4.302   9.984
 5926W        W 9990   5.008   1.306   9.200
 5927W        W 9991   6.951   9.499  10.532
 5928W        W 9992   0.638   6.635   0.476
 5929W        W 9993   8.913  10.345   9.037
 5930W        W 9994   9.144   7.036   9.843
 5931W        W 9995   9.359   5.154   0.757
 5932W        W 9996   9.912   7.540   9.844
 5933W        W 9997   9.664   0.416   2.413
 5934W        W 9998   2.323   9.784   1.034
 5935W        W 9999   8.171   3.128   2.020
 5936W        W10000   3.314   1.276   2.283
 5937W        W10001   6.048   1.810   2.966
 5938W        W10002   6.077   7.401  10.322
 5939W        W10003   2.443   9.494   2.694
 5940W        W10004   7.233   1.238   9.641
 5941W        W10005   2.688   1.984  10.031
 5942W        W10006   8.622   9.531  10.856
 5943W        W10007   9.335   7.063   2.024
 5944W        W10008   5.724   6.076   2.448
 5945W        W10009   3.925   1.360  11.397
 5946W        W10010   3.251   4.320   1.279
 5947W        W10011   4.533   4.065   9.852
 5948W        W10012   5.194   5.612   3.120
 5949W        W10013   7.924   3.543   2.647
 5950W        W10014   2.789   3.362  10.741
 5951W        W10015   4.755   9.917   8.793
 5952W        W10016   1.881  10.308   8.731
 5953W        W10017   7.436   4.994   9.990
 5954W        W10018   1.908   2.332   0.480
 5955W        W10019   1.084   5.546   1.093
 5956W        W10020  10.264   8.023   1.376
 5957W        W10021   0.832   8.100  11.471
 5958W        W10022   1.034   0.157   8.604
 5959W        W10023   5.401   7.564   4.248
 5960W        W10024   0.016   5.877   2.459
 5961W        W10025   5.436   0.388   9.394
 5962W        W10026  10.449   6.987   9.265
 5963W        W10027   4.604   7.403  11.625
 5964W        W10028   1.322   2.389   9.194
 5965W        W10029   6.985   7.684  11.553
 5966W        W10030   5.289   2.165  10.087
 5967W        W10031   5.474   3.992  11.678
 5968W        W10032   3.306   5.544   3.665
 5969W        W10033   1.812   7.573   3.177
 5970W        W10034   9.023   1.533   2.309
 5971W        W10035   4.364   4.520   9.505
 5972W        W10036   6.591   2.115   0.049
 5973W        W10037   4.658  10.479  11.593
 5974W        W10038   3.185   7.057   9.983
 5975W        W10039   4.617   4.417   8.407
 5976W        W10040   3.262   9.911   2.720
 5977W        W10041   3.397   3.496   3.328
 5978W        W10042   5.750   5.586   8.596
 5979W        W10043   6.061  10.072  11.059
 5980W        W10044   2.543   9.430   1.794
 5981W        W10045   2.975   6.118   3.136
 5982W        W10046  10.021   9.723   0.806
 5983W        W10047   9.848   1.677   2.902
 5984W        W10048   5.542   4.386   8.461
 5985W        W10049   2.545   9.164  10.499
 5986W        W10050   1.263  10.337   0.534
 5987W        W10051   9.197   0.956   2.370
 5988W        W10052   5.102   8.174   0.458
 5989W        W10053  10.211   8.889   9.136
 5990W        W10054   9.307   1.335   2.716
 5991W        W10055  10.048   1.753   9.032
 5992W        W10056   2.523   8.236   0.829
 5993W        W10057   8.463   1.076  10.524
 5994W        W10058   3.691   7.117   1.031
 5995W        W10059   6.618   6.594  10.246
 5996W        W10060   3.028   2.709   9.306
 5997W        W10061   8.872   6.034   3.233
 5998W        W10062   8.704   3.925   3.707
 5999W        W10063   9.119  10.257  11.029
 6000W        W10064   9.826   8.826   3.283
 6001W        W10065   5.705   4.755   9.016
 6002W        W10066   0.274   2.231   1.278
 6003W        W10067   2.665   3.851  10.751
 6004W        W10068  10.262   2.650   1.515
 6005W        W10069   3.363   8.464   2.616
 6006W        W10070   5.478   2.255   8.799
 6007W        W10071   3.727   4.179   3.554
 6008W        W10072   5.616   4.902   8.527
 6009W        W10073   3.360   7.505   9.733
 6010W        W10074   4.674   8.132   1.438
 6011W        W10075   8.952   1.719   2.794
 6012W        W10076   9.503   9.933   1.257
 6013W        W10077   8.655   2.769   9.078
 6014W        W10078   2.619   3.066  10.323
 6015W        W10079   2.296   3.842  10.301
 6016W        W10080   0.641   7.602  10.555
 6017W        W10081   6.692   1.677  11.296
 6018W        W10082   8.557   8.860   0.006
 6019W        W10083   2.270   9.880   1.896
 6020W        W10084   6.352   0.472   8.998
 6021W        W10085   7.342   5.744   0.231
 6022W        W10086   9.843   9.240   8.935
 6023W        W10087   6.707   7.849   3.353
 6024W        W10088   1.848   6.537   1.122
 6025W        W10089   8.047   9.471   1.095
 6026W        W10090   7.406   5.610   0.707
 6027W        W10091   0.283   4.748   9.565
 6028W        W10092   1.646   1.991   0.184
 6029W        W10093   2.233  10.300  11.944
 6030W        W10094   5.702   1.591   0.280
 6031W        W10095   0.768   1.276   9.330
 6032W        W10096   2.635   5.500   9.524
 6033W        W10097   2.912   4.298   3.230
 6034W        W10098   8.911  10.443   2.710
 6035W        W10099   1.864   3.721   8.920
 6036W        W10100   7.923  10.407   9.360
 6037W        W10101   5.226   1.886   1.691
 6038W        W10102   6.602   3.071  11.728
 6039W        W10103   6.380   3.277  10.707
 6040W        W10104   8.123   5.717  11.777
 6041W        W10105   8.947   5.296  11.963
 6042W        W10106   1.863   1.257   8.774
 6043W        W10107   8.794   0.173   1.229
 6044W        W10108   3.315   8.157   1.112
 6045W        W10109   0.687   9.788   8.894
 6046W        W10110   4.208   7.555   3.055
 6047W        W10111   5.492   5.002   9.421
 6048W        W10112   2.415   9.974   0.581
 6049W        W10113   1.771   5.676   2.814
 6050W        W10114   6.519  10.463   1.143
 6051W        W10115   5.070   0.785  10.459
 6052W        W10116   6.049   2.246  10.772
 6053W        W10117   8.157   9.667   2.432
 6054W        W10118   7.290   7.958   1.805
 6055W        W10119   4.215   1.480   3.214
 6056W        W10120   4.038   2.643   2.211
 6057W        W10121   0.245   9.580  10.990
 6058W        W10122   6.943   1.356   1.684
 6059W        W10123   5.166   9.293   1.828
 6060W        W10124   8.185   2.450   0.853
 6061W        W10125   3.794   0.895  10.691
 6062W        W10126   6.006   7.224   2.491
 6063W        W10127   3.338   5.794   0.457
 6064W        W10128   6.867   8.906   9.424
 6065W        W10129   7.629   7.618  10.550
 6066W        W10130   3.480   5.502   0.861
 6067W        W10131   2.026   5.353  11.729
 6068W        W10132   8.553   0.707   0.078
 6069W        W10133   0.402   2.390   0.791
 6070W        W10134   9.718   7.872   9.076
 6071W        W10135   1.823   2.683   0.872
 6072W        W10136   7.885  10.341  10.977
 6073W        W10137   9.139   0.329  10.433
 6074W        W10138   5.857   8.310   8.333
 6075W        W10139   5.107   5.166  11.970
 6076W        W10140   4.684   7.379   1.795
 6077W        W10141   4.304   4.684   2.777
 6078W        W10142   0.962   5.536   2.448
 6079W        W10143   6.127   0.471  11.647
 6080W        W10144   7.926   5.223  11.854
 6081W        W10145   7.148   1.726   9.451
 6082W        W10146   5.726   7.557   9.546
 6083W        W10147   9.292   8.767   9.388
 6084W        W10148   7.583   4.970   1.104
 6085W        W10149   8.802   0.707  10.315
 6086W        W10150   1.731   1.786   0.654
 6087W        W10151   1.691   0.799   1.577
 6088W        W10152   1.209   5.174   3.460
 6089W        W10153  10.244   2.807   2.394
 6090W        W10154  10.499   8.934   1.661
 6091W        W10155   5.682   1.691  11.253
 6092W        W10156   8.080   1.293   0.355
 6093W        W10157   2.182  10.460   9.587
 6094W        W10158   2.650   6.363  11.100
 6095W        W10159   4.249   9.450   3.230
 6096W        W10160   8.852   5.096   0.828
 6097W        W10161   9.526   9.052   0.829
 6098W        W10162   9.316   9.793  10.061
 6099W        W10163   2.855   3.160   9.478
 6100W        W10164   3.119   6.214  10.048
 6101W        W10165   6.660   3.215   2.202
 6102W        W10166   7.070   6.919   3.180
 6103W        W10167   8.678   2.381  11.116
 6104W        W10168   3.144   4.384  11.427
 6105W        W10169   4.184   0.052   9.543
 6106W        W10170   6.647   7.594   9.576
 6107W        W10171   2.445   1.635  10.283
 6108W        W10172   0.246   5.707  11.540
 6109W        W10173   8.413   7.761  11.466
 6110W        W10174   0.189   1.783  11.168
 6111W        W10175   4.550   9.508   9.044
 6112W        W10176   3.526   2.812   9.217
 6113W        W10177   0.073   1.361  10.346
 6114W        W10178   7.602   0.637   0.827
 6115W        W10179   2.183   8.148  10.173
 6116W        W10180   8.965   1.202  10.284
 6117W        W10181   3.834   8.024  11.349
 6118W        W10182   8.997   5.514   0.498
 6119W        W10183   6.482   4.408   8.441
 6120W        W10184   7.942   2.826  11.761
 6121W        W10185   6.393   0.975   0.398
 6122W        W10186   7.086   5.560   3.238
 6123W        W10187   3.461   5.028   0.016
 6124W        W10188   4.655   0.227   3.432
 6125W        W10189   1.624  10.120   3.688
 6126W        W10190   3.618   3.144   8.807
 6127W        W10191   2.897   4.694   2.483
 6128W        W10192   7.102   4.054   2.083
 6129W        W10193   9.815   7.432   3.239
 6130W        W10194   2.679   5.007   0.440
 6131W        W10195   8.867   7.722   9.244
 6132W        W10196   6.855   1.206   9.993
 6133W        W10197   5.883   8.135   0.441
 6134W        W10198   7.129   4.809   3.878
 6135W        W10199   4.561   0.005   1.011
 6136W        W10200   8.542   4.046  11.367
 6137W        W10201   3.169   5.697  11.245
 6138W        W10202   5.607   2.649   1.894
 6139W        W10203   6.358   8.788   9.532
 6140W        W10204   2.557   1.941   2.195
 6141W        W10205   3.367   9.781   1.839
 6142W        W10206   0.667   7.595   8.433
 6143W        W10207   5.627   8.314   1.181
 6144W        W10208   2.476   4.819   9.878
 6145W        W10209   0.249   4.354  11.966
 6146W        W10210   3.701   0.874   1.213
 6147W        W10211   0.447   3.821   9.115
 6148W        W10212   5.901   9.563   2.491
 6149W        W10213   1.698   3.800   1.831
 6150W        W10214   4.784   6.261   2.423
 6151W        W10215   1.733   8.113   3.315
 6152W        W10216   1.734   3.916   9.409
 6153W        W10217   4.720   0.771  11.094
 6154W        W10218   9.882   8.499  11.489
 6155W        W10219   0.435   6.148   2.481
 6156W        W10220   2.342   1.724   9.766
 6157W        W10221   8.018   5.137   2.049
 6158W        W10222   5.488  10.335  10.203
 6159W        W10223   3.307   2.360   2.653
 6160W        W10224   1.918   3.571   3.332
 6161W        W10225   5.128   9.550   0.274
 6162W        W10226   6.003   1.294   2.837
 6163W        W10227   8.946   2.034   2.375
 6164W        W10228   9.142   5.084   1.826
 6165W        W10229   0.692   7.186   1.806
 6166W        W10230   2.268   4.158   0.882
 6167W        W10231   7.130   1.251   0.713
 6168W        W10232   7.602   2.849   0.962
 6169W        W10233   6.780   6.942   2.714
 6170W        W10234   9.507   8.350   2.441
 6171W        W10235   1.226   2.831   9.463
 6172W        W10236   2.206   9.312  11.883
 6173W        W10237   7.492   5.622  10.872
 6174W        W10238   0.391   0.848   0.915
 6175W        W10239   5.594   4.291   2.602
 6176W        W10240   1.421   3.393   0.308
 6177W        W10241   8.911   9.475   1.786
 6178W        W10242   4.716   5.758  11.360
 6179W        W10243   7.235   2.545   0.743
 6180W        W10244   3.695   7.991   1.430
 6181W        W10245   7.723  10.240  11.986
 6182W        W10246   0.387   5.969  11.139
 6183W        W10247   0.796   0.425  11.812
 6184W        W10248   3.109   3.561   0.012
 6185W        W10249   0.368   8.606   3.123
 6186W        W10250   4.252   9.191   9.440
 6187W        W10251   2.374   3.063   0.344
 6188W        W10252   3.068   2.753   3.518
 6189W        W10253   5.211   3.836   8.951
 6190W        W10254   2.824   8.867   1.160
 6191W        W10255  10.318   5.699   1.750
 6192W        W10256   0.961   2.122  10.448
 6193W        W10257   5.546   2.635   0.297
 6194W        W10258   6.452   4.282   8.932
 6195W        W10259   3.268   9.277  11.471
 6196W        W10260   3.765   4.685   0.987
 6197W        W10261   0.816   1.443   1.962
 6198W        W10262   9.531   1.623  11.755
 6199W        W10263   8.099   8.277   0.604
 6200W        W10264   1.843   5.079  10.331
 6201W        W10265   9.914   6.418   1.926
 6202W        W10266   4.940   6.442   0.326
 6203W        W10267   3.368   9.907  10.692
 6204W        W10268   6.558   2.467   2.863
 6205W        W10269   5.282   3.295   8.509
 6206W        W10270   8.930   3.169   8.892
 6207W        W10271   3.203   1.371  10.126
 6208W        W10272   9.763   6.548   8.864
 6209W        W10273   9.912   6.982   8.543
 6210W        W10274   4.624   1.551   2.863
 6211W        W10275   4.637   2.653   2.393
 6212W        W10276   3.979   4.243  11.646
 6213W        W10277   4.422   8.724   9.530
 6214W        W10278   6.254   6.916   0.010
 6215W        W10279   6.115   4.945   0.925
 6216W        W10280   2.758  10.125   2.303
 6217W        W10281   2.127  10.012   9.875
 6218W        W10282   4.700   0.997  10.198
 6219W        W10283   6.561   1.917   1.391
 6220W        W10284   6.089  10.415  10.282
 6221W        W10285   9.370   9.583   2.076
 6222W        W10286   8.683   5.747   8.504
 6223W        W10287   5.481   1.232   0.602
 6224W        W10288   0.631   9.866   9.813
 6225W        W10289   6.849   0.926   1.415
 6226W        W10290   5.220   3.199  11.735
 6227W        W10291   6.038   2.670   9.054
 6228W        W10292   0.397   8.966   3.524
 6229W        W10293   8.128   3.601   8.934
 6230W        W10294   0.681   1.807  11.967
 6231W        W10295   0.976   6.046   9.293
 6232W        W10296   8.066   7.585  10.866
 6233W        W10297   7.939   9.475   1.617
 6234W        W10298   6.954   3.743   9.699
 6235W        W10299   6.066   2.074   1.165
 6236W        W10300   9.311   7.484  10.627
 6237W        W10301   6.614   2.977   2.880
 6238W        W10302   5.640   9.365   1.715
 6239W        W10303   7.081   8.606  11.971
 6240W        W10304   2.847   2.377  10.901
 6241W        W10305   8.556   9.477   9.054
 6242W        W10306   1.288   6.045   0.980
 6243W        W10307   5.258   1.847  10.945
 6244W        W10308   9.089   6.976  11.170
 6245W        W10309   0.016   1.734   1.142
 6246W        W10310   6.562   0.759  10.009
 6247W        W10311   5.970   3.811   8.190
 6248W        W10312   9.251   2.203  10.000
 6249W        W10313   4.072   6.619   1.480
 6250W        W10314   5.175   9.023   9.960
 6251W        W10315   6.100   2.780   1.702
 6252W        W10316   5.219   4.671   9.713
 6253W        W10317   1.669   4.077   3.670
 6254W        W10318   7.357   5.165  11.040
 6255W        W10319   4.523   3.611   9.609
 6256W        W10320   2.000   1.362   2.753
 6257W        W10321   3.090   2.276   8.949
 6258W        W10322   9.475   8.272   0.284
 6259W        W10323   0.824   1.591   8.907
 6260W        W10324   3.857   7.706   1.837
 6261W        W10325   5.606   9.353  10.992
 6262W        W10326   0.711   2.989   1.518
 6263W        W10327   6.875   5.919   1.766
 6264W        W10328   3.072   4.038  11.067
 6265W        W10329   3.060   8.896   9.109
 6266W        W10330   9.875   2.223   0.687
 6267W        W10331   7.944   6.171   1.792
 6268W        W10332  10.240   0.761   0.312
 6269W        W10333   7.516   3.602   8.983
 6270W        W10334   5.926   0.541   9.627
 6271W        W10335   7.933   4.573   1.996
 6272W        W10336   6.922   0.275  10.538
 6273W        W10337   2.164   0.502  11.246
 6274W        W10338   3.324   0.732   2.414
 6275W        W10339   5.828   0.040   9.832
 6276W        W10340  10.376   1.315   3.411
 6277W        W10341   1.232   4.269  11.797
 6278W        W10342   6.661   6.081   8.784
 6279W        W10343   7.994   0.453   3.374
 6280W        W10344   1.422   0.303   2.054
 6281W        W10345   0.328   3.794   1.737
 6282W        W10346   7.943   9.989  10.620
 6283W        W10347   4.145   2.687   0.186
 6284W        W10348   9.510   5.208   9.042
 6285W        W10349   4.182   3.750   1.845
 6286W        W10350   6.638   3.814   2.474
 6287W        W10351   7.715   3.160   1.774
 6288W        W10352   5.391   0.427   2.743
 6289W        W10353   4.866   9.776   3.600
 6290W        W10354   3.793   2.113   8.627
 6291W        W10355   5.476   5.284   9.887
 6292W        W10356   3.109   4.772  10.592
 6293W        W10357   6.957   4.081  10.359
 6294W        W10358   0.350   1.819   3.002
 6295W        W10359   5.580   0.275  11.963
 6296W        W10360   3.312  10.278   3.444
 6297W        W10361   3.343   7.569   3.696
 6298W        W10362   1.270   1.706   0.387
 6299W        W10363   1.758   8.651   4.086
 6300W        W10364   3.751   1.172   3.076
 6301W        W10365   6.043   8.039  11.525
 6302W        W10366   2.856   3.130   0.167
 6303W        W10367   4.247   5.717   9.644
 6304W        W10368   3.675   8.695   1.835
 6305W        W10369   5.552   9.829   0.440
 6306W        W10370   2.278   4.730  11.746
 6307W        W10371   4.157   0.901   2.583
 6308W        W10372   6.790   3.232   1.721
 6309W        W10373   2.482   7.328  10.197
 6310W        W10374   7.922   0.339  11.061
 6311W        W10375   7.363   3.698   1.390
 6312W        W10376   9.852   5.984  11.446
 6313W        W10377   6.237   6.994   9.163
 6314W        W10378   9.152   0.817   9.936
 6315W        W10379   2.768   5.128  10.492
 6316W        W10380   7.494   2.853   2.981
 6317W        W10381   2.268   5.769   1.366
 6318W        W10382   1.226   0.485  11.548
 6319W        W10383   9.493   1.115  11.857
 6320W        W10384   6.066   8.810   9.956
 6321W        W10385   1.441   3.668   3.483
 6322W        W10386   4.840   8.895  11.816
 6323W        W10387   3.306   5.995   2.781
 6324W        W10388   9.091   2.714   9.959
 6325W        W10389   5.238   3.100   2.569
 6326W        W10390   8.964   4.938   1.313
 6327W        W10391   3.772   3.136   1.451
 6328W        W10392   3.196   7.774   1.472
 6329W        W10393  10.137   3.906   9.774
 6330W        W10394   0.029   0.353   1.679
 6331W        W10395   7.135   3.778  10.744
 6332W        W10396   7.859   3.179   8.763
 6333W        W10397   0.194   7.780   3.005
 6334W        W10398   8.435   5.138  11.864
 6335W        W10399   9.088   5.529   1.016
 6336W        W10400   5.781   1.616   3.411
 6337W        W10401   4.053   1.402  10.120
 6338W        W10402   3.152   8.818   1.938
 6339W        W10403   3.351   0.047   9.871
 6340W        W10404   2.450   6.451  10.239
 6341W        W10405   9.367   5.859   0.287
 6342W        W10406   3.150   6.557   3.488
 6343W        W10407   3.804  10.049   1.860
 6344W        W10408   3.338  10.033   9.794
 6345W        W10409   5.015   0.245   1.878
 6346W        W10410   5.322   8.066  10.291
 6347W        W10411   1.366   9.037   2.022
 6348W        W10412   1.389   2.266  10.151
 6349W        W10413   1.858   2.610   3.402
 6350W        W10414   0.202   3.737   2.766
 6351W        W10415   5.767   6.583  11.154
 6352W        W10416   8.044   9.384  11.383
 6353W        W10417   6.168   1.852  11.053
 6354W        W10418   5.079   8.071  11.349
 6355W        W10419   4.523   1.372   9.915
 6356W        W10420   6.158   7.101   0.476
 6357W        W10421   3.057   1.873   0.979
 6358W        W10422   6.971   4.690   1.486
 6359W        W10423   1.005  10.155   8.671
 6360W        W10424   6.326   8.274   3.266
 6361W        W10425   2.474   4.266  10.525
 6362W        W10426   2.126   0.771   9.940
 6363W        W10427   7.180   9.815   0.699
 6364W        W10428   9.345   1.875   2.054
 6365W        W10429   1.804   9.322   9.176
 6366W        W10430   5.575   8.687  11.817
 6367W        W10431   9.775   4.592  11.314
 6368W        W10432   7.113   5.936   2.628
 6369W        W10433   1.827   5.668  11.003
 6370W        W10434   9.341   4.947  11.944
 6371W        W10435   3.158   1.295   9.112
 6372W        W10436   7.879  10.255  11.494
 6373W        W10437   1.563   0.212  11.866
 6374W        W10438   6.364   5.596   2.515
 6375W        W10439   8.534   0.995  11.073
 6376W        W10440   0.634   4.587   1.860
 6377W        W10441   7.510   7.132   0.672
 6378W        W10442   6.604   4.762   3.116
 6379W        W10443   8.521  10.383   3.074
 6380W        W10444   8.067   1.799   2.761
 6381W        W10445   7.068   0.483   0.627
 6382W        W10446   2.216   3.236   2.377
 6383W        W10447   3.208   4.710   9.564
 6384W        W10448   9.265   9.848  10.555
 6385W        W10449   5.343   3.073   2.071
 6386W        W10450   4.159   7.957   3.384
 6387W        W10451   2.409   4.121   2.317
 6388W        W10452   0.727   4.220   0.700
 6389W        W10453   9.473   9.654   9.117
 6390W        W10454   5.756   1.150  11.984
 6391W        W10455   8.834   2.314   1.949
 6392W        W10456   6.905   0.438   8.946
 6393W        W10457   8.955   5.699   1.924
 6394W        W10458   1.721   3.766  10.767
 6395W        W10459   9.675   3.549   3.573
 6396W        W10460   8.436   8.464  10.880
 6397W        W10461   8.081   0.442   0.618
 6398W        W10462   0.795   3.126  10.045
 6399W        W10463   6.222   9.604   0.972
 6400W        W10464   5.315   9.944   0.950
 6401W        W10465  10.069   3.213   2.071
 6402W        W10466  10.400   9.279  10.005
 6403W        W10467   6.022   7.148  11.289
 6404W        W10468   2.359   1.474   1.286
 6405W        W10469   6.712   3.224  10.284
 6406W        W10470   3.681   9.112   3.182
 6407W        W10471   2.840   6.159   8.798
 6408W        W10472   3.322   4.756   2.213
 6409W        W10473   3.577  10.477   0.702
 6410W        W10474   8.933   7.609   8.743
 6411W        W10475   9.708   8.761   9.072
 6412W        W10476  10.476   2.172   2.953
 6413W        W10477   2.374   2.107  10.499
 6414W        W10478   2.037   3.196   9.735
 6415W        W10479   6.885   1.828   1.884
 6416W        W10480   9.957   1.341   2.064
 6417W        W10481   9.799   9.146   2.887
 6418W        W10482   2.968   4.294  10.638
 6419W        W10483   5.591   4.482   9.423
 6420W        W10484   5.518   3.291   3.475
 6421W        W10485   0.389   7.249  11.560
 6422W        W10486   2.170   3.758  11.643
 6423W        W10487  10.056   3.502   9.015
 6424W        W10488   2.731   3.136   8.975
 6425W        W10489   8.614   3.850  10.617
 6426W        W10490   3.770   3.161   3.457
 6427W        W10491   7.279   7.122   2.752
 6428W        W10492   1.857   5.014   1.145
 6429W        W10493   6.844   9.873   9.408
 6430W        W10494   3.596   5.022   2.609
 6431W        W10495   0.398   7.861   0.451
 6432W        W10496   8.955   9.342   1.307
 6433W        W10497   5.778   1.753   9.483
 6434W        W10498   2.181   6.502   0.301
 6435W        W10499   5.331   2.878  10.958
 6436W        W10500   9.010   9.532   9.290
 6437W        W10501   7.186   5.237   8.464
 6438W        W10502   5.147   6.604  10.414
 6439W        W10503   9.484   4.063   0.272
 6440W        W10504   8.331   1.830   0.793
 6441W        W10505   9.094   6.073   3.675
 6442W        W10506   8.837   8.454   3.201
 6443W        W10507   1.719   0.554   0.232
 6444W        W10508   1.310  10.482  11.458
 6445W        W10509   9.988   8.515   2.430
 6446W        W10510   8.435   5.970   1.759
 6447W        W10511   1.211   7.177   3.065
 6448W        W10512   5.734   8.388   9.549
 6449W        W10513   4.279   4.782   8.622
 6450W        W10514   9.968   7.903  11.109
 6451W        W10515   7.337   5.118   3.078
 6452W        W10516   8.045   2.267   1.976
 6453W        W10517   6.452   9.844   0.467
 6454W        W10518   4.981   3.668   9.377
 6455W        W10519   6.166   6.309  11.361
 6456W        W10520   1.890   0.371   3.006
 6457W        W10521   2.190   4.676   9.473
 6458W        W10522   6.489   9.611   9.708
 6459W        W10523   4.940   8.043   2.281
 6460W        W10524   4.439   2.664   1.898
 6461W        W10525  10.238   9.646  10.936
 6462W        W10526   6.219   5.187   2.264
 6463W        W10527   5.467   3.330   1.500
 6464W        W10528   0.759   7.797   9.131
 6465W        W10529   6.194  10.451   3.180
 6466W        W10530   6.332   2.842   0.803
 6467W        W10531   5.446   1.133  10.505
 6468W        W10532   4.684   2.747  10.110
 6469W        W10533   1.854   6.155   2.269
 6470W        W10534   6.209   5.057   3.278
 6471W        W10535   1.598   6.562   8.829
 6472W        W10536   6.077   6.104   1.802
 6473W        W10537   5.705   4.317   1.392
 6474W        W10538   3.843   7.753   0.349
 6475W        W10539   0.482   6.498   3.475
 6476W        W10540   0.874   4.973  10.273
 6477W        W10541   0.158  10.185   2.065
 6478W        W10542   5.271   2.696  11.862
 6479W        W10543   9.571   3.122   0.250
 6480W        W10544  10.189   6.518   8.536
 6481W        W10545   5.238  10.435   2.826
 6482W        W10546   7.417   9.139   9.532
 6483W        W10547   4.469   6.468   0.148
 6484W        W10548   8.606   9.569   2.738
 6485W        W10549   2.382   4.233   1.394
 6486W        W10550  10.369   2.191   0.925
 6487W        W10551   7.981   7.912   9.997
 6488W        W10552   1.451   9.597  11.495
 6489W        W10553   5.657   7.220   3.506
 6490W        W10554   2.861   6.951   8.660
 6491W        W10555   3.022   3.484   0.536
 6492W        W10556   0.347   9.835   3.278
 6493W        W10557   5.508   9.361   2.240
 6494W        W10558   7.709   3.277   1.255
 6495W        W10559   6.243   4.012   4.125
 6496W        W10560   8.110   0.702   1.454
 6497W        W10561   0.416   4.106   1.334
 6498W        W10562   3.550   0.534  11.045
 6499W        W10563   4.794   9.852   1.746
 6500W        W10564   5.048   6.577   3.353
 6501W        W10565   1.844   1.390   0.991
 6502W        W10566   6.196   5.217   1.766
 6503W        W10567  10.056   5.779   2.275
 6504W        W10568   8.603   1.656  11.851
 6505W        W10569   6.046   8.553   1.887
 6506W        W10570   7.411   9.155   2.985
 6507W        W10571   8.853   8.399   1.964
 6508W        W10572   7.387   1.236   2.478
 6509W        W10573   9.584   9.502  11.549
 6510W        W10574   0.965   6.864   0.815
 6511W        W10575   7.008   0.804  11.362
 6512W        W10576   1.222   1.315   2.257
 6513W        W10577   1.622   9.081   3.392
 6514W        W10578   4.036   5.883  10.071
 6515W        W10579   2.647   2.486  11.773
 6516W        W10580   1.591   7.437  10.401
 6517W        W10581   1.181   1.001   1.339
 6518W        W10582   6.125   4.469   1.113
 6519W        W10583   3.366   2.598   1.837
 6520W        W10584   5.829   2.695  10.952
 6521W        W10585   8.331   7.328   1.141
 6522W        W10586   6.248   7.794   0.406
 6523W        W10587   0.545   4.072  10.443
 6524W        W10588   6.543   2.754   2.442
 6525W        W10589   2.227   2.841   1.152
 6526W        W10590   0.636  10.285   1.910
 6527W        W10591   6.298   1.336  10.245
 6528W        W10592   8.966   4.055   9.091
 6529W        W10593   8.818   2.811   0.523
 6530W        W10594   3.198   6.728   1.539
 6531W        W10595   5.195   0.884   1.893
 6532W        W10596   8.071   7.755   1.161
 6533W        W10597   8.275  10.426   9.742
 6534W        W10598   1.745   3.037   2.525
 6535W        W10599   1.788   6.117  10.703
 6536W        W10600   9.461   2.392   1.342
 6537W        W10601   4.935   6.385   1.942
 6538W        W10602   9.414   5.429   2.660
 6539W        W10603   4.808   8.657   9.878
 6540W        W10604   2.155   6.525  11.254
 6541W        W10605   4.622   3.343   2.575
 6542W        W10606   5.705   0.231  10.944
 6543W        W10607   1.413   8.517   2.741
 6544W        W10608   2.726   6.022  10.288
 6545W        W10609   2.788   2.208   0.241
 6546W        W10610   3.770   5.423   3.456
 6547W        W10611   4.564   6.053   2.014
 6548W        W10612   6.438   2.312   9.103
 6549W        W10613   1.829   2.228   2.743
 6550W        W10614   8.828   1.293   3.063
 6551W        W10615   7.181   1.066  10.814
 6552W        W10616   2.400   2.341   1.902
 6553W        W10617   0.927   1.132  10.229
 6554W        W10618   6.599   0.789   2.741
 6555W        W10619   0.383   9.907   2.792
 6556W        W10620   4.511   2.600   9.118
 6557W        W10621   2.195   1.417   9.376
 6558W        W10622   3.683   5.356   0.382
 6559W        W10623   8.546   6.358   0.266
 6560W        W10624   7.229  10.315  11.853
 6561W        W10625   3.618   8.458  10.537
 6562W        W10626   4.697   8.925   2.616
 6563W        W10627   7.915   2.673   2.764
 6564W        W10628   3.199   0.916   0.952
 6565W        W10629   1.582   3.100   0.719
 6566W        W10630   5.437   8.027   2.282
 6567W        W10631   9.346   3.619   2.441
 6568W        W10632   4.248   5.673  11.745
 6569W        W10633   1.030   2.765   8.536
 6570W        W10634   9.055   6.422  11.039
 6571W        W10635   3.781   6.957  10.487
 6572W        W10636   8.829   3.741   1.931
 6573W        W10637  10.007   7.758   3.627
 6574W        W10638   6.601   0.518   0.267
 6575W        W10639   3.303   6.592   9.780
 6576W        W10640  10.083   9.317  11.274
 6577W        W10641   5.771   4.303   3.102
 6578W        W10642   5.613   3.213   0.456
 6579W        W10643   0.770   9.007   3.189
 6580W        W10644   7.790   7.153  10.135
 6581W        W10645   8.448   6.017   9.076
 6582W        W10646   1.483   0.051   2.869
 6583W        W10647   0.433   0.321   0.757
 6584W        W10648   3.619   5.486  10.349
 6585W        W10649   8.816  10.322   0.854
 6586W        W10650   8.535   8.561   8.950
 6587W        W10651   5.853   4.389   2.157
 6588W        W10652   0.172   6.500   8.741
 6589W        W10653   6.567   6.799   8.796
 6590W        W10654   0.107   8.622  10.908
 6591W        W10655   7.847   3.662   9.352
 6592W        W10656   3.005   7.086   1.871
 6593W        W10657   7.882   7.628   2.151
 6594W        W10658   5.179  10.242   1.842
 6595W        W10659   5.719   4.059   3.978
 6596W        W10660   5.493   7.612  11.824
 6597W        W10661   6.166   2.800  11.951
 6598W        W10662   4.885   8.687   8.482
 6599W        W10663   5.518   0.753   0.204
 6600W        W10664   8.360   6.000   0.889
 6601W        W10665   5.144   5.991   2.746
 6602W        W10666   8.583   4.166   1.739
 6603W        W10667   6.204   3.716  10.420
 6604W        W10668   2.207   2.297   0.980
 6605W        W10669   9.426   5.359   0.267
 6606W        W10670   7.475   3.071   9.735
 6607W        W10671   5.780   4.774   3.320
 6608W        W10672   1.978   6.130  11.725
 6609W        W10673   4.139   4.892   9.783
 6610W        W10674   5.903   1.388   9.830
 6611W        W10675   1.863   6.958   1.447
 6612W        W10676   4.995   1.669   2.497
 6613W        W10677   3.723   2.255   2.084
 6614W        W10678   6.939   6.302   9.467
 6615W        W10679   3.404   1.903  11.244
 6616W        W10680   1.815   0.850   0.634
 6617W        W10681   3.336   4.491   0.792
 6618W        W10682   9.761   4.179   2.953
 6619W        W10683   4.446  10.400   8.651
 6620W        W10684   0.269   6.205  10.267
 6621W        W10685   3.331   1.117   2.780
 6622W        W10686   1.770   5.689   8.718
 6623W        W10687   8.540   8.513   8.431
 6624W        W10688   5.101   1.420  10.694
 6625W        W10689   0.783   5.473   1.511
 6626W        W10690   9.304   8.206   2.867
 6627W        W10691   6.519   5.603  11.171
 6628W        W10692  10.368   5.971  11.316
 6629W        W10693   9.453   6.877   0.071
 6630W        W10694   9.669   2.503  11.511
 6631W        W10695   7.615   8.439   8.422
 6632W        W10696   7.925   1.399   9.362
 6633W        W10697   0.801   7.490   1.394
 6634W        W10698   0.901   3.590   0.282
 6635W        W10699   1.609   0.822  11.327
 6636W        W10700  10.279   7.467  11.303
 6637W        W10701   8.430   8.055  11.866
 6638W        W10702   7.042   2.298   3.566
 6639W        W10703   3.116   3.540  11.088
 6640W        W10704   0.336   5.804   1.010
 6641W        W10705   4.262   0.745  10.874
 6642W        W10706   7.973   6.957   0.429
 6643W        W10707   1.399   7.560  11.843
 6644W        W10708   4.962   3.519   9.872
 6645W        W10709   1.882   7.192   2.297
 6646W        W10710   1.276   6.286  11.320
 6647W        W10711   4.200   8.570   1.789
 6648W        W10712   4.959  10.316  10.137
 6649W        W10713   7.978   4.097  10.521
 6650W        W10714   8.956   2.853   9.500
 6651W        W10715   2.401   6.182   9.047
 6652W        W10716   1.023   8.549  10.718
 6653W        W10717   8.993   9.938   1.984
 6654W        W10718   1.267   9.024   3.022
 6655W        W10719   7.247   3.951   9.241
 6656W        W10720   7.152   0.511   0.126
 6657W        W10721   8.718  10.374   9.995
 6658W        W10722   2.771   6.906   2.278
 6659W        W10723   4.741   7.364  11.153
 6660W        W10724   2.202   3.699   0.666
 6661W        W10725   4.766   3.602   1.005
 6662W        W10726   9.669   1.765   3.781
 6663W        W10727   9.879   3.800  10.962
 6664W        W10728   6.398   9.542   3.383
 6665W        W10729   3.326   4.578   2.713
 6666W        W10730   3.287   7.044   0.168
 6667W        W10731   6.719   9.584   0.853
 6668W        W10732   5.641   9.224   3.372
 6669W        W10733   4.253   1.304   0.705
 6670W        W10734   8.819   3.786  11.722
 6671W        W10735  10.041   2.239   0.215
 6672W        W10736   6.105   0.924   8.982
 6673W        W10737   6.363   0.973   3.482
 6674W        W10738   9.171   1.491   1.780
 6675W        W10739   2.299  10.223  11.442
 6676W        W10740   0.680   7.850   9.638
 6677W        W10741   4.339   3.054   2.263
 6678W        W10742   2.455   9.698   9.599
 6679W        W10743   0.767   1.918   1.799
 6680W        W10744   5.567   9.862   2.749
 6681W        W10745   0.025   0.676   2.669
 6682W        W10746   0.367   5.004  10.245
 6683W        W10747   2.877   7.469   9.881
 6684W        W10748   8.702   1.239   1.998
 6685W        W10749   9.966   4.834   3.218
 6686W        W10750  10.155   8.649   2.908
 6687W        W10751   2.662   6.236   9.821
 6688W        W10752   6.632   5.731  10.703
 6689W        W10753   2.162   8.238  11.879
 6690W        W10754   5.287   6.923  10.037
 6691W        W10755   0.231   6.015   2.919
 6692W        W10756   1.034   7.628  11.456
 6693W        W10757   8.130   3.500   0.741
 6694W        W10758  10.444  10.218  11.323
 6695W        W10759   0.568   9.433   2.917
 6696W        W10760   6.476   2.335  10.488
 6697W        W10761   4.217   7.072  11.673
 6698W        W10762   6.397   5.128   2.749
 6699W        W10763   2.218   1.634   0.653
 6700W        W10764   8.999   1.960   9.066
 6701W        W10765   2.257   2.678   3.058
 6702W        W10766   0.377   3.600   1.261
 6703W        W10767   8.845   8.624   9.638
 6704W        W10768   5.988   2.332   0.255
 6705W        W10769   6.321   9.806   1.721
 6706W        W10770   2.568   7.331  10.737
 6707W        W10771   3.239   8.897   0.537
 6708W        W10772   3.322   4.192  10.271
 6709W        W10773   0.040   8.502   9.011
 6710W        W10774   7.410  10.176   0.972
 6711W        W10775   3.150   1.854   9.893
 6712W        W10776   8.124   3.078   2.529
 6713W        W10777   6.012   4.568   8.648
 6714W        W10778   4.599   4.084   1.825
 6715W        W10779   0.170   9.006   8.886
 6716W        W10780   4.145   3.253   2.726
 6717W        W10781   2.662   5.687  11.262
 6718W        W10782   7.099  10.476   0.717
 6719W        W10783   2.300   1.184   0.861
 6720W        W10784   3.824   5.471   2.448
 6721W        W10785   4.017   4.135   9.482
 6722W        W10786   9.835   5.920   1.835
 6723W        W10787   3.223  10.230  11.073
 6724W        W10788   0.045   7.583   0.715
 6725W        W10789   4.116   5.950  10.927
 6726W        W10790   6.993   3.361  11.073
 6727W        W10791   1.266   9.975   2.913
 6728W        W10792   7.396  10.443   9.520
 6729W        W10793   2.332   7.524   3.259
 6730W        W10794  10.267   1.264   8.890
 6731W        W10795   5.181   6.041   1.320
 6732W        W10796   8.364   3.130   3.355
 6733W        W10797   9.963   6.948   3.409
 6734W        W10798   6.976  10.025   3.126
 6735W        W10799   4.288   1.686   1.417
 6736W        W10800   6.559   3.557  11.553
 6737W        W10801   1.344  10.021   0.943
 6738W        W10802   3.656   5.756   8.870
 6739W        W10803   9.976   3.370   0.775
 6740W        W10804   4.479   7.919   2.436
 6741W        W10805   6.519   5.703   1.123
 6742W        W10806   0.900   6.195   0.386
 6743W        W10807   0.890   5.975   1.298
 6744W        W10808  10.331   3.989   0.650
 6745W        W10809   6.550   7.051   2.233
 6746W        W10810   9.521  10.200  10.299
 6747W        W10811   9.559   2.404   2.967
 6748W        W10812   6.386   1.752   1.906
 6749W        W10813   2.162   8.970   0.707
 6750W        W10814   5.076   7.193   0.760
 6751W        W10815   3.279   6.087   1.888
 6752W        W10816   7.546  10.083   0.484
 6753W        W10817   0.383   9.418   0.398
 6754W        W10818   6.962   4.229   8.907
 6755W        W10819   5.694   6.046   1.459
 6756W        W10820   9.190   3.305  11.915
 6757W        W10821   6.554   8.648  10.083
 6758W        W10822   4.652   8.481  10.942
 6759W        W10823   9.954   3.819   3.238
 6760W        W10824   5.108   0.857  11.930
 6761W        W10825   0.241   5.848   9.747
 6762W        W10826   5.549   1.165   1.092
 6763W        W10827   4.092   3.513   3.159
 6764W        W10828   2.256   6.709   3.039
 6765W        W10829   7.663   0.856  10.939
 6766W        W10830   6.872   9.455   2.468
 6767W        W10831  10.216   7.878   9.233
 6768W        W10832   2.631   8.796   2.137
 6769W        W10833   8.964   6.674   0.059
 6770W        W10834   1.607   9.029   1.023
 6771W        W10835   7.990   0.432   0.043
 6772W        W10836   2.322   4.718   1.208
 6773W        W10837   2.599   9.848   1.443
 6774W        W10838   6.649   5.395  10.338
 6775W        W10839   7.523   2.802   8.526
 6776W        W10840   8.840   1.773   0.781
 6777W        W10841   1.231   5.443  10.895
 6778W        W10842   5.307   6.487  11.425
 6779W        W10843   2.352   8.674   1.111
 6780W        W10844   5.484   0.410   9.907
 6781W        W10845   8.883   2.575   2.394
 6782W        W10846   6.696   9.019   8.946
 6783W        W10847   5.436   7.147   9.602
 6784W        W10848   0.293   8.253   8.614
 6785W        W10849   8.565   4.271   0.735
 6786W        W10850   8.906   3.115  10.503
 6787W        W10851   5.141   0.888   3.173
 6788W        W10852   7.634   1.264   0.118
 6789W        W10853   7.643   9.159   0.884
 6790W        W10854   5.567   4.341  10.736
 6791W        W10855   9.811   2.894   0.920
 6792W        W10856   1.764  10.231   0.743
 6793W        W10857   2.393   4.672   1.716
 6794W        W10858   6.338   8.348   0.363
 6795W        W10859   0.252   4.555   1.494
 6796W        W10860   5.209   2.906   1.614
 6797W        W10861   6.757   9.522   9.041
 6798W        W10862   3.436   8.537   3.099
 6799W        W10863   1.436   8.614  10.381
 6800W        W10864   8.896   6.646   2.020
 6801W        W10865   1.762   8.601   3.120
 6802W        W10866   5.150   4.124   3.310
 6803W        W10867   8.155   9.555   3.498
 6804W        W10868   6.172   9.853  10.068
 6805W        W10869   7.795   5.930  10.057
 6806W        W10870   4.163   0.872   0.400
 6807W        W10871   9.850   7.445   9.324
 6808W        W10872   4.291   0.410   0.228
 6809W        W10873   7.125   6.049   8.573
 6810W        W10874   1.258   9.853  10.781
 6811W        W10875   9.374   0.597  11.932
 6812W        W10876  10.259   5.774   0.229
 6813W        W10877   1.641   0.799   3.329
 6814W        W10878   2.454   4.607   0.714
 6815W        W10879   5.531   7.989   9.782
 6816W        W10880   5.189   5.654  10.406
 6817W        W10881   4.714   9.132   9.712
 6818W        W10882   8.329   3.270  11.273
 6819W        W10883  10.059  10.447   9.452
 6820W        W10884   6.887   8.965   1.670
 6821W        W10885   3.245   0.198  10.815
 6822W        W10886   4.476   8.084  10.678
 6823W        W10887   6.806   4.286  11.707
 6824W        W10888   9.849   4.785   2.361
 6825W        W10889   5.784   6.146   0.100
 6826W        W10890   5.114   1.395   1.818
 6827W        W10891   3.564   4.656  10.401
 6828W        W10892   5.732   8.423  11.381
 6829W        W10893   4.577   1.002   2.917
 6830W        W10894   0.553   3.326   2.868
 6831W        W10895   0.153   8.909   9.386
 6832W        W10896   4.971   1.690   0.041
 6833W        W10897  10.378   3.279   1.654
 6834W        W10898   8.995   0.907   8.963
 6835W        W10899   6.438   0.333  10.402
 6836W        W10900   3.321   9.598   0.109
 6837W        W10901   9.937   4.154   2.466
 6838W        W10902  10.281   2.270   2.461
 6839W        W10903   1.216   3.079   1.617
 6840W        W10904   2.982   1.738  11.493
 6841W        W10905   5.415   5.686   2.362
 6842W        W10906   8.884   3.706   9.458
 6843W        W10907   0.605   3.204   3.444
 6844W        W10908   3.958   8.930  11.968
 6845W        W10909   9.494   6.957   3.578
 6846W        W10910   6.591   5.425   1.974
 6847W        W10911   7.589   0.581   1.366
 6848W        W10912   5.594   7.025   2.296
 6849W        W10913   7.130   1.305   0.197
 6850W        W10914   5.432  10.395   0.293
 6851W        W10915   8.574  10.188   8.619
 6852W        W10916   8.889   7.163   0.218
 6853W        W10917   4.074   7.130  10.889
 6854W        W10918   8.871   5.095   9.834
 6855W        W10919   3.739   5.079   9.100
 6856W        W10920   0.379   2.243  11.920
 6857W        W10921   7.243   8.831   8.721
 6858W        W10922   0.106   9.403   3.474
 6859W        W10923   0.270   1.726  11.703
 6860W        W10924   1.769   2.117  11.605
 6861W        W10925   7.826   2.306   8.441
 6862W        W10926   4.240   3.983   3.135
 6863W        W10927   3.283  10.279  11.586
 6864W        W10928   7.574   1.662  10.267
 6865W        W10929   9.248   5.083   3.295
 6866W        W10930   9.591   9.993   0.753
 6867W        W10931   0.583   3.320  11.295
 6868W        W10932   1.765   2.608   8.963
 6869W        W10933   4.926   6.065   3.250
 6870W        W10934   9.797   6.798   2.281
 6871W        W10935   2.465   5.559   2.206
 6872W        W10936   5.032   1.710   3.126
 6873W        W10937   6.750   2.582   0.836
 6874W        W10938   5.455   2.214   9.596
 6875W        W10939   6.409   1.189   9.775
 6876W        W10940   7.955   2.278  11.872
 6877W        W10941   1.312   2.853   8.957
 6878W        W10942   1.279   7.362   0.327
 6879W        W10943   4.934   1.875   0.885
 6880W        W10944   0.837   4.264  10.823
 6881W        W10945   7.367   9.133  11.169
 6882W        W10946  10.053   5.250   9.334
 6883W        W10947   4.324   3.116  11.859
 6884W        W10948   3.392   1.295   0.252
 6885W        W10949   9.936   5.367   9.890
 6886W        W10950   7.368   4.111   3.874
 6887W        W10951   6.250   4.041   2.175
 6888W        W10952   2.099   1.904   1.974
 6889W        W10953   0.608   7.478   2.315
 6890W        W10954   6.411   3.326   9.020
 6891W        W10955   9.710   6.851   1.773
 6892W        W10956   5.689   8.870   3.009
 6893W        W10957  10.390   1.372   2.468
 6894W        W10958   0.342   4.212   2.036
 6895W        W10959   3.960   1.771  11.732
 6896W        W10960   0.360   1.781  10.311
 6897W        W10961   6.627   3.726   2.994
 6898W        W10962   8.614   5.549   0.834
 6899W        W10963   7.997   4.746   3.512
 6900W        W10964   7.150   9.427  11.995
 6901W        W10965   1.776   6.150  11.225
 6902W        W10966   2.613   7.945  11.986
 6903W        W10967   8.488   0.904  11.584
 6904W        W10968  10.102   5.501  10.493
 6905W        W10969   8.486   5.653   3.139
 6906W        W10970   3.705   0.254   9.558
 6907W        W10971   6.038   9.457   2.006
 6908W        W10972   0.897   0.653   8.468
 6909W        W10973   0.503  10.274   8.799
 6910W        W10974   8.937   9.307   8.759
 6911W        W10975   6.161   1.368  11.748
 6912W        W10976   0.046   8.504  10.405
 6913W        W10977   6.517   9.817  10.943
 6914W        W10978   2.697   2.624   8.872
 6915W        W10979   7.901   2.960  11.269
 6916W        W10980   0.884   3.524   9.201
 6917W        W10981   6.637   4.470  10.513
 6918W        W10982   2.595   5.140  11.010
 6919W        W10983   8.618   5.566  11.677
 6920W        W10984   4.418   1.320   0.239
 6921W        W10985   5.211   6.222   0.802
 6922W        W10986   6.408  10.081   8.175
 6923W        W10987   4.235   5.684   2.735
 6924W        W10988   9.962   7.985  10.112
 6925W        W10989   2.414   7.742   0.729
 6926W        W10990   9.004   3.629   1.184
 6927W        W10991   7.352   5.402  11.817
 6928W        W10992   8.325   3.664  11.832
 6929W        W10993   6.467   7.117   9.595
 6930W        W10994   9.938   7.081   0.099
 6931W        W10995   3.800   5.536   2.964
 6932W        W10996  10.480   0.907  11.893
 6933W        W10997   7.603  10.308   3.027
 6934W        W10998   5.103  10.432   3.352
 6935W        W10999   9.536   4.237   1.239
 6936W        W11000   7.540   4.667   3.191
 6937W        W11001   3.209  10.333   2.438
 6938W        W11002   6.906   3.142   3.725
 6939W        W11003   9.374   8.343  10.988
 6940W        W11004   8.045   7.179   3.226
 6941W        W11005   7.512   7.833   9.369
 6942W        W11006   8.432   3.352   2.853
 6943W        W11007   4.627   3.569   2.093
 6944W        W11008   6.463   4.933  10.439
 6945W        W11009   7.565   1.436   1.532
 6946W        W11010   6.044   4.586   0.564
 6947W        W11011   3.835   7.284   2.842
 6948W        W11012   8.563   0.657   1.706
 6949W        W11013   8.508   1.406  11.405
 6950W        W11014   1.237   4.706   1.351
 6951W        W11015   7.467   7.756  11.902
 6952W        W11016  10.306   2.706   9.132
 6953W        W11017   7.910   9.941   2.812
 6954W        W11018   4.489   6.619   2.195
 6955W        W11019   0.820   4.710   0.852
 6956W        W11020   7.065   4.730  11.543
 6957W        W11021   5.210   2.223  10.592
 6958W        W11022   1.695   4.710   0.448
 6959W        W11023   8.536  10.223   1.265
 6960W        W11024   0.121   8.014   1.004
 6961W        W11025   4.640   7.413  10.304
 6962W        W11026   8.414   9.002  11.508
 6963W        W11027   7.186   9.216   9.062
 6964W        W11028   6.280   6.085   9.957
 6965W        W11029   9.940  10.438   8.931
 6966W        W11030   5.948   1.906   0.613
 6967W        W11031   2.763   2.723   0.469
 6968W        W11032   0.288   5.120   2.152
 6969W        W11033   4.046   9.063   1.908
 6970W        W11034   1.881   5.099   1.659
 6971W        W11035   9.024   4.082   0.921
 6972W        W11036   0.405   5.607   0.524
 6973W        W11037   6.686   4.293   3.284
 6974W        W11038  10.499   7.871   3.495
 6975W        W11039   1.983   1.741  10.116
 6976W        W11040   7.555   0.691   3.191
 6977W        W11041   7.534   2.143   3.703
 6978W        W11042   1.214   8.637  11.691
 6979W        W11043   2.788   5.302  10.010
 6980W        W11044   2.358   2.750   3.550
 6981W        W11045  10.305   2.154   1.453
 6982W        W11046   5.984   1.736   8.666
 6983W        W11047   9.374   8.599   1.114
 6984W        W11048   0.763   3.717   0.791
 6985W        W11049   4.198   7.442   1.558
 6986W        W11050   6.327   4.665   0.139
 6987W        W11051   3.556   1.932   9.533
 6988W        W11052   3.146   6.384   3.987
 6989W        W11053   8.604   4.835   2.681
 6990W        W11054   9.405   0.111   8.960
 6991W        W11055   3.638   4.164   1.619
 6992W        W11056   1.604   4.211   0.779
 6993W        W11057   3.399   7.434   9.241
 6994W        W11058   9.863   9.084   9.445
 6995W        W11059   5.646   4.535   0.889
 6996W        W11060   2.235   4.696  10.353
 6997W        W11061  10.016   2.140  10.657
 6998W        W11062   9.252   9.849  11.790
 6999W        W11063   5.107  10.043   0.501
 7000W        W11064   1.194   0.319   2.535
 7001W        W11065   7.481   0.983  11.476
 7002W        W11066   9.974   2.305  11.165
 7003W        W11067   3.378   1.819  10.367
 7004W        W11068   7.992   4.805   9.981
 7005W        W11069   9.371   7.530   2.912
 7006W        W11070   6.398   0.357   2.923
 7007W        W11071   1.719   4.884   9.426
 7008W        W11072   3.649   1.443   9.408
 7009W        W11073   9.921   8.055   0.441
 7010W        W11074   8.829   0.994   0.407
 7011W        W11075   5.501   7.187  10.476
 7012W        W11076   2.400   9.438   0.677
 7013W        W11077   3.840   4.234  10.412
 7014W        W11078   4.787   4.264   2.279
 7015W        W11079   4.606   2.419   0.152
 7016W        W11080   8.432   5.563   0.146
 7017W        W11081   3.657  10.055  11.299
 7018W        W11082   9.067   4.785  11.341
 7019W        W11083   9.642   7.079   9.915
 7020W        W11084   4.597   8.598   8.905
 7021W        W11085   4.799   4.039  10.342
 7022W        W11086   1.957   0.782   9.009
 7023W        W11087   8.417  10.035   2.692
 7024W        W11088  10.053   5.615   3.635
 7025W        W11089   5.200   2.208   3.182
 7026W        W11090   6.907   5.540   0.032
 7027W        W11091   2.239   0.032   9.049
 7028W        W11092   8.133   5.126   2.546
 7029W        W11093   8.300   0.595  10.387
 7030W        W11094  10.027   5.256   8.812
 7031W        W11095   9.218   9.012  10.361
 7032W        W11096  10.070   4.572   2.775
 7033W        W11097   9.006   4.665  10.158
 7034W        W11098   5.770   4.809   1.294
 7035W        W11099   7.255   6.446   3.285
 7036W        W11100   1.679   3.580   9.784
 7037W        W11101   7.600   4.872   2.223
 7038W        W11102   3.739   1.782   9.040
 7039W        W11103   8.601   5.359   2.675
 7040W        W11104   4.092   9.951   3.134
 7041W        W11105   4.238   2.909   1.497
 7042W        W11106   7.125   4.504   3.466
 7043W        W11107   6.941   6.940  11.499
 7044W        W11108   9.792   4.503   0.249
 7045W        W11109   6.650   4.142   1.829
 7046W        W11110   2.639   6.817  10.865
 7047W        W11111   6.888   9.585   0.374
 7048W        W11112   1.681   3.470   8.507
 7049W        W11113  10.341   4.073   8.348
 7050W        W11114   5.439   9.446   9.005
 7051W        W11115   8.945   7.593   9.762
 7052W        W11116   1.307   3.831   0.073
 7053W        W11117   1.106   4.668   8.511
 7054W        W11118   4.547   3.591   9.076
 7055W        W11119   5.514   1.616   8.523
 7056W        W11120   0.873   7.918  10.115
 7057W        W11121  10.442  10.485  11.826
 7058W        W11122   1.432   2.268   1.377
 7059W        W11123   7.374   9.412   2.283
 7060W        W11124   5.538   6.707  11.952
 7061W        W11125   8.845   2.405   0.067
 7062W        W11126   6.393   3.037   8.513
 7063W        W11127   8.918   0.653  11.723
 7064W        W11128   0.303   4.490  11.477
 7065W        W11129   4.700   6.685   8.573
 7066W        W11130   6.699   6.766   9.292
 7067W        W11131   0.586   1.173   0.301
 7068W        W11132   9.259   2.415  11.794
 7069W        W11133   5.302   1.850  11.666
 7070W        W11134   1.177   1.793  11.866
 7071W        W11135  10.463   4.287   9.592
 7072W        W11136   1.022   3.291   2.420
 7073W        W11137   2.695   7.917   1.478
 7074W        W11138   3.266   6.047   9.055
 7075W        W11139   9.784   2.239   2.164
 7076W        W11140   4.253   2.213   1.472
 7077W        W11141   6.529   6.301   1.715
 7078W        W11142   3.082   6.563   1.996
 7079W        W11143   5.434   6.461   2.677
 7080W        W11144   0.831   9.807   3.124
 7081W        W11145   2.771   0.298   3.599
 7082W        W11146   7.880   2.046   0.951
 7083W        W11147   0.490   6.699   0.944
 7084W        W11148   2.208   1.254  10.513
 7085W        W11149   8.428   0.516   1.105
 7086W        W11150   7.899   1.848   1.718
 7087W        W11151   6.487   5.909   2.083
 7088W        W11152   6.647  10.368   2.892
 7089W        W11153   6.986   6.427   2.692
 7090W        W11154   4.288   2.146  11.877
 7091W        W11155   6.493   9.324   1.791
 7092W        W11156   6.097   2.717   2.725
 7093W        W11157   0.701   8.573  11.589
 7094W        W11158   2.291   7.222   1.452
 7095W        W11159   4.162  10.026  11.241
 7096W        W11160  10.282   6.649   2.255
 7097W        W11161  10.308   1.797  11.541
 7098W        W11162   9.282   4.212  10.073
 7099W        W11163   1.311   6.932  11.057
 7100W        W11164   3.738   7.487  10.522
 7101W        W11165   1.309   1.570  11.427
 7102W        W11166   9.569   0.018  11.206
 7103W        W11167   1.142   1.705  10.961
 7104W        W11168   0.379   3.281   1.792
 7105W        W11169   6.527   4.659   0.823
 7106W        W11170   0.027   9.106   0.168
 7107W        W11171   1.825   3.143   1.186
 7108W        W11172   9.866   7.481  10.839
 7109W        W11173   1.441   9.818   0.441
 7110W        W11174   1.610   4.314   1.905
 7111W        W11175   4.672   1.019   1.172
 7112W        W11176   6.876   6.643   1.330
 7113W        W11177   2.823   6.986  10.409
 7114W        W11178   3.532   7.008   9.589
 7115W        W11179   5.108   0.567   1.482
 7116W        W11180   1.991   4.276   0.438
 7117W        W11181   2.758   9.351   9.360
 7118W        W11182   9.181   8.776   3.423
 7119W        W11183   8.418   7.691   8.946
 7120W        W11184   4.040   6.996   9.587
 7121W        W11185   4.327   6.262   4.140
 7122W        W11186   0.814   0.386   1.853
 7123W        W11187   9.461   2.451   0.848
 7124W        W11188   9.859   5.048   1.532
 7125W        W11189   2.543   7.827   9.995
 7126W        W11190  10.206   0.519   3.084
 7127W        W11191   2.847   0.215   1.737
 7128W        W11192   3.354   4.769  11.035
 7129W        W11193   3.581   6.223   8.670
 7130W        W11194   9.551   2.532  11.007
 7131W        W11195   9.644   8.657   2.824
 7132W        W11196   5.513   9.367   9.507
 7133W        W11197   8.462   8.580   9.971
 7134W        W11198   7.868   5.410   8.857
 7135W        W11199   7.001   2.686   2.243
 7136W        W11200   2.621   1.816   2.677
 7137W        W11201   9.783   7.539  11.428
 7138W        W11202   6.926   3.498   9.209
 7139W        W11203   2.286   3.477  10.666
 7140W        W11204   9.196   9.143   0.458
 7141W        W11205   6.546   0.009   8.916
 7142W        W11206   9.026   2.026  10.906
 7143W        W11207   0.926   7.123  11.409
 7144W        W11208   1.433   5.628   3.261
 7145W        W11209   0.345   2.921   9.311
 7146W        W11210  10.321   5.997  10.479
 7147W        W11211   9.138   5.182   9.400
 7148W        W11212   0.522   3.257   2.342
 7149W        W11213   7.465   2.216  11.716
 7150W        W11214   0.356   1.530   3.406
 7151W        W11215  10.262   4.231  10.932
 7152W        W11216  10.391   2.912   9.608
 7153W        W11217   5.465   7.859   0.273
 7154W        W11218   4.765   7.354   1.291
 7155W        W11219   4.625   2.844   0.439
 7156W        W11220   2.379   7.418  11.227
 7157W        W11221   9.308  10.025   2.797
 7158W        W11222   6.513   5.197   3.653
 7159W        W11223   3.598   0.241   3.510
 7160W        W11224   6.214   5.720  10.379
 7161W        W11225   2.594   0.195   0.013
 7162W        W11226   1.451   4.904   1.810
 7163W        W11227   1.881   8.913   9.818
 7164W        W11228  10.251   1.094  10.988
 7165W        W11229   4.298   4.715   0.958
 7166W        W11230   1.809  10.386  11.157
 7167W        W11231   0.399   6.190   0.657
 7168W        W11232   6.787   1.670   0.912
 7169W        W11233   0.911   3.857  11.743
 7170W        W11234   6.101   3.301   8.118
 7171W        W11235   3.588   6.631   0.204
 7172W        W11236   6.973   5.012   9.366
 7173W        W11237   7.354   9.505  11.537
 7174W        W11238   4.631   9.616   1.041
 7175W        W11239   2.607   4.714  10.733
 7176W        W11240   5.418   7.106   3.933
 7177W        W11241   9.695   7.542   2.207
 7178W        W11242   9.722   2.991  11.327
 7179W        W11243   6.234   5.279   1.281
 7180W        W11244   0.331   3.167  10.312
 7181W        W11245   0.491   8.560   9.492
 7182W        W11246   3.805   8.436   2.361
 7183W        W11247   9.617   8.760   2.161
 7184W        W11248   8.352   2.286  11.493
 7185W        W11249   0.182   2.157   9.975
 7186W        W11250   4.977   0.387   9.150
 7187W        W11251   5.108   7.696   0.637
 7188W        W11252  10.039  10.270   0.807
 7189W        W11253   2.310   6.454  10.724
 7190W        W11254   4.986   5.334   1.638
 7191W        W11255   9.504   1.399   1.292
 7192W        W11256   1.895   4.430  11.475
 7193W        W11257   7.705   6.654  11.364
 7194W        W11258   6.655   5.274   3.161
 7195W        W11259   1.272   5.930   1.957
 7196W        W11260   7.090   4.027   3.063
 7197W        W11261   1.815   6.171   0.244
 7198W        W11262   7.562   7.298   2.354
 7199W        W11263   5.535   9.429  10.490
 7200W        W11264   2.691   6.406   2.305
 7201W        W11265   4.067   9.046   0.488
 7202W        W11266   6.104   2.381   0.747
 7203W        W11267   0.812   8.098   2.234
 7204W        W11268   3.177   6.538   8.820
 7205W        W11269   1.698   8.833   8.924
 7206W        W11270   1.319   5.202  10.428
 7207W        W11271   5.585   2.823   2.814
 7208W        W11272   3.216   1.854   0.500
 7209W        W11273   1.614   6.935   1.898
 7210W        W11274   6.211   3.038   9.383
 7211W        W11275   4.836   7.998   3.604
 7212W        W11276   7.499   9.588   9.260
 7213W        W11277   6.664   1.720   2.363
 7214W        W11278   2.805   2.831   9.866
 7215W        W11279  10.269   2.804  10.518
 7216W        W11280   1.785   6.916  11.260
 7217W        W11281   5.942   8.096  11.012
 7218W        W11282   4.158   5.743   2.140
 7219W        W11283   9.965   7.584   1.326
 7220W        W11284   0.812   9.421  10.041
 7221W        W11285   4.193   5.591  11.258
 7222W        W11286   1.341   8.158  11.559
 7223W        W11287   8.599   3.745   1.459
 7224W        W11288   6.884   0.910   0.402
 7225W        W11289   4.732   5.400  10.422
 7226W        W11290   9.866   8.000   2.324
 7227W        W11291   7.123  10.339   8.702
 7228W        W11292   8.121   8.182  11.323
 7229W        W11293   3.031   2.358  10.021
 7230W        W11294   7.584   6.866  10.899
 7231W        W11295   4.090   4.275   9.969
 7232W        W11296  10.289   6.221   0.474
 7233W        W11297   6.389   9.693   2.560
 7234W        W11298   5.043   9.578  11.751
 7235W        W11299   8.657   4.395   2.418
 7236W        W11300   1.593   7.238   2.724
 7237W        W11301   7.605   6.880   3.253
 7238W        W11302   9.407   5.191   1.277
 7239W        W11303   8.311   9.187   2.335
 7240W        W11304   0.318   8.170  11.590
 7241W        W11305   9.982   1.650   3.402
 7242W        W11306   8.456   8.321   2.286
 7243W        W11307   6.922   4.652   8.591
 7244W        W11308   0.607   7.181   1.033
 7245W        W11309   0.771  10.438  10.969
 7246W        W11310   4.192   9.335   2.321
 7247W        W11311   6.518   2.133   0.909
 7248W        W11312   0.796   6.986  10.276
 7249W        W11313   2.829   5.884   3.932
 7250W        W11314   4.077   6.628  11.426
 7251W        W11315   5.944   6.923  10.487
 7252W        W11316   8.365   8.580   9.459
 7253W        W11317   9.428   0.629   9.048
 7254W        W11318   8.104   5.177   0.330
 7255W        W11319   4.786   4.187   0.276
 7256W        W11320   9.890   0.860  10.302
 7257W        W11321   2.916   6.662   9.473
 7258W        W11322   6.856   5.919   0.365
 7259W        W11323  10.377   6.561   1.732
 7260W        W11324   7.392   4.469   9.837
 7261W        W11325   7.944   3.171   3.001
 7262W        W11326   1.387   4.696   0.029
 7263W        W11327   6.271   0.409   1.072
 7264W        W11328   3.115   0.853  10.173
 7265W        W11329   9.513   8.066   1.613
 7266W        W11330   2.113   4.994   0.609
 7267W        W11331   4.199   9.393  11.883
 7268W        W11332   2.803   6.967   0.936
 7269W        W11333   2.743   3.834  11.434
 7270W        W11334   1.702  10.330   9.722
 7271W        W11335   0.882   5.506   8.617
 7272W        W11336   5.968   6.882   3.300
 7273W        W11337   7.409   7.574   0.398
 7274W        W11338   5.214   0.541   2.278
 7275W        W11339   3.277   9.690  11.140
 7276W        W11340   9.256   7.065  10.331
 7277W        W11341   4.977   5.575   0.278
 7278W        W11342   1.765   1.408  11.259
 7279W        W11343   0.546   5.175   8.898
 7280W        W11344   5.741   9.414   0.922
 7281W        W11345   5.013   6.985  11.389
 7282W        W11346   0.887   9.892   1.689
 7283W        W11347   1.690   9.800   8.997
 7284W        W11348   8.980   6.626   9.576
 7285W        W11349   9.903   2.668  11.961
 7286W        W11350   8.080   8.595   8.610
 7287W        W11351   1.967   5.660   2.299
 7288W        W11352   7.852   7.460   9.235
 7289W        W11353   5.480   5.718   9.027
 7290W        W11354   0.303   3.561   9.979
 7291W        W11355  10.359   6.588  11.840
 7292W        W11356   3.338   3.064  11.994
 7293W        W11357   4.566   7.684   9.893
 7294W        W11358   8.418   2.114  11.977
 7295W        W11359   6.538   7.519  10.640
 7296W        W11360   2.826   2.384   2.902
 7297W        W11361   7.407   2.101   9.738
 7298W        W11362   3.642   5.022   9.604
 7299W        W11363   9.401   7.856   2.513
 7300W        W11364   5.942   8.658   0.331
 7301W        W11365   3.593   3.816   9.409
 7302W        W11366   0.260   6.514   2.151
 7303W        W11367   2.362   5.118   9.310
 7304W        W11368   9.794   8.071   1.203
 7305W        W11369   9.340  10.096   8.870
 7306W        W11370   7.373   1.769  11.968
 7307W        W11371   1.493   3.178   2.985
 7308W        W11372   0.786  10.303  10.093
 7309W        W11373   0.890   7.732   3.585
 7310W        W11374   1.236   1.314   9.078
 7311W        W11375   8.103   0.312   9.073
 7312W        W11376   5.087   0.764   0.994
 7313ION    NA+11377   6.451   4.848   8.710
 7314ION    NA+11378   1.848  10.064   2.200
 7315ION    NA+11379   7.763   7.056  11.710
 7316ION    NA+11380   9.061   5.951   1.363
 7317ION    NA+11381   5.491   3.575   9.502
 7318ION    NA+11382   7.899   4.758   0.134
 7319ION    NA+11383   5.520   4.061   0.964
 7320ION    NA+11384   6.203   1.443  10.736
 7321ION    NA+11385   2.604   8.345   9.870
 7322ION    NA+11386   2.740   4.606  10.257
 7323ION    NA+11387   1.504   2.361  10.645
 7324ION    NA+11388  10.108   4.990  11.454
 7325ION    NA+11389   2.676   0.362  10.288
 7326ION    NA+11390   0.622   9.098   9.414
 7327ION    NA+11391   5.149   4.601   2.630
 7328ION    NA+11392   4.197   8.554   0.232
 7329ION    NA+11393   7.458   4.374   2.318
 7330ION    NA+11394   1.116   7.649   2.299
 7331ION    NA+11395   8.820   0.634   9.568
 7332ION    NA+11396   3.714   2.631  10.079
 7333ION    NA+11397   7.350   1.305   1.977
 7334ION    NA+11398   4.998   3.257   0.665
 7335ION    NA+11399   4.216   5.408   0.512
 7336ION    NA+11400   0.624   8.410  11.104
 7337ION    NA+11401   0.657   2.733   1.090
 7338ION    NA+11402   8.301   1.531   1.764
 7339ION    NA+11403   0.823   2.703   9.774
 7340ION    NA+11404   1.517   2.724   0.023
 7341ION    NA+11405   7.057   9.041   9.891
 7342ION    NA+11406   8.428   6.200   3.037
 7343ION    NA+11407   2.944   9.508   2.719
 7344ION    NA+11408   8.922   9.147   2.642
 7345ION    NA+11409   2.404   2.135  11.016
 7346ION    NA+11410   0.923   5.162  11.976
 7347ION    NA+11411   9.665   2.115  11.853
 7348ION    NA+11412   7.059   7.185   0.372
 7349ION    NA+11413   2.306   1.245   9.970
 7350ION    NA+11414   4.984   4.088  11.777
 7351ION    NA+11415   6.551   7.766   9.027
 7352ION    NA+11416   8.634   8.230  11.407
 7353ION    NA+11417   2.704   6.480   0.334
 7354ION    NA+11418   1.677   5.183   2.676
 7355ION    NA+11419   5.152   8.240   0.953
 7356ION    NA+11420   5.643   6.087  11.208
 7357ION    NA+11421   3.049   7.151   9.505
 7358ION    NA+11422   6.731   9.163   3.241
 7359ION    NA+11423   1.704   7.110  10.784
 7360ION    NA+11424   0.041   1.632   9.132
 7361ION    NA+11425   1.403   8.304   0.564
 7362ION    NA+11426   7.863   8.722   9.394
 7363ION    NA+11427   8.375   9.085  10.958
 7364ION    NA+11428   4.403   1.506  11.418
 7365ION    NA+11429   3.122   2.881  11.288
 7366ION    NA+11430   3.811   3.873   0.664
 7367ION    NA+11431   7.670   7.868   1.454
 7368ION    NA+11432   9.043   5.102   2.789
 7369ION    NA+11433   6.775   1.695   3.153
 7370ION    NA+11434   3.454   8.388  11.449
 7371ION    NA+11435   9.854   9.515   1.256
 7372ION    NA+11436   7.018   3.124   2.544
 7373ION    NA+11437   6.198   2.549   1.235
 7374ION    NA+11438   3.999   2.269   0.929
 7375ION    NA+11439   5.986   9.650   9.616
 7376ION    NA+11440   9.967   9.829  11.392
 7377ION    NA+11441   9.028  10.332  10.439
 7378ION    NA+11442   1.182   9.130   0.758
 7379ION    NA+11443   8.581   7.071   2.881
 7380ION    NA+11444   3.754   1.671   3.049
 7381ION    NA+11445   6.016   6.913   8.720
 7382ION    NA+11446   6.578   0.711   0.779
 7383ION    NA+11447   8.456   6.859   0.226
 7384ION    NA+11448   7.083   6.442  11.704
 7385ION    NA+11449   1.435   4.462   8.928
 7386ION    NA+11450   1.652   0.356  10.339
 7387ION    NA+11451   2.983   3.947   0.313
 7388ION    NA+11452   2.077   0.184  11.628
 7389ION    NA+11453   3.867  10.127   0.460
 7390ION    CL-11454   5.833   5.585   2.647
 7391ION    CL-11455   8.183   9.868   1.391
 7392ION    CL-11456   6.205   0.543   0.593
 7393ION    CL-11457   6.569   1.702  10.768
 7394ION    CL-11458   7.468   7.229   9.497
 7395ION    CL-11459  10.173   8.331   0.957
 7396ION    CL-11460   4.080   5.279   9.434
 7397ION    CL-11461   1.557   7.684   2.361
 7398ION    CL-11462   1.914   5.498  10.028
 7399ION    CL-11463   9.353   7.593   3.436
 7400ION    CL-11464   5.540   2.620  11.363
 7401ION    CL-11465   2.987   9.924   8.456
 7402ION    CL-11466   4.110   6.397  10.083
 7403ION    CL-11467   2.436   4.115   3.082
 7404ION    CL-11468   1.185   8.705   0.595
 7405ION    CL-11469  10.469   5.181   9.595
 7406ION    CL-11470   9.175   9.507   2.557
 7407ION    CL-11471   2.139   8.460   3.420
 7408ION    CL-11472  10.233   7.901   0.056
 7409ION    CL-11473   0.286   1.599   0.219
 7410ION    CL-11474   7.808   7.433   1.445
 7411ION    CL-11475   7.656   8.330   9.333
 7412ION    CL-11476   2.906   2.916  11.677
 7413ION    CL-11477   4.244   5.257   0.090
 7414ION    CL-11478   0.622   8.814   9.069
 7415ION    CL-11479   1.980   6.486   1.614
 7416ION    CL-11480   7.879   6.394   9.096
 7417ION    CL-11481   7.365   6.793  11.778
 7418ION    CL-11482   5.503   7.389  11.344
 7419ION    CL-11483   2.685   2.391   3.421
 7420ION    CL-11484   0.981   4.783  11.746
 7421ION    CL-11485   0.292   3.935   0.869
 7422ION    CL-11486   8.585   6.623   2.954
 7423ION    CL-11487   1.062   8.484  11.212
 7424ION    CL-11488  10.213  10.002  11.736
 7425ION    CL-11489   7.256   6.269   1.346
 7426ION    CL-11490   9.702   6.163   3.625
 7427ION    CL-11491   3.903   1.919   1.189
 7428ION    CL-11492   2.948   3.268   2.939
 7429ION    CL-11493   6.234   4.727   9.080
 7430ION    CL-11494   4.482   1.669  11.826
 7431ION    CL-11495   1.909   0.589  11.727
 7432ION    CL-11496   7.864   2.155  10.991
 7433ION    CL-11497   9.838   8.044   9.565
 7434ION    CL-11498   9.719   9.627  11.066
 7435ION    CL-11499   6.522   9.294   2.860
 7436ION    CL-11500  10.073   2.219  11.707
 7437ION    CL-11501   3.415   3.870   0.437
 7438ION    CL-11502   2.133   3.750   2.126
 7439ION    CL-11503   8.865   7.919  11.629
 7440ION    CL-11504   3.690   1.461   2.655
 7441ION    CL-11505  10.372   3.745  10.814
 7442ION    CL-11506   7.352   8.171   1.334
 7443ION    CL-11507   6.760   1.265   9.417
 7444ION    CL-11508   4.148   4.800   1.777
 7445ION    CL-11509   9.344   5.989   1.705
 7446ION    CL-11510   0.239   8.165  11.090
 7447ION    CL-11511   6.323   6.625   1.296
 7448ION    CL-11512   8.668   0.932   9.863
 7449ION    CL-11513   8.808   3.094  11.476
 7450ION    CL-11514   9.369   0.796  11.435
 7451ION    CL-11515   4.798   8.449   9.362
 7452ION    CL-11516   0.040   0.336   0.195
 7453ION    CL-11517   5.089   4.488  11.975
 7454ION    CL-11518   3.802  10.030   9.080
 7455ION    CL-11519   1.306   4.272   2.355
 7456ION    CL-11520   8.152   7.074  11.967
 7457ION    CL-11521   9.180   1.794   3.577
 7458ION    CL-11522   3.255   7.582  10.742
 7459ION    CL-11523   9.588   6.685  10.260
 7460ION    CL-11524   4.456   8.908   0.153
 7461ION    CL-11525   7.709   5.940   2.174
 7462ION    CL-11526   1.493   4.192  10.516
 7463ION    CL-11527   0.730   6.549   2.431
 7464ION    CL-11528   8.373   5.553   8.875
 7465ION    CL-11529  10.129   4.051   8.825
 7466ION    CL-11530   5.071   3.723  11.516
  10.50000  10.50000  12.00000
