Protein in INSANE! Membrane UpperLeaflet>POPC=1.0 LowerLeaflet>POPC=1.0
10365
    1AU     AUC    1   5.498   1.885   6.114 -0.0956 -0.1778 -0.0355
    1AU     AUC    2   5.765   2.021   6.488 -0.1291 -0.0062  0.0415
    1AU     AUC    3   5.992   1.971   6.330 -0.0270 -0.0286  0.0450
    1AU     AUC    4   5.280   1.800   6.392  0.0207 -0.0900  0.0973
    1AU     AUC    5   5.501   1.449   6.306  0.0084  0.0170  0.0219
    1AU     AUC    6   5.510   1.619   6.461 -0.0343 -0.0443  0.0959
    1AU     AUC    7   5.699   1.812   6.612 -0.0386 -0.0951 -0.1248
    1AU     AUC    8   5.478   1.862   6.127 -0.0232  0.0150  0.0594
    1AU     AUC    9   5.927   1.798   6.124 -0.0356 -0.0340 -0.1129
    1AU     AUC   10   5.660   1.699   6.198 -0.0514 -0.0097  0.0369
    1AU     AUC   11   5.822   1.760   6.385  0.0342  0.0669 -0.0110
    1AU     AUC   12   5.482   1.918   6.135 -0.0454 -0.0261  0.0232
    1AU     AUC   13   5.568   1.880   6.410  0.0228 -0.0132 -0.0174
    1AU     AUC   14   5.789   2.031   6.499  0.0441  0.0831  0.0706
    1AU     AUC   15   5.845   2.066   6.725 -0.0076  0.0587  0.0311
    1AU     AUC   16   5.998   1.980   6.323  0.0340 -0.0064 -0.0305
    1AU     AUC   17   5.286   1.822   6.392  0.1000  0.0311  0.0204
    1AU     AUC   18   5.164   1.527   6.150  0.0370 -0.0323 -0.0302
    1AU     AUC   19   5.486   1.388   6.323  0.0381  0.0461 -0.0096
    1AU     AUC   20   5.528   1.627   6.488 -0.0782 -0.1444  0.0426
    1AU     AUC   21   5.735   1.973   6.211  0.0061  0.0439  0.0362
    1AU     AUC   22   5.740   1.964   6.217  0.0325 -0.0790  0.0252
    1AU     AUC   23   5.387   1.661   6.195 -0.0845 -0.0797 -0.1163
    1AU     AUC   24   5.919   1.803   6.111 -0.0420 -0.0124 -0.0384
    1AU     AUC   25   6.180   2.123   6.182  0.0917  0.0437  0.0598
    1AU     AUC   26   5.660   1.657   6.205 -0.0630  0.0372  0.0960
    1AU     AUC   27   5.677   1.696   6.210 -0.0184  0.0347 -0.0176
    1AU     AUC   28   5.837   1.760   6.379  0.1118  0.0311  0.0638
    1AU     AUC   29   5.549   2.153   6.333  0.0337 -0.0038 -0.0115
    1AU     AUC   30   5.529   1.937   6.389  0.0259  0.0093 -0.0174
    1AU     AUC   31   5.559   1.870   6.388  0.0296 -0.0213  0.0538
    1AU     AUC   32   5.994   1.970   6.320 -0.0428 -0.0600  0.0033
    1AU     AUC   33   5.911   1.550   6.229 -0.0078  0.0587 -0.0633
    1AU     AUC   34   5.606   2.163   6.367  0.0696 -0.0124  0.0239
    1AU     AUC   35   5.755   2.028   6.467  0.0099 -0.0268 -0.0341
    1AU     AUC   36   5.644   1.630   6.219  0.0073 -0.0195  0.0074
    1AU     AUC   37   5.930   1.618   6.598  0.0465  0.0361  0.1048
    1AU     AUC   38   5.359   2.048   6.329  0.0574 -0.0257  0.0224
    1AU     AUC   39   5.535   1.872   6.387  0.0140 -0.0638  0.0179
    1AU     AUC   40   5.791   2.027   6.504  0.1379  0.0245  0.0018
    1AU     AUC   41   5.702   1.791   6.625  0.0393  0.0296 -0.0233
    1AU     AUC   42   5.250   1.795   6.437  0.1108  0.0821  0.0457
    1AU     AUC   43   5.513   1.436   6.358 -0.0733  0.0682 -0.0080
    1AU     AUC   44   5.995   1.882   6.593 -0.0290 -0.0514  0.0726
    1AU     AUC   45   6.025   1.994   6.332  0.0115 -0.0898  0.0791
    1AU     AUC   46   5.359   1.689   6.216 -0.0812  0.0469 -0.0970
    1AU     AUC   47   5.388   1.640   6.195 -0.0106 -0.0382 -0.0537
    1AU     AUC   48   5.840   1.754   6.406 -0.0963  0.0022 -0.0166
    1AU     AUC   49   5.818   1.768   6.417  0.0130  0.0070 -0.0403
    1AU     AUC   50   5.693   1.425   6.137  0.0917  0.0434 -0.0685
    1AU     AUC   51   5.953   1.791   6.121 -0.0355  0.0599 -0.0240
    1AU     AUC   52   5.527   1.680   6.448  0.0030  0.0811  0.0101
    1AU     AUC   53   5.734   1.976   6.219 -0.0904 -0.0831  0.0628
    1AU     AUC   54   5.405   2.112   6.195 -0.0093  0.0609 -0.0314
    1AU     AUC   55   5.845   2.215   6.297  0.0475  0.0903 -0.1299
    1AU    AUSL   56   6.105   1.941   5.949  0.0190 -0.0694 -0.0996
    1AU    AUSL   57   6.128   1.620   6.061  0.0310  0.0447 -0.0214
    1AU     AUL   58   6.104   1.565   6.005  0.0213  0.0383  0.0608
    1AU       S   59   6.717   1.547   5.974 -0.1814 -0.1621  0.0165
    1AU     LIG   60   6.988   1.622   5.687 -0.3636  0.2155  0.0258
    1AU     LIG   61   7.042   1.801   5.178 -0.4079  0.3066  0.1680
    1AU     LIG   62   6.998   2.245   4.999 -0.1336 -0.2241  0.0227
    1AU       S   63   6.219   2.200   5.493 -0.1472 -0.0338 -0.4312
    1AU     LIG   64   6.364   2.346   5.173  0.2052 -0.0504  0.0729
    1AU     LIG   65   6.583   2.408   4.811 -0.1591 -0.1762 -0.1872
    1AU     LIG   66   6.826   2.247   4.475 -0.3649 -0.2168  0.0965
    1AU    AUSL   67   5.542   2.067   6.616 -0.1334  0.0479 -0.0022
    1AU    AUSL   68   6.014   2.158   6.533 -0.0019 -0.0039  0.0526
    1AU     AUL   69   5.557   2.071   6.660  0.0111 -0.0525  0.0904
    1AU       S   70   6.150   2.401   5.683  0.2836 -0.0617 -0.1001
    1AU     LIG   71   6.382   2.824   5.503 -0.1832 -0.2995  0.2618
    1AU     LIG   72   6.660   3.211   5.511  0.2317  0.0223 -0.0939
    1AU     LIG   73   6.937   3.565   5.631  0.2582  0.2323 -0.3317
    1AU       S   74   5.275   2.374   7.007  0.3761 -0.0122 -0.2121
    1AU     LIG   75   5.038   2.774   7.121  0.1819  0.2381  0.4249
    1AU     LIG   76   4.709   3.027   6.820 -0.0030 -0.2497 -0.3431
    1AU     LIG   77   4.450   2.934   6.492 -0.1470 -0.0049 -0.1723
    1AU    AUSL   78   5.983   1.747   5.833  0.0213 -0.0119 -0.0202
    1AU    AUSL   79   5.543   1.661   5.966 -0.0631  0.0139  0.0816
    1AU     AUL   80   5.543   1.662   5.946 -0.0088  0.0236  0.0242
    1AU       S   81   6.111   1.977   5.430 -0.0233  0.2341 -0.0257
    1AU     LIG   82   6.366   1.771   5.110 -0.0831  0.0755  0.0481
    1AU     LIG   83   6.621   1.862   4.835  0.5637  0.0123 -0.2216
    1AU     LIG   84   7.030   1.847   4.670  0.3352  0.2001  0.0567
    1AU       S   85   5.853   0.941   5.854  0.0150 -0.0262  0.3806
    1AU     LIG   86   5.620   0.545   5.651 -0.0405  0.3709 -0.1601
    1AU     LIG   87   5.358   0.319   5.323 -0.2656 -0.1678 -0.0051
    1AU     LIG   88   5.239   0.373   4.906  0.0437 -0.1450 -0.1631
    1AU    AUSL   89   5.475   2.315   6.545  0.0486  0.1036 -0.0606
    1AU    AUSL   90   5.922   2.096   6.069 -0.0748  0.0204  0.0208
    1AU     AUL   91   5.905   2.479   6.342  0.0382  0.0987  0.0275
    1AU       S   92   5.222   2.793   6.510 -0.0382 -0.0175 -0.0765
    1AU     LIG   93   5.002   3.200   6.451 -0.0708 -0.1260  0.3104
    1AU     LIG   94   4.597   3.349   6.340  0.0740 -0.4040 -0.2485
    1AU     LIG   95   4.224   3.317   6.190 -0.0805  0.0287  0.4066
    1AU       S   96   6.378   2.599   6.059 -0.0366 -0.0413  0.2364
    1AU     LIG   97   6.611   2.983   5.970  0.3430  0.0009 -0.3146
    1AU     LIG   98   6.591   3.408   5.967  0.5527 -0.2516  0.0150
    1AU     LIG   99   6.452   3.846   5.779 -0.1838  0.0938  0.0189
    1AU    AUSL  100   5.276   2.063   6.600 -0.1076 -0.0869 -0.0248
    1AU    AUSL  101   5.753   1.505   6.442 -0.0068  0.0199 -0.0839
    1AU     AUL  102   5.582   1.875   6.862  0.0047  0.0166  0.0651
    1AU       S  103   6.625   1.445   6.773  0.0536 -0.2180 -0.0554
    1AU     LIG  104   7.024   1.266   6.722 -0.0081 -0.0333 -0.2768
    1AU     LIG  105   7.346   0.984   6.563  0.0734  0.1193  0.1449
    1AU     LIG  106   7.216   0.594   6.239 -0.0128  0.0105 -0.1246
    1AU       S  107   4.936   2.597   6.634 -0.0562 -0.1465  0.0438
    1AU     LIG  108   4.620   2.506   7.041 -0.0539  0.0867  0.1507
    1AU     LIG  109   4.387   2.469   7.444 -0.1713  0.0994 -0.0383
    1AU     LIG  110   4.223   2.474   7.866 -0.2968 -0.1300  0.0668
    1AU    AUSL  111   5.344   2.002   5.923 -0.0691 -0.0453  0.1337
    1AU    AUSL  112   5.401   2.376   6.286  0.0994 -0.0510  0.0770
    1AU     AUL  113   5.115   2.169   6.179 -0.0138 -0.0136  0.0477
    1AU       S  114   5.246   2.530   5.729 -0.0013  0.0817 -0.6014
    1AU     LIG  115   4.972   2.816   5.618 -0.1883 -0.0412  0.4495
    1AU     LIG  116   4.941   3.094   5.340  0.3909  0.2778  0.1009
    1AU     LIG  117   5.181   3.311   5.005 -0.1379  0.1568 -0.2843
    1AU       S  118   4.986   2.681   6.161  0.2468 -0.2380 -0.2333
    1AU     LIG  119   4.581   2.871   5.934 -0.3824 -0.1838  0.2296
    1AU     LIG  120   4.115   2.895   5.890  0.0660 -0.3222 -0.2178
    1AU     LIG  121   3.749   2.990   5.828 -0.3749 -0.0251 -0.4056
    1AU    AUSL  122   5.662   1.542   6.704  0.0100 -0.0088 -0.0342
    1AU    AUSL  123   5.946   1.607   6.626 -0.0175  0.0283  0.0976
    1AU     AUL  124   6.027   1.896   6.878 -0.0001  0.0617 -0.0590
    1AU       S  125   5.182   1.948   7.101 -0.4374 -0.2832 -0.0177
    1AU     LIG  126   4.921   1.696   7.255 -0.4153 -0.2827  0.1594
    1AU     LIG  127   4.992   1.234   7.453 -0.0523 -0.3530 -0.1114
    1AU     LIG  128   5.011   0.962   7.849 -0.2767  0.0565 -0.2019
    1AU       S  129   6.238   1.125   6.843 -0.3096  0.2216 -0.1286
    1AU     LIG  130   6.251   0.614   7.000  0.1866  0.2459 -0.5068
    1AU     LIG  131   5.991   0.134   6.920 -0.1194  0.0587 -0.0340
    1AU     LIG  132   5.736  -0.264   6.930 -0.1643  0.1255  0.2314
    1AU    AUSL  133   5.220   1.904   6.151  0.0850  0.0639  0.0473
    1AU    AUSL  134   5.295   1.298   6.242  0.0398  0.0509  0.0837
    1AU     AUL  135   5.288   1.594   6.686 -0.0175  0.0203  0.0260
    1AU       S  136   5.137   0.757   6.151  0.0672  0.4336  0.1549
    1AU     LIG  137   5.089   0.325   5.983 -0.1586  0.0036 -0.2672
    1AU     LIG  138   4.801  -0.051   6.011 -0.0919  0.2720 -0.1925
    1AU     LIG  139   4.670  -0.394   5.760 -0.1626  0.1889  0.1664
    1AU       S  140   4.935   2.148   6.902  0.0973 -0.1297 -0.2197
    1AU     LIG  141   4.505   1.965   7.050 -0.0337  0.0249 -0.2582
    1AU     LIG  142   4.085   2.083   7.247 -0.1366 -0.2270 -0.1074
    1AU     LIG  143   3.796   2.429   7.502  0.2510 -0.0175  0.1320
    1AU    AUSL  144   5.623   2.113   6.006  0.0183  0.0440 -0.0075
    1AU    AUSL  145   5.322   2.102   6.341  0.0436 -0.0548  0.0438
    1AU     AUL  146   5.656   2.126   5.994  0.0751  0.0557  0.0105
    1AU       S  147   5.515   2.587   5.611 -0.0962  0.2479  0.1833
    1AU     LIG  148   5.473   2.971   5.396  0.1004  0.0083 -0.0381
    1AU     LIG  149   5.740   3.142   5.194 -0.2913 -0.1068 -0.2820
    1AU     LIG  150   5.788   3.341   4.913  0.2380 -0.3569  0.0676
    1AU       S  151   4.658   2.352   6.268  0.0761  0.0576  0.0725
    1AU     LIG  152   4.255   2.508   6.173 -0.1626 -0.1689 -0.1353
    1AU     LIG  153   3.961   2.776   6.354 -0.0265  0.3235  0.0682
    1AU     LIG  154   3.805   3.128   6.637 -0.0249  0.0420  0.2266
    1AU    AUSL  155   6.090   1.709   6.345 -0.0403 -0.0252  0.0297
    1AU    AUSL  156   5.261   1.722   5.971 -0.0266 -0.0138 -0.0104
    1AU     AUL  157   5.716   1.730   5.741 -0.0548  0.0349  0.0729
    1AU       S  158   4.563   1.594   6.209 -0.0200  0.0035  0.0785
    1AU     LIG  159   4.398   1.719   5.809 -0.0889  0.2869  0.0680
    1AU     LIG  160   4.136   1.755   5.527 -0.1333  0.1527  0.2420
    1AU     LIG  161   4.034   1.829   5.166  0.1093  0.0054  0.0638
    1AU       S  162   5.710   2.485   5.614 -0.1772  0.3767  0.0841
    1AU     LIG  163   5.821   2.418   5.175 -0.3034 -0.0987  0.1506
    1AU     LIG  164   6.032   2.097   4.932 -0.0807  0.0556  0.1867
    1AU     LIG  165   5.917   1.734   4.920 -0.4020 -0.0143  0.0949
    1AU    AUSL  166   5.815   1.733   6.826 -0.0486 -0.0332  0.0069
    1AU    AUSL  167   6.232   1.908   6.470  0.0822  0.0545 -0.1062
    1AU     AUL  168   6.133   1.620   6.835  0.0784  0.0441  0.0196
    1AU       S  169   6.581   2.485   6.237 -0.0643 -0.3222 -0.0058
    1AU     LIG  170   6.928   2.706   6.229 -0.1545 -0.1328  0.1620
    1AU     LIG  171   7.265   2.960   6.345 -0.2747 -0.4104 -0.2075
    1AU     LIG  172   7.368   3.345   6.406 -0.5101 -0.0349 -0.1556
    1AU       S  173   5.728   1.820   7.334 -0.3299  0.0465 -0.3167
    1AU     LIG  174   5.438   1.508   7.441  0.1252  0.4588  0.6025
    1AU     LIG  175   5.496   1.124   7.619  0.0484  0.0389 -0.1503
    1AU     LIG  176   5.853   0.955   7.759 -0.2368  0.1605 -0.0853
    1AU    AUSL  177   5.686   2.243   6.834 -0.0565 -0.0229  0.0437
    1AU    AUSL  178   5.960   2.228   6.780 -0.0266 -0.0555 -0.0198
    1AU     AUL  179   5.790   2.582   6.605  0.0576  0.0635 -0.0214
    1AU       S  180   5.662   2.234   7.252 -0.1166  0.0470 -0.0129
    1AU     LIG  181   5.431   2.552   7.460 -0.1063  0.0077  0.1025
    1AU     LIG  182   5.444   3.007   7.315  0.0736  0.2474 -0.0936
    1AU     LIG  183   5.450   3.436   7.312  0.0966 -0.5294 -0.0649
    1AU       S  184   6.195   2.466   7.077 -0.0672 -0.0660  0.0874
    1AU     LIG  185   6.301   2.862   7.048  0.1930  0.0610  0.1807
    1AU     LIG  186   6.267   3.232   6.920  0.3386  0.0850 -0.3094
    1AU     LIG  187   5.905   3.537   6.767 -0.0508 -0.2672  0.0071
    1AU    AUSL  188   5.803   2.006   6.778  0.0465 -0.1282 -0.0414
    1AU    AUSL  189   5.436   1.823   6.640 -0.0342 -0.0358  0.0738
    1AU     AUL  190   5.409   1.829   6.644  0.0685 -0.0172  0.0807
    1AU       S  191   5.843   0.830   6.242  0.1004  0.3149  0.4286
    1AU     LIG  192   5.932   0.386   5.995 -0.1528  0.2131  0.1769
    1AU     LIG  193   6.250   0.086   5.983 -0.0685  0.0001 -0.4152
    1AU     LIG  194   6.691   0.156   5.811 -0.0667 -0.1573  0.1359
    1AU       S  195   5.815   2.038   7.309  0.1067 -0.3142 -0.0365
    1AU     LIG  196   6.190   2.161   7.461 -0.1993 -0.1660 -0.4668
    1AU     LIG  197   6.602   2.574   7.510  0.2422  0.3548 -0.0907
    1AU     LIG  198   6.797   2.784   7.230  0.2436 -0.0579  0.4591
    1AU    AUSL  199   5.437   1.391   6.601  0.0295  0.0889 -0.0357
    1AU    AUSL  200   5.864   1.281   6.326 -0.0753  0.0252 -0.0636
    1AU     AUL  201   5.442   1.105   6.400  0.0490  0.0370 -0.0522
    1AU       S  202   6.192   0.946   6.550 -0.2484 -0.1693 -0.1815
    1AU     LIG  203   6.284   0.525   6.522  0.1162  0.2419 -0.0002
    1AU     LIG  204   6.503   0.123   6.685  0.0846  0.2842 -0.3358
    1AU     LIG  205   6.946   0.036   6.772  0.0299 -0.0281 -0.3331
    1AU       S  206   5.143   1.173   6.979 -0.0445  0.1059 -0.6016
    1AU     LIG  207   5.373   0.777   7.151 -0.2167  0.3543  0.0506
    1AU     LIG  208   5.704   0.472   7.187 -0.1006  0.2180 -0.3624
    1AU     LIG  209   5.765  -0.009   7.381 -0.2745  0.0057  0.2148
    1AU    AUSL  210   5.002   1.703   6.426  0.1097  0.0113  0.0217
    1AU    AUSL  211   5.135   1.814   6.626 -0.0783  0.0734 -0.0135
    1AU     AUL  212   5.026   1.393   6.330 -0.0643 -0.0435  0.0516
    1AU       S  213   4.800   1.247   6.896 -0.1338 -0.0753  0.1088
    1AU     LIG  214   4.724   0.934   7.147 -0.1437  0.5612 -0.1178
    1AU     LIG  215   4.941   0.607   7.269  0.3231  0.1538 -0.2581
    1AU     LIG  216   5.270   0.419   7.543 -0.1492 -0.1848  0.0153
    1AU       S  217   4.560   1.723   6.623  0.0113  0.1747 -0.4100
    1AU     LIG  218   4.335   1.448   6.856 -0.2036  0.1525 -0.4456
    1AU     LIG  219   3.986   1.239   6.858  0.4379  0.3775  0.2139
    1AU     LIG  220   3.701   0.980   6.812  0.0247 -0.3539  0.3117
    1AU    AUSL  221   5.211   1.250   6.498 -0.1067 -0.0767 -0.0892
    1AU    AUSL  222   5.095   1.642   6.188 -0.1490 -0.0345  0.0688
    1AU     AUL  223   5.023   1.559   6.582 -0.0337 -0.1050 -0.0224
    1AU       S  224   4.775   1.473   5.695 -0.4006 -0.2050 -0.0127
    1AU     LIG  225   4.509   1.387   5.387  0.0347 -0.3265  0.1354
    1AU     LIG  226   4.523   1.693   5.123 -0.0243  0.2902  0.0612
    1AU     LIG  227   4.620   2.053   4.992  0.0653 -0.0961 -0.1515
    1AU       S  228   4.955   1.014   6.642  0.0966  0.0754  0.2455
    1AU     LIG  229   4.468   0.940   6.683 -0.1205 -0.0058  0.2772
    1AU     LIG  230   4.134   0.748   6.890 -0.0305 -0.0799 -0.0917
    1AU     LIG  231   3.893   0.590   7.219  0.2341  0.4102 -0.0547
    1AU    AUSL  232   6.275   2.175   6.460  0.0159 -0.1021 -0.0231
    1AU    AUSL  233   6.414   1.989   6.305  0.0493  0.0686  0.0684
    1AU     AUL  234   6.269   1.844   6.737  0.0554 -0.1078 -0.0399
    1AU       S  235   6.504   2.479   6.758 -0.3139 -0.2318 -0.2670
    1AU     LIG  236   6.584   2.888   6.638 -0.3562  0.0092  0.3274
    1AU     LIG  237   6.754   3.193   6.414  0.0187 -0.1332  0.4626
    1AU     LIG  238   6.950   3.688   6.262 -0.0934  0.0912 -0.1566
    1AU       S  239   6.830   1.844   6.194  0.3018 -0.2564  0.2309
    1AU     LIG  240   7.023   2.168   5.991  0.0321 -0.4575 -0.2360
    1AU     LIG  241   7.236   2.523   5.926  0.1876 -0.0673  0.2668
    1AU     LIG  242   7.572   2.611   6.069 -0.1897  0.3984  0.1210
    1AU    AUSL  243   6.191   2.097   6.718  0.0847 -0.0643 -0.0413
    1AU    AUSL  244   6.009   1.895   6.598 -0.1593 -0.0167  0.0001
    1AU     AUL  245   6.219   1.644   6.558  0.0871 -0.0192 -0.0714
    1AU       S  246   6.442   2.318   7.050 -0.0478  0.1729  0.1727
    1AU     LIG  247   6.854   2.273   7.118 -0.1392  0.0674 -0.1472
    1AU     LIG  248   7.342   2.197   7.036 -0.0143 -0.0096 -0.1506
    1AU     LIG  249   7.395   1.733   7.019 -0.2320 -0.2742  0.0600
    1AU       S  250   6.768   1.758   6.736 -0.0705 -0.0550  0.1692
    1AU     LIG  251   7.162   1.668   6.541  0.2002 -0.2516 -0.1405
    1AU     LIG  252   7.337   1.892   6.252  0.1542 -0.2631  0.0832
    1AU     LIG  253   7.470   2.112   5.827 -0.1585 -0.1500 -0.1317
    1AU    AUSL  254   5.327   1.522   5.811  0.0181  0.0419  0.0382
    1AU    AUSL  255   4.958   1.883   6.194  0.0070  0.0078  0.0131
    1AU     AUL  256   5.074   1.920   5.902  0.0346 -0.0107  0.0234
    1AU       S  257   4.579   2.090   6.236  0.3116  0.1025  0.0679
    1AU     LIG  258   4.206   2.000   6.354  0.2442  0.3120  0.2738
    1AU     LIG  259   3.834   1.931   6.355  0.4646  0.1234 -0.1315
    1AU     LIG  260   3.395   1.676   6.432 -0.0910  0.2656  0.0245
    1AU       S  261   5.025   1.418   5.481  0.0493  0.1755 -0.3355
    1AU     LIG  262   5.187   1.297   5.065 -0.1500 -0.1194  0.1053
    1AU     LIG  263   5.561   1.321   4.782 -0.0344  0.0017  0.0502
    1AU     LIG  264   5.749   1.539   4.446 -0.0407  0.4513 -0.1725
    1AU    AUSL  265   5.173   1.433   6.025  0.0241 -0.0490  0.0222
    1AU    AUSL  266   5.693   1.376   6.126  0.0171 -0.0222  0.0978
    1AU     AUL  267   5.435   1.218   5.869 -0.1001  0.0290  0.1197
    1AU       S  268   5.394   0.727   6.035 -0.0590 -0.0387  0.0197
    1AU     LIG  269   5.110   0.700   5.643  0.2139  0.0913 -0.0477
    1AU     LIG  270   4.725   0.476   5.552  0.2619  0.0098  0.3434
    1AU     LIG  271   4.490   0.141   5.575 -0.1089 -0.0307  0.2584
    1AU       S  272   4.926   1.223   5.712  0.4764  0.1434  0.0341
    1AU     LIG  273   4.706   1.080   6.022  0.0426 -0.0545 -0.1548
    1AU     LIG  274   4.283   0.933   6.203  0.0460  0.3899 -0.0660
    1AU     LIG  275   3.896   0.910   6.299 -0.2112  0.3702  0.0409
    1AU    AUSL  276   6.210   1.860   6.170 -0.0112 -0.0268  0.1490
    1AU    AUSL  277   5.855   1.349   6.631  0.0162 -0.0220 -0.0042
    1AU     AUL  278   6.226   1.470   6.262  0.0552 -0.0133  0.0181
    1AU       S  279   5.996   0.979   6.790  0.2286  0.4116 -0.0780
    1AU     LIG  280   5.724   0.600   6.756  0.1979 -0.3561 -0.0972
    1AU     LIG  281   5.693   0.268   6.444  0.0475  0.1682 -0.0560
    1AU     LIG  282   5.673  -0.085   6.245 -0.1178 -0.4580 -0.0524
    1AU       S  283   6.566   1.959   5.785  0.2491 -0.2998  0.5546
    1AU     LIG  284   6.747   2.103   5.431  0.3702  0.0036  0.2399
    1AU     LIG  285   7.166   2.345   5.457 -0.0364  0.0086  0.0718
    1AU     LIG  286   7.602   2.425   5.323 -0.0843 -0.1544  0.2294
    1AU    AUSL  287   5.743   2.284   6.565 -0.0604 -0.0099 -0.1013
    1AU    AUSL  288   5.622   2.341   6.134  0.1028 -0.0963  0.0005
    1AU     AUL  289   5.791   2.305   6.568  0.0066  0.0015 -0.0884
    1AU       S  290   6.538   2.176   5.858  0.0396  0.0672  0.2601
    1AU     LIG  291   6.749   2.508   5.718 -0.3629  0.2135 -0.2490
    1AU     LIG  292   6.996   2.850   5.682 -0.0543  0.3072  0.1708
    1AU     LIG  293   7.148   3.211   5.917 -0.0739  0.0483  0.3482
    1AU       S  294   5.385   2.154   5.395  0.0547  0.0660  0.5028
    1AU     LIG  295   4.983   2.283   5.383 -0.1753  0.0904  0.0380
    1AU     LIG  296   4.652   2.542   5.200  0.1011 -0.1803  0.2655
    1AU     LIG  297   4.680   2.518   4.746 -0.4644  0.3164  0.1841
    1AU    AUSL  298   5.806   1.602   5.972 -0.0069 -0.0898 -0.0350
    1AU    AUSL  299   5.935   1.528   6.236 -0.0485 -0.0479 -0.0884
    1AU     AUL  300   5.822   1.593   5.976  0.1246 -0.0249  0.0782
    1AU       S  301   6.060   0.910   6.105 -0.0189 -0.0599  0.0261
    1AU     LIG  302   6.397   0.628   6.048  0.3677  0.2797  0.0250
    1AU     LIG  303   6.733   0.300   6.293  0.0102 -0.1731 -0.3049
    1AU     LIG  304   7.058   0.047   6.309  0.3246 -0.1369  0.1986
    1AU       S  305   6.447   1.740   5.622  0.1300 -0.1654 -0.4222
    1AU     LIG  306   6.556   1.188   5.716 -0.0238 -0.1489  0.1680
    1AU     LIG  307   6.747   0.947   6.033 -0.0124 -0.0391 -0.2979
    1AU     LIG  308   6.735   0.948   6.476  0.5217 -0.3552 -0.0099
    1AU    AUSL  309   5.948   1.349   6.030  0.0305 -0.0355 -0.0285
    1AU    AUSL  310   6.363   1.710   6.322 -0.0436 -0.0489 -0.0343
    1AU     AUL  311   6.064   1.416   6.461  0.0508 -0.0763  0.0221
    1AU       S  312   6.015   1.288   5.540  0.1716  0.2558 -0.1089
    1AU     LIG  313   6.079   0.798   5.451 -0.1646 -0.1116  0.0312
    1AU     LIG  314   6.318   0.533   5.368 -0.1089 -0.2525  0.0421
    1AU     LIG  315   6.056   0.185   5.518 -0.1248 -0.1779 -0.0308
    1AU       S  316   6.786   1.501   6.266  0.5147 -0.6847 -0.1444
    1AU     LIG  317   7.124   1.297   6.144 -0.0274  0.0738  0.0402
    1AU     LIG  318   7.579   1.153   5.971 -0.1341 -0.0428  0.0711
    1AU     LIG  319   7.944   1.145   6.141 -0.0972 -0.1459  0.2367
    1AU    AUSL  320   5.637   1.422   5.848  0.0449 -0.0617 -0.0349
    1AU    AUSL  321   5.654   1.253   6.489  0.0993  0.0248  0.0896
    1AU     AUL  322   5.550   1.179   6.148  0.0367 -0.0681  0.0707
    1AU       S  323   5.779   1.329   5.435  0.0622  0.0320 -0.0070
    1AU     LIG  324   5.827   1.050   5.062  0.1859 -0.0873 -0.2341
    1AU     LIG  325   6.178   0.845   4.929 -0.2994  0.1749  0.5554
    1AU     LIG  326   6.315   0.476   4.657 -0.0094  0.1204 -0.0033
    1AU       S  327   5.390   0.618   6.358  0.1481 -0.2224  0.3810
    1AU     LIG  328   5.088   0.552   6.724 -0.1499  0.3366  0.5217
    1AU     LIG  329   4.708   0.532   6.778  0.1200 -0.2431  0.2547
    1AU     LIG  330   4.252   0.484   6.488  0.1629  0.3775  0.0633
    1AU    AUSL  331   5.863   2.007   5.824  0.0376  0.0827 -0.0538
    1AU    AUSL  332   5.393   2.188   6.094  0.1290  0.0799  0.0291
    1AU     AUL  333   5.407   1.793   5.749  0.1649  0.0940 -0.0253
    1AU       S  334   5.473   2.842   6.029  0.0865  0.1112 -0.2536
    1AU     LIG  335   5.143   3.203   5.864 -0.3539  0.2041  0.0747
    1AU     LIG  336   4.841   3.505   5.802  0.0217  0.2239  0.0078
    1AU     LIG  337   4.510   3.749   5.943  0.1196 -0.1990  0.3270
    1AU       S  338   5.974   1.534   5.365 -0.3739 -0.4999 -0.0068
    1AU     LIG  339   6.334   1.230   5.218  0.0261  0.1434 -0.2904
    1AU     LIG  340   6.906   1.113   5.337 -0.4611  0.1595  0.1050
    1AU     LIG  341   7.171   1.113   5.035  0.0630 -0.1022  0.1853
    1AU    AUSL  342   5.440   1.431   6.045  0.0532 -0.0063  0.0535
    1AU    AUSL  343   5.873   2.352   6.063 -0.0382 -0.0520  0.0382
    1AU     AUL  344   5.582   1.986   5.777 -0.0068  0.0169  0.0098
    1AU       S  345   5.442   1.670   5.299 -0.1451 -0.2043  0.2064
    1AU     LIG  346   4.980   1.785   5.188  0.3344  0.2944  0.1413
    1AU     LIG  347   4.595   2.052   5.493  0.0905  0.0605 -0.0545
    1AU     LIG  348   4.561   2.456   5.699 -0.4236 -0.0490  0.1058
    1AU       S  349   6.232   2.742   6.036 -0.1498 -0.1982 -0.1867
    1AU     LIG  350   6.153   3.186   5.953  0.3042 -0.1128  0.0383
    1AU     LIG  351   6.077   3.608   6.034 -0.0478 -0.1956  0.2927
    1AU     LIG  352   6.003   3.841   6.413  0.2533  0.3259 -0.0477
    1AU    AUSL  353   5.711   1.862   5.974 -0.0558  0.0272  0.0188
    1AU    AUSL  354   5.253   1.527   6.423 -0.0114  0.0174  0.0281
    1AU     AUL  355   5.249   1.526   6.408 -0.1079  0.0417 -0.0906
    1AU       S  356   5.588   1.980   5.278 -0.2936  0.1877  0.2059
    1AU     LIG  357   5.473   1.775   4.818  0.2813 -0.0136  0.2665
    1AU     LIG  358   5.235   1.626   4.400 -0.1317 -0.0541  0.3014
    1AU     LIG  359   5.215   1.714   3.875  0.2221 -0.2103 -0.0320
    1AU       S  360   4.554   1.372   6.413 -0.0670 -0.1299 -0.1325
    1AU     LIG  361   4.052   1.399   6.371 -0.1377 -0.0140  0.0819
    1AU     LIG  362   3.596   1.241   6.443  0.3637  0.2156 -0.3573
    1AU     LIG  363   3.192   1.031   6.676  0.0097 -0.1057  0.1194
    1AU    AUSL  364   5.643   2.454   6.376  0.0510 -0.0234  0.0614
    1AU    AUSL  365   5.071   1.992   6.411 -0.0204 -0.0321  0.1027
    1AU     AUL  366   5.208   2.290   6.435 -0.0327  0.0879 -0.0106
    1AU       S  367   4.617   2.191   6.458  0.2477 -0.6283 -0.1547
    1AU     LIG  368   4.298   2.488   6.646 -0.1477 -0.0631  0.1903
    1AU     LIG  369   3.872   2.336   6.637 -0.3675 -0.1103  0.3280
    1AU     LIG  370   3.601   2.690   6.673  0.3337  0.1766 -0.2489
    1AU       S  371   5.637   2.892   6.185  0.1275  0.0809 -0.0424
    1AU     LIG  372   5.877   3.208   6.362 -0.3894 -0.2779  0.0778
    1AU     LIG  373   6.324   3.392   6.412  0.3392  0.1618 -0.0318
    1AU     LIG  374   6.471   3.739   6.340 -0.1274  0.1911  0.1005
    1AU    AUSL  375   6.071   2.254   6.253  0.0125  0.0415 -0.1375
    1AU    AUSL  376   5.803   2.229   6.299  0.0484  0.0212  0.0362
    1AU     AUL  377   6.028   2.426   6.578  0.0313  0.0505 -0.0649
    1AU       S  378   5.791   2.827   5.977  0.1117 -0.5438  0.3365
    1AU     LIG  379   5.933   2.884   5.597  0.3591 -0.3702 -0.1999
    1AU     LIG  380   5.721   3.272   5.698 -0.2050  0.1579  0.1108
    1AU     LIG  381   5.542   3.487   6.136  0.3016  0.1795  0.0878
    1AU       S  382   6.717   2.024   6.661 -0.1994 -0.3502  0.1688
    1AU     LIG  383   7.087   2.254   6.618 -0.0346 -0.1400 -0.1285
    1AU     LIG  384   6.998   2.661   6.746  0.2125  0.0686  0.1924
    1AU     LIG  385   7.072   3.099   6.814  0.0454 -0.0983 -0.2877
    2POPC   NC3  386   1.069   9.502   7.981 -0.1023  0.0984  0.0880
    2POPC   PO4  387   0.845   9.831   7.958 -0.4120 -0.0580 -0.4644
    2POPC   GL1  388   0.667   9.845   7.551  0.1279  0.0051 -0.2172
    2POPC   GL2  389   0.527  10.010   7.259 -0.3699  0.0382  0.0695
    2POPC   C1A  390   0.699   9.441   7.193  0.2035 -0.0719  0.0206
    2POPC   D2A  391   0.753   9.143   6.784  0.2005 -0.0574  0.0206
    2POPC   C3A  392   0.318   8.926   6.559  0.0867  0.0705  0.1624
    2POPC   C4A  393   0.247   8.523   6.400 -0.0893 -0.3169  0.1272
    2POPC   C1B  394   0.307  10.091   6.908  0.0202  0.2266  0.2037
    2POPC   C2B  395   0.332  10.457   6.644  0.2289  0.0509  0.2930
    2POPC   C3B  396   0.376  10.588   6.119  0.0683  0.0283  0.1064
    2POPC   C4B  397   0.073  10.779   5.850  0.1277 -0.3324 -0.0221
    3POPC   NC3  398   2.060   5.624   8.302 -0.0075 -0.0183  0.0340
    3POPC   PO4  399   2.407   5.688   8.417 -0.1734 -0.2197 -0.0104
    3POPC   GL1  400   2.496   5.554   7.972 -0.2405 -0.2045  0.0693
    3POPC   GL2  401   2.505   5.175   7.878  0.1847  0.1183  0.0083
    3POPC   C1A  402   2.658   5.607   7.518 -0.3232  0.4798 -0.2753
    3POPC   D2A  403   2.489   5.933   7.151  0.0108 -0.5995  0.0054
    3POPC   C3A  404   2.474   5.875   6.699 -0.0666 -0.0986  0.0203
    3POPC   C4A  405   2.420   5.787   6.313  0.0770  0.0896 -0.0686
    3POPC   C1B  406   2.678   5.104   7.546  0.3690 -0.1526  0.1208
    3POPC   C2B  407   2.630   5.157   7.090  0.0008 -0.2172 -0.4675
    3POPC   C3B  408   2.752   5.007   6.832  0.1398 -0.1651 -0.1242
    3POPC   C4B  409   2.856   5.044   6.460  0.2905  0.4021  0.0552
    4POPC   NC3  410   8.885   9.005   8.338  0.0771  0.1285  0.4080
    4POPC   PO4  411   9.081   9.359   7.977 -0.1064 -0.3119 -0.3020
    4POPC   GL1  412   8.891   9.135   7.843 -0.0438 -0.0855 -0.0287
    4POPC   GL2  413   8.636   9.338   7.748  0.1900  0.0695 -0.2037
    4POPC   C1A  414   9.052   8.796   7.554  0.1790 -0.6668 -0.2088
    4POPC   D2A  415   9.300   8.816   7.259  0.0580 -0.3020 -0.0315
    4POPC   C3A  416   9.639   9.118   7.190 -0.1833  0.0231  0.1630
    4POPC   C4A  417  10.026   9.136   7.037  0.1170 -0.0374 -0.1678
    4POPC   C1B  418   8.848   9.215   7.390 -0.1595 -0.2501  0.0589
    4POPC   C2B  419   8.824   8.989   7.046 -0.0324  0.1827  0.3404
    4POPC   C3B  420   9.126   9.138   6.686  0.2694 -0.1587  0.0817
    4POPC   C4B  421   9.568   9.135   6.704  0.2288 -0.1047 -0.1289
    5POPC   NC3  422   9.678   4.366   8.192 -0.1083 -0.1237 -0.2210
    5POPC   PO4  423   9.476   4.072   7.906  0.1662 -0.5331 -0.2246
    5POPC   GL1  424   9.674   3.962   7.600 -0.0382  0.0332  0.2570
    5POPC   GL2  425   9.918   3.676   7.554  0.1746 -0.1104  0.1378
    5POPC   C1A  426   9.735   4.083   7.212  0.0863 -0.1464 -0.0616
    5POPC   D2A  427   9.526   4.096   6.827  0.1499  0.3081 -0.2610
    5POPC   C3A  428   9.710   3.959   6.449 -0.0531  0.1032 -0.1997
    5POPC   C4A  429   9.989   3.676   6.126  0.0071 -0.0300  0.2844
    5POPC   C1B  430   9.925   3.624   7.100  0.0713  0.1485 -0.1051
    5POPC   C2B  431   9.926   3.347   6.904  0.2508 -0.0660  0.2322
    5POPC   C3B  432  10.158   3.105   6.519  0.2074 -0.0877  0.1012
    5POPC   C4B  433  10.419   3.062   6.154 -0.0057  0.2278  0.1866
    6POPC   NC3  434   4.895   9.262   9.002  0.1505 -0.0805  0.1911
    6POPC   PO4  435   4.735   9.517   8.658  0.0885 -0.3068 -0.1938
    6POPC   GL1  436   4.707   9.792   8.460  0.1062 -0.2943 -0.0210
    6POPC   GL2  437   5.063   9.893   8.441 -0.1658  0.0496  0.0634
    6POPC   C1A  438   4.754   9.874   8.047 -0.0898 -0.0600  0.1656
    6POPC   D2A  439   4.818  10.212   7.748 -0.1632 -0.2273 -0.1961
    6POPC   C3A  440   4.464  10.316   7.407 -0.0068 -0.0930 -0.1580
    6POPC   C4A  441   4.302  10.061   7.040  0.0407  0.0423  0.0909
    6POPC   C1B  442   5.276   9.781   8.055  0.2786  0.1465  0.2455
    6POPC   C2B  443   5.233   9.592   7.579  0.0895  0.1720  0.1521
    6POPC   C3B  444   5.215   9.841   7.191  0.1556  0.0239  0.0618
    6POPC   C4B  445   5.468   9.913   6.839  0.1472 -0.0963  0.3240
    7POPC   NC3  446   1.464   1.840   8.194  0.0045  0.1150 -0.2782
    7POPC   PO4  447   1.345   1.705   7.816  0.3508 -0.0285 -0.1363
    7POPC   GL1  448   1.675   1.557   7.676 -0.4377 -0.1789 -0.0181
    7POPC   GL2  449   2.009   1.501   7.661 -0.1219 -0.1275 -0.3270
    7POPC   C1A  450   1.740   1.728   7.279 -0.0031  0.0500  0.2303
    7POPC   D2A  451   1.583   2.123   7.025  0.0965 -0.0123 -0.4419
    7POPC   C3A  452   1.616   2.088   6.585  0.1490  0.1685  0.0947
    7POPC   C4A  453   1.799   1.994   6.231  0.2671 -0.4231 -0.1695
    7POPC   C1B  454   2.106   1.377   7.290 -0.1774 -0.2581 -0.4398
    7POPC   C2B  455   2.372   1.412   6.928  0.0375 -0.0568 -0.1627
    7POPC   C3B  456   2.652   1.772   6.817  0.0342 -0.1882 -0.0576
    7POPC   C4B  457   2.869   1.930   6.567  0.0944  0.2738 -0.1136
    8POPC   NC3  458   5.479   1.387   9.763  0.2932 -0.0338  0.2943
    8POPC   PO4  459   5.521   1.846   9.648 -0.0298 -0.0482  0.4005
    8POPC   GL1  460   5.531   1.695   9.268  0.0808 -0.0933 -0.0764
    8POPC   GL2  461   5.856   1.612   9.097 -0.0535  0.0923  0.0236
    8POPC   C1A  462   5.413   1.562   8.892 -0.2049  0.2688  0.3893
    8POPC   D2A  463   5.261   1.703   8.489  0.0673 -0.1504 -0.1068
    8POPC   C3A  464   5.456   1.883   8.037 -0.2796 -0.2014 -0.0672
    8POPC   C4A  465   5.408   2.085   7.637 -0.2612  0.3871  0.1827
    8POPC   C1B  466   5.796   1.796   8.751  0.2525 -0.0107  0.1352
    8POPC   C2B  467   5.766   1.627   8.407  0.4151  0.2931 -0.2138
    8POPC   C3B  468   5.767   1.418   7.935 -0.0954 -0.3721  0.1624
    8POPC   C4B  469   5.995   1.516   7.606 -0.0914  0.1161 -0.0367
    9POPC   NC3  470   0.391   2.696   7.521 -0.1792 -0.6537  0.0127
    9POPC   PO4  471   0.642   2.288   7.563  0.0084  0.1279 -0.1420
    9POPC   GL1  472   0.647   2.328   7.080  0.1237  0.1132  0.2102
    9POPC   GL2  473   0.995   2.116   7.034  0.0966 -0.2714  0.0965
    9POPC   C1A  474   0.351   2.315   6.779 -0.0015  0.3107 -0.1433
    9POPC   D2A  475   0.218   2.275   6.391 -0.2946 -0.1782 -0.0193
    9POPC   C3A  476   0.603   2.303   6.096  0.0570  0.1441  0.2117
    9POPC   C4A  477   0.580   2.241   5.673  0.0075  0.1493 -0.2713
    9POPC   C1B  478   1.175   2.493   6.980  0.1545  0.0470  0.0453
    9POPC   C2B  479   1.232   3.017   7.061 -0.1606  0.0068  0.0815
    9POPC   C3B  480   1.084   3.426   6.978  0.0202 -0.3723 -0.0470
    9POPC   C4B  481   0.681   3.628   7.169  0.0905  0.2065 -0.1960
   10POPC   NC3  482   3.530   7.115   8.830 -0.4263  0.3641 -0.3848
   10POPC   PO4  483   3.403   7.026   8.346  0.0043 -0.1149  0.1155
   10POPC   GL1  484   3.131   6.942   7.872 -0.1744  0.0004  0.1600
   10POPC   GL2  485   2.803   6.943   7.773 -0.1675  0.2020 -0.2292
   10POPC   C1A  486   3.436   7.224   7.485  0.0446 -0.1127 -0.2213
   10POPC   D2A  487   3.544   7.207   7.024  0.3002 -0.0246  0.3332
   10POPC   C3A  488   3.720   7.499   6.722  0.3261  0.2001 -0.2150
   10POPC   C4A  489   4.181   7.487   6.692  0.0124 -0.1989 -0.0063
   10POPC   C1B  490   3.052   6.863   7.371 -0.0314  0.0300  0.2777
   10POPC   C2B  491   3.289   6.759   6.884  0.2799 -0.4293  0.0789
   10POPC   C3B  492   3.312   6.648   6.490 -0.0641  0.0928 -0.1090
   10POPC   C4B  493   3.375   6.802   6.087  0.0369 -0.0845  0.0111
   11POPC   NC3  494   7.269   9.544   8.585  0.1684  0.2438  0.0710
   11POPC   PO4  495   6.955   9.299   8.486  0.1136 -0.0725  0.0158
   11POPC   GL1  496   6.713   9.082   8.205 -0.2514  0.1673  0.0319
   11POPC   GL2  497   6.434   8.880   8.209 -0.2710  0.1373 -0.0948
   11POPC   C1A  498   6.683   9.156   7.800 -0.2229  0.0921 -0.2772
   11POPC   D2A  499   6.424   9.413   7.616  0.1101 -0.1784 -0.0066
   11POPC   C3A  500   6.261   9.489   7.148 -0.0074 -0.1475 -0.0711
   11POPC   C4A  501   6.207   9.441   6.717 -0.4155 -0.3445 -0.1492
   11POPC   C1B  502   6.294   8.883   7.767  0.1321 -0.0079 -0.1714
   11POPC   C2B  503   6.449   8.940   7.297 -0.1227  0.1102  0.2463
   11POPC   C3B  504   6.497   9.077   6.847 -0.0999  0.2238 -0.3501
   11POPC   C4B  505   6.726   9.425   6.586  0.2213  0.0378 -0.1236
   12POPC   NC3  506   8.018   0.184   8.389  0.1839 -0.0585 -0.0518
   12POPC   PO4  507   7.717  -0.104   8.298  0.2961  0.1176  0.1518
   12POPC   GL1  508   7.384  -0.348   7.966  0.1327  0.3353  0.0457
   12POPC   GL2  509   7.027  -0.215   7.983  0.0579 -0.0413  0.0347
   12POPC   C1A  510   7.315  -0.297   7.553  0.3520  0.2506 -0.0154
   12POPC   D2A  511   6.887  -0.376   7.390  0.0337  0.1347  0.1381
   12POPC   C3A  512   6.735  -0.039   7.208  0.1536  0.3159  0.1827
   12POPC   C4A  513   6.383   0.261   7.345  0.1716  0.2321 -0.0105
   12POPC   C1B  514   6.770   0.016   7.750 -0.0472  0.0498  0.1507
   12POPC   C2B  515   6.804   0.408   7.567  0.0235 -0.0622 -0.1319
   12POPC   C3B  516   6.743   0.794   7.427 -0.4475  0.3622 -0.1947
   12POPC   C4B  517   6.611   0.917   7.139  0.0583  0.0014  0.0940
   13POPC   NC3  518   6.071   4.004   9.114 -0.1077  0.1088  0.0083
   13POPC   PO4  519   5.890   3.724   8.834 -0.0352 -0.0331 -0.0057
   13POPC   GL1  520   5.952   3.594   8.410 -0.1680  0.3093 -0.1094
   13POPC   GL2  521   5.806   3.894   8.144 -0.0619  0.2318  0.1815
   13POPC   C1A  522   6.150   3.353   7.968  0.0955  0.0292 -0.1040
   13POPC   D2A  523   5.965   3.343   7.604 -0.0074 -0.0464  0.0756
   13POPC   C3A  524   5.888   3.202   7.251  0.1953  0.2312  0.0964
   13POPC   C4A  525   5.633   3.099   6.883 -0.1736  0.1815  0.0243
   13POPC   C1B  526   5.626   3.722   7.792  0.4471  0.0412  0.1211
   13POPC   C2B  527   5.319   3.911   7.483  0.0195 -0.1925 -0.0168
   13POPC   C3B  528   5.022   3.733   7.128 -0.1664  0.3306  0.0056
   13POPC   C4B  529   4.617   3.486   6.941  0.1941  0.2565 -0.1458
   14POPC   NC3  530   1.185   7.057   8.904  0.1728  0.1351 -0.0064
   14POPC   PO4  531   1.473   6.854   8.666  0.1692 -0.0930 -0.0189
   14POPC   GL1  532   1.234   6.922   8.365  0.0146  0.1664  0.0916
   14POPC   GL2  533   1.157   7.246   8.399 -0.0045  0.1645 -0.0833
   14POPC   C1A  534   1.264   6.962   7.851  0.2612 -0.0872  0.0483
   14POPC   D2A  535   1.295   6.952   7.354  0.0218  0.1726  0.2186
   14POPC   C3A  536   1.140   6.964   6.978  0.3702 -0.2612  0.2749
   14POPC   C4A  537   1.178   7.027   6.498  0.1468 -0.2300 -0.0473
   14POPC   C1B  538   0.749   7.218   8.083 -0.1603  0.0286 -0.2158
   14POPC   C2B  539   0.712   7.177   7.649 -0.0648  0.0484 -0.0516
   14POPC   C3B  540   0.359   7.200   7.348  0.5257  0.0198 -0.1317
   14POPC   C4B  541  -0.015   7.302   7.494 -0.1979  0.0795 -0.0903
   15POPC   NC3  542   4.179   7.559   8.667  0.3265  0.0923 -0.0368
   15POPC   PO4  543   4.293   7.860   8.314  0.0427 -0.3543 -0.1408
   15POPC   GL1  544   4.403   7.812   7.993 -0.0710 -0.2475 -0.1269
   15POPC   GL2  545   4.277   8.043   7.803  0.1069  0.0222 -0.1270
   15POPC   C1A  546   4.278   7.566   7.601 -0.1296  0.1577 -0.0906
   15POPC   D2A  547   4.012   7.476   7.188 -0.2538  0.0258 -0.1780
   15POPC   C3A  548   4.038   7.139   6.956 -0.0200  0.2151  0.2498
   15POPC   C4A  549   4.166   6.704   6.821 -0.3284  0.2212  0.2492
   15POPC   C1B  550   4.160   8.056   7.363 -0.2448  0.2956 -0.0017
   15POPC   C2B  551   4.107   7.897   6.883 -0.0618  0.0026  0.0917
   15POPC   C3B  552   4.022   7.937   6.391  0.0154  0.1746  0.1390
   15POPC   C4B  553   3.962   7.563   6.243  0.1066 -0.2903 -0.2248
   16POPC   NC3  554   4.145   5.014   8.435 -0.1412 -0.0375  0.0635
   16POPC   PO4  555   4.418   4.917   8.105 -0.0216 -0.1352  0.4657
   16POPC   GL1  556   4.380   4.970   7.670  0.0912  0.1727  0.1613
   16POPC   GL2  557   4.641   4.717   7.655  0.2191  0.1589  0.1864
   16POPC   C1A  558   4.178   4.969   7.319  0.0833  0.1526  0.0489
   16POPC   D2A  559   4.021   4.973   6.915  0.2086  0.1974 -0.1810
   16POPC   C3A  560   3.981   4.678   6.640 -0.1656 -0.2079  0.0164
   16POPC   C4A  561   3.551   4.586   6.677  0.1967  0.0235  0.0725
   16POPC   C1B  562   4.835   4.783   7.271 -0.0157  0.1619  0.1933
   16POPC   C2B  563   4.943   4.864   6.857 -0.1112  0.1437  0.3373
   16POPC   C3B  564   4.936   4.810   6.559 -0.1787 -0.1282  0.2062
   16POPC   C4B  565   4.876   4.600   6.147 -0.0088  0.3969 -0.2045
   17POPC   NC3  566   4.734   7.465   8.397 -0.1024 -0.0545 -0.4113
   17POPC   PO4  567   4.792   7.966   8.404 -0.1525  0.2723  0.2040
   17POPC   GL1  568   4.868   7.932   7.915 -0.3175  0.4368  0.1090
   17POPC   GL2  569   5.103   8.089   7.742 -0.1463 -0.2399 -0.1129
   17POPC   C1A  570   4.651   8.141   7.542  0.2603 -0.1778  0.3072
   17POPC   D2A  571   4.652   8.026   7.096  0.1643  0.0429 -0.2089
   17POPC   C3A  572   4.401   8.324   6.740 -0.0119  0.0428 -0.2396
   17POPC   C4A  573   3.922   8.302   6.691 -0.0920 -0.5340 -0.0556
   17POPC   C1B  574   5.175   8.314   7.270  0.0696  0.0071 -0.2165
   17POPC   C2B  575   5.044   8.288   6.850  0.0988 -0.2724 -0.0400
   17POPC   C3B  576   5.085   8.533   6.468  0.0995  0.0841 -0.2402
   17POPC   C4B  577   5.103   8.814   6.118 -0.0324  0.5618  0.1145
   18POPC   NC3  578   2.833   2.374   8.548  0.0133  0.6050 -0.0443
   18POPC   PO4  579   2.961   1.991   8.299  0.1670  0.2457 -0.0211
   18POPC   GL1  580   2.889   2.297   8.000  0.1139 -0.2684  0.0848
   18POPC   GL2  581   2.920   2.625   8.137  0.0797  0.3585 -0.0359
   18POPC   C1A  582   2.644   2.260   7.597  0.0006  0.1424  0.0781
   18POPC   D2A  583   2.671   2.142   7.119 -0.1391  0.1038 -0.0489
   18POPC   C3A  584   2.865   2.381   6.836 -0.2645  0.6741  0.0078
   18POPC   C4A  585   2.985   2.412   6.400  0.3261 -0.2321 -0.1070
   18POPC   C1B  586   3.008   2.771   7.663 -0.1364 -0.2471  0.1763
   18POPC   C2B  587   2.894   2.666   7.239 -0.1946  0.0124  0.0792
   18POPC   C3B  588   3.157   2.785   6.852 -0.1210 -0.2913  0.1670
   18POPC   C4B  589   3.337   3.204   6.789 -0.2748  0.1302  0.0601
   19POPC   NC3  590   8.397   7.709   8.463 -0.2604  0.2953 -0.0479
   19POPC   PO4  591   8.209   7.272   8.640 -0.0603 -0.0421  0.2798
   19POPC   GL1  592   8.210   7.311   8.155  0.0551  0.2000 -0.1958
   19POPC   GL2  593   8.470   7.429   7.953  0.2779  0.3671  0.2118
   19POPC   C1A  594   8.051   7.420   7.704 -0.4443 -0.0219  0.1115
   19POPC   D2A  595   8.205   7.751   7.507  0.3047  0.1135 -0.1952
   19POPC   C3A  596   7.867   7.986   7.589  0.0636 -0.0178 -0.3925
   19POPC   C4A  597   7.443   8.047   7.662  0.2065  0.2511  0.1483
   19POPC   C1B  598   8.433   7.308   7.404  0.2106 -0.1868 -0.1187
   19POPC   C2B  599   8.123   7.365   7.137  0.1989  0.1768 -0.0210
   19POPC   C3B  600   7.969   7.369   6.651  0.0058  0.2224  0.0407
   19POPC   C4B  601   7.568   7.387   6.298  0.1380 -0.0912 -0.1127
   20POPC   NC3  602   0.420   5.914   8.808 -0.2642 -0.0020  0.2086
   20POPC   PO4  603   0.731   5.580   8.572  0.0484 -0.0918 -0.3931
   20POPC   GL1  604   0.676   5.765   8.138 -0.1713  0.1912 -0.0330
   20POPC   GL2  605   0.893   5.683   7.866 -0.0910  0.2960 -0.0830
   20POPC   C1A  606   0.537   6.099   7.795 -0.2252 -0.0647 -0.0311
   20POPC   D2A  607   0.621   6.164   7.339 -0.0241  0.0035 -0.3181
   20POPC   C3A  608   0.946   6.252   7.174  0.0572  0.2405 -0.2013
   20POPC   C4A  609   1.052   6.495   6.879  0.1335 -0.2902 -0.0752
   20POPC   C1B  610   0.835   5.245   7.597  0.0686 -0.2304 -0.1518
   20POPC   C2B  611   1.147   4.986   7.393 -0.0883 -0.2858  0.0073
   20POPC   C3B  612   1.352   4.873   7.032  0.2092  0.1025 -0.1809
   20POPC   C4B  613   1.587   4.666   6.714  0.1689 -0.0933 -0.3900
   21POPC   NC3  614   1.545   7.846   7.922  0.2921  0.1074  0.4232
   21POPC   PO4  615   2.006   7.820   8.003  0.1496 -0.1916 -0.0391
   21POPC   GL1  616   2.020   7.498   7.725  0.1533 -0.0407 -0.5739
   21POPC   GL2  617   1.610   7.426   7.529  0.2086 -0.0908  0.2985
   21POPC   C1A  618   2.103   7.451   7.263 -0.1140 -0.0335  0.4501
   21POPC   D2A  619   1.885   7.702   6.901 -0.0322 -0.1632  0.0377
   21POPC   C3A  620   1.991   7.924   6.612  0.0049 -0.2547  0.3300
   21POPC   C4A  621   2.186   8.164   6.215  0.1547  0.3987 -0.2324
   21POPC   C1B  622   1.502   7.396   7.121  0.0926 -0.1515 -0.2392
   21POPC   C2B  623   1.463   7.363   6.693 -0.4632  0.0727  0.2491
   21POPC   C3B  624   1.519   7.571   6.345  0.1566  0.0693 -0.0732
   21POPC   C4B  625   1.789   7.788   6.170  0.0572  0.0254 -0.2325
   22POPC   NC3  626   1.090   6.525   8.781  0.0293  0.0352 -0.2476
   22POPC   PO4  627   0.796   6.599   8.531 -0.2781  0.0728 -0.0599
   22POPC   GL1  628   0.766   6.476   8.138 -0.1777 -0.2698 -0.0656
   22POPC   GL2  629   0.964   6.296   8.046  0.0650  0.0010 -0.2216
   22POPC   C1A  630   0.492   6.605   7.695 -0.0456  0.1172  0.2109
   22POPC   D2A  631   0.246   6.686   7.344 -0.2315  0.0909  0.1310
   22POPC   C3A  632  -0.051   6.535   7.027 -0.3111 -0.1331 -0.2511
   22POPC   C4A  633  -0.380   6.426   6.756 -0.0589 -0.0956  0.0241
   22POPC   C1B  634   1.367   6.473   7.881  0.0399  0.0459 -0.2319
   22POPC   C2B  635   1.659   6.673   7.656 -0.1451  0.1306  0.0532
   22POPC   C3B  636   1.807   6.929   7.431  0.1110  0.0229 -0.0327
   22POPC   C4B  637   1.888   7.057   6.979 -0.2428  0.4289  0.1089
   23POPC   NC3  638   1.948   9.691   8.146 -0.2122  0.0925  0.0708
   23POPC   PO4  639   1.766   9.910   7.837  0.0357  0.0139 -0.0828
   23POPC   GL1  640   1.960   9.719   7.496 -0.0237  0.1713  0.4162
   23POPC   GL2  641   1.779   9.459   7.401  0.2170 -0.0636 -0.3822
   23POPC   C1A  642   2.311   9.498   7.392  0.2842  0.0963 -0.0784
   23POPC   D2A  643   2.557   9.139   7.350 -0.0165  0.1035 -0.0974
   23POPC   C3A  644   2.718   9.014   6.934 -0.0576  0.3559  0.0653
   23POPC   C4A  645   2.434   9.047   6.582  0.1889 -0.1503  0.2924
   23POPC   C1B  646   1.651   9.303   6.951 -0.2387 -0.1498  0.2016
   23POPC   C2B  647   1.630   9.236   6.437 -0.1022  0.0381 -0.0346
   23POPC   C3B  648   1.515   9.562   6.074 -0.2275 -0.1749 -0.0886
   23POPC   C4B  649   1.803   9.982   5.924  0.2462 -0.2727  0.0667
   24POPC   NC3  650   9.687   2.541   8.156 -0.0999  0.2193 -0.3065
   24POPC   PO4  651   9.496   3.010   8.066  0.1736 -0.2196 -0.1725
   24POPC   GL1  652   9.299   3.269   7.693  0.0594 -0.0988  0.0467
   24POPC   GL2  653   8.995   3.289   7.506  0.1538  0.3511  0.0372
   24POPC   C1A  654   9.378   3.624   7.408  0.1208 -0.3254  0.0705
   24POPC   D2A  655   9.373   3.713   7.032  0.4337  0.2214 -0.2869
   24POPC   C3A  656   9.126   3.538   6.661  0.1956  0.0989 -0.0276
   24POPC   C4A  657   9.163   3.236   6.382 -0.2358  0.1652 -0.1307
   24POPC   C1B  658   8.951   3.254   7.110  0.0675 -0.0871  0.0290
   24POPC   C2B  659   8.784   3.084   6.686  0.1060 -0.1966  0.1278
   24POPC   C3B  660   8.571   3.149   6.417  0.1227  0.0953  0.1885
   24POPC   C4B  661   8.159   3.073   6.324 -0.2350 -0.3071 -0.0563
   25POPC   NC3  662   4.785   0.908   9.235 -0.0709 -0.0419  0.6306
   25POPC   PO4  663   4.667   1.295   9.096 -0.3353  0.0048  0.0562
   25POPC   GL1  664   4.525   1.174   8.755 -0.3364  0.2881 -0.2110
   25POPC   GL2  665   4.457   0.857   8.725 -0.0482 -0.2372  0.0185
   25POPC   C1A  666   4.591   1.013   8.277 -0.1807  0.1133  0.3057
   25POPC   D2A  667   4.434   0.789   8.037  0.0631 -0.0617  0.0865
   25POPC   C3A  668   4.457   0.958   7.671  0.3416 -0.2850  0.1379
   25POPC   C4A  669   4.233   1.059   7.296  0.0015 -0.2221  0.0678
   25POPC   C1B  670   4.286   0.558   8.451  0.2027  0.5505 -0.1627
   25POPC   C2B  671   4.347   0.308   8.245  0.1078  0.0499  0.2857
   25POPC   C3B  672   4.276   0.230   7.769  0.2284 -0.0768  0.0009
   25POPC   C4B  673   4.045   0.107   7.386  0.3834 -0.0049  0.0536
   26POPC   NC3  674   5.928   6.958   8.057  0.0739  0.1015 -0.1099
   26POPC   PO4  675   5.537   6.726   8.280  0.2466 -0.0383  0.4982
   26POPC   GL1  676   5.440   6.754   7.869 -0.3166  0.1152  0.1999
   26POPC   GL2  677   5.185   6.566   7.704  0.3647  0.0379  0.1938
   26POPC   C1A  678   5.357   7.005   7.550 -0.3648 -0.0580  0.0084
   26POPC   D2A  679   5.121   6.713   7.213  0.0086  0.2608  0.0286
   26POPC   C3A  680   5.260   6.705   6.850  0.0281 -0.2022  0.0418
   26POPC   C4A  681   5.395   6.650   6.409 -0.3285 -0.0512 -0.5277
   26POPC   C1B  682   5.209   6.223   7.585  0.2537 -0.0892  0.3352
   26POPC   C2B  683   5.220   6.214   7.173  0.1356 -0.1558  0.2102
   26POPC   C3B  684   5.339   6.150   6.746  0.0097 -0.0053  0.2736
   26POPC   C4B  685   5.694   6.242   6.450  0.0429 -0.3496 -0.0163
   27POPC   NC3  686   6.336   1.514   9.757  0.0816 -0.0580  0.0108
   27POPC   PO4  687   6.633   1.441   9.318  0.3070 -0.1689 -0.2378
   27POPC   GL1  688   6.342   1.439   8.982 -0.1353 -0.3204  0.0737
   27POPC   GL2  689   6.312   1.784   8.907  0.2479 -0.1729 -0.0051
   27POPC   C1A  690   6.154   1.434   8.614  0.1021  0.1283  0.0098
   27POPC   D2A  691   6.165   1.525   8.194 -0.2082 -0.2230  0.0329
   27POPC   C3A  692   6.378   1.242   7.905 -0.0644 -0.0459 -0.0067
   27POPC   C4A  693   6.349   1.129   7.465 -0.1024  0.1269 -0.0229
   27POPC   C1B  694   6.461   1.908   8.444 -0.1905  0.3605  0.3431
   27POPC   C2B  695   6.659   2.264   8.365 -0.4547  0.0965 -0.0511
   27POPC   C3B  696   6.909   2.532   8.031 -0.1003 -0.0792 -0.2879
   27POPC   C4B  697   7.062   2.456   7.585  0.0908  0.0009  0.0325
   28POPC   NC3  698   2.954   7.824   8.310 -0.0339  0.0170  0.0550
   28POPC   PO4  699   3.263   7.783   8.037 -0.0781  0.2661  0.3318
   28POPC   GL1  700   2.933   7.756   7.748  0.0590 -0.3033 -0.0113
   28POPC   GL2  701   3.020   7.420   7.688  0.0434  0.3743  0.1686
   28POPC   C1A  702   2.649   7.693   7.544  0.2573  0.0335  0.1275
   28POPC   D2A  703   2.307   7.951   7.463  0.1351 -0.0122  0.1982
   28POPC   C3A  704   2.107   8.114   7.072  0.0072 -0.0062  0.2804
   28POPC   C4A  705   1.717   8.180   6.937  0.1497 -0.2410  0.1861
   28POPC   C1B  706   3.100   7.499   7.177  0.1097 -0.3695 -0.1256
   28POPC   C2B  707   3.183   7.705   6.837  0.2349 -0.0686  0.4338
   28POPC   C3B  708   3.113   7.935   6.501  0.0604 -0.3349  0.1906
   28POPC   C4B  709   3.257   8.414   6.319  0.3708  0.0470  0.0803
   29POPC   NC3  710   0.672   4.136   8.118 -0.0775 -0.0697 -0.0219
   29POPC   PO4  711   0.216   4.027   8.145 -0.0109  0.0055  0.0066
   29POPC   GL1  712   0.296   4.216   7.726 -0.4511 -0.1198  0.0206
   29POPC   GL2  713   0.023   4.514   7.712  0.3373 -0.2923  0.0961
   29POPC   C1A  714   0.490   4.060   7.301  0.4000  0.1154 -0.1470
   29POPC   D2A  715   0.387   4.068   6.890 -0.3832 -0.0945 -0.1466
   29POPC   C3A  716   0.536   3.702   6.717  0.2407 -0.0432 -0.1827
   29POPC   C4A  717   0.842   3.348   6.580  0.0838 -0.2324 -0.0037
   29POPC   C1B  718   0.252   4.469   7.306 -0.1860 -0.1943 -0.2551
   29POPC   C2B  719   0.385   4.614   6.895  0.1841  0.0241 -0.0536
   29POPC   C3B  720   0.493   5.004   6.729 -0.1954 -0.2661 -0.0604
   29POPC   C4B  721   0.673   5.130   6.330  0.0499 -0.1395  0.0090
   30POPC   NC3  722   8.790   2.094   7.978 -0.1396 -0.0209  0.1580
   30POPC   PO4  723   8.707   2.584   8.011  0.3100  0.0609 -0.1602
   30POPC   GL1  724   8.473   2.683   7.664  0.0624  0.1163  0.0095
   30POPC   GL2  725   8.655   2.914   7.478  0.0094 -0.0950  0.0002
   30POPC   C1A  726   8.247   2.534   7.308 -0.1761 -0.0601  0.2884
   30POPC   D2A  727   7.886   2.653   6.954  0.1221 -0.0309 -0.2181
   30POPC   C3A  728   7.947   2.541   6.404 -0.3752 -0.2309  0.0463
   30POPC   C4A  729   8.040   2.760   5.909 -0.1436 -0.0950  0.1654
   30POPC   C1B  730   8.477   2.945   7.056 -0.3264 -0.1430  0.0600
   30POPC   C2B  731   8.360   2.765   6.714 -0.3056  0.0358  0.1132
   30POPC   C3B  732   8.301   2.327   6.707 -0.0559 -0.0127 -0.1963
   30POPC   C4B  733   8.175   2.072   6.955 -0.1782  0.1452  0.0773
   31POPC   NC3  734   1.228   8.041   8.657 -0.0863  0.0096 -0.0837
   31POPC   PO4  735   1.320   7.767   8.351 -0.0085  0.0437 -0.0869
   31POPC   GL1  736   1.024   7.721   8.040 -0.1571  0.0724 -0.3030
   31POPC   GL2  737   1.156   7.453   7.833  0.2215 -0.3005 -0.1160
   31POPC   C1A  738   0.607   7.695   7.968  0.2621  0.1471 -0.0111
   31POPC   D2A  739   0.363   7.577   7.725  0.2344  0.1997 -0.1226
   31POPC   C3A  740   0.100   7.827   7.511 -0.0399  0.4095  0.0424
   31POPC   C4A  741  -0.117   8.209   7.362 -0.0153 -0.3824 -0.2282
   31POPC   C1B  742   1.125   7.415   7.442 -0.1035 -0.1833  0.1924
   31POPC   C2B  743   0.934   7.490   7.070 -0.2118  0.2483 -0.0691
   31POPC   C3B  744   0.966   7.443   6.665 -0.0260  0.0699  0.0778
   31POPC   C4B  745   0.735   7.163   6.383  0.0595 -0.0886 -0.0218
   32POPC   NC3  746   6.543   6.665   7.886  0.0879  0.3458  0.1156
   32POPC   PO4  747   6.861   6.998   7.789 -0.1018  0.2758  0.1623
   32POPC   GL1  748   6.759   6.742   7.381 -0.1188 -0.1753 -0.0070
   32POPC   GL2  749   6.669   7.072   7.141  0.1716 -0.0489 -0.0039
   32POPC   C1A  750   6.638   6.475   7.057  0.0121  0.0359 -0.1251
   32POPC   D2A  751   6.905   6.514   6.659 -0.2187 -0.1433  0.6427
   32POPC   C3A  752   6.771   6.955   6.549 -0.1286 -0.1632  0.1539
   32POPC   C4A  753   6.615   7.290   6.663 -0.0067 -0.1564 -0.0001
   32POPC   C1B  754   6.323   7.065   7.085 -0.1130  0.0186  0.0692
   32POPC   C2B  755   6.142   7.190   6.632 -0.0768 -0.0712 -0.0101
   32POPC   C3B  756   5.984   7.521   6.355 -0.0625 -0.0376  0.1192
   32POPC   C4B  757   5.888   7.569   5.967  0.1486  0.2260  0.1216
   33POPC   NC3  758   9.360   8.448   8.364  0.0928 -0.0867 -0.2787
   33POPC   PO4  759   9.004   8.154   8.241  0.0402  0.2561  0.0729
   33POPC   GL1  760   8.667   7.984   7.991 -0.0802  0.0929  0.0199
   33POPC   GL2  761   8.256   7.863   8.003  0.1536  0.2588 -0.1898
   33POPC   C1A  762   8.739   7.644   7.603 -0.0690  0.0075 -0.0058
   33POPC   D2A  763   8.984   7.370   7.331 -0.0791 -0.0269  0.2038
   33POPC   C3A  764   8.993   7.381   6.929 -0.0234 -0.0050 -0.1538
   33POPC   C4A  765   8.821   7.631   6.438  0.4587 -0.2366 -0.0635
   33POPC   C1B  766   8.279   8.364   7.806  0.0067  0.0643  0.0327
   33POPC   C2B  767   8.283   8.559   7.377 -0.1860  0.2089 -0.0015
   33POPC   C3B  768   8.504   8.468   7.013 -0.2149 -0.2437 -0.3240
   33POPC   C4B  769   8.755   8.218   6.847 -0.1715  0.0385  0.2421
   34POPC   NC3  770   8.093   8.699   8.715 -0.0097  0.0288  0.1812
   34POPC   PO4  771   8.502   8.710   8.517  0.4384 -0.0604 -0.0017
   34POPC   GL1  772   8.676   8.616   8.106 -0.0835  0.1357  0.2722
   34POPC   GL2  773   8.958   8.618   8.013 -0.0572  0.2310 -0.0297
   34POPC   C1A  774   8.548   8.831   7.802  0.4270  0.1796 -0.0472
   34POPC   D2A  775   8.423   9.005   7.383  0.0916 -0.0533  0.2502
   34POPC   C3A  776   8.093   9.325   7.411  0.1006  0.0126  0.0025
   34POPC   C4A  777   8.144   9.807   7.306 -0.0337  0.2818 -0.0844
   34POPC   C1B  778   8.736   8.442   7.577 -0.0125 -0.0360 -0.0380
   34POPC   C2B  779   8.619   8.040   7.348 -0.0611  0.1276  0.0716
   34POPC   C3B  780   8.954   7.830   7.147 -0.0491 -0.0176  0.0479
   34POPC   C4B  781   9.409   7.728   7.117 -0.0160 -0.3269  0.1590
   35POPC   NC3  782   0.247   9.649   8.233  0.0572 -0.0736  0.3338
   35POPC   PO4  783   0.249   9.943   7.937 -0.0975 -0.0937  0.1307
   35POPC   GL1  784   0.129   9.841   7.537 -0.0887  0.3085 -0.0024
   35POPC   GL2  785   0.138   9.548   7.590  0.0600  0.1731  0.1731
   35POPC   C1A  786   0.212   9.633   7.141 -0.1063 -0.2021 -0.0757
   35POPC   D2A  787   0.012   9.552   6.735  0.0368 -0.2381 -0.0112
   35POPC   C3A  788  -0.387   9.627   6.575  0.2777  0.3221 -0.0910
   35POPC   C4A  789  -0.747   9.518   6.321 -0.2114  0.1780 -0.0902
   35POPC   C1B  790  -0.259   9.610   7.319 -0.3519 -0.0363 -0.1284
   35POPC   C2B  791  -0.504   9.403   7.131  0.0242 -0.3622 -0.1448
   35POPC   C3B  792  -0.914   9.471   6.834  0.1043 -0.0518 -0.3075
   35POPC   C4B  793  -1.284   9.294   6.949 -0.2365 -0.3546  0.1589
   36POPC   NC3  794   6.965   4.598   8.126  0.1975  0.2432  0.0841
   36POPC   PO4  795   7.021   5.090   8.071 -0.0759 -0.0846 -0.3166
   36POPC   GL1  796   6.945   5.039   7.618 -0.2946  0.1360  0.0329
   36POPC   GL2  797   6.875   4.675   7.580 -0.0657  0.2594 -0.0656
   36POPC   C1A  798   6.867   5.009   7.134  0.2457  0.0479 -0.0370
   36POPC   D2A  799   6.656   5.094   6.795 -0.1016  0.3142  0.3478
   36POPC   C3A  800   6.890   5.296   6.330 -0.2105 -0.2499 -0.1154
   36POPC   C4A  801   6.943   5.425   5.919  0.2233  0.0864 -0.0159
   36POPC   C1B  802   6.633   4.317   7.294 -0.0875 -0.0793 -0.2136
   36POPC   C2B  803   6.521   4.154   6.933  0.2661  0.1202  0.3904
   36POPC   C3B  804   6.095   4.029   6.977  0.0862  0.2920  0.1498
   36POPC   C4B  805   5.950   3.811   7.302 -0.0908  0.3600  0.3817
   37POPC   NC3  806   9.642   2.772   7.659  0.1154 -0.4695 -0.0744
   37POPC   PO4  807   9.776   3.186   7.595 -0.1807  0.3722 -0.4815
   37POPC   GL1  808   9.796   3.012   7.225  0.1509 -0.0721 -0.0121
   37POPC   GL2  809   9.507   3.142   7.196  0.0668  0.2016 -0.1609
   37POPC   C1A  810  10.093   2.801   6.872 -0.0806 -0.1585  0.0086
   37POPC   D2A  811  10.296   2.667   6.463  0.0619 -0.0413  0.1059
   37POPC   C3A  812  10.631   2.633   6.264 -0.2686  0.2166  0.1024
   37POPC   C4A  813  10.958   2.812   5.984 -0.0894 -0.3624  0.1262
   37POPC   C1B  814   9.454   3.168   6.812  0.2479 -0.0571 -0.1782
   37POPC   C2B  815   9.626   3.451   6.435  0.1049 -0.0270 -0.2461
   37POPC   C3B  816   9.507   3.578   6.048 -0.3308 -0.1499 -0.2687
   37POPC   C4B  817   9.633   3.626   5.620 -0.0011 -0.4497 -0.1133
   38POPC   NC3  818   3.071   4.910   8.145  0.0564 -0.0732 -0.1782
   38POPC   PO4  819   3.539   5.091   8.199  0.0535  0.0137 -0.0115
   38POPC   GL1  820   3.413   5.048   7.758  0.0650  0.0570  0.5081
   38POPC   GL2  821   3.153   4.872   7.670  0.0453 -0.1565 -0.2166
   38POPC   C1A  822   3.658   5.126   7.377  0.1197 -0.0201 -0.2770
   38POPC   D2A  823   3.814   5.422   7.075  0.2978  0.1686 -0.2753
   38POPC   C3A  824   3.608   5.412   6.604  0.2584 -0.2872  0.0842
   38POPC   C4A  825   3.531   5.031   6.238  0.0404 -0.1261  0.1301
   38POPC   C1B  826   3.134   5.123   7.290  0.0424  0.1305 -0.0879
   38POPC   C2B  827   3.345   5.519   7.126 -0.0329  0.1039  0.3699
   38POPC   C3B  828   3.338   5.856   6.809  0.3402 -0.2339 -0.0949
   38POPC   C4B  829   3.272   6.168   6.479  0.2751  0.0300 -0.1349
   39POPC   NC3  830   8.728   5.560   8.593  0.1347  0.2914 -0.1053
   39POPC   PO4  831   8.922   5.901   8.342 -0.0060  0.1907 -0.1750
   39POPC   GL1  832   9.103   6.163   7.960 -0.2067 -0.1389 -0.0586
   39POPC   GL2  833   8.876   5.967   7.772 -0.0931  0.3010 -0.1954
   39POPC   C1A  834   9.297   6.304   7.496 -0.0054 -0.2113 -0.0344
   39POPC   D2A  835   9.468   6.629   7.415  0.0229  0.1597 -0.0027
   39POPC   C3A  836   9.734   6.870   7.758  0.1577 -0.0361  0.1082
   39POPC   C4A  837  10.003   7.079   7.928 -0.0614  0.0471  0.1205
   39POPC   C1B  838   8.911   6.061   7.358  0.0240 -0.1661 -0.0509
   39POPC   C2B  839   8.618   5.962   6.979 -0.1340  0.1005  0.2875
   39POPC   C3B  840   8.604   6.009   6.549  0.2098 -0.1050 -0.4706
   39POPC   C4B  841   8.746   5.889   6.098 -0.1328 -0.2443 -0.3596
   40POPC   NC3  842   1.470   1.068   7.794 -0.0619 -0.4223  0.0413
   40POPC   PO4  843   1.086   1.137   7.820  0.0052  0.0921  0.2358
   40POPC   GL1  844   1.241   1.298   7.348  0.3598  0.0337  0.1757
   40POPC   GL2  845   1.251   1.703   7.205 -0.0714  0.1071 -0.2389
   40POPC   C1A  846   1.457   1.296   6.958 -0.1164  0.0733  0.0360
   40POPC   D2A  847   1.288   1.139   6.577  0.0100  0.0848  0.0507
   40POPC   C3A  848   1.422   1.199   6.216 -0.1334 -0.0732  0.1175
   40POPC   C4A  849   1.494   1.583   6.030 -0.1730  0.2621  0.2042
   40POPC   C1B  850   1.163   1.658   6.791  0.0078  0.0261  0.0731
   40POPC   C2B  851   1.112   1.801   6.346  0.0077  0.2104 -0.3030
   40POPC   C3B  852   0.786   1.785   6.020  0.2424 -0.3167  0.2653
   40POPC   C4B  853   0.323   1.869   6.057  0.0535  0.0713  0.0961
   41POPC   NC3  854   5.301   2.256   9.814  0.2932 -0.1358  0.0815
   41POPC   PO4  855   5.231   2.302   9.419 -0.3371 -0.0170 -0.0994
   41POPC   GL1  856   5.103   2.198   8.981 -0.1039 -0.0113  0.0648
   41POPC   GL2  857   5.402   2.078   9.003 -0.2520 -0.0342 -0.0155
   41POPC   C1A  858   4.885   2.107   8.530  0.2317  0.0413 -0.1630
   41POPC   D2A  859   5.062   2.235   8.049 -0.3252  0.0785  0.2003
   41POPC   C3A  860   5.283   2.559   8.149  0.0509 -0.1589  0.1084
   41POPC   C4A  861   5.456   2.700   8.514 -0.1022 -0.1722  0.0879
   41POPC   C1B  862   5.364   2.179   8.520  0.1419  0.1131 -0.1786
   41POPC   C2B  863   5.672   2.293   8.324  0.1580  0.1351 -0.2314
   41POPC   C3B  864   6.099   2.244   8.223  0.0415 -0.1496 -0.0438
   41POPC   C4B  865   6.432   2.302   7.932  0.2031 -0.1287 -0.1446
   42POPC   NC3  866   9.079   2.757   7.702 -0.1046  0.1606  0.1996
   42POPC   PO4  867   8.910   2.363   7.591 -0.2376  0.1180 -0.2586
   42POPC   GL1  868   9.238   2.413   7.379 -0.1110 -0.0501 -0.1255
   42POPC   GL2  869   9.334   2.676   7.320 -0.1413  0.1246 -0.3218
   42POPC   C1A  870   9.234   2.196   6.942 -0.1547 -0.0229 -0.2882
   42POPC   D2A  871   9.620   2.114   6.780 -0.2124  0.1981 -0.1992
   42POPC   C3A  872   9.649   1.892   6.343  0.1851  0.1770 -0.1473
   42POPC   C4A  873   9.440   1.744   6.055  0.2709 -0.2357  0.0841
   42POPC   C1B  874   9.073   2.699   7.088  0.1790  0.1045  0.0585
   42POPC   C2B  875   8.811   2.520   6.901  0.0436  0.0850  0.2243
   42POPC   C3B  876   8.755   2.392   6.524  0.0301 -0.1842 -0.0699
   42POPC   C4B  877   8.801   2.345   6.118 -0.0999 -0.0110  0.2393
   43POPC   NC3  878   1.064   0.390   8.340 -0.3051 -0.0214  0.1293
   43POPC   PO4  879   1.360   0.482   7.978  0.0526 -0.0108  0.0700
   43POPC   GL1  880   1.465   0.579   7.534 -0.1498  0.1504  0.0870
   43POPC   GL2  881   1.244   0.744   7.417  0.1676  0.1358  0.2871
   43POPC   C1A  882   1.484   0.283   7.245 -0.1709 -0.1318  0.1817
   43POPC   D2A  883   1.771   0.032   7.013 -0.0038 -0.2802 -0.2515
   43POPC   C3A  884   2.216   0.077   7.021 -0.1118  0.1739 -0.0795
   43POPC   C4A  885   2.544   0.220   6.809 -0.1551 -0.4362  0.3113
   43POPC   C1B  886   1.017   0.363   7.234  0.1179  0.2091 -0.1341
   43POPC   C2B  887   0.780   0.170   6.870 -0.1676  0.2272 -0.3449
   43POPC   C3B  888   0.551  -0.096   6.617  0.1590 -0.2597 -0.2688
   43POPC   C4B  889   0.244  -0.353   6.349  0.0091  0.1558 -0.0817
   44POPC   NC3  890   7.727   4.935   8.544 -0.0287  0.0885 -0.1081
   44POPC   PO4  891   7.560   5.056   8.173 -0.2295  0.3603  0.1874
   44POPC   GL1  892   7.875   5.022   7.782 -0.1198 -0.0083 -0.0043
   44POPC   GL2  893   8.138   5.203   7.800  0.1609 -0.2707 -0.0994
   44POPC   C1A  894   7.806   4.987   7.361 -0.1838 -0.3414  0.0330
   44POPC   D2A  895   7.836   4.975   6.941 -0.2280  0.2933 -0.3666
   44POPC   C3A  896   7.521   4.624   6.820  0.2615 -0.3422  0.3321
   44POPC   C4A  897   7.325   4.179   6.828 -0.1655 -0.1205 -0.1903
   44POPC   C1B  898   8.204   5.331   7.428 -0.2502 -0.0110 -0.1042
   44POPC   C2B  899   8.229   5.764   7.217  0.1006 -0.0443 -0.0782
   44POPC   C3B  900   8.082   6.074   6.833  0.1550  0.1696 -0.3131
   44POPC   C4B  901   8.142   6.379   6.492  0.0511  0.0874 -0.3817
   45POPC   NC3  902   5.081   8.347   8.195 -0.1331  0.1011  0.0594
   45POPC   PO4  903   5.293   8.718   8.294 -0.1155 -0.0680 -0.1207
   45POPC   GL1  904   5.219   9.003   7.974 -0.1521 -0.1583  0.1532
   45POPC   GL2  905   4.920   9.070   7.761  0.0254  0.1527 -0.0046
   45POPC   C1A  906   5.584   8.958   7.691  0.0206 -0.0023 -0.0801
   45POPC   D2A  907   5.524   9.166   7.292 -0.1625 -0.1309  0.4739
   45POPC   C3A  908   5.531   8.984   6.874  0.0190 -0.1738 -0.3527
   45POPC   C4A  909   5.501   8.831   6.546 -0.0179  0.1382 -0.0650
   45POPC   C1B  910   5.046   9.215   7.371  0.1539  0.0743  0.1066
   45POPC   C2B  911   5.175   9.341   7.008 -0.0930 -0.0535  0.0053
   45POPC   C3B  912   5.348   9.431   6.590 -0.1321 -0.3636  0.3487
   45POPC   C4B  913   5.187   9.853   6.408  0.0991 -0.5855 -0.0050
   46POPC   NC3  914   4.738   4.501   8.079  0.0809  0.0760  0.3409
   46POPC   PO4  915   4.472   4.194   8.152  0.0408 -0.0956 -0.3421
   46POPC   GL1  916   4.517   4.220   7.727 -0.1915  0.0899 -0.0049
   46POPC   GL2  917   4.365   4.020   7.591 -0.2710 -0.0704 -0.0135
   46POPC   C1A  918   4.826   4.275   7.435 -0.3345  0.0100  0.3250
   46POPC   D2A  919   4.779   4.403   6.933 -0.0352  0.1299  0.0206
   46POPC   C3A  920   4.682   3.981   6.775 -0.1673 -0.1538  0.1646
   46POPC   C4A  921   4.900   3.711   6.543 -0.1815 -0.0450 -0.0684
   46POPC   C1B  922   4.439   3.970   7.204  0.1076  0.0497  0.2883
   46POPC   C2B  923   4.279   4.293   6.909  0.2470  0.1374 -0.1338
   46POPC   C3B  924   4.528   4.385   6.477 -0.0545 -0.0747 -0.4341
   46POPC   C4B  925   4.919   4.178   6.398 -0.0774 -0.1179 -0.3384
   47POPC   NC3  926   7.925   3.411   8.814 -0.0778  0.3296  0.1956
   47POPC   PO4  927   7.874   3.171   8.499 -0.1966  0.0781 -0.5823
   47POPC   GL1  928   7.570   2.950   8.198 -0.0968 -0.0028  0.3021
   47POPC   GL2  929   7.336   2.778   8.304 -0.0924  0.0189 -0.0764
   47POPC   C1A  930   7.373   3.066   7.771  0.0530  0.3545 -0.1195
   47POPC   D2A  931   7.631   3.184   7.360 -0.1476 -0.2360  0.1459
   47POPC   C3A  932   7.539   3.153   7.008 -0.3386 -0.1870  0.0285
   47POPC   C4A  933   7.723   3.013   6.586  0.0779 -0.1507 -0.1120
   47POPC   C1B  934   7.406   2.396   8.018 -0.1979  0.0265  0.0851
   47POPC   C2B  935   7.458   2.100   7.678 -0.4262 -0.0804  0.0704
   47POPC   C3B  936   7.543   1.656   7.666 -0.1832  0.2169 -0.4146
   47POPC   C4B  937   7.291   1.379   7.366  0.2228  0.2645 -0.0693
   48POPC   NC3  938   1.758   6.427   8.598 -0.0269  0.1606  0.1746
   48POPC   PO4  939   1.795   6.051   8.392  0.0979  0.1024  0.0700
   48POPC   GL1  940   1.838   5.950   7.940 -0.1162 -0.1406 -0.2091
   48POPC   GL2  941   1.980   5.601   7.811 -0.1188  0.1398  0.0501
   48POPC   C1A  942   1.711   6.197   7.613 -0.0820  0.0782 -0.0493
   48POPC   D2A  943   1.390   6.396   7.346 -0.1514  0.2546 -0.0315
   48POPC   C3A  944   1.517   6.171   7.091 -0.1323  0.1202  0.1283
   48POPC   C4A  945   1.592   5.749   6.949  0.0238  0.0644 -0.1638
   48POPC   C1B  946   2.100   5.442   7.410 -0.1519  0.3138  0.0087
   48POPC   C2B  947   2.092   5.556   6.939 -0.1776  0.2286  0.0101
   48POPC   C3B  948   1.922   5.766   6.592  0.1557  0.1470  0.0870
   48POPC   C4B  949   1.511   5.703   6.389  0.0212 -0.0331  0.0203
   49POPC   NC3  950   3.624   6.662   7.789 -0.0471  0.1761 -0.3001
   49POPC   PO4  951   3.967   6.435   8.055 -0.2159 -0.2565 -0.2493
   49POPC   GL1  952   4.123   6.608   7.772  0.4421 -0.2923  0.2017
   49POPC   GL2  953   4.189   6.923   7.803  0.1436 -0.0623  0.3560
   49POPC   C1A  954   4.091   6.765   7.300 -0.4308  0.4345 -0.1863
   49POPC   D2A  955   3.741   6.766   7.094 -0.0563 -0.0628  0.1808
   49POPC   C3A  956   3.709   6.896   6.654  0.0936  0.2826  0.0841
   49POPC   C4A  957   3.675   7.141   6.260  0.0987 -0.0285  0.3504
   49POPC   C1B  958   4.372   7.115   7.447 -0.0773 -0.0239 -0.1775
   49POPC   C2B  959   4.541   7.417   7.158 -0.2214 -0.3710 -0.0382
   49POPC   C3B  960   4.733   7.685   6.753  0.1888 -0.2135  0.0024
   49POPC   C4B  961   4.722   8.021   6.562  0.0032  0.1653 -0.0194
   50POPC   NC3  962   8.654   2.775   8.455  0.0748 -0.3242  0.1088
   50POPC   PO4  963   8.259   2.705   8.410  0.1270  0.0183  0.0425
   50POPC   GL1  964   8.007   2.689   8.105 -0.1311  0.3499 -0.2836
   50POPC   GL2  965   8.096   2.403   7.875 -0.4539  0.0635 -0.0137
   50POPC   C1A  966   7.846   2.792   7.797 -0.0222 -0.1672  0.0272
   50POPC   D2A  967   7.503   2.588   7.536  0.1123  0.3531  0.1976
   50POPC   C3A  968   7.394   2.700   7.092  0.0355  0.2568  0.3049
   50POPC   C4A  969   7.457   2.579   6.679 -0.0150  0.0569  0.3374
   50POPC   C1B  970   7.890   2.255   7.547  0.1827  0.2607  0.2687
   50POPC   C2B  971   7.800   2.238   7.171 -0.0520  0.0887 -0.4239
   50POPC   C3B  972   7.600   2.058   6.666  0.0629 -0.3168  0.1624
   50POPC   C4B  973   7.779   2.116   6.256  0.0686 -0.2140 -0.2910
   51POPC   NC3  974   4.956   4.996   8.013 -0.0069  0.1813  0.1255
   51POPC   PO4  975   5.330   5.328   8.090  0.2603 -0.0484  0.1157
   51POPC   GL1  976   5.511   5.315   7.698 -0.3086  0.0656  0.3181
   51POPC   GL2  977   5.269   5.027   7.563 -0.1528  0.0752 -0.1178
   51POPC   C1A  978   5.538   5.216   7.188  0.1698  0.0412 -0.0371
   51POPC   D2A  979   5.266   5.255   6.827  0.0827 -0.0525  0.4616
   51POPC   C3A  980   5.325   5.276   6.388 -0.3454 -0.1579  0.1489
   51POPC   C4A  981   5.418   5.381   5.997 -0.2797 -0.0737  0.0206
   51POPC   C1B  982   5.068   5.315   7.288 -0.3745 -0.2886  0.0113
   51POPC   C2B  983   4.669   5.307   7.051 -0.0577 -0.0634  0.3260
   51POPC   C3B  984   4.230   5.533   6.724  0.1196  0.1967 -0.3142
   51POPC   C4B  985   4.196   5.655   6.328  0.1906  0.0150 -0.0332
   52POPC   NC3  986   6.534   5.258   7.888  0.0804  0.0844 -0.4608
   52POPC   PO4  987   6.060   5.265   7.769  0.0366 -0.0877  0.0763
   52POPC   GL1  988   5.926   5.094   7.471  0.2187 -0.1145 -0.5672
   52POPC   GL2  989   5.724   4.746   7.531 -0.2518  0.0479  0.0346
   52POPC   C1A  990   6.043   5.003   7.091  0.2865  0.1088  0.0760
   52POPC   D2A  991   5.811   5.049   6.711 -0.2534  0.0535  0.0107
   52POPC   C3A  992   5.913   4.985   6.220 -0.0452  0.0083  0.2406
   52POPC   C4A  993   6.273   4.658   6.112  0.2086 -0.0547 -0.0034
   52POPC   C1B  994   5.458   4.781   6.993  0.0030 -0.0374  0.0128
   52POPC   C2B  995   5.426   4.817   6.500  0.0455  0.3935 -0.2349
   52POPC   C3B  996   5.441   4.842   6.101  0.1283  0.0644  0.1269
   52POPC   C4B  997   5.624   5.016   5.798 -0.2450  0.1607  0.4151
   53POPC   NC3  998   8.611   3.810   8.047 -0.1906  0.1561 -0.1895
   53POPC   PO4  999   8.625   3.458   7.811 -0.0539 -0.0426  0.2170
   53POPC   GL1 1000   8.760   3.728   7.460 -0.0961 -0.1616  0.0665
   53POPC   GL2 1001   8.488   3.511   7.351 -0.0409  0.2709 -0.1770
   53POPC   C1A 1002   8.759   3.656   6.952 -0.1388  0.2141  0.1796
   53POPC   D2A 1003   8.678   3.744   6.517  0.2415 -0.1446 -0.3987
   53POPC   C3A 1004   8.450   3.567   6.200  0.2415  0.1407  0.2117
   53POPC   C4A 1005   8.471   3.535   5.787 -0.1392  0.0183  0.0972
   53POPC   C1B 1006   8.256   3.850   7.081  0.0149  0.0648  0.0960
   53POPC   C2B 1007   8.217   3.924   6.629 -0.1101  0.2725  0.1070
   53POPC   C3B 1008   8.027   3.884   6.243  0.2298 -0.1571  0.1666
   53POPC   C4B 1009   7.981   3.531   5.988 -0.1371  0.0100  0.1631
   54POPC   NC3 1010   2.761   5.984   8.154 -0.0694  0.1324 -0.2475
   54POPC   PO4 1011   3.086   5.946   7.859  0.1098  0.1371  0.2448
   54POPC   GL1 1012   3.134   5.937   7.432 -0.1363  0.0476 -0.0456
   54POPC   GL2 1013   3.291   6.293   7.483 -0.0204  0.1304 -0.1579
   54POPC   C1A 1014   2.952   6.222   7.092 -0.1312 -0.0789 -0.2027
   54POPC   D2A 1015   2.858   6.571   6.785  0.2814 -0.0751  0.0620
   54POPC   C3A 1016   2.493   6.603   6.640 -0.2199  0.0294  0.1331
   54POPC   C4A 1017   2.061   6.623   6.710 -0.0576  0.1649 -0.3411
   54POPC   C1B 1018   3.447   6.297   7.006 -0.1855 -0.0415 -0.0276
   54POPC   C2B 1019   3.727   6.390   6.654  0.0772  0.2385 -0.2481
   54POPC   C3B 1020   3.648   6.366   6.125  0.1262  0.3477  0.1785
   54POPC   C4B 1021   3.721   6.066   5.959  0.2790  0.1202  0.0935
   55POPC   NC3 1022   9.060   0.118   8.176  0.0831  0.1074  0.0346
   55POPC   PO4 1023   9.347   0.483   8.097  0.0466 -0.1748 -0.0647
   55POPC   GL1 1024   9.113   0.341   7.755 -0.0615 -0.0410 -0.1982
   55POPC   GL2 1025   9.078  -0.059   7.588 -0.2025 -0.0181 -0.2111
   55POPC   C1A 1026   8.915   0.474   7.330  0.2347  0.1020  0.1261
   55POPC   D2A 1027   8.981   0.777   6.988 -0.2048 -0.0100  0.1032
   55POPC   C3A 1028   9.134   0.515   6.696 -0.1707 -0.3252  0.0324
   55POPC   C4A 1029   9.139   0.258   6.342 -0.1021 -0.3891  0.1745
   55POPC   C1B 1030   9.097   0.098   7.047  0.2767 -0.0061 -0.1081
   55POPC   C2B 1031   8.798   0.168   6.672 -0.3615  0.0105 -0.0545
   55POPC   C3B 1032   8.588   0.001   6.341 -0.0612  0.2830 -0.0923
   55POPC   C4B 1033   8.225  -0.164   6.443 -0.1162 -0.0393 -0.1175
   56POPC   NC3 1034   1.151   9.030   7.983 -0.0255  0.1878 -0.2571
   56POPC   PO4 1035   0.902   8.705   8.202 -0.0562 -0.1926 -0.1523
   56POPC   GL1 1036   0.955   8.630   7.763 -0.2274 -0.0282  0.0810
   56POPC   GL2 1037   0.534   8.620   7.665 -0.3030 -0.2137  0.1082
   56POPC   C1A 1038   1.226   8.348   7.542  0.1044 -0.2256 -0.0193
   56POPC   D2A 1039   1.313   8.006   7.535 -0.1233 -0.0268  0.0678
   56POPC   C3A 1040   1.387   7.900   7.084 -0.1534  0.0560  0.1834
   56POPC   C4A 1041   1.442   7.952   6.653  0.3051  0.3061 -0.0243
   56POPC   C1B 1042   0.812   8.465   7.268 -0.1100  0.1002 -0.0788
   56POPC   C2B 1043   0.914   8.080   7.155  0.1026  0.2313 -0.0808
   56POPC   C3B 1044   0.932   7.943   6.658  0.3255 -0.3191 -0.1320
   56POPC   C4B 1045   1.040   7.741   6.265  0.1688 -0.2048  0.1456
   57POPC   NC3 1046   7.566   6.696   8.409 -0.1181  0.1096 -0.0636
   57POPC   PO4 1047   7.674   6.314   8.233  0.1554 -0.2140 -0.0753
   57POPC   GL1 1048   7.535   6.507   7.861  0.1346 -0.0020 -0.0352
   57POPC   GL2 1049   7.363   6.694   7.947 -0.2508 -0.2860  0.2100
   57POPC   C1A 1050   7.527   6.281   7.572  0.1629  0.3016 -0.0521
   57POPC   D2A 1051   7.739   6.112   7.330 -0.2997  0.1414 -0.0748
   57POPC   C3A 1052   7.579   5.797   7.117 -0.0728 -0.1201 -0.0064
   57POPC   C4A 1053   7.858   5.493   6.975  0.0893  0.0123 -0.0385
   57POPC   C1B 1054   7.305   6.694   7.430  0.1154 -0.2966 -0.2007
   57POPC   C2B 1055   7.076   6.360   7.111 -0.1229  0.2352 -0.0516
   57POPC   C3B 1056   6.875   5.932   7.134  0.2780 -0.2609  0.1972
   57POPC   C4B 1057   6.698   5.590   6.740  0.0611 -0.0926  0.1841
   58POPC   NC3 1058   2.298   1.804   8.774  0.0757 -0.1874 -0.0024
   58POPC   PO4 1059   2.386   2.172   8.405  0.2411  0.0489  0.0511
   58POPC   GL1 1060   2.472   2.011   7.981  0.0451 -0.1508  0.2678
   58POPC   GL2 1061   2.202   1.999   7.716 -0.1702  0.5237  0.0155
   58POPC   C1A 1062   2.494   1.641   7.638  0.0506 -0.1037  0.3621
   58POPC   D2A 1063   2.776   1.531   7.243 -0.0457 -0.2466 -0.1370
   58POPC   C3A 1064   3.003   1.450   6.727 -0.0360 -0.1791 -0.1569
   58POPC   C4A 1065   3.082   1.261   6.272  0.0610  0.1653  0.3023
   58POPC   C1B 1066   2.227   1.920   7.293  0.2301  0.1385  0.3429
   58POPC   C2B 1067   2.004   1.837   6.863  0.0940 -0.2992  0.0596
   58POPC   C3B 1068   2.101   1.633   6.430  0.1171  0.1520 -0.6142
   58POPC   C4B 1069   2.093   1.190   6.210  0.0852  0.0818 -0.1451
   59POPC   NC3 1070   7.989   0.806   8.031 -0.0787  0.3042  0.0237
   59POPC   PO4 1071   8.277   0.607   8.159 -0.0002 -0.1584  0.1990
   59POPC   GL1 1072   8.381   0.759   7.719 -0.1942  0.0694 -0.3043
   59POPC   GL2 1073   8.186   0.895   7.568  0.1394 -0.0508 -0.2875
   59POPC   C1A 1074   8.603   0.930   7.343  0.1109 -0.2735 -0.0041
   59POPC   D2A 1075   8.557   1.045   6.964 -0.0253 -0.1904 -0.1080
   59POPC   C3A 1076   8.729   0.954   6.577  0.5396 -0.3142  0.1416
   59POPC   C4A 1077   8.564   0.931   6.113  0.1656 -0.2707  0.2286
   59POPC   C1B 1078   8.033   0.844   7.146 -0.2013 -0.1788 -0.1284
   59POPC   C2B 1079   8.017   0.477   6.918  0.2245  0.0124  0.1502
   59POPC   C3B 1080   7.866   0.071   6.675 -0.0384  0.2396 -0.1799
   59POPC   C4B 1081   7.565  -0.229   6.486 -0.2387 -0.0402  0.0961
   60POPC   NC3 1082   3.114   9.271   8.318  0.0223 -0.0145 -0.0049
   60POPC   PO4 1083   2.798   9.605   8.070 -0.1814 -0.2136  0.0723
   60POPC   GL1 1084   2.815   9.608   7.658  0.0167 -0.1726  0.1099
   60POPC   GL2 1085   3.043   9.788   7.581  0.1097 -0.2300  0.0399
   60POPC   C1A 1086   2.712   9.659   7.225  0.3030  0.1237  0.0696
   60POPC   D2A 1087   2.554   9.487   6.837  0.0440 -0.1797  0.0423
   60POPC   C3A 1088   2.461   9.622   6.408  0.1734 -0.0434 -0.0628
   60POPC   C4A 1089   2.412   9.980   6.223 -0.1924  0.0082  0.0235
   60POPC   C1B 1090   3.200   9.787   7.143 -0.2924  0.2024 -0.1533
   60POPC   C2B 1091   3.019   9.766   6.661  0.2619 -0.0340  0.0664
   60POPC   C3B 1092   2.951  10.121   6.356 -0.2337 -0.1061 -0.4009
   60POPC   C4B 1093   2.881  10.534   6.302  0.0824 -0.2527 -0.2747
   61POPC   NC3 1094   4.497   9.237   8.323 -0.2395  0.0974  0.4336
   61POPC   PO4 1095   4.258   8.793   8.421  0.2076 -0.1796 -0.1063
   61POPC   GL1 1096   4.321   8.704   7.973  0.0164 -0.4629 -0.3286
   61POPC   GL2 1097   4.466   8.960   7.813  0.0772 -0.0673 -0.2356
   61POPC   C1A 1098   4.348   8.552   7.585 -0.0042 -0.1112  0.0606
   61POPC   D2A 1099   4.148   8.555   7.214  0.0505 -0.3359 -0.4220
   61POPC   C3A 1100   3.747   8.238   7.150 -0.0135 -0.3716 -0.0314
   61POPC   C4A 1101   3.575   7.763   7.119  0.0994  0.0703  0.1983
   61POPC   C1B 1102   4.523   9.096   7.359 -0.1840 -0.3807 -0.3632
   61POPC   C2B 1103   4.707   9.235   6.946  0.2767  0.1015  0.1011
   61POPC   C3B 1104   4.388   9.281   6.530 -0.2260 -0.0399 -0.0359
   61POPC   C4B 1105   4.171   9.044   6.214  0.3051 -0.1242 -0.1122
   62POPC   NC3 1106   9.318   4.560   7.885 -0.1048  0.2420 -0.2898
   62POPC   PO4 1107   9.347   4.882   8.215 -0.2076  0.1984 -0.1275
   62POPC   GL1 1108   9.279   5.143   7.858 -0.1575  0.0213 -0.3440
   62POPC   GL2 1109   9.604   5.413   7.828 -0.1854 -0.0550 -0.2328
   62POPC   C1A 1110   9.495   5.240   7.395 -0.1275 -0.0932 -0.4317
   62POPC   D2A 1111   9.343   4.962   7.054 -0.0374  0.0429  0.0138
   62POPC   C3A 1112   9.299   4.852   6.553 -0.2176  0.0266 -0.2876
   62POPC   C4A 1113   9.346   4.370   6.445 -0.0923  0.0385 -0.2604
   62POPC   C1B 1114   9.786   5.680   7.448  0.0626  0.1884 -0.1662
   62POPC   C2B 1115   9.959   5.679   7.082 -0.0178  0.0411  0.1888
   62POPC   C3B 1116  10.095   5.955   6.811 -0.0524 -0.0367 -0.1311
   62POPC   C4B 1117  10.206   6.441   6.912 -0.0414  0.0667 -0.2166
   63POPC   NC3 1118   0.406   1.910   7.744 -0.4187 -0.0776  0.0456
   63POPC   PO4 1119   0.039   2.333   7.747 -0.0104  0.2793  0.1582
   63POPC   GL1 1120   0.210   2.250   7.392  0.2463 -0.1043 -0.1202
   63POPC   GL2 1121   0.076   2.468   7.181 -0.0050  0.0390  0.2043
   63POPC   C1A 1122   0.171   1.876   7.122 -0.3313 -0.2611 -0.2754
   63POPC   D2A 1123   0.278   1.780   6.691  0.0847 -0.2204  0.0233
   63POPC   C3A 1124   0.640   1.978   6.497  0.0040 -0.0363  0.0167
   63POPC   C4A 1125   0.852   2.324   6.597  0.3204 -0.2626  0.0303
   63POPC   C1B 1126  -0.166   2.652   6.857  0.0816  0.2474 -0.0651
   63POPC   C2B 1127  -0.545   2.752   6.606 -0.3298  0.2426 -0.0945
   63POPC   C3B 1128  -0.829   2.819   6.262  0.0392 -0.2722 -0.1667
   63POPC   C4B 1129  -1.343   2.657   6.206  0.0884  0.0253 -0.2343
   64POPC   NC3 1130   6.810   8.477   9.003  0.0618 -0.1598 -0.0482
   64POPC   PO4 1131   7.016   8.233   8.698  0.2587 -0.0795 -0.3023
   64POPC   GL1 1132   6.858   8.509   8.324 -0.1013 -0.0374 -0.1627
   64POPC   GL2 1133   6.606   8.330   8.148  0.0902 -0.0624 -0.1142
   64POPC   C1A 1134   6.875   8.692   7.846  0.2079 -0.0006  0.0683
   64POPC   D2A 1135   7.050   8.962   7.536 -0.0460  0.2149 -0.0909
   64POPC   C3A 1136   7.037   8.890   7.088  0.0024  0.2647 -0.1854
   64POPC   C4A 1137   6.953   8.813   6.597 -0.2500 -0.1102 -0.0685
   64POPC   C1B 1138   6.603   8.265   7.716  0.1942 -0.0139 -0.2435
   64POPC   C2B 1139   6.644   8.491   7.326  0.0529  0.1776 -0.2551
   64POPC   C3B 1140   6.639   8.615   6.856 -0.1084  0.0220  0.0241
   64POPC   C4B 1141   6.416   8.742   6.486 -0.1166 -0.0440  0.3468
   65POPC   NC3 1142   9.600   8.015   8.547 -0.0142  0.1042  0.0406
   65POPC   PO4 1143   9.728   7.657   8.293  0.2578 -0.0598 -0.1718
   65POPC   GL1 1144   9.647   7.517   7.898  0.0468 -0.0788  0.0061
   65POPC   GL2 1145   9.382   7.263   7.813 -0.3684  0.0962 -0.1772
   65POPC   C1A 1146   9.246   7.704   7.584 -0.3320 -0.1754  0.1374
   65POPC   D2A 1147   9.083   8.082   7.673  0.0447  0.2199 -0.3964
   65POPC   C3A 1148   9.095   8.300   7.240 -0.0155 -0.0054  0.0076
   65POPC   C4A 1149   9.094   8.559   6.885  0.2962 -0.0876 -0.5350
   65POPC   C1B 1150   9.279   7.051   7.473  0.4455  0.1211 -0.0489
   65POPC   C2B 1151   9.231   6.781   7.028 -0.1585 -0.0102  0.1168
   65POPC   C3B 1152   9.088   6.869   6.689  0.0927 -0.2958 -0.3574
   65POPC   C4B 1153   8.808   7.110   6.496  0.3359  0.2690  0.0997
   66POPC   NC3 1154   3.466   3.307   8.596 -0.0879 -0.1423  0.2372
   66POPC   PO4 1155   3.735   3.065   8.354 -0.3386  0.4449  0.1652
   66POPC   GL1 1156   3.663   2.636   8.197  0.2198 -0.2024 -0.2497
   66POPC   GL2 1157   3.803   2.736   7.939  0.0944 -0.2265 -0.0265
   66POPC   C1A 1158   3.366   2.460   7.893 -0.4224 -0.1154 -0.4903
   66POPC   D2A 1159   3.159   2.335   7.572  0.0833 -0.1575  0.1167
   66POPC   C3A 1160   3.059   1.937   7.649  0.0640  0.0775 -0.1155
   66POPC   C4A 1161   3.101   1.568   7.632 -0.1071  0.1659  0.3806
   66POPC   C1B 1162   3.497   2.931   7.596 -0.1878 -0.0899 -0.3739
   66POPC   C2B 1163   3.411   2.757   7.287  0.2257  0.2815 -0.1323
   66POPC   C3B 1164   3.423   2.400   7.087  0.0042 -0.1547  0.2613
   66POPC   C4B 1165   3.354   2.149   6.725  0.2224  0.0802  0.0281
   67POPC   NC3 1166   3.626   9.612   8.005  0.0790  0.1264 -0.1123
   67POPC   PO4 1167   3.258   9.534   7.906 -0.1414  0.1308  0.0226
   67POPC   GL1 1168   3.441   9.513   7.485  0.0389  0.1126  0.0427
   67POPC   GL2 1169   3.586   9.827   7.516 -0.0076  0.2546  0.2391
   67POPC   C1A 1170   3.507   9.137   7.251  0.1118 -0.0329 -0.2310
   67POPC   D2A 1171   3.434   9.165   6.829  0.3754  0.2005  0.1444
   67POPC   C3A 1172   3.448   9.508   6.688 -0.0354 -0.2710  0.0658
   67POPC   C4A 1173   3.452   9.909   6.418  0.1451  0.0012  0.2614
   67POPC   C1B 1174   3.665   9.921   7.050  0.1877 -0.1099  0.0840
   67POPC   C2B 1175   3.770  10.249   6.647 -0.3602 -0.0626 -0.0058
   67POPC   C3B 1176   3.407  10.423   6.291 -0.1789  0.0693  0.0749
   67POPC   C4B 1177   3.226  10.524   5.864  0.0153 -0.0336 -0.1604
   68POPC   NC3 1178   1.602   2.696   7.839  0.5477 -0.4423  0.3296
   68POPC   PO4 1179   1.961   2.814   7.956  0.1156  0.1596  0.0725
   68POPC   GL1 1180   2.135   2.749   7.622  0.1741 -0.1199  0.1851
   68POPC   GL2 1181   2.069   2.436   7.463 -0.2588 -0.2117 -0.2089
   68POPC   C1A 1182   2.019   2.931   7.199 -0.0954  0.2285  0.1578
   68POPC   D2A 1183   2.098   2.989   6.748 -0.0786 -0.3617 -0.2016
   68POPC   C3A 1184   1.991   3.425   6.606 -0.0070 -0.3248  0.0115
   68POPC   C4A 1185   2.038   3.494   6.154  0.1067 -0.0881  0.0433
   68POPC   C1B 1186   2.394   2.556   7.231  0.1028 -0.1739  0.0045
   68POPC   C2B 1187   2.515   2.825   6.926  0.2293 -0.1569  0.5811
   68POPC   C3B 1188   2.710   2.828   6.481 -0.1183  0.0375 -0.0555
   68POPC   C4B 1189   3.182   2.866   6.383 -0.2482 -0.0865  0.1198
   69POPC   NC3 1190   2.467   0.168   7.906 -0.4728 -0.0443  0.2646
   69POPC   PO4 1191   2.543   0.649   8.019  0.1126 -0.2064  0.0910
   69POPC   GL1 1192   2.251   0.531   7.632 -0.3314 -0.0389 -0.1049
   69POPC   GL2 1193   2.522   0.320   7.443 -0.0345  0.1509  0.2048
   69POPC   C1A 1194   1.927   0.500   7.270  0.0138 -0.2273 -0.3334
   69POPC   D2A 1195   1.721   0.595   6.946  0.0429 -0.0831 -0.0531
   69POPC   C3A 1196   1.893   0.433   6.704 -0.0693 -0.3973 -0.0563
   69POPC   C4A 1197   1.954   0.281   6.402  0.0013  0.0542  0.1429
   69POPC   C1B 1198   2.394   0.606   7.114  0.1603 -0.0211 -0.0467
   69POPC   C2B 1199   2.058   0.964   7.005 -0.2019  0.1480 -0.0116
   69POPC   C3B 1200   1.917   1.324   6.823  0.0928 -0.1127  0.0830
   69POPC   C4B 1201   1.601   1.569   6.580 -0.2116 -0.1439  0.2538
   70POPC   NC3 1202   9.212   7.141   8.289 -0.0263 -0.0333 -0.0725
   70POPC   PO4 1203   8.937   6.852   8.405  0.3583  0.1350 -0.1198
   70POPC   GL1 1204   8.814   6.579   8.034  0.0526  0.0314  0.0065
   70POPC   GL2 1205   8.530   6.395   7.862  0.0450  0.4234 -0.0345
   70POPC   C1A 1206   8.880   6.603   7.616  0.0764 -0.3313 -0.0406
   70POPC   D2A 1207   8.783   6.608   7.229  0.0990  0.0496  0.2589
   70POPC   C3A 1208   8.678   6.934   6.978  0.1086  0.1023 -0.1158
   70POPC   C4A 1209   8.455   7.271   6.789 -0.2330 -0.1440  0.0845
   70POPC   C1B 1210   8.408   6.230   7.408  0.1483  0.0805  0.0628
   70POPC   C2B 1211   8.348   6.428   7.024  0.2329  0.0373  0.1761
   70POPC   C3B 1212   8.752   6.452   6.777 -0.0282  0.1961  0.1577
   70POPC   C4B 1213   8.866   6.370   6.369  0.0028 -0.0310 -0.1697
   71POPC   NC3 1214   9.379   9.035   8.147 -0.0823 -0.0205 -0.0455
   71POPC   PO4 1215   9.774   9.258   7.980  0.0864  0.0850 -0.2641
   71POPC   GL1 1216   9.934   9.080   7.676 -0.1444 -0.1166  0.0520
   71POPC   GL2 1217  10.214   9.138   7.503  0.3437 -0.0200 -0.0925
   71POPC   C1A 1218   9.731   8.712   7.445  0.2394  0.3262 -0.0816
   71POPC   D2A 1219   9.659   8.650   6.950  0.0038  0.1816 -0.1271
   71POPC   C3A 1220   9.509   8.231   6.873 -0.0304 -0.1862  0.0260
   71POPC   C4A 1221   9.197   7.905   6.658  0.0245  0.0145  0.0235
   71POPC   C1B 1222  10.177   8.746   7.228  0.3337 -0.2129 -0.1346
   71POPC   C2B 1223  10.280   8.559   6.862 -0.1135  0.2233 -0.0262
   71POPC   C3B 1224  10.661   8.461   6.831  0.0682 -0.1018  0.0009
   71POPC   C4B 1225  11.057   8.461   7.064  0.1595  0.2734 -0.0055
   72POPC   NC3 1226   1.534   3.989   8.222  0.1354 -0.3040  0.0692
   72POPC   PO4 1227   1.729   3.503   8.271 -0.0887  0.0650 -0.1879
   72POPC   GL1 1228   1.648   3.246   7.787 -0.1180  0.0113 -0.0782
   72POPC   GL2 1229   2.018   3.222   7.602  0.0602  0.1912 -0.1552
   72POPC   C1A 1230   1.626   3.323   7.267  0.1939 -0.3741 -0.0253
   72POPC   D2A 1231   1.570   3.412   6.893  0.1180 -0.1604  0.1168
   72POPC   C3A 1232   1.349   3.486   6.543  0.0453 -0.1037 -0.2243
   72POPC   C4A 1233   1.203   3.782   6.419  0.2038 -0.2594  0.1651
   72POPC   C1B 1234   2.190   3.403   7.174  0.3345  0.0714  0.2213
   72POPC   C2B 1235   2.471   3.513   6.858  0.3847 -0.1978  0.0492
   72POPC   C3B 1236   2.426   3.334   6.435  0.0251 -0.0498 -0.0541
   72POPC   C4B 1237   2.324   2.966   6.225  0.2783 -0.1982 -0.2884
   73POPC   NC3 1238   4.022   1.880   9.138 -0.1052 -0.0633  0.0575
   73POPC   PO4 1239   3.669   1.650   9.046 -0.1967 -0.2088  0.1763
   73POPC   GL1 1240   3.704   1.377   8.769  0.2792  0.5230 -0.0711
   73POPC   GL2 1241   3.556   1.362   8.495  0.0020  0.0601 -0.3345
   73POPC   C1A 1242   4.046   1.238   8.567 -0.2298 -0.1285  0.3503
   73POPC   D2A 1243   4.396   1.490   8.366 -0.1530 -0.0634  0.4040
   73POPC   C3A 1244   4.328   1.875   8.100  0.0177 -0.0896 -0.0670
   73POPC   C4A 1245   4.182   1.833   7.709 -0.0854 -0.0964  0.0360
   73POPC   C1B 1246   3.450   1.270   7.923  0.0114  0.3980 -0.1439
   73POPC   C2B 1247   3.547   1.455   7.541  0.0311 -0.2385  0.0080
   73POPC   C3B 1248   3.941   1.478   7.304  0.1676  0.0431 -0.1017
   73POPC   C4B 1249   4.440   1.541   7.331 -0.1389  0.0738 -0.0237
   74POPC   NC3 1250   7.356   7.487   8.436  0.0359  0.3486 -0.2099
   74POPC   PO4 1251   6.907   7.364   8.161  0.0584 -0.1211  0.3329
   74POPC   GL1 1252   7.259   7.335   7.881 -0.0594 -0.0822 -0.1247
   74POPC   GL2 1253   7.157   7.562   7.604  0.2415 -0.0289  0.2427
   74POPC   C1A 1254   7.537   7.198   7.573  0.0225 -0.1419  0.2647
   74POPC   D2A 1255   7.741   7.039   7.262 -0.3108  0.5382  0.0425
   74POPC   C3A 1256   7.776   6.939   6.877 -0.0461 -0.1779 -0.0213
   74POPC   C4A 1257   7.795   6.843   6.485  0.1343  0.0137 -0.2106
   74POPC   C1B 1258   7.229   7.359   7.248  0.0498 -0.0974  0.3303
   74POPC   C2B 1259   7.393   7.277   6.856 -0.1970  0.1083  0.2589
   74POPC   C3B 1260   7.067   7.352   6.509  0.3158  0.2283  0.1312
   74POPC   C4B 1261   7.095   7.148   6.106  0.1177 -0.0311  0.0534
   75POPC   NC3 1262   8.619   0.427   8.995  0.3672 -0.0657  0.1887
   75POPC   PO4 1263   8.520   0.299   8.578 -0.2090 -0.0488 -0.1646
   75POPC   GL1 1264   8.394   0.109   7.981 -0.1092 -0.0151 -0.4791
   75POPC   GL2 1265   8.154   0.306   7.737 -0.0338 -0.2258 -0.3437
   75POPC   C1A 1266   8.627   0.125   7.639  0.0081  0.1439  0.3746
   75POPC   D2A 1267   8.602  -0.073   7.261 -0.4840  0.0639  0.3040
   75POPC   C3A 1268   8.315   0.114   6.852 -0.1451  0.3677  0.0083
   75POPC   C4A 1269   8.249   0.320   6.462  0.1421  0.2775 -0.0723
   75POPC   C1B 1270   8.376   0.462   7.328  0.1357 -0.0222 -0.0312
   75POPC   C2B 1271   8.535   0.565   6.897 -0.2772 -0.1940 -0.2992
   75POPC   C3B 1272   8.241   0.805   6.628  0.1746 -0.0953 -0.0757
   75POPC   C4B 1273   7.959   1.110   6.737  0.0311  0.2617 -0.0685
   76POPC   NC3 1274   3.773   4.206   8.484  0.2987 -0.1662 -0.0644
   76POPC   PO4 1275   3.359   4.422   8.297  0.0041 -0.1678 -0.2614
   76POPC   GL1 1276   3.424   4.559   7.916  0.1807  0.3218  0.0226
   76POPC   GL2 1277   3.272   4.344   7.622 -0.1929 -0.2309  0.0554
   76POPC   C1A 1278   3.654   4.666   7.581 -0.3785 -0.0210  0.0207
   76POPC   D2A 1279   3.723   4.630   7.135  0.3076 -0.2758  0.4550
   76POPC   C3A 1280   3.453   4.998   6.936  0.1532  0.0403  0.4902
   76POPC   C4A 1281   3.206   5.200   6.769 -0.0942  0.2026  0.1162
   76POPC   C1B 1282   3.342   4.163   7.212 -0.2773 -0.0832  0.1149
   76POPC   C2B 1283   3.242   4.137   6.850  0.2366  0.1897 -0.1785
   76POPC   C3B 1284   3.249   4.130   6.320  0.0935  0.0824 -0.0193
   76POPC   C4B 1285   2.945   4.055   5.967 -0.2605  0.1576 -0.0813
   77POPC   NC3 1286   7.630   1.046   8.409  0.5482  0.3538  0.0031
   77POPC   PO4 1287   7.668   0.590   8.326  0.1877  0.0809 -0.0571
   77POPC   GL1 1288   7.652   0.308   8.041 -0.1116 -0.0563 -0.0502
   77POPC   GL2 1289   7.667   0.499   7.781 -0.0359 -0.1071 -0.4105
   77POPC   C1A 1290   7.364   0.178   7.747  0.5865  0.0704  0.1981
   77POPC   D2A 1291   7.171   0.147   7.357  0.2831  0.0541  0.0421
   77POPC   C3A 1292   7.275   0.302   7.034 -0.0440 -0.0233 -0.1107
   77POPC   C4A 1293   7.411   0.281   6.549  0.1059  0.1411 -0.4011
   77POPC   C1B 1294   7.685   0.397   7.392 -0.0139 -0.2228 -0.0559
   77POPC   C2B 1295   7.535   0.694   6.935 -0.2013 -0.0068  0.2444
   77POPC   C3B 1296   7.095   0.611   6.744  0.0424 -0.0109  0.0799
   77POPC   C4B 1297   6.777   0.478   7.013  0.1740 -0.0239  0.2574
   78POPC   NC3 1298   8.636   4.325   8.208 -0.1650  0.0903 -0.1718
   78POPC   PO4 1299   8.980   4.208   7.928  0.1103  0.0548  0.3187
   78POPC   GL1 1300   9.169   4.066   7.529  0.1001 -0.1833  0.0612
   78POPC   GL2 1301   9.206   4.406   7.471 -0.0983  0.1204 -0.0941
   78POPC   C1A 1302   9.026   4.037   7.116  0.0285 -0.0783 -0.0634
   78POPC   D2A 1303   9.080   4.033   6.681  0.1179  0.1111 -0.0984
   78POPC   C3A 1304   9.133   3.810   6.284  0.0413  0.0695  0.0234
   78POPC   C4A 1305   9.145   3.660   5.747 -0.0164 -0.0609  0.2925
   78POPC   C1B 1306   9.506   4.509   7.287 -0.1538 -0.2557 -0.0982
   78POPC   C2B 1307   9.617   4.548   6.900 -0.0264  0.1715  0.0561
   78POPC   C3B 1308   9.781   4.626   6.513 -0.1688 -0.1523 -0.0725
   78POPC   C4B 1309  10.156   4.713   6.224  0.0283  0.3229 -0.2073
   79POPC   NC3 1310   7.456   4.646   7.781  0.0588  0.1852  0.1373
   79POPC   PO4 1311   7.196   4.219   7.873 -0.0772  0.0139 -0.0406
   79POPC   GL1 1312   7.031   4.203   7.537 -0.1145 -0.0340 -0.0963
   79POPC   GL2 1313   7.133   4.366   7.258 -0.2067 -0.0036 -0.1953
   79POPC   C1A 1314   6.966   3.965   7.082  0.0829  0.1092 -0.3080
   79POPC   D2A 1315   6.885   4.029   6.602 -0.4069 -0.0288 -0.4188
   79POPC   C3A 1316   6.530   4.242   6.425 -0.4774  0.2720  0.0931
   79POPC   C4A 1317   6.206   4.169   6.074  0.0192 -0.0175  0.2808
   79POPC   C1B 1318   6.929   4.589   6.809 -0.1518  0.4077 -0.0625
   79POPC   C2B 1319   6.783   4.762   6.413 -0.0385 -0.0478  0.1308
   79POPC   C3B 1320   6.706   4.939   5.990 -0.0075  0.3024 -0.0219
   79POPC   C4B 1321   6.870   4.903   5.625  0.0811 -0.3799 -0.1849
   80POPC   NC3 1322   2.116   8.259   8.203 -0.3381 -0.0637  0.0250
   80POPC   PO4 1323   2.519   8.405   8.326 -0.2055  0.1658 -0.1975
   80POPC   GL1 1324   2.536   8.484   8.020 -0.1570  0.1156 -0.0698
   80POPC   GL2 1325   2.349   8.425   7.732  0.1977 -0.1294  0.3767
   80POPC   C1A 1326   2.745   8.255   7.579  0.3172 -0.0435 -0.1262
   80POPC   D2A 1327   3.048   7.981   7.286  0.0605 -0.0785 -0.0251
   80POPC   C3A 1328   3.299   8.189   6.952 -0.3605 -0.1740  0.1326
   80POPC   C4A 1329   3.572   7.978   6.649  0.1930 -0.0728  0.1332
   80POPC   C1B 1330   2.186   8.538   7.300  0.2942 -0.0003 -0.2205
   80POPC   C2B 1331   2.283   8.616   6.850  0.3303  0.1002 -0.0058
   80POPC   C3B 1332   2.516   8.462   6.468 -0.1454  0.0572  0.0575
   80POPC   C4B 1333   2.799   8.235   6.249 -0.0181 -0.1653 -0.2810
   81POPC   NC3 1334   4.165   3.851   8.388 -0.2657  0.0248 -0.2882
   81POPC   PO4 1335   3.763   3.744   8.270 -0.2458 -0.1182 -0.0489
   81POPC   GL1 1336   3.877   3.616   7.910  0.2086 -0.1858 -0.0835
   81POPC   GL2 1337   3.732   3.331   7.861 -0.3229  0.3932 -0.0274
   81POPC   C1A 1338   4.001   3.714   7.518 -0.0613  0.2792  0.0370
   81POPC   D2A 1339   4.062   3.604   7.184 -0.4474  0.1230  0.0993
   81POPC   C3A 1340   4.168   3.733   6.775 -0.1109 -0.2628 -0.1712
   81POPC   C4A 1341   4.359   3.846   6.408  0.1264  0.0373 -0.1661
   81POPC   C1B 1342   3.561   3.480   7.538  0.1805  0.1903  0.0236
   81POPC   C2B 1343   3.547   3.654   7.174 -0.1304  0.2476 -0.0118
   81POPC   C3B 1344   3.622   3.665   6.816 -0.1015  0.3429 -0.0763
   81POPC   C4B 1345   3.380   3.672   6.518 -0.2600 -0.1088  0.0945
   82POPC   NC3 1346   8.383   3.050   8.084 -0.0481 -0.0901 -0.2573
   82POPC   PO4 1347   8.229   3.450   8.147  0.0522  0.0517  0.0367
   82POPC   GL1 1348   8.126   3.303   7.714  0.1678  0.2254  0.1479
   82POPC   GL2 1349   8.011   3.585   7.488  0.0707 -0.3262 -0.4786
   82POPC   C1A 1350   8.129   3.077   7.426  0.5327 -0.0099  0.0044
   82POPC   D2A 1351   8.114   3.244   7.034  0.0196 -0.1985 -0.2210
   82POPC   C3A 1352   8.265   3.433   6.771  0.0262  0.2666 -0.1420
   82POPC   C4A 1353   7.868   3.532   6.593  0.0554 -0.2307 -0.2575
   82POPC   C1B 1354   7.685   3.647   7.139  0.0278 -0.0826  0.1832
   82POPC   C2B 1355   7.477   3.709   6.750  0.1313  0.3086  0.0256
   82POPC   C3B 1356   7.361   3.938   6.415 -0.1628  0.0193  0.1546
   82POPC   C4B 1357   7.670   4.208   6.110  0.1567  0.3281 -0.0106
   83POPC   NC3 1358   4.244   6.605   8.456 -0.0229 -0.4114  0.1328
   83POPC   PO4 1359   4.412   7.046   8.283  0.2058  0.2677 -0.0536
   83POPC   GL1 1360   4.564   7.227   7.906 -0.1071 -0.0987 -0.5154
   83POPC   GL2 1361   4.757   7.425   7.896  0.0772  0.1847 -0.1151
   83POPC   C1A 1362   4.896   7.124   7.565 -0.1167 -0.0502 -0.0803
   83POPC   D2A 1363   5.128   7.311   7.203  0.3756 -0.0241 -0.1242
   83POPC   C3A 1364   5.043   7.119   6.805  0.0428  0.2006  0.0619
   83POPC   C4A 1365   5.033   6.981   6.351 -0.1027  0.1714 -0.0912
   83POPC   C1B 1366   4.889   7.653   7.464  0.0270  0.1372 -0.3027
   83POPC   C2B 1367   5.126   7.814   7.096 -0.0105  0.0864 -0.0884
   83POPC   C3B 1368   5.204   7.644   6.704  0.0662  0.1387 -0.0802
   83POPC   C4B 1369   5.510   7.747   6.341 -0.3157 -0.0719  0.0597
   84POPC   NC3 1370   4.703   2.275   9.261  0.0288 -0.1812 -0.1455
   84POPC   PO4 1371   4.467   2.091   8.998  0.0101 -0.1809 -0.0276
   84POPC   GL1 1372   4.344   2.067   8.554 -0.1870 -0.0069 -0.3888
   84POPC   GL2 1373   4.149   2.365   8.391 -0.2656 -0.1363 -0.1933
   84POPC   C1A 1374   3.949   1.758   8.465 -0.2795 -0.0123  0.0198
   84POPC   D2A 1375   3.901   1.420   8.111 -0.0091 -0.4472  0.1759
   84POPC   C3A 1376   4.282   1.325   7.891  0.0525 -0.1313 -0.1587
   84POPC   C4A 1377   4.719   1.395   7.880  0.0897  0.0130  0.0700
   84POPC   C1B 1378   3.779   2.198   8.001 -0.3386 -0.2484 -0.2153
   84POPC   C2B 1379   3.610   1.982   7.694 -0.3051  0.1318  0.3146
   84POPC   C3B 1380   3.561   1.883   7.302  0.0545  0.0304  0.1244
   84POPC   C4B 1381   3.138   1.854   7.128  0.0189  0.0822  0.0809
   85POPC   NC3 1382   2.177   6.544   8.447  0.1199 -0.2663 -0.0277
   85POPC   PO4 1383   1.856   6.859   8.360  0.5289 -0.0937 -0.1026
   85POPC   GL1 1384   2.084   6.871   7.963  0.0489 -0.1353 -0.0635
   85POPC   GL2 1385   2.288   6.658   7.956  0.0509 -0.0091 -0.1429
   85POPC   C1A 1386   2.334   7.078   7.594 -0.2066 -0.1067  0.1628
   85POPC   D2A 1387   2.632   7.225   7.286 -0.1350  0.2935  0.1538
   85POPC   C3A 1388   2.879   7.085   6.958  0.1257  0.1207  0.1521
   85POPC   C4A 1389   3.292   7.188   6.622 -0.3040 -0.0019 -0.1260
   85POPC   C1B 1390   2.152   6.375   7.639 -0.0061  0.2571  0.2009
   85POPC   C2B 1391   1.964   6.465   7.299 -0.0401 -0.0364  0.1300
   85POPC   C3B 1392   1.664   6.633   6.961 -0.1202  0.1622  0.0990
   85POPC   C4B 1393   1.701   6.888   6.547 -0.0158  0.0860  0.1922
   86POPC   NC3 1394   3.014   6.315   8.508 -0.2744  0.0698 -0.1904
   86POPC   PO4 1395   2.649   6.433   8.266 -0.0346  0.1433 -0.0058
   86POPC   GL1 1396   2.694   6.407   7.825 -0.0660 -0.3363 -0.0292
   86POPC   GL2 1397   2.674   6.119   7.658  0.0995  0.0723 -0.0267
   86POPC   C1A 1398   2.628   6.597   7.401  0.2275  0.1370 -0.3418
   86POPC   D2A 1399   2.284   6.818   7.118 -0.2884  0.1200  0.0985
   86POPC   C3A 1400   2.424   7.130   6.783  0.2135  0.2149 -0.1353
   86POPC   C4A 1401   2.327   7.514   6.670 -0.1133 -0.2136  0.0899
   86POPC   C1B 1402   2.270   5.898   7.638 -0.1147 -0.0514  0.0778
   86POPC   C2B 1403   1.981   5.954   7.276 -0.1651  0.2362 -0.3077
   86POPC   C3B 1404   2.186   6.248   6.934  0.2686 -0.0130  0.1709
   86POPC   C4B 1405   2.167   6.220   6.437 -0.2963 -0.1125  0.0730
   87POPC   NC3 1406   6.435   9.680   9.330 -0.3494  0.1928  0.0219
   87POPC   PO4 1407   6.592   9.947   8.954  0.2084  0.0070  0.1319
   87POPC   GL1 1408   6.659  10.113   8.547  0.2599  0.1161  0.0600
   87POPC   GL2 1409   6.696   9.773   8.466 -0.3204  0.2360  0.1742
   87POPC   C1A 1410   6.784  10.244   8.096  0.0798 -0.0350 -0.1169
   87POPC   D2A 1411   7.193  10.360   7.859  0.1089  0.1098 -0.3134
   87POPC   C3A 1412   7.204  10.402   7.431 -0.2997  0.0554 -0.2733
   87POPC   C4A 1413   7.130  10.715   7.161 -0.0986  0.0929  0.1625
   87POPC   C1B 1414   6.261   9.859   8.255 -0.0703  0.2146 -0.3221
   87POPC   C2B 1415   6.220  10.022   7.839 -0.0380  0.0556 -0.1044
   87POPC   C3B 1416   6.059  10.348   7.533  0.1357  0.1167 -0.0169
   87POPC   C4B 1417   5.803  10.732   7.209 -0.2856 -0.4820  0.1020
   88POPC   NC3 1418   4.857   8.640   8.532 -0.0003  0.1441  0.0375
   88POPC   PO4 1419   4.843   8.797   8.163  0.0305  0.0174 -0.0954
   88POPC   GL1 1420   4.857   8.585   7.758  0.3995 -0.1849  0.2009
   88POPC   GL2 1421   5.179   8.565   7.678  0.0593 -0.2826 -0.1017
   88POPC   C1A 1422   4.737   8.547   7.250  0.0909  0.0022  0.1413
   88POPC   D2A 1423   4.561   8.812   6.933  0.1151 -0.1203  0.0618
   88POPC   C3A 1424   4.621   8.743   6.513 -0.1732  0.1546 -0.1266
   88POPC   C4A 1425   4.685   8.429   6.106  0.1679 -0.0040  0.2023
   88POPC   C1B 1426   5.238   8.785   7.333 -0.2575  0.3123 -0.2031
   88POPC   C2B 1427   5.050   8.895   6.879 -0.2691  0.1401  0.1373
   88POPC   C3B 1428   5.007   9.082   6.500  0.4016 -0.2393  0.0131
   88POPC   C4B 1429   5.099   9.300   6.172 -0.1694 -0.1498 -0.1786
   89POPC   NC3 1430   5.396   3.599   8.907  0.0074  0.2642  0.1088
   89POPC   PO4 1431   4.969   3.659   8.820  0.0926  0.0171  0.2553
   89POPC   GL1 1432   5.026   3.368   8.497  0.0403 -0.0635 -0.1380
   89POPC   GL2 1433   4.804   3.417   8.304 -0.0269 -0.0752  0.1719
   89POPC   C1A 1434   5.281   3.168   8.299  0.2765  0.0743 -0.1337
   89POPC   D2A 1435   5.605   3.195   8.040 -0.2675 -0.1776 -0.0940
   89POPC   C3A 1436   5.740   2.962   7.709 -0.0466  0.1322  0.1020
   89POPC   C4A 1437   5.907   2.746   7.400 -0.0047  0.0744  0.1261
   89POPC   C1B 1438   4.686   3.294   7.864  0.2920 -0.1349  0.2324
   89POPC   C2B 1439   4.573   2.953   7.584  0.1673  0.1797 -0.1838
   89POPC   C3B 1440   4.463   2.959   7.216  0.0232 -0.0914 -0.2688
   89POPC   C4B 1441   4.231   3.139   6.870  0.1880  0.0330  0.1769
   90POPC   NC3 1442   1.070   2.020   7.526  0.0593 -0.2940  0.2693
   90POPC   PO4 1443   1.115   2.449   7.632 -0.0020  0.0929  0.1503
   90POPC   GL1 1444   1.569   2.468   7.385 -0.0098 -0.3232 -0.1480
   90POPC   GL2 1445   1.561   2.733   7.316  0.2963  0.2366  0.3223
   90POPC   C1A 1446   1.932   2.446   7.007  0.2991  0.0672  0.1391
   90POPC   D2A 1447   2.281   2.287   6.866 -0.1164 -0.0021  0.2767
   90POPC   C3A 1448   2.412   2.346   6.413 -0.1455  0.2394  0.0353
   90POPC   C4A 1449   2.258   2.119   6.019 -0.1457  0.1420 -0.1882
   90POPC   C1B 1450   1.604   2.754   6.808  0.2712  0.1442  0.1773
   90POPC   C2B 1451   1.659   3.038   6.556 -0.0096 -0.1884  0.1588
   90POPC   C3B 1452   1.616   3.110   6.099  0.3855  0.0836  0.1954
   90POPC   C4B 1453   1.843   2.935   5.680 -0.0485  0.2299  0.0721
   91POPC   NC3 1454   8.045   3.877   8.000  0.3000 -0.5150  0.2067
   91POPC   PO4 1455   8.109   4.205   8.250 -0.3794  0.0198 -0.0287
   91POPC   GL1 1456   8.298   4.446   7.857  0.0464  0.0878  0.2885
   91POPC   GL2 1457   8.593   4.506   7.722 -0.0047  0.0681  0.0406
   91POPC   C1A 1458   8.352   4.807   7.425 -0.3828  0.0492  0.0392
   91POPC   D2A 1459   8.566   5.080   7.132  0.1833 -0.1392 -0.4792
   91POPC   C3A 1460   8.415   5.256   6.873  0.2399  0.0397  0.4720
   91POPC   C4A 1461   8.331   5.618   6.722  0.0586  0.0724 -0.1314
   91POPC   C1B 1462   8.610   4.249   7.290 -0.2641 -0.0755  0.1849
   91POPC   C2B 1463   8.613   4.184   6.883 -0.1263  0.2664  0.2703
   91POPC   C3B 1464   8.362   4.367   6.439  0.0586 -0.2900 -0.1144
   91POPC   C4B 1465   8.103   4.439   6.153 -0.0770  0.0824 -0.3117
   92POPC   NC3 1466   0.187   6.864   8.633 -0.0955  0.1000 -0.2632
   92POPC   PO4 1467  -0.037   6.443   8.509  0.3220  0.1719 -0.0306
   92POPC   GL1 1468  -0.148   6.234   8.135  0.2627  0.0170 -0.2816
   92POPC   GL2 1469  -0.204   5.954   8.145  0.2177 -0.0709 -0.0180
   92POPC   C1A 1470   0.013   6.280   7.744  0.0184 -0.3772 -0.2288
   92POPC   D2A 1471   0.111   6.159   7.337 -0.1735  0.0997  0.1584
   92POPC   C3A 1472  -0.125   6.013   7.038  0.0491 -0.2553 -0.2917
   92POPC   C4A 1473  -0.206   5.822   6.737 -0.1342  0.1280 -0.2063
   92POPC   C1B 1474  -0.297   5.888   7.732  0.0304 -0.0819 -0.0337
   92POPC   C2B 1475  -0.453   5.758   7.402  0.1454 -0.1874  0.3181
   92POPC   C3B 1476  -0.477   5.528   7.076  0.1051  0.0030 -0.0811
   92POPC   C4B 1477  -0.811   5.140   6.879  0.0562  0.0034 -0.0189
   93POPC   NC3 1478   5.705   0.079   8.882 -0.0039  0.0936 -0.0931
   93POPC   PO4 1479   5.355   0.014   9.237 -0.0942 -0.1240 -0.1611
   93POPC   GL1 1480   5.256   0.261   8.912  0.0565 -0.1906 -0.1716
   93POPC   GL2 1481   5.543   0.535   8.957 -0.1863  0.3261 -0.2053
   93POPC   C1A 1482   4.847   0.478   8.746  0.1131  0.2314  0.0308
   93POPC   D2A 1483   4.783   0.537   8.375  0.1738 -0.0051  0.1636
   93POPC   C3A 1484   5.161   0.563   8.130 -0.0206 -0.0291  0.0708
   93POPC   C4A 1485   5.524   0.648   7.935  0.0544  0.1522  0.1416
   93POPC   C1B 1486   5.341   0.650   8.629  0.1285  0.2645 -0.3097
   93POPC   C2B 1487   5.065   0.969   8.418  0.0843  0.0677  0.2155
   93POPC   C3B 1488   4.848   1.432   8.415  0.2300 -0.0945 -0.1105
   93POPC   C4B 1489   4.824   1.792   8.162 -0.2365 -0.3002 -0.0760
   94POPC   NC3 1490   7.605   1.504   9.200 -0.1780  0.1451 -0.4532
   94POPC   PO4 1491   7.760   1.760   8.888  0.0150 -0.1926 -0.0449
   94POPC   GL1 1492   7.354   1.759   8.607  0.0758 -0.0437  0.0632
   94POPC   GL2 1493   7.401   1.876   8.196 -0.0672  0.3372  0.1515
   94POPC   C1A 1494   6.962   1.806   8.379  0.1743  0.1008  0.0709
   94POPC   D2A 1495   6.931   2.025   8.024 -0.0948  0.3120 -0.0976
   94POPC   C3A 1496   7.048   1.724   7.608 -0.0339 -0.0293  0.1538
   94POPC   C4A 1497   6.966   1.758   7.214 -0.1502  0.1350  0.2904
   94POPC   C1B 1498   7.275   1.432   8.064  0.1681  0.1477 -0.2038
   94POPC   C2B 1499   7.193   1.184   7.778  0.2811  0.3068  0.2039
   94POPC   C3B 1500   6.804   1.292   7.580  0.2105 -0.0122 -0.1120
   94POPC   C4B 1501   6.484   1.569   7.323  0.1105 -0.0889 -0.1646
   95POPC   NC3 1502   7.261   5.615   7.944  0.2483  0.0297 -0.0402
   95POPC   PO4 1503   6.846   5.648   7.873 -0.6499 -0.0090 -0.0024
   95POPC   GL1 1504   6.831   5.520   7.453 -0.1417  0.0926 -0.0831
   95POPC   GL2 1505   7.186   5.501   7.204 -0.0107 -0.0930 -0.2365
   95POPC   C1A 1506   6.453   5.414   7.249  0.2430 -0.1160 -0.0819
   95POPC   D2A 1507   6.199   5.376   6.853 -0.0812  0.2239  0.1107
   95POPC   C3A 1508   6.059   5.792   6.748 -0.2587  0.0521  0.0614
   95POPC   C4A 1509   6.059   6.208   6.729 -0.1278 -0.1512  0.2158
   95POPC   C1B 1510   7.351   5.214   6.965 -0.1620 -0.1995  0.0169
   95POPC   C2B 1511   7.195   4.955   6.626  0.0606  0.2157  0.0371
   95POPC   C3B 1512   7.256   4.877   6.203  0.0283 -0.0174  0.0816
   95POPC   C4B 1513   7.582   4.732   5.887 -0.1796 -0.2604  0.0600
   96POPC   NC3 1514   5.378   5.408   8.612  0.1477 -0.1151  0.1153
   96POPC   PO4 1515   5.220   5.746   8.348  0.0190 -0.1035 -0.0072
   96POPC   GL1 1516   5.178   5.762   7.890  0.0427 -0.3089  0.4182
   96POPC   GL2 1517   4.958   5.637   7.706  0.2925 -0.0338 -0.0892
   96POPC   C1A 1518   5.377   5.768   7.384 -0.0158  0.1790  0.2973
   96POPC   D2A 1519   5.398   5.737   7.016 -0.0723 -0.0077  0.1517
   96POPC   C3A 1520   5.649   5.506   6.717 -0.1490  0.1408  0.1442
   96POPC   C4A 1521   5.948   5.428   6.385 -0.1699 -0.3078 -0.0548
   96POPC   C1B 1522   4.889   5.783   7.345  0.1237  0.0425 -0.2082
   96POPC   C2B 1523   4.863   5.784   6.984  0.1120 -0.2141  0.3877
   96POPC   C3B 1524   5.076   5.718   6.649 -0.1250  0.2848  0.0418
   96POPC   C4B 1525   5.428   5.873   6.290 -0.1879  0.0225 -0.0167
   97POPC   NC3 1526   5.129   4.916   8.453 -0.1572 -0.1943 -0.1017
   97POPC   PO4 1527   5.241   4.430   8.279 -0.0395 -0.1763  0.1090
   97POPC   GL1 1528   5.196   4.112   8.093 -0.0972  0.2657 -0.2402
   97POPC   GL2 1529   4.962   4.034   7.857 -0.1554  0.1575 -0.1422
   97POPC   C1A 1530   5.159   3.614   7.959  0.0897 -0.0707 -0.3114
   97POPC   D2A 1531   5.212   3.252   7.793 -0.1864  0.0274  0.1464
   97POPC   C3A 1532   5.004   3.258   7.337 -0.2559  0.4444  0.1606
   97POPC   C4A 1533   5.120   3.275   6.889 -0.1590 -0.3258  0.0565
   97POPC   C1B 1534   4.793   3.766   7.562  0.0813  0.1370  0.0097
   97POPC   C2B 1535   4.469   3.454   7.425 -0.1978 -0.1068 -0.0012
   97POPC   C3B 1536   4.147   3.261   7.517 -0.1358  0.1848 -0.3347
   97POPC   C4B 1537   4.039   2.864   7.536  0.0830 -0.0130 -0.1045
   98POPC   NC3 1538   1.866   9.212   7.829  0.3064  0.2830  0.1103
   98POPC   PO4 1539   1.568   9.371   7.964  0.3201 -0.0819 -0.2481
   98POPC   GL1 1540   1.424   9.106   7.620 -0.0754 -0.0124  0.1112
   98POPC   GL2 1541   1.215   9.326   7.522  0.0167 -0.1177 -0.0720
   98POPC   C1A 1542   1.264   8.845   7.347  0.2144  0.1070  0.0758
   98POPC   D2A 1543   1.240   8.938   6.894  0.1336 -0.0073 -0.2146
   98POPC   C3A 1544   1.453   8.629   6.606 -0.3398 -0.0934  0.0590
   98POPC   C4A 1545   1.606   8.717   6.150  0.1665 -0.2002 -0.0908
   98POPC   C1B 1546   1.199   9.588   7.238 -0.0109  0.0633 -0.4404
   98POPC   C2B 1547   1.246   9.760   6.902 -0.1703  0.0986 -0.3741
   98POPC   C3B 1548   1.519   9.766   6.571 -0.2669  0.1577  0.0595
   98POPC   C4B 1549   1.431  10.049   6.265 -0.1449 -0.1681  0.4428
   99POPC   NC3 1550   4.109   2.916   8.701 -0.1758  0.0407 -0.0961
   99POPC   PO4 1551   4.395   3.105   8.672  0.0570 -0.0825  0.1478
   99POPC   GL1 1552   4.767   2.963   8.483 -0.0717 -0.1378  0.1158
   99POPC   GL2 1553   4.913   2.613   8.448  0.0410  0.1646  0.0314
   99POPC   C1A 1554   4.868   2.871   8.039 -0.1856 -0.1042  0.0070
   99POPC   D2A 1555   5.083   2.826   7.623  0.1615  0.0364 -0.0874
   99POPC   C3A 1556   4.912   2.510   7.609 -0.0268 -0.1647  0.0023
   99POPC   C4A 1557   4.815   2.177   7.371  0.0347 -0.2714 -0.4149
   99POPC   C1B 1558   4.605   2.452   8.232 -0.1366  0.2220 -0.1802
   99POPC   C2B 1559   4.582   2.144   7.844 -0.2994  0.0364 -0.2029
   99POPC   C3B 1560   4.692   1.846   7.682  0.0034  0.4308 -0.0364
   99POPC   C4B 1561   5.082   1.693   7.732  0.2283  0.3451 -0.0502
  100POPC   NC3 1562   6.501   3.744   8.412  0.2067 -0.0514 -0.1276
  100POPC   PO4 1563   6.404   3.721   8.872  0.0526  0.2981  0.3620
  100POPC   GL1 1564   6.306   3.338   8.630  0.2966 -0.0235  0.2237
  100POPC   GL2 1565   6.521   3.097   8.587 -0.1787 -0.0256  0.0951
  100POPC   C1A 1566   6.044   3.063   8.363 -0.0657 -0.0926 -0.1741
  100POPC   D2A 1567   5.864   2.788   8.230 -0.2957 -0.0799  0.0990
  100POPC   C3A 1568   5.811   2.437   7.866 -0.1284 -0.1240 -0.1166
  100POPC   C4A 1569   5.920   1.974   7.849  0.0668  0.2712 -0.0940
  100POPC   C1B 1570   6.477   2.834   8.105  0.1657  0.1440 -0.0801
  100POPC   C2B 1571   6.178   2.791   7.810  0.0088  0.0612  0.2589
  100POPC   C3B 1572   6.292   3.015   7.525 -0.0585 -0.2057 -0.1314
  100POPC   C4B 1573   6.504   3.331   7.337 -0.0356  0.3040  0.1856
  101POPC   NC3 1574   0.748   3.164   8.145  0.2837 -0.1107 -0.3291
  101POPC   PO4 1575   0.741   2.917   7.769  0.1620  0.0059  0.1305
  101POPC   GL1 1576   0.869   3.278   7.584  0.1931 -0.1944 -0.1699
  101POPC   GL2 1577   0.543   3.295   7.495 -0.1736 -0.0757 -0.1883
  101POPC   C1A 1578   1.144   3.588   7.465 -0.3336 -0.2288 -0.1333
  101POPC   D2A 1579   1.564   3.828   7.294  0.2116 -0.0921 -0.1038
  101POPC   C3A 1580   1.494   3.960   6.900  0.1793  0.0019  0.4195
  101POPC   C4A 1581   1.339   4.222   6.617  0.2935  0.0688  0.2154
  101POPC   C1B 1582   0.699   3.154   7.061 -0.0220  0.0187  0.3307
  101POPC   C2B 1583   0.854   2.876   6.755  0.0583  0.0831 -0.1540
  101POPC   C3B 1584   1.149   2.970   6.462 -0.2684 -0.1201 -0.3140
  101POPC   C4B 1585   1.095   3.342   6.170 -0.1697 -0.1586  0.1684
  102POPC   NC3 1586   5.967   4.843   7.997 -0.0157 -0.0001 -0.1599
  102POPC   PO4 1587   6.508   4.782   8.027 -0.1771 -0.2814  0.0765
  102POPC   GL1 1588   6.355   4.793   7.650 -0.1621  0.1984 -0.1138
  102POPC   GL2 1589   6.201   4.488   7.527  0.2537 -0.2868  0.0985
  102POPC   C1A 1590   6.460   4.861   7.298  0.2343  0.2061 -0.2631
  102POPC   D2A 1591   6.427   4.663   6.941  0.0017 -0.3372  0.1608
  102POPC   C3A 1592   6.266   4.874   6.589  0.3268 -0.2363  0.3101
  102POPC   C4A 1593   6.364   5.180   6.302  0.0149  0.0320 -0.1012
  102POPC   C1B 1594   6.031   4.481   7.110 -0.1006  0.0325 -0.0210
  102POPC   C2B 1595   5.983   4.446   6.657 -0.1342 -0.0287  0.1146
  102POPC   C3B 1596   5.710   4.333   6.341  0.0470  0.0590  0.0776
  102POPC   C4B 1597   5.355   4.344   6.140  0.3839 -0.0371 -0.0989
  103POPC   NC3 1598   2.449   3.400   8.404 -0.0457  0.0893 -0.0724
  103POPC   PO4 1599   2.702   3.835   8.414  0.0391 -0.1378 -0.2055
  103POPC   GL1 1600   2.653   3.591   7.997  0.0884 -0.1310 -0.1232
  103POPC   GL2 1601   2.812   3.768   7.796  0.0287 -0.1862  0.0806
  103POPC   C1A 1602   2.557   3.500   7.469  0.2904  0.2778 -0.1558
  103POPC   D2A 1603   2.550   3.812   7.231 -0.0679 -0.0594 -0.0149
  103POPC   C3A 1604   2.147   4.001   7.216 -0.0559 -0.0403 -0.0832
  103POPC   C4A 1605   2.015   3.802   6.922  0.1785  0.0878  0.2314
  103POPC   C1B 1606   3.074   3.773   7.425  0.0562  0.1244  0.1835
  103POPC   C2B 1607   3.072   3.677   7.108  0.1278  0.1260 -0.0088
  103POPC   C3B 1608   2.835   3.794   6.790 -0.1546  0.0730  0.2417
  103POPC   C4B 1609   2.779   3.678   6.310 -0.0834  0.1497  0.0911
  104POPC   NC3 1610   3.883   5.919   8.270  0.1912  0.0083  0.1225
  104POPC   PO4 1611   3.878   5.462   8.319 -0.1370 -0.1665 -0.2957
  104POPC   GL1 1612   3.870   5.538   7.930  0.0060  0.3380 -0.0064
  104POPC   GL2 1613   3.517   5.599   7.818 -0.3807 -0.0393 -0.0552
  104POPC   C1A 1614   3.988   5.416   7.543 -0.1567  0.3880  0.0221
  104POPC   D2A 1615   4.289   5.589   7.229  0.1457  0.1157  0.0999
  104POPC   C3A 1616   4.360   6.007   7.358  0.1248 -0.2458  0.3446
  104POPC   C4A 1617   4.317   6.336   7.144  0.0598  0.0671  0.0420
  104POPC   C1B 1618   3.650   5.776   7.480  0.0665  0.0117  0.0258
  104POPC   C2B 1619   3.860   5.962   7.031 -0.1925 -0.0002 -0.4467
  104POPC   C3B 1620   4.153   6.119   6.696 -0.1748  0.0098 -0.1148
  104POPC   C4B 1621   4.083   6.367   6.290 -0.0057 -0.0596 -0.0948
  105POPC   NC3 1622   7.492   9.179   8.417 -0.0304 -0.1708  0.0041
  105POPC   PO4 1623   7.601   8.791   8.527  0.0125  0.1888  0.0730
  105POPC   GL1 1624   7.663   8.746   8.061  0.4528 -0.2641 -0.1607
  105POPC   GL2 1625   7.362   8.533   7.866 -0.0630  0.0279 -0.1753
  105POPC   C1A 1626   7.564   9.055   7.667 -0.1074 -0.1022  0.1377
  105POPC   D2A 1627   7.442   9.091   7.246  0.1040  0.0427 -0.1201
  105POPC   C3A 1628   7.666   9.148   6.818 -0.1566 -0.0163 -0.3982
  105POPC   C4A 1629   7.971   9.387   6.923  0.0813 -0.1493 -0.1552
  105POPC   C1B 1630   7.725   8.481   7.548  0.1738  0.1107 -0.0189
  105POPC   C2B 1631   7.906   8.291   7.216  0.1096 -0.0788 -0.1232
  105POPC   C3B 1632   8.137   8.049   6.973  0.1013 -0.0623 -0.0684
  105POPC   C4B 1633   8.484   7.744   6.962  0.0713 -0.2964 -0.1868
  106POPC   NC3 1634   3.078   4.075   8.049 -0.3189 -0.0470  0.2062
  106POPC   PO4 1635   3.493   4.045   7.970  0.0516 -0.2457  0.1947
  106POPC   GL1 1636   3.730   4.092   7.470  0.2661  0.2994  0.0975
  106POPC   GL2 1637   3.981   4.278   7.482  0.2598 -0.0010  0.0235
  106POPC   C1A 1638   3.851   4.090   7.005  0.1104 -0.1938 -0.1545
  106POPC   D2A 1639   3.744   4.145   6.609 -0.2959 -0.3521  0.0875
  106POPC   C3A 1640   4.043   4.208   6.401  0.1618 -0.2827  0.1850
  106POPC   C4A 1641   4.281   4.626   6.170  0.0260 -0.1037 -0.0112
  106POPC   C1B 1642   4.371   4.494   7.343  0.1234  0.1425 -0.0972
  106POPC   C2B 1643   4.452   4.766   6.890  0.1340 -0.2316 -0.0157
  106POPC   C3B 1644   4.488   4.998   6.677 -0.1680  0.1933 -0.0765
  106POPC   C4B 1645   4.819   5.306   6.619 -0.2141  0.2496  0.1712
  107POPC   NC3 1646   5.648   4.140   8.523  0.0770  0.0555  0.3636
  107POPC   PO4 1647   5.741   4.524   8.326 -0.3304 -0.1164  0.2563
  107POPC   GL1 1648   5.591   4.347   7.907  0.3908 -0.1506 -0.5305
  107POPC   GL2 1649   5.197   4.457   7.770  0.0416  0.0913  0.1110
  107POPC   C1A 1650   5.699   4.228   7.517  0.1396 -0.3291 -0.2344
  107POPC   D2A 1651   5.602   4.101   7.002  0.2027 -0.0714  0.1976
  107POPC   C3A 1652   5.467   3.783   6.976  0.0678  0.1029 -0.2735
  107POPC   C4A 1653   5.433   3.507   6.615 -0.3364  0.1131 -0.1239
  107POPC   C1B 1654   5.276   4.609   7.376  0.0561  0.4199  0.1479
  107POPC   C2B 1655   5.222   4.378   7.121 -0.1760 -0.1219  0.2107
  107POPC   C3B 1656   5.253   4.395   6.681 -0.0641  0.1508  0.2075
  107POPC   C4B 1657   5.363   3.952   6.495 -0.0837  0.0556  0.3022
  108POPC   NC3 1658   1.595   4.498   8.073 -0.0217 -0.0545  0.4142
  108POPC   PO4 1659   1.180   4.381   8.119 -0.2565  0.0425 -0.4541
  108POPC   GL1 1660   0.960   4.285   7.709 -0.2301  0.2705 -0.2745
  108POPC   GL2 1661   0.742   4.513   7.572 -0.1091 -0.0258  0.0597
  108POPC   C1A 1662   1.025   4.086   7.304  0.1234 -0.0819 -0.2439
  108POPC   D2A 1663   0.990   3.915   6.933  0.0619 -0.1001  0.0708
  108POPC   C3A 1664   0.844   4.179   6.532  0.0410  0.2739  0.1731
  108POPC   C4A 1665   0.471   4.133   6.260 -0.0660  0.3645 -0.1894
  108POPC   C1B 1666   0.720   4.753   7.263  0.3576 -0.0307 -0.2458
  108POPC   C2B 1667   0.932   5.143   7.026  0.3065  0.1845 -0.0201
  108POPC   C3B 1668   1.300   5.316   6.866  0.0378 -0.0103 -0.1213
  108POPC   C4B 1669   1.721   5.254   6.706 -0.0458  0.0757  0.2753
  109POPC   NC3 1670   8.439   6.872   8.094 -0.1671  0.0582 -0.2290
  109POPC   PO4 1671   7.906   6.788   7.991 -0.1893  0.1475 -0.2333
  109POPC   GL1 1672   8.130   6.924   7.642 -0.1699  0.0821  0.0144
  109POPC   GL2 1673   8.308   6.730   7.546  0.1202 -0.1162  0.1181
  109POPC   C1A 1674   8.234   6.890   7.110  0.0234 -0.3641  0.2860
  109POPC   D2A 1675   8.238   6.863   6.603 -0.0681  0.0632  0.0456
  109POPC   C3A 1676   8.519   6.725   6.251 -0.0557 -0.0478 -0.2120
  109POPC   C4A 1677   8.402   6.497   5.876  0.2941  0.1069 -0.2452
  109POPC   C1B 1678   7.896   6.546   7.242  0.1312 -0.0951 -0.2108
  109POPC   C2B 1679   7.544   6.517   6.996  0.1078 -0.0877 -0.1791
  109POPC   C3B 1680   7.523   6.188   6.851  0.3263  0.1587  0.0482
  109POPC   C4B 1681   7.238   5.795   6.765 -0.1912 -0.2141  0.0565
  110POPC   NC3 1682   5.982   9.000   8.508  0.3421 -0.1149  0.1799
  110POPC   PO4 1683   5.756   9.365   8.764 -0.0558  0.3137 -0.1473
  110POPC   GL1 1684   5.787   9.729   8.426 -0.2357 -0.0204  0.2756
  110POPC   GL2 1685   5.526  10.025   8.422 -0.2474  0.0801 -0.2633
  110POPC   C1A 1686   5.746   9.887   7.980  0.1470 -0.1750  0.0309
  110POPC   D2A 1687   5.739   9.481   7.833  0.0937  0.2250 -0.0177
  110POPC   C3A 1688   5.992   9.237   7.472  0.3642  0.1670 -0.1166
  110POPC   C4A 1689   5.960   8.971   7.173 -0.1131  0.1276  0.3354
  110POPC   C1B 1690   5.741  10.343   8.388  0.0739 -0.2133 -0.0507
  110POPC   C2B 1691   6.197  10.337   8.223  0.1702  0.2528 -0.3409
  110POPC   C3B 1692   6.413  10.479   7.830 -0.2482  0.2683  0.0252
  110POPC   C4B 1693   6.787  10.713   7.964 -0.0284  0.1019 -0.1514
  111POPC   NC3 1694   6.186   8.671   8.746  0.0833 -0.2811  0.1333
  111POPC   PO4 1695   6.182   8.484   8.291 -0.1747  0.2165  0.1296
  111POPC   GL1 1696   6.071   8.382   7.860 -0.0829  0.2151 -0.2025
  111POPC   GL2 1697   5.966   8.143   7.653 -0.0201 -0.0284  0.1566
  111POPC   C1A 1698   6.170   8.502   7.433 -0.0433 -0.3259 -0.0113
  111POPC   D2A 1699   6.213   8.521   6.991  0.3042 -0.2095 -0.0409
  111POPC   C3A 1700   6.006   8.949   6.663 -0.0719 -0.1419  0.1097
  111POPC   C4A 1701   5.943   9.201   6.338  0.0841  0.3031 -0.1348
  111POPC   C1B 1702   5.892   8.132   7.186  0.1171  0.3191  0.0904
  111POPC   C2B 1703   5.543   8.061   6.931 -0.1465  0.1915  0.0293
  111POPC   C3B 1704   5.434   8.198   6.563  0.1440 -0.0303 -0.0431
  111POPC   C4B 1705   5.459   8.437   6.209 -0.3146  0.1078 -0.1519
  112POPC   NC3 1706   6.830   7.873   8.382 -0.0211  0.3517 -0.0291
  112POPC   PO4 1707   6.386   7.770   8.290  0.3130 -0.0326  0.0420
  112POPC   GL1 1708   6.595   7.732   7.968 -0.0737 -0.2019 -0.2330
  112POPC   GL2 1709   6.341   7.870   7.778 -0.0547  0.1380  0.0729
  112POPC   C1A 1710   6.691   7.738   7.537  0.2199  0.0079  0.1347
  112POPC   D2A 1711   6.862   8.011   7.282  0.0815  0.1583 -0.2467
  112POPC   C3A 1712   7.384   8.036   7.181 -0.1996  0.1102 -0.1974
  112POPC   C4A 1713   7.623   8.153   6.885 -0.1968  0.0639 -0.1347
  112POPC   C1B 1714   6.349   7.989   7.313  0.2270 -0.2184 -0.0704
  112POPC   C2B 1715   6.536   8.118   6.830 -0.2505 -0.4253  0.0026
  112POPC   C3B 1716   6.311   8.242   6.485  0.3350 -0.1423 -0.0879
  112POPC   C4B 1717   5.948   8.213   6.205 -0.0913 -0.4134 -0.0799
  113POPC   NC3 1718   8.196   9.551   8.477 -0.0753 -0.1152 -0.0775
  113POPC   PO4 1719   7.976   9.136   8.581  0.0509 -0.4090  0.2966
  113POPC   GL1 1720   7.962   9.213   8.105  0.2921 -0.3997  0.3585
  113POPC   GL2 1721   8.086   9.480   7.931 -0.2370  0.3066 -0.3580
  113POPC   C1A 1722   7.975   8.904   7.728 -0.0235  0.1055  0.0074
  113POPC   D2A 1723   7.895   8.827   7.203  0.2978  0.1231 -0.0206
  113POPC   C3A 1724   8.201   8.901   6.897 -0.1404  0.6152 -0.0615
  113POPC   C4A 1725   8.562   9.162   6.521  0.1105  0.3733 -0.1469
  113POPC   C1B 1726   7.819   9.685   7.682 -0.4546  0.6230  0.0609
  113POPC   C2B 1727   7.644   9.667   7.226 -0.0765  0.0795  0.0322
  113POPC   C3B 1728   7.445   9.585   6.933 -0.2957  0.0888 -0.2403
  113POPC   C4B 1729   7.166   9.321   6.793 -0.2586  0.1308  0.0070
  114POPC   NC3 1730   7.999   5.953   8.185  0.0626  0.1703 -0.4552
  114POPC   PO4 1731   8.266   5.591   8.374  0.1450  0.2093 -0.0847
  114POPC   GL1 1732   8.428   5.440   8.112  0.0182  0.2997 -0.1310
  114POPC   GL2 1733   8.656   5.544   7.975 -0.1055 -0.0895 -0.1012
  114POPC   C1A 1734   8.595   5.139   7.768  0.1242  0.0967 -0.1365
  114POPC   D2A 1735   8.980   5.151   7.467  0.0739  0.1525 -0.2495
  114POPC   C3A 1736   8.895   4.697   7.184 -0.1019 -0.3723 -0.0099
  114POPC   C4A 1737   9.165   4.487   6.921  0.3068 -0.2243 -0.0156
  114POPC   C1B 1738   8.658   5.621   7.607 -0.0110  0.3585 -0.0368
  114POPC   C2B 1739   8.726   5.540   7.244  0.0789 -0.0709  0.1306
  114POPC   C3B 1740   8.890   5.627   6.808  0.1486 -0.0571 -0.0944
  114POPC   C4B 1741   9.126   5.998   6.804 -0.3168 -0.1062 -0.0087
  115POPC   NC3 1742   6.800   0.651   9.023  0.2122 -0.2144  0.1091
  115POPC   PO4 1743   6.907   1.038   9.163  0.4674 -0.1407 -0.2038
  115POPC   GL1 1744   6.785   1.220   8.841 -0.0845 -0.2898 -0.0779
  115POPC   GL2 1745   6.878   1.039   8.561  0.1383  0.0373  0.1634
  115POPC   C1A 1746   6.613   1.431   8.453  0.0046  0.3783 -0.2294
  115POPC   D2A 1747   6.761   1.509   8.073  0.1279  0.2238 -0.1158
  115POPC   C3A 1748   6.410   1.736   7.807 -0.3816  0.0006  0.0758
  115POPC   C4A 1749   6.652   2.016   7.561  0.2155 -0.0303 -0.1822
  115POPC   C1B 1750   6.399   1.016   8.409 -0.1565 -0.3714  0.0078
  115POPC   C2B 1751   5.986   1.076   8.296 -0.2063  0.0377  0.3671
  115POPC   C3B 1752   5.626   1.073   8.320 -0.1458  0.0532 -0.3603
  115POPC   C4B 1753   5.272   1.393   8.087  0.3036  0.1775  0.0076
  116POPC   NC3 1754   5.607   7.784   8.516 -0.2127 -0.3079  0.0589
  116POPC   PO4 1755   5.414   8.078   8.444 -0.0457  0.0546 -0.3089
  116POPC   GL1 1756   5.529   8.128   8.016  0.1346 -0.2761  0.1568
  116POPC   GL2 1757   5.588   8.442   7.951 -0.0697 -0.2450 -0.0350
  116POPC   C1A 1758   5.524   7.917   7.514 -0.1748 -0.4413  0.1371
  116POPC   D2A 1759   5.587   7.526   7.246  0.1948 -0.0683 -0.1354
  116POPC   C3A 1760   5.722   7.615   6.777  0.2027 -0.1421 -0.0771
  116POPC   C4A 1761   5.932   7.998   6.688 -0.2563  0.2343  0.0319
  116POPC   C1B 1762   5.637   8.440   7.488  0.2065 -0.2554  0.0280
  116POPC   C2B 1763   5.551   8.514   7.044 -0.1767  0.1647  0.2211
  116POPC   C3B 1764   5.812   8.478   6.669  0.0701 -0.1580  0.0655
  116POPC   C4B 1765   5.970   8.702   6.257 -0.3184  0.3457  0.2373
  117POPC   NC3 1766   2.298   8.811   8.450  0.3791 -0.1254  0.0569
  117POPC   PO4 1767   1.974   8.729   8.047 -0.1788  0.0757 -0.0399
  117POPC   GL1 1768   1.914   8.754   7.614 -0.1111 -0.0663 -0.1547
  117POPC   GL2 1769   2.046   8.984   7.395 -0.3904  0.1362  0.0640
  117POPC   C1A 1770   1.726   8.573   7.303 -0.0310 -0.2378  0.0684
  117POPC   D2A 1771   1.786   8.778   6.926  0.1628  0.3354  0.0181
  117POPC   C3A 1772   1.954   8.927   6.583  0.2021 -0.2235 -0.0266
  117POPC   C4A 1773   2.083   8.995   6.130 -0.0691  0.1693 -0.2757
  117POPC   C1B 1774   2.136   9.193   7.029  0.0086 -0.0670  0.1129
  117POPC   C2B 1775   2.096   9.403   6.708  0.1413 -0.0004  0.2588
  117POPC   C3B 1776   2.001   9.476   6.216 -0.1586  0.1198  0.3815
  117POPC   C4B 1777   2.304   9.542   5.901 -0.0600  0.1739  0.2175
  118POPC   NC3 1778   9.746   5.157   8.239 -0.0471 -0.3590 -0.0267
  118POPC   PO4 1779  10.059   4.825   8.079 -0.1407  0.0269  0.3205
  118POPC   GL1 1780  10.094   5.167   7.758 -0.0045  0.1904 -0.1689
  118POPC   GL2 1781  10.075   5.533   7.855 -0.1114  0.1888 -0.0133
  118POPC   C1A 1782  10.020   5.237   7.313  0.1660  0.0159 -0.0011
  118POPC   D2A 1783   9.695   5.273   6.908 -0.3125  0.2074  0.0508
  118POPC   C3A 1784   9.866   5.119   6.465  0.2058  0.0337  0.0804
  118POPC   C4A 1785   9.730   4.992   6.125  0.2235 -0.1116  0.0247
  118POPC   C1B 1786  10.277   5.680   7.452  0.1450 -0.1343  0.1933
  118POPC   C2B 1787  10.430   5.576   7.058 -0.0037  0.0523  0.1184
  118POPC   C3B 1788  10.194   5.540   6.580  0.0140 -0.1380  0.2422
  118POPC   C4B 1789   9.752   5.567   6.381  0.3604  0.0619  0.0545
  119POPC   NC3 1790   0.566   8.372   8.174  0.1533 -0.1942 -0.3295
  119POPC   PO4 1791   0.117   8.214   8.150  0.1600  0.1509 -0.0666
  119POPC   GL1 1792   0.447   8.099   7.766  0.0380  0.1698  0.1834
  119POPC   GL2 1793   0.775   8.072   7.728 -0.3760 -0.1312 -0.0314
  119POPC   C1A 1794   0.431   8.191   7.285  0.3015  0.0836  0.1066
  119POPC   D2A 1795   0.274   8.100   6.924 -0.0882  0.3792  0.0325
  119POPC   C3A 1796   0.510   7.784   6.685  0.3123  0.0232  0.2714
  119POPC   C4A 1797   0.514   7.639   6.365  0.0836 -0.1108  0.3721
  119POPC   C1B 1798   0.745   7.743   7.468  0.1721  0.1768 -0.1224
  119POPC   C2B 1799   0.457   7.653   7.150 -0.0382  0.1724 -0.0942
  119POPC   C3B 1800   0.068   7.479   6.957 -0.0019 -0.3632 -0.5037
  119POPC   C4B 1801  -0.256   7.201   6.954  0.1381 -0.0373 -0.0278
  120POPC   NC3 1802   9.391   0.926   7.826  0.1813 -0.2571  0.2205
  120POPC   PO4 1803   9.807   0.921   7.555 -0.2185 -0.0681  0.4407
  120POPC   GL1 1804   9.741   1.135   7.135  0.0548  0.1899 -0.1067
  120POPC   GL2 1805  10.068   1.332   7.155 -0.1412 -0.1336 -0.3397
  120POPC   C1A 1806   9.601   0.891   6.797 -0.1026 -0.1102  0.2825
  120POPC   D2A 1807   9.591   0.821   6.311  0.1613  0.3929 -0.0699
  120POPC   C3A 1808   9.690   0.541   5.897  0.0043  0.1378  0.1920
  120POPC   C4A 1809   9.939   0.240   5.674 -0.0180 -0.1158  0.1903
  120POPC   C1B 1810  10.204   1.078   6.887  0.1304 -0.0587  0.0065
  120POPC   C2B 1811  10.549   0.967   6.540  0.0497  0.2783 -0.1823
  120POPC   C3B 1812  10.593   1.084   6.118  0.2438 -0.4490  0.0778
  120POPC   C4B 1813  10.778   1.381   5.778 -0.1202 -0.1260  0.1039
  121POPC   NC3 1814   2.258   0.881   8.377  0.1232  0.0650  0.0171
  121POPC   PO4 1815   2.080   1.153   8.261 -0.1389 -0.0082  0.2869
  121POPC   GL1 1816   2.204   1.028   7.891  0.0591  0.1091  0.0211
  121POPC   GL2 1817   2.502   1.183   7.743  0.3387  0.3630 -0.1457
  121POPC   C1A 1818   1.993   0.945   7.554 -0.2565  0.1656  0.1988
  121POPC   D2A 1819   1.617   1.000   7.289  0.0998  0.0212 -0.0603
  121POPC   C3A 1820   1.279   0.803   6.966  0.3147  0.2391 -0.0299
  121POPC   C4A 1821   1.174   0.464   6.757  0.0840 -0.1887 -0.1511
  121POPC   C1B 1822   2.454   1.023   7.401 -0.2349 -0.1121  0.4116
  121POPC   C2B 1823   2.738   1.058   7.030  0.0114 -0.2054 -0.0736
  121POPC   C3B 1824   2.646   1.152   6.552 -0.2778  0.1453 -0.0863
  121POPC   C4B 1825   2.578   1.570   6.244  0.1370  0.2509 -0.2671
  122POPC   NC3 1826   8.341   1.487   8.232 -0.0888  0.3397  0.0220
  122POPC   PO4 1827   7.922   1.306   8.031 -0.0546 -0.1194  0.0358
  122POPC   GL1 1828   7.836   1.259   7.654  0.1055 -0.1256  0.0831
  122POPC   GL2 1829   7.637   1.046   7.711  0.0097  0.0075  0.2177
  122POPC   C1A 1830   8.033   1.315   7.290 -0.0416  0.2874  0.0250
  122POPC   D2A 1831   8.362   1.573   6.886 -0.3851  0.0247 -0.1065
  122POPC   C3A 1832   8.365   1.287   6.496 -0.1448  0.1675  0.1868
  122POPC   C4A 1833   8.380   1.431   6.077 -0.5083  0.1811 -0.1338
  122POPC   C1B 1834   7.570   0.993   7.294 -0.0121 -0.1333 -0.1365
  122POPC   C2B 1835   7.563   1.221   6.978  0.1004 -0.0840  0.0988
  122POPC   C3B 1836   7.604   1.405   6.526  0.1423 -0.0952 -0.0087
  122POPC   C4B 1837   7.732   1.625   6.175  0.4644  0.4670 -0.0258
  123POPC   NC3 1838   3.244   8.666   8.272  0.0499  0.0348 -0.1947
  123POPC   PO4 1839   2.869   8.752   8.297  0.0711 -0.0822  0.0987
  123POPC   GL1 1840   2.923   8.872   7.903  0.0580  0.1984 -0.3220
  123POPC   GL2 1841   2.937   9.154   7.803 -0.1777  0.0419 -0.0638
  123POPC   C1A 1842   2.795   8.722   7.574 -0.0237 -0.0701  0.2588
  123POPC   D2A 1843   2.686   8.589   7.195  0.2650  0.1134  0.2133
  123POPC   C3A 1844   2.650   8.243   6.965 -0.3362 -0.5314 -0.0236
  123POPC   C4A 1845   2.764   7.841   6.940  0.1153  0.2089  0.0765
  123POPC   C1B 1846   3.071   9.235   7.370 -0.0107  0.0303  0.2474
  123POPC   C2B 1847   3.031   9.383   6.938  0.1961 -0.2700 -0.1123
  123POPC   C3B 1848   2.957   9.286   6.455 -0.1541 -0.1450 -0.0210
  123POPC   C4B 1849   2.803   9.258   6.078  0.1917  0.3180  0.0242
  124POPC   NC3 1850   5.063   6.588   8.191  0.0233  0.4990 -0.1386
  124POPC   PO4 1851   4.871   6.247   8.179 -0.2377  0.0756 -0.1476
  124POPC   GL1 1852   4.720   6.143   7.758  0.0355  0.2543 -0.1205
  124POPC   GL2 1853   4.513   6.295   7.728  0.2167  0.3572 -0.1319
  124POPC   C1A 1854   4.783   6.315   7.303  0.1260  0.1039  0.0444
  124POPC   D2A 1855   4.761   6.239   6.861  0.1502  0.1180  0.0771
  124POPC   C3A 1856   4.501   6.460   6.632  0.1208  0.1417 -0.0355
  124POPC   C4A 1857   4.583   6.726   6.255 -0.1290  0.0375 -0.2808
  124POPC   C1B 1858   4.600   6.673   7.562  0.1530 -0.0739 -0.1840
  124POPC   C2B 1859   4.670   6.840   7.120 -0.3039  0.3088 -0.0397
  124POPC   C3B 1860   4.549   7.016   6.766  0.0691  0.1556  0.0606
  124POPC   C4B 1861   4.655   7.308   6.400  0.0654 -0.1071 -0.3680
  125POPC   NC3 1862   1.170   5.382   8.142  0.0420  0.0396 -0.1143
  125POPC   PO4 1863   1.550   5.555   8.091 -0.1199 -0.0642  0.0336
  125POPC   GL1 1864   1.387   5.737   7.756 -0.1086  0.4248  0.2270
  125POPC   GL2 1865   1.556   5.783   7.482 -0.0285  0.0964 -0.2301
  125POPC   C1A 1866   1.113   6.079   7.611  0.0349  0.0473  0.1043
  125POPC   D2A 1867   0.979   6.568   7.558  0.1210 -0.1592  0.0570
  125POPC   C3A 1868   0.796   6.820   7.298 -0.0436 -0.4494 -0.0746
  125POPC   C4A 1869   0.641   7.108   6.929 -0.2246 -0.0826  0.0821
  125POPC   C1B 1870   1.545   5.304   7.279 -0.0832  0.0050  0.0445
  125POPC   C2B 1871   1.835   5.042   7.164 -0.0167  0.0195  0.2559
  125POPC   C3B 1872   2.192   5.020   6.846  0.0585 -0.0158  0.0350
  125POPC   C4B 1873   2.473   5.334   6.624 -0.3006 -0.0031  0.0022
  126POPC   NC3 1874   6.926   3.640   9.133 -0.3266 -0.2984 -0.1017
  126POPC   PO4 1875   6.992   3.659   8.596  0.0258  0.1894  0.2514
  126POPC   GL1 1876   6.854   3.386   8.318  0.2411  0.1260 -0.0733
  126POPC   GL2 1877   6.898   3.055   8.199 -0.2032  0.1054 -0.1545
  126POPC   C1A 1878   6.627   3.300   7.841 -0.2044  0.1058  0.1941
  126POPC   D2A 1879   6.792   3.011   7.663 -0.1812  0.0019 -0.1179
  126POPC   C3A 1880   7.128   3.188   7.300 -0.1289 -0.2356  0.2497
  126POPC   C4A 1881   7.191   3.508   7.076 -0.0721  0.1557 -0.0328
  126POPC   C1B 1882   7.066   3.407   7.727  0.0881  0.0953  0.0161
  126POPC   C2B 1883   6.793   3.709   7.501 -0.1547  0.0875  0.2231
  126POPC   C3B 1884   6.469   3.799   7.298 -0.3175 -0.1700 -0.2208
  126POPC   C4B 1885   6.579   3.630   6.804 -0.1019  0.0503  0.1410
  127POPC   NC3 1886   6.010   7.977   8.118 -0.1767  0.1707 -0.1627
  127POPC   PO4 1887   6.007   7.446   8.229  0.0698  0.2239  0.0794
  127POPC   GL1 1888   6.071   7.437   7.809  0.0680  0.0674 -0.0600
  127POPC   GL2 1889   5.665   7.298   7.724  0.1907  0.1305 -0.2341
  127POPC   C1A 1890   6.036   7.658   7.492  0.0251 -0.4931  0.4783
  127POPC   D2A 1891   6.105   7.587   7.057 -0.0580  0.0304 -0.2026
  127POPC   C3A 1892   6.507   7.571   7.096 -0.2480 -0.0607 -0.2871
  127POPC   C4A 1893   6.928   7.725   6.877 -0.1915  0.3375 -0.0520
  127POPC   C1B 1894   5.872   7.128   7.325  0.0020 -0.1347  0.1314
  127POPC   C2B 1895   5.725   7.086   6.908  0.3547 -0.1733  0.1594
  127POPC   C3B 1896   5.484   7.163   6.477  0.0684  0.3306  0.1392
  127POPC   C4B 1897   5.326   7.363   6.078 -0.2103  0.2542  0.0713
  128POPC   NC3 1898   1.792   3.746   7.883  0.0328 -0.2643 -0.3170
  128POPC   PO4 1899   1.940   4.233   7.903 -0.0018 -0.0295 -0.1133
  128POPC   GL1 1900   1.806   4.292   7.495 -0.1831  0.0063 -0.0988
  128POPC   GL2 1901   1.838   4.590   7.527  0.2595  0.0480 -0.0293
  128POPC   C1A 1902   1.497   4.424   7.150 -0.0769  0.2203 -0.3314
  128POPC   D2A 1903   1.052   4.440   6.999 -0.2959  0.0959 -0.3541
  128POPC   C3A 1904   1.019   4.657   6.650  0.3508  0.2982 -0.0413
  128POPC   C4A 1905   0.876   4.626   6.189  0.2278  0.1683  0.2347
  128POPC   C1B 1906   2.018   4.529   7.127 -0.1996  0.2547  0.2519
  128POPC   C2B 1907   1.901   4.266   6.782 -0.3262  0.0224  0.2078
  128POPC   C3B 1908   2.221   4.309   6.435  0.0363 -0.5668 -0.0191
  128POPC   C4B 1909   2.481   4.216   6.038 -0.0913  0.1272  0.1296
  129POPC   NC3 1910   7.862   2.143   8.456  0.4352  0.0689 -0.1396
  129POPC   PO4 1911   7.954   1.816   8.170 -0.0724  0.0722 -0.1037
  129POPC   GL1 1912   8.104   1.732   7.700 -0.0969  0.0172 -0.1157
  129POPC   GL2 1913   8.368   2.046   7.706 -0.2472  0.2271 -0.1005
  129POPC   C1A 1914   7.883   1.762   7.325  0.0449  0.1219 -0.0712
  129POPC   D2A 1915   7.853   1.670   6.833 -0.1059 -0.1167 -0.0540
  129POPC   C3A 1916   8.133   1.758   6.512 -0.0817 -0.1755 -0.0651
  129POPC   C4A 1917   8.260   2.184   6.261 -0.2408  0.0943 -0.0556
  129POPC   C1B 1918   8.514   1.880   7.383 -0.0114 -0.0725 -0.1288
  129POPC   C2B 1919   8.674   2.034   6.978  0.1755  0.2545  0.1776
  129POPC   C3B 1920   8.604   1.866   6.558 -0.0194 -0.0609 -0.3208
  129POPC   C4B 1921   8.786   1.459   6.379 -0.2819  0.1695 -0.0836
  130POPC   NC3 1922   2.350   5.134   8.565  0.1216  0.0614  0.1651
  130POPC   PO4 1923   2.587   4.845   8.211 -0.1651  0.1229  0.0553
  130POPC   GL1 1924   2.674   4.679   7.779  0.0221 -0.0568 -0.0250
  130POPC   GL2 1925   2.817   4.503   7.904  0.1404 -0.1352  0.1227
  130POPC   C1A 1926   2.846   4.680   7.371  0.0622 -0.2593 -0.2858
  130POPC   D2A 1927   3.154   4.589   7.050  0.0253 -0.4540 -0.1180
  130POPC   C3A 1928   2.984   4.540   6.772  0.1295  0.0405 -0.0291
  130POPC   C4A 1929   2.786   4.300   6.421  0.1381  0.1265  0.2410
  130POPC   C1B 1930   2.785   4.192   7.517  0.3564 -0.0372 -0.0210
  130POPC   C2B 1931   2.775   4.226   7.064  0.2773  0.0161 -0.1892
  130POPC   C3B 1932   2.422   4.099   6.804  0.1379 -0.0713  0.4836
  130POPC   C4B 1933   2.353   3.878   6.531  0.0034  0.2218  0.1020
  131POPC   NC3 1934   7.415   8.373   8.374  0.3155  0.2744  0.3123
  131POPC   PO4 1935   7.415   7.949   8.550  0.0402 -0.0005  0.0159
  131POPC   GL1 1936   7.210   7.815   8.101 -0.1051  0.0046  0.2785
  131POPC   GL2 1937   7.064   8.154   8.015  0.3111  0.0068  0.1770
  131POPC   C1A 1938   7.650   7.640   7.856 -0.1394 -0.0292  0.1561
  131POPC   D2A 1939   7.600   7.651   7.348 -0.2218  0.1662  0.0377
  131POPC   C3A 1940   7.795   7.693   7.026  0.0084 -0.0649  0.0750
  131POPC   C4A 1941   7.860   7.831   6.599 -0.0698 -0.0269 -0.0134
  131POPC   C1B 1942   7.071   8.333   7.583  0.0726 -0.1250 -0.0340
  131POPC   C2B 1943   7.268   8.518   7.357 -0.0402  0.1231  0.1540
  131POPC   C3B 1944   7.456   8.667   6.866 -0.0508 -0.0416  0.2237
  131POPC   C4B 1945   7.835   8.628   6.740  0.6456 -0.4412  0.3008
  132POPC   NC3 1946   9.657   1.401   7.569  0.3170 -0.1050  0.0035
  132POPC   PO4 1947   9.324   1.436   7.812  0.0218  0.3190  0.0776
  132POPC   GL1 1948   9.270   1.180   7.392  0.1646  0.0826 -0.4017
  132POPC   GL2 1949   9.323   0.727   7.374 -0.1165  0.0674  0.0758
  132POPC   C1A 1950   9.249   1.209   7.045 -0.2098  0.1420  0.2005
  132POPC   D2A 1951   9.191   1.154   6.606  0.2547  0.0505 -0.1461
  132POPC   C3A 1952   9.363   1.351   6.312  0.1137  0.2579 -0.5102
  132POPC   C4A 1953   9.378   1.228   5.756 -0.3011 -0.1755 -0.1159
  132POPC   C1B 1954   9.555   0.508   7.089 -0.1716  0.4401  0.1286
  132POPC   C2B 1955   9.680   0.345   6.599  0.2147 -0.0996  0.3551
  132POPC   C3B 1956   9.955   0.269   6.321  0.0932  0.0042  0.0277
  132POPC   C4B 1957  10.218   0.023   6.021  0.0185  0.2109  0.1292
  133POPC   NC3 1958   3.143   0.406   8.694  0.0662  0.0769 -0.0376
  133POPC   PO4 1959   3.529   0.442   8.615  0.1059  0.1087 -0.2460
  133POPC   GL1 1960   3.466   0.464   8.176  0.3954 -0.3165 -0.2186
  133POPC   GL2 1961   3.325   0.293   7.917  0.0263 -0.1423 -0.2363
  133POPC   C1A 1962   3.786   0.423   7.801 -0.6028  0.0134  0.2491
  133POPC   D2A 1963   4.075   0.656   7.722  0.3422  0.1431 -0.3253
  133POPC   C3A 1964   3.896   1.019   7.845  0.1666  0.2172  0.1372
  133POPC   C4A 1965   3.765   0.982   8.249 -0.2615  0.0036 -0.2817
  133POPC   C1B 1966   3.320   0.463   7.419 -0.2111 -0.3398 -0.2944
  133POPC   C2B 1967   2.914   0.471   7.188  0.0416 -0.1332 -0.0602
  133POPC   C3B 1968   2.793   0.639   6.786  0.2860 -0.1607 -0.2571
  133POPC   C4B 1969   2.338   0.671   6.499 -0.2031 -0.0971  0.1924
  134POPC   NC3 1970   7.724   3.877   8.365 -0.0191  0.3249  0.1079
  134POPC   PO4 1971   7.683   4.187   7.983  0.1143 -0.2668  0.1526
  134POPC   GL1 1972   7.734   4.250   7.573  0.1656  0.0736 -0.4454
  134POPC   GL2 1973   7.907   4.533   7.500 -0.0193  0.1648 -0.1497
  134POPC   C1A 1974   7.622   4.216   7.229 -0.0684  0.2271  0.4510
  134POPC   D2A 1975   7.810   4.076   6.913  0.1025 -0.2563  0.1488
  134POPC   C3A 1976   7.868   4.264   6.586 -0.0643 -0.3185  0.0021
  134POPC   C4A 1977   7.729   4.733   6.381  0.1730  0.1373  0.1251
  134POPC   C1B 1978   8.117   4.447   7.139 -0.1761  0.0153  0.2433
  134POPC   C2B 1979   8.289   4.682   6.813  0.0053  0.1013  0.2043
  134POPC   C3B 1980   8.288   4.931   6.538 -0.1509  0.3607  0.2953
  134POPC   C4B 1981   8.046   5.226   6.575 -0.4972 -0.2046 -0.2454
  135POPC   NC3 1982   3.618   8.368   8.609 -0.2972 -0.1397  0.0225
  135POPC   PO4 1983   3.528   8.278   8.142 -0.3807  0.3420  0.0246
  135POPC   GL1 1984   3.417   8.502   7.780  0.2429  0.0149  0.1201
  135POPC   GL2 1985   3.322   8.852   7.666  0.0278 -0.1106 -0.2781
  135POPC   C1A 1986   3.189   8.470   7.392 -0.0904 -0.2896 -0.0637
  135POPC   D2A 1987   3.249   8.682   7.040  0.2116 -0.0020 -0.0050
  135POPC   C3A 1988   2.993   8.552   6.695  0.5661 -0.2581  0.1055
  135POPC   C4A 1989   2.829   8.803   6.297 -0.0177  0.0167 -0.0572
  135POPC   C1B 1990   3.666   8.661   7.376  0.4528 -0.3360 -0.0413
  135POPC   C2B 1991   3.696   8.789   6.985  0.2534  0.0844  0.3246
  135POPC   C3B 1992   3.669   8.695   6.553 -0.2341  0.0196  0.0197
  135POPC   C4B 1993   3.390   8.980   6.322  0.0050 -0.0057 -0.1956
  136POPC   NC3 1994   4.024   8.315   8.301  0.0036  0.0348  0.0459
  136POPC   PO4 1995   3.740   8.705   8.148 -0.2813  0.0059  0.1817
  136POPC   GL1 1996   3.881   8.899   7.769 -0.2697  0.1666  0.0956
  136POPC   GL2 1997   3.814   9.262   7.672 -0.2723  0.2407 -0.2561
  136POPC   C1A 1998   4.049   9.036   7.334 -0.0723 -0.2808  0.0554
  136POPC   D2A 1999   4.099   9.124   6.943  0.4270  0.1540  0.0078
  136POPC   C3A 2000   4.160   8.810   6.663  0.1353 -0.0263 -0.1067
  136POPC   C4A 2001   4.189   8.480   6.353 -0.0695 -0.1402 -0.3114
  136POPC   C1B 2002   3.854   9.446   7.214  0.0587 -0.1337 -0.2106
  136POPC   C2B 2003   3.952   9.587   6.841 -0.1741 -0.1870 -0.1867
  136POPC   C3B 2004   3.949   9.818   6.423 -0.0533 -0.0346 -0.1026
  136POPC   C4B 2005   3.808  10.106   6.161  0.0875 -0.1410  0.0521
  137POPC   NC3 2006   0.559   1.015   7.891  0.3002  0.2496  0.1421
  137POPC   PO4 2007   0.415   1.387   7.691 -0.0834  0.4643  0.0178
  137POPC   GL1 2008   0.724   1.179   7.413 -0.0891  0.4198 -0.2040
  137POPC   GL2 2009   0.745   0.846   7.255 -0.1210 -0.1202 -0.1672
  137POPC   C1A 2010   0.918   1.236   6.971 -0.1174 -0.0027 -0.3359
  137POPC   D2A 2011   0.678   1.519   6.689  0.0835  0.0102  0.3463
  137POPC   C3A 2012   0.530   1.439   6.290 -0.1116 -0.0041  0.1776
  137POPC   C4A 2013   0.477   1.376   5.862  0.0548  0.0936  0.2145
  137POPC   C1B 2014   0.763   0.629   6.940  0.3042 -0.1136 -0.0205
  137POPC   C2B 2015   0.763   0.482   6.529  0.1531  0.1299  0.0810
  137POPC   C3B 2016   0.972   0.126   6.409  0.3934  0.0719 -0.3077
  137POPC   C4B 2017   1.103  -0.332   6.558 -0.2138  0.1243  0.0256
  138POPC   NC3 2018   5.407   6.238   8.555  0.0799  0.1689 -0.2541
  138POPC   PO4 2019   5.860   6.252   8.364 -0.0868 -0.0233 -0.0456
  138POPC   GL1 2020   5.907   6.474   7.981  0.0661 -0.4664 -0.1143
  138POPC   GL2 2021   6.127   6.280   7.785 -0.0050 -0.1901 -0.0435
  138POPC   C1A 2022   5.654   6.423   7.532  0.1894  0.0124 -0.3517
  138POPC   D2A 2023   5.726   6.621   7.197 -0.0390 -0.2134 -0.0222
  138POPC   C3A 2024   6.096   6.663   6.972  0.2814 -0.2696  0.0405
  138POPC   C4A 2025   6.347   6.665   6.549 -0.2600 -0.0050 -0.1021
  138POPC   C1B 2026   6.149   6.261   7.302  0.4244 -0.1001  0.0434
  138POPC   C2B 2027   6.400   5.998   7.042  0.1290 -0.0734  0.0754
  138POPC   C3B 2028   6.651   6.102   6.644 -0.0094  0.2561 -0.2169
  138POPC   C4B 2029   6.668   6.369   6.230  0.0505 -0.3411  0.2734
  139POPC   NC3 2030   0.995   5.078   8.596  0.1154  0.1679 -0.1736
  139POPC   PO4 2031   1.280   4.862   8.341  0.0098 -0.1605 -0.0373
  139POPC   GL1 2032   1.482   5.012   7.958 -0.3641 -0.0984  0.2146
  139POPC   GL2 2033   1.418   5.247   7.721  0.0567 -0.0041  0.0756
  139POPC   C1A 2034   1.871   5.053   7.690 -0.1818 -0.0194  0.2009
  139POPC   D2A 2035   2.249   4.870   7.368  0.0007 -0.2055  0.0986
  139POPC   C3A 2036   2.451   4.612   6.959 -0.3210 -0.0403 -0.1766
  139POPC   C4A 2037   2.428   4.760   6.460  0.0689 -0.1377  0.4291
  139POPC   C1B 2038   1.102   5.534   7.322 -0.1454 -0.1708 -0.0667
  139POPC   C2B 2039   1.070   5.843   6.961 -0.2700  0.0193 -0.1096
  139POPC   C3B 2040   1.281   6.035   6.718  0.3582 -0.4135  0.2693
  139POPC   C4B 2041   1.683   6.266   6.511 -0.0592  0.1647  0.1186
  140POPC   NC3 2042   2.679   1.102   8.219 -0.0944 -0.1227 -0.2027
  140POPC   PO4 2043   2.818   0.853   8.517  0.1271  0.1691  0.1433
  140POPC   GL1 2044   3.219   0.873   8.193  0.1686  0.0251  0.2182
  140POPC   GL2 2045   3.031   0.955   7.965 -0.1399 -0.0859 -0.2478
  140POPC   C1A 2046   3.468   0.784   7.764  0.1914 -0.0784  0.0215
  140POPC   D2A 2047   3.535   0.976   7.426  0.2971  0.2412  0.1657
  140POPC   C3A 2048   3.268   0.881   7.118 -0.1529 -0.1229  0.0426
  140POPC   C4A 2049   3.301   0.434   6.873  0.1332 -0.0958 -0.1871
  140POPC   C1B 2050   3.030   1.069   7.513  0.0893 -0.2402 -0.0287
  140POPC   C2B 2051   3.262   1.380   7.166  0.4777 -0.0548 -0.0307
  140POPC   C3B 2052   3.568   1.552   6.868  0.0103  0.1483 -0.1076
  140POPC   C4B 2053   3.973   1.769   6.818 -0.0579 -0.1425  0.2078
  141POPC   NC3 2054   4.003   9.121   8.187 -0.1189  0.3134  0.2637
  141POPC   PO4 2055   4.079   9.425   8.058 -0.2998 -0.2432  0.1739
  141POPC   GL1 2056   4.470   9.499   7.845 -0.1678 -0.1281 -0.1232
  141POPC   GL2 2057   4.266   9.438   7.587  0.2061 -0.2048  0.0934
  141POPC   C1A 2058   4.716   9.614   7.581  0.0266 -0.0129 -0.0620
  141POPC   D2A 2059   4.689   9.906   7.331 -0.3277 -0.0032 -0.1154
  141POPC   C3A 2060   4.780   9.814   6.927  0.1099  0.0413 -0.1405
  141POPC   C4A 2061   4.816   9.531   6.525 -0.0069  0.1900 -0.0416
  141POPC   C1B 2062   4.359   9.575   7.160 -0.0681 -0.1816 -0.1938
  141POPC   C2B 2063   4.393   9.729   6.673 -0.1441  0.0154 -0.1495
  141POPC   C3B 2064   4.643   9.989   6.370  0.1424 -0.3801 -0.1847
  141POPC   C4B 2065   4.692  10.350   6.085  0.0431  0.0541  0.0995
  142POPC   NC3 2066   9.077   0.944   8.217 -0.2554 -0.1022 -0.1068
  142POPC   PO4 2067   8.967   1.416   8.165  0.1165 -0.2402  0.0817
  142POPC   GL1 2068   8.833   1.672   7.750  0.2004  0.0728 -0.1555
  142POPC   GL2 2069   9.076   1.894   7.577  0.1129  0.1117 -0.1957
  142POPC   C1A 2070   8.784   1.425   7.347 -0.0477 -0.2528 -0.1541
  142POPC   D2A 2071   8.888   1.458   6.844  0.4223 -0.1082 -0.0781
  142POPC   C3A 2072   9.056   1.830   6.615 -0.1308  0.1012  0.0060
  142POPC   C4A 2073   9.250   2.178   6.386 -0.2916 -0.0426  0.3153
  142POPC   C1B 2074   9.157   1.750   7.214 -0.0500 -0.2544 -0.1057
  142POPC   C2B 2075   9.464   1.674   7.001  0.0762  0.2909 -0.4364
  142POPC   C3B 2076   9.625   1.464   6.705 -0.5667  0.1023 -0.4231
  142POPC   C4B 2077   9.897   1.176   6.520 -0.0837  0.0004  0.1163
  143POPC   NC3 2078   2.311   2.671   8.477  0.0399 -0.0089 -0.1232
  143POPC   PO4 2079   2.726   2.889   8.494  0.1144  0.0011  0.1564
  143POPC   GL1 2080   2.817   3.130   8.060 -0.2134  0.0004  0.1352
  143POPC   GL2 2081   2.565   3.116   7.873  0.0689 -0.1467  0.2584
  143POPC   C1A 2082   3.051   3.258   7.665 -0.1449 -0.0250 -0.1931
  143POPC   D2A 2083   3.240   3.241   7.277 -0.0763  0.2171  0.3582
  143POPC   C3A 2084   3.734   3.209   7.175 -0.0069 -0.1738  0.0862
  143POPC   C4A 2085   3.979   2.735   7.022 -0.2530  0.1659  0.1978
  143POPC   C1B 2086   2.583   2.999   7.449  0.2083 -0.0953 -0.2626
  143POPC   C2B 2087   2.784   3.191   7.099  0.2307 -0.3306  0.1636
  143POPC   C3B 2088   2.914   3.296   6.598 -0.0995 -0.0120 -0.2911
  143POPC   C4B 2089   2.945   3.235   6.183  0.1893  0.0398  0.2935
  144POPC   NC3 2090   3.560   1.746   3.818  0.0292  0.0315 -0.0068
  144POPC   PO4 2091   3.578   2.112   4.069 -0.2204 -0.2166  0.0518
  144POPC   GL1 2092   3.572   2.350   4.463 -0.2143 -0.1986 -0.0601
  144POPC   GL2 2093   3.208   2.288   4.647 -0.0010 -0.0075  0.1337
  144POPC   C1A 2094   3.991   2.504   4.566  0.1449 -0.0029  0.0425
  144POPC   D2A 2095   4.247   2.410   4.884 -0.2268 -0.1242  0.0764
  144POPC   C3A 2096   4.212   2.300   5.285  0.0132  0.0287  0.3194
  144POPC   C4A 2097   4.111   2.192   5.845 -0.2428  0.1133  0.1861
  144POPC   C1B 2098   3.179   2.568   4.920  0.3532 -0.4072 -0.2649
  144POPC   C2B 2099   2.986   2.834   5.230 -0.0449 -0.1911 -0.1477
  144POPC   C3B 2100   2.739   2.814   5.659 -0.0015  0.1003 -0.1885
  144POPC   C4B 2101   2.636   2.590   6.065  0.2687 -0.0888 -0.0414
  145POPC   NC3 2102   4.311   2.443   3.611  0.0981  0.0187  0.1227
  145POPC   PO4 2103   4.167   2.850   3.818  0.2231 -0.0201  0.0984
  145POPC   GL1 2104   4.327   2.739   4.306  0.1126 -0.0475  0.1127
  145POPC   GL2 2105   4.065   3.073   4.361 -0.1130  0.1847 -0.1736
  145POPC   C1A 2106   4.559   2.976   4.611 -0.1764 -0.0359  0.2115
  145POPC   D2A 2107   4.515   3.019   5.016 -0.2091 -0.1901  0.0506
  145POPC   C3A 2108   4.417   2.993   5.420 -0.3656  0.0610 -0.1238
  145POPC   C4A 2109   4.324   3.387   5.645  0.3815 -0.0988  0.1239
  145POPC   C1B 2110   4.094   2.997   4.769 -0.1043  0.0747 -0.1398
  145POPC   C2B 2111   4.021   2.758   5.186  0.0211 -0.2103  0.1528
  145POPC   C3B 2112   3.934   2.583   5.593  0.0557  0.0033  0.1101
  145POPC   C4B 2113   3.713   2.506   5.927  0.0325  0.0214 -0.0043
  146POPC   NC3 2114   0.640   4.150   4.521  0.2537  0.1369  0.0521
  146POPC   PO4 2115   1.045   4.479   4.434 -0.1762  0.0726 -0.0737
  146POPC   GL1 2116   0.802   4.617   4.802  0.0404  0.2457 -0.0122
  146POPC   GL2 2117   0.748   4.866   4.985 -0.0724  0.0445 -0.1442
  146POPC   C1A 2118   0.735   4.448   5.262  0.1412 -0.1015  0.0009
  146POPC   D2A 2119   0.964   4.152   5.575 -0.1457  0.0520  0.2142
  146POPC   C3A 2120   0.685   3.918   5.875  0.1068 -0.4220 -0.0008
  146POPC   C4A 2121   0.770   3.737   6.231 -0.2589  0.0359 -0.0682
  146POPC   C1B 2122   0.591   5.011   5.356 -0.0789 -0.0235  0.0425
  146POPC   C2B 2123   0.188   5.119   5.630 -0.0112 -0.1479  0.3057
  146POPC   C3B 2124   0.068   5.467   5.812 -0.1328 -0.0649 -0.3033
  146POPC   C4B 2125   0.343   5.471   6.066  0.1388 -0.0404 -0.1220
  147POPC   NC3 2126   1.177   0.806   4.390  0.0621  0.2212  0.0928
  147POPC   PO4 2127   1.513   1.004   4.362  0.1938  0.0757 -0.2407
  147POPC   GL1 2128   1.800   1.041   4.755  0.1405  0.3724  0.1435
  147POPC   GL2 2129   1.937   1.329   4.768 -0.0574 -0.2840 -0.0243
  147POPC   C1A 2130   1.779   1.094   5.245 -0.0638  0.1270  0.1554
  147POPC   D2A 2131   1.744   1.124   5.784 -0.3172 -0.0795  0.0725
  147POPC   C3A 2132   1.651   0.772   6.188  0.0164 -0.3214 -0.0662
  147POPC   C4A 2133   1.812   0.904   6.566 -0.1783 -0.0224 -0.1277
  147POPC   C1B 2134   2.274   1.167   4.966 -0.1769 -0.0582 -0.3796
  147POPC   C2B 2135   2.264   1.254   5.361 -0.1261 -0.0227  0.2055
  147POPC   C3B 2136   2.454   1.491   5.623  0.2966  0.1728  0.0743
  147POPC   C4B 2137   2.664   1.655   5.817 -0.2791 -0.0682 -0.0907
  148POPC   NC3 2138   5.413   1.433   2.564 -0.1671  0.0784 -0.0033
  148POPC   PO4 2139   5.785   1.654   2.733 -0.0938  0.0282 -0.3664
  148POPC   GL1 2140   5.708   1.573   3.180 -0.0182  0.0579 -0.0596
  148POPC   GL2 2141   5.930   1.458   3.218 -0.1849 -0.0300  0.0978
  148POPC   C1A 2142   5.550   1.525   3.607  0.1727 -0.1843  0.0140
  148POPC   D2A 2143   5.691   1.471   3.956 -0.1244 -0.1243  0.0434
  148POPC   C3A 2144   5.857   0.950   3.913  0.3340  0.1021  0.0843
  148POPC   C4A 2145   6.073   0.757   4.228 -0.0895  0.3827 -0.0440
  148POPC   C1B 2146   6.013   1.377   3.611 -0.0556 -0.2490 -0.1457
  148POPC   C2B 2147   6.337   1.102   3.940 -0.3285  0.3052 -0.0292
  148POPC   C3B 2148   6.466   1.065   4.492  0.1622  0.1516 -0.0670
  148POPC   C4B 2149   6.690   1.220   4.882  0.0199 -0.1338 -0.0145
  149POPC   NC3 2150   3.385   4.119   3.714 -0.1365 -0.0891  0.0430
  149POPC   PO4 2151   3.406   3.740   3.998 -0.0631  0.0666 -0.1158
  149POPC   GL1 2152   3.697   3.663   4.327  0.1237  0.0163  0.1633
  149POPC   GL2 2153   3.701   3.358   4.301 -0.0932 -0.1535  0.0398
  149POPC   C1A 2154   4.020   3.731   4.554  0.3180  0.1027  0.0948
  149POPC   D2A 2155   4.260   3.490   4.720  0.2293  0.0460 -0.0488
  149POPC   C3A 2156   4.151   3.429   5.151  0.0291  0.0368  0.1895
  149POPC   C4A 2157   3.858   3.230   5.328  0.0217  0.1151  0.1632
  149POPC   C1B 2158   3.673   3.309   4.815 -0.0289 -0.2430  0.1367
  149POPC   C2B 2159   3.451   2.997   5.107  0.0637  0.2528 -0.0481
  149POPC   C3B 2160   3.478   2.718   5.431 -0.3589  0.1996  0.0620
  149POPC   C4B 2161   3.591   2.272   5.379  0.0734  0.2253  0.0637
  150POPC   NC3 2162   7.696   7.087   4.728  0.0706  0.1431 -0.1973
  150POPC   PO4 2163   7.661   7.497   4.924 -0.1808  0.1094  0.1040
  150POPC   GL1 2164   7.594   7.328   5.317 -0.3442  0.0610  0.1629
  150POPC   GL2 2165   7.673   7.016   5.236  0.2152  0.3196 -0.1925
  150POPC   C1A 2166   7.375   7.415   5.737 -0.1748  0.2298  0.2116
  150POPC   D2A 2167   7.035   7.621   5.855 -0.3052 -0.0423 -0.0495
  150POPC   C3A 2168   6.685   7.405   6.188  0.0190  0.3615 -0.2080
  150POPC   C4A 2169   6.405   7.186   6.131 -0.0825 -0.1528  0.1893
  150POPC   C1B 2170   7.567   6.978   5.709 -0.2953 -0.1688 -0.0750
  150POPC   C2B 2171   7.501   6.947   6.098  0.1474 -0.2087 -0.2314
  150POPC   C3B 2172   7.276   6.896   6.586 -0.1190  0.3741 -0.2584
  150POPC   C4B 2173   7.076   6.834   7.002  0.2566 -0.1511 -0.1495
  151POPC   NC3 2174   7.607   3.134   3.590 -0.0814  0.0960  0.1141
  151POPC   PO4 2175   7.813   2.845   3.906  0.1847 -0.2022 -0.1814
  151POPC   GL1 2176   7.702   3.052   4.338 -0.1813  0.1348 -0.2590
  151POPC   GL2 2177   7.449   2.886   4.528 -0.1754 -0.2944 -0.2935
  151POPC   C1A 2178   7.599   3.271   4.772 -0.0294  0.0972  0.0010
  151POPC   D2A 2179   7.461   3.650   5.033 -0.0399 -0.1550  0.1067
  151POPC   C3A 2180   7.171   3.987   5.198  0.0025 -0.0994 -0.3130
  151POPC   C4A 2181   6.784   4.093   5.434  0.1403 -0.0998 -0.0811
  151POPC   C1B 2182   7.147   3.226   4.494 -0.0361 -0.2115 -0.0370
  151POPC   C2B 2183   7.063   3.645   4.659  0.0009  0.0796  0.0355
  151POPC   C3B 2184   6.954   4.051   4.791  0.1851 -0.2997 -0.1822
  151POPC   C4B 2185   6.687   4.258   4.974 -0.0448 -0.3146  0.0452
  152POPC   NC3 2186   3.093   8.558   4.364 -0.0258  0.4157 -0.1000
  152POPC   PO4 2187   3.314   7.984   4.426 -0.2276  0.0244 -0.0737
  152POPC   GL1 2188   3.091   7.867   4.816 -0.4042  0.2068  0.2695
  152POPC   GL2 2189   3.058   8.265   4.831  0.0315 -0.1998  0.4174
  152POPC   C1A 2190   2.954   7.976   5.239 -0.3353  0.0185 -0.0515
  152POPC   D2A 2191   2.958   8.194   5.688  0.0382  0.0015 -0.0730
  152POPC   C3A 2192   3.178   8.050   5.987 -0.0206  0.0821 -0.2892
  152POPC   C4A 2193   3.335   7.619   6.176 -0.2049  0.0362 -0.1299
  152POPC   C1B 2194   3.414   8.232   5.060  0.5377  0.2178 -0.1440
  152POPC   C2B 2195   3.700   8.157   5.200 -0.1124  0.1051 -0.4348
  152POPC   C3B 2196   3.979   8.176   5.588 -0.4472 -0.0533  0.2690
  152POPC   C4B 2197   4.240   8.197   5.943 -0.3073  0.0509 -0.0311
  153POPC   NC3 2198   4.553   1.907   2.950  0.1535 -0.0364  0.0799
  153POPC   PO4 2199   4.668   1.932   3.416 -0.2398  0.0303  0.0764
  153POPC   GL1 2200   4.661   1.647   3.828  0.0732  0.4034  0.0116
  153POPC   GL2 2201   4.954   1.312   3.737 -0.0601  0.1995 -0.0927
  153POPC   C1A 2202   4.673   1.661   4.246 -0.0915 -0.2290 -0.0939
  153POPC   D2A 2203   4.422   1.714   4.611 -0.0382  0.2841 -0.0482
  153POPC   C3A 2204   4.135   1.493   4.845 -0.0565 -0.1235  0.2544
  153POPC   C4A 2205   4.193   1.159   5.034 -0.0646  0.0440  0.1086
  153POPC   C1B 2206   4.836   1.204   4.141 -0.0056  0.1501 -0.0198
  153POPC   C2B 2207   4.549   1.238   4.496 -0.3123 -0.1273 -0.1879
  153POPC   C3B 2208   4.709   1.143   5.024  0.0790 -0.0052 -0.0054
  153POPC   C4B 2209   4.957   0.696   5.142  0.0104 -0.0208  0.4377
  154POPC   NC3 2210   4.759   9.640   3.922 -0.0102  0.2588  0.1895
  154POPC   PO4 2211   5.104   9.778   3.556  0.1334 -0.1381  0.1543
  154POPC   GL1 2212   5.149   9.976   3.954 -0.0138 -0.0258 -0.1221
  154POPC   GL2 2213   4.914  10.019   4.236  0.0312  0.0591 -0.1539
  154POPC   C1A 2214   5.429   9.992   4.312  0.2073 -0.1282  0.0182
  154POPC   D2A 2215   5.756  10.069   4.435  0.1884  0.1664  0.3602
  154POPC   C3A 2216   5.798  10.241   4.800  0.1493 -0.3316 -0.0369
  154POPC   C4A 2217   5.758  10.249   5.146  0.0173 -0.2904  0.1519
  154POPC   C1B 2218   5.147   9.685   4.550  0.0006 -0.1812  0.0002
  154POPC   C2B 2219   5.325   9.606   4.905  0.1241 -0.1690 -0.0127
  154POPC   C3B 2220   5.453   9.608   5.413 -0.0475  0.1579  0.0285
  154POPC   C4B 2221   5.475   9.776   5.782 -0.0249  0.2208 -0.0701
  155POPC   NC3 2222   5.441   6.693   4.113  0.0097  0.0542 -0.0850
  155POPC   PO4 2223   5.675   6.472   4.418  0.0742 -0.2171  0.1071
  155POPC   GL1 2224   5.700   6.291   4.753 -0.0244  0.0822 -0.0498
  155POPC   GL2 2225   5.494   6.205   4.940 -0.0044  0.0167 -0.2744
  155POPC   C1A 2226   5.981   6.167   5.138  0.0522 -0.2569  0.0268
  155POPC   D2A 2227   6.135   5.834   5.465 -0.2079 -0.3684 -0.0411
  155POPC   C3A 2228   6.245   5.980   5.840  0.0767 -0.1267  0.0431
  155POPC   C4A 2229   6.197   6.283   6.212  0.0534 -0.0903  0.0291
  155POPC   C1B 2230   5.408   6.439   5.283 -0.0499  0.2205  0.1876
  155POPC   C2B 2231   5.219   6.380   5.696 -0.0862 -0.1862 -0.3526
  155POPC   C3B 2232   5.193   6.264   6.126 -0.2398 -0.0209 -0.0705
  155POPC   C4B 2233   4.978   6.495   6.438  0.3776 -0.0202  0.1192
  156POPC   NC3 2234   3.249   6.285   4.689  0.1369  0.0490  0.2096
  156POPC   PO4 2235   3.224   5.870   4.883 -0.0432  0.5632 -0.0462
  156POPC   GL1 2236   3.448   6.056   5.142 -0.3236 -0.1550 -0.0509
  156POPC   GL2 2237   3.706   5.930   5.094 -0.1101  0.0678 -0.3109
  156POPC   C1A 2238   3.449   6.022   5.542 -0.2201 -0.3685 -0.2081
  156POPC   D2A 2239   3.228   6.117   5.966 -0.2521 -0.1023 -0.0727
  156POPC   C3A 2240   3.431   5.788   6.250 -0.0665 -0.0359  0.1861
  156POPC   C4A 2241   3.745   5.894   6.477 -0.2511  0.0536  0.1044
  156POPC   C1B 2242   3.734   5.638   5.394 -0.1675  0.3797  0.1325
  156POPC   C2B 2243   3.603   5.602   5.824 -0.1743  0.1367  0.0863
  156POPC   C3B 2244   3.364   5.331   5.833  0.0099 -0.2198  0.4401
  156POPC   C4B 2245   3.097   5.247   6.047 -0.0834  0.0163  0.4542
  157POPC   NC3 2246   2.952   0.933   3.583 -0.0970  0.2260 -0.1013
  157POPC   PO4 2247   2.709   1.109   3.916 -0.5029  0.0179  0.0858
  157POPC   GL1 2248   2.769   1.228   4.297 -0.4119 -0.2164  0.1994
  157POPC   GL2 2249   3.086   1.411   4.371 -0.3877  0.0508 -0.2474
  157POPC   C1A 2250   2.663   1.280   4.640  0.1683 -0.2103  0.0740
  157POPC   D2A 2251   2.604   1.523   5.051  0.2300  0.0656  0.1159
  157POPC   C3A 2252   2.700   1.794   5.309 -0.2762 -0.1434  0.0017
  157POPC   C4A 2253   2.993   1.925   5.568 -0.0777 -0.3603  0.0146
  157POPC   C1B 2254   3.131   1.260   4.776 -0.2371 -0.2558  0.0805
  157POPC   C2B 2255   3.095   1.438   5.240 -0.2209  0.2553  0.1998
  157POPC   C3B 2256   3.110   1.455   5.617  0.2542 -0.1364 -0.1063
  157POPC   C4B 2257   3.262   1.663   5.900  0.1941  0.0861 -0.4222
  158POPC   NC3 2258   8.055   1.409   3.834  0.0252 -0.2576 -0.1577
  158POPC   PO4 2259   7.721   1.077   3.642 -0.1338  0.1251 -0.0115
  158POPC   GL1 2260   7.623   1.008   4.127 -0.1703  0.0775 -0.0243
  158POPC   GL2 2261   7.812   1.271   4.263 -0.0469 -0.0766  0.1836
  158POPC   C1A 2262   7.839   0.859   4.541 -0.1221 -0.0765  0.3647
  158POPC   D2A 2263   7.646   0.767   4.977 -0.2825  0.0183 -0.0864
  158POPC   C3A 2264   7.226   0.620   5.121 -0.0362 -0.0369  0.0359
  158POPC   C4A 2265   6.929   0.436   5.456 -0.1605 -0.3211  0.3492
  158POPC   C1B 2266   7.676   1.237   4.726 -0.0126 -0.1513 -0.1373
  158POPC   C2B 2267   7.685   1.304   5.208  0.2233  0.0154  0.2066
  158POPC   C3B 2268   7.392   1.027   5.534  0.1151  0.0771 -0.1776
  158POPC   C4B 2269   7.105   0.758   5.743  0.2504 -0.3204  0.3812
  159POPC   NC3 2270   5.848   6.813   4.751  0.2169 -0.4691  0.0970
  159POPC   PO4 2271   5.731   7.126   4.440 -0.1323  0.1902  0.2364
  159POPC   GL1 2272   5.761   7.465   4.626 -0.1064  0.3243 -0.1568
  159POPC   GL2 2273   6.052   7.715   4.590 -0.0233 -0.1456  0.3415
  159POPC   C1A 2274   5.733   7.466   5.060  0.0632  0.0841  0.1164
  159POPC   D2A 2275   5.580   7.520   5.522  0.0577 -0.0609  0.1259
  159POPC   C3A 2276   5.315   7.192   5.600 -0.0103  0.0105 -0.0544
  159POPC   C4A 2277   5.024   7.028   5.827  0.0421  0.0675 -0.2924
  159POPC   C1B 2278   5.894   7.944   4.978  0.1348  0.2088  0.0334
  159POPC   C2B 2279   5.553   7.939   5.259  0.0864 -0.0770 -0.0669
  159POPC   C3B 2280   5.403   8.266   5.469 -0.2024  0.1366 -0.0878
  159POPC   C4B 2281   5.124   8.442   5.822 -0.0740  0.0113  0.2130
  160POPC   NC3 2282   5.165   6.424   4.379  0.1799 -0.0736  0.2256
  160POPC   PO4 2283   4.844   6.298   4.420 -0.2854 -0.1192 -0.2474
  160POPC   GL1 2284   5.013   6.216   4.843 -0.0208  0.0862  0.0642
  160POPC   GL2 2285   5.006   6.512   4.979 -0.1302 -0.0497 -0.1730
  160POPC   C1A 2286   5.191   5.867   5.177  0.1455 -0.0209 -0.0375
  160POPC   D2A 2287   5.159   5.779   5.666  0.0778  0.0401  0.2579
  160POPC   C3A 2288   4.987   5.663   6.115 -0.3478  0.1639 -0.0592
  160POPC   C4A 2289   4.661   5.745   6.425  0.0358 -0.2571 -0.2113
  160POPC   C1B 2290   4.952   6.760   5.404  0.0890  0.0511 -0.1209
  160POPC   C2B 2291   4.623   6.744   5.709  0.1298 -0.2983  0.0239
  160POPC   C3B 2292   4.412   7.068   5.722  0.1332  0.0570 -0.2227
  160POPC   C4B 2293   4.242   7.213   6.092  0.3195  0.0497  0.0482
  161POPC   NC3 2294   6.363   8.538   4.049 -0.1908  0.2028 -0.0993
  161POPC   PO4 2295   6.117   8.275   4.332 -0.0272  0.0825  0.1458
  161POPC   GL1 2296   6.152   8.688   4.444  0.1549  0.0896 -0.0028
  161POPC   GL2 2297   6.412   8.821   4.472 -0.2251 -0.0127 -0.0949
  161POPC   C1A 2298   6.032   9.157   4.553 -0.2397 -0.0918 -0.0907
  161POPC   D2A 2299   6.139   9.447   4.851 -0.1049 -0.0257 -0.0483
  161POPC   C3A 2300   6.062   9.425   5.258  0.0393  0.1256  0.0682
  161POPC   C4A 2301   5.865   9.475   5.761 -0.1182  0.3590 -0.4569
  161POPC   C1B 2302   6.467   8.884   4.851  0.0372  0.3150 -0.0982
  161POPC   C2B 2303   6.161   8.783   5.141  0.0844 -0.1106 -0.0881
  161POPC   C3B 2304   5.678   8.726   5.176  0.1095  0.4823 -0.0254
  161POPC   C4B 2305   5.486   8.345   4.959 -0.2399  0.0617  0.3604
  162POPC   NC3 2306   0.937   3.122   4.548  0.2340 -0.0901  0.0422
  162POPC   PO4 2307   1.166   2.689   4.519 -0.2083  0.2316 -0.0049
  162POPC   GL1 2308   0.909   2.690   4.853 -0.0278  0.1174  0.3384
  162POPC   GL2 2309   0.748   2.436   4.907  0.2221 -0.1292 -0.3968
  162POPC   C1A 2310   0.889   3.028   5.234  0.3332 -0.1340 -0.0926
  162POPC   D2A 2311   0.824   3.129   5.706  0.1988 -0.0919 -0.1731
  162POPC   C3A 2312   0.486   3.362   5.814 -0.2490  0.0161 -0.1120
  162POPC   C4A 2313   0.126   3.227   6.070 -0.0005  0.1829 -0.2299
  162POPC   C1B 2314   0.660   2.572   5.343 -0.0190 -0.1485 -0.1088
  162POPC   C2B 2315   0.545   2.721   5.782 -0.1476  0.0116  0.0625
  162POPC   C3B 2316   0.246   2.747   6.082  0.1829  0.0210 -0.2978
  162POPC   C4B 2317  -0.090   2.779   6.387 -0.0548 -0.0614  0.0867
  163POPC   NC3 2318   8.512   3.873   4.214  0.0201 -0.4000  0.1651
  163POPC   PO4 2319   8.150   3.911   3.972  0.0194  0.0292 -0.0654
  163POPC   GL1 2320   8.048   4.062   4.327  0.2881 -0.1204 -0.0079
  163POPC   GL2 2321   7.736   4.102   4.300 -0.1358  0.2201 -0.3280
  163POPC   C1A 2322   8.063   4.132   4.844 -0.2665  0.0782 -0.0993
  163POPC   D2A 2323   7.716   4.081   5.222 -0.1122 -0.2316 -0.1295
  163POPC   C3A 2324   7.525   3.775   5.529 -0.0264  0.0440  0.0460
  163POPC   C4A 2325   7.445   3.593   5.952 -0.4651  0.1888 -0.0524
  163POPC   C1B 2326   7.811   3.673   4.614 -0.0413 -0.1539  0.0086
  163POPC   C2B 2327   8.011   3.644   5.018  0.2004 -0.1858  0.1657
  163POPC   C3B 2328   8.008   3.644   5.476 -0.0829 -0.0058  0.1354
  163POPC   C4B 2329   8.024   4.016   5.656 -0.2074  0.0254  0.0196
  164POPC   NC3 2330   4.530   7.644   3.936  0.1076 -0.2005 -0.2559
  164POPC   PO4 2331   4.351   7.515   4.364 -0.0724 -0.3656 -0.3516
  164POPC   GL1 2332   4.266   7.810   4.681  0.1257 -0.1329 -0.0396
  164POPC   GL2 2333   4.509   8.024   4.673  0.1250  0.3205 -0.1096
  164POPC   C1A 2334   4.077   7.719   5.048 -0.0030 -0.0169  0.3040
  164POPC   D2A 2335   4.356   7.575   5.307 -0.1911 -0.0589 -0.0542
  164POPC   C3A 2336   4.636   7.775   5.507  0.2339 -0.3433  0.0623
  164POPC   C4A 2337   4.691   8.015   5.817  0.0551  0.0191 -0.2056
  164POPC   C1B 2338   4.496   8.090   5.064 -0.2557 -0.1805  0.0037
  164POPC   C2B 2339   4.517   8.343   5.389  0.1459 -0.0635 -0.0377
  164POPC   C3B 2340   4.563   8.540   5.631 -0.1738  0.0345 -0.2864
  164POPC   C4B 2341   4.205   8.766   5.817 -0.1569  0.1570 -0.0088
  165POPC   NC3 2342   6.556   7.894   4.375 -0.0542 -0.0824 -0.0066
  165POPC   PO4 2343   6.766   8.248   4.195 -0.0530 -0.1169  0.4187
  165POPC   GL1 2344   6.719   8.418   4.565 -0.0519  0.0909  0.1281
  165POPC   GL2 2345   6.408   8.168   4.755 -0.0148  0.0056  0.2144
  165POPC   C1A 2346   6.766   8.491   5.005 -0.1891 -0.2776 -0.0309
  165POPC   D2A 2347   6.599   8.646   5.337 -0.0238  0.2822  0.0017
  165POPC   C3A 2348   6.484   9.144   5.322  0.1082 -0.3017  0.1682
  165POPC   C4A 2349   6.396   9.494   5.642 -0.0319 -0.0823  0.3677
  165POPC   C1B 2350   6.416   8.144   5.185 -0.0447  0.0909 -0.0775
  165POPC   C2B 2351   6.354   8.215   5.591 -0.2322  0.1225 -0.1466
  165POPC   C3B 2352   6.388   8.409   6.007 -0.0520  0.0172 -0.2910
  165POPC   C4B 2353   6.768   8.479   6.314 -0.0111  0.1015 -0.0375
  166POPC   NC3 2354   0.292   6.995   4.699 -0.1362  0.1119 -0.1018
  166POPC   PO4 2355   0.669   7.183   4.674  0.2435 -0.1229 -0.3134
  166POPC   GL1 2356   0.566   7.417   4.994  0.0244  0.1434 -0.0722
  166POPC   GL2 2357   0.668   7.388   5.313 -0.2862  0.2008  0.1818
  166POPC   C1A 2358   0.172   7.303   5.283 -0.0595 -0.1162 -0.0618
  166POPC   D2A 2359  -0.120   7.367   5.760  0.1702  0.0962 -0.1081
  166POPC   C3A 2360  -0.045   7.694   6.089  0.0869  0.2026  0.0596
  166POPC   C4A 2361  -0.087   7.702   6.540  0.1828  0.0058  0.1403
  166POPC   C1B 2362   0.399   7.229   5.700  0.0235 -0.2347  0.3458
  166POPC   C2B 2363   0.279   7.286   6.082 -0.1739  0.0290  0.1568
  166POPC   C3B 2364   0.271   7.264   6.548  0.3560 -0.0144 -0.3666
  166POPC   C4B 2365   0.208   6.905   6.868  0.0474 -0.1849 -0.1096
  167POPC   NC3 2366   5.647   9.621   3.614  0.1436 -0.1765  0.0380
  167POPC   PO4 2367   5.596   9.279   3.804 -0.0506 -0.1100 -0.0261
  167POPC   GL1 2368   5.629   9.269   4.290  0.0169  0.4013 -0.1626
  167POPC   GL2 2369   5.458   9.197   4.488  0.1853  0.0294 -0.1164
  167POPC   C1A 2370   5.703   9.588   4.633 -0.1539 -0.1760 -0.0947
  167POPC   D2A 2371   5.765   9.796   5.027 -0.1452  0.0170  0.4559
  167POPC   C3A 2372   6.189   9.980   5.031  0.1163  0.0205  0.0776
  167POPC   C4A 2373   6.577   9.849   5.222  0.1349 -0.0141  0.5131
  167POPC   C1B 2374   5.656   9.194   4.903  0.4023 -0.0542 -0.1391
  167POPC   C2B 2375   5.688   9.172   5.366 -0.1062  0.0827 -0.2511
  167POPC   C3B 2376   6.010   9.020   5.596 -0.1035 -0.0512 -0.1684
  167POPC   C4B 2377   6.456   8.943   5.782  0.1455  0.4088  0.0500
  168POPC   NC3 2378   2.636   3.572   3.649  0.4327 -0.1673 -0.4300
  168POPC   PO4 2379   2.935   3.889   3.935  0.4110  0.1563 -0.0570
  168POPC   GL1 2380   2.962   3.660   4.387  0.1193  0.0510 -0.0004
  168POPC   GL2 2381   3.233   3.644   4.520  0.0115 -0.1125 -0.1511
  168POPC   C1A 2382   2.748   3.491   4.670 -0.0749 -0.2148 -0.1452
  168POPC   D2A 2383   2.533   3.226   5.064  0.1197 -0.3374 -0.0164
  168POPC   C3A 2384   2.437   3.385   5.502 -0.0168 -0.3902  0.1649
  168POPC   C4A 2385   2.479   3.215   5.868 -0.0703 -0.2938 -0.3407
  168POPC   C1B 2386   3.459   3.800   4.785  0.0244  0.1809  0.1826
  168POPC   C2B 2387   3.512   3.556   5.223  0.2910  0.0099  0.0735
  168POPC   C3B 2388   3.417   3.262   5.537  0.1634 -0.0805 -0.3114
  168POPC   C4B 2389   3.251   3.016   5.770  0.0982  0.1391  0.0547
  169POPC   NC3 2390   0.179   6.634   4.404  0.0002  0.1995 -0.1738
  169POPC   PO4 2391   0.068   6.180   4.488 -0.1217  0.2284  0.1125
  169POPC   GL1 2392   0.197   6.094   4.869  0.2168  0.2235  0.0023
  169POPC   GL2 2393  -0.082   5.912   5.015 -0.4611 -0.0562 -0.1336
  169POPC   C1A 2394   0.289   6.320   5.321 -0.3379 -0.1025  0.0630
  169POPC   D2A 2395   0.452   6.398   5.629  0.0340  0.2490 -0.0679
  169POPC   C3A 2396   0.357   6.689   5.875 -0.1590  0.0678 -0.1147
  169POPC   C4A 2397   0.302   6.840   6.322  0.2766  0.0950 -0.1670
  169POPC   C1B 2398   0.118   5.908   5.496  0.0887  0.1944 -0.2388
  169POPC   C2B 2399   0.530   5.882   5.706 -0.2123 -0.0335  0.3184
  169POPC   C3B 2400   0.552   5.878   6.198 -0.4350 -0.2569  0.1876
  169POPC   C4B 2401   0.784   5.990   6.511  0.1225  0.0705 -0.0092
  170POPC   NC3 2402   4.608   4.569   4.246 -0.1714 -0.0452  0.1360
  170POPC   PO4 2403   4.543   4.906   4.437  0.0054 -0.0164  0.0082
  170POPC   GL1 2404   4.612   5.152   4.760 -0.1344  0.2258 -0.0435
  170POPC   GL2 2405   4.496   5.412   4.825 -0.0769  0.1460 -0.0313
  170POPC   C1A 2406   4.731   5.240   5.257 -0.0670 -0.3125  0.0712
  170POPC   D2A 2407   4.991   5.316   5.577 -0.0243 -0.0771  0.0554
  170POPC   C3A 2408   5.208   4.989   5.546  0.1197 -0.4997 -0.0020
  170POPC   C4A 2409   5.500   4.605   5.493 -0.2539 -0.1258  0.0560
  170POPC   C1B 2410   4.625   5.768   5.153  0.0829  0.1335  0.2766
  170POPC   C2B 2411   4.626   5.707   5.623  0.1239  0.1522  0.2385
  170POPC   C3B 2412   4.520   5.395   5.985 -0.3472  0.2352  0.2271
  170POPC   C4B 2413   4.507   5.123   6.233  0.2242  0.2812  0.0726
  171POPC   NC3 2414   3.220   4.176   4.192 -0.2072 -0.4008  0.0642
  171POPC   PO4 2415   3.568   4.510   4.460  0.2828  0.3837  0.2500
  171POPC   GL1 2416   3.518   4.288   4.845  0.4117 -0.0287  0.2825
  171POPC   GL2 2417   3.510   4.549   5.033  0.0649 -0.1307  0.1416
  171POPC   C1A 2418   3.386   4.074   5.216  0.1509 -0.0783  0.2339
  171POPC   D2A 2419   3.123   3.822   5.509 -0.1446 -0.3337 -0.0240
  171POPC   C3A 2420   3.295   3.688   5.881  0.3979  0.0242  0.0589
  171POPC   C4A 2421   3.564   3.366   6.162  0.0397  0.1802  0.0587
  171POPC   C1B 2422   3.373   4.578   5.474 -0.2192  0.2123 -0.0882
  171POPC   C2B 2423   3.412   4.240   5.715  0.0900  0.0205 -0.4441
  171POPC   C3B 2424   3.693   3.974   5.927 -0.0998 -0.5106  0.1212
  171POPC   C4B 2425   3.896   3.719   6.265 -0.4680 -0.1392 -0.0130
  172POPC   NC3 2426   8.835   1.816   4.047 -0.1999  0.0821 -0.0535
  172POPC   PO4 2427   8.967   2.218   3.977 -0.3219 -0.3328 -0.0252
  172POPC   GL1 2428   9.053   2.185   4.457 -0.1407  0.1074  0.1371
  172POPC   GL2 2429   8.793   1.989   4.552 -0.1307  0.0255  0.1621
  172POPC   C1A 2430   9.193   2.199   4.874  0.2060  0.1468  0.1725
  172POPC   D2A 2431   9.208   2.185   5.283  0.1925 -0.0991 -0.4063
  172POPC   C3A 2432   8.789   2.230   5.529  0.2048  0.1273 -0.2146
  172POPC   C4A 2433   8.526   2.383   5.733 -0.1202 -0.2486 -0.2814
  172POPC   C1B 2434   8.815   1.867   5.016 -0.1863 -0.1627 -0.0078
  172POPC   C2B 2435   8.549   1.707   5.287 -0.1966 -0.1359 -0.1762
  172POPC   C3B 2436   8.470   1.869   5.776 -0.2722  0.1622  0.2064
  172POPC   C4B 2437   8.102   1.879   5.943  0.0722 -0.2646 -0.0455
  173POPC   NC3 2438   5.817   2.698   2.431  0.0346 -0.0177  0.1996
  173POPC   PO4 2439   6.082   2.491   2.822 -0.0330 -0.1122 -0.1166
  173POPC   GL1 2440   5.881   2.458   3.202  0.2261 -0.1131  0.1383
  173POPC   GL2 2441   6.230   2.354   3.458 -0.0799 -0.2218  0.0427
  173POPC   C1A 2442   5.761   2.445   3.689  0.2542 -0.0538  0.2090
  173POPC   D2A 2443   5.483   2.550   3.988  0.0792 -0.3432 -0.1293
  173POPC   C3A 2444   5.611   2.681   4.382 -0.0883  0.0880 -0.0476
  173POPC   C4A 2445   5.615   2.783   4.788 -0.0355 -0.2243 -0.1851
  173POPC   C1B 2446   6.159   2.069   3.855  0.3093 -0.2107 -0.0380
  173POPC   C2B 2447   6.263   1.639   4.000 -0.2173  0.0114 -0.0183
  173POPC   C3B 2448   6.567   1.492   4.142  0.0740  0.2832  0.1941
  173POPC   C4B 2449   6.821   1.511   4.439  0.3045  0.1096  0.1913
  174POPC   NC3 2450   3.717   6.661   4.514  0.0232  0.1216 -0.2988
  174POPC   PO4 2451   4.179   6.792   4.492 -0.0769  0.0364 -0.1744
  174POPC   GL1 2452   4.016   7.066   4.691 -0.0367 -0.2123  0.2216
  174POPC   GL2 2453   4.219   7.327   4.803  0.2881 -0.3266 -0.1505
  174POPC   C1A 2454   3.798   7.335   5.070  0.1773  0.1532  0.0589
  174POPC   D2A 2455   3.736   7.653   5.388 -0.1594  0.1401 -0.3664
  174POPC   C3A 2456   4.116   7.706   5.747 -0.2607 -0.2229 -0.0176
  174POPC   C4A 2457   4.428   7.763   6.137  0.1787 -0.2412  0.2293
  174POPC   C1B 2458   4.288   7.066   5.135 -0.2719  0.6055  0.1220
  174POPC   C2B 2459   4.127   6.722   5.510 -0.2113  0.2561  0.1534
  174POPC   C3B 2460   3.976   6.779   5.974  0.0687 -0.1147 -0.1863
  174POPC   C4B 2461   4.124   6.923   6.423 -0.1997  0.1228 -0.0554
  175POPC   NC3 2462   9.100   5.323   4.474 -0.2337  0.2871 -0.0645
  175POPC   PO4 2463   9.086   4.839   4.389 -0.0231  0.4076  0.0739
  175POPC   GL1 2464   9.213   4.766   4.773 -0.0292 -0.2227 -0.1108
  175POPC   GL2 2465   8.858   4.541   4.779 -0.0675  0.1611  0.1370
  175POPC   C1A 2466   9.111   4.700   5.219 -0.0791  0.1278  0.0449
  175POPC   D2A 2467   8.950   4.688   5.586  0.0638  0.1283 -0.1218
  175POPC   C3A 2468   9.204   4.468   5.859  0.2036 -0.2196  0.0773
  175POPC   C4A 2469   9.081   4.706   6.103 -0.3584 -0.0756  0.0260
  175POPC   C1B 2470   8.757   4.386   5.154  0.1705 -0.0567  0.1605
  175POPC   C2B 2471   8.572   4.341   5.536  0.1068  0.2878 -0.1371
  175POPC   C3B 2472   8.548   4.311   5.909  0.3530  0.0937  0.0605
  175POPC   C4B 2473   8.394   4.014   6.007 -0.2301  0.0482  0.2618
  176POPC   NC3 2474   9.338   7.843   4.307  0.3106  0.1316 -0.0921
  176POPC   PO4 2475   9.010   7.656   4.630 -0.1778 -0.1829 -0.0333
  176POPC   GL1 2476   9.044   8.022   5.027 -0.0336  0.0359 -0.1658
  176POPC   GL2 2477   8.804   8.173   5.148  0.2100 -0.0207 -0.0670
  176POPC   C1A 2478   9.176   8.204   5.422 -0.0510  0.3164  0.0147
  176POPC   D2A 2479   9.289   8.701   5.489  0.4990 -0.2617  0.1354
  176POPC   C3A 2480   9.617   8.784   5.191 -0.1287  0.2700  0.2295
  176POPC   C4A 2481  10.010   8.717   4.994  0.0869 -0.1406 -0.1282
  176POPC   C1B 2482   8.782   8.558   5.325  0.0032 -0.0702  0.1184
  176POPC   C2B 2483   8.535   8.658   5.665 -0.2393  0.0800 -0.1766
  176POPC   C3B 2484   8.567   8.433   6.066 -0.1367  0.3795  0.0206
  176POPC   C4B 2485   8.355   8.318   6.471  0.1382  0.3395 -0.3763
  177POPC   NC3 2486   3.634   5.935   4.573 -0.1718  0.2824  0.2060
  177POPC   PO4 2487   3.763   6.248   4.757 -0.1083  0.1622 -0.2250
  177POPC   GL1 2488   3.874   6.418   5.038  0.0341  0.1151  0.3592
  177POPC   GL2 2489   4.146   6.599   4.997 -0.0812 -0.2363 -0.0053
  177POPC   C1A 2490   3.805   6.864   5.143  0.0141  0.2166 -0.0148
  177POPC   D2A 2491   3.978   7.242   5.489  0.1991 -0.0621  0.1724
  177POPC   C3A 2492   3.666   7.444   5.804  0.2487  0.0581  0.1824
  177POPC   C4A 2493   3.688   7.903   5.936  0.0660 -0.2209  0.0901
  177POPC   C1B 2494   4.537   6.604   5.218  0.1359 -0.1391 -0.0706
  177POPC   C2B 2495   4.658   6.268   5.340 -0.0663 -0.2388  0.1025
  177POPC   C3B 2496   4.769   6.259   5.742 -0.1007  0.0395 -0.2591
  177POPC   C4B 2497   4.612   6.191   6.247 -0.1192  0.0679 -0.0967
  178POPC   NC3 2498   1.129   8.783   4.419  0.0918  0.0052  0.4003
  178POPC   PO4 2499   0.701   8.890   4.321 -0.0387 -0.4632 -0.2697
  178POPC   GL1 2500   0.703   8.809   4.798  0.0020 -0.1384 -0.1668
  178POPC   GL2 2501   0.701   8.534   5.065 -0.0684 -0.0531  0.1577
  178POPC   C1A 2502   0.595   9.005   5.220 -0.0725 -0.4863 -0.0154
  178POPC   D2A 2503   0.312   8.971   5.542 -0.0553 -0.0457  0.0852
  178POPC   C3A 2504   0.377   9.120   5.897 -0.1446 -0.3179 -0.1732
  178POPC   C4A 2505   0.631   9.118   6.310 -0.1779  0.1708 -0.3454
  178POPC   C1B 2506   0.785   8.711   5.540  0.0188  0.5636  0.0124
  178POPC   C2B 2507   0.868   9.048   5.771  0.3735  0.1644 -0.1233
  178POPC   C3B 2508   0.925   9.505   5.953  0.0377 -0.0332 -0.2048
  178POPC   C4B 2509   1.050   9.889   5.878 -0.4244  0.3554 -0.0688
  179POPC   NC3 2510   8.284   8.555   3.871  0.0266 -0.0324 -0.1636
  179POPC   PO4 2511   8.254   8.601   4.357  0.3118 -0.1830  0.1781
  179POPC   GL1 2512   8.223   8.656   4.773 -0.3162  0.5551 -0.0170
  179POPC   GL2 2513   8.463   8.615   4.978 -0.0272  0.0546  0.1318
  179POPC   C1A 2514   7.830   8.382   5.010  0.2509  0.0873 -0.1530
  179POPC   D2A 2515   7.720   8.184   5.372  0.0350  0.0344 -0.0311
  179POPC   C3A 2516   8.011   8.275   5.706 -0.1991  0.1209 -0.1556
  179POPC   C4A 2517   8.026   8.104   6.069 -0.1734  0.2807 -0.0689
  179POPC   C1B 2518   8.399   9.054   5.164  0.4143  0.0150  0.0086
  179POPC   C2B 2519   8.364   9.173   5.631 -0.1498  0.2189  0.1724
  179POPC   C3B 2520   8.401   9.254   6.057  0.0473  0.1679 -0.0612
  179POPC   C4B 2521   8.057   9.166   6.410  0.3312  0.2890 -0.5726
  180POPC   NC3 2522   8.889   4.694   3.962  0.0517 -0.1106 -0.0537
  180POPC   PO4 2523   8.832   4.391   4.310 -0.1379  0.0051  0.0372
  180POPC   GL1 2524   8.805   4.032   4.680 -0.2859  0.0014  0.0412
  180POPC   GL2 2525   8.825   3.684   4.617 -0.1390 -0.1455 -0.1444
  180POPC   C1A 2526   8.644   3.875   5.093 -0.1502 -0.0459  0.3041
  180POPC   D2A 2527   8.321   3.967   5.276 -0.2367 -0.1720 -0.1045
  180POPC   C3A 2528   8.106   4.396   5.283  0.0046 -0.0354 -0.0315
  180POPC   C4A 2529   8.052   4.559   5.712 -0.0179 -0.3747 -0.2302
  180POPC   C1B 2530   8.368   3.527   4.730 -0.0622  0.0875  0.1229
  180POPC   C2B 2531   8.143   3.106   4.885  0.1330 -0.3026  0.3327
  180POPC   C3B 2532   8.339   2.670   4.972  0.1478 -0.1971  0.1779
  180POPC   C4B 2533   8.669   2.313   4.936 -0.0666 -0.0476  0.3012
  181POPC   NC3 2534   6.521   5.590   4.115  0.1481 -0.0688 -0.2819
  181POPC   PO4 2535   6.954   5.545   4.317  0.3428 -0.2970  0.0548
  181POPC   GL1 2536   6.930   5.338   4.721 -0.0691 -0.0669 -0.3447
  181POPC   GL2 2537   6.926   4.929   4.690 -0.1527 -0.2595 -0.4479
  181POPC   C1A 2538   6.700   5.320   5.083  0.0475 -0.0877 -0.0535
  181POPC   D2A 2539   6.477   5.494   5.370 -0.1530 -0.2600  0.0562
  181POPC   C3A 2540   6.482   5.541   5.841  0.2276 -0.2944 -0.1761
  181POPC   C4A 2541   6.526   5.664   6.255  0.1978 -0.2610  0.1585
  181POPC   C1B 2542   7.057   4.746   5.104 -0.2419  0.2203 -0.1459
  181POPC   C2B 2543   7.124   4.505   5.438 -0.0607 -0.0073  0.1115
  181POPC   C3B 2544   7.115   4.514   5.795  0.0710  0.1844  0.1264
  181POPC   C4B 2545   7.156   4.368   6.270  0.1487  0.2787 -0.0029
  182POPC   NC3 2546   4.110   9.014   4.206  0.0331 -0.0496 -0.2800
  182POPC   PO4 2547   3.824   9.268   4.003  0.0027 -0.1436  0.3381
  182POPC   GL1 2548   3.689   9.307   4.479  0.1321  0.5146 -0.1313
  182POPC   GL2 2549   3.605   9.121   4.774  0.0318  0.2681 -0.0864
  182POPC   C1A 2550   3.587   9.658   4.767  0.1620 -0.2194  0.1280
  182POPC   D2A 2551   3.621   9.904   5.129 -0.1946  0.1068  0.2429
  182POPC   C3A 2552   3.454  10.252   5.465  0.0485  0.3409  0.1636
  182POPC   C4A 2553   3.740  10.498   5.800  0.2475 -0.0666  0.1572
  182POPC   C1B 2554   3.621   9.180   5.253 -0.3044 -0.0125  0.0402
  182POPC   C2B 2555   3.665   9.212   5.727 -0.1337 -0.0767 -0.3093
  182POPC   C3B 2556   3.733   9.392   6.166 -0.0576  0.1047  0.1073
  182POPC   C4B 2557   3.808   9.160   6.548  0.0155 -0.4938 -0.1682
  183POPC   NC3 2558   5.939   3.643   3.541  0.1146 -0.1785 -0.1211
  183POPC   PO4 2559   6.332   3.582   3.591 -0.1046  0.2864  0.1089
  183POPC   GL1 2560   6.708   3.591   3.746  0.1262 -0.0365 -0.1667
  183POPC   GL2 2561   6.774   3.273   3.888 -0.0272 -0.2736  0.0966
  183POPC   C1A 2562   6.939   3.716   4.116 -0.0184 -0.0279 -0.0740
  183POPC   D2A 2563   7.286   3.982   4.309  0.0487 -0.1751 -0.0089
  183POPC   C3A 2564   7.435   4.077   4.728  0.1321  0.2656  0.1391
  183POPC   C4A 2565   7.370   4.375   5.060 -0.2451  0.0754  0.1309
  183POPC   C1B 2566   6.665   3.271   4.327 -0.0475  0.1322  0.2547
  183POPC   C2B 2567   6.754   3.218   4.766  0.1299 -0.0445 -0.0107
  183POPC   C3B 2568   6.639   2.974   5.034  0.1557  0.1776 -0.3443
  183POPC   C4B 2569   6.848   2.631   5.247  0.2614  0.0976 -0.0822
  184POPC   NC3 2570   4.038   1.069   3.566 -0.3492 -0.1823  0.0909
  184POPC   PO4 2571   3.837   0.885   3.951  0.1509 -0.0379  0.0287
  184POPC   GL1 2572   3.769   0.808   4.304  0.1738 -0.1715 -0.2804
  184POPC   GL2 2573   3.447   0.988   4.521  0.0696 -0.1731 -0.3599
  184POPC   C1A 2574   3.908   0.861   4.711  0.0514 -0.2242  0.1901
  184POPC   D2A 2575   3.951   0.758   5.213 -0.1567 -0.0121 -0.0659
  184POPC   C3A 2576   4.016   0.325   5.410  0.3106 -0.1547  0.0705
  184POPC   C4A 2577   3.860   0.090   5.773  0.1926 -0.0685 -0.0965
  184POPC   C1B 2578   3.442   0.864   4.935  0.2917 -0.0096  0.4273
  184POPC   C2B 2579   3.456   1.011   5.389 -0.2717  0.3349  0.1849
  184POPC   C3B 2580   3.512   1.190   5.778 -0.2324  0.0424  0.1421
  184POPC   C4B 2581   3.817   1.536   5.982  0.0019 -0.2109  0.0514
  185POPC   NC3 2582   3.962   0.356   4.197 -0.1000  0.0379 -0.0049
  185POPC   PO4 2583   4.300   0.147   4.016 -0.0247 -0.1096  0.1765
  185POPC   GL1 2584   4.461   0.173   4.369  0.0575 -0.2096  0.2443
  185POPC   GL2 2585   4.313   0.370   4.635 -0.2915  0.4137 -0.2666
  185POPC   C1A 2586   4.622  -0.065   4.791  0.1925 -0.2796 -0.0795
  185POPC   D2A 2587   4.889   0.141   5.221  0.1031 -0.1424  0.0365
  185POPC   C3A 2588   5.003  -0.025   5.586  0.1210 -0.1987  0.1467
  185POPC   C4A 2589   5.260  -0.427   5.753  0.0697  0.0858  0.0437
  185POPC   C1B 2590   4.429   0.783   4.799 -0.4421  0.0071 -0.5238
  185POPC   C2B 2591   4.426   0.853   5.299  0.2631  0.0996 -0.0551
  185POPC   C3B 2592   4.223   0.699   5.728 -0.0493 -0.0896  0.0886
  185POPC   C4B 2593   4.296   0.272   5.986  0.2056  0.2583  0.2416
  186POPC   NC3 2594   5.792   5.102   3.966  0.0209 -0.1992  0.1468
  186POPC   PO4 2595   6.068   5.278   4.169 -0.1717 -0.2125 -0.2163
  186POPC   GL1 2596   5.988   5.471   4.517 -0.0514 -0.2681  0.0805
  186POPC   GL2 2597   5.670   5.511   4.635 -0.0742 -0.1669  0.2724
  186POPC   C1A 2598   6.162   5.450   4.906 -0.1047 -0.1162 -0.0473
  186POPC   D2A 2599   6.170   5.081   5.140  0.1715 -0.4472  0.1759
  186POPC   C3A 2600   5.960   5.380   5.532 -0.1558  0.1210  0.2886
  186POPC   C4A 2601   5.997   5.515   5.913 -0.2516  0.0268  0.2459
  186POPC   C1B 2602   5.737   5.737   5.062 -0.1310  0.1339 -0.0755
  186POPC   C2B 2603   5.622   6.031   5.419 -0.0460 -0.0271  0.0854
  186POPC   C3B 2604   5.899   6.266   5.632 -0.0309 -0.0446 -0.0515
  186POPC   C4B 2605   5.745   6.400   5.965  0.0680 -0.3289  0.1119
  187POPC   NC3 2606   5.991   1.965   3.037  0.0117 -0.2315 -0.0045
  187POPC   PO4 2607   5.479   2.035   3.008 -0.2129 -0.1841 -0.2524
  187POPC   GL1 2608   5.553   2.139   3.379 -0.0411 -0.1116 -0.0531
  187POPC   GL2 2609   5.814   1.982   3.491 -0.1231 -0.4877 -0.0618
  187POPC   C1A 2610   5.220   2.228   3.756 -0.2199 -0.1033  0.0683
  187POPC   D2A 2611   5.125   2.080   4.203 -0.1663  0.0029  0.0153
  187POPC   C3A 2612   4.780   2.096   4.485 -0.0476  0.1553 -0.1514
  187POPC   C4A 2613   4.464   2.225   4.374 -0.0996 -0.1205 -0.0427
  187POPC   C1B 2614   5.663   2.022   4.003  0.1281  0.1338  0.0100
  187POPC   C2B 2615   5.524   2.083   4.445 -0.0643 -0.2297  0.0621
  187POPC   C3B 2616   5.611   2.262   4.779 -0.1446  0.0778  0.4299
  187POPC   C4B 2617   5.287   2.521   5.111 -0.0631  0.2741 -0.2784
  188POPC   NC3 2618   8.350   6.564   4.652 -0.1941 -0.2060 -0.1539
  188POPC   PO4 2619   8.188   7.024   4.605 -0.1196  0.1062  0.0160
  188POPC   GL1 2620   8.137   6.959   4.957  0.1878  0.0373 -0.4034
  188POPC   GL2 2621   8.115   7.214   5.070  0.4760 -0.2229 -0.0581
  188POPC   C1A 2622   8.493   7.059   5.308  0.0413 -0.0832  0.1883
  188POPC   D2A 2623   8.471   7.025   5.732  0.0805  0.1965 -0.0658
  188POPC   C3A 2624   8.039   6.889   6.021  0.2768 -0.2536  0.1908
  188POPC   C4A 2625   7.853   6.485   6.077 -0.2548  0.0099 -0.1151
  188POPC   C1B 2626   8.052   7.236   5.490  0.0125  0.0484  0.1199
  188POPC   C2B 2627   7.904   7.332   5.860  0.0506 -0.2214 -0.3626
  188POPC   C3B 2628   8.042   7.602   6.131 -0.2249  0.1200  0.4896
  188POPC   C4B 2629   8.344   7.682   6.475 -0.2300  0.1475  0.1263
  189POPC   NC3 2630   1.898   9.315   3.827 -0.0472  0.2060  0.0399
  189POPC   PO4 2631   1.520   9.122   4.069 -0.1253 -0.5206  0.0016
  189POPC   GL1 2632   1.254   9.293   4.419  0.0681 -0.1539 -0.0541
  189POPC   GL2 2633   0.971   9.340   4.472 -0.3713  0.0104  0.0425
  189POPC   C1A 2634   1.228   9.443   4.940 -0.1431 -0.1677  0.0977
  189POPC   D2A 2635   1.567   9.221   5.141  0.2239  0.0398 -0.2350
  189POPC   C3A 2636   1.905   9.051   5.159 -0.0539 -0.0797  0.2117
  189POPC   C4A 2637   2.356   9.005   5.343  0.1009  0.0550 -0.0762
  189POPC   C1B 2638   0.707   9.381   4.748 -0.0401 -0.1539  0.0616
  189POPC   C2B 2639   0.823   9.528   5.143  0.4657  0.1897 -0.0375
  189POPC   C3B 2640   1.027   9.597   5.444 -0.0323 -0.0652 -0.2123
  189POPC   C4B 2641   1.415   9.633   5.410 -0.2690  0.0288 -0.1760
  190POPC   NC3 2642   7.704   5.298   3.726  0.1726 -0.0820 -0.0520
  190POPC   PO4 2643   7.656   4.985   4.071  0.1863 -0.1287  0.0728
  190POPC   GL1 2644   7.627   4.858   4.476  0.2140 -0.0395  0.0511
  190POPC   GL2 2645   7.495   4.549   4.524 -0.1563  0.1306 -0.2696
  190POPC   C1A 2646   7.411   5.029   4.815  0.1277  0.1601  0.1353
  190POPC   D2A 2647   7.506   4.955   5.286 -0.1614 -0.1548  0.2479
  190POPC   C3A 2648   7.639   4.613   5.403  0.0895 -0.3730  0.3064
  190POPC   C4A 2649   7.610   4.269   5.647  0.3632 -0.0543 -0.0299
  190POPC   C1B 2650   7.813   4.558   4.887 -0.3400 -0.0207  0.3498
  190POPC   C2B 2651   8.048   4.868   5.224 -0.0448 -0.2644  0.3667
  190POPC   C3B 2652   7.953   5.067   5.633 -0.1117 -0.1974 -0.0378
  190POPC   C4B 2653   8.027   4.985   6.086 -0.2157  0.1644  0.3545
  191POPC   NC3 2654   8.595   7.741   4.356  0.0779 -0.1262 -0.2436
  191POPC   PO4 2655   8.561   7.344   4.486  0.1599 -0.2860 -0.0676
  191POPC   GL1 2656   8.534   7.450   4.901 -0.0776 -0.2879 -0.0663
  191POPC   GL2 2657   8.791   7.624   5.066 -0.1294 -0.4329  0.0162
  191POPC   C1A 2658   8.398   7.540   5.363 -0.1117 -0.0157 -0.0708
  191POPC   D2A 2659   8.474   7.538   5.794 -0.2746  0.3701  0.1049
  191POPC   C3A 2660   8.533   7.924   6.046 -0.1027  0.1726 -0.0925
  191POPC   C4A 2661   8.814   8.144   6.360 -0.0444 -0.0236 -0.4817
  191POPC   C1B 2662   8.847   7.833   5.478  0.1238  0.2507 -0.0521
  191POPC   C2B 2663   8.957   7.718   5.918 -0.0496 -0.3854  0.3655
  191POPC   C3B 2664   9.253   7.532   6.180 -0.0032 -0.2386  0.1906
  191POPC   C4B 2665   9.265   7.350   6.504  0.1993 -0.0166 -0.1424
  192POPC   NC3 2666   6.770   5.152   4.079 -0.0836  0.0139 -0.0673
  192POPC   PO4 2667   6.594   4.710   4.230  0.0945  0.0579 -0.3016
  192POPC   GL1 2668   6.342   4.559   4.550 -0.0267 -0.0671  0.0494
  192POPC   GL2 2669   6.386   4.719   4.833  0.0717  0.2240 -0.0612
  192POPC   C1A 2670   6.180   4.242   4.850  0.1001 -0.0481 -0.2356
  192POPC   D2A 2671   6.308   4.144   5.328 -0.0125  0.2657 -0.1133
  192POPC   C3A 2672   6.049   4.311   5.622 -0.1912 -0.2930 -0.3124
  192POPC   C4A 2673   5.839   4.543   5.912 -0.3739  0.0639  0.0288
  192POPC   C1B 2674   6.527   4.640   5.229 -0.1779  0.0263 -0.2698
  192POPC   C2B 2675   6.510   4.488   5.656  0.0459  0.2009 -0.2857
  192POPC   C3B 2676   6.805   4.183   5.954 -0.0786  0.0220  0.1198
  192POPC   C4B 2677   7.210   4.033   5.827  0.2309  0.2999  0.0675
  193POPC   NC3 2678   2.318   8.442   4.347  0.1241 -0.1213 -0.0626
  193POPC   PO4 2679   2.657   8.682   4.247 -0.1486  0.3546  0.2726
  193POPC   GL1 2680   2.635   8.605   4.677  0.0648  0.1589 -0.0974
  193POPC   GL2 2681   2.337   8.668   4.805  0.2100  0.3516 -0.5223
  193POPC   C1A 2682   2.601   8.328   5.124 -0.1785 -0.0900 -0.0935
  193POPC   D2A 2683   2.605   8.562   5.578 -0.0704 -0.1161 -0.2064
  193POPC   C3A 2684   3.003   8.682   5.824 -0.0237  0.1220 -0.2098
  193POPC   C4A 2685   3.367   8.828   5.812 -0.1150 -0.0848 -0.1534
  193POPC   C1B 2686   2.107   8.618   5.234  0.0347  0.2462 -0.3084
  193POPC   C2B 2687   2.012   8.394   5.682  0.0170 -0.1874  0.1286
  193POPC   C3B 2688   1.804   8.295   5.962 -0.1757 -0.3232 -0.0935
  193POPC   C4B 2689   1.699   8.235   6.346 -0.0230 -0.1941 -0.1247
  194POPC   NC3 2690   7.835   5.402   4.310  0.1010 -0.0834  0.0721
  194POPC   PO4 2691   7.922   5.831   4.429  0.2176  0.0111 -0.1104
  194POPC   GL1 2692   7.807   5.900   4.814 -0.2520  0.0648  0.0079
  194POPC   GL2 2693   7.681   6.244   4.700 -0.4796  0.1528 -0.1470
  194POPC   C1A 2694   7.763   5.904   5.214 -0.2345 -0.0715 -0.3111
  194POPC   D2A 2695   7.723   6.161   5.595 -0.1709  0.2866 -0.2801
  194POPC   C3A 2696   7.829   6.556   5.567 -0.2871 -0.1871  0.1524
  194POPC   C4A 2697   8.118   6.744   5.426 -0.0745  0.2502 -0.1037
  194POPC   C1B 2698   7.790   6.380   5.120 -0.2971 -0.0579  0.2321
  194POPC   C2B 2699   8.253   6.302   5.365  0.0025 -0.1368 -0.4139
  194POPC   C3B 2700   8.583   6.121   5.570 -0.0546 -0.0504 -0.1932
  194POPC   C4B 2701   8.981   6.200   5.483  0.2620  0.0676  0.1920
  195POPC   NC3 2702   0.759   0.646   3.883  0.1057 -0.4297  0.1873
  195POPC   PO4 2703   1.070   0.395   4.049 -0.0640  0.1751 -0.2774
  195POPC   GL1 2704   1.267   0.274   4.416  0.1121  0.0389  0.0652
  195POPC   GL2 2705   1.323   0.421   4.664  0.1863  0.0991 -0.1660
  195POPC   C1A 2706   0.991   0.093   4.812  0.6172 -0.1538 -0.1163
  195POPC   D2A 2707   0.585   0.125   4.841  0.2387  0.0718 -0.0726
  195POPC   C3A 2708   0.403  -0.036   5.225 -0.0029  0.1978  0.3334
  195POPC   C4A 2709   0.567  -0.241   5.616 -0.1520 -0.0233 -0.1986
  195POPC   C1B 2710   1.729   0.552   4.867  0.3372 -0.3631 -0.1804
  195POPC   C2B 2711   2.104   0.712   4.892  0.0039 -0.2449  0.1451
  195POPC   C3B 2712   2.334   0.735   5.191 -0.0674 -0.2159  0.1763
  195POPC   C4B 2713   2.403   0.792   5.581  0.2038  0.1978  0.2263
  196POPC   NC3 2714   3.336   7.498   4.552  0.0877  0.0285  0.1881
  196POPC   PO4 2715   2.962   7.240   4.557  0.3073  0.2431  0.1641
  196POPC   GL1 2716   3.004   7.376   4.969  0.0377 -0.2543 -0.1463
  196POPC   GL2 2717   3.242   7.562   5.144  0.3416 -0.0649  0.0747
  196POPC   C1A 2718   2.804   7.401   5.330 -0.2859 -0.1116  0.1479
  196POPC   D2A 2719   2.868   7.686   5.699  0.0855  0.0428  0.1644
  196POPC   C3A 2720   2.831   7.676   6.096  0.1774  0.0332  0.0704
  196POPC   C4A 2721   2.810   7.483   6.532 -0.1113 -0.2667  0.0795
  196POPC   C1B 2722   3.328   7.858   5.567  0.0727  0.1233  0.1370
  196POPC   C2B 2723   3.422   8.309   5.602 -0.1814 -0.2640 -0.1175
  196POPC   C3B 2724   3.109   8.541   5.332 -0.3451 -0.4649 -0.2256
  196POPC   C4B 2725   2.769   8.822   5.125  0.2410  0.2018 -0.2534
  197POPC   NC3 2726   4.815   5.239   4.279  0.0034 -0.0456  0.0438
  197POPC   PO4 2727   5.004   4.903   4.111 -0.0644  0.1478  0.2351
  197POPC   GL1 2728   4.982   4.679   4.571 -0.1484  0.0340 -0.1141
  197POPC   GL2 2729   4.825   4.343   4.612  0.0138 -0.1111 -0.4952
  197POPC   C1A 2730   4.933   4.852   4.956  0.1023  0.2397  0.1895
  197POPC   D2A 2731   4.750   4.760   5.392 -0.2018 -0.1845 -0.0892
  197POPC   C3A 2732   4.549   4.467   5.614  0.2418  0.3667 -0.1336
  197POPC   C4A 2733   4.598   4.246   6.008 -0.1390 -0.3079 -0.0657
  197POPC   C1B 2734   4.772   4.280   5.061 -0.0532  0.0483 -0.3021
  197POPC   C2B 2735   5.018   4.378   5.493  0.2438  0.1630  0.0132
  197POPC   C3B 2736   5.086   4.136   5.817  0.0650 -0.2756 -0.0324
  197POPC   C4B 2737   5.075   3.818   6.091  0.0170 -0.0313  0.0682
  198POPC   NC3 2738   8.203   0.363   4.230  0.0043 -0.1136  0.0785
  198POPC   PO4 2739   8.336   0.104   4.466  0.2308 -0.1232  0.0603
  198POPC   GL1 2740   8.314   0.084   4.964  0.3756  0.1538 -0.0720
  198POPC   GL2 2741   8.261  -0.213   5.001  0.1964 -0.0711  0.0399
  198POPC   C1A 2742   8.316   0.139   5.423  0.2114  0.0942  0.1462
  198POPC   D2A 2743   7.923   0.379   5.705 -0.2111 -0.0738  0.3295
  198POPC   C3A 2744   7.996   0.493   6.102  0.1106  0.1268  0.1232
  198POPC   C4A 2745   7.799   0.663   6.448 -0.2439 -0.0877  0.1422
  198POPC   C1B 2746   7.979  -0.388   5.394  0.0963 -0.3005 -0.2352
  198POPC   C2B 2747   7.751  -0.573   5.658 -0.1506 -0.2908  0.1662
  198POPC   C3B 2748   7.690  -0.652   6.079  0.2042  0.3153  0.2491
  198POPC   C4B 2749   7.534  -0.936   6.354  0.3183 -0.1308  0.0398
  199POPC   NC3 2750   2.100   6.957   4.445  0.1182 -0.1378 -0.1786
  199POPC   PO4 2751   1.729   7.249   4.486 -0.1422 -0.0096  0.0599
  199POPC   GL1 2752   1.603   7.360   4.912  0.0472  0.2140  0.2440
  199POPC   GL2 2753   1.654   7.633   5.000  0.1310  0.1008 -0.0729
  199POPC   C1A 2754   1.544   7.020   5.194 -0.2024  0.1932  0.2653
  199POPC   D2A 2755   1.604   6.817   5.564  0.3467  0.0596 -0.3076
  199POPC   C3A 2756   2.085   6.972   5.684 -0.0001 -0.1335 -0.1342
  199POPC   C4A 2757   2.434   7.001   5.337 -0.2950  0.3616 -0.0587
  199POPC   C1B 2758   1.373   7.593   5.277  0.0608  0.0570  0.3413
  199POPC   C2B 2759   1.025   7.705   5.423 -0.0042 -0.0610 -0.1185
  199POPC   C3B 2760   0.812   7.809   5.749 -0.0189  0.0663  0.0395
  199POPC   C4B 2761   0.397   7.721   5.849  0.1664 -0.0807 -0.1564
  200POPC   NC3 2762   8.652   8.911   4.535  0.3361  0.2536 -0.0256
  200POPC   PO4 2763   9.006   8.708   4.581  0.0607  0.0869  0.0641
  200POPC   GL1 2764   9.036   8.885   4.990  0.3142  0.3402 -0.2271
  200POPC   GL2 2765   8.860   9.216   4.978  0.2413  0.2125 -0.2254
  200POPC   C1A 2766   8.903   9.026   5.448 -0.0127  0.1055 -0.1627
  200POPC   D2A 2767   8.861   9.189   5.772 -0.0892  0.2619 -0.2790
  200POPC   C3A 2768   8.812   8.981   6.143  0.1817  0.1114 -0.1107
  200POPC   C4A 2769   8.861   8.772   6.492 -0.1295 -0.0304 -0.0283
  200POPC   C1B 2770   8.657   9.462   5.272  0.0015  0.1612 -0.1310
  200POPC   C2B 2771   8.594   9.630   5.758  0.0364  0.0677 -0.0535
  200POPC   C3B 2772   8.249   9.761   5.964 -0.0914  0.0201  0.0535
  200POPC   C4B 2773   7.895   9.525   6.024 -0.0329 -0.1476  0.1452
  201POPC   NC3 2774   1.771   7.856   4.596 -0.3216  0.0291 -0.0921
  201POPC   PO4 2775   1.862   8.145   4.243 -0.1316  0.0056  0.0309
  201POPC   GL1 2776   1.857   8.350   4.625  0.2233 -0.0827 -0.2616
  201POPC   GL2 2777   1.871   8.215   4.951 -0.4391  0.1799  0.0003
  201POPC   C1A 2778   1.653   8.681   4.947  0.0108  0.3622  0.1496
  201POPC   D2A 2779   1.162   8.955   4.886  0.0721  0.2215  0.0955
  201POPC   C3A 2780   1.113   9.066   5.302  0.0313  0.1191 -0.1116
  201POPC   C4A 2781   1.374   9.169   5.670  0.1027 -0.1685  0.0993
  201POPC   C1B 2782   1.943   8.001   5.317 -0.0900 -0.0942 -0.2231
  201POPC   C2B 2783   2.046   7.903   5.740  0.3459  0.0138 -0.0265
  201POPC   C3B 2784   2.283   7.650   6.138 -0.0379  0.3169 -0.0970
  201POPC   C4B 2785   2.493   7.953   6.556  0.0137  0.4123  0.2250
  202POPC   NC3 2786   5.255   9.000   4.010 -0.0286  0.2514  0.1119
  202POPC   PO4 2787   4.792   9.164   4.023 -0.4990 -0.5330  0.1605
  202POPC   GL1 2788   4.881   9.266   4.377  0.0073 -0.2992 -0.0464
  202POPC   GL2 2789   4.513   9.361   4.458  0.3211  0.3133 -0.1598
  202POPC   C1A 2790   5.005   9.271   4.795  0.0122  0.1034  0.4664
  202POPC   D2A 2791   4.864   9.290   5.250 -0.1445  0.1375 -0.4283
  202POPC   C3A 2792   4.442   9.433   5.240 -0.3976 -0.1375  0.0190
  202POPC   C4A 2793   4.007   9.523   5.374 -0.2120 -0.0172 -0.1105
  202POPC   C1B 2794   4.536   9.103   4.890 -0.1271  0.3195 -0.1049
  202POPC   C2B 2795   4.640   8.884   5.307  0.2507 -0.0443 -0.2526
  202POPC   C3B 2796   4.902   8.905   5.691 -0.0171  0.3658  0.0931
  202POPC   C4B 2797   4.647   8.934   6.015  0.0273  0.3785 -0.2110
  203POPC   NC3 2798   7.187   7.628   4.811  0.1493  0.1364  0.3031
  203POPC   PO4 2799   6.945   7.981   4.637 -0.3067 -0.1007 -0.3026
  203POPC   GL1 2800   6.967   7.998   5.109 -0.0764  0.2224  0.0810
  203POPC   GL2 2801   7.359   7.834   5.313 -0.0377  0.0880  0.1528
  203POPC   C1A 2802   6.787   7.907   5.507 -0.3228  0.0733 -0.2128
  203POPC   D2A 2803   6.504   7.650   5.704  0.0836  0.4193 -0.4376
  203POPC   C3A 2804   6.314   7.852   6.073 -0.3266 -0.2723  0.0145
  203POPC   C4A 2805   6.424   7.749   6.537 -0.2651  0.0683  0.2732
  203POPC   C1B 2806   7.250   8.056   5.690 -0.4503 -0.0648  0.1668
  203POPC   C2B 2807   7.335   8.340   6.093 -0.5818  0.3830 -0.1797
  203POPC   C3B 2808   7.243   8.328   6.558 -0.2259 -0.1128 -0.1515
  203POPC   C4B 2809   7.021   8.295   6.962 -0.3866 -0.3279  0.1399
  204POPC   NC3 2810   7.817   4.404   3.836  0.0207  0.1497 -0.1443
  204POPC   PO4 2811   7.988   4.584   4.205  0.0322  0.0850  0.1488
  204POPC   GL1 2812   8.095   4.823   4.643 -0.1805  0.1530  0.2287
  204POPC   GL2 2813   8.236   5.194   4.504  0.1145 -0.0421  0.0975
  204POPC   C1A 2814   8.385   4.731   4.956 -0.1983  0.0374 -0.0997
  204POPC   D2A 2815   8.622   4.927   5.253 -0.2630  0.0394 -0.0038
  204POPC   C3A 2816   8.475   4.833   5.528 -0.2192 -0.3448 -0.1925
  204POPC   C4A 2817   8.504   4.770   6.003  0.4567  0.0238 -0.2148
  204POPC   C1B 2818   8.193   5.295   4.933 -0.2107  0.0533 -0.0195
  204POPC   C2B 2819   8.304   5.291   5.324  0.0226  0.1094  0.0166
  204POPC   C3B 2820   8.433   5.311   5.788  0.1502  0.3683  0.3723
  204POPC   C4B 2821   8.323   5.543   6.215  0.2052 -0.0396 -0.1315
  205POPC   NC3 2822   1.465   6.690   4.659 -0.2249 -0.3502  0.3325
  205POPC   PO4 2823   1.886   6.516   4.545 -0.0297  0.0157 -0.0412
  205POPC   GL1 2824   1.858   6.613   4.944 -0.0692 -0.2504  0.1023
  205POPC   GL2 2825   1.593   6.514   5.201 -0.1046 -0.1590  0.2722
  205POPC   C1A 2826   2.083   6.541   5.278 -0.3080 -0.1501 -0.6036
  205POPC   D2A 2827   1.994   6.448   5.701 -0.0554  0.0502 -0.3339
  205POPC   C3A 2828   2.310   6.230   5.948 -0.1257  0.1650  0.1880
  205POPC   C4A 2829   2.394   5.828   5.841 -0.0733  0.0298 -0.2180
  205POPC   C1B 2830   1.560   6.219   5.635  0.1286  0.0793  0.2697
  205POPC   C2B 2831   1.383   6.052   6.028  0.2432 -0.0451 -0.1280
  205POPC   C3B 2832   1.183   6.122   6.215  0.4003 -0.0448 -0.3067
  205POPC   C4B 2833   1.220   6.550   6.376 -0.3474 -0.3615  0.0575
  206POPC   NC3 2834   2.466   1.852   3.718 -0.2211  0.1494  0.1378
  206POPC   PO4 2835   2.743   1.668   4.021 -0.0121  0.2946  0.2777
  206POPC   GL1 2836   2.733   1.775   4.466 -0.0514 -0.0353 -0.1798
  206POPC   GL2 2837   2.975   1.803   4.697  0.0677 -0.1316  0.0921
  206POPC   C1A 2838   2.619   2.141   4.804 -0.0435 -0.0777  0.0669
  206POPC   D2A 2839   2.977   2.192   5.100  0.0312  0.3027 -0.3975
  206POPC   C3A 2840   3.081   2.464   5.495 -0.1060  0.1296  0.2701
  206POPC   C4A 2841   3.167   2.555   5.936 -0.2044  0.1139 -0.2949
  206POPC   C1B 2842   3.426   1.752   4.982 -0.0788  0.0187  0.0068
  206POPC   C2B 2843   3.489   1.744   5.368 -0.1960  0.2690 -0.0060
  206POPC   C3B 2844   3.647   2.032   5.784 -0.0821  0.4442 -0.2976
  206POPC   C4B 2845   3.479   2.125   6.150  0.1509 -0.0962  0.0599
  207POPC   NC3 2846   0.705   2.295   4.351  0.0633 -0.1565 -0.1027
  207POPC   PO4 2847   0.442   2.005   4.417  0.1937 -0.3773 -0.1381
  207POPC   GL1 2848   0.034   1.855   4.685  0.0695  0.2684 -0.2160
  207POPC   GL2 2849  -0.158   2.132   4.583  0.0362  0.1673 -0.0494
  207POPC   C1A 2850  -0.159   1.944   5.076 -0.1534 -0.1293 -0.0109
  207POPC   D2A 2851  -0.194   1.992   5.539  0.0812 -0.1186 -0.2497
  207POPC   C3A 2852  -0.351   2.227   5.757 -0.2294  0.0172  0.1059
  207POPC   C4A 2853  -0.409   2.650   6.030 -0.0238 -0.1110  0.2443
  207POPC   C1B 2854  -0.459   1.780   4.663  0.0639  0.0615 -0.4026
  207POPC   C2B 2855  -0.529   1.647   5.014  0.2617 -0.0388 -0.5045
  207POPC   C3B 2856  -0.669   1.748   5.439  0.2880  0.0373  0.1057
  207POPC   C4B 2857  -0.710   1.903   5.812  0.0380  0.2892 -0.2949
  208POPC   NC3 2858   3.584   5.510   4.145  0.4563  0.1924  0.1450
  208POPC   PO4 2859   3.985   5.341   4.358  0.2193 -0.1560 -0.1858
  208POPC   GL1 2860   4.114   5.039   4.713 -0.1199 -0.1977  0.2009
  208POPC   GL2 2861   3.809   4.821   4.726 -0.0194  0.1580 -0.0086
  208POPC   C1A 2862   4.340   4.941   5.078  0.1589 -0.5452 -0.3863
  208POPC   D2A 2863   4.319   5.023   5.477  0.0919 -0.1879 -0.0108
  208POPC   C3A 2864   4.605   4.879   5.841  0.1493 -0.1378  0.0625
  208POPC   C4A 2865   4.971   5.107   6.095 -0.1077  0.2265  0.1475
  208POPC   C1B 2866   3.844   4.993   5.208 -0.2533  0.3444 -0.0321
  208POPC   C2B 2867   3.862   5.125   5.700 -0.0070 -0.0590  0.0363
  208POPC   C3B 2868   3.979   5.280   6.067 -0.0184 -0.0955  0.0986
  208POPC   C4B 2869   3.991   5.151   6.453 -0.2811  0.0832 -0.0380
  209POPC   NC3 2870   3.610   7.245   3.853  0.1588  0.0086 -0.2495
  209POPC   PO4 2871   3.549   7.189   4.307  0.3832 -0.1368 -0.1563
  209POPC   GL1 2872   3.460   7.067   4.778  0.2488  0.0297  0.1003
  209POPC   GL2 2873   3.359   6.727   4.917 -0.1784  0.2806 -0.1566
  209POPC   C1A 2874   3.386   7.113   5.272 -0.0129 -0.2106  0.1450
  209POPC   D2A 2875   3.205   7.324   5.593 -0.0535  0.0821 -0.3254
  209POPC   C3A 2876   3.055   7.208   6.045 -0.0825  0.0062  0.0094
  209POPC   C4A 2877   2.873   6.963   6.416 -0.1835  0.1789 -0.2908
  209POPC   C1B 2878   3.290   6.558   5.301  0.1563  0.3491  0.0067
  209POPC   C2B 2879   3.093   6.536   5.664  0.1232  0.1542 -0.1130
  209POPC   C3B 2880   2.962   6.519   6.079 -0.0391 -0.2950 -0.2224
  209POPC   C4B 2881   2.755   6.178   6.378 -0.2748 -0.2370 -0.1113
  210POPC   NC3 2882   4.579   7.091   4.465  0.0992 -0.0117  0.2915
  210POPC   PO4 2883   4.966   6.898   4.321 -0.3023 -0.2344  0.2545
  210POPC   GL1 2884   5.052   7.158   4.700 -0.1408  0.2453 -0.0315
  210POPC   GL2 2885   4.742   7.016   4.987 -0.3285  0.0289 -0.1662
  210POPC   C1A 2886   5.242   7.029   5.064 -0.1577  0.0892  0.2563
  210POPC   D2A 2887   5.636   6.847   5.201  0.0202 -0.0075 -0.1472
  210POPC   C3A 2888   5.678   6.798   5.596  0.1016  0.0387 -0.3494
  210POPC   C4A 2889   5.409   6.791   5.946  0.3127  0.1606  0.0911
  210POPC   C1B 2890   4.853   7.368   5.373  0.2094  0.3080 -0.2534
  210POPC   C2B 2891   4.768   7.502   5.926  0.1609 -0.0829 -0.0109
  210POPC   C3B 2892   4.911   7.719   6.162 -0.0248 -0.0720  0.1187
  210POPC   C4B 2893   5.059   8.079   6.168  0.2065 -0.3883  0.1549
  211POPC   NC3 2894   2.883   5.555   4.645  0.1928  0.0358  0.1591
  211POPC   PO4 2895   3.118   5.316   4.319 -0.2514  0.0275  0.2572
  211POPC   GL1 2896   3.193   4.989   4.655  0.0221 -0.0930  0.0361
  211POPC   GL2 2897   2.901   5.083   4.796  0.0538  0.1085 -0.0197
  211POPC   C1A 2898   3.356   5.000   5.026 -0.3470  0.0537  0.3335
  211POPC   D2A 2899   3.410   5.240   5.288  0.0350  0.1105  0.4229
  211POPC   C3A 2900   3.139   5.538   5.419 -0.0495 -0.3126 -0.0787
  211POPC   C4A 2901   2.697   5.637   5.521  0.1277 -0.0717 -0.2618
  211POPC   C1B 2902   2.751   5.169   5.228  0.3118 -0.0710  0.0631
  211POPC   C2B 2903   2.591   5.072   5.681  0.2502  0.0409 -0.4063
  211POPC   C3B 2904   2.507   5.253   6.122  0.1411  0.2705  0.3265
  211POPC   C4B 2905   2.073   5.426   6.294  0.3029 -0.1819 -0.1716
  212POPC   NC3 2906   1.088   6.985   4.485 -0.2817 -0.2816 -0.0346
  212POPC   PO4 2907   0.676   6.778   4.387  0.0090  0.2354  0.1466
  212POPC   GL1 2908   0.640   6.725   4.877  0.2280 -0.1383 -0.5485
  212POPC   GL2 2909   0.596   6.415   4.947  0.0247 -0.0092 -0.1705
  212POPC   C1A 2910   0.477   6.878   5.339  0.0570  0.1356 -0.0005
  212POPC   D2A 2911   0.809   6.939   5.633  0.1544  0.0773 -0.2148
  212POPC   C3A 2912   0.808   6.750   6.132 -0.0599  0.1249  0.0872
  212POPC   C4A 2913   0.740   6.735   6.604  0.4488  0.3062 -0.0090
  212POPC   C1B 2914   0.825   6.196   5.362  0.1958 -0.4999 -0.0059
  212POPC   C2B 2915   0.837   6.235   5.873 -0.0594 -0.0643 -0.0328
  212POPC   C3B 2916   0.446   6.362   6.292 -0.1727  0.0781 -0.0533
  212POPC   C4B 2917   0.109   6.317   6.628 -0.3019 -0.1969  0.1225
  213POPC   NC3 2918   8.524   3.666   3.762  0.2492 -0.2004  0.3604
  213POPC   PO4 2919   8.725   3.408   4.036 -0.2362 -0.2484 -0.2549
  213POPC   GL1 2920   8.683   3.206   4.539 -0.1921  0.1234  0.0571
  213POPC   GL2 2921   8.963   3.063   4.554  0.2064 -0.1675 -0.1719
  213POPC   C1A 2922   8.651   3.139   5.031 -0.0879  0.0266 -0.0255
  213POPC   D2A 2923   8.314   3.283   5.309 -0.0380  0.0587  0.1240
  213POPC   C3A 2924   7.759   3.260   5.244 -0.0389 -0.3435  0.1167
  213POPC   C4A 2925   7.402   3.280   5.487 -0.1476 -0.3979 -0.2361
  213POPC   C1B 2926   9.381   3.105   4.876  0.5454 -0.2477  0.1102
  213POPC   C2B 2927   9.750   3.189   4.957  0.2596 -0.1797  0.0672
  213POPC   C3B 2928  10.067   3.557   5.237 -0.1876  0.3157  0.2950
  213POPC   C4B 2929  10.444   3.656   5.464 -0.1133 -0.0069 -0.1079
  214POPC   NC3 2930   0.886   1.436   3.831 -0.0775 -0.0083  0.2097
  214POPC   PO4 2931   1.067   1.312   4.237  0.3265 -0.2436 -0.1186
  214POPC   GL1 2932   1.005   1.450   4.623  0.1531  0.1264  0.0757
  214POPC   GL2 2933   0.842   1.767   4.647  0.0274  0.2975 -0.1327
  214POPC   C1A 2934   1.161   1.270   4.928  0.2488 -0.3044  0.2154
  214POPC   D2A 2935   1.327   0.975   4.926  0.3043  0.2684 -0.0887
  214POPC   C3A 2936   1.511   0.700   5.299  0.2034  0.3640 -0.1271
  214POPC   C4A 2937   1.417   0.384   5.567 -0.0975 -0.1108 -0.1618
  214POPC   C1B 2938   0.774   1.543   5.027  0.2486  0.0440 -0.0115
  214POPC   C2B 2939   0.824   1.214   5.293 -0.0811  0.0398  0.0562
  214POPC   C3B 2940   0.701   0.934   5.606  0.0443  0.4405 -0.0334
  214POPC   C4B 2941   0.743   0.546   5.936  0.2970  0.3572  0.3427
  215POPC   NC3 2942   5.057   4.862   3.639  0.1146 -0.0220  0.2284
  215POPC   PO4 2943   5.455   4.673   3.558  0.2317 -0.2077 -0.0110
  215POPC   GL1 2944   5.213   4.504   3.960 -0.1634 -0.4089  0.0979
  215POPC   GL2 2945   5.158   4.210   3.992 -0.1194  0.1335 -0.0408
  215POPC   C1A 2946   5.435   4.515   4.381 -0.0465  0.3535 -0.1561
  215POPC   D2A 2947   5.748   4.429   4.665  0.2147  0.1376 -0.1069
  215POPC   C3A 2948   5.738   4.198   5.089  0.4383  0.2535  0.1900
  215POPC   C4A 2949   5.455   4.130   5.403  0.3346 -0.0048 -0.0581
  215POPC   C1B 2950   5.114   4.046   4.325 -0.1096 -0.3214  0.2319
  215POPC   C2B 2951   5.028   3.853   4.677 -0.0400 -0.1393 -0.3421
  215POPC   C3B 2952   5.044   3.872   5.209  0.1493  0.2007 -0.0737
  215POPC   C4B 2953   4.731   3.966   5.507 -0.1163 -0.1517  0.4047
  216POPC   NC3 2954   7.647   2.117   3.582  0.0306  0.0027 -0.2277
  216POPC   PO4 2955   7.733   1.649   3.499  0.0915  0.2249  0.1412
  216POPC   GL1 2956   7.584   1.569   3.884 -0.1984  0.3082  0.1577
  216POPC   GL2 2957   7.565   1.902   4.024 -0.0449  0.0146  0.1322
  216POPC   C1A 2958   7.233   1.292   4.210  0.2191  0.0657  0.1265
  216POPC   D2A 2959   6.976   0.951   4.221 -0.2961  0.1672 -0.0557
  216POPC   C3A 2960   6.861   0.799   4.669 -0.1865 -0.0107 -0.0043
  216POPC   C4A 2961   6.687   0.713   5.064  0.2145 -0.0762  0.2835
  216POPC   C1B 2962   7.414   1.658   4.475  0.0801 -0.1272  0.0621
  216POPC   C2B 2963   7.505   1.722   4.859  0.1515  0.1629 -0.0692
  216POPC   C3B 2964   7.497   1.822   5.333 -0.0475  0.1249  0.4459
  216POPC   C4B 2965   7.496   1.548   5.712 -0.2423 -0.0660  0.0535
  217POPC   NC3 2966   2.606   9.178   4.474 -0.0172  0.0739 -0.1888
  217POPC   PO4 2967   2.735   9.527   4.179  0.0178  0.1849 -0.1504
  217POPC   GL1 2968   2.502   9.605   4.528 -0.0287 -0.3733  0.4037
  217POPC   GL2 2969   2.288   9.890   4.555 -0.4268 -0.1310  0.0046
  217POPC   C1A 2970   2.661   9.612   5.014 -0.0486  0.2195 -0.0637
  217POPC   D2A 2971   2.712   9.341   5.425 -0.2974  0.0362 -0.1372
  217POPC   C3A 2972   3.132   9.229   5.721 -0.0880 -0.1937 -0.1016
  217POPC   C4A 2973   3.272   9.471   6.062  0.1779  0.0509 -0.1775
  217POPC   C1B 2974   2.075   9.928   4.887 -0.0504 -0.1984  0.0409
  217POPC   C2B 2975   1.878  10.080   5.321  0.2797  0.0505  0.1696
  217POPC   C3B 2976   1.903  10.365   5.615 -0.3341 -0.2539  0.1673
  217POPC   C4B 2977   2.141  10.452   6.047 -0.1468  0.2273  0.0063
  218POPC   NC3 2978   5.033   3.878   3.087  0.0416  0.0927  0.2841
  218POPC   PO4 2979   4.845   3.807   3.463  0.1478  0.0213  0.0778
  218POPC   GL1 2980   4.812   3.865   3.856 -0.0055  0.0203 -0.0402
  218POPC   GL2 2981   4.645   4.031   4.075 -0.3913 -0.1127  0.1327
  218POPC   C1A 2982   4.837   3.619   4.263  0.1589  0.0856 -0.1671
  218POPC   D2A 2983   4.868   3.367   4.600 -0.1866  0.2781 -0.0123
  218POPC   C3A 2984   4.715   3.479   4.917  0.2391  0.4428  0.3493
  218POPC   C4A 2985   4.632   3.570   5.300 -0.3528  0.1807 -0.3648
  218POPC   C1B 2986   4.492   3.910   4.523 -0.4915 -0.1258  0.0466
  218POPC   C2B 2987   4.405   3.871   5.002 -0.1744  0.0591 -0.2321
  218POPC   C3B 2988   4.211   3.986   5.496  0.0903 -0.2848 -0.0570
  218POPC   C4B 2989   4.139   4.127   5.903 -0.0266  0.6135 -0.0678
  219POPC   NC3 2990   4.346   1.544   3.497  0.1073 -0.1266  0.1471
  219POPC   PO4 2991   4.160   1.947   3.771 -0.1148  0.0178  0.0364
  219POPC   GL1 2992   4.094   1.792   4.210  0.0709 -0.0747 -0.1192
  219POPC   GL2 2993   3.851   1.690   4.318 -0.2366  0.4099 -0.1926
  219POPC   C1A 2994   3.998   2.016   4.652 -0.1784 -0.2602  0.2712
  219POPC   D2A 2995   3.711   2.137   4.901 -0.1572 -0.3631  0.1294
  219POPC   C3A 2996   3.641   2.575   4.956  0.3208  0.1335  0.1405
  219POPC   C4A 2997   3.638   2.865   4.632 -0.1771 -0.2104  0.0079
  219POPC   C1B 2998   3.606   1.383   4.670 -0.0195 -0.1137  0.2514
  219POPC   C2B 2999   3.741   1.360   5.091  0.2174  0.0160  0.2226
  219POPC   C3B 3000   3.986   1.287   5.489  0.2010  0.2233 -0.1262
  219POPC   C4B 3001   4.221   1.228   5.831 -0.2033  0.1197 -0.1824
  220POPC   NC3 3002   1.884   6.019   4.635  0.2451 -0.0676  0.3314
  220POPC   PO4 3003   1.489   6.203   4.714 -0.1585 -0.2113 -0.1911
  220POPC   GL1 3004   1.177   5.987   4.951  0.0401  0.2032  0.3808
  220POPC   GL2 3005   1.219   6.170   5.162  0.2481  0.0135  0.2255
  220POPC   C1A 3006   0.916   5.732   5.294 -0.1615  0.0031  0.1515
  220POPC   D2A 3007   1.010   5.811   5.704  0.2228 -0.2669  0.1695
  220POPC   C3A 3008   0.931   5.558   6.102  0.3162  0.1692  0.2516
  220POPC   C4A 3009   0.958   5.511   6.592  0.2355  0.0825  0.0109
  220POPC   C1B 3010   1.397   5.846   5.366  0.1896  0.1661 -0.0336
  220POPC   C2B 3011   1.381   5.576   5.855  0.3426  0.1312 -0.0813
  220POPC   C3B 3012   1.631   5.275   6.150  0.3917 -0.3171  0.1968
  220POPC   C4B 3013   1.872   4.885   6.402  0.0963  0.0764 -0.0009
  221POPC   NC3 3014   7.138   6.457   4.374 -0.2657 -0.0811  0.0006
  221POPC   PO4 3015   7.388   6.755   4.385  0.1042 -0.1352  0.1313
  221POPC   GL1 3016   7.394   6.639   4.831  0.3421  0.1178 -0.2243
  221POPC   GL2 3017   7.268   6.416   4.851 -0.2025  0.2664 -0.0131
  221POPC   C1A 3018   7.363   6.514   5.326 -0.2050  0.2951  0.2945
  221POPC   D2A 3019   7.112   6.237   5.622 -0.1341  0.0011 -0.0125
  221POPC   C3A 3020   7.419   6.268   5.960  0.3412  0.0416  0.1157
  221POPC   C4A 3021   7.705   6.008   6.154 -0.2231  0.2695 -0.2335
  221POPC   C1B 3022   7.292   6.102   5.059  0.0862 -0.1596 -0.3470
  221POPC   C2B 3023   7.283   5.790   5.400 -0.0019 -0.0463  0.1800
  221POPC   C3B 3024   7.364   5.767   5.903  0.0990 -0.1658 -0.0152
  221POPC   C4B 3025   7.358   5.704   6.248 -0.0658 -0.1527 -0.1627
  222POPC   NC3 3026   8.918   9.222   4.067 -0.3306 -0.3889 -0.0176
  222POPC   PO4 3027   9.294   9.512   4.083  0.1202 -0.2333 -0.1735
  222POPC   GL1 3028   9.613   9.504   4.514  0.0129 -0.0553 -0.2473
  222POPC   GL2 3029   9.877   9.579   4.479 -0.0777 -0.0930 -0.2591
  222POPC   C1A 3030   9.676   9.702   4.976 -0.2699 -0.0161 -0.0442
  222POPC   D2A 3031   9.609   9.780   5.361 -0.0676 -0.0026 -0.0634
  222POPC   C3A 3032   9.386  10.054   5.559 -0.0680 -0.0295  0.1290
  222POPC   C4A 3033   9.250  10.258   5.918  0.0821  0.0740  0.0054
  222POPC   C1B 3034   9.970   9.982   4.569  0.0910 -0.0115  0.0193
  222POPC   C2B 3035  10.142  10.346   4.738 -0.0690 -0.1123  0.1065
  222POPC   C3B 3036  10.115  10.658   5.065 -0.0664  0.1616 -0.0063
  222POPC   C4B 3037   9.965  10.999   5.390  0.2152 -0.0579  0.1687
  223POPC   NC3 3038   2.563   0.218   4.083  0.4555 -0.0731 -0.0241
  223POPC   PO4 3039   2.941   0.553   4.008  0.1441  0.2161 -0.2763
  223POPC   GL1 3040   3.013   0.460   4.389 -0.5713  0.2198  0.0298
  223POPC   GL2 3041   2.811   0.204   4.526  0.0583  0.1007  0.1215
  223POPC   C1A 3042   3.378   0.456   4.578  0.0970 -0.1891  0.2016
  223POPC   D2A 3043   3.793   0.434   4.673  0.0227 -0.0323 -0.1534
  223POPC   C3A 3044   4.072   0.047   4.901  0.2262 -0.4256  0.0743
  223POPC   C4A 3045   4.066  -0.441   4.884  0.0041 -0.1968  0.1492
  223POPC   C1B 3046   3.083   0.213   4.861  0.1810  0.2114  0.1060
  223POPC   C2B 3047   3.087   0.493   5.158  0.3181 -0.0597 -0.0470
  223POPC   C3B 3048   2.882   0.587   5.531 -0.0442  0.0287  0.3113
  223POPC   C4B 3049   2.719   0.485   5.945  0.0332 -0.0566 -0.0231
  224POPC   NC3 3050   5.626   8.106   4.149  0.1041 -0.1260 -0.0537
  224POPC   PO4 3051   5.195   8.198   4.123 -0.3642  0.2094 -0.0362
  224POPC   GL1 3052   5.298   8.580   4.329 -0.0498  0.0648 -0.0594
  224POPC   GL2 3053   5.047   8.774   4.476  0.3524 -0.3245  0.1341
  224POPC   C1A 3054   5.658   8.716   4.663 -0.2360  0.3817 -0.0589
  224POPC   D2A 3055   5.993   8.437   4.816 -0.3334 -0.1907  0.1558
  224POPC   C3A 3056   5.924   8.314   5.301  0.2139 -0.0121 -0.1091
  224POPC   C4A 3057   5.889   8.527   5.761  0.0043 -0.2922 -0.1838
  224POPC   C1B 3058   5.182   8.827   4.875 -0.1327  0.3840  0.1452
  224POPC   C2B 3059   5.166   8.812   5.275 -0.1538 -0.1757  0.2610
  224POPC   C3B 3060   5.419   8.818   5.621  0.2234 -0.0672  0.0464
  224POPC   C4B 3061   5.648   8.954   5.999  0.0031 -0.4490 -0.0240
  225POPC   NC3 3062   8.120   7.507   4.654  0.1422  0.2625 -0.0028
  225POPC   PO4 3063   7.696   7.778   4.555 -0.0376 -0.3580  0.0659
  225POPC   GL1 3064   7.930   7.919   4.902  0.3175 -0.0310 -0.1303
  225POPC   GL2 3065   8.089   7.740   5.065 -0.0989 -0.2459  0.1058
  225POPC   C1A 3066   8.271   8.165   5.258  0.2922  0.0571  0.4340
  225POPC   D2A 3067   8.467   8.090   5.608  0.1916 -0.1302 -0.4107
  225POPC   C3A 3068   8.853   8.225   5.748  0.1424 -0.0727 -0.2427
  225POPC   C4A 3069   9.080   8.583   5.923 -0.2667 -0.1119  0.0395
  225POPC   C1B 3070   7.940   7.740   5.516 -0.0833 -0.0584 -0.1712
  225POPC   C2B 3071   7.669   7.825   5.848  0.1386 -0.1497 -0.1896
  225POPC   C3B 3072   7.525   7.889   6.232 -0.2927 -0.1040 -0.2454
  225POPC   C4B 3073   7.390   7.771   6.553 -0.0566 -0.2477 -0.1455
  226POPC   NC3 3074   9.616   1.027   3.767 -0.0251  0.1242  0.0947
  226POPC   PO4 3075   9.085   0.899   3.779 -0.1949 -0.3576 -0.2656
  226POPC   GL1 3076   8.897   1.063   4.171  0.0334 -0.0654  0.1390
  226POPC   GL2 3077   8.999   1.391   4.272  0.2753  0.0549  0.1571
  226POPC   C1A 3078   8.707   0.949   4.521 -0.0452  0.1961  0.2898
  226POPC   D2A 3079   8.513   0.659   4.758  0.0091  0.2436 -0.1256
  226POPC   C3A 3080   8.478   0.719   5.225 -0.0440  0.0364  0.1246
  226POPC   C4A 3081   8.442   0.880   5.636 -0.1194  0.0083 -0.1435
  226POPC   C1B 3082   8.846   1.375   4.638  0.0035  0.1786 -0.1163
  226POPC   C2B 3083   8.639   1.208   5.046  0.4752  0.1501  0.4907
  226POPC   C3B 3084   8.645   1.294   5.521 -0.2399 -0.0959  0.2615
  226POPC   C4B 3085   8.847   1.438   5.864 -0.1645 -0.1546 -0.0565
  227POPC   NC3 3086   1.015   9.602   4.032  0.0486 -0.1743  0.0807
  227POPC   PO4 3087   1.531   9.625   3.953 -0.1045 -0.1884  0.0446
  227POPC   GL1 3088   1.724   9.514   4.321  0.0005  0.0643 -0.0075
  227POPC   GL2 3089   1.778   9.846   4.458  0.0104 -0.2084 -0.0416
  227POPC   C1A 3090   1.842   9.421   4.782  0.1999 -0.2633 -0.3615
  227POPC   D2A 3091   1.896   9.547   5.213 -0.0642  0.0385  0.2310
  227POPC   C3A 3092   2.288   9.710   5.413  0.1085 -0.2201 -0.1392
  227POPC   C4A 3093   2.335  10.045   5.672  0.0025 -0.1541  0.0987
  227POPC   C1B 3094   1.548   9.780   4.900 -0.1740 -0.2849 -0.2073
  227POPC   C2B 3095   1.301  10.068   5.128  0.0623  0.0588 -0.2895
  227POPC   C3B 3096   0.983  10.348   5.085  0.1525  0.0109  0.2545
  227POPC   C4B 3097   0.820  10.672   4.922 -0.1560 -0.1725  0.1824
  228POPC   NC3 3098   9.024   0.410   3.913  0.1516  0.0283 -0.2683
  228POPC   PO4 3099   8.580   0.258   3.944  0.1731  0.4926  0.1341
  228POPC   GL1 3100   8.737   0.372   4.430  0.1377  0.3350  0.0282
  228POPC   GL2 3101   8.776   0.055   4.710 -0.0749  0.1117 -0.1064
  228POPC   C1A 3102   8.986   0.527   4.753 -0.3033 -0.2082 -0.1860
  228POPC   D2A 3103   8.973   0.715   5.174  0.0704 -0.3355  0.1368
  228POPC   C3A 3104   9.404   0.787   5.500 -0.1340 -0.3608 -0.0866
  228POPC   C4A 3105   9.871   0.736   5.460  0.2097  0.0483 -0.2467
  228POPC   C1B 3106   8.816   0.241   5.148 -0.1048 -0.2227  0.0375
  228POPC   C2B 3107   8.696   0.416   5.552  0.2714  0.0036 -0.2221
  228POPC   C3B 3108   8.675   0.371   5.963  0.1318  0.0423  0.1565
  228POPC   C4B 3109   8.734   0.549   6.369 -0.0179 -0.0776 -0.1563
  229POPC   NC3 3110   1.436   1.378   3.965 -0.1289  0.1633  0.4432
  229POPC   PO4 3111   1.810   1.347   4.122 -0.0341 -0.4914  0.1510
  229POPC   GL1 3112   1.947   1.657   4.398  0.1349  0.2795 -0.0782
  229POPC   GL2 3113   2.270   1.462   4.393  0.0301 -0.3033  0.1938
  229POPC   C1A 3114   1.839   1.943   4.726  0.0646  0.0658 -0.0413
  229POPC   D2A 3115   1.703   2.151   5.199 -0.0823 -0.3281 -0.0645
  229POPC   C3A 3116   2.030   2.388   5.437 -0.3200  0.2984 -0.0539
  229POPC   C4A 3117   2.238   2.620   5.739  0.2186 -0.0493 -0.1184
  229POPC   C1B 3118   2.262   1.760   4.750  0.0833  0.0128 -0.2275
  229POPC   C2B 3119   1.983   1.598   5.141 -0.3638 -0.4203 -0.1347
  229POPC   C3B 3120   1.795   1.526   5.539 -0.1821  0.2274 -0.0680
  229POPC   C4B 3121   2.047   1.606   5.970  0.6497 -0.0763 -0.3649
  230POPC   NC3 3122   2.957   7.709   4.260  0.1103 -0.1316  0.1213
  230POPC   PO4 3123   2.649   7.659   4.574 -0.2985 -0.2587  0.1663
  230POPC   GL1 3124   2.458   7.638   4.970 -0.0919 -0.1204 -0.1004
  230POPC   GL2 3125   2.159   7.735   4.937  0.1557  0.1776 -0.0582
  230POPC   C1A 3126   2.433   7.944   5.390  0.1618  0.2302 -0.1167
  230POPC   D2A 3127   2.487   8.044   5.841 -0.2977  0.1144 -0.0562
  230POPC   C3A 3128   2.337   8.577   5.998 -0.1624  0.0656  0.3976
  230POPC   C4A 3129   2.446   9.011   5.858 -0.1752  0.0976  0.0475
  230POPC   C1B 3130   2.005   7.403   5.325  0.2451 -0.0952 -0.1554
  230POPC   C2B 3131   1.698   7.451   5.662 -0.3285 -0.0127  0.0291
  230POPC   C3B 3132   1.232   7.533   5.850 -0.0018 -0.1838 -0.1189
  230POPC   C4B 3133   0.903   7.307   5.889  0.3210 -0.0715  0.1319
  231POPC   NC3 3134   6.783   1.525   3.456 -0.3523 -0.2630  0.0003
  231POPC   PO4 3135   6.825   1.912   3.236  0.0167  0.0338 -0.1311
  231POPC   GL1 3136   6.819   1.946   3.709  0.2724 -0.0704 -0.4058
  231POPC   GL2 3137   7.116   1.802   3.698 -0.0229  0.0708  0.2818
  231POPC   C1A 3138   6.566   2.009   4.111  0.2125  0.1771  0.1016
  231POPC   D2A 3139   6.398   2.417   4.259 -0.3084  0.0009  0.0228
  231POPC   C3A 3140   6.113   2.512   4.613 -0.1199  0.2161  0.1706
  231POPC   C4A 3141   6.074   2.788   5.014  0.3285  0.2257 -0.2449
  231POPC   C1B 3142   7.054   1.897   4.130 -0.0440  0.0828  0.1332
  231POPC   C2B 3143   7.316   2.196   4.366 -0.0415  0.0755  0.4070
  231POPC   C3B 3144   7.452   2.248   4.779  0.2228  0.1515 -0.2587
  231POPC   C4B 3145   7.765   2.146   4.975 -0.1063  0.2058 -0.2713
  232POPC   NC3 3146   8.512   9.384   4.542  0.1895  0.2589  0.2183
  232POPC   PO4 3147   8.164   9.075   4.476 -0.1420 -0.0057 -0.1671
  232POPC   GL1 3148   7.986   9.129   4.832 -0.2819  0.2464  0.0336
  232POPC   GL2 3149   7.772   9.258   4.934  0.1638  0.1552 -0.1428
  232POPC   C1A 3150   7.944   8.840   5.156  0.1668 -0.1811  0.0671
  232POPC   D2A 3151   8.128   8.664   5.364 -0.0168 -0.2356  0.0633
  232POPC   C3A 3152   8.055   8.784   5.736 -0.1610  0.0553  0.4053
  232POPC   C4A 3153   8.090   8.693   6.112 -0.0719  0.2098 -0.2573
  232POPC   C1B 3154   7.676   9.669   4.962 -0.2592  0.1792  0.1244
  232POPC   C2B 3155   7.761   9.857   5.288  0.0170  0.0135 -0.1217
  232POPC   C3B 3156   7.598   9.757   5.666 -0.2621 -0.2536 -0.0010
  232POPC   C4B 3157   7.569   9.945   6.074 -0.2178 -0.1603  0.0009
  233POPC   NC3 3158   4.976   3.075   3.222 -0.2836 -0.0188  0.0602
  233POPC   PO4 3159   5.133   3.405   3.469  0.2143 -0.2551  0.2652
  233POPC   GL1 3160   5.095   3.409   3.875 -0.0287  0.2382 -0.2347
  233POPC   GL2 3161   5.256   3.595   4.119 -0.0909  0.0186 -0.1230
  233POPC   C1A 3162   5.016   3.008   4.031 -0.0270 -0.1308 -0.0328
  233POPC   D2A 3163   4.980   2.539   4.243 -0.1763 -0.0161  0.1798
  233POPC   C3A 3164   5.169   2.436   4.576 -0.0036 -0.1624  0.1489
  233POPC   C4A 3165   5.072   2.131   4.856 -0.2377 -0.0947 -0.4237
  233POPC   C1B 3166   5.393   3.483   4.484 -0.1814 -0.1167  0.0719
  233POPC   C2B 3167   5.454   3.697   4.929 -0.2878  0.2402 -0.1880
  233POPC   C3B 3168   5.486   3.595   5.376 -0.0442 -0.2937 -0.2772
  233POPC   C4B 3169   5.286   3.659   5.699 -0.2416  0.1400 -0.2900
  234POPC   NC3 3170   7.522   6.145   4.179 -0.1202  0.5128 -0.1178
  234POPC   PO4 3171   7.417   5.852   4.499 -0.1203 -0.0156 -0.0157
  234POPC   GL1 3172   7.355   5.593   4.841  0.1996 -0.1454 -0.0179
  234POPC   GL2 3173   7.770   5.450   4.812  0.2625  0.1862  0.0102
  234POPC   C1A 3174   7.199   5.341   5.135 -0.1835 -0.3251  0.1977
  234POPC   D2A 3175   7.316   5.236   5.640  0.2532  0.0855 -0.1792
  234POPC   C3A 3176   7.449   5.310   6.000 -0.2668  0.0017  0.0129
  234POPC   C4A 3177   7.564   5.282   6.429 -0.1400  0.1561  0.0575
  234POPC   C1B 3178   7.787   5.302   5.176  0.4667 -0.0483 -0.1506
  234POPC   C2B 3179   7.728   5.532   5.664  0.1464  0.1107 -0.0673
  234POPC   C3B 3180   7.903   5.524   6.063  0.1139 -0.1692  0.2827
  234POPC   C4B 3181   7.903   5.724   6.463  0.1695 -0.1788  0.1105
  235POPC   NC3 3182   2.726   5.024   4.258 -0.0843  0.1342  0.0688
  235POPC   PO4 3183   2.629   4.656   4.497 -0.1522  0.1699  0.3120
  235POPC   GL1 3184   2.943   4.572   4.817 -0.0896 -0.0183 -0.4785
  235POPC   GL2 3185   3.036   4.243   4.653  0.0364  0.2464  0.2497
  235POPC   C1A 3186   3.024   4.745   5.222  0.2215  0.0901  0.0748
  235POPC   D2A 3187   3.064   4.981   5.586  0.0792 -0.1483 -0.0756
  235POPC   C3A 3188   3.263   4.794   5.907  0.0021  0.2204  0.1124
  235POPC   C4A 3189   3.178   4.636   6.309 -0.0338  0.1214  0.0812
  235POPC   C1B 3190   2.947   3.881   4.885 -0.0498  0.1420 -0.0390
  235POPC   C2B 3191   2.642   3.747   5.149 -0.1711 -0.1460  0.0482
  235POPC   C3B 3192   2.585   3.905   5.526  0.2005  0.2752  0.2561
  235POPC   C4B 3193   2.394   3.721   5.971 -0.2074  0.0430  0.2060
  236POPC   NC3 3194   1.739   4.508   4.451 -0.1415 -0.0564 -0.2377
  236POPC   PO4 3195   1.502   4.260   4.291  0.2661 -0.0810 -0.0749
  236POPC   GL1 3196   1.447   4.247   4.787  0.1727 -0.1484  0.3223
  236POPC   GL2 3197   1.348   4.602   4.886  0.3202  0.1030  0.2785
  236POPC   C1A 3198   1.629   4.033   5.086 -0.3777  0.2969  0.1432
  236POPC   D2A 3199   1.575   3.839   5.473 -0.2476 -0.1874 -0.0707
  236POPC   C3A 3200   1.443   4.020   5.858 -0.4475  0.1504  0.0368
  236POPC   C4A 3201   1.112   4.097   6.040 -0.0398 -0.0182 -0.0576
  236POPC   C1B 3202   1.232   4.900   5.224 -0.1809  0.4410  0.3443
  236POPC   C2B 3203   1.053   5.142   5.538 -0.3809  0.2139  0.0554
  236POPC   C3B 3204   1.066   5.082   6.046  0.4695 -0.0905  0.0305
  236POPC   C4B 3205   1.315   5.036   6.476  0.2181 -0.0225 -0.0028
  237POPC   NC3 3206   0.261   5.701   4.553  0.0700  0.1241  0.0785
  237POPC   PO4 3207  -0.242   5.783   4.418  0.0129 -0.2954  0.2885
  237POPC   GL1 3208  -0.298   5.533   4.795 -0.1148 -0.2368 -0.0309
  237POPC   GL2 3209  -0.536   5.418   4.971 -0.1373 -0.1570 -0.0286
  237POPC   C1A 3210  -0.118   5.461   5.241  0.1227 -0.3090  0.1982
  237POPC   D2A 3211  -0.349   5.431   5.572  0.2402 -0.1909 -0.1199
  237POPC   C3A 3212  -0.303   5.776   5.717  0.0014 -0.0597  0.0094
  237POPC   C4A 3213  -0.472   6.101   5.862  0.2450 -0.0714 -0.2349
  237POPC   C1B 3214  -0.697   5.180   5.272 -0.3143 -0.0978  0.2362
  237POPC   C2B 3215  -0.835   5.147   5.596 -0.1104  0.1029  0.1270
  237POPC   C3B 3216  -0.897   5.143   6.026 -0.0866  0.0985 -0.3744
  237POPC   C4B 3217  -1.071   5.316   6.422 -0.0871 -0.0624 -0.2190
  238POPC   NC3 3218   4.030   4.783   4.250  0.3325  0.0701  0.1259
  238POPC   PO4 3219   4.160   4.271   4.143  0.0370 -0.3791  0.4648
  238POPC   GL1 3220   4.224   4.360   4.540  0.2546  0.0156  0.2122
  238POPC   GL2 3221   4.379   4.561   4.831 -0.0550  0.0258 -0.0097
  238POPC   C1A 3222   3.986   4.220   4.811 -0.0705  0.1299  0.3125
  238POPC   D2A 3223   3.928   3.869   5.055 -0.0537  0.3973  0.0273
  238POPC   C3A 3224   3.773   3.807   5.497 -0.3199  0.2505 -0.1189
  238POPC   C4A 3225   3.782   3.514   5.779 -0.1141 -0.0627  0.0427
  238POPC   C1B 3226   4.234   4.387   5.202 -0.1450 -0.0504 -0.0148
  238POPC   C2B 3227   3.851   4.329   5.423 -0.0897 -0.3302 -0.0567
  238POPC   C3B 3228   3.781   4.589   5.782  0.2671  0.1019 -0.1389
  238POPC   C4B 3229   3.684   4.527   6.212 -0.1278 -0.0140  0.1037
  239POPC   NC3 3230   1.479   3.827   4.098  0.0820 -0.1146 -0.0644
  239POPC   PO4 3231   1.311   3.326   4.407 -0.2559  0.1641  0.0288
  239POPC   GL1 3232   1.246   3.446   4.880  0.2233 -0.0340  0.2711
  239POPC   GL2 3233   1.244   3.765   4.877  0.2610  0.2782 -0.4548
  239POPC   C1A 3234   1.482   3.417   5.276 -0.1406  0.1661  0.0712
  239POPC   D2A 3235   1.740   3.445   5.689 -0.0970 -0.0818 -0.0456
  239POPC   C3A 3236   2.065   3.816   5.622  0.0569  0.0326 -0.3698
  239POPC   C4A 3237   2.201   4.238   5.393 -0.0807  0.2327  0.0635
  239POPC   C1B 3238   1.149   3.809   5.277 -0.2128  0.1446  0.0910
  239POPC   C2B 3239   1.193   3.565   5.707 -0.2927 -0.2998  0.0587
  239POPC   C3B 3240   1.522   3.633   6.097  0.0981  0.0448  0.1850
  239POPC   C4B 3241   1.711   3.808   6.492  0.0482 -0.2713  0.0946
  240POPC   NC3 3242   9.372   8.234   4.743 -0.1362 -0.1121 -0.0202
  240POPC   PO4 3243   9.630   7.859   4.677 -0.2205  0.1192 -0.0507
  240POPC   GL1 3244   9.631   7.912   5.071  0.0216 -0.1061  0.0980
  240POPC   GL2 3245   9.869   8.167   5.170 -0.3204 -0.0400 -0.1471
  240POPC   C1A 3246   9.795   7.844   5.460 -0.0770  0.4151  0.0129
  240POPC   D2A 3247   9.806   8.090   5.833 -0.0405  0.0877  0.1451
  240POPC   C3A 3248  10.131   8.161   6.126  0.3918  0.0241 -0.4655
  240POPC   C4A 3249  10.457   8.066   6.135  0.0543 -0.0581 -0.2513
  240POPC   C1B 3250   9.725   8.397   5.444 -0.1183 -0.0356 -0.1683
  240POPC   C2B 3251   9.667   8.591   5.847  0.0325 -0.0944 -0.0783
  240POPC   C3B 3252   9.607   8.777   6.187 -0.1289 -0.0313 -0.0984
  240POPC   C4B 3253   9.373   8.744   6.443 -0.0905  0.4759 -0.2846
  241POPC   NC3 3254   1.152   3.943   4.476  0.1055 -0.0717  0.1133
  241POPC   PO4 3255   0.843   3.641   4.542  0.0042  0.0389  0.0298
  241POPC   GL1 3256   0.765   3.873   4.971  0.0090 -0.0038 -0.0517
  241POPC   GL2 3257   0.973   4.172   4.950  0.1007 -0.1204  0.2759
  241POPC   C1A 3258   0.449   4.066   5.418 -0.3239 -0.2333  0.0214
  241POPC   D2A 3259   0.039   4.114   5.608 -0.2116  0.0966  0.5398
  241POPC   C3A 3260  -0.231   4.351   5.377  0.2414 -0.0315  0.3204
  241POPC   C4A 3261  -0.212   4.479   5.063 -0.2206  0.1104 -0.0736
  241POPC   C1B 3262   1.291   4.364   5.327  0.0767 -0.0885 -0.0261
  241POPC   C2B 3263   1.151   4.644   5.708 -0.4044 -0.0027  0.2913
  241POPC   C3B 3264   1.345   4.652   6.105 -0.0723  0.1109 -0.1999
  241POPC   C4B 3265   1.689   4.384   6.301  0.4510  0.3108  0.1387
  242POPC   NC3 3266   5.632   0.707   3.087 -0.1683  0.0665 -0.0657
  242POPC   PO4 3267   5.864   0.497   3.369  0.1758 -0.3120 -0.1086
  242POPC   GL1 3268   5.877   0.480   3.729 -0.1101  0.1569 -0.0821
  242POPC   GL2 3269   5.689   0.356   3.922  0.2370  0.0977  0.5679
  242POPC   C1A 3270   6.247   0.320   4.059  0.0684  0.1260 -0.1822
  242POPC   D2A 3271   6.239   0.017   4.395  0.2390  0.0901  0.2483
  242POPC   C3A 3272   6.569   0.038   4.756  0.0943  0.2738  0.0107
  242POPC   C4A 3273   6.873   0.340   4.836  0.0892 -0.3341  0.2086
  242POPC   C1B 3274   5.593   0.621   4.110 -0.0696 -0.1000  0.0481
  242POPC   C2B 3275   5.582   0.864   4.508  0.0390 -0.1345  0.2170
  242POPC   C3B 3276   5.390   0.836   4.882  0.4089  0.0028  0.1221
  242POPC   C4B 3277   5.389   0.874   5.299  0.0643 -0.1616  0.2054
  243POPC   NC3 3278   4.645   8.416   4.319 -0.3856  0.1981 -0.2173
  243POPC   PO4 3279   4.185   8.460   4.283  0.3524  0.1221 -0.0327
  243POPC   GL1 3280   4.382   8.496   4.754  0.1130 -0.2561 -0.1010
  243POPC   GL2 3281   4.044   8.363   4.878 -0.0194  0.2342  0.1970
  243POPC   C1A 3282   4.735   8.522   4.959 -0.1811 -0.0641 -0.2721
  243POPC   D2A 3283   4.993   8.308   5.248  0.0827  0.0185 -0.0215
  243POPC   C3A 3284   4.978   7.883   5.143 -0.1685  0.0931 -0.3780
  243POPC   C4A 3285   5.223   7.556   5.038 -0.2669 -0.1631  0.0259
  243POPC   C1B 3286   4.130   8.729   5.098  0.4412 -0.2499  0.2043
  243POPC   C2B 3287   4.103   9.043   5.426 -0.0619 -0.1653 -0.0034
  243POPC   C3B 3288   4.200   9.347   5.767  0.1240 -0.1663 -0.1388
  243POPC   C4B 3289   4.361   9.574   6.154  0.0484  0.0724 -0.0273
  244POPC   NC3 3290   9.722   9.212   4.084  0.4631 -0.2037  0.4040
  244POPC   PO4 3291   9.940   9.647   3.964  0.0559 -0.3310  0.1560
  244POPC   GL1 3292   9.636   9.926   4.202 -0.0437  0.4482  0.0457
  244POPC   GL2 3293   9.304  10.023   4.285 -0.3494 -0.1616  0.0693
  244POPC   C1A 3294   9.562  10.262   4.641  0.1596 -0.1922 -0.1901
  244POPC   D2A 3295   9.858  10.170   5.064 -0.0948 -0.4381  0.0294
  244POPC   C3A 3296  10.236  10.235   5.294  0.0171  0.1895  0.3051
  244POPC   C4A 3297  10.498   9.970   5.473 -0.0826 -0.0214  0.0203
  244POPC   C1B 3298   9.295   9.823   4.666  0.0519 -0.1547 -0.1310
  244POPC   C2B 3299   9.186   9.622   5.062  0.1446  0.4721 -0.0470
  244POPC   C3B 3300   9.049   9.642   5.443  0.1012  0.0648  0.0435
  244POPC   C4B 3301   9.117   9.690   5.891  0.1688  0.2197  0.4613
  245POPC   NC3 3302   0.020   1.493   3.620  0.0258 -0.0189 -0.1027
  245POPC   PO4 3303   0.391   1.217   3.732  0.1234  0.0843  0.2457
  245POPC   GL1 3304   0.424   1.043   4.112  0.2793  0.1735  0.1882
  245POPC   GL2 3305   0.701   0.982   4.292 -0.1036 -0.1818 -0.2900
  245POPC   C1A 3306   0.122   0.819   4.344 -0.0200 -0.2146  0.1799
  245POPC   D2A 3307  -0.017   0.957   4.770 -0.1654 -0.4342  0.0021
  245POPC   C3A 3308  -0.247   0.754   5.021 -0.1492  0.1154 -0.2511
  245POPC   C4A 3309  -0.420   0.344   5.087  0.0172  0.1760  0.0157
  245POPC   C1B 3310   0.456   1.162   4.658 -0.2556 -0.3558  0.1624
  245POPC   C2B 3311   0.316   1.505   4.929  0.0102  0.1662  0.0539
  245POPC   C3B 3312   0.411   1.908   5.067  0.1095  0.2694 -0.1548
  245POPC   C4B 3313   0.763   2.093   5.228 -0.1339  0.1352 -0.1228
  246POPC   NC3 3314   1.376   2.916   3.996  0.0050 -0.3210  0.0471
  246POPC   PO4 3315   1.689   2.680   4.314 -0.0388 -0.2450 -0.0316
  246POPC   GL1 3316   1.728   2.600   4.789 -0.0050  0.1810 -0.0303
  246POPC   GL2 3317   1.476   2.362   4.835  0.0033 -0.2445 -0.0231
  246POPC   C1A 3318   1.729   2.706   5.229  0.1919 -0.1563  0.2542
  246POPC   D2A 3319   1.552   2.550   5.698  0.1313  0.1739 -0.1590
  246POPC   C3A 3320   1.817   2.529   5.998 -0.2875 -0.0504 -0.1665
  246POPC   C4A 3321   1.927   2.571   6.488  0.0813 -0.1811  0.1487
  246POPC   C1B 3322   1.179   2.450   5.231  0.0975 -0.2366 -0.0933
  246POPC   C2B 3323   1.057   2.286   5.685  0.2225 -0.2269  0.1681
  246POPC   C3B 3324   1.220   2.300   6.146  0.0123 -0.0092  0.1127
  246POPC   C4B 3325   1.368   2.541   6.342 -0.2925  0.1295 -0.1428
  247POPC   NC3 3326   7.278   8.868   4.189 -0.0839  0.2087 -0.1200
  247POPC   PO4 3327   6.850   8.828   4.276 -0.3182  0.1422 -0.1164
  247POPC   GL1 3328   6.918   9.025   4.652  0.0927  0.1870  0.2360
  247POPC   GL2 3329   7.123   9.201   4.552  0.0185 -0.1256  0.1517
  247POPC   C1A 3330   6.900   9.005   5.111 -0.0489  0.1748 -0.4379
  247POPC   D2A 3331   6.986   8.986   5.655  0.1522  0.1626  0.1443
  247POPC   C3A 3332   6.808   9.402   5.899  0.1842 -0.0227 -0.1650
  247POPC   C4A 3333   6.363   9.414   6.207 -0.0143 -0.1526 -0.1123
  247POPC   C1B 3334   7.266   9.221   4.945 -0.4588 -0.0699 -0.0009
  247POPC   C2B 3335   7.368   9.354   5.372 -0.0047  0.1056 -0.0689
  247POPC   C3B 3336   7.314   9.356   5.847  0.3308  0.3219 -0.1941
  247POPC   C4B 3337   7.171   9.316   6.280 -0.0828  0.1827 -0.0524
  248POPC   NC3 3338   1.980   3.548   4.033  0.1282 -0.0579  0.3305
  248POPC   PO4 3339   2.296   3.315   4.014  0.0016 -0.1657  0.0879
  248POPC   GL1 3340   2.258   3.369   4.407  0.2492 -0.0557  0.0398
  248POPC   GL2 3341   2.289   3.101   4.580 -0.0433 -0.2955  0.1698
  248POPC   C1A 3342   2.276   3.576   4.775  0.0575 -0.0835  0.2184
  248POPC   D2A 3343   2.051   3.582   5.164 -0.1811 -0.2869 -0.0182
  248POPC   C3A 3344   2.011   3.215   5.317  0.5473  0.2278  0.0248
  248POPC   C4A 3345   2.266   2.875   5.341  0.1899 -0.0757  0.0550
  248POPC   C1B 3346   2.145   2.868   4.832 -0.2429 -0.1816 -0.0407
  248POPC   C2B 3347   2.186   2.406   4.939 -0.0643  0.0698 -0.0877
  248POPC   C3B 3348   2.202   2.041   5.140  0.1083 -0.2111 -0.0782
  248POPC   C4B 3349   2.197   1.951   5.498 -0.0997 -0.1402  0.0011
  249POPC   NC3 3350   8.233   6.200   4.338  0.3254  0.4604 -0.0417
  249POPC   PO4 3351   8.649   6.200   4.444 -0.1654  0.2092  0.1045
  249POPC   GL1 3352   8.689   6.175   4.918 -0.0277  0.0302  0.0986
  249POPC   GL2 3353   8.767   6.474   5.138  0.0749  0.0865 -0.1862
  249POPC   C1A 3354   8.824   5.897   5.133 -0.0365 -0.3375  0.2015
  249POPC   D2A 3355   9.187   5.867   5.186 -0.1380  0.3063  0.0323
  249POPC   C3A 3356   9.495   6.228   5.370  0.0531  0.1970  0.2779
  249POPC   C4A 3357   9.665   6.591   5.276 -0.2472  0.0530  0.0090
  249POPC   C1B 3358   8.737   6.688   5.438 -0.0835 -0.3158 -0.0020
  249POPC   C2B 3359   8.875   6.653   5.902 -0.2849  0.1413 -0.0877
  249POPC   C3B 3360   9.298   6.577   6.103 -0.2524  0.3016  0.1566
  249POPC   C4B 3361   9.473   6.242   6.285  0.0282 -0.0295 -0.2446
  250POPC   NC3 3362   4.726   0.244   3.123  0.1373  0.0829 -0.4871
  250POPC   PO4 3363   5.087   0.449   3.136  0.1535 -0.1367 -0.3561
  250POPC   GL1 3364   5.179   0.877   3.277 -0.1754  0.3129 -0.0510
  250POPC   GL2 3365   4.924   0.840   3.549 -0.0950  0.1659  0.1132
  250POPC   C1A 3366   5.395   1.011   3.729  0.0234 -0.1565 -0.3039
  250POPC   D2A 3367   5.384   1.164   4.150 -0.0268 -0.0813 -0.0956
  250POPC   C3A 3368   5.097   1.155   4.555  0.0001 -0.0610  0.0936
  250POPC   C4A 3369   4.897   1.545   4.725 -0.2342  0.0894  0.1668
  250POPC   C1B 3370   4.999   0.783   3.965  0.1317  0.1820 -0.2234
  250POPC   C2B 3371   4.851   0.719   4.456 -0.5535 -0.3548  0.2716
  250POPC   C3B 3372   4.775   0.384   4.714 -0.0395  0.1427 -0.3628
  250POPC   C4B 3373   4.424   0.390   5.073 -0.0424  0.1200  0.2212
  251POPC   NC3 3374   6.478   4.401   3.750 -0.1325 -0.4724 -0.0723
  251POPC   PO4 3375   6.186   4.042   3.730 -0.0676  0.0539  0.0245
  251POPC   GL1 3376   6.436   3.827   4.038  0.4333 -0.0641 -0.2006
  251POPC   GL2 3377   6.298   3.530   4.126 -0.1826  0.0185  0.2997
  251POPC   C1A 3378   6.596   3.895   4.403 -0.0084 -0.2034  0.1720
  251POPC   D2A 3379   6.448   3.829   4.843  0.1266  0.0605 -0.0571
  251POPC   C3A 3380   6.659   3.550   5.108 -0.0205 -0.2750  0.0404
  251POPC   C4A 3381   7.024   3.322   5.132 -0.1992 -0.0138 -0.3237
  251POPC   C1B 3382   6.275   3.471   4.497  0.1578  0.1586 -0.0080
  251POPC   C2B 3383   6.259   3.350   4.888 -0.2530 -0.3434  0.1493
  251POPC   C3B 3384   6.187   3.206   5.274 -0.0660 -0.1318 -0.1867
  251POPC   C4B 3385   6.182   3.500   5.609  0.0856 -0.0622  0.3099
  252POPC   NC3 3386   5.336   3.857   3.708 -0.0758  0.0635 -0.0816
  252POPC   PO4 3387   5.712   4.181   3.727 -0.1257  0.0985 -0.0264
  252POPC   GL1 3388   5.626   4.009   4.178  0.1141 -0.4012  0.1855
  252POPC   GL2 3389   5.978   3.889   4.366 -0.0068 -0.1234  0.0088
  252POPC   C1A 3390   5.535   4.017   4.531 -0.0512 -0.1378 -0.1024
  252POPC   D2A 3391   5.312   4.284   4.877  0.1687  0.0227  0.1681
  252POPC   C3A 3392   5.378   4.758   5.015  0.1003  0.4420 -0.1604
  252POPC   C4A 3393   5.643   5.051   5.255 -0.2074 -0.0879  0.1801
  252POPC   C1B 3394   5.978   3.811   4.751  0.0071 -0.1510 -0.0947
  252POPC   C2B 3395   5.966   3.713   5.182 -0.2985 -0.2768 -0.0695
  252POPC   C3B 3396   5.852   3.894   5.627 -0.1606  0.2029  0.0679
  252POPC   C4B 3397   5.633   3.947   5.981  0.0058 -0.4584 -0.0968
  253POPC   NC3 3398   0.133   3.248   3.996 -0.3300  0.1736 -0.0700
  253POPC   PO4 3399   0.460   2.890   4.045 -0.0987 -0.2935  0.0085
  253POPC   GL1 3400   0.528   2.835   4.500  0.1508 -0.2307  0.3830
  253POPC   GL2 3401   0.332   2.521   4.647 -0.0937 -0.0272  0.4464
  253POPC   C1A 3402   0.383   2.913   4.991 -0.0682  0.1947  0.0619
  253POPC   D2A 3403   0.329   3.009   5.416  0.0931 -0.2631 -0.0853
  253POPC   C3A 3404   0.003   2.646   5.635  0.0425  0.1739  0.0975
  253POPC   C4A 3405   0.110   2.344   5.870 -0.1013 -0.1415  0.1344
  253POPC   C1B 3406   0.208   2.341   4.961  0.0884 -0.1725 -0.3205
  253POPC   C2B 3407   0.202   2.262   5.346 -0.3805  0.3572 -0.3549
  253POPC   C3B 3408   0.308   1.859   5.561  0.0338 -0.5071  0.2061
  253POPC   C4B 3409   0.631   1.654   5.476  0.0294  0.1462 -0.2174
  254POPC   NC3 3410   9.079   7.196   4.606  0.2584 -0.0058 -0.0365
  254POPC   PO4 3411   9.470   6.923   4.578  0.1093 -0.0614 -0.2799
  254POPC   GL1 3412   9.533   7.056   4.968  0.4416 -0.1052 -0.0873
  254POPC   GL2 3413   9.482   7.445   4.994 -0.0419  0.4217  0.0084
  254POPC   C1A 3414   9.459   7.047   5.383 -0.0502  0.0360  0.1356
  254POPC   D2A 3415   9.615   6.808   5.791 -0.0164 -0.3321 -0.1066
  254POPC   C3A 3416   9.754   6.348   5.821  0.1730 -0.4438 -0.3460
  254POPC   C4A 3417   9.827   6.000   6.004  0.2799 -0.0351  0.3287
  254POPC   C1B 3418   9.290   7.629   5.314  0.0408 -0.1348 -0.0859
  254POPC   C2B 3419   9.372   7.802   5.731 -0.2348  0.1881  0.1842
  254POPC   C3B 3420   9.269   8.141   6.031 -0.2841  0.0325  0.1835
  254POPC   C4B 3421   9.568   8.249   6.286  0.1317  0.1687  0.2017
  255POPC   NC3 3422   9.411   3.012   4.241  0.1797  0.0162  0.0514
  255POPC   PO4 3423   9.815   2.934   4.388 -0.3497 -0.0481 -0.0528
  255POPC   GL1 3424   9.598   2.679   4.672  0.0906 -0.1653 -0.1376
  255POPC   GL2 3425   9.253   2.655   4.609  0.1191 -0.2341 -0.1037
  255POPC   C1A 3426   9.596   2.751   5.180 -0.1797  0.1674  0.0354
  255POPC   D2A 3427   9.284   2.721   5.504  0.0847 -0.0202 -0.2768
  255POPC   C3A 3428   9.236   3.094   5.854  0.0674  0.1168  0.0548
  255POPC   C4A 3429   8.862   3.331   6.027 -0.0283  0.2725  0.2001
  255POPC   C1B 3430   9.137   2.665   5.049  0.2968  0.1423  0.0852
  255POPC   C2B 3431   8.725   2.672   5.268 -0.1330  0.0553  0.0039
  255POPC   C3B 3432   8.465   2.823   5.496 -0.0486 -0.1238 -0.2402
  255POPC   C4B 3433   8.482   3.062   5.901  0.3628  0.2231  0.2236
  256POPC   NC3 3434   0.707   4.844   4.329 -0.2276  0.0521 -0.0585
  256POPC   PO4 3435   0.396   4.840   4.606  0.0153 -0.0920  0.2274
  256POPC   GL1 3436   0.333   4.599   4.828 -0.1360  0.3510  0.1232
  256POPC   GL2 3437   0.294   4.262   4.909 -0.1506 -0.0098  0.2286
  256POPC   C1A 3438   0.230   4.548   5.265  0.5085 -0.2397  0.0552
  256POPC   D2A 3439   0.132   4.640   5.635 -0.1700  0.4054  0.0649
  256POPC   C3A 3440  -0.052   4.480   6.004  0.1378 -0.0388 -0.1571
  256POPC   C4A 3441  -0.237   4.078   6.046  0.0885 -0.2031 -0.0743
  256POPC   C1B 3442   0.028   3.963   4.996  0.0427  0.0026 -0.1694
  256POPC   C2B 3443  -0.164   3.620   5.115  0.2944 -0.0204 -0.1333
  256POPC   C3B 3444  -0.377   3.230   5.351  0.1397  0.1979 -0.1552
  256POPC   C4B 3445  -0.111   3.149   5.659 -0.2758 -0.1393 -0.0458
  257POPC   NC3 3446   8.379   2.586   3.898  0.0746  0.0453  0.1858
  257POPC   PO4 3447   8.041   2.411   3.727 -0.1536  0.0776 -0.0666
  257POPC   GL1 3448   7.916   2.435   4.093  0.1391  0.0429  0.0567
  257POPC   GL2 3449   7.722   2.491   4.440 -0.1075  0.0539  0.2368
  257POPC   C1A 3450   7.948   2.040   4.369 -0.1857 -0.0521  0.1576
  257POPC   D2A 3451   7.912   1.664   4.538  0.0932  0.1370  0.3589
  257POPC   C3A 3452   7.954   1.672   5.022  0.1745 -0.1776 -0.1423
  257POPC   C4A 3453   8.072   1.888   5.446 -0.0618  0.1715 -0.1369
  257POPC   C1B 3454   7.846   2.613   4.871 -0.2113 -0.0648  0.2725
  257POPC   C2B 3455   7.978   2.814   5.300  0.5635  0.1376  0.0840
  257POPC   C3B 3456   7.993   3.143   5.665  0.1887  0.3988  0.0106
  257POPC   C4B 3457   7.749   3.107   6.072 -0.1720  0.3322  0.0082
  258POPC   NC3 3458   5.355   5.197   3.834 -0.1637 -0.3656 -0.2619
  258POPC   PO4 3459   5.313   5.379   4.251 -0.5398  0.2769  0.0710
  258POPC   GL1 3460   5.420   5.062   4.466 -0.2336  0.0479 -0.2250
  258POPC   GL2 3461   5.290   5.100   4.712 -0.1400 -0.0198  0.1466
  258POPC   C1A 3462   5.805   5.002   4.791  0.0290 -0.2709  0.0120
  258POPC   D2A 3463   5.960   4.637   5.106  0.3271  0.1008  0.0250
  258POPC   C3A 3464   6.054   4.799   5.520  0.3141 -0.1892  0.0955
  258POPC   C4A 3465   6.212   5.075   5.774 -0.2196 -0.0888  0.1518
  258POPC   C1B 3466   5.299   5.433   5.104 -0.0276 -0.1249  0.0403
  258POPC   C2B 3467   5.503   5.456   5.510  0.0903  0.1842 -0.0760
  258POPC   C3B 3468   5.661   5.842   5.844  0.0455 -0.1107  0.1246
  258POPC   C4B 3469   5.910   5.906   6.174  0.2974 -0.1792 -0.1921
  259POPC   NC3 3470   8.522   4.816   4.242  0.1002 -0.1434 -0.0624
  259POPC   PO4 3471   8.627   5.218   4.205  0.0295 -0.1692  0.0435
  259POPC   GL1 3472   8.616   5.530   4.616 -0.0658 -0.0635  0.1179
  259POPC   GL2 3473   8.486   5.772   4.687  0.0418  0.0219 -0.0767
  259POPC   C1A 3474   8.701   5.436   4.990 -0.1868  0.0967  0.0058
  259POPC   D2A 3475   8.710   5.507   5.435  0.0301 -0.0246  0.1928
  259POPC   C3A 3476   8.976   5.673   5.747 -0.1924  0.2109 -0.1137
  259POPC   C4A 3477   9.270   5.798   6.226 -0.3605 -0.0544 -0.0141
  259POPC   C1B 3478   8.250   5.752   5.073 -0.1005  0.0585 -0.0688
  259POPC   C2B 3479   8.172   5.803   5.538 -0.1226 -0.1626 -0.2026
  259POPC   C3B 3480   8.130   5.985   5.843 -0.2034  0.0716  0.0156
  259POPC   C4B 3481   8.297   6.062   6.186  0.2608  0.0288 -0.1120
  260POPC   NC3 3482   4.451   5.559   4.269 -0.0803  0.0059 -0.2309
  260POPC   PO4 3483   4.057   5.806   4.414 -0.0592  0.2165  0.1982
  260POPC   GL1 3484   4.102   5.786   4.825  0.0952  0.3444 -0.2121
  260POPC   GL2 3485   3.930   5.457   4.910  0.2528 -0.0867  0.1992
  260POPC   C1A 3486   4.172   6.007   5.223  0.0438  0.2792 -0.3319
  260POPC   D2A 3487   3.963   6.167   5.491 -0.2758  0.0250 -0.0835
  260POPC   C3A 3488   3.676   6.509   5.611 -0.4105 -0.1345 -0.3071
  260POPC   C4A 3489   3.615   6.953   5.700 -0.2535 -0.1871 -0.1077
  260POPC   C1B 3490   4.210   5.450   5.286  0.0012  0.0358  0.0996
  260POPC   C2B 3491   4.100   5.656   5.691  0.0225  0.4912  0.5512
  260POPC   C3B 3492   4.218   5.936   5.946 -0.0652 -0.2121  0.2095
  260POPC   C4B 3493   4.317   6.401   5.891  0.0577 -0.1174 -0.2368
  261POPC   NC3 3494   6.037   7.300   4.034  0.1884 -0.1930  0.2421
  261POPC   PO4 3495   6.322   7.319   4.395 -0.0597  0.1476  0.2013
  261POPC   GL1 3496   6.164   7.276   4.761 -0.2467 -0.0373  0.5061
  261POPC   GL2 3497   6.395   7.676   4.909 -0.1557  0.0429 -0.4096
  261POPC   C1A 3498   6.121   7.128   5.213  0.0259  0.5107  0.1339
  261POPC   D2A 3499   6.036   7.198   5.651 -0.1009  0.1851 -0.0236
  261POPC   C3A 3500   5.798   7.112   6.069 -0.1870  0.1700 -0.4733
  261POPC   C4A 3501   5.874   6.852   6.470 -0.0568  0.0099  0.0450
  261POPC   C1B 3502   6.159   7.651   5.296 -0.2385 -0.1836 -0.0008
  261POPC   C2B 3503   5.927   7.919   5.608  0.3134  0.0172 -0.0620
  261POPC   C3B 3504   5.499   7.914   5.827  0.0619 -0.1729 -0.1587
  261POPC   C4B 3505   5.130   7.697   5.618 -0.0610  0.0808 -0.2606
  262POPC   NC3 3506   2.342   2.878   4.160  0.2111  0.0796  0.0072
  262POPC   PO4 3507   2.782   2.723   4.053  0.2878 -0.2200 -0.3342
  262POPC   GL1 3508   2.949   2.764   4.482  0.2072 -0.2182  0.0958
  262POPC   GL2 3509   2.800   2.637   4.672  0.3224  0.1110 -0.2465
  262POPC   C1A 3510   3.118   3.076   4.718 -0.2124 -0.1496  0.0044
  262POPC   D2A 3511   3.148   3.376   4.971  0.2698  0.0307  0.1129
  262POPC   C3A 3512   2.964   3.361   5.314  0.2373 -0.1761  0.0320
  262POPC   C4A 3513   2.923   3.410   5.715 -0.3052 -0.0318 -0.2681
  262POPC   C1B 3514   2.604   2.610   5.005  0.1624  0.0056 -0.0707
  262POPC   C2B 3515   2.554   2.384   5.422  0.2883 -0.0232  0.1238
  262POPC   C3B 3516   2.673   2.208   5.775 -0.0442 -0.2185 -0.0990
  262POPC   C4B 3517   3.005   2.086   6.038  0.2263  0.0676 -0.1733
  263POPC   NC3 3518   1.189   5.019   4.582  0.3807 -0.0830  0.1996
  263POPC   PO4 3519   1.588   5.208   4.510 -0.0014  0.1304  0.2933
  263POPC   GL1 3520   1.773   4.887   4.833  0.0223 -0.1768  0.0841
  263POPC   GL2 3521   2.012   5.028   5.088  0.0969  0.3252  0.0600
  263POPC   C1A 3522   1.795   4.506   5.120 -0.1595 -0.2932  0.0433
  263POPC   D2A 3523   1.765   4.341   5.616 -0.0311 -0.0340  0.1563
  263POPC   C3A 3524   2.024   4.293   5.887 -0.0433 -0.0738  0.1369
  263POPC   C4A 3525   1.922   3.974   6.094 -0.1019  0.2493 -0.3599
  263POPC   C1B 3526   2.359   4.929   5.074 -0.0435  0.1684  0.1527
  263POPC   C2B 3527   2.561   4.667   5.340  0.0189  0.0006  0.0041
  263POPC   C3B 3528   2.466   4.573   5.672  0.1888 -0.0152  0.2874
  263POPC   C4B 3529   2.673   4.718   6.056 -0.2037 -0.2545  0.1619
  264POPC   NC3 3530   6.460   3.062   2.797 -0.0123  0.1486 -0.3490
  264POPC   PO4 3531   6.428   2.757   3.149  0.2669  0.3640 -0.1547
  264POPC   GL1 3532   6.290   2.846   3.603  0.2658 -0.1786 -0.2345
  264POPC   GL2 3533   6.119   3.176   3.838 -0.0079 -0.3221 -0.0602
  264POPC   C1A 3534   6.149   2.647   3.870  0.1795  0.2720  0.1365
  264POPC   D2A 3535   5.927   2.380   4.143 -0.1194  0.1385 -0.0592
  264POPC   C3A 3536   6.058   1.950   4.390  0.1546 -0.2174  0.0083
  264POPC   C4A 3537   6.299   1.583   4.540  0.1054  0.3080 -0.4342
  264POPC   C1B 3538   5.846   2.974   4.034 -0.0045 -0.2241 -0.2034
  264POPC   C2B 3539   5.480   3.102   4.169 -0.0071  0.1378 -0.0795
  264POPC   C3B 3540   5.245   3.028   4.557 -0.1934  0.1513 -0.2502
  264POPC   C4B 3541   4.988   2.918   4.832  0.2596  0.2821 -0.2079
  265POPC   NC3 3542   0.086   1.966   4.147 -0.0913 -0.0224 -0.0414
  265POPC   PO4 3543   0.101   1.535   4.152  0.1629 -0.3379  0.0698
  265POPC   GL1 3544   0.001   1.392   4.522  0.1793  0.0054  0.0688
  265POPC   GL2 3545  -0.309   1.300   4.432 -0.0695 -0.3893  0.0930
  265POPC   C1A 3546  -0.146   1.410   4.904  0.1628  0.2910  0.3263
  265POPC   D2A 3547  -0.230   1.470   5.379  0.0978  0.2451 -0.2656
  265POPC   C3A 3548   0.008   1.535   5.728  0.2165  0.0224  0.3208
  265POPC   C4A 3549   0.045   1.445   6.110  0.2052  0.2639 -0.2612
  265POPC   C1B 3550  -0.549   1.005   4.769  0.3093 -0.0655 -0.2329
  265POPC   C2B 3551  -0.608   1.152   5.233  0.1438 -0.1655 -0.3319
  265POPC   C3B 3552  -0.791   0.936   5.651 -0.0486 -0.0358  0.1337
  265POPC   C4B 3553  -0.710   1.040   6.032  0.2301 -0.0252  0.0991
  266POPC   NC3 3554   7.882   9.123   4.009 -0.1289  0.3049 -0.0956
  266POPC   PO4 3555   7.655   9.088   4.441 -0.2396 -0.3418 -0.3929
  266POPC   GL1 3556   7.559   8.805   4.838  0.0419  0.1532  0.0443
  266POPC   GL2 3557   7.260   8.650   4.901 -0.0262  0.1512  0.2709
  266POPC   C1A 3558   7.520   8.847   5.336 -0.0225 -0.1268  0.1533
  266POPC   D2A 3559   7.500   8.694   5.810 -0.1689 -0.0449  0.3329
  266POPC   C3A 3560   7.147   8.836   6.049  0.1963  0.0396 -0.0018
  266POPC   C4A 3561   6.721   8.992   6.202  0.0652  0.0530 -0.2109
  266POPC   C1B 3562   7.132   8.507   5.365 -0.3669 -0.2581  0.0139
  266POPC   C2B 3563   6.880   8.405   5.800 -0.0427  0.1215  0.1446
  266POPC   C3B 3564   6.797   7.983   6.050 -0.3455 -0.1150 -0.1173
  266POPC   C4B 3565   6.935   7.931   6.445 -0.2892 -0.0975 -0.1299
  267POPC   NC3 3566   0.179   7.450   4.647  0.0639 -0.0596  0.0724
  267POPC   PO4 3567   0.490   7.769   4.673  0.0586  0.0304 -0.0876
  267POPC   GL1 3568   0.630   8.001   5.069  0.2018 -0.2238 -0.1175
  267POPC   GL2 3569   0.502   7.813   5.331 -0.2602 -0.2020  0.0388
  267POPC   C1A 3570   0.939   8.179   5.375  0.0193  0.0806  0.0555
  267POPC   D2A 3571   1.047   8.288   5.797  0.1605 -0.4519  0.2679
  267POPC   C3A 3572   1.189   8.675   5.858  0.0162 -0.1818 -0.1659
  267POPC   C4A 3573   1.157   9.046   6.133 -0.0037  0.0054  0.2216
  267POPC   C1B 3574   0.449   8.208   5.562 -0.0186  0.3102  0.2622
  267POPC   C2B 3575   0.442   8.531   5.894 -0.2903 -0.0045  0.3408
  267POPC   C3B 3576   0.765   8.576   6.156 -0.0315 -0.2683  0.2846
  267POPC   C4B 3577   0.978   8.792   6.509  0.1094  0.2730  0.1046
  268POPC   NC3 3578   1.477   5.726   4.395 -0.0947 -0.1245  0.0149
  268POPC   PO4 3579   1.929   5.603   4.310 -0.2020  0.2226  0.0692
  268POPC   GL1 3580   1.921   5.488   4.748 -0.0805  0.1459  0.1413
  268POPC   GL2 3581   1.657   5.648   4.965 -0.0262  0.1306  0.0453
  268POPC   C1A 3582   2.253   5.620   5.147  0.2070  0.5143  0.1726
  268POPC   D2A 3583   2.260   5.410   5.528  0.0978 -0.2416 -0.1244
  268POPC   C3A 3584   2.104   5.120   5.796 -0.1202 -0.0269  0.3048
  268POPC   C4A 3585   2.198   4.803   6.043  0.1509 -0.3284  0.0865
  268POPC   C1B 3586   1.662   5.440   5.328  0.2131 -0.0072 -0.3586
  268POPC   C2B 3587   1.664   5.249   5.661 -0.1970 -0.2547  0.0880
  268POPC   C3B 3588   1.712   4.804   5.802  0.1513  0.1496 -0.2690
  268POPC   C4B 3589   2.066   4.766   5.476  0.3670 -0.1423  0.2209
  269POPC   NC3 3590   1.341   2.355   4.174  0.1717  0.1674 -0.4670
  269POPC   PO4 3591   1.491   1.868   4.068 -0.0039  0.0642 -0.0689
  269POPC   GL1 3592   1.432   1.836   4.515  0.1093 -0.2593 -0.6217
  269POPC   GL2 3593   1.493   1.496   4.548 -0.0933 -0.0287  0.1004
  269POPC   C1A 3594   1.276   1.906   4.997 -0.2308 -0.0234  0.0106
  269POPC   D2A 3595   1.146   1.658   5.343  0.2315 -0.0699  0.1253
  269POPC   C3A 3596   1.339   1.862   5.637  0.2168  0.3146  0.3188
  269POPC   C4A 3597   1.778   2.055   5.686  0.0799  0.3232 -0.1559
  269POPC   C1B 3598   1.536   1.500   5.027  0.0085 -0.1002  0.2183
  269POPC   C2B 3599   1.308   1.156   5.412  0.1286  0.1504  0.0592
  269POPC   C3B 3600   1.248   0.875   5.862  0.1439 -0.1144  0.3586
  269POPC   C4B 3601   1.135   0.707   6.301 -0.1168 -0.0513 -0.1813
  270POPC   NC3 3602   2.212   1.064   4.114 -0.0095 -0.0784  0.3438
  270POPC   PO4 3603   2.272   0.612   3.997  0.2273 -0.3200  0.1276
  270POPC   GL1 3604   2.571   0.740   4.340  0.0742  0.0515 -0.0633
  270POPC   GL2 3605   2.427   0.784   4.498  0.1267 -0.0982  0.0127
  270POPC   C1A 3606   2.929   0.824   4.708  0.0826 -0.3976 -0.2050
  270POPC   D2A 3607   2.971   0.950   5.180 -0.2902  0.0370  0.0192
  270POPC   C3A 3608   2.780   1.081   5.586 -0.1041  0.1002  0.2113
  270POPC   C4A 3609   2.587   1.050   5.988  0.1777 -0.4820  0.1218
  270POPC   C1B 3610   2.489   0.478   4.788 -0.2651 -0.1198 -0.1647
  270POPC   C2B 3611   2.537   0.312   5.101  0.1292  0.0973 -0.0080
  270POPC   C3B 3612   2.814   0.101   5.497 -0.0131 -0.1051  0.1379
  270POPC   C4B 3613   2.834  -0.039   5.869  0.1732  0.1483  0.1706
  271POPC   NC3 3614   3.242   9.370   4.106  0.2329  0.2718  0.0109
  271POPC   PO4 3615   3.110   9.076   4.369 -0.4521  0.0347  0.1133
  271POPC   GL1 3616   3.058   8.930   4.735  0.3206 -0.5689  0.0321
  271POPC   GL2 3617   3.215   8.748   4.816 -0.1512 -0.0311  0.0112
  271POPC   C1A 3618   3.125   9.162   5.134  0.1421  0.0554  0.0619
  271POPC   D2A 3619   3.252   9.553   5.190  0.1845 -0.1241  0.3465
  271POPC   C3A 3620   3.253   9.703   5.613 -0.0994  0.0501 -0.1462
  271POPC   C4A 3621   3.344  10.016   5.954  0.2079 -0.3723  0.0683
  271POPC   C1B 3622   3.613   8.690   5.097 -0.1650  0.1571  0.4258
  271POPC   C2B 3623   3.822   8.642   5.531 -0.0820  0.0125 -0.0273
  271POPC   C3B 3624   3.771   8.585   5.969 -0.0312  0.0173  0.1710
  271POPC   C4B 3625   3.757   8.375   6.169  0.1696 -0.1713 -0.1843
  272POPC   NC3 3626   2.834   6.840   4.077 -0.3134  0.2636 -0.2537
  272POPC   PO4 3627   2.543   6.822   4.374 -0.0673 -0.0013 -0.1622
  272POPC   GL1 3628   2.861   6.785   4.729  0.0910  0.5465 -0.3911
  272POPC   GL2 3629   2.764   6.466   4.904 -0.4091 -0.0103 -0.3502
  272POPC   C1A 3630   2.915   6.938   5.178 -0.0238  0.2713  0.0344
  272POPC   D2A 3631   2.877   6.982   5.600  0.1559 -0.0106 -0.1112
  272POPC   C3A 3632   2.610   7.194   5.775 -0.6628 -0.1730  0.1842
  272POPC   C4A 3633   2.351   7.514   5.618 -0.3402 -0.3835 -0.1520
  272POPC   C1B 3634   2.670   6.560   5.292  0.0860  0.2880  0.0419
  272POPC   C2B 3635   2.510   6.623   5.676 -0.0625  0.0743  0.0876
  272POPC   C3B 3636   2.446   6.708   6.066  0.2328 -0.0126 -0.3300
  272POPC   C4B 3637   2.340   7.144   6.217 -0.2411  0.1416 -0.4927
  273POPC   NC3 3638   0.386   8.545   4.245  0.2507  0.1578 -0.1367
  273POPC   PO4 3639   0.013   8.724   4.200 -0.0068 -0.1678  0.1241
  273POPC   GL1 3640   0.048   9.023   4.556  0.0704  0.0680  0.3166
  273POPC   GL2 3641   0.259   9.103   4.468  0.0387  0.0300  0.0637
  273POPC   C1A 3642  -0.222   9.203   4.911 -0.1924 -0.0042  0.0952
  273POPC   D2A 3643  -0.334   9.218   5.281  0.1606  0.1271 -0.1112
  273POPC   C3A 3644  -0.275   9.123   5.744  0.1246  0.0444  0.2786
  273POPC   C4A 3645  -0.454   9.169   6.139  0.2337  0.0433 -0.0644
  273POPC   C1B 3646   0.282   9.238   4.901  0.0115 -0.0039 -0.2346
  273POPC   C2B 3647   0.135   9.350   5.345 -0.0696  0.3562  0.2357
  273POPC   C3B 3648   0.040   9.485   5.810  0.0907  0.1688 -0.0557
  273POPC   C4B 3649  -0.187   9.829   6.097 -0.0051 -0.2239  0.0760
  274POPC   NC3 3650   6.841   7.522   4.359  0.0864  0.2018  0.0702
  274POPC   PO4 3651   6.751   7.335   4.809  0.1088 -0.0898 -0.0787
  274POPC   GL1 3652   6.759   7.266   5.231 -0.3252 -0.1249  0.0558
  274POPC   GL2 3653   7.006   7.500   5.371  0.2361 -0.1637  0.2082
  274POPC   C1A 3654   6.657   7.168   5.679 -0.0880 -0.0052  0.2280
  274POPC   D2A 3655   6.722   6.811   5.993 -0.5269  0.3042  0.0593
  274POPC   C3A 3656   6.544   6.334   5.753 -0.1316 -0.0625  0.0016
  274POPC   C4A 3657   6.376   6.274   5.421  0.0442 -0.0156  0.2255
  274POPC   C1B 3658   7.164   7.060   5.448  0.0162 -0.0571  0.1049
  274POPC   C2B 3659   7.167   6.720   5.749 -0.0326  0.2220  0.4331
  274POPC   C3B 3660   7.149   6.605   6.170 -0.2130  0.1336  0.2854
  274POPC   C4B 3661   7.482   6.434   6.453  0.2847  0.1942  0.0406
  275POPC   NC3 3662   7.098   9.555   3.724 -0.3241 -0.0556  0.1894
  275POPC   PO4 3663   7.539   9.763   3.820 -0.1941 -0.0125 -0.0308
  275POPC   GL1 3664   7.472   9.772   4.291  0.0252 -0.2639  0.0119
  275POPC   GL2 3665   7.315   9.615   4.321 -0.0032 -0.0461  0.3442
  275POPC   C1A 3666   7.661  10.079   4.521 -0.4603  0.0206  0.2456
  275POPC   D2A 3667   8.009  10.186   4.734 -0.1040 -0.1611  0.0953
  275POPC   C3A 3668   8.042  10.268   5.200  0.0916  0.1372 -0.1821
  275POPC   C4A 3669   7.922  10.583   5.480 -0.0938 -0.0079  0.1577
  275POPC   C1B 3670   7.181   9.691   4.745  0.1351  0.1499  0.0672
  275POPC   C2B 3671   7.274   9.854   5.127 -0.0937 -0.2415 -0.0657
  275POPC   C3B 3672   7.478  10.245   5.526 -0.1169  0.0885 -0.0951
  275POPC   C4B 3673   7.588  10.435   5.815  0.1735 -0.3361  0.0107
  276POPC   NC3 3674   6.477   6.824   4.493 -0.1044  0.0132 -0.0748
  276POPC   PO4 3675   6.710   6.571   4.315 -0.0212  0.0796 -0.0025
  276POPC   GL1 3676   6.804   6.306   4.728 -0.0139 -0.2109  0.1458
  276POPC   GL2 3677   6.850   5.941   4.763  0.0713  0.1263 -0.0151
  276POPC   C1A 3678   6.844   6.385   5.198 -0.1092  0.3483 -0.1892
  276POPC   D2A 3679   6.719   6.744   5.449 -0.1622  0.1806 -0.1405
  276POPC   C3A 3680   6.173   6.694   5.544  0.3375  0.0621  0.0073
  276POPC   C4A 3681   6.119   6.770   5.965  0.2823 -0.0128 -0.1444
  276POPC   C1B 3682   6.846   5.779   5.172 -0.2880 -0.2498 -0.0083
  276POPC   C2B 3683   6.742   5.892   5.656 -0.0421 -0.2231  0.1348
  276POPC   C3B 3684   6.960   5.970   6.053  0.0937  0.2875  0.0854
  276POPC   C4B 3685   7.120   6.130   6.402 -0.0331 -0.2512  0.1080
  277POPC   NC3 3686   2.458   6.276   4.459  0.1262 -0.2184  0.0786
  277POPC   PO4 3687   2.822   6.043   4.685  0.0960  0.1175 -0.2535
  277POPC   GL1 3688   2.725   6.057   5.133 -0.0751  0.1872 -0.2151
  277POPC   GL2 3689   2.911   6.105   5.377 -0.2572  0.1774 -0.0470
  277POPC   C1A 3690   2.344   6.114   5.404  0.2988  0.2712  0.0765
  277POPC   D2A 3691   1.881   5.964   5.277 -0.1380  0.2482  0.0136
  277POPC   C3A 3692   1.877   5.829   5.703 -0.4291  0.2365 -0.1232
  277POPC   C4A 3693   1.939   5.956   6.115 -0.1848 -0.2192 -0.0624
  277POPC   C1B 3694   2.803   6.118   5.777 -0.2173 -0.1827 -0.2607
  277POPC   C2B 3695   2.897   5.709   6.107 -0.0530 -0.0815 -0.0876
  277POPC   C3B 3696   2.983   5.624   6.443  0.3097  0.3596 -0.0589
  277POPC   C4B 3697   2.841   5.546   6.864  0.0488  0.3071  0.1549
  278POPC   NC3 3698   0.882   7.625   4.408 -0.1038  0.0226 -0.0478
  278POPC   PO4 3699   1.278   7.414   4.584 -0.2550  0.0566  0.1902
  278POPC   GL1 3700   1.129   7.223   5.042 -0.0141 -0.0382 -0.1687
  278POPC   GL2 3701   1.005   6.919   5.124  0.1052 -0.1209 -0.1019
  278POPC   C1A 3702   1.218   7.210   5.502  0.1070 -0.2994 -0.0737
  278POPC   D2A 3703   1.288   7.021   5.956 -0.1424  0.2619  0.0836
  278POPC   C3A 3704   1.683   7.154   6.127 -0.0241  0.4209 -0.1285
  278POPC   C4A 3705   1.929   7.299   6.471 -0.1777  0.0442  0.2294
  278POPC   C1B 3706   1.159   6.710   5.396 -0.1763 -0.0810  0.0702
  278POPC   C2B 3707   1.212   6.569   5.703  0.0770  0.1113 -0.0307
  278POPC   C3B 3708   1.541   6.621   6.050  0.2371  0.3743  0.1296
  278POPC   C4B 3709   1.998   6.647   6.153 -0.0536  0.3222 -0.0806
  279POPC   NC3 3710   8.756   1.093   3.341  0.2275  0.1809  0.5667
  279POPC   PO4 3711   8.577   1.170   3.820  0.1667 -0.1290 -0.2339
  279POPC   GL1 3712   8.305   1.213   4.185 -0.1142  0.3332  0.0900
  279POPC   GL2 3713   8.452   1.503   4.288  0.0237  0.0917 -0.0570
  279POPC   C1A 3714   8.235   1.119   4.570  0.1430  0.0633 -0.0649
  279POPC   D2A 3715   8.137   0.996   5.001  0.0512  0.1780 -0.1451
  279POPC   C3A 3716   8.159   1.294   5.333 -0.0951  0.0405  0.0629
  279POPC   C4A 3717   7.967   1.417   5.653 -0.0271 -0.0109 -0.1462
  279POPC   C1B 3718   8.431   1.687   4.680 -0.0286 -0.0390 -0.0390
  279POPC   C2B 3719   8.217   2.099   4.876  0.3885  0.0791  0.1048
  279POPC   C3B 3720   8.115   2.350   5.365  0.0932 -0.1174 -0.0716
  279POPC   C4B 3721   7.919   2.310   5.725 -0.2353 -0.0844  0.0035
  280POPC   NC3 3722   9.400   6.173   4.735  0.3262  0.0669 -0.3719
  280POPC   PO4 3723   9.109   6.533   4.588  0.2639 -0.4335  0.3853
  280POPC   GL1 3724   9.224   6.594   5.021 -0.0685  0.0327 -0.2395
  280POPC   GL2 3725   9.081   6.860   4.999  0.1119  0.1026 -0.0304
  280POPC   C1A 3726   9.257   6.635   5.512  0.1329  0.1602  0.2810
  280POPC   D2A 3727   9.182   7.027   5.823  0.1124  0.2071 -0.2375
  280POPC   C3A 3728   9.531   7.143   6.182 -0.3338  0.1503  0.0339
  280POPC   C4A 3729   9.583   6.857   6.484 -0.1486  0.1147 -0.2922
  280POPC   C1B 3730   8.996   7.167   5.269 -0.1587  0.2975  0.2076
  280POPC   C2B 3731   8.832   7.330   5.589 -0.1044  0.0017  0.1197
  280POPC   C3B 3732   8.796   7.269   6.034  0.2030 -0.0472 -0.2504
  280POPC   C4B 3733   8.354   7.238   6.276 -0.1932 -0.2178 -0.0224
  281POPC   NC3 3734   1.630   8.313   3.864 -0.0666 -0.2295 -0.0740
  281POPC   PO4 3735   1.444   8.361   4.348  0.2485 -0.0327 -0.3229
  281POPC   GL1 3736   1.322   8.161   4.701  0.0739  0.1319 -0.1876
  281POPC   GL2 3737   1.257   8.445   4.820 -0.1751 -0.0131  0.2896
  281POPC   C1A 3738   1.319   8.032   5.071 -0.1118 -0.0486 -0.2555
  281POPC   D2A 3739   1.532   8.125   5.538 -0.0617  0.1891 -0.0156
  281POPC   C3A 3740   1.369   8.002   6.022  0.0377 -0.0795  0.2026
  281POPC   C4A 3741   1.203   8.300   6.353  0.1887  0.2176  0.1133
  281POPC   C1B 3742   1.245   8.514   5.234 -0.0055 -0.1689  0.0218
  281POPC   C2B 3743   1.536   8.720   5.425 -0.1589 -0.1263 -0.2497
  281POPC   C3B 3744   1.773   8.905   5.689  0.1034 -0.1258  0.3822
  281POPC   C4B 3745   1.946   9.258   5.676 -0.0745 -0.5046 -0.0508
  282POPC   NC3 3746   6.368   9.548   3.299 -0.2295  0.0166  0.1704
  282POPC   PO4 3747   6.130   9.360   3.611 -0.3784  0.1624  0.0358
  282POPC   GL1 3748   6.455   9.531   3.952  0.0311  0.1641  0.1746
  282POPC   GL2 3749   6.438   9.347   4.181  0.0795 -0.3459 -0.4273
  282POPC   C1A 3750   6.775   9.674   4.304  0.0060 -0.1563 -0.1743
  282POPC   D2A 3751   6.786  10.099   4.335  0.1049 -0.0543  0.1220
  282POPC   C3A 3752   7.141  10.170   4.424  0.2363  0.0129  0.3326
  282POPC   C4A 3753   7.357  10.515   4.609  0.2784  0.0945  0.0546
  282POPC   C1B 3754   6.534   9.333   4.562 -0.2373 -0.2336  0.0927
  282POPC   C2B 3755   6.758   9.378   4.890 -0.1760 -0.2492 -0.0980
  282POPC   C3B 3756   6.865   9.484   5.238  0.0564  0.1162  0.1968
  282POPC   C4B 3757   7.125   9.755   5.609  0.0292 -0.1275 -0.1496
  283POPC   NC3 3758   9.716   5.429   4.136 -0.0595 -0.3138  0.0615
  283POPC   PO4 3759  10.096   5.180   4.239 -0.0239  0.1046  0.5256
  283POPC   GL1 3760  10.057   5.256   4.773 -0.2899 -0.0868 -0.1625
  283POPC   GL2 3761   9.871   5.024   5.006  0.0090  0.4317 -0.2181
  283POPC   C1A 3762  10.168   5.496   5.192  0.1438  0.3938  0.1863
  283POPC   D2A 3763  10.423   5.406   5.642  0.0988 -0.3782  0.2224
  283POPC   C3A 3764  10.341   4.984   5.840 -0.1810  0.1858 -0.1055
  283POPC   C4A 3765  10.375   4.531   5.727 -0.0178  0.3338  0.0819
  283POPC   C1B 3766   9.572   4.947   5.196  0.1070 -0.1894 -0.1950
  283POPC   C2B 3767   9.418   4.904   5.668 -0.1322 -0.1753  0.0194
  283POPC   C3B 3768   9.330   5.255   6.049  0.2863 -0.2227 -0.0899
  283POPC   C4B 3769   9.341   5.366   6.570 -0.3274  0.2583  0.0143
  284POPC   NC3 3770   9.230   4.300   4.519  0.1331 -0.2466 -0.0410
  284POPC   PO4 3771   9.481   3.965   4.302 -0.0629 -0.1244 -0.0543
  284POPC   GL1 3772   9.293   3.849   4.711  0.1394 -0.3513 -0.0773
  284POPC   GL2 3773   9.191   4.073   4.966  0.2867 -0.1951  0.0502
  284POPC   C1A 3774   9.086   3.531   5.019  0.1385  0.0921  0.0482
  284POPC   D2A 3775   8.813   3.459   5.374  0.0269  0.1452 -0.2325
  284POPC   C3A 3776   8.845   3.087   5.517 -0.0284  0.2021 -0.1213
  284POPC   C4A 3777   8.866   2.773   5.802  0.0045  0.0010  0.0475
  284POPC   C1B 3778   9.017   4.069   5.431  0.1105 -0.1213  0.0967
  284POPC   C2B 3779   8.930   4.086   5.914 -0.2829  0.2602  0.0191
  284POPC   C3B 3780   8.837   4.391   6.370 -0.1120 -0.0308  0.1795
  284POPC   C4B 3781   8.761   4.684   6.639 -0.1543  0.0370  0.0780
  285POPC   NC3 3782   2.187   4.300   4.266  0.0893  0.2590  0.4549
  285POPC   PO4 3783   1.898   4.026   4.002  0.0753  0.2610  0.1182
  285POPC   GL1 3784   2.018   3.876   4.419  0.0307  0.1618 -0.0432
  285POPC   GL2 3785   1.676   3.853   4.567 -0.1760 -0.3080  0.3659
  285POPC   C1A 3786   2.114   4.036   4.870 -0.0919 -0.1053  0.2176
  285POPC   D2A 3787   2.516   4.206   4.939  0.0971  0.1829 -0.1395
  285POPC   C3A 3788   2.854   4.260   5.310 -0.0483 -0.4392  0.0663
  285POPC   C4A 3789   2.921   4.462   5.657 -0.2183 -0.0386 -0.0544
  285POPC   C1B 3790   1.731   3.624   4.839  0.2813  0.3212  0.0140
  285POPC   C2B 3791   1.701   3.157   4.875 -0.0033  0.0134  0.3635
  285POPC   C3B 3792   1.319   2.987   5.084  0.1306  0.2624 -0.2037
  285POPC   C4B 3793   1.344   3.015   5.539 -0.2840 -0.0628  0.0413
  286POPC   NC3 3794   6.795   2.500   3.298 -0.3119 -0.3023 -0.0391
  286POPC   PO4 3795   6.977   2.811   3.513  0.2430 -0.2072 -0.2872
  286POPC   GL1 3796   6.664   2.825   3.945  0.2267  0.4227  0.0397
  286POPC   GL2 3797   6.964   2.643   3.996  0.3388  0.4177  0.0035
  286POPC   C1A 3798   6.398   2.941   4.134 -0.2028 -0.1701  0.0937
  286POPC   D2A 3799   6.348   2.945   4.540 -0.0099  0.0522 -0.2152
  286POPC   C3A 3800   5.941   3.140   4.510 -0.0638  0.3886 -0.3169
  286POPC   C4A 3801   5.823   3.457   4.199  0.0970  0.2695  0.2337
  286POPC   C1B 3802   6.874   2.790   4.412  0.3233 -0.1201 -0.4914
  286POPC   C2B 3803   7.003   2.794   4.815 -0.1219 -0.2344  0.0071
  286POPC   C3B 3804   7.294   2.895   5.201  0.1309 -0.1441  0.2873
  286POPC   C4B 3805   7.576   2.841   5.615  0.1056  0.3106  0.0469
  287W        W 3806   2.186   5.113   3.212  0.0440 -0.0661 -0.0939
  288W        W 3807   6.971   0.884   2.852 -0.0380  0.2494 -0.2177
  289W        W 3808   7.392   1.212   1.874  0.3100  0.0391  0.2612
  290W        W 3809   0.679   6.368   2.333 -0.0210 -0.2773  0.0423
  291W        W 3810   4.098   9.542   2.662  0.1057  0.0602 -0.0472
  292W        W 3811   7.049   1.404  10.557  0.0671 -0.1683  0.2966
  293W        W 3812   5.528   5.293   9.555  0.4100  0.1144 -0.0747
  294W        W 3813   7.819   5.112  10.092 -0.1255  0.0086 -0.1646
  295W        W 3814   6.246   6.559   4.972 -0.0699 -0.0324 -0.0194
  296W        W 3815   2.796   4.294  10.833 -0.4377 -0.0512 -0.1604
  297W        W 3816   5.000   9.015   3.056 -0.4312 -0.1414 -0.4222
  298W        W 3817   2.211   6.898   9.681 -0.0378 -0.0642 -0.0633
  299W        W 3818   4.876   8.013  10.790  0.0748 -0.0623  0.1261
  300W        W 3819   8.523   6.890   1.834 -0.3697  0.0951  0.1011
  301W        W 3820   1.284   8.480   8.421  0.1583  0.1034  0.0215
  302W        W 3821   2.267   3.844  11.453 -0.2124  0.0882  0.0126
  303W        W 3822   1.783   9.046   2.817 -0.1227  0.0551 -0.1419
  304W        W 3823   8.073   4.270   9.702 -0.0060 -0.1249 -0.0366
  305W        W 3824   1.550   0.063  10.787  0.2211  0.0264 -0.0161
  306W        W 3825   7.337   4.862   7.315  0.0312  0.0387 -0.3961
  307W        W 3826   8.114   3.415   1.749  0.0510  0.0947 -0.4722
  308W        W 3827   5.062   3.905   2.412  0.0358 -0.1195  0.5481
  309W        W 3828   7.405   8.230  10.668 -0.0476 -0.2143 -0.1245
  310W        W 3829   9.163   2.811   0.100  0.1240 -0.0688  0.0735
  311W        W 3830   9.478   7.414   4.488  0.1820  0.0574  0.1649
  312W        W 3831   4.931   0.470   2.686 -0.3542  0.3517  0.2567
  313W        W 3832   0.184   5.080   1.146  0.0321  0.1158  0.0397
  314W        W 3833   9.199   9.010  10.477  0.0046  0.2932  0.0533
  315W        W 3834   7.286   3.803   8.109  0.1237  0.0124 -0.1964
  316W        W 3835   1.919   8.514   1.467  0.1057  0.1122 -0.0691
  317W        W 3836   2.471   5.771   9.722  0.1407 -0.0273 -0.1451
  318W        W 3837   5.443   7.678   0.399  0.0743 -0.0262 -0.0876
  319W        W 3838   4.464   0.304   1.078 -0.0844 -0.0724  0.1506
  320W        W 3839   5.933   9.585   4.103  0.0887 -0.0515 -0.3721
  321W        W 3840   5.525   4.262   2.202  0.1553  0.0022 -0.0411
  322W        W 3841   3.499   9.083   8.038 -0.1867 -0.0980  0.1634
  323W        W 3842   1.164   6.571   4.179 -0.0891  0.2295  0.3250
  324W        W 3843   9.537   3.727   1.200 -0.0074 -0.1499 -0.0893
  325W        W 3844   6.059   9.087   4.040  0.0098  0.4715 -0.1317
  326W        W 3845   3.293   1.305  10.687  0.4873 -0.0028 -0.0158
  327W        W 3846   3.324   5.954   3.778 -0.0763 -0.1860  0.0006
  328W        W 3847   6.388   8.397   0.991  0.0901 -0.2555  0.1230
  329W        W 3848   7.531   0.732   0.412  0.0236 -0.1312 -0.0244
  330W        W 3849   6.078   8.139  12.165 -0.1665 -0.1147  0.1295
  331W        W 3850   9.070   2.587   1.340  0.0002  0.2037  0.1118
  332W        W 3851   9.041   3.360  10.346  0.0682  0.0651  0.0895
  333W        W 3852   7.720   9.500   9.336  0.4674 -0.5153 -0.0635
  334W        W 3853   6.319   7.841  11.845 -0.0597 -0.1306 -0.0551
  335W        W 3854   0.739   1.759   7.218 -0.2313  0.6454 -0.0488
  336W        W 3855   4.586   9.144  11.266  0.1617  0.2948  0.0093
  337W        W 3856   3.178   2.148   8.868 -0.3168  0.2351  0.1066
  338W        W 3857   7.338   4.316  12.080 -0.2119  0.1130 -0.0678
  339W        W 3858   1.585   5.236   2.406 -0.1323  0.0113  0.0938
  340W        W 3859   8.613   4.694   0.018  0.1190 -0.3096  0.0433
  341W        W 3860   0.857   9.106  10.888 -0.0282 -0.0113 -0.0773
  342W        W 3861   6.932   1.679   8.885  0.0974 -0.1756  0.1828
  343W        W 3862   4.636   9.595   9.575 -0.0438 -0.1110  0.0208
  344W        W 3863   3.571   1.480   2.382  0.1528 -0.3133 -0.2221
  345W        W 3864   5.520   0.169   2.252  0.2827  0.3338 -0.2548
  346W        W 3865   7.047   2.944  11.583  0.2350 -0.2191 -0.0494
  347W        W 3866   0.455   7.496  10.122  0.0401  0.2285 -0.3428
  348W        W 3867   1.465   3.475   9.980  0.2131 -0.1181 -0.0234
  349W        W 3868   8.422   6.877   9.631  0.2897 -0.1006 -0.0913
  350W        W 3869   7.120   6.363   1.827 -0.1346 -0.1789 -0.1928
  351W        W 3870   5.846   5.774   2.221 -0.0699  0.2751  0.0083
  352W        W 3871   4.685   5.966   0.139 -0.0083  0.1271 -0.0137
  353W        W 3872   7.388   6.513   0.939 -0.1415 -0.0467 -0.2284
  354W        W 3873   3.431   6.226   8.802 -0.1660  0.3064  0.2191
  355W        W 3874   7.484   2.881   9.533 -0.0658  0.1038 -0.2255
  356W        W 3875   7.532   6.289  11.419 -0.1066 -0.0896 -0.5016
  357W        W 3876   7.395   9.720  11.450  0.2156 -0.1086  0.2175
  358W        W 3877   3.221   8.515   2.723 -0.0165  0.1921 -0.1965
  359W        W 3878   9.151   1.957   3.000  0.1797 -0.0130 -0.1864
  360W        W 3879   2.592   0.519  11.388 -0.0828  0.1159  0.0654
  361W        W 3880   5.998   0.039   3.110  0.4384 -0.3694  0.3944
  362W        W 3881   3.303   4.421   1.286  0.0882  0.1712 -0.0598
  363W        W 3882   1.140   6.663  11.398 -0.1906  0.0268  0.2207
  364W        W 3883   6.521   0.563  10.423  0.3597 -0.2586 -0.1083
  365W        W 3884   1.476   7.821  10.099 -0.1605 -0.0701  0.0198
  366W        W 3885   2.578   8.927  10.790  0.0048 -0.0551 -0.1413
  367W        W 3886   9.567   0.627   4.010  0.2496 -0.1486  0.0607
  368W        W 3887   9.447   2.415   4.180 -0.2824 -0.1184  0.1847
  369W        W 3888   8.379   1.704   3.137  0.0839 -0.1068 -0.1138
  370W        W 3889   2.330   6.687   4.821 -0.0015  0.0771 -0.2952
  371W        W 3890   9.159   1.694   8.647 -0.0506 -0.0245 -0.1131
  372W        W 3891   3.281   7.265   3.448  0.0100 -0.5092  0.1933
  373W        W 3892   9.722   6.475   3.496  0.4022  0.1880 -0.0684
  374W        W 3893   7.372   5.380   1.638 -0.2031 -0.1039  0.2807
  375W        W 3894   1.342   9.011   2.641  0.0737 -0.0292  0.2282
  376W        W 3895   4.538   3.322   0.509  0.1989 -0.0678 -0.2978
  377W        W 3896   7.290   5.433   8.580 -0.1058  0.2566  0.1350
  378W        W 3897   0.081   6.208   0.087  0.0590  0.2075  0.1416
  379W        W 3898   8.673   3.866   0.600  0.0292  0.1849  0.0838
  380W        W 3899   8.427   5.655   9.567 -0.0169  0.2192 -0.2655
  381W        W 3900   4.911   0.106   0.389 -0.0355  0.0752  0.1193
  382W        W 3901   6.615   0.632  11.764  0.0324  0.0270 -0.0079
  383W        W 3902   4.423   6.796   3.586 -0.0456  0.0287 -0.0488
  384W        W 3903   3.175   5.808   2.177  0.1188  0.0521  0.0505
  385W        W 3904   8.505   6.473   9.097  0.1414 -0.2458 -0.1206
  386W        W 3905   3.452   3.286   2.130  0.3818  0.2278  0.0892
  387W        W 3906   0.523   0.849  11.051 -0.2109 -0.1894 -0.2857
  388W        W 3907   4.018   5.948  12.350  0.1368  0.1609 -0.1909
  389W        W 3908   1.361   5.319   9.038  0.0368  0.1236 -0.0032
  390W        W 3909   1.416   6.130   8.793  0.3930 -0.0284 -0.1810
  391W        W 3910   9.044   9.039  11.459 -0.1377 -0.2313 -0.1360
  392W        W 3911   7.283   9.714  10.736  0.2275 -0.3194 -0.0069
  393W        W 3912   1.341   5.137  11.070  0.0247 -0.0332 -0.2494
  394W        W 3913   9.655   5.374   0.904 -0.0794 -0.0143 -0.2156
  395W        W 3914   1.740   7.654   0.410  0.4601 -0.3065  0.0147
  396W        W 3915   5.779   8.421   8.939 -0.1552  0.0525  0.1107
  397W        W 3916   5.989   5.492   9.495 -0.1659  0.2635 -0.1669
  398W        W 3917   1.509   5.292   3.971 -0.0960 -0.0952  0.0064
  399W        W 3918   5.566   9.580  10.135  0.0315 -0.3240 -0.2071
  400W        W 3919   5.512   5.945  10.697 -0.0559 -0.1709  0.0911
  401W        W 3920   8.749   5.722   0.923  0.1649 -0.1535  0.1455
  402W        W 3921   8.717   6.214   0.967 -0.0086 -0.0551  0.1800
  403W        W 3922   4.770   5.598  11.301  0.2704 -0.0325  0.2842
  404W        W 3923   1.666   0.405   8.501  0.3566  0.2421  0.0189
  405W        W 3924   8.707   0.081  12.189  0.0867 -0.0272  0.2607
  406W        W 3925   6.741   2.690   1.049  0.1412 -0.1751  0.2256
  407W        W 3926   7.273   1.705   3.216 -0.4888  0.0108 -0.0315
  408W        W 3927   2.072   5.492  10.473  0.0704 -0.2342 -0.1728
  409W        W 3928   8.456   8.512   9.915 -0.1461 -0.2983  0.0484
  410W        W 3929   7.191   9.230   2.791  0.2595 -0.0396  0.0159
  411W        W 3930   8.505   6.864   8.652  0.2030  0.0233 -0.0965
  412W        W 3931   5.537   8.898   2.944  0.0020  0.0708 -0.0361
  413W        W 3932   7.933   3.374   0.642 -0.0860  0.0183 -0.1863
  414W        W 3933   7.019   6.564   3.105  0.2039 -0.0505 -0.2002
  415W        W 3934   7.725   0.384   1.679  0.2212  0.1923  0.0225
  416W        W 3935   7.171   3.131   9.257 -0.0163  0.0498  0.1532
  417W        W 3936   8.704   7.184  11.672 -0.1558  0.0980  0.4654
  418W        W 3937   5.234   5.342   9.145 -0.1754 -0.0052  0.0000
  419W        W 3938   3.857   0.236  11.345  0.1063  0.4010  0.0795
  420W        W 3939   0.288   3.078   3.566 -0.6156  0.0622 -0.0653
  421W        W 3940   2.462   6.327   2.835 -0.3252  0.0514 -0.2443
  422W        W 3941   1.421   2.305  11.655  0.0903 -0.0170  0.1900
  423W        W 3942   8.942   5.250   8.260  0.0087 -0.0076 -0.2878
  424W        W 3943   3.337   9.458   1.456  0.0389 -0.0303  0.1143
  425W        W 3944   0.168   0.985   0.606 -0.0809  0.1689 -0.1100
  426W        W 3945   7.010   4.103   9.592  0.3005 -0.0319 -0.1395
  427W        W 3946   9.221   7.616  10.436 -0.1605 -0.0368  0.0795
  428W        W 3947   0.492   9.284  10.295 -0.1482  0.1531 -0.2008
  429W        W 3948   8.269   6.425   0.843  0.0309 -0.0927 -0.0434
  430W        W 3949   0.111   8.356  10.619 -0.1989 -0.0471  0.1409
  431W        W 3950   9.480   2.152   9.048  0.0225  0.0474 -0.0686
  432W        W 3951   1.245   3.868   3.607  0.2132 -0.0252  0.1564
  433W        W 3952   6.436   2.349  10.379 -0.3360  0.0233  0.1596
  434W        W 3953   0.479   5.915  11.727  0.1163  0.2831 -0.1557
  435W        W 3954   9.417   9.433  10.127  0.0750 -0.0438  0.2417
  436W        W 3955   0.845   9.180   2.358 -0.1382 -0.4578 -0.1735
  437W        W 3956   1.744   1.934   0.722 -0.3987 -0.4956 -0.0165
  438W        W 3957   4.761   0.707   1.204  0.1395  0.3357  0.0205
  439W        W 3958   7.703   0.464   2.542  0.0506 -0.1455  0.1203
  440W        W 3959   6.181   3.738   0.662  0.1568  0.1751  0.1091
  441W        W 3960   2.710   1.049   1.524  0.0008 -0.2188 -0.2248
  442W        W 3961   4.018   5.445   8.978  0.3950  0.1345  0.0356
  443W        W 3962   0.089   2.844   3.149  0.2743 -0.0944  0.1907
  444W        W 3963   9.174   2.857   0.890 -0.1893 -0.1359  0.0437
  445W        W 3964   3.021   8.092   1.202 -0.2863 -0.0167  0.2134
  446W        W 3965   0.143   7.213   1.537  0.0873 -0.2749 -0.0051
  447W        W 3966   2.896   9.707   9.626  0.1956 -0.0105 -0.1045
  448W        W 3967   9.409   7.561   0.916 -0.0531  0.0118  0.1156
  449W        W 3968   2.224   7.308   1.848  0.0512 -0.1523  0.0379
  450W        W 3969   6.029   8.283   1.914 -0.3464  0.0613 -0.1028
  451W        W 3970   5.304   2.612   1.372 -0.0083 -0.0793 -0.0807
  452W        W 3971   4.396   0.911  10.628  0.1613  0.2801 -0.2619
  453W        W 3972   9.103   1.878   9.332  0.2492 -0.3665 -0.3174
  454W        W 3973   1.843   6.889  10.064 -0.4205 -0.0323 -0.2074
  455W        W 3974   0.176   2.170   1.569 -0.2022 -0.1249  0.1877
  456W        W 3975   0.235   6.234   3.111  0.0458 -0.0338 -0.0121
  457W        W 3976   6.943   5.897   8.363 -0.2102  0.1671 -0.2104
  458W        W 3977   0.749   7.113   8.667 -0.0157  0.3914 -0.3308
  459W        W 3978   9.716   6.585   0.911  0.2844  0.1337 -0.0054
  460W        W 3979   7.289   3.060   3.979  0.3083 -0.4462 -0.0950
  461W        W 3980   8.300   6.065   3.002  0.3206 -0.1139  0.0210
  462W        W 3981   8.777   2.400   0.391 -0.1511 -0.0209  0.0904
  463W        W 3982   4.152   3.173   2.869 -0.5033  0.0451  0.1833
  464W        W 3983   3.607   7.964  10.350 -0.1839  0.0698 -0.1058
  465W        W 3984   2.486   6.159   8.646 -0.0430 -0.1048  0.0359
  466W        W 3985   1.351   6.409   8.369 -0.2735  0.2555 -0.0872
  467W        W 3986   5.955   0.762  10.253  0.0062 -0.3160 -0.0082
  468W        W 3987   9.524   0.041   8.974  0.2861 -0.0589 -0.2602
  469W        W 3988   8.046   3.445   3.757  0.0772  0.2571 -0.1675
  470W        W 3989   0.458   1.898   1.240  0.1701  0.0879 -0.2916
  471W        W 3990   8.328   6.457   9.940  0.1344  0.0435  0.2227
  472W        W 3991   5.961   1.462  11.850  0.1019 -0.0741 -0.3243
  473W        W 3992   0.127   5.114   3.788 -0.3575 -0.0752 -0.0750
  474W        W 3993   2.963   6.883   9.105 -0.1113  0.1447 -0.3152
  475W        W 3994   9.422   8.569   3.451  0.1602  0.0492 -0.0245
  476W        W 3995   6.267   2.450   1.571 -0.0285 -0.2068  0.1395
  477W        W 3996   2.629   1.480  10.384 -0.0839 -0.0251 -0.1292
  478W        W 3997   5.862   3.591  11.646 -0.2682  0.0549  0.0451
  479W        W 3998   4.368   6.705  10.470  0.0353 -0.0561  0.1604
  480W        W 3999   3.786   8.164   0.438  0.1419  0.1977 -0.2484
  481W        W 4000   2.663   6.124   1.084  0.1201 -0.1580 -0.0245
  482W        W 4001   6.119   7.658  12.396 -0.2283  0.0786 -0.2594
  483W        W 4002   4.649   1.125  12.309  0.2584  0.0061 -0.2995
  484W        W 4003   9.396   4.512   8.743  0.0212 -0.0047  0.0159
  485W        W 4004   1.529   5.621  10.658 -0.1048 -0.1310 -0.1183
  486W        W 4005   4.391   9.033   2.444 -0.0867  0.1611  0.2900
  487W        W 4006   7.731   9.285  11.356  0.1688 -0.0530 -0.3240
  488W        W 4007   7.019   8.257   1.593 -0.1814 -0.1977  0.1074
  489W        W 4008   6.336   1.452  10.716 -0.1568 -0.3713  0.0553
  490W        W 4009   5.627   1.758  10.423 -0.1080  0.0592  0.0900
  491W        W 4010   9.737   5.593   9.950 -0.1076 -0.1194  0.1813
  492W        W 4011   7.778   9.541   0.676 -0.2358 -0.1319 -0.1334
  493W        W 4012   4.447   4.298  12.081 -0.2394  0.1853 -0.2894
  494W        W 4013   7.801   1.457   2.145  0.3578  0.1926  0.1845
  495W        W 4014   9.208   3.295  12.247  0.0945  0.1698 -0.0422
  496W        W 4015   8.165   9.051   3.587 -0.0901  0.3712  0.3358
  497W        W 4016   3.500   2.224  11.548  0.1070  0.2073 -0.2451
  498W        W 4017   1.712   5.184   9.701  0.2589 -0.1558 -0.3426
  499W        W 4018   7.901   9.531  10.435 -0.0922  0.1654 -0.0749
  500W        W 4019   6.489   3.587   2.563  0.0268  0.1166  0.0506
  501W        W 4020   7.137   1.421   9.380 -0.0145  0.2539 -0.0756
  502W        W 4021   3.085   3.909   0.194  0.0389  0.1287 -0.2008
  503W        W 4022   8.490   8.993   1.039  0.3887 -0.1465 -0.0787
  504W        W 4023   1.326   2.774  11.977  0.2659 -0.1072  0.2398
  505W        W 4024   0.579   5.990   1.180  0.1019 -0.3603  0.1754
  506W        W 4025   1.572   3.420   2.408 -0.4162  0.0885 -0.1184
  507W        W 4026   9.695   7.150   8.345  0.1422  0.0546 -0.2736
  508W        W 4027   2.020   3.102   8.446 -0.0319 -0.3413  0.0572
  509W        W 4028   1.524   4.253   1.310  0.0812 -0.1281 -0.1626
  510W        W 4029   5.453   4.607   1.748 -0.1715  0.1190 -0.0789
  511W        W 4030   3.900   0.420  10.379 -0.0719 -0.1291  0.2939
  512W        W 4031   5.650   0.417   1.591 -0.2598  0.0265  0.1410
  513W        W 4032   0.042   8.724   9.735  0.0341 -0.0742 -0.1047
  514W        W 4033   4.979   8.613  11.579  0.2828  0.3290  0.0488
  515W        W 4034   7.079   5.833  10.298 -0.1494 -0.0053 -0.0886
  516W        W 4035   0.160   2.039  11.869  0.0090 -0.2450  0.1390
  517W        W 4036   4.716   4.006  11.414  0.4391  0.0040 -0.0051
  518W        W 4037   8.544   0.458  10.826  0.0546  0.1688  0.5437
  519W        W 4038   3.592   0.043   4.260 -0.0424  0.0210  0.2950
  520W        W 4039   2.944   8.203  11.151  0.0176  0.1005 -0.1929
  521W        W 4040   4.460   8.687  11.339  0.2568  0.1269  0.5724
  522W        W 4041   4.094   5.532   3.893 -0.0796  0.2782  0.0785
  523W        W 4042   5.424   8.850  12.250  0.0137  0.1900 -0.0989
  524W        W 4043   7.797   5.495   8.074  0.1787 -0.1361  0.1819
  525W        W 4044   4.635   5.411   3.122 -0.1209 -0.0037 -0.0273
  526W        W 4045   9.370   3.890   3.126  0.2870  0.0234 -0.0970
  527W        W 4046   8.529   5.162   9.741  0.1177  0.0410 -0.0581
  528W        W 4047   5.753   8.578   1.604 -0.0586 -0.3183  0.3088
  529W        W 4048   2.543   7.979   8.025  0.0239 -0.1067 -0.0042
  530W        W 4049   8.211   6.873   1.118 -0.1130 -0.0473  0.0235
  531W        W 4050   2.369   5.210  11.019  0.0791 -0.0198  0.4302
  532W        W 4051   5.178   0.489   1.201  0.1438  0.2292 -0.0088
  533W        W 4052   2.399   0.287   1.369 -0.1461  0.1281 -0.3223
  534W        W 4053   4.121   4.489   1.628  0.1893 -0.1416 -0.3137
  535W        W 4054   3.272   1.587   0.976  0.1492 -0.3464  0.2526
  536W        W 4055   4.831   7.181   2.683 -0.0901  0.2023 -0.2882
  537W        W 4056   7.924   2.111   0.984 -0.0238 -0.0316  0.0443
  538W        W 4057   0.936   1.571   1.069  0.1384  0.1012 -0.0321
  539W        W 4058   8.816   0.478  11.332  0.1211  0.0122  0.0879
  540W        W 4059   4.923   1.010   1.846  0.1600 -0.0494  0.1380
  541W        W 4060   9.720   3.839   0.719 -0.2414  0.0549  0.0881
  542W        W 4061   9.483   0.614   8.707  0.0857  0.2147 -0.0658
  543W        W 4062   6.330   5.173  10.167  0.0118  0.1165  0.1786
  544W        W 4063   9.625   0.109   3.217 -0.2867  0.0308  0.2719
  545W        W 4064   7.181   0.643   8.402 -0.0584 -0.1496  0.1895
  546W        W 4065   4.896   5.762   1.820  0.1429  0.0644 -0.1914
  547W        W 4066   3.799   5.181   3.843  0.0212 -0.1678  0.1182
  548W        W 4067   9.059   5.099   9.582  0.0099  0.0060 -0.0684
  549W        W 4068   1.291   7.524   0.520 -0.1277 -0.0394 -0.2647
  550W        W 4069   0.156   9.411   3.002  0.6095  0.0884 -0.1040
  551W        W 4070   3.379   5.680   9.641  0.1554 -0.1029 -0.0615
  552W        W 4071   1.918   6.034  11.470  0.3256  0.0282 -0.1872
  553W        W 4072   4.209   8.624  10.460  0.0300  0.2684  0.0675
  554W        W 4073   1.030   4.074   8.529  0.2578  0.2257 -0.2394
  555W        W 4074   7.429   1.021   0.012 -0.0406 -0.0341 -0.3120
  556W        W 4075   0.165   5.347   9.522  0.1952 -0.4281 -0.1751
  557W        W 4076   5.722   0.026  10.586 -0.3284  0.1492  0.1681
  558W        W 4077   6.506   0.738   1.929  0.0577 -0.0441 -0.0704
  559W        W 4078   1.717   3.520  11.069 -0.6589 -0.0373  0.2142
  560W        W 4079   5.191   2.497   1.834 -0.1074 -0.2329  0.0279
  561W        W 4080   4.428   5.132   3.963 -0.0454 -0.0933  0.0345
  562W        W 4081   4.957   0.197  10.983 -0.2683  0.1028  0.0544
  563W        W 4082   5.494   7.966   9.509  0.0432  0.2748 -0.2656
  564W        W 4083   8.401   7.739  12.196 -0.0048  0.0703  0.0268
  565W        W 4084   8.712   1.299   8.575 -0.1980  0.2146 -0.4573
  566W        W 4085   0.647   7.505   9.691  0.0227  0.2127  0.2388
  567W        W 4086   8.034   6.324   7.751 -0.0867  0.0017 -0.3024
  568W        W 4087   0.002   3.859  10.124  0.1651  0.1324  0.0653
  569W        W 4088   8.861   2.383   2.475  0.0355  0.0362 -0.1889
  570W        W 4089   5.436   5.599   0.894  0.2511 -0.1873  0.0697
  571W        W 4090   4.746   9.598  11.651  0.3197 -0.1764 -0.1694
  572W        W 4091   4.579   4.950   9.186  0.0108 -0.4325  0.2359
  573W        W 4092   6.577   8.287   1.923  0.0226 -0.0656 -0.1569
  574W        W 4093   5.259   0.571  11.818  0.1587 -0.0919 -0.2475
  575W        W 4094   2.269   0.872  12.321 -0.0684 -0.0486 -0.1498
  576W        W 4095   4.266   6.870   0.394  0.0971 -0.0719  0.3161
  577W        W 4096   0.531   3.995   8.874 -0.0923 -0.0179 -0.0610
  578W        W 4097   7.048   2.183   8.984 -0.1556 -0.2355 -0.2231
  579W        W 4098   1.451   4.819   4.076 -0.1184 -0.0197 -0.2531
  580W        W 4099   8.881   0.965   8.934 -0.3927  0.1464 -0.3791
  581W        W 4100   6.713   5.788   0.156  0.0008 -0.1581 -0.2649
  582W        W 4101   0.149   6.695   9.083 -0.0806 -0.2214  0.1439
  583W        W 4102   2.926   1.587  11.614  0.2607  0.0994 -0.0977
  584W        W 4103   0.636   5.257   8.186 -0.3395  0.2417  0.1241
  585W        W 4104   7.337   2.145  10.512  0.1343 -0.1899 -0.2879
  586W        W 4105   6.014   9.410  10.158 -0.0455  0.2534 -0.1308
  587W        W 4106   1.827   4.842   2.968 -0.3089 -0.0716  0.0222
  588W        W 4107   8.327   2.253   1.655 -0.0960  0.1026  0.3180
  589W        W 4108   1.130   0.603   3.535  0.0993 -0.1138  0.1269
  590W        W 4109   8.663   1.589  12.175 -0.0585 -0.0260  0.4668
  591W        W 4110   0.986   8.399   0.287  0.1939  0.2216 -0.2586
  592W        W 4111   6.816   1.477   2.935 -0.1066  0.0576  0.2358
  593W        W 4112   2.568   4.327   2.476 -0.0510  0.0398 -0.1358
  594W        W 4113   9.723   1.743   7.990  0.1981  0.3601 -0.0213
  595W        W 4114   5.672   2.367  11.520 -0.2806  0.0628 -0.1797
  596W        W 4115   6.473   7.831   8.848 -0.2852 -0.1984 -0.0024
  597W        W 4116   3.034   0.515  10.660 -0.0087 -0.1370  0.3533
  598W        W 4117   0.346   4.180  10.969  0.2356 -0.0924 -0.0520
  599W        W 4118   7.052   1.358   0.502 -0.1291  0.0333 -0.1740
  600W        W 4119   0.104   1.182  12.200 -0.2720  0.0978  0.3374
  601W        W 4120   1.348   4.778  12.385  0.0782 -0.0284 -0.2743
  602W        W 4121   0.252   5.770  12.159 -0.0101  0.0295 -0.1484
  603W        W 4122   2.434   0.915   1.086  0.1188 -0.0449  0.0645
  604W        W 4123   5.380   4.053   1.737 -0.2886  0.0564  0.1780
  605W        W 4124   1.310   0.066   7.725  0.0313 -0.0986 -0.2456
  606W        W 4125   9.436   7.479  10.884  0.1408  0.0190  0.2174
  607W        W 4126   2.247   4.292   3.768  0.1140 -0.3514 -0.0103
  608W        W 4127   4.676   4.702   3.132 -0.3374  0.0222  0.3108
  609W        W 4128   2.236   2.026  12.347 -0.1795  0.1729  0.3540
  610W        W 4129   8.448   8.924   1.880 -0.0539 -0.1590  0.1607
  611W        W 4130   7.788   3.362   2.123 -0.2644 -0.0009  0.3743
  612W        W 4131   0.786   4.941   9.872 -0.1166  0.3558  0.3938
  613W        W 4132   5.844   8.139   1.433 -0.0834  0.1505  0.3444
  614W        W 4133   8.146   1.540   0.453  0.1965 -0.2459 -0.0820
  615W        W 4134   6.162   4.378   0.579 -0.1877  0.0316  0.0311
  616W        W 4135   7.308   9.254   9.310 -0.0305  0.1418 -0.2541
  617W        W 4136   1.201   4.350   3.284 -0.1011 -0.0115  0.1990
  618W        W 4137   4.952   7.066   8.178 -0.0571 -0.0028 -0.0348
  619W        W 4138   9.306   3.521   4.322 -0.1639 -0.2587  0.0272
  620W        W 4139   7.681   1.157  11.121  0.1163  0.0427 -0.0251
  621W        W 4140   0.701   0.050   2.622  0.2545 -0.0574  0.1337
  622W        W 4141   1.916   7.317  11.442 -0.2985 -0.0323  0.1605
  623W        W 4142   0.224   3.589   9.637 -0.0857 -0.2637 -0.0388
  624W        W 4143   9.288   7.492  12.186 -0.2448  0.0662 -0.0184
  625W        W 4144   3.790   6.589   0.593  0.1557 -0.2272 -0.1151
  626W        W 4145   6.066   9.117   0.365 -0.2900  0.0301  0.1506
  627W        W 4146   3.560   6.111   2.196 -0.0365 -0.1405 -0.0093
  628W        W 4147   0.163   4.733   4.142 -0.1152  0.0424  0.1252
  629W        W 4148   6.257   8.588   0.270  0.0516  0.0799 -0.3457
  630W        W 4149   5.120   6.828   0.070 -0.1998 -0.0166 -0.2007
  631W        W 4150   5.374   7.389  11.118 -0.1207 -0.2900 -0.0430
  632W        W 4151   7.536   0.420  11.597 -0.3164  0.1379  0.0904
  633W        W 4152   0.329   4.218   2.446  0.3110 -0.0839 -0.0521
  634W        W 4153   4.508   5.806  10.930  0.0721 -0.0800  0.1296
  635W        W 4154   1.123   5.665   3.989  0.0361  0.3818 -0.2634
  636W        W 4155   3.402   9.585  11.115  0.2713  0.0302 -0.2827
  637W        W 4156   9.670   8.582   0.003  0.0866 -0.0258 -0.4039
  638W        W 4157   3.540   5.052   1.959 -0.0278  0.0364 -0.1096
  639W        W 4158   2.516   7.160   9.049  0.0721 -0.1290 -0.0603
  640W        W 4159   3.454   6.319  11.358 -0.1713  0.1365 -0.1560
  641W        W 4160   0.424   5.079   8.610  0.0245  0.0929  0.0059
  642W        W 4161   7.726   0.580   3.592  0.1066  0.1675 -0.3812
  643W        W 4162   6.189   0.846   2.525 -0.3988 -0.0699 -0.2042
  644W        W 4163   2.142   5.706  11.851  0.2137 -0.1102  0.1534
  645W        W 4164   2.299   7.539   0.112  0.0721 -0.0208 -0.4044
  646W        W 4165   2.402   7.378  11.474  0.2009  0.0255 -0.0408
  647W        W 4166   2.772   6.721   3.555 -0.0589  0.3755  0.0951
  648W        W 4167   3.963   5.072   7.870  0.4248 -0.0190  0.1417
  649W        W 4168   8.868   7.768  12.128 -0.0431 -0.0191  0.1378
  650W        W 4169   9.745   4.089   8.767 -0.0080 -0.5306 -0.0498
  651W        W 4170   3.827   6.173  10.286  0.2249  0.2428  0.2584
  652W        W 4171   7.768   8.580   4.117 -0.3726  0.0531 -0.1723
  653W        W 4172   4.512   6.548   0.687 -0.2514 -0.0190 -0.0496
  654W        W 4173   7.688   9.311   3.037  0.3064  0.1415  0.0452
  655W        W 4174   2.555   5.480   4.156  0.2507  0.2153  0.0637
  656W        W 4175   2.743   9.448   3.119 -0.0459  0.0872 -0.0936
  657W        W 4176   7.340   3.549   9.540 -0.1609 -0.1100 -0.0239
  658W        W 4177   9.351   4.681   9.701  0.0271  0.2490 -0.2068
  659W        W 4178   7.567   2.581   1.706  0.0367 -0.3050 -0.3796
  660W        W 4179   2.775   4.940   3.779  0.0985  0.1011  0.2873
  661W        W 4180   7.417   8.133   4.876 -0.3735  0.4613 -0.0628
  662W        W 4181   4.535   2.976   1.325 -0.1186 -0.1008  0.0069
  663W        W 4182   3.257   5.839   9.061 -0.2409 -0.0043  0.0728
  664W        W 4183   7.472   0.365  10.508 -0.1412  0.0340 -0.0083
  665W        W 4184   5.355   8.404   0.106  0.1842 -0.0337 -0.2082
  666W        W 4185   0.102   5.539  11.718 -0.0127 -0.2969 -0.1170
  667W        W 4186   2.170   2.807   0.426  0.0673  0.0453 -0.1267
  668W        W 4187   8.366   2.531   2.823 -0.2395 -0.4017  0.2337
  669W        W 4188   6.909   2.153  10.800 -0.2111  0.1426 -0.0636
  670W        W 4189   2.176   2.566  11.767 -0.2531  0.1998 -0.0841
  671W        W 4190   0.694   7.844   1.305  0.0921 -0.0227  0.1119
  672W        W 4191   8.584   9.623   9.706 -0.1450 -0.0424 -0.1667
  673W        W 4192   4.713   4.187  10.098 -0.4871 -0.0810  0.0680
  674W        W 4193   7.275   6.541   2.247  0.3063 -0.1444 -0.2406
  675W        W 4194   6.372   5.060  10.620  0.3449 -0.2182  0.0536
  676W        W 4195   3.384   7.595   1.863  0.2129  0.0066  0.2331
  677W        W 4196   9.313   5.775   1.751  0.2418  0.2139 -0.0300
  678W        W 4197   3.784   2.035  10.509  0.3858 -0.2662 -0.2775
  679W        W 4198   4.600   9.629  11.098 -0.0967  0.0082  0.2491
  680W        W 4199   4.280   7.100   3.142 -0.0372  0.0786  0.0062
  681W        W 4200   2.766   9.042   3.447 -0.2471  0.2014 -0.0354
  682W        W 4201   8.407   4.815  11.185  0.1639  0.0026  0.1693
  683W        W 4202   1.208   2.463   3.020  0.1587  0.2598 -0.1899
  684W        W 4203   4.963   7.340   3.742  0.4433 -0.0302  0.1763
  685W        W 4204   1.879   1.680   2.880 -0.1426  0.1650 -0.1056
  686W        W 4205   1.115   1.690  10.391  0.1552 -0.2219 -0.3054
  687W        W 4206   0.621   0.050   4.336 -0.1072 -0.1164 -0.0997
  688W        W 4207   5.947   6.355  10.714  0.1134  0.1550 -0.0720
  689W        W 4208   4.987   8.092   3.001 -0.2695 -0.2476 -0.0250
  690W        W 4209   3.480   0.797  10.732 -0.0506  0.1506 -0.0150
  691W        W 4210   2.774   5.982   4.024 -0.1021  0.2195 -0.3357
  692W        W 4211   7.963   8.696   0.694  0.1234  0.2367  0.2075
  693W        W 4212   2.826   0.044   1.314 -0.3641  0.0654  0.0978
  694W        W 4213   2.000   8.310  11.548  0.2318 -0.1329 -0.2318
  695W        W 4214   6.738   9.537  10.767 -0.0415 -0.2165 -0.1196
  696W        W 4215   1.614   2.369  10.528 -0.0713  0.0841 -0.1080
  697W        W 4216   3.807   4.286  10.992  0.1981  0.1223 -0.1132
  698W        W 4217   5.237   0.907   9.004  0.3626 -0.1378 -0.2622
  699W        W 4218   4.369   5.014  10.180  0.0928 -0.1802  0.1143
  700W        W 4219   5.964   0.446  10.668 -0.2592  0.0579  0.1146
  701W        W 4220   6.374   8.074   3.767 -0.0941 -0.0061 -0.1499
  702W        W 4221   6.518   1.817   2.122  0.3572 -0.1591 -0.0843
  703W        W 4222   0.969   1.067  10.016  0.2442  0.0119  0.0404
  704W        W 4223   9.263   6.598   3.751 -0.0198  0.0940  0.1687
  705W        W 4224   0.780   0.508   4.454 -0.0841 -0.3416  0.1108
  706W        W 4225   2.972   2.733  10.212  0.0053 -0.1816  0.1896
  707W        W 4226   1.471   2.530  12.355  0.0339  0.3312  0.0271
  708W        W 4227   2.051   1.029   2.750 -0.0838 -0.1719 -0.0180
  709W        W 4228   0.746   2.944   1.466  0.1042 -0.1109  0.0470
  710W        W 4229   1.682   3.853   0.962  0.0640 -0.0779 -0.1579
  711W        W 4230   0.449   6.945   0.632 -0.2584 -0.1576 -0.3050
  712W        W 4231   1.558   0.112   2.582  0.1218  0.1891  0.0062
  713W        W 4232   4.481   3.274   1.893  0.2266  0.0397 -0.1433
  714W        W 4233   9.186   0.253  10.473 -0.2143  0.0005  0.1733
  715W        W 4234   0.398   8.946   3.778  0.0883 -0.1400 -0.0825
  716W        W 4235   5.131   0.296  12.354 -0.0290 -0.0007 -0.0929
  717W        W 4236   4.876   3.010   2.458 -0.0590  0.4994  0.0263
  718W        W 4237   5.037   5.891   4.226 -0.1743 -0.3183 -0.0356
  719W        W 4238   3.035   2.864   2.027  0.0522 -0.1227 -0.3516
  720W        W 4239   6.535   6.596   9.327  0.1182  0.1794  0.0542
  721W        W 4240   2.942   5.588   9.991 -0.0295 -0.3345  0.3214
  722W        W 4241   2.183   6.273   9.337 -0.3719 -0.1091 -0.2100
  723W        W 4242   7.969   5.224   0.442  0.2034  0.2131 -0.1730
  724W        W 4243   7.846   2.288  11.286  0.2101  0.1877  0.1579
  725W        W 4244   4.613   5.390   9.921  0.2274 -0.1693  0.1161
  726W        W 4245   6.587   4.013   3.316 -0.0282  0.0393  0.1956
  727W        W 4246   9.009   0.539   8.545 -0.2065 -0.0480 -0.1180
  728W        W 4247   0.222   9.134  11.058 -0.1710  0.0777 -0.3019
  729W        W 4248   7.182   4.529   0.280 -0.3680 -0.0764 -0.1756
  730W        W 4249   3.881   8.647   9.566  0.2017  0.2755 -0.0073
  731W        W 4250   9.495   9.666   9.672  0.0541 -0.0288  0.1387
  732W        W 4251   7.707   2.766   0.847 -0.1852  0.1931 -0.0019
  733W        W 4252   4.458   1.910   1.789 -0.0817 -0.0593  0.2265
  734W        W 4253   0.289   9.166   0.437  0.0282  0.1849  0.3317
  735W        W 4254   2.817   1.709   8.846 -0.2683  0.1030 -0.0189
  736W        W 4255   7.886   8.380   3.616 -0.1721  0.2169 -0.1004
  737W        W 4256   0.365   6.128   2.017  0.1941  0.2784  0.1282
  738W        W 4257   7.976   2.585  11.978  0.3143 -0.0160 -0.2716
  739W        W 4258   1.200   2.826   9.206 -0.1317 -0.0361 -0.1374
  740W        W 4259   3.830   6.557  10.627 -0.1609  0.1224  0.1315
  741W        W 4260   0.519   2.501   8.120  0.2662  0.0595  0.0459
  742W        W 4261   1.182   6.283   9.326 -0.0252 -0.0342 -0.0392
  743W        W 4262   3.983   4.124   9.778 -0.3661  0.1216  0.4855
  744W        W 4263   6.764   9.295   9.971  0.1070  0.0864 -0.0184
  745W        W 4264   3.013   6.288   0.719  0.3960  0.1748 -0.0510
  746W        W 4265   1.394   3.754   9.520  0.2548  0.1533  0.1375
  747W        W 4266   1.971   9.263   8.376 -0.4541 -0.1055 -0.0065
  748W        W 4267   2.533   8.543  10.427  0.2815 -0.1446  0.0830
  749W        W 4268   8.925   1.128  10.182  0.0312  0.0052  0.4817
  750W        W 4269   7.446   7.276  12.384  0.3655  0.1124 -0.0845
  751W        W 4270   6.951   0.346   2.960 -0.1569  0.0082 -0.3458
  752W        W 4271   1.676   9.184  11.239 -0.3465  0.1211  0.0397
  753W        W 4272   4.652   3.876   2.727  0.0266  0.0118  0.1711
  754W        W 4273   3.669   7.205   2.269  0.2022 -0.1079 -0.3238
  755W        W 4274   6.218   4.863   2.982 -0.2191 -0.4399  0.0844
  756W        W 4275   5.212   4.335  10.162  0.3474 -0.3595  0.2137
  757W        W 4276   4.934   8.061   0.315  0.2589 -0.2094  0.1050
  758W        W 4277   6.590   6.761  11.228 -0.1430 -0.0073 -0.0582
  759W        W 4278   6.267   9.386   2.658 -0.0294 -0.1341  0.1328
  760W        W 4279   9.734   3.491  12.022 -0.2062  0.1084 -0.2983
  761W        W 4280   3.687   4.652   9.693  0.1786 -0.0479  0.3269
  762W        W 4281   3.894   0.500   1.911 -0.1366 -0.0700  0.0489
  763W        W 4282   8.724   3.400   8.350  0.2330 -0.5019  0.0230
  764W        W 4283   0.512   8.461   1.678 -0.1245 -0.0121 -0.1739
  765W        W 4284   8.904   1.520   3.612 -0.1942  0.0742 -0.1068
  766W        W 4285   6.982   4.968   1.700 -0.0694 -0.0176 -0.0645
  767W        W 4286   3.295   6.706   8.725  0.1549 -0.0739 -0.2899
  768W        W 4287   4.699   0.339   9.634 -0.4199  0.3845  0.2923
  769W        W 4288   9.405   6.814   9.168 -0.0966  0.0534  0.2351
  770W        W 4289   5.392   3.758   8.399 -0.3098  0.0139 -0.0844
  771W        W 4290   1.509   7.671   3.219 -0.4409  0.1960 -0.1644
  772W        W 4291   5.467   8.724  11.154  0.2216 -0.1817 -0.0850
  773W        W 4292   0.045   2.056   3.666 -0.0488  0.1251 -0.3477
  774W        W 4293   3.081   7.916   2.613 -0.0500 -0.0660 -0.0502
  775W        W 4294   4.440   8.765   3.951 -0.2346  0.0499 -0.0043
  776W        W 4295   0.204   2.698   1.784 -0.0191  0.3252 -0.0281
  777W        W 4296   7.709   8.756   0.221  0.1491 -0.3421  0.0211
  778W        W 4297   9.703   1.158   3.253  0.1264 -0.0106 -0.0258
  779W        W 4298   2.394   8.933  12.404 -0.2231  0.2863  0.2182
  780W        W 4299   2.508   4.009   4.504  0.0619  0.2563  0.0115
  781W        W 4300   9.312   6.082   0.959  0.2837 -0.2122 -0.2402
  782W        W 4301   5.278   6.530   2.600  0.1199 -0.1717 -0.1143
  783W        W 4302   7.446   4.155   1.733 -0.1404  0.2239  0.0279
  784W        W 4303   7.698   5.790  10.471 -0.2911 -0.0495 -0.0122
  785W        W 4304   1.920   0.029   2.106 -0.0872  0.0219  0.1372
  786W        W 4305   7.953   5.949   2.090 -0.3756  0.0621  0.0554
  787W        W 4306   4.386   5.112   0.760 -0.2373  0.1395 -0.3408
  788W        W 4307   4.289   0.659   3.785  0.3743 -0.0872  0.1238
  789W        W 4308   7.957   2.421   0.575  0.0441 -0.1388  0.0288
  790W        W 4309   2.888   8.707  11.251  0.0959 -0.0022  0.3101
  791W        W 4310   5.007   5.126   0.189 -0.1751  0.0053  0.1440
  792W        W 4311   5.748   3.572   9.261  0.1357  0.0536  0.2052
  793W        W 4312   1.637   6.433  11.461  0.2021  0.1676  0.0497
  794W        W 4313   7.594   0.855  10.738 -0.0804  0.0659 -0.0996
  795W        W 4314   7.447   5.360   0.172  0.1738  0.0306 -0.0625
  796W        W 4315   1.257   1.245   3.423  0.0259  0.1266 -0.4320
  797W        W 4316   4.735   6.620  11.629  0.1901 -0.1054 -0.1841
  798W        W 4317   6.973   8.813   2.765  0.1250 -0.0203 -0.0071
  799W        W 4318   4.106   2.421  10.404  0.0743  0.2117  0.2851
  800W        W 4319   1.752   4.460   2.381  0.1948  0.1179 -0.4605
  801W        W 4320   1.015   8.625  10.866  0.0234  0.3313 -0.1415
  802W        W 4321   8.331   5.649  11.956 -0.3446  0.1420 -0.0485
  803W        W 4322   7.450   0.869   2.880 -0.1664 -0.0649  0.1067
  804W        W 4323   0.336   1.721   8.744 -0.1786  0.0154  0.2130
  805W        W 4324   9.594   1.956   1.895  0.2685  0.0798  0.0769
  806W        W 4325   6.357   0.396   9.487 -0.0090 -0.2166 -0.2289
  807W        W 4326   1.578   8.867   1.555  0.0103  0.0536 -0.0220
  808W        W 4327   6.807   6.721  10.287  0.0944 -0.0725 -0.1375
  809W        W 4328   3.857   7.061  11.993 -0.0041 -0.3208 -0.1995
  810W        W 4329   7.099   5.509   0.999  0.2396  0.1763  0.0563
  811W        W 4330   6.804   5.960   2.932 -0.0350  0.0240  0.1154
  812W        W 4331   5.402   6.472   3.098 -0.1385 -0.0938  0.0543
  813W        W 4332   3.399   5.654   0.487  0.2593 -0.2132  0.5118
  814W        W 4333   2.791   1.176   8.922  0.1328  0.1323 -0.1958
  815W        W 4334   8.294   0.229   1.407  0.2290 -0.1284 -0.2116
  816W        W 4335   6.670   9.061   0.931 -0.1115 -0.0641 -0.0345
  817W        W 4336   1.788   4.193   3.497 -0.0233 -0.0333 -0.0476
  818W        W 4337   4.159   0.716   2.304  0.2217 -0.2597  0.1208
  819W        W 4338   6.786   8.718   3.233 -0.0614  0.2045 -0.0529
  820W        W 4339   1.125   8.759   9.879  0.0262 -0.0020  0.0155
  821W        W 4340   8.031   6.109   1.585 -0.3987  0.0927 -0.1919
  822W        W 4341   2.398   5.352   9.316  0.1575  0.0555  0.0093
  823W        W 4342   2.289   0.843  11.782 -0.3223 -0.2651  0.0848
  824W        W 4343   4.238   1.415  10.500  0.2864  0.0179  0.2250
  825W        W 4344   9.213   2.746   3.248 -0.3338  0.1756  0.0255
  826W        W 4345   3.132   5.875   1.705 -0.1133  0.0935  0.4563
  827W        W 4346   8.629   6.357   8.465  0.1741  0.1701 -0.0621
  828W        W 4347   9.466   2.472   1.692 -0.1925 -0.0187  0.1225
  829W        W 4348   0.088   7.103   4.280 -0.0100 -0.1824 -0.0070
  830W        W 4349   4.397   1.408   2.975  0.0986 -0.0676  0.0668
  831W        W 4350   9.454   9.071   0.440 -0.1052 -0.1464 -0.0212
  832W        W 4351   4.919   6.450  12.116  0.1998  0.0756  0.0268
  833W        W 4352   9.085   4.926   1.428  0.0022 -0.2375 -0.1959
  834W        W 4353   7.356   5.276   3.100  0.0039 -0.1864 -0.1927
  835W        W 4354   1.389   1.770   9.410 -0.2752  0.2202  0.0099
  836W        W 4355   1.408   7.833   1.395  0.1447  0.1179  0.2506
  837W        W 4356   9.410   6.746   3.248  0.5192 -0.0147  0.2935
  838W        W 4357   9.032   3.051   8.592 -0.1585 -0.0866 -0.1496
  839W        W 4358   5.325   2.880   2.225 -0.4607 -0.0420  0.0273
  840W        W 4359   0.769   7.507  12.074 -0.1369  0.2325  0.0134
  841W        W 4360   2.861   8.169   9.687  0.1847 -0.3669 -0.1924
  842W        W 4361   0.337   5.352   0.651  0.3687  0.0135 -0.3338
  843W        W 4362   5.185   4.597   3.111  0.1687 -0.0359 -0.2183
  844W        W 4363   1.251   5.346   4.987 -0.1826  0.0507 -0.0182
  845W        W 4364   4.327   2.788   8.276 -0.2272 -0.0757 -0.1012
  846W        W 4365   1.938   5.773   3.486  0.3732 -0.0756  0.0250
  847W        W 4366   5.476   5.987   0.131  0.2384 -0.0368  0.0997
  848W        W 4367   2.535   7.659   0.516  0.0757 -0.0959  0.1869
  849W        W 4368   3.389   3.810   2.063  0.0308  0.1718 -0.2291
  850W        W 4369   6.133   0.417   8.909 -0.0708  0.1287 -0.0845
  851W        W 4370   0.715   5.130   3.780 -0.1078 -0.3062  0.2854
  852W        W 4371   0.674   6.805   9.031  0.0828  0.3477  0.2805
  853W        W 4372   7.481   3.495   8.498 -0.0392  0.0214  0.1137
  854W        W 4373   7.949   9.437  11.876  0.0557 -0.1472 -0.0076
  855W        W 4374   6.197   3.707   2.172 -0.2055 -0.2031  0.0869
  856W        W 4375   8.838   7.010   3.880  0.0680 -0.1260  0.2877
  857W        W 4376   9.483   3.749   0.003  0.1380  0.0258 -0.1772
  858W        W 4377   4.115   6.573   1.042 -0.3257  0.1835 -0.0076
  859W        W 4378   8.349   4.576   2.305  0.0490 -0.0745 -0.1276
  860W        W 4379   4.658   1.017   0.851 -0.2653 -0.2948  0.0042
  861W        W 4380   4.169   9.033   3.682  0.0789 -0.0561  0.2662
  862W        W 4381   9.030   8.823   3.229 -0.0564  0.0901  0.4188
  863W        W 4382   5.238   5.569  11.097 -0.0810 -0.3656  0.1054
  864W        W 4383   9.025   0.631   2.677  0.0289  0.1104  0.3128
  865W        W 4384   7.606   1.134  10.207  0.0069 -0.1794  0.2189
  866W        W 4385   6.304   0.611   0.986 -0.2076  0.1574  0.0967
  867W        W 4386   9.063   1.099   0.155  0.2976  0.3100  0.0115
  868W        W 4387   1.495   8.458   1.945  0.2367  0.0365 -0.0700
  869W        W 4388   4.724   6.662   8.555  0.1286 -0.1737  0.1916
  870W        W 4389   6.451   4.449   3.029 -0.2779  0.1234  0.0569
  871W        W 4390   3.550   2.740  11.653  0.1816 -0.0284 -0.1502
  872W        W 4391   2.081   6.125   4.169 -0.1784 -0.0084  0.0876
  873W        W 4392   2.193   5.620   1.839  0.3577 -0.2593  0.0781
  874W        W 4393   3.039   9.163  10.901 -0.1895  0.0876  0.1963
  875W        W 4394   7.920   7.903   9.906 -0.0624  0.2156 -0.1327
  876W        W 4395   8.994   5.263   3.459 -0.0395 -0.1179 -0.2568
  877W        W 4396   3.238   0.957   4.056  0.0176 -0.0713 -0.0807
  878W        W 4397   8.549   8.185  10.282 -0.2412  0.2923  0.2634
  879W        W 4398   1.866   2.545   9.177  0.1319 -0.1696  0.0149
  880W        W 4399   1.503   9.072  11.711 -0.2442 -0.0786 -0.0485
  881W        W 4400   7.337   6.670   9.608  0.1978  0.1626 -0.1787
  882W        W 4401   3.428   7.052   1.346  0.1508 -0.2058 -0.1524
  883W        W 4402   9.263   6.902   2.747  0.0724 -0.2683  0.1481
  884W        W 4403   3.381   5.036  10.468 -0.2014  0.0901  0.0876
  885W        W 4404   1.905   9.237   1.381 -0.0985  0.0160 -0.1310
  886W        W 4405   6.580   5.246  11.261  0.2823  0.1043 -0.0504
  887W        W 4406   3.257   9.508  11.622 -0.2782  0.0790 -0.4558
  888W        W 4407   4.541   1.865   2.330  0.3506  0.0881  0.1654
  889W        W 4408   0.812   6.870   0.957 -0.1866 -0.0196 -0.1127
  890W        W 4409   5.519   4.361  11.713 -0.2397  0.2009 -0.2589
  891W        W 4410   5.825   8.054  11.693  0.1865  0.0587  0.2147
  892W        W 4411   5.746   4.361  10.980 -0.1553  0.1523  0.2539
  893W        W 4412   2.676   4.903   9.342  0.1268 -0.1836  0.3110
  894W        W 4413   3.075   0.288   9.224 -0.1525  0.2823 -0.1321
  895W        W 4414   1.585   0.439  10.466 -0.1289  0.0345 -0.0099
  896W        W 4415   0.782   9.404   2.948  0.1925 -0.2008  0.0849
  897W        W 4416   8.395   3.719   8.509 -0.2060  0.1908 -0.1422
  898W        W 4417   4.016   1.043   0.677  0.3143  0.0541 -0.0818
  899W        W 4418   5.062   0.028   9.711 -0.2340  0.5341 -0.1424
  900W        W 4419   9.274   2.945   9.121  0.0347  0.1872  0.3759
  901W        W 4420   6.943   2.555  10.484  0.0488  0.5194 -0.3363
  902W        W 4421   0.817   4.948  12.112  0.1354 -0.1729  0.1294
  903W        W 4422   2.271   3.448   9.153 -0.0500  0.2028 -0.3128
  904W        W 4423   6.679   7.087  11.606 -0.4766  0.1315 -0.1701
  905W        W 4424   3.916   8.325  11.524  0.1239 -0.1437 -0.1838
  906W        W 4425   1.793   4.395  10.689  0.3181 -0.0329  0.0737
  907W        W 4426   9.214   3.223   2.466  0.0035 -0.2161 -0.3377
  908W        W 4427   0.982   9.684   1.568 -0.0482  0.0858 -0.0241
  909W        W 4428   2.378   4.709   4.015  0.1321  0.1113 -0.2870
  910W        W 4429   7.225   0.239   1.904 -0.1845 -0.0214  0.0977
  911W        W 4430   2.795   0.427   0.506 -0.1792 -0.3264  0.1829
  912W        W 4431   7.336   4.063   9.159  0.0465  0.0683 -0.0055
  913W        W 4432   7.216   7.155   2.228  0.2208 -0.1383  0.0967
  914W        W 4433   1.818   5.235  11.012 -0.1441 -0.2314  0.1691
  915W        W 4434   7.370   6.030   2.248 -0.0203  0.2172  0.4212
  916W        W 4435   5.283   7.008   3.464 -0.0604  0.2579 -0.2884
  917W        W 4436   3.979   0.461   8.944 -0.0078 -0.0122  0.0157
  918W        W 4437   9.061   8.580   1.129  0.1016  0.2228 -0.0122
  919W        W 4438   4.541   5.026  12.230 -0.1508 -0.3071 -0.0322
  920W        W 4439   5.971   5.157  10.909 -0.1734  0.3393 -0.0296
  921W        W 4440   2.498   7.413   8.462  0.1066  0.2507  0.0756
  922W        W 4441   2.635   8.344   0.456 -0.0741 -0.0048 -0.2114
  923W        W 4442   4.483   1.367  11.837 -0.1050 -0.0961 -0.4091
  924W        W 4443   0.467   1.643  12.283  0.2737  0.2781  0.1201
  925W        W 4444   4.847   2.122  12.298  0.1617 -0.1347  0.1022
  926W        W 4445   2.198   9.042   3.445  0.1392  0.1341  0.1618
  927W        W 4446   3.877   4.329   3.696 -0.0323 -0.0955  0.1588
  928W        W 4447   3.077   0.051   0.709  0.0432 -0.0353 -0.0597
  929W        W 4448   6.221   6.009   0.874  0.1261 -0.0296 -0.3289
  930W        W 4449   8.711   5.995   8.821  0.0728 -0.2598 -0.2148
  931W        W 4450   5.500   5.111   1.798  0.1096 -0.0482 -0.0962
  932W        W 4451   3.824   5.090  10.154 -0.2568 -0.1751  0.2184
  933W        W 4452   8.439   6.074   2.197 -0.1542  0.0317  0.0095
  934W        W 4453   3.398   8.953   2.492 -0.3530 -0.1510 -0.0362
  935W        W 4454   2.932   5.734   2.680  0.0410  0.2805  0.1329
  936W        W 4455   0.654   5.588   4.202 -0.0426  0.2415  0.1246
  937W        W 4456   0.072   3.914   1.652 -0.1847  0.0367 -0.1339
  938W        W 4457   2.615   9.220   2.498 -0.5814  0.0432  0.1562
  939W        W 4458   4.099   9.023  11.232  0.0922  0.0315  0.0971
  940W        W 4459   3.019   5.365   7.805  0.1859  0.0182 -0.0427
  941W        W 4460   6.984   3.707   2.464  0.1456 -0.0698  0.1371
  942W        W 4461   8.540   2.537   9.737  0.0075  0.3315 -0.3231
  943W        W 4462   7.322   9.248   3.388 -0.0308 -0.3418 -0.0640
  944W        W 4463   7.675   0.290   0.093  0.2107 -0.1802 -0.2261
  945W        W 4464   1.658   2.179  10.025 -0.1666 -0.0855 -0.0999
  946W        W 4465   8.109   5.694  10.823 -0.0395 -0.1312  0.0514
  947W        W 4466   9.481   3.918   8.371 -0.0964 -0.0724  0.0213
  948W        W 4467   8.722   5.653   2.305  0.1529 -0.3207  0.1410
  949W        W 4468   2.938   4.283   0.894  0.0240 -0.0053 -0.2767
  950W        W 4469   8.015   7.296   3.746 -0.2223  0.0151  0.1113
  951W        W 4470   7.626   4.851   0.352  0.1545  0.0347 -0.0210
  952W        W 4471   1.591   8.558  11.757 -0.1521  0.1936 -0.3544
  953W        W 4472   7.801   7.865   0.755  0.2230  0.1309 -0.2243
  954W        W 4473   2.519   2.487  11.381  0.2401  0.0944  0.0196
  955W        W 4474   1.972   1.612   1.628 -0.2388  0.3138 -0.0855
  956W        W 4475   8.170   7.249  11.579  0.0383 -0.0980  0.0192
  957W        W 4476   1.108   1.514   8.251  0.1185  0.1665 -0.4104
  958W        W 4477   1.206   9.201   3.110 -0.0112 -0.0625  0.2096
  959W        W 4478   2.329   4.618   2.858 -0.2496  0.1383 -0.0058
  960W        W 4479   9.191   5.911   8.847 -0.1457 -0.1613 -0.0295
  961W        W 4480   1.621   3.033   9.882 -0.2408 -0.0467 -0.2191
  962W        W 4481   2.826   0.569   1.211 -0.3609  0.0122  0.2203
  963W        W 4482   4.254   8.703   2.051  0.1172  0.0287  0.0193
  964W        W 4483   3.388   8.816   0.789 -0.0818 -0.0736 -0.3310
  965W        W 4484   4.908   6.325   2.999 -0.2010  0.1200  0.1296
  966W        W 4485   4.852   9.233   2.292 -0.2319  0.1601  0.5426
  967W        W 4486   2.500   4.014  12.369 -0.2004 -0.1328 -0.0920
  968W        W 4487   1.388   2.378   8.184  0.0464 -0.2118  0.1697
  969W        W 4488   7.413   4.190   0.582 -0.1065  0.0082 -0.1575
  970W        W 4489   4.131   6.576  12.199 -0.0975  0.2201  0.0296
  971W        W 4490   3.815   3.993   0.312  0.1359 -0.1859 -0.1198
  972W        W 4491   2.392   8.476  10.921 -0.2522  0.2700 -0.2242
  973W        W 4492   3.312   0.578   2.749  0.1886 -0.2775 -0.1379
  974W        W 4493   7.050   9.358  11.495 -0.2107  0.2674 -0.0113
  975W        W 4494   0.671   8.095   2.506 -0.3253 -0.2147 -0.0193
  976W        W 4495   2.206   8.474   0.128  0.0553 -0.0930 -0.2245
  977W        W 4496   4.327   0.860  11.108 -0.1429  0.4116 -0.2458
  978W        W 4497   8.523   1.027   8.106  0.4166 -0.1430  0.0673
  979W        W 4498   0.611   2.883   9.466  0.3193 -0.1525  0.1351
  980W        W 4499   8.486   8.711  11.339 -0.1652 -0.0215 -0.2266
  981W        W 4500   7.337   6.753   1.437 -0.2247 -0.2481 -0.1535
  982W        W 4501   9.463   7.851  11.850  0.2217 -0.1197 -0.0277
  983W        W 4502   9.472   8.188   2.339 -0.0952  0.2776 -0.0142
  984W        W 4503   0.871   2.831   2.855 -0.0547  0.0235  0.4498
  985W        W 4504   8.288   6.892   3.075  0.4016 -0.3505 -0.1173
  986W        W 4505   7.294   8.366   3.447  0.3659  0.0270  0.2242
  987W        W 4506   2.945   6.358   4.288  0.0966  0.0536 -0.1033
  988W        W 4507   6.261   3.541   9.351  0.0051  0.0735 -0.2133
  989W        W 4508   9.373   7.478   2.783  0.0838  0.0452 -0.1146
  990W        W 4509   2.522   3.253   1.020  0.0243  0.3621 -0.1053
  991W        W 4510   7.043   6.985   1.795  0.0534  0.1888  0.0809
  992W        W 4511   6.284   5.540  10.975  0.1174  0.3430 -0.0116
  993W        W 4512   5.023   3.631   1.847  0.0339  0.3237  0.4474
  994W        W 4513   9.304   1.650  11.389  0.0301 -0.0418 -0.1977
  995W        W 4514   1.280   5.668   1.584 -0.1612  0.1704 -0.1054
  996W        W 4515   9.338   0.418   9.495  0.0858 -0.2946 -0.1277
  997W        W 4516   5.749   9.018   2.527  0.4846 -0.0326  0.0286
  998W        W 4517   0.220   2.513  11.505 -0.0616  0.0583  0.0235
  999W        W 4518   6.976   7.999  10.702 -0.0683 -0.0644 -0.0417
 1000W        W 4519   7.124   1.152   2.374  0.0388 -0.1901 -0.1649
 1001W        W 4520   7.724   8.934  10.952 -0.0290  0.0266 -0.1841
 1002W        W 4521   4.917   1.589   1.622 -0.4584 -0.2911  0.1687
 1003W        W 4522   6.850   8.941   9.253  0.0332 -0.1375 -0.2147
 1004W        W 4523   8.239   4.188  11.637  0.0668  0.0138  0.1329
 1005W        W 4524   7.171   0.945  10.374  0.1600 -0.2442  0.3172
 1006W        W 4525   1.544   0.307   0.933 -0.1338  0.2259 -0.0204
 1007W        W 4526   7.495   6.192   8.696 -0.5137 -0.1354 -0.1359
 1008W        W 4527   3.541   7.621   0.430 -0.2044  0.2067  0.2724
 1009W        W 4528   7.468   3.091   0.151  0.1057 -0.1675 -0.0584
 1010W        W 4529   3.252   6.514   1.992  0.0721  0.1192 -0.1415
 1011W        W 4530   0.408   6.397   8.703 -0.0397  0.0347 -0.2630
 1012W        W 4531   3.292   6.608  11.811  0.1275  0.2320  0.1308
 1013W        W 4532   7.326   4.736   2.013  0.0024 -0.0757 -0.4262
 1014W        W 4533   3.384   4.803   0.358  0.1267  0.1169  0.0382
 1015W        W 4534   5.186   7.499  10.518 -0.3393 -0.4357  0.0451
 1016W        W 4535   5.809   2.120   2.597 -0.1745 -0.0168  0.0977
 1017W        W 4536   2.362   4.333  11.332 -0.0884  0.2398 -0.0251
 1018W        W 4537   4.867   0.998  11.045  0.0351 -0.0120 -0.0095
 1019W        W 4538   4.440   6.902   2.595  0.0516 -0.1677 -0.1144
 1020W        W 4539   8.968   0.102   0.245  0.0827 -0.0402  0.0110
 1021W        W 4540   8.498   4.650   8.892  0.1216 -0.2827  0.0711
 1022W        W 4541   6.331   5.856   1.387  0.2598  0.2189 -0.1918
 1023W        W 4542   7.211   4.545   1.381  0.0746  0.2286  0.0088
 1024W        W 4543   8.999   3.817   9.680  0.1711  0.0893 -0.0511
 1025W        W 4544   4.202   4.483   3.361 -0.1966 -0.0944  0.1901
 1026W        W 4545   1.269   9.349   0.201 -0.3070  0.1314  0.1449
 1027W        W 4546   0.599   7.337   1.045 -0.1281 -0.1399 -0.2627
 1028W        W 4547   0.720   2.250   3.024 -0.0878 -0.1173 -0.1646
 1029W        W 4548   8.555   6.281   9.535  0.2179 -0.0944 -0.0812
 1030W        W 4549   4.217   3.621   1.530  0.0911  0.2754  0.0743
 1031W        W 4550   0.601   7.958  12.156 -0.1112 -0.1402 -0.1234
 1032W        W 4551   2.885   0.094   0.211  0.3052  0.1681  0.1672
 1033W        W 4552   8.876   2.748   4.181 -0.1042 -0.2245  0.1722
 1034W        W 4553   2.500   7.426   7.947 -0.0028 -0.2320 -0.1364
 1035W        W 4554   8.777   1.626  11.647  0.0232 -0.1563  0.4308
 1036W        W 4555   4.850   3.903   8.387 -0.3252  0.0878  0.2325
 1037W        W 4556   5.903   1.221   1.604 -0.0241 -0.0138 -0.3993
 1038W        W 4557   3.032   7.325   8.161 -0.1406  0.0916 -0.3577
 1039W        W 4558   1.637   3.275   8.739 -0.0175 -0.0769  0.3199
 1040W        W 4559   8.581   6.853  10.294 -0.4372 -0.0836 -0.3137
 1041W        W 4560   8.507   3.972   2.739  0.3052 -0.0262  0.1542
 1042W        W 4561   3.644   4.314   9.246  0.1230  0.1987 -0.2865
 1043W        W 4562   0.550   0.472  11.804  0.1407 -0.0730 -0.0869
 1044W        W 4563   8.949   3.830   8.446  0.1243 -0.2574  0.2715
 1045W        W 4564   1.499   8.313  11.329 -0.1177 -0.0718 -0.1440
 1046W        W 4565   2.481   8.810   3.008  0.0685 -0.4640  0.0880
 1047W        W 4566   3.149   2.399   1.945  0.1671  0.6225  0.0345
 1048W        W 4567   9.364   6.088  11.213 -0.0113  0.0001  0.0538
 1049W        W 4568   9.373   2.253   2.463 -0.1355 -0.1781 -0.0361
 1050W        W 4569   5.965   3.528   9.718  0.0298 -0.3192 -0.2673
 1051W        W 4570   9.628   1.269  11.704  0.4334 -0.0930 -0.0102
 1052W        W 4571   3.630   4.685   3.968 -0.2468 -0.0878 -0.0905
 1053W        W 4572   5.479   6.994   9.780  0.0045 -0.2382  0.0418
 1054W        W 4573   7.198   2.763   2.442  0.0210  0.1369  0.1648
 1055W        W 4574   1.098   6.310  12.275  0.0104 -0.1866 -0.2022
 1056W        W 4575   2.542   8.007  10.982 -0.1412  0.1086  0.3192
 1057W        W 4576   8.631   8.004   1.994  0.0398  0.0457  0.0884
 1058W        W 4577   6.755   7.312   0.521 -0.2132 -0.1989  0.4142
 1059W        W 4578   1.364   7.866   4.248 -0.0783  0.1732 -0.0996
 1060W        W 4579   2.701   5.647   2.170  0.1600 -0.2116  0.0131
 1061W        W 4580   3.895   4.823   3.502  0.1868 -0.2658  0.1214
 1062W        W 4581   2.982   2.221   9.982 -0.1046  0.4106  0.1615
 1063W        W 4582   4.248   5.619   0.942 -0.0807  0.3363  0.2304
 1064W        W 4583   4.696   7.572   9.344 -0.0869 -0.0267 -0.4560
 1065W        W 4584   1.008   5.824   3.092  0.0552 -0.0157  0.1445
 1066W        W 4585   4.465   5.479   3.585 -0.1079  0.2284 -0.3509
 1067W        W 4586   3.195   7.666  11.497 -0.1743  0.2127  0.2655
 1068W        W 4587   8.728   3.255  12.326  0.0782 -0.2745 -0.3881
 1069W        W 4588   6.038   8.431  10.716 -0.1442  0.0226 -0.0088
 1070W        W 4589   6.058   6.839   4.191 -0.4710 -0.0097  0.1520
 1071W        W 4590   4.786   5.880   3.197  0.0780  0.1842  0.2354
 1072W        W 4591   0.738   4.344  11.274 -0.1462  0.2420  0.2252
 1073W        W 4592   2.278   7.894   9.594 -0.1484  0.0426  0.7093
 1074W        W 4593   5.785   7.042   9.001 -0.1210 -0.0712 -0.1943
 1075W        W 4594   2.174   2.290   9.860  0.2717  0.1335 -0.2758
 1076W        W 4595   2.066   7.110   4.967 -0.2368  0.2404 -0.0592
 1077W        W 4596   4.433   8.300  11.629  0.2278 -0.2047 -0.3163
 1078W        W 4597   7.855   0.004  11.468 -0.1097  0.3380  0.0355
 1079W        W 4598   0.469   9.296  12.199  0.1600  0.2357  0.2152
 1080W        W 4599   9.137   3.183   3.831  0.1314 -0.1684 -0.1281
 1081W        W 4600   1.286   3.204   9.574  0.3635 -0.3421  0.0669
 1082W        W 4601   5.659   9.689   2.764  0.2449 -0.2147 -0.1165
 1083W        W 4602   7.989   7.880   0.310  0.2274  0.0346 -0.1605
 1084W        W 4603   3.022   3.284  11.830  0.1057  0.1256  0.1630
 1085W        W 4604   0.041   3.433   4.574  0.0365  0.1233  0.1204
 1086W        W 4605   4.345   8.358  10.892  0.3072 -0.0853  0.0773
 1087W        W 4606   8.681   0.110   3.279 -0.0635 -0.1626  0.6387
 1088W        W 4607   1.909   1.764  11.340  0.1641 -0.2638 -0.2875
 1089W        W 4608   5.889   5.111   9.880  0.2741  0.1656  0.0301
 1090W        W 4609   8.196   1.833   8.622 -0.2551 -0.0693 -0.0196
 1091W        W 4610   3.118   0.093   4.072  0.4813  0.2303 -0.1630
 1092W        W 4611   6.496   0.589   0.149 -0.3379 -0.0264 -0.0095
 1093W        W 4612   4.002   5.006   0.333 -0.2680 -0.1734 -0.1970
 1094W        W 4613   5.834   1.617   9.980  0.0456  0.2789  0.1320
 1095W        W 4614   6.667   3.520   0.381  0.1786 -0.0437  0.0845
 1096W        W 4615   0.060   3.953   2.916 -0.0004 -0.1495  0.3179
 1097W        W 4616   6.441   4.095   0.916  0.0131 -0.0126 -0.2499
 1098W        W 4617   6.740   8.813  10.165 -0.1430  0.0438  0.2228
 1099W        W 4618   1.108   7.560   9.540  0.1118  0.2497  0.2526
 1100W        W 4619   0.432   7.952   8.429 -0.0107 -0.0580 -0.0997
 1101W        W 4620   0.412   9.353   1.344 -0.0667  0.1790 -0.0099
 1102W        W 4621   5.121   6.228  10.436 -0.2269 -0.0876  0.0392
 1103W        W 4622   4.250   5.943   0.363 -0.0883 -0.2320 -0.1628
 1104W        W 4623   5.464   7.013  12.117  0.0603  0.1373  0.2149
 1105W        W 4624   5.806   3.010  10.397 -0.0742  0.2392 -0.2019
 1106W        W 4625   0.147   8.585  11.095 -0.1429  0.1223  0.1850
 1107W        W 4626   6.484   2.924   9.480 -0.0315 -0.1773  0.2261
 1108W        W 4627   7.320   0.345   1.358  0.1763 -0.0879 -0.2066
 1109W        W 4628   6.171   4.403   4.122  0.0989  0.0955  0.0934
 1110W        W 4629   2.592   3.740  10.041  0.1388 -0.1441 -0.1615
 1111W        W 4630   5.602   6.270  10.292  0.2173  0.2685 -0.2259
 1112W        W 4631   7.943   2.674  10.559  0.1722  0.0990  0.0651
 1113W        W 4632   4.717   7.667   3.003 -0.1218  0.0895  0.2181
 1114W        W 4633   6.076   1.722   2.342  0.0962  0.1778  0.2422
 1115W        W 4634   3.700   4.877  12.362  0.0270  0.1788 -0.0638
 1116W        W 4635   8.947   8.223   3.160  0.3285 -0.1165 -0.2698
 1117W        W 4636   3.936   3.441   8.656 -0.1623 -0.0802  0.1424
 1118W        W 4637   6.827   4.275   4.048  0.3947  0.1552 -0.3957
 1119W        W 4638   0.828   4.647   3.075 -0.0562 -0.1888  0.0955
 1120W        W 4639   6.896   7.508  10.587  0.0019  0.0929  0.0723
 1121W        W 4640   0.035   4.559   0.154  0.1670  0.0753  0.1206
 1122W        W 4641   0.754   4.466   9.228  0.2846 -0.3525  0.3076
 1123W        W 4642   5.162   8.542   2.844 -0.4137 -0.2260  0.0409
 1124W        W 4643   5.865   6.693   3.280 -0.0327 -0.0225  0.0599
 1125W        W 4644   4.937   3.066   1.868  0.3390 -0.1032 -0.1249
 1126W        W 4645   1.171   8.511  10.357  0.0028 -0.2137 -0.2132
 1127W        W 4646   3.825   7.273  11.454  0.2516 -0.1552  0.2575
 1128W        W 4647   8.062   0.662   8.613 -0.0287  0.0027  0.3959
 1129W        W 4648   7.897   4.359  11.966 -0.0411 -0.0880  0.0531
 1130W        W 4649   8.886   0.055   9.312  0.0063  0.1984  0.1227
 1131W        W 4650   9.065   8.093  10.345  0.1407  0.0131  0.0675
 1132W        W 4651   5.880   7.365  10.982 -0.0615 -0.4701 -0.0145
 1133W        W 4652   2.094   9.035   2.359  0.0081 -0.1441 -0.1648
 1134W        W 4653   3.901   4.217  12.308  0.0638  0.0365 -0.1093
 1135W        W 4654   1.001   6.615  10.004  0.0513  0.4352 -0.2649
 1136W        W 4655   8.891   8.628  10.209 -0.0015 -0.0873  0.0858
 1137W        W 4656   3.917   7.756   9.983  0.0730  0.3942 -0.0097
 1138W        W 4657   3.432   2.276   9.835 -0.0098 -0.1819  0.0529
 1139W        W 4658   5.759   3.517   0.130 -0.2796 -0.0497  0.0319
 1140W        W 4659   8.140   5.482   0.065 -0.1666 -0.0594  0.0147
 1141W        W 4660   5.550   8.268  10.491 -0.1271  0.2543  0.3116
 1142W        W 4661   0.292   4.098   1.061  0.2258  0.0400 -0.3728
 1143W        W 4662   8.405   8.481   2.316 -0.0796 -0.1204 -0.1893
 1144W        W 4663   6.883   5.358   8.981 -0.1560  0.1704  0.1043
 1145W        W 4664   8.349   5.475   9.051 -0.0131 -0.0769  0.0837
 1146W        W 4665   1.685   3.699   3.562 -0.0646 -0.0953  0.1500
 1147W        W 4666   6.650   4.366   0.128  0.0797 -0.1533  0.1507
 1148W        W 4667   5.258   0.928  12.202 -0.1399 -0.1684 -0.2557
 1149W        W 4668   9.005   8.387   3.663  0.2284  0.3040  0.1730
 1150W        W 4669   0.669   8.092   3.093 -0.0438 -0.2604 -0.2617
 1151W        W 4670   7.083   8.948  11.801  0.1818 -0.0089 -0.0088
 1152W        W 4671   3.263   0.479   1.400 -0.3531  0.1185  0.1492
 1153W        W 4672   1.013   5.777   9.979  0.0625  0.0410 -0.0438
 1154W        W 4673   1.626   1.257  11.103 -0.1018  0.1042 -0.2045
 1155W        W 4674   2.580   9.441  10.916  0.0150  0.1327 -0.0053
 1156W        W 4675   3.511   6.172   1.719  0.0929 -0.1191  0.2986
 1157W        W 4676   5.596   3.359  10.708  0.0435  0.0978 -0.1672
 1158W        W 4677   9.199   4.308   8.342  0.1404 -0.1210 -0.0803
 1159W        W 4678   2.768   2.929  11.489 -0.0613  0.1309  0.2429
 1160W        W 4679   0.409   4.798  12.312  0.0180 -0.0227 -0.0623
 1161W        W 4680   1.507   5.132  11.562 -0.2260 -0.0500  0.3064
 1162W        W 4681   7.911   2.445   2.587 -0.1313 -0.1178  0.0486
 1163W        W 4682   6.348   8.563  10.306 -0.0305 -0.0532 -0.1613
 1164W        W 4683   8.254   5.996   1.109 -0.0050  0.3353 -0.1204
 1165W        W 4684   3.896   6.977   8.279  0.0587 -0.0535 -0.1876
 1166W        W 4685   8.965   1.099   2.346 -0.2620 -0.0504 -0.1579
 1167W        W 4686   5.620   6.989   0.225  0.2037  0.2030  0.2562
 1168W        W 4687   6.875   8.949  10.625  0.0394  0.2745 -0.0392
 1169W        W 4688   7.791   7.964  10.392  0.0175  0.2062 -0.0712
 1170W        W 4689   9.682   5.816   0.691 -0.1469  0.2476 -0.1438
 1171W        W 4690   2.012   6.967   3.044 -0.3674 -0.2325 -0.2215
 1172W        W 4691   9.514   6.140   3.888  0.1521  0.0314 -0.0554
 1173W        W 4692   9.207   5.752   2.542 -0.5415  0.1361  0.2274
 1174W        W 4693   4.378   1.103   2.624 -0.1566 -0.2282  0.0621
 1175W        W 4694   5.503   3.798   3.230  0.1455  0.0813 -0.3053
 1176W        W 4695   8.566   5.298   2.585  0.0389 -0.0430 -0.2966
 1177W        W 4696   7.819   1.581   0.990 -0.0242 -0.2017  0.2045
 1178W        W 4697   7.810   8.075   9.236  0.2507  0.0868 -0.3293
 1179W        W 4698   5.730   6.034   0.832  0.6328 -0.2176 -0.1303
 1180W        W 4699   5.906   8.109   3.268 -0.0611  0.1230 -0.1691
 1181W        W 4700   5.461   8.766   9.244  0.3257  0.1828  0.2415
 1182W        W 4701   3.587   1.191  12.091 -0.0405 -0.1585 -0.1161
 1183W        W 4702   6.830   6.798   4.959  0.0790  0.0977 -0.1088
 1184W        W 4703   3.644   4.930   9.161  0.0054 -0.1511  0.1857
 1185W        W 4704   2.309   8.259  10.060  0.1140 -0.1324  0.1926
 1186W        W 4705   0.968   4.668   0.987  0.1437 -0.0736 -0.0218
 1187W        W 4706   9.556   7.896   1.970  0.3521 -0.1620  0.1690
 1188W        W 4707   5.266   8.428  11.975  0.0483 -0.0477 -0.0867
 1189W        W 4708   4.098   1.675   2.541 -0.0347  0.1431  0.1754
 1190W        W 4709   3.563   9.104  11.026 -0.0154 -0.0694  0.1200
 1191W        W 4710   5.769   4.725   3.135 -0.3003  0.0984  0.2121
 1192W        W 4711   9.275   5.645   3.896  0.0518  0.2560  0.0794
 1193W        W 4712   0.331   0.759   3.626 -0.1296  0.0600 -0.1166
 1194W        W 4713   7.801   1.180   8.873  0.0634 -0.0054 -0.1506
 1195W        W 4714   9.708   7.247  11.279  0.0364 -0.0914 -0.0468
 1196W        W 4715   8.313   6.847   0.504  0.0973 -0.1782  0.1702
 1197W        W 4716   5.108   8.882  10.555  0.0206  0.2612  0.0454
 1198W        W 4717   9.339   5.216   1.820 -0.1180 -0.3734  0.0736
 1199W        W 4718   1.830   8.068   0.042 -0.0571  0.0676 -0.3619
 1200W        W 4719   0.319   5.264  10.852  0.2657 -0.0609  0.4117
 1201W        W 4720   8.201   1.176   1.109  0.0725 -0.0617  0.0203
 1202W        W 4721   2.686   0.078  12.164 -0.1828 -0.0820  0.1791
 1203W        W 4722   3.129   0.911  12.142  0.3461  0.1537  0.1692
 1204W        W 4723   0.567   0.101  12.130  0.2240 -0.2473  0.0130
 1205W        W 4724   8.391   7.176   2.604 -0.0332 -0.0225  0.0935
 1206W        W 4725   3.496   5.791  10.527  0.0267 -0.1658 -0.3136
 1207W        W 4726   8.253   5.211  10.958 -0.3046 -0.1975  0.0945
 1208W        W 4727   1.066   7.765   0.910  0.2270 -0.0492 -0.4245
 1209W        W 4728   5.702   8.681   2.106 -0.0333  0.1819  0.2879
 1210W        W 4729   8.239   0.051   0.922 -0.2561  0.1341 -0.2755
 1211W        W 4730   2.140   6.893  11.587  0.2642  0.0184 -0.0056
 1212W        W 4731   0.058   4.935   0.632 -0.1938  0.1049 -0.0519
 1213W        W 4732   1.511   4.753   1.824 -0.1628  0.2997  0.3593
 1214W        W 4733   3.361   0.367   9.713 -0.0601  0.0914  0.3067
 1215W        W 4734   6.977   1.823   1.303  0.1863  0.0508 -0.0669
 1216W        W 4735   5.421   5.309   0.463  0.0375 -0.2740 -0.0480
 1217W        W 4736   1.266   7.407  10.809  0.1580  0.1743  0.0270
 1218W        W 4737   3.462   1.558  11.697  0.4643 -0.1708 -0.0780
 1219W        W 4738   0.731   4.678   8.330 -0.1686  0.1080 -0.0355
 1220W        W 4739   5.514   5.025   8.900 -0.1688  0.4188 -0.0910
 1221W        W 4740   9.525   6.651   0.029  0.1039 -0.0570 -0.1224
 1222W        W 4741   0.651   1.818   8.207 -0.0704  0.2000  0.1945
 1223W        W 4742   9.302   8.851   1.467  0.0926  0.2020 -0.0905
 1224W        W 4743   1.254   2.533   1.116  0.1070  0.1977 -0.1081
 1225W        W 4744   1.547   9.471  10.413  0.3192 -0.0701 -0.2657
 1226W        W 4745   2.020   3.413   2.627  0.2162 -0.3823 -0.0932
 1227W        W 4746   2.606   1.727  12.020 -0.2363  0.0436  0.0700
 1228W        W 4747   6.914   4.832   9.017  0.1728  0.1765  0.0347
 1229W        W 4748   4.814   7.024   0.569  0.0245 -0.0597 -0.2408
 1230W        W 4749   4.857   3.441  11.644  0.0583 -0.1513 -0.0625
 1231W        W 4750   4.391   0.444  11.981  0.4492 -0.0127  0.1678
 1232W        W 4751   3.902   7.963  11.912  0.1169 -0.2014 -0.0839
 1233W        W 4752   2.310   0.059   3.716  0.2040  0.0082  0.2957
 1234W        W 4753   1.875   2.926   2.608  0.0578  0.1873  0.0770
 1235W        W 4754   2.948   0.503   7.727 -0.0507 -0.0213  0.3038
 1236W        W 4755   9.638   1.865   8.531  0.0439 -0.6162  0.1226
 1237W        W 4756   7.806   3.313   2.631  0.2102  0.1274  0.4593
 1238W        W 4757   3.827   2.860  12.282  0.0637  0.0011  0.0027
 1239W        W 4758   8.587   5.620  11.150  0.1888 -0.2643  0.0164
 1240W        W 4759   9.739   8.308   1.834  0.0307 -0.1681 -0.3573
 1241W        W 4760   6.080   1.264   9.343  0.0339 -0.2358 -0.0556
 1242W        W 4761   1.677   8.652   2.507  0.0029 -0.1232  0.0570
 1243W        W 4762   6.373   8.759  11.411  0.0170 -0.0511 -0.0209
 1244W        W 4763   5.699   6.797  10.417 -0.0369 -0.0156 -0.0901
 1245W        W 4764   7.577   5.666   8.964 -0.0084 -0.2825 -0.2948
 1246W        W 4765   8.895   2.879   9.967 -0.0645 -0.4208 -0.1992
 1247W        W 4766   2.053   0.083   1.048 -0.1375 -0.2878 -0.4075
 1248W        W 4767   4.900   6.867   2.237 -0.1036  0.0879  0.2667
 1249W        W 4768   3.462   8.278  11.325 -0.1843 -0.0497  0.1714
 1250W        W 4769   8.754   5.239   9.251  0.0631  0.3542  0.0438
 1251W        W 4770   4.912   7.359  10.910  0.2706 -0.1664 -0.0078
 1252W        W 4771   6.186   7.269   9.801  0.1490 -0.0401 -0.4469
 1253W        W 4772   2.321   9.424   7.888 -0.1147  0.0211  0.0450
 1254W        W 4773   9.336   1.708   3.413 -0.3478 -0.0035 -0.0417
 1255W        W 4774   2.302   1.383   1.315 -0.1206  0.1928 -0.3664
 1256W        W 4775   2.078   4.739   9.414 -0.2535 -0.0159  0.0513
 1257W        W 4776   9.380   3.973   3.754 -0.3113 -0.0229 -0.0960
 1258W        W 4777   5.284   1.871   0.094  0.0348 -0.0551  0.2371
 1259W        W 4778   4.288   8.572   3.466 -0.1912 -0.1193 -0.0323
 1260W        W 4779   8.069   0.870  11.392  0.3932 -0.1085  0.1007
 1261W        W 4780   8.089   5.888   8.699 -0.1469 -0.1369 -0.1201
 1262W        W 4781   8.850   8.104   0.066  0.2121 -0.1640  0.0523
 1263W        W 4782   4.284   5.288   2.356  0.1888  0.3278  0.0148
 1264W        W 4783   1.558   1.212   2.809 -0.2119  0.1179 -0.3935
 1265W        W 4784   0.871   0.004  10.941 -0.6593  0.0175  0.0550
 1266W        W 4785   0.969   7.168  11.139 -0.3012  0.0861  0.0996
 1267W        W 4786   9.130   2.367  11.799  0.1242 -0.1751  0.1076
 1268W        W 4787   4.318   3.918  11.692 -0.2019 -0.0406  0.1693
 1269W        W 4788   1.057   3.417   3.602  0.0414  0.3863 -0.1288
 1270W        W 4789   0.707   1.974  10.116  0.0253  0.2412 -0.0910
 1271W        W 4790   7.847   2.389   0.080 -0.0044  0.2497 -0.2720
 1272W        W 4791   2.182   5.108   9.722  0.0028  0.1259  0.2843
 1273W        W 4792   1.968   9.099  11.990 -0.1787 -0.0689 -0.0222
 1274W        W 4793   7.433   7.069   9.261 -0.1023 -0.0533  0.0973
 1275W        W 4794   1.604   5.708   3.094 -0.1175 -0.0458 -0.0285
 1276W        W 4795   3.307   8.397  10.341  0.1319 -0.1825  0.1775
 1277W        W 4796   9.627   3.433   1.620  0.3073 -0.2508 -0.3018
 1278W        W 4797   9.314   3.724   0.517 -0.0922 -0.0346  0.0403
 1279W        W 4798   7.886   6.486   2.165  0.2445  0.0583  0.0482
 1280W        W 4799   0.474   7.691   2.289 -0.1054  0.0342  0.3094
 1281W        W 4800   3.914   1.790   2.991 -0.1116 -0.1237  0.1720
 1282W        W 4801   1.620   7.348   8.031 -0.0115  0.1613  0.0903
 1283W        W 4802   3.063   8.232   8.533  0.0126 -0.0504  0.1068
 1284W        W 4803   9.444   0.865  11.075  0.0560  0.1157 -0.0288
 1285W        W 4804   5.200   1.581  11.437  0.5714  0.1923 -0.1391
 1286W        W 4805   8.508   5.938   1.529 -0.2085  0.1144 -0.0778
 1287W        W 4806   6.084   2.022  11.466 -0.1069 -0.1572 -0.1789
 1288W        W 4807   3.222   9.251   1.880  0.1711  0.1533  0.3607
 1289W        W 4808   0.607   1.507   4.327 -0.0476  0.0839 -0.0108
 1290W        W 4809   2.274   0.376   0.708 -0.1213  0.0837 -0.0188
 1291W        W 4810   0.935   3.141  12.360 -0.1478 -0.3838  0.0694
 1292W        W 4811   7.737   6.532  10.109 -0.2443  0.0077  0.0375
 1293W        W 4812   8.637   7.959   0.902 -0.0530 -0.1069  0.2695
 1294W        W 4813   8.866   3.043   8.018  0.0843 -0.2495  0.1010
 1295W        W 4814   0.264   3.611   3.545 -0.2438 -0.1699 -0.0272
 1296W        W 4815   2.270   3.875   7.705 -0.0668  0.0291 -0.1362
 1297W        W 4816   1.883   3.366   9.596  0.0751  0.0217 -0.1606
 1298W        W 4817   3.687   6.126  10.846 -0.2513 -0.0256 -0.2784
 1299W        W 4818   8.619   4.409   2.976  0.0410  0.3044  0.3637
 1300W        W 4819   6.308   9.201   2.118 -0.1637  0.1900 -0.1176
 1301W        W 4820   8.879   6.020   0.077  0.1040 -0.0050 -0.1858
 1302W        W 4821   2.937   8.651   3.690  0.0607  0.0765 -0.0932
 1303W        W 4822   8.334   5.064  10.202 -0.1644 -0.1774 -0.0460
 1304W        W 4823   0.070   4.039   9.656 -0.1615  0.2202  0.1919
 1305W        W 4824   7.507   8.157  12.108  0.2533 -0.0927  0.1047
 1306W        W 4825   9.697   0.195  10.417 -0.0670 -0.0330  0.1320
 1307W        W 4826   0.608   4.102  12.091  0.1392  0.0952 -0.1524
 1308W        W 4827   3.385   2.985   8.938  0.0575  0.0017 -0.1785
 1309W        W 4828   4.068   5.551   1.418 -0.3231 -0.2065 -0.2884
 1310W        W 4829   0.091   3.385  10.127  0.0093 -0.0998 -0.0190
 1311W        W 4830   5.705   5.291   0.060  0.0353 -0.3098  0.1112
 1312W        W 4831   2.644   3.725   0.844 -0.2881  0.0409  0.0395
 1313W        W 4832   5.403   8.520   3.815  0.2055  0.0616  0.2539
 1314W        W 4833   8.539   2.649   1.291  0.0716  0.0304 -0.0901
 1315W        W 4834   4.030   8.220   2.262 -0.0943 -0.0853 -0.0719
 1316W        W 4835   5.496   5.719   3.191 -0.0661 -0.1204  0.2033
 1317W        W 4836   0.359   8.878   2.757 -0.1946  0.0470 -0.0977
 1318W        W 4837   4.751   2.646  10.959 -0.0305  0.1683  0.2736
 1319W        W 4838   0.205   7.299   3.794  0.0686  0.1518  0.2616
 1320W        W 4839   9.173   6.146   1.471 -0.0010  0.2888  0.0813
 1321W        W 4840   5.229   7.639   4.499 -0.1973  0.1030 -0.0316
 1322W        W 4841   7.256   7.795   4.276 -0.0055 -0.4486 -0.1133
 1323W        W 4842   8.350   4.222   0.405  0.0693 -0.1004  0.1627
 1324W        W 4843   5.909   1.517  11.262  0.0078 -0.0932 -0.0491
 1325W        W 4844   9.304   9.013   4.327  0.0895  0.0039  0.2576
 1326W        W 4845   6.237   3.243  10.880 -0.0399  0.2382  0.1118
 1327W        W 4846   7.562   7.639   8.974  0.3408  0.1001 -0.0529
 1328W        W 4847   4.537   5.423   9.339  0.0947  0.3314  0.0112
 1329W        W 4848   1.923   3.168   3.090 -0.0826  0.2095 -0.1532
 1330W        W 4849   2.646   7.570  10.523  0.0266  0.0384 -0.2064
 1331W        W 4850   3.643   3.910  11.394 -0.1956  0.1182  0.2540
 1332W        W 4851   6.189   2.510  11.554  0.1015  0.1193  0.2021
 1333W        W 4852   7.577   1.240   3.213  0.0947  0.2862  0.1625
 1334W        W 4853   6.663   4.767  10.286 -0.2753 -0.0572  0.0122
 1335W        W 4854   0.261   5.567   8.411 -0.0433  0.2376  0.2225
 1336W        W 4855   0.436   4.297   0.163 -0.0888  0.0805  0.0083
 1337W        W 4856   5.446   3.046  11.234  0.0206  0.0324  0.0486
 1338W        W 4857   4.500   8.862   4.435  0.0234 -0.3935  0.0112
 1339W        W 4858   1.969   6.459   2.769  0.2082 -0.0991  0.0118
 1340W        W 4859   7.398   0.033   0.944  0.0036 -0.0720  0.1599
 1341W        W 4860   9.227   9.496  10.625  0.1213  0.1686  0.1567
 1342W        W 4861   5.105   5.081  11.007 -0.3909 -0.1029 -0.0770
 1343W        W 4862   8.179   1.230  11.042  0.0064 -0.0251  0.2330
 1344W        W 4863   5.954   2.682   9.332  0.1478 -0.0200 -0.2462
 1345W        W 4864   2.401   3.548   1.920 -0.2768 -0.1424 -0.1711
 1346W        W 4865   4.882   9.018   0.004 -0.1649 -0.4102 -0.2957
 1347W        W 4866   9.026   0.604   1.577  0.2919 -0.1723 -0.1190
 1348W        W 4867   9.063   4.933  10.053 -0.0265 -0.0031  0.0198
 1349W        W 4868   3.937   9.492   1.789  0.1446 -0.3100  0.2609
 1350W        W 4869   8.631   8.612  12.175 -0.2069  0.1386  0.2696
 1351W        W 4870   7.552   9.317   1.213 -0.1075  0.2222 -0.1557
 1352W        W 4871   8.841   2.026  12.035 -0.2008 -0.0780 -0.2126
 1353W        W 4872   1.842   8.133   9.821  0.1911 -0.0341  0.2386
 1354W        W 4873   2.113   4.525  10.324 -0.2102 -0.0334 -0.1995
 1355W        W 4874   5.865   0.287   9.280  0.0023 -0.0157  0.0727
 1356W        W 4875   7.945   6.279   3.942 -0.0685  0.4017 -0.2590
 1357W        W 4876   2.781   4.901   8.673  0.0298 -0.0809  0.0076
 1358W        W 4877   6.607   2.531   2.673 -0.1815  0.1579 -0.1781
 1359W        W 4878   8.738   4.018  10.181 -0.0045  0.1907 -0.0942
 1360W        W 4879   3.344   0.357   0.307 -0.1706 -0.1335  0.2023
 1361W        W 4880   6.222   6.790   9.633 -0.0474  0.1463 -0.1372
 1362W        W 4881   5.116   0.628  10.911 -0.1546 -0.2053 -0.0286
 1363W        W 4882   1.477   1.712   1.063  0.2880 -0.1470  0.1300
 1364W        W 4883   8.726   0.058   1.584  0.0677 -0.2863 -0.0376
 1365W        W 4884   2.325   4.395   7.659 -0.0008 -0.5906  0.0684
 1366W        W 4885   4.819   5.235  10.373 -0.1866  0.0686  0.0353
 1367W        W 4886   3.805   8.784   3.403 -0.3070 -0.0006 -0.1643
 1368W        W 4887   3.639   1.384   0.461  0.0469  0.1401  0.0558
 1369W        W 4888   9.516   9.731   7.963  0.0891 -0.2738  0.1212
 1370W        W 4889   3.526   4.476   3.308  0.0622 -0.2808 -0.0047
 1371W        W 4890   4.235   4.041  11.198 -0.0377  0.2094 -0.2871
 1372W        W 4891   6.319   6.096   3.035  0.1729 -0.2143  0.4068
 1373W        W 4892   4.888   8.526   0.012  0.3171  0.0500  0.0293
 1374W        W 4893   9.084   0.139   9.772  0.3412 -0.2356 -0.1192
 1375W        W 4894   4.318   0.705  12.377 -0.2208  0.4738 -0.1594
 1376W        W 4895   9.542   6.142  10.308  0.0759 -0.3315 -0.1905
 1377W        W 4896   4.625   3.634  10.924  0.0370 -0.0828 -0.0155
 1378W        W 4897   7.652   8.302  11.652  0.1105 -0.2103 -0.1550
 1379W        W 4898   6.023   5.743  11.847  0.0532  0.0386 -0.3865
 1380W        W 4899   8.873   1.986   3.431  0.0334 -0.0228  0.3161
 1381W        W 4900   3.482   5.497   2.553  0.0750 -0.0711  0.2656
 1382W        W 4901   8.118   2.056   2.875 -0.3152  0.1100  0.0191
 1383W        W 4902   3.992   8.789   4.637  0.0034  0.0637  0.1703
 1384W        W 4903   2.163   5.978   1.359 -0.2228 -0.2972 -0.3091
 1385W        W 4904   9.076   9.500   3.209 -0.2053 -0.0715  0.1419
 1386W        W 4905   9.386   5.588   8.508 -0.2200 -0.0773  0.1340
 1387W        W 4906   1.565   3.088   3.474  0.3436  0.1911  0.0791
 1388W        W 4907   6.201   6.414   8.997 -0.1548 -0.0166  0.1860
 1389W        W 4908   9.251   1.585  10.869  0.1985  0.0522  0.1691
 1390W        W 4909   4.252   1.962  10.380  0.2527 -0.0940  0.1042
 1391W        W 4910   6.316   2.855   2.274  0.0697  0.0911  0.2888
 1392W        W 4911   5.025   0.505   9.304  0.0025  0.0634 -0.0664
 1393W        W 4912   5.119   6.625   0.648  0.2802  0.0221 -0.0861
 1394W        W 4913   2.426   9.341   3.712 -0.1413 -0.0904 -0.0037
 1395W        W 4914   2.388   0.844   3.056  0.0655 -0.2260 -0.2073
 1396W        W 4915   7.835   5.633  12.026 -0.0651 -0.2169  0.1347
 1397W        W 4916   2.719   2.183  12.312 -0.2678 -0.3817 -0.0883
 1398W        W 4917   5.235   7.439   1.223 -0.1654 -0.1988 -0.2235
 1399W        W 4918   3.206   4.954  12.190  0.1352  0.0892 -0.1764
 1400W        W 4919   8.612   5.082   3.732  0.0593 -0.1783 -0.3176
 1401W        W 4920   0.799   2.942   3.614 -0.0846 -0.0158  0.0881
 1402W        W 4921   3.351   2.236  10.349  0.0974 -0.2115 -0.0809
 1403W        W 4922   6.774   9.202   3.013  0.2979  0.0756 -0.0248
 1404W        W 4923   4.844   8.825   2.619  0.1269  0.1654  0.1473
 1405W        W 4924   3.582   3.994   1.116  0.1744 -0.1913 -0.0362
 1406W        W 4925   5.325   3.843   9.328  0.2819 -0.4425  0.1163
 1407W        W 4926   5.070   5.134  11.482  0.0270 -0.2118 -0.1610
 1408W        W 4927   2.320   7.837   4.193 -0.1677 -0.1203  0.1883
 1409W        W 4928   2.430   7.914   8.534 -0.1343  0.1843  0.3121
 1410W        W 4929   3.418   2.648   9.291  0.0586  0.2109 -0.2145
 1411W        W 4930   7.990   6.487   2.981 -0.2045  0.0816 -0.0892
 1412W        W 4931   5.338   7.176   4.101  0.0021  0.0851  0.1576
 1413W        W 4932   0.398   5.646   2.002  0.0582  0.0680 -0.0949
 1414W        W 4933   0.385   1.684   9.659  0.3135 -0.0040 -0.0537
 1415W        W 4934   9.403   2.326   8.542  0.3738  0.3417  0.1306
 1416W        W 4935   6.769   5.689   9.350  0.3961 -0.1605  0.3641
 1417W        W 4936   8.021   2.903   9.620  0.4728  0.0226 -0.1000
 1418W        W 4937   7.656   3.437   3.210 -0.2189  0.0443 -0.0061
 1419W        W 4938   8.806   7.607   9.531 -0.2172  0.1117 -0.3547
 1420W        W 4939   0.482   6.783   3.964  0.1428  0.0148 -0.0660
 1421W        W 4940   1.145   5.848  10.467  0.2245 -0.1070 -0.2477
 1422W        W 4941   4.934   2.929  11.600  0.2240  0.1622 -0.3425
 1423W        W 4942   8.647   9.258   2.970 -0.0569  0.0247  0.3701
 1424W        W 4943   9.335   4.990   0.415  0.0525  0.1627  0.0732
 1425W        W 4944   8.183   0.534   9.365 -0.4211 -0.0058 -0.1000
 1426W        W 4945   0.394   8.988   2.250  0.1792  0.0864 -0.1649
 1427W        W 4946   2.428   5.138   2.048 -0.2604  0.1068  0.3716
 1428W        W 4947   0.174   8.651  11.625 -0.0273 -0.1653 -0.0963
 1429W        W 4948   2.243   7.924   9.063 -0.0618 -0.2554  0.0254
 1430W        W 4949   4.162   7.190  12.347  0.0923  0.2917  0.3093
 1431W        W 4950   3.047   0.767  10.002  0.0161  0.3043  0.0791
 1432W        W 4951   5.584   2.437  10.686 -0.1979 -0.1424 -0.3496
 1433W        W 4952   0.793   8.675   3.693 -0.0746 -0.0728 -0.2596
 1434W        W 4953   4.030   1.641  10.870  0.0901 -0.0804  0.3898
 1435W        W 4954   5.215   4.353   9.249  0.1677 -0.2617 -0.0747
 1436W        W 4955   5.207   1.728   3.371  0.0907 -0.1276  0.3272
 1437W        W 4956   2.906   4.764   1.212 -0.0371  0.1132  0.1606
 1438W        W 4957   4.896   5.167   8.847 -0.3302  0.1620 -0.0392
 1439W        W 4958   7.716   7.529   9.511  0.0493  0.1900  0.0143
 1440W        W 4959   6.754   7.400   9.083  0.1811  0.0553  0.1133
 1441W        W 4960   4.582   0.068   2.639  0.1203 -0.3408  0.4250
 1442W        W 4961   6.945   1.495   1.659 -0.0423  0.0295  0.1407
 1443W        W 4962   3.392   0.308  11.815 -0.2179  0.1594  0.3102
 1444W        W 4963   1.946   7.907   3.802  0.1237 -0.2303  0.0245
 1445W        W 4964   4.076   8.486   8.820  0.0809 -0.3156  0.2841
 1446W        W 4965   8.345   3.592   8.988  0.2066 -0.2082  0.3712
 1447W        W 4966   7.594   3.514  11.753 -0.1445  0.0261 -0.0362
 1448W        W 4967   9.134   7.945   9.368  0.1227 -0.2499  0.0971
 1449W        W 4968   3.262   1.631   1.642  0.0611  0.2573  0.2708
 1450W        W 4969   5.542   7.375  11.660  0.0401  0.2764  0.4897
 1451W        W 4970   5.774   3.962   0.499 -0.1532  0.0064  0.0725
 1452W        W 4971   3.362   8.655  11.034 -0.1877 -0.2462 -0.1767
 1453W        W 4972   0.495   4.734   0.432 -0.0430  0.2908 -0.1885
 1454W        W 4973   2.490   2.980  11.924  0.2033 -0.0758  0.1012
 1455W        W 4974   3.784   8.405  10.555  0.2149  0.2922  0.0397
 1456W        W 4975   7.612   8.010   3.207 -0.3687  0.0934 -0.1300
 1457W        W 4976   0.546   1.750   2.835 -0.3531 -0.2183  0.0022
 1458W        W 4977   7.548   8.024   2.355  0.2738  0.1032 -0.0494
 1459W        W 4978   8.126   8.018  11.703 -0.0156  0.0747  0.2344
 1460W        W 4979   9.670   5.978   8.663 -0.1939 -0.1201 -0.1443
 1461W        W 4980   2.449   4.552   1.971  0.2829  0.4073 -0.1365
 1462W        W 4981   9.508   4.172   1.053  0.1283 -0.2132 -0.0481
 1463W        W 4982   5.452   0.686  11.375  0.0300  0.0600  0.1553
 1464W        W 4983   8.594   0.935   1.972 -0.1039 -0.1232  0.1220
 1465W        W 4984   0.390   1.561  10.877 -0.2052  0.0175 -0.0429
 1466W        W 4985   0.197   2.614   9.657 -0.3370 -0.0695  0.1674
 1467W        W 4986   3.028   6.396  10.124 -0.1721  0.1086 -0.0695
 1468W        W 4987   8.683   1.840   1.188  0.0275  0.0726  0.2507
 1469W        W 4988   8.028   5.368  10.495  0.1211 -0.3079  0.0132
 1470W        W 4989   0.090   2.146   2.669 -0.0759 -0.2144  0.1980
 1471W        W 4990   1.900   6.857   1.211  0.0983 -0.1793  0.1488
 1472W        W 4991   0.387   2.556   0.689  0.1450 -0.1210 -0.2602
 1473W        W 4992   7.064   8.882   3.649  0.0443 -0.3610  0.1983
 1474W        W 4993   2.814   6.922  11.672 -0.0400 -0.0101  0.0680
 1475W        W 4994   9.423   8.493   7.757 -0.2211  0.1445 -0.3483
 1476W        W 4995   8.728   2.489  10.184  0.0247  0.0734 -0.3396
 1477W        W 4996   9.457   5.280   3.611  0.3038  0.1619  0.0307
 1478W        W 4997   6.999   6.135  11.593  0.0306  0.1896 -0.0988
 1479W        W 4998   4.370   6.752   8.959 -0.0036 -0.3768  0.0187
 1480W        W 4999   3.136   1.402   3.798  0.0332  0.0422  0.1561
 1481W        W 5000   1.099   0.302   1.849 -0.0044  0.0102  0.2028
 1482W        W 5001   7.065   6.272  10.490  0.1439 -0.2049 -0.0235
 1483W        W 5002   2.293   4.013  10.917 -0.1722 -0.1728  0.2616
 1484W        W 5003   1.837   1.498   9.505 -0.0619  0.1553  0.1125
 1485W        W 5004   2.105   4.310  12.128 -0.1391  0.3974 -0.1742
 1486W        W 5005   1.527   7.172   3.132 -0.0593 -0.1091 -0.0433
 1487W        W 5006   8.988   9.035   1.873 -0.0885  0.2865 -0.1090
 1488W        W 5007   8.917   7.264  10.326 -0.0845 -0.0768 -0.0552
 1489W        W 5008   8.228   3.919  10.956 -0.1917 -0.1921  0.2385
 1490W        W 5009   7.500   3.546  12.358  0.1731  0.0862  0.1756
 1491W        W 5010   8.138   8.557   8.213 -0.0305 -0.2726 -0.2654
 1492W        W 5011   2.861   1.001  10.501 -0.1652 -0.0235  0.4606
 1493W        W 5012   2.238   9.566  10.024 -0.0029  0.0454 -0.0039
 1494W        W 5013   8.487   3.495  11.744 -0.2539 -0.1596 -0.2614
 1495W        W 5014   6.475   7.554   1.024 -0.0365 -0.0035 -0.0045
 1496W        W 5015   2.627   4.745  11.015 -0.0883 -0.2005 -0.0317
 1497W        W 5016   7.003   3.447  11.747  0.0935  0.1921  0.1346
 1498W        W 5017   9.060   5.569  12.212  0.3737  0.1008 -0.0386
 1499W        W 5018   7.405   7.588   0.828 -0.1367 -0.0350  0.2923
 1500W        W 5019   2.263   6.499  10.105 -0.0360 -0.0885 -0.2764
 1501W        W 5020   5.702   7.167   1.213  0.1953  0.0524 -0.1879
 1502W        W 5021   4.950   2.088   1.534 -0.1231 -0.2139 -0.2823
 1503W        W 5022   9.123   9.194   2.771  0.1408 -0.0175  0.4217
 1504W        W 5023   9.266   7.028   4.149 -0.1175  0.3144  0.3060
 1505W        W 5024   0.472   9.044   9.896  0.0347  0.1873  0.0709
 1506W        W 5025   2.468   6.350   1.555 -0.0586  0.1588  0.2510
 1507W        W 5026   0.865   8.914  10.343  0.5353  0.2716 -0.0731
 1508W        W 5027   3.048   5.048  11.740  0.0076 -0.1500  0.3039
 1509W        W 5028   3.722   3.726   0.777  0.1338  0.2950  0.1637
 1510W        W 5029   3.123   6.398  12.362 -0.1298 -0.1116  0.1393
 1511W        W 5030   5.052   4.854   2.667  0.2110 -0.1478 -0.2170
 1512W        W 5031   6.841   4.460   3.368 -0.1433  0.2041  0.0383
 1513W        W 5032   8.753   5.086  10.954 -0.2043 -0.0854  0.3154
 1514W        W 5033   1.626   6.135   2.411  0.0629  0.0491  0.2166
 1515W        W 5034   0.538   3.998   9.391  0.2239  0.0907 -0.0717
 1516W        W 5035   4.284   4.648   3.816  0.3118 -0.2595  0.2444
 1517W        W 5036   0.614   3.504   1.652 -0.0039  0.0704  0.1696
 1518W        W 5037   7.451   7.092   3.874 -0.3464  0.0288  0.0108
 1519W        W 5038   7.637   6.239   3.521 -0.0135 -0.0032 -0.1577
 1520W        W 5039   6.299   8.693   9.308  0.0272 -0.0259 -0.1187
 1521W        W 5040   8.008   7.214   0.699 -0.0977  0.0491 -0.3716
 1522W        W 5041   2.138   5.354   0.667  0.1801  0.2676 -0.0987
 1523W        W 5042   0.343   6.711  10.751  0.0791 -0.0971 -0.0130
 1524W        W 5043   6.690   4.497   9.578  0.0735  0.1384  0.1483
 1525W        W 5044   9.438   8.786  11.719 -0.0450 -0.1010 -0.4851
 1526W        W 5045   5.632   7.662   8.053  0.0761  0.2219  0.1016
 1527W        W 5046   3.482   3.266   2.731  0.0871 -0.1404  0.1554
 1528W        W 5047   2.740   1.638   9.381  0.0010  0.1076 -0.1511
 1529W        W 5048   4.772   0.609   0.096  0.1431  0.0050  0.0590
 1530W        W 5049   7.687   3.639   1.632  0.3873  0.1354 -0.0492
 1531W        W 5050   3.111   8.402   2.251 -0.1919 -0.0929  0.1742
 1532W        W 5051   1.786   1.357  11.594 -0.0399 -0.3238  0.1774
 1533W        W 5052   3.742   6.122   0.407 -0.2304  0.1373 -0.1537
 1534W        W 5053   2.808   8.827   1.776 -0.2148  0.0037 -0.2342
 1535W        W 5054   9.020   3.762   2.089  0.0082 -0.1323 -0.1786
 1536W        W 5055   1.012   5.212  11.523 -0.3604 -0.1512  0.0918
 1537W        W 5056   5.101   2.983   9.900 -0.1295  0.1367  0.3566
 1538W        W 5057   0.743   6.932  11.625  0.0073 -0.0470 -0.3216
 1539W        W 5058   2.190   5.630   3.093  0.1405 -0.0022 -0.3020
 1540W        W 5059   5.341   3.758   0.641  0.2320 -0.1855 -0.4404
 1541W        W 5060   8.590   9.098  11.614 -0.3561 -0.0141 -0.5106
 1542W        W 5061   4.809   0.730  11.992  0.0164  0.1672  0.1591
 1543W        W 5062   0.881   5.986   0.700  0.0868 -0.0212 -0.1490
 1544W        W 5063   2.011   4.957   3.738 -0.1462 -0.0636 -0.0516
 1545W        W 5064   5.534   6.529   9.027 -0.2927  0.2308 -0.1513
 1546W        W 5065   6.724   7.241   3.587 -0.1470 -0.4583 -0.4727
 1547W        W 5066   8.026   6.418  11.465 -0.1462 -0.1260  0.3675
 1548W        W 5067   1.027   0.777  11.875 -0.1406 -0.4578 -0.0300
 1549W        W 5068   4.124   6.256   3.277  0.1161 -0.0931 -0.2127
 1550W        W 5069   2.381   6.578  10.839 -0.1422 -0.1204 -0.2158
 1551W        W 5070   7.065   5.617   3.334 -0.0134  0.1031 -0.0933
 1552W        W 5071   3.438   5.460   4.665 -0.0153  0.0829  0.2855
 1553W        W 5072   8.223   2.766  10.041 -0.1182 -0.1536  0.1136
 1554W        W 5073   3.184   9.102  11.382  0.1640 -0.1866  0.0575
 1555W        W 5074   8.281   1.294   9.657  0.1574 -0.1106  0.0637
 1556W        W 5075   8.565   9.288   9.281 -0.0356 -0.0856 -0.2218
 1557W        W 5076   3.447   1.530   2.891  0.2244  0.1058 -0.1667
 1558W        W 5077   5.558   4.880  10.889 -0.2379  0.1285 -0.1461
 1559W        W 5078   6.608   4.850   8.651 -0.1747  0.0712  0.2809
 1560W        W 5079   1.073   4.747  10.919  0.1122  0.1009  0.0717
 1561W        W 5080   2.879   3.121   9.916  0.2270 -0.1777 -0.1001
 1562W        W 5081   8.494   0.746  11.648 -0.0881  0.1463  0.1308
 1563W        W 5082   9.593   4.371   3.021  0.2874 -0.0423  0.1119
 1564W        W 5083   4.543   3.254   4.117 -0.1165 -0.0807  0.0103
 1565W        W 5084   2.181   0.283  12.230 -0.3029  0.2071 -0.5093
 1566W        W 5085   2.221   9.248   9.341 -0.2146  0.2248 -0.0409
 1567W        W 5086   8.651   7.300   3.130  0.0663  0.0745  0.1803
 1568W        W 5087   0.065   9.329   0.982 -0.1556 -0.0180  0.1537
 1569W        W 5088   4.603   6.632   4.706  0.0621 -0.0542  0.1765
 1570W        W 5089   2.284   9.498   0.496 -0.0510  0.3311 -0.4070
 1571W        W 5090   6.016   7.234  11.755 -0.1570  0.1080  0.2037
 1572W        W 5091   2.251   3.806   9.527 -0.2205  0.0482 -0.0997
 1573W        W 5092   6.286   7.563   2.577 -0.1428  0.0883 -0.1949
 1574W        W 5093   4.037   2.447   0.221 -0.0094 -0.4389 -0.4137
 1575W        W 5094   6.283   4.468   2.550 -0.2324  0.0749 -0.1001
 1576W        W 5095   6.525   4.356   8.297 -0.0853  0.1785 -0.2123
 1577W        W 5096   1.221   8.703   2.296  0.1997  0.1521  0.0602
 1578W        W 5097   6.990   0.317  10.466  0.0713  0.3043  0.2423
 1579W        W 5098   4.116   9.134  10.169  0.0217  0.1089  0.1190
 1580W        W 5099   9.152   0.688   1.079 -0.2408  0.0665  0.0572
 1581W        W 5100   7.687   2.862   2.475  0.1127  0.0576  0.0701
 1582W        W 5101   7.611   6.371   2.579 -0.1542  0.1497  0.2169
 1583W        W 5102   0.461   3.911   9.934 -0.1041 -0.1713  0.0757
 1584W        W 5103   6.636   3.283  11.293  0.4724  0.1440 -0.3694
 1585W        W 5104   9.718   7.143   0.825 -0.0225 -0.0113  0.0688
 1586W        W 5105   5.669   8.303  11.064 -0.0358  0.0780 -0.0885
 1587W        W 5106   7.319   0.011   0.407 -0.0033 -0.1055 -0.0567
 1588W        W 5107   0.425   9.395   3.549  0.3142 -0.1013 -0.2305
 1589W        W 5108   8.111   4.551  10.218  0.1660 -0.2721 -0.1144
 1590W        W 5109   0.829   2.205  10.740 -0.0414  0.0956 -0.3970
 1591W        W 5110   3.715   8.695   9.027  0.1733 -0.0773 -0.2236
 1592W        W 5111   2.716   3.383   9.420 -0.4443 -0.1888 -0.1019
 1593W        W 5112   6.975   6.409   7.709  0.0645 -0.1605 -0.2388
 1594W        W 5113   5.753   7.161   2.183 -0.0413 -0.1312  0.1539
 1595W        W 5114   5.310   2.554  11.147 -0.1142  0.2677  0.1386
 1596W        W 5115   3.811   8.131   3.319  0.0131 -0.2161 -0.1063
 1597W        W 5116   3.114   3.568   2.375  0.1538  0.0864 -0.0529
 1598W        W 5117   6.888   4.315  10.476  0.1930  0.3870 -0.2310
 1599W        W 5118   2.776   0.928   2.575 -0.0865 -0.0222 -0.1819
 1600W        W 5119   7.783   1.518   8.496  0.0653 -0.1459  0.1665
 1601W        W 5120   3.688   2.823   4.166 -0.2914  0.0096  0.1519
 1602W        W 5121   4.061   0.964   1.786  0.3314 -0.3078 -0.0673
 1603W        W 5122   1.418   8.667   2.979 -0.0026  0.2806 -0.1300
 1604W        W 5123   4.745   7.130  10.496 -0.1223  0.0772 -0.0455
 1605W        W 5124   1.034   6.486   2.728 -0.1158  0.1625 -0.0793
 1606W        W 5125   7.087   7.025   0.249  0.0169  0.1090  0.2135
 1607W        W 5126   3.644   6.813  11.469  0.1660 -0.0137 -0.1118
 1608W        W 5127   9.305   2.736   2.242 -0.0696  0.1051 -0.0338
 1609W        W 5128   6.941   4.099   8.290 -0.1464  0.0526  0.2365
 1610W        W 5129   5.772   6.144   3.303  0.2723  0.1037  0.0494
 1611W        W 5130   9.366   9.431   1.187 -0.0768  0.0270  0.5913
 1612W        W 5131   3.476   8.481   3.158 -0.0740  0.0536 -0.1082
 1613W        W 5132   6.710   9.316   3.559 -0.1291 -0.1354  0.0444
 1614W        W 5133   1.823   8.672   4.126  0.1668  0.4481 -0.0599
 1615W        W 5134   2.745   3.212   2.415  0.4774 -0.1256  0.1549
 1616W        W 5135   8.823   3.418   9.897  0.1811 -0.0011 -0.1769
 1617W        W 5136   2.029   7.889   0.802 -0.1497  0.4135  0.1959
 1618W        W 5137   6.617   3.273   9.088 -0.2337  0.0518  0.0351
 1619W        W 5138   4.603   5.098   2.764  0.0793 -0.2075  0.0484
 1620W        W 5139   3.300   2.333   3.614  0.1698  0.0353 -0.0016
 1621W        W 5140   2.430   3.749   3.220 -0.0145 -0.1498  0.0077
 1622W        W 5141   0.664   8.570   9.916 -0.1809  0.1589  0.1869
 1623W        W 5142   0.459   6.454   1.012 -0.0147 -0.3839 -0.3664
 1624W        W 5143   0.498   4.641   2.705 -0.1468 -0.1174 -0.0235
 1625W        W 5144   8.968   6.239   2.327 -0.1271 -0.0933 -0.0333
 1626W        W 5145   0.937   5.339  10.137 -0.0559 -0.0344 -0.0408
 1627W        W 5146   6.877   4.511   1.853  0.1855  0.1185  0.1767
 1628W        W 5147   7.733   4.284   9.267 -0.0856 -0.0350 -0.3199
 1629W        W 5148   8.903   9.230   8.847  0.0891 -0.2158 -0.3589
 1630W        W 5149   3.974   5.872  11.259  0.2895  0.0951 -0.0621
 1631W        W 5150   7.374   3.833   7.550  0.0653 -0.1221  0.0325
 1632W        W 5151   4.668   6.163  10.590  0.0130  0.0239  0.0683
 1633W        W 5152   6.771   3.425   9.552 -0.0101 -0.2602 -0.1667
 1634W        W 5153   0.431   5.530   3.639  0.1918 -0.0504 -0.1761
 1635W        W 5154   6.490   9.661   2.249 -0.0689 -0.2293 -0.1533
 1636W        W 5155   3.817   2.880   9.159 -0.5047 -0.1617  0.3252
 1637W        W 5156   7.884   3.149   1.121  0.1191  0.1029  0.0216
 1638W        W 5157   2.460   3.103   8.832 -0.0494 -0.2594  0.0678
 1639W        W 5158   9.600   8.244  12.028 -0.0108 -0.2075  0.3333
 1640W        W 5159   4.340   7.964   2.608  0.1089  0.1376  0.2503
 1641W        W 5160   6.471   5.680   8.248  0.0478  0.2441  0.1167
 1642W        W 5161   2.793   7.618   0.076  0.1577  0.0571 -0.0304
 1643W        W 5162   7.903   8.709  11.393 -0.0750 -0.0925 -0.0433
 1644W        W 5163   2.158   9.530   3.345 -0.1523  0.1780  0.0371
 1645W        W 5164   6.142   8.357   2.395 -0.2482  0.0243  0.1065
 1646W        W 5165   8.766   6.409   1.924 -0.0018  0.1281  0.3055
 1647W        W 5166   8.006   9.133   0.492  0.1876  0.1462 -0.1414
 1648W        W 5167   2.483   7.817   2.923 -0.0113 -0.3357  0.1979
 1649W        W 5168   1.381   4.285   0.116 -0.1737  0.1040 -0.1063
 1650W        W 5169   1.568   0.024   1.664 -0.2948 -0.1027 -0.0531
 1651W        W 5170   9.334   6.413   9.895 -0.2328 -0.3284  0.1949
 1652W        W 5171   8.045   0.498  11.805  0.1392  0.1486  0.0699
 1653W        W 5172   8.712   6.850   2.851  0.0210  0.3166  0.0090
 1654W        W 5173   9.579   6.439   1.447 -0.3499  0.1487 -0.1476
 1655W        W 5174   4.756   7.633   1.227  0.4333 -0.4337 -0.1172
 1656W        W 5175   3.238   9.089   9.859 -0.1415  0.0513  0.2268
 1657W        W 5176   9.388   0.999  12.225 -0.4370 -0.2183 -0.0072
 1658W        W 5177   2.610   2.429   1.879  0.0104  0.0577  0.1176
 1659W        W 5178   9.653   8.944   9.222  0.0895 -0.0059 -0.0317
 1660W        W 5179   2.547   4.641  10.531  0.1806  0.2001 -0.0138
 1661W        W 5180   7.736   4.020  11.588 -0.2124  0.0206 -0.1194
 1662W        W 5181   0.229   4.349   0.647 -0.0773  0.2046 -0.1270
 1663W        W 5182   3.106   1.920   4.137  0.2058 -0.0087 -0.1885
 1664W        W 5183   5.439   9.644   0.544 -0.0452  0.1702  0.2830
 1665W        W 5184   3.172   3.022   1.131 -0.1572 -0.0042 -0.4386
 1666W        W 5185   5.350   7.828  11.915  0.1273  0.0108 -0.1668
 1667W        W 5186   0.657   0.018   1.153 -0.2618  0.0156  0.0343
 1668W        W 5187   6.591   1.957  12.306  0.1477  0.1922  0.1846
 1669W        W 5188   1.715   8.533   0.253 -0.0916  0.2561  0.2000
 1670W        W 5189   9.627   3.001  12.210  0.1693 -0.0832 -0.0574
 1671W        W 5190   3.873   0.322   3.711 -0.1300  0.0276  0.0581
 1672W        W 5191   0.849   1.641   8.725 -0.2081  0.3354 -0.0657
 1673W        W 5192   0.840   7.878  10.227 -0.2361 -0.2346 -0.1292
 1674W        W 5193   4.605   0.019  12.191  0.1864 -0.0265  0.1715
 1675W        W 5194   7.159   9.320   0.630  0.1182  0.0246  0.0131
 1676W        W 5195   7.165   8.399  11.551  0.1896 -0.3267 -0.2910
 1677W        W 5196   7.669   0.894  11.662 -0.0149  0.1390 -0.0709
 1678W        W 5197   1.383   7.348   4.097  0.2874  0.1137 -0.3569
 1679W        W 5198   7.364   7.346   4.425  0.1320 -0.1407 -0.1399
 1680W        W 5199   6.257   2.560   8.552  0.0561 -0.2600  0.1930
 1681W        W 5200   3.094   0.346   3.551 -0.1408  0.0296  0.1357
 1682W        W 5201   3.798   3.612   1.333 -0.1671  0.2183  0.2536
 1683W        W 5202   1.277   5.962   8.214 -0.3408 -0.0778 -0.1072
 1684W        W 5203   6.214   6.470  11.110 -0.2562  0.1580  0.0827
 1685W        W 5204   2.053   2.353   0.578  0.0688 -0.0587  0.0074
 1686W        W 5205   3.306   2.998   8.017  0.1265  0.2325 -0.3269
 1687W        W 5206   4.373   2.313  11.423  0.0658 -0.0102 -0.0610
 1688W        W 5207   9.413   9.618   2.788  0.2058  0.5241  0.2275
 1689W        W 5208   8.601   0.349   9.604 -0.3830 -0.1085  0.0810
 1690W        W 5209   2.410   8.575   3.523  0.0736  0.1922  0.0122
 1691W        W 5210   9.739   7.065   2.220 -0.0707 -0.1665  0.0462
 1692W        W 5211   3.128   7.639   3.687  0.2840  0.0298  0.3679
 1693W        W 5212   2.957   8.726  10.195  0.0914  0.2378  0.2211
 1694W        W 5213   3.129   7.821   9.197 -0.1711 -0.1625 -0.2263
 1695W        W 5214   3.214   6.812   4.405  0.3469 -0.2703  0.0388
 1696W        W 5215   2.741   3.194   4.306  0.2788 -0.3438  0.1005
 1697W        W 5216   6.000   5.346   1.946  0.1280  0.0089 -0.1885
 1698W        W 5217   5.611   4.092   9.026  0.0075 -0.0960  0.0536
 1699W        W 5218   1.790   5.581  11.420  0.2294  0.0043 -0.0727
 1700W        W 5219   0.134   9.708  11.262  0.2243 -0.0211  0.0543
 1701W        W 5220   9.525   6.895   1.290  0.0533  0.0506 -0.0647
 1702W        W 5221   9.688   9.093   2.606  0.1497 -0.0365 -0.0302
 1703W        W 5222   9.131   6.068   4.238  0.1825  0.1768  0.0939
 1704W        W 5223   4.954   6.858   9.717  0.2174  0.0548 -0.0093
 1705W        W 5224   3.361   1.382   9.452  0.2791  0.0846 -0.0965
 1706W        W 5225   0.283   1.316   0.239  0.4130 -0.0604  0.0142
 1707W        W 5226   7.058   3.218   1.029  0.1207 -0.2120  0.1155
 1708W        W 5227   7.037   9.390  10.392 -0.2108 -0.0677  0.1264
 1709W        W 5228   1.411   9.648   2.132  0.0419  0.1231  0.0009
 1710W        W 5229   4.490   2.372   1.167 -0.1395 -0.1562  0.2169
 1711W        W 5230   2.138   8.791  10.628 -0.0768 -0.2683  0.0113
 1712W        W 5231   0.774   5.912   2.228 -0.0629 -0.1607 -0.3406
 1713W        W 5232   8.160   8.602   0.244 -0.1606  0.1276  0.3542
 1714W        W 5233   3.281   4.229  10.294  0.0763 -0.1527  0.2041
 1715W        W 5234   4.106   7.441   8.071  0.1329  0.0854  0.1219
 1716W        W 5235   8.008   1.651   9.434 -0.3533  0.0245 -0.2197
 1717W        W 5236   7.523   7.480   2.573  0.0832 -0.1528  0.2490
 1718W        W 5237   9.299   2.177   3.631 -0.1560  0.1873 -0.0073
 1719W        W 5238   6.051   0.155  10.162 -0.1691  0.0662 -0.2626
 1720W        W 5239   6.034   0.537   0.587 -0.0064  0.0198  0.3864
 1721W        W 5240   4.823   9.741   9.119 -0.0751  0.3478 -0.4232
 1722W        W 5241   6.749   8.050   0.403  0.0150 -0.0536 -0.4924
 1723W        W 5242   7.125   2.253   9.574  0.2169  0.1642  0.0703
 1724W        W 5243   2.564   0.597  10.461  0.1980 -0.4424  0.0210
 1725W        W 5244   6.432   7.179   8.078 -0.1205 -0.2372  0.1492
 1726W        W 5245   7.630   4.814  10.435  0.0576  0.0201  0.0369
 1727W        W 5246   1.543   3.380   3.928  0.1707  0.0597  0.0341
 1728W        W 5247   3.245   3.990  11.083  0.2278 -0.1525  0.2277
 1729W        W 5248   0.722   1.949   1.984  0.0600  0.0614  0.4126
 1730W        W 5249   7.662   9.069  10.061  0.2140  0.0122  0.0187
 1731W        W 5250   7.680   6.053   2.984 -0.3440 -0.2039  0.3011
 1732W        W 5251   4.585   7.672  11.506 -0.0628  0.0995  0.1800
 1733W        W 5252   9.427   2.282   1.054  0.3725 -0.2189 -0.2681
 1734W        W 5253   9.500   6.418   9.423  0.4290  0.0912  0.1236
 1735W        W 5254   7.298   5.076   1.275  0.0673 -0.1367  0.0160
 1736W        W 5255   9.547   3.624   8.832 -0.0513  0.0862  0.0195
 1737W        W 5256   0.763   5.861   3.564 -0.1109  0.0263 -0.1339
 1738W        W 5257   4.904   1.903   0.421 -0.0856  0.1657 -0.1231
 1739W        W 5258   0.476   1.896   3.369  0.0600 -0.1600 -0.1985
 1740W        W 5259   8.759   6.903   4.363  0.2552  0.0001  0.2588
 1741W        W 5260   6.455   9.664  11.155  0.1038  0.1237  0.0723
 1742W        W 5261   7.464   9.320   2.026 -0.2364  0.2338 -0.0468
 1743W        W 5262   8.881   2.290   8.408  0.2876  0.0350  0.0073
 1744W        W 5263   8.565   8.302   1.276  0.0146 -0.1008  0.3829
 1745W        W 5264   7.247   4.034  11.555  0.0247 -0.0485  0.2194
 1746W        W 5265   9.677   4.906  10.757 -0.1602 -0.2429  0.3019
 1747W        W 5266   0.397   8.396   2.769  0.1296  0.1640  0.0910
 1748W        W 5267   8.692   7.451   1.729  0.0720 -0.0921 -0.0017
 1749W        W 5268   7.475   3.025   1.433  0.2072  0.0899  0.1492
 1750W        W 5269   8.129   0.148   2.432  0.0025 -0.0852 -0.0723
 1751W        W 5270   3.719   9.700   3.228 -0.1826  0.1696  0.0991
 1752W        W 5271   6.780   7.585   9.551 -0.0218  0.0415  0.0703
 1753W        W 5272   8.159   9.110  11.229  0.0301 -0.2432 -0.0657
 1754W        W 5273   8.573   1.367   2.510 -0.0940 -0.1617  0.2179
 1755W        W 5274   2.952   5.007  10.697  0.1772  0.3004 -0.1489
 1756W        W 5275   7.201   7.690   2.188  0.1191 -0.0752 -0.1247
 1757W        W 5276   9.295   7.267   2.321 -0.0597  0.1169  0.1079
 1758W        W 5277   4.472   7.879  11.941  0.0234 -0.1172 -0.1049
 1759W        W 5278   3.442   1.033  10.240 -0.0284  0.0790 -0.0280
 1760W        W 5279   9.147   5.482   9.077 -0.0381  0.0077  0.1418
 1761W        W 5280   6.750   2.311   1.670 -0.3210 -0.0832 -0.2763
 1762W        W 5281   3.650   2.640   2.750  0.1330  0.0848 -0.1649
 1763W        W 5282   8.436   5.222  11.512 -0.0627 -0.0934  0.0211
 1764W        W 5283   4.738   3.201   0.940  0.1540  0.3001 -0.1574
 1765W        W 5284   7.362   1.689   2.134  0.3652 -0.1250 -0.0677
 1766W        W 5285   3.915   3.621   2.934 -0.2597  0.1690  0.1087
 1767W        W 5286   4.511   3.606  11.983 -0.0905  0.3371 -0.0648
 1768W        W 5287   3.166   3.832   0.732 -0.3783  0.2568  0.2214
 1769W        W 5288   0.256   0.597   8.715 -0.0037  0.1527 -0.1221
 1770W        W 5289   3.193   4.726  11.202  0.1232  0.1717 -0.2207
 1771W        W 5290   8.441   0.613  12.138 -0.0440  0.2018 -0.2546
 1772W        W 5291   6.166   6.401   4.516  0.2018  0.1573 -0.0215
 1773W        W 5292   7.138   2.570  11.894  0.1671  0.2183  0.1149
 1774W        W 5293   7.690   5.914   7.841  0.4392  0.1448 -0.1314
 1775W        W 5294   5.204   5.247   2.348  0.1552 -0.0070 -0.0978
 1776W        W 5295   8.414   3.409   2.719  0.0025 -0.1398 -0.2624
 1777W        W 5296   9.070   6.316   3.352  0.0300 -0.1390 -0.0337
 1778W        W 5297   1.222   3.366  11.981  0.1981  0.1059 -0.1648
 1779W        W 5298   5.701   6.089   7.132 -0.1321  0.1222 -0.3247
 1780W        W 5299   6.303   1.631   2.814  0.2977 -0.0790  0.3438
 1781W        W 5300   2.138   2.835   9.706 -0.2141 -0.2906 -0.2067
 1782W        W 5301   5.890   8.613  11.450  0.0047 -0.1625 -0.2701
 1783W        W 5302   4.537   7.881   1.658 -0.0139  0.1637  0.2200
 1784W        W 5303   6.295   2.364  12.156  0.4391  0.1996  0.0522
 1785W        W 5304   1.877   1.747  12.167 -0.3534  0.1453 -0.1300
 1786W        W 5305   7.101   3.155  11.123  0.2897  0.0292 -0.0580
 1787W        W 5306   6.104   2.504   9.747  0.1439  0.4981  0.2694
 1788W        W 5307   5.707   8.062   9.985 -0.4928 -0.0082 -0.0375
 1789W        W 5308   4.811   4.418   8.535  0.2124  0.1249 -0.1163
 1790W        W 5309   6.376   7.629   0.482 -0.2619 -0.2749 -0.1170
 1791W        W 5310   3.690   7.826  11.402 -0.0356  0.2250 -0.0939
 1792W        W 5311   5.176   2.071  11.318  0.0663 -0.0836  0.0053
 1793W        W 5312   2.809   6.430  11.350 -0.1921 -0.1746  0.1521
 1794W        W 5313   1.027   7.829   3.390  0.3543 -0.1774  0.1209
 1795W        W 5314   8.432   1.620   3.620  0.2473  0.3071 -0.3754
 1796W        W 5315   0.106   7.596   1.259 -0.0121 -0.1262  0.1559
 1797W        W 5316   4.469   6.907  12.023  0.0600 -0.2189 -0.2955
 1798W        W 5317   8.435   8.925   0.489 -0.1007 -0.0630  0.0882
 1799W        W 5318   8.062   5.436   2.277  0.1750  0.3403 -0.1167
 1800W        W 5319   4.694   3.896  10.540 -0.0566  0.1268  0.2890
 1801W        W 5320   0.348   6.510  11.614 -0.0148 -0.1092 -0.0078
 1802W        W 5321   0.551   8.561   3.236  0.1527 -0.3812 -0.0603
 1803W        W 5322   5.133   8.759   0.381 -0.1779 -0.2660 -0.1906
 1804W        W 5323   0.480   6.627   9.934  0.0954  0.0222 -0.3429
 1805W        W 5324   3.432   3.666   3.509  0.2339 -0.1315  0.1573
 1806W        W 5325   0.745   1.905   0.777  0.0432  0.0913  0.1297
 1807W        W 5326   3.511   0.694   3.588 -0.0896  0.0336 -0.0302
 1808W        W 5327   8.754   0.480   8.116  0.1376 -0.3158 -0.2650
 1809W        W 5328   1.067   0.288  11.998 -0.1906  0.0795 -0.3152
 1810W        W 5329   6.881   9.649   2.656  0.1336  0.0258 -0.0900
 1811W        W 5330   2.614   3.471   2.828 -0.0264  0.3550 -0.0650
 1812W        W 5331   8.287   6.462   1.817 -0.1396  0.3421 -0.2262
 1813W        W 5332   0.425   7.088   9.480 -0.0380  0.1534 -0.1913
 1814W        W 5333   2.475   9.140   8.875 -0.1856 -0.1248 -0.0064
 1815W        W 5334   6.551   2.375   2.152 -0.0468 -0.1741 -0.1512
 1816W        W 5335   0.884   1.698  10.842  0.2024 -0.2571 -0.1348
 1817W        W 5336   7.847   5.245   9.518  0.4491 -0.0280 -0.0831
 1818W        W 5337   3.594   2.748   2.136 -0.0190 -0.2008 -0.0558
 1819W        W 5338   9.198   7.961   2.805  0.3801  0.1206 -0.1600
 1820W        W 5339   1.881   6.674   0.176 -0.1152 -0.1130 -0.0645
 1821W        W 5340   7.608   7.421   2.047 -0.0127  0.0078  0.1986
 1822W        W 5341   5.165   8.945   1.332  0.3978 -0.1848 -0.1032
 1823W        W 5342   6.123   7.321   3.517  0.0052  0.2064 -0.1485
 1824W        W 5343   2.563   1.700   3.183 -0.0580  0.3284  0.1360
 1825W        W 5344   6.642   7.412   8.588 -0.0119 -0.1146  0.3072
 1826W        W 5345   7.140   6.251   2.637 -0.0392  0.2921 -0.4313
 1827W        W 5346   0.416   2.474  10.157  0.0709 -0.1991  0.1050
 1828W        W 5347   9.718   5.700   3.672 -0.1822  0.1048  0.1814
 1829W        W 5348   1.341   2.106   2.385  0.0604  0.2570 -0.0302
 1830W        W 5349   1.078   0.238   0.804  0.2337 -0.1496  0.2127
 1831W        W 5350   2.989   6.289   1.501 -0.1740  0.0529 -0.0754
 1832W        W 5351   0.139   7.910   3.748  0.1536  0.0410  0.0713
 1833W        W 5352   6.059   1.038   2.027 -0.1683 -0.2057  0.1157
 1834W        W 5353   8.897   6.623  10.643 -0.3212  0.0964  0.4033
 1835W        W 5354   6.159   0.276   0.215 -0.2575  0.2699 -0.1455
 1836W        W 5355   4.398   0.133   3.519  0.1189 -0.0667  0.2632
 1837W        W 5356   1.688   8.707  10.502  0.2283 -0.1340 -0.1132
 1838W        W 5357   6.588   4.288  11.392 -0.1038  0.1355  0.0052
 1839W        W 5358   1.747   1.403   3.464 -0.0946  0.0196 -0.0492
 1840W        W 5359   2.607   1.618  11.236 -0.3278  0.3663 -0.0725
 1841W        W 5360   4.850   5.006   1.153  0.2369  0.1801 -0.5262
 1842W        W 5361   4.635   8.127   3.323  0.1825  0.1087  0.0242
 1843W        W 5362   0.919   2.393   9.282  0.0831 -0.0883 -0.4077
 1844W        W 5363   7.977   2.609   1.430  0.2082  0.1503 -0.0409
 1845W        W 5364   9.161   9.220   3.591 -0.0988 -0.2463 -0.2636
 1846W        W 5365   6.702   6.462   2.705 -0.0374  0.0228  0.1160
 1847W        W 5366   4.761   0.809   9.769 -0.0451  0.0034 -0.1145
 1848W        W 5367   3.202   1.812  11.234 -0.1124  0.0128  0.2795
 1849W        W 5368   3.262   5.065   3.841 -0.0200  0.1784  0.4359
 1850W        W 5369   9.055   6.134   9.610  0.3201  0.1235  0.0840
 1851W        W 5370   8.254   3.329  12.208  0.0486  0.0362  0.1954
 1852W        W 5371   4.601   2.406   3.005  0.1952 -0.0170 -0.1956
 1853W        W 5372   3.446   5.490   3.585  0.2624 -0.2075 -0.0851
 1854W        W 5373   3.907   8.036   2.737  0.0340 -0.2667 -0.2281
 1855W        W 5374   2.533   6.299   9.693  0.0333  0.1628  0.0488
 1856W        W 5375   0.027   5.940   9.521 -0.0180 -0.0860 -0.3618
 1857W        W 5376   4.001   5.615   9.472 -0.1685 -0.0510  0.2173
 1858W        W 5377   5.885   0.511   2.082  0.4377 -0.1371  0.2095
 1859W        W 5378   1.290   8.886   3.497 -0.0728  0.4166  0.1655
 1860W        W 5379   6.932   1.563   2.257 -0.0185 -0.0528  0.1921
 1861W        W 5380   3.238   2.267   0.693  0.1403  0.0724 -0.0832
 1862W        W 5381   7.186   3.627  11.300  0.1469  0.2324 -0.0781
 1863W        W 5382   4.575   6.256   1.804 -0.0388 -0.1042 -0.0930
 1864W        W 5383   4.513   1.473   0.210  0.1305 -0.2307  0.0014
 1865W        W 5384   3.253   8.660  11.712  0.1004  0.0473  0.2255
 1866W        W 5385   8.997   4.905   2.688 -0.2287 -0.2213 -0.2039
 1867W        W 5386   8.614   8.188  11.427  0.3356  0.0194 -0.3581
 1868W        W 5387   3.929   7.567   3.982 -0.0693 -0.2367 -0.0868
 1869W        W 5388   1.300   3.745  12.299 -0.0227  0.1314  0.0001
 1870W        W 5389   2.345   7.571   1.035  0.1629 -0.2184  0.2720
 1871W        W 5390   7.216   4.931   8.543 -0.1092 -0.1232 -0.1912
 1872W        W 5391   8.186   0.671   1.146  0.0319 -0.2619  0.0659
 1873W        W 5392   1.348   9.268  10.027 -0.0708 -0.0498  0.1966
 1874W        W 5393   3.244   2.895   8.515  0.0836 -0.0866  0.3415
 1875W        W 5394   8.062   8.834   9.817  0.1253 -0.1037 -0.3044
 1876W        W 5395   6.820   5.350   8.455  0.1063 -0.1161  0.1804
 1877W        W 5396   0.579   7.412   0.100  0.0954  0.2269  0.1216
 1878W        W 5397   1.790   7.362  10.105 -0.1318 -0.2664 -0.1812
 1879W        W 5398   0.879   9.494  12.320 -0.0539 -0.4211  0.2072
 1880W        W 5399   4.904   4.160   1.874  0.0197 -0.1360 -0.0189
 1881W        W 5400   3.632   7.995   3.844  0.2067  0.1336  0.3917
 1882W        W 5401   4.481   6.098   2.285 -0.0633 -0.0105  0.3481
 1883W        W 5402   6.183   9.319   8.074  0.0114  0.2350 -0.0642
 1884W        W 5403   7.263   4.889  11.722  0.4057 -0.0637  0.2593
 1885W        W 5404   2.620   3.960   9.197 -0.0665  0.0601  0.0543
 1886W        W 5405   6.755   7.360   1.454  0.0596 -0.0603 -0.2232
 1887W        W 5406   2.568   7.201  12.146  0.1635  0.2075 -0.1087
 1888W        W 5407   7.915   7.161   2.756 -0.2642 -0.1948 -0.1616
 1889W        W 5408   2.127   8.003   2.586 -0.0439 -0.0704 -0.1116
 1890W        W 5409   7.080   2.825  12.366  0.2210  0.1678  0.2714
 1891W        W 5410   9.395   2.919  10.940  0.0778  0.0974  0.0836
 1892W        W 5411   9.595   1.887   1.320 -0.2246 -0.2350 -0.1930
 1893W        W 5412   1.061   6.050   4.380  0.0981 -0.3668 -0.1096
 1894W        W 5413   2.585   3.417  12.214 -0.0303  0.2972  0.0251
 1895W        W 5414   7.731   0.696   1.168  0.0929  0.2723  0.0281
 1896W        W 5415   4.085   7.083   0.816  0.2375  0.3537  0.3035
 1897W        W 5416   6.884   6.310   9.506  0.0114  0.2240 -0.0914
 1898W        W 5417   2.932   8.557  10.765 -0.1085  0.0665 -0.0247
 1899W        W 5418   8.909   5.632   1.401  0.1944  0.2521 -0.2152
 1900W        W 5419   7.566   1.696  10.286 -0.0367 -0.0714  0.1741
 1901W        W 5420   4.102   8.807  11.726  0.0332  0.1698  0.1225
 1902W        W 5421   2.614   2.112   9.629 -0.3787 -0.0319  0.1494
 1903W        W 5422   6.238   4.951   2.271 -0.0650 -0.3425  0.3327
 1904W        W 5423   0.187   9.716   9.316 -0.1387 -0.0207  0.3305
 1905W        W 5424   4.968   8.049  11.690 -0.0700 -0.1243 -0.0473
 1906W        W 5425   4.788   1.237  10.619  0.3544  0.1202  0.0132
 1907W        W 5426   2.832   0.591   1.722 -0.3414  0.0049  0.2419
 1908W        W 5427   6.667   3.776   1.276 -0.0109  0.2018 -0.2566
 1909W        W 5428   7.002   3.474  12.375 -0.3481  0.1155 -0.0832
 1910W        W 5429   6.056   0.663  11.752 -0.2521 -0.2108 -0.1423
 1911W        W 5430   6.765   2.888  10.122  0.3795 -0.2830 -0.0909
 1912W        W 5431   6.264   5.764   0.473  0.1867 -0.0335  0.2181
 1913W        W 5432   0.254   6.591   8.116  0.0343  0.1988 -0.1824
 1914W        W 5433   9.494   6.280   0.416  0.0676  0.2484 -0.0326
 1915W        W 5434   2.823   7.499   2.759 -0.1058  0.1407  0.0695
 1916W        W 5435   1.415   4.803   2.614  0.1996 -0.0848  0.2204
 1917W        W 5436   4.265   3.353   8.240  0.1339  0.1297 -0.1537
 1918W        W 5437   7.542   0.244   8.669 -0.1569 -0.1093 -0.0993
 1919W        W 5438   9.157   6.508  11.085 -0.1536  0.0293  0.2490
 1920W        W 5439   6.384   1.286   3.276 -0.2665 -0.1327 -0.1985
 1921W        W 5440   3.511   3.136   1.530 -0.0395 -0.2490 -0.2467
 1922W        W 5441   4.486   2.259  10.064 -0.1493 -0.0185  0.0599
 1923W        W 5442   8.575   8.169  11.926  0.0604  0.2927  0.1399
 1924W        W 5443   6.157   1.472   1.062 -0.1273 -0.1101  0.1248
 1925W        W 5444   3.906   8.580  11.028  0.2200 -0.0101  0.3533
 1926W        W 5445   1.291   0.034  12.344  0.1031  0.0856  0.2110
 1927W        W 5446   9.141   3.310   9.523 -0.2360  0.0283  0.0689
 1928W        W 5447   3.734   6.091   9.788 -0.0178  0.0854 -0.2157
 1929W        W 5448   5.977   6.312   9.448 -0.3329  0.1961  0.0093
 1930W        W 5449   2.880   7.154   8.652  0.2639 -0.4283 -0.1009
 1931W        W 5450   2.053   3.018   1.771  0.0962  0.1171 -0.2580
 1932W        W 5451   4.097   8.498   0.702  0.2785 -0.1322  0.2699
 1933W        W 5452   2.884   1.200   0.097 -0.0770 -0.0540  0.4144
 1934W        W 5453   1.058   6.422   0.908 -0.0798 -0.0998 -0.1582
 1935W        W 5454   9.410   3.172  10.025  0.0053 -0.0513  0.1222
 1936W        W 5455   0.303   3.039  10.397 -0.1928 -0.1014  0.0682
 1937W        W 5456   7.735   7.544   3.045  0.1863  0.0036 -0.5367
 1938W        W 5457   2.286   1.325   9.566 -0.0762 -0.2050 -0.3362
 1939W        W 5458   6.966   8.444  10.503  0.0135  0.2701 -0.0608
 1940W        W 5459   2.463   3.399  11.622 -0.2685  0.2976 -0.0640
 1941W        W 5460   0.171   2.236   1.019 -0.1336  0.1515  0.0560
 1942W        W 5461   1.837   7.348  10.918  0.0241 -0.1790  0.0549
 1943W        W 5462   0.138   5.027   2.494 -0.1492  0.0456 -0.2192
 1944W        W 5463   1.026   1.484   9.121  0.0833  0.4980  0.0979
 1945W        W 5464   6.492   4.798   3.465 -0.3945 -0.2338  0.0391
 1946W        W 5465   9.006   7.950  11.645 -0.0874  0.2777  0.3746
 1947W        W 5466   4.361   7.807   2.086 -0.0702  0.0828 -0.2616
 1948W        W 5467   3.600   2.614   8.749 -0.0441  0.2040  0.0229
 1949W        W 5468   4.598   5.089  11.205  0.1270 -0.0267 -0.0960
 1950W        W 5469   8.617   4.811   1.642 -0.1804 -0.0952 -0.1602
 1951W        W 5470   6.407   0.233   1.853 -0.2006 -0.0540  0.0086
 1952W        W 5471   5.362   9.420   1.060 -0.0618  0.1173 -0.1206
 1953W        W 5472   4.260   0.667   9.632 -0.3032  0.1926 -0.1046
 1954W        W 5473   1.316   9.022  10.482 -0.0578 -0.1526  0.5466
 1955W        W 5474   3.828   8.725   3.947  0.2270  0.1458  0.0546
 1956W        W 5475   1.017   7.458   3.728 -0.1680  0.1888 -0.2616
 1957W        W 5476   3.783   1.026   0.140  0.1778 -0.0367 -0.2946
 1958W        W 5477   6.825   2.807   9.130  0.1513 -0.2084 -0.2236
 1959W        W 5478   0.549   5.249   2.320  0.0577 -0.2407  0.0824
 1960W        W 5479   2.128   3.943   9.003  0.2804 -0.1185 -0.1931
 1961W        W 5480   0.644   3.483   0.261 -0.0387 -0.0835 -0.0038
 1962W        W 5481   2.549   6.718   0.734  0.0225  0.0350 -0.0613
 1963W        W 5482   3.187   6.452   7.958  0.0985  0.0939 -0.5013
 1964W        W 5483   2.735   3.771  11.846 -0.2171 -0.0058  0.0939
 1965W        W 5484   1.500   0.183   3.135  0.0753  0.1145  0.0268
 1966W        W 5485   5.781   5.128   8.350 -0.0052  0.3216  0.1852
 1967W        W 5486   1.476   3.919   3.102 -0.1230 -0.2663 -0.0085
 1968W        W 5487   4.983   6.233   2.196  0.0381  0.0704  0.0615
 1969W        W 5488   6.830   3.110   2.438 -0.3861  0.0753 -0.2764
 1970W        W 5489   1.385   3.886   0.427  0.2875  0.1054 -0.0479
 1971W        W 5490   6.003   5.297   2.600 -0.0724  0.1178  0.2625
 1972W        W 5491   0.405   7.339  11.667 -0.2129 -0.2458 -0.0537
 1973W        W 5492   8.777   4.623   3.472 -0.0142  0.1654 -0.3180
 1974W        W 5493   3.411   4.120  11.965 -0.2089  0.1104  0.4435
 1975W        W 5494   6.440   1.424   0.686 -0.0820  0.0905  0.1709
 1976W        W 5495   3.645   1.973  11.951  0.0701  0.1396 -0.1246
 1977W        W 5496   8.059   5.211  11.953 -0.0477  0.1384  0.2393
 1978W        W 5497   2.638   0.966   9.402  0.1507  0.3392  0.1221
 1979W        W 5498   0.768   4.237   0.698  0.0495 -0.0630  0.2958
 1980W        W 5499   8.706   1.814   8.469  0.2485 -0.0064 -0.2532
 1981W        W 5500   9.275   7.876   0.498  0.2857 -0.0323  0.0584
 1982W        W 5501   0.542   5.278  10.437 -0.1924 -0.0740 -0.2540
 1983W        W 5502   5.886   9.297  10.914  0.1455  0.1958 -0.2702
 1984W        W 5503   6.800   2.684   8.649 -0.2437 -0.1267 -0.1488
 1985W        W 5504   8.591   9.404   1.907  0.3792  0.2252  0.4315
 1986W        W 5505   5.888   8.849  12.360  0.1690 -0.3282 -0.2292
 1987W        W 5506   1.420   7.388  11.289 -0.3781 -0.1098 -0.1096
 1988W        W 5507   8.710   7.321  12.191 -0.0483 -0.1477 -0.0041
 1989W        W 5508   1.593   7.106  10.454  0.3003  0.1495  0.0548
 1990W        W 5509   0.136   7.520   1.975  0.0502 -0.2542  0.2464
 1991W        W 5510   4.315   8.448   1.605 -0.0579  0.3685 -0.0833
 1992W        W 5511   7.075   5.250  11.498 -0.0578  0.1143  0.0061
 1993W        W 5512   9.703   7.592   2.428  0.0730 -0.1038  0.3579
 1994W        W 5513   3.290   2.767   3.102 -0.0498 -0.0373  0.0576
 1995W        W 5514   8.279   2.681   2.331  0.2550 -0.2311 -0.4182
 1996W        W 5515   3.359   5.325  10.037 -0.0891 -0.2101 -0.0228
 1997W        W 5516   9.734   6.035  10.779  0.0031  0.1517  0.3579
 1998W        W 5517   3.869   1.663   9.605 -0.2827  0.3151  0.0574
 1999W        W 5518   9.113   5.657  10.921 -0.0076  0.1574 -0.1151
 2000W        W 5519   6.435   3.597   3.077 -0.0105 -0.3018  0.2628
 2001W        W 5520   0.121   0.743  12.409 -0.1665 -0.1369 -0.1111
 2002W        W 5521   8.862   0.410  11.822 -0.1565  0.0247  0.1289
 2003W        W 5522   9.021   6.468   2.818  0.1020 -0.0449  0.0179
 2004W        W 5523   6.231   9.254  11.287 -0.3503  0.2690 -0.2030
 2005W        W 5524   2.622   7.645   9.276  0.1605 -0.0976 -0.0043
 2006W        W 5525   0.459   8.075   9.449  0.2682 -0.4872 -0.0720
 2007W        W 5526   4.732   8.265   2.622 -0.1935 -0.0275  0.2942
 2008W        W 5527   7.257   0.422   9.304 -0.0772 -0.1316 -0.1364
 2009W        W 5528   9.372   0.431  11.368 -0.0422 -0.0309  0.2300
 2010W        W 5529   8.629   3.424  11.178  0.1409 -0.2820 -0.2016
 2011W        W 5530   4.998   3.736   0.256  0.2757 -0.3282 -0.0493
 2012W        W 5531   1.562   1.523   0.115 -0.0814  0.0308  0.0756
 2013W        W 5532   1.583   0.627   1.725  0.0096  0.1753 -0.2185
 2014W        W 5533   8.144   3.969   9.311  0.0969 -0.0625  0.1136
 2015W        W 5534   4.624   5.482  12.401 -0.3045  0.3509 -0.1548
 2016W        W 5535   6.431   6.949  12.002  0.2257 -0.1558  0.2509
 2017W        W 5536   4.661   8.966   9.324 -0.1718  0.2045 -0.0486
 2018W        W 5537   2.517   3.055   1.998 -0.1146  0.1640  0.1674
 2019W        W 5538   0.821   5.660   1.447  0.2874 -0.1786  0.0256
 2020W        W 5539   5.848   6.652   8.684  0.0198 -0.3481 -0.0441
 2021W        W 5540   3.080   0.798  11.055 -0.1208 -0.0209  0.0260
 2022W        W 5541   5.979   2.488  10.360  0.0346  0.1451  0.2910
 2023W        W 5542   5.120   3.075   1.372  0.0627  0.0671 -0.0280
 2024W        W 5543   5.222   7.162  10.120 -0.1835  0.0725  0.2471
 2025W        W 5544   1.181   6.125  11.431  0.2357 -0.2215 -0.3639
 2026W        W 5545   1.442   8.628   7.873  0.0431  0.1390 -0.0011
 2027W        W 5546   0.049   1.248   8.001 -0.0833  0.1289 -0.1377
 2028W        W 5547   7.542   1.354  10.693  0.3869  0.1674  0.0467
 2029W        W 5548   7.555   5.869   1.695  0.2139 -0.1620  0.0329
 2030W        W 5549   2.413   0.115   0.206  0.0009  0.2430  0.0066
 2031W        W 5550   0.410   8.059   4.161 -0.1688  0.3100 -0.1659
 2032W        W 5551   0.746   1.226   0.036 -0.1471  0.0562 -0.0837
 2033W        W 5552   0.150   8.149   3.277 -0.0744 -0.2296 -0.0224
 2034W        W 5553   3.981   5.988  11.823  0.0080 -0.1120  0.0633
 2035W        W 5554   7.115   6.817   2.665 -0.1419 -0.2873 -0.1400
 2036W        W 5555   8.368   7.135   4.064  0.2019 -0.2041 -0.1418
 2037W        W 5556   8.798   1.492  11.142  0.1925  0.0303 -0.1397
 2038W        W 5557   1.810   3.978   0.052  0.0564 -0.1183 -0.4569
 2039W        W 5558   7.227   9.208  10.957  0.0331 -0.1366  0.0989
 2040W        W 5559   2.378   0.993   3.513  0.1273  0.4664 -0.1027
 2041W        W 5560   6.031   6.317  11.562 -0.3479  0.1435  0.1321
 2042W        W 5561   6.905   2.838   2.959  0.2334 -0.2137  0.1031
 2043W        W 5562   7.606   8.862   2.104 -0.0066  0.1284 -0.2618
 2044W        W 5563   3.395   7.019   1.861 -0.2302 -0.0842  0.1217
 2045W        W 5564   0.217   7.632   8.747 -0.2067  0.4077  0.3083
 2046W        W 5565   5.034   3.698  11.210 -0.0438 -0.1646  0.1703
 2047W        W 5566   2.957   3.304   0.747 -0.0156  0.0452 -0.0809
 2048W        W 5567   5.751   4.164  10.079 -0.0596  0.0246 -0.4250
 2049W        W 5568   9.392   8.031   3.352 -0.2483  0.2482  0.3409
 2050W        W 5569   8.183   9.616  10.949  0.2951  0.0404  0.1075
 2051W        W 5570   6.027   7.750   9.740 -0.1030 -0.1579 -0.0861
 2052W        W 5571   5.762   5.482   3.566 -0.0186  0.2228 -0.2208
 2053W        W 5572   0.954   3.472   2.072  0.3550  0.3217 -0.1827
 2054W        W 5573   6.303   0.411   2.304  0.0747  0.1557 -0.2139
 2055W        W 5574   0.860   1.569   3.292  0.0158 -0.0347  0.1925
 2056W        W 5575   0.196   8.103   2.355 -0.2700  0.0182 -0.2272
 2057W        W 5576   9.350   7.366  10.014  0.0073 -0.2246 -0.1796
 2058W        W 5577   7.288   7.183  10.723  0.1761 -0.0262 -0.0848
 2059W        W 5578   3.283   7.510   8.586 -0.4798 -0.1841 -0.5952
 2060W        W 5579   1.222   3.307   7.977  0.2457  0.0497  0.1422
 2061W        W 5580   7.209   1.460  10.058  0.1106  0.0110  0.5544
 2062W        W 5581   7.854   7.188   4.279  0.2732 -0.0053 -0.0031
 2063W        W 5582   0.822   0.791   9.134  0.1098 -0.0094  0.2652
 2064W        W 5583   5.701   0.327  11.609  0.1967  0.3060 -0.1720
 2065W        W 5584   0.188   3.471  10.581  0.3224  0.0283 -0.3296
 2066W        W 5585   3.906   4.816   0.826 -0.2421  0.0099 -0.1879
 2067W        W 5586   6.011   7.160   1.636  0.1717  0.1487  0.0119
 2068W        W 5587   3.254   8.867  12.272 -0.2975 -0.1312 -0.1694
 2069W        W 5588   4.169   5.782   8.640  0.2995 -0.1645 -0.1432
 2070W        W 5589   7.848   8.548  12.122  0.2139  0.1923  0.3457
 2071W        W 5590   3.217   9.422   3.132  0.0776  0.1325 -0.0150
 2072W        W 5591   4.871   5.663   9.035  0.2491 -0.0386 -0.1200
 2073W        W 5592   2.707   2.278   4.314  0.1448 -0.2367 -0.0141
 2074W        W 5593   2.775   8.684  11.731 -0.1663 -0.0787  0.0942
 2075W        W 5594   9.532   5.789   1.278  0.0659 -0.0777  0.0416
 2076W        W 5595   6.535   0.299   9.964  0.3604 -0.2683 -0.2345
 2077W        W 5596   3.425   3.139   0.716 -0.0774 -0.2583  0.0261
 2078W        W 5597   5.875   7.846  10.838 -0.1138  0.4444 -0.0381
 2079W        W 5598   7.196   6.451  11.941  0.2808 -0.1460  0.0730
 2080W        W 5599   3.201   2.772   2.542  0.1405  0.1944 -0.3625
 2081W        W 5600   1.261   2.996   7.567 -0.1728  0.2018 -0.2222
 2082W        W 5601   4.946   5.234  11.977  0.3596  0.1327  0.4455
 2083W        W 5602   1.109   6.858   1.394 -0.2090  0.0730 -0.3781
 2084W        W 5603   9.086   5.200   3.953  0.1546  0.1700 -0.2059
 2085W        W 5604   5.337   6.916  10.999  0.2149 -0.2298  0.0417
 2086W        W 5605   5.575   2.755   9.941 -0.1187 -0.2344  0.3066
 2087W        W 5606   5.763   5.683   0.425 -0.1187  0.1246 -0.1610
 2088W        W 5607   7.193   8.920   9.712  0.3215 -0.1698  0.6305
 2089W        W 5608   4.683   5.525   2.224  0.0319 -0.0582  0.0936
 2090W        W 5609   2.699   1.012  11.507  0.1069 -0.1818  0.1548
 2091W        W 5610   4.805   1.957   9.828 -0.2450  0.1151  0.2402
 2092W        W 5611   2.321   2.019   4.218 -0.1379  0.3569 -0.3927
 2093W        W 5612   4.913   7.125  12.081  0.0151  0.0769 -0.3899
 2094W        W 5613   4.719   8.825   3.537 -0.2874 -0.0432  0.0984
 2095W        W 5614   3.525   2.429  12.023 -0.2024  0.0811  0.0569
 2096W        W 5615   8.803   0.003  10.755  0.0915  0.1139 -0.2113
 2097W        W 5616   2.950   3.178   8.925  0.2461 -0.1147 -0.0826
 2098W        W 5617   5.278   4.908   1.350  0.0647  0.0003 -0.1484
 2099W        W 5618   4.429   5.257   1.279 -0.0107 -0.2862 -0.0278
 2100W        W 5619   6.480   6.307   1.335 -0.2600 -0.2882  0.2258
 2101W        W 5620   0.858   2.646  10.270  0.1773 -0.0325  0.0187
 2102W        W 5621   4.032   3.543   9.520  0.2044  0.0037  0.1647
 2103W        W 5622   8.307   8.133   4.359 -0.0465 -0.1517  0.4292
 2104W        W 5623   7.330   5.244   4.367 -0.0151  0.2739  0.3947
 2105W        W 5624   6.096   5.940  10.401 -0.1000  0.3164  0.0033
 2106W        W 5625   1.557   5.688   9.749  0.0502  0.1191  0.0427
 2107W        W 5626   2.604   6.274  12.389 -0.4134 -0.1229  0.0546
 2108W        W 5627   2.392   9.719  11.388 -0.0344 -0.1536  0.0279
 2109W        W 5628   6.953   5.499   2.526 -0.2100 -0.1950  0.0419
 2110W        W 5629   6.007   8.634   2.814  0.2194  0.0914  0.0682
 2111W        W 5630   0.137   0.537  11.080  0.0013 -0.1660 -0.4088
 2112W        W 5631   3.084   2.677  11.723 -0.0107 -0.2269 -0.0849
 2113W        W 5632   4.537   1.720   9.337  0.1572 -0.1338  0.1135
 2114W        W 5633   2.946   7.576   9.628 -0.0859 -0.3530  0.2141
 2115W        W 5634   8.579   0.800   8.570  0.0505 -0.0232 -0.1563
 2116W        W 5635   2.791   1.460   1.781  0.2371 -0.0502 -0.1993
 2117W        W 5636   4.176   7.818   9.127  0.0368 -0.0880 -0.2458
 2118W        W 5637   4.774   6.002   8.668  0.2294 -0.0573  0.0118
 2119W        W 5638   2.976   8.306   7.991 -0.3036  0.1122  0.1201
 2120W        W 5639   5.343   4.686  11.349  0.0638  0.3822  0.1730
 2121W        W 5640   5.130   6.885   2.956  0.3650 -0.0906  0.0316
 2122W        W 5641   8.609   3.102  10.283 -0.1783  0.0878  0.1700
 2123W        W 5642   2.690   4.301   4.103 -0.0073 -0.1628 -0.3006
 2124W        W 5643   6.148   4.709   8.471 -0.0737  0.0394  0.1375
 2125W        W 5644   9.015   6.088   3.740 -0.0106  0.1727 -0.1703
 2126W        W 5645   1.155   4.640   0.510 -0.1213 -0.2560  0.0890
 2127W        W 5646   8.834   7.532   2.683  0.1879  0.0180 -0.1905
 2128W        W 5647   3.045   3.114  10.869  0.0637  0.0581  0.3678
 2129W        W 5648   3.115   5.736   3.178 -0.0041 -0.0850  0.0640
 2130W        W 5649   0.865   2.747   7.284  0.1117  0.0108 -0.1274
 2131W        W 5650   4.008   0.729  11.454 -0.1061  0.1014 -0.0268
 2132W        W 5651   1.270   2.999  11.128 -0.0954  0.2335  0.3108
 2133W        W 5652   2.296   2.692   1.414  0.3724 -0.3613  0.2271
 2134W        W 5653   3.671   1.487  10.470 -0.2178 -0.3419  0.0300
 2135W        W 5654   6.028   7.327   0.872 -0.2288 -0.0188  0.2761
 2136W        W 5655   2.833   7.611   1.014 -0.1617 -0.1794 -0.1122
 2137W        W 5656   4.003   6.463   9.132  0.0616 -0.0605  0.0643
 2138W        W 5657   1.055   7.231   0.162 -0.1583  0.1591  0.1134
 2139W        W 5658   3.024   4.542   2.555 -0.1186 -0.1701  0.1255
 2140W        W 5659   7.860   7.469  10.611  0.0892 -0.2045  0.1685
 2141W        W 5660   4.115   8.217  10.099 -0.0806  0.1219 -0.0595
 2142W        W 5661   4.671   9.252  12.021  0.1083  0.0842 -0.0736
 2143W        W 5662   2.375   3.683   2.445 -0.0156 -0.1701 -0.0144
 2144W        W 5663   2.528   0.107  10.409  0.3125  0.2292  0.0556
 2145W        W 5664   7.437   6.316  12.406  0.3649 -0.6133  0.0743
 2146W        W 5665   8.628   0.868   0.992 -0.1448 -0.2070  0.0116
 2147W        W 5666   0.374   4.364   8.593 -0.1163  0.0296 -0.2830
 2148W        W 5667   0.270   2.336   3.164  0.1442  0.0536 -0.3354
 2149W        W 5668   4.079   5.058   9.410  0.3255 -0.1467 -0.0368
 2150W        W 5669   9.080   9.283   9.714  0.2179 -0.0949 -0.2080
 2151W        W 5670   2.812   2.599   3.511  0.1748  0.1336 -0.0454
 2152W        W 5671   6.351   5.295   3.295 -0.1835 -0.0709  0.1597
 2153W        W 5672   2.258   7.196   0.524 -0.4660 -0.2193 -0.0388
 2154W        W 5673   0.582   9.251   0.885 -0.1352  0.1610  0.2033
 2155W        W 5674   9.169   6.842  10.173 -0.1012  0.0351 -0.3029
 2156W        W 5675   1.300   8.679  12.136 -0.1476  0.4984  0.1464
 2157W        W 5676   5.517   2.130   0.447  0.1656  0.0389 -0.3779
 2158W        W 5677   6.327   7.043   9.060  0.0236  0.1383  0.2980
 2159W        W 5678   2.232   2.061  11.815  0.0298 -0.0091  0.1874
 2160W        W 5679   9.439   0.677  10.570 -0.1549  0.0697 -0.0823
 2161W        W 5680   4.487   8.988   1.073  0.2130 -0.4963 -0.0914
 2162W        W 5681   3.009   5.222   3.339 -0.0962 -0.1506 -0.1070
 2163W        W 5682   5.738   2.195   9.390 -0.2290  0.4014 -0.2011
 2164W        W 5683   8.862   4.771   2.223  0.0944  0.2155  0.0287
 2165W        W 5684   3.149   1.415  10.215  0.0500 -0.0425 -0.3741
 2166W        W 5685   7.148   2.239   8.450 -0.0076  0.0690 -0.3234
 2167W        W 5686   2.843   6.229   9.012  0.0316 -0.1201 -0.1849
 2168W        W 5687   6.675   6.563   1.729 -0.2079 -0.0710 -0.3268
 2169W        W 5688   3.274   6.981  10.044  0.0433 -0.0779 -0.2407
 2170W        W 5689   9.088   6.750   1.565 -0.0458 -0.0295 -0.1030
 2171W        W 5690   5.844   1.306  10.661 -0.0477  0.1650  0.1482
 2172W        W 5691   1.666   7.521   1.732 -0.2586  0.0351  0.0633
 2173W        W 5692   1.764   1.359   1.205 -0.0166  0.3987 -0.0274
 2174W        W 5693   7.026   3.111   8.733 -0.1168 -0.0621 -0.1180
 2175W        W 5694   8.507   4.439  12.000  0.0442 -0.0568  0.0508
 2176W        W 5695   6.370   5.612   2.864 -0.2046  0.1521 -0.3339
 2177W        W 5696   8.552   6.487  10.936  0.0053  0.1252 -0.0259
 2178W        W 5697   5.824   4.191   1.810 -0.0282  0.0774  0.1368
 2179W        W 5698   6.272   6.730   1.459 -0.0371  0.2162  0.1074
 2180W        W 5699   8.655   2.230   9.350 -0.1547  0.1458  0.0526
 2181W        W 5700   3.332   3.722  10.242 -0.0436  0.0558  0.0026
 2182W        W 5701   9.554   1.741   2.540  0.1407 -0.0500  0.0342
 2183W        W 5702   8.822   1.330  10.661 -0.0982  0.2844 -0.0395
 2184W        W 5703   6.018   2.200   1.168 -0.2570 -0.2551  0.0500
 2185W        W 5704   2.158   0.456   8.664  0.1905  0.1405 -0.1168
 2186W        W 5705   7.240   7.621   9.393  0.1887  0.1647  0.5567
 2187W        W 5706   8.401   9.673   2.827  0.0144 -0.0612 -0.4577
 2188W        W 5707   7.608   8.984   1.638  0.0379  0.0565 -0.1900
 2189W        W 5708   1.554   3.003   8.240  0.3233 -0.1600  0.1827
 2190W        W 5709   1.458   5.358  10.218 -0.3165 -0.0419  0.0294
 2191W        W 5710   9.282   2.030  11.083 -0.0200 -0.1093  0.3503
 2192W        W 5711   3.300   5.966  10.045 -0.5173  0.0599 -0.0882
 2193W        W 5712   7.255   1.263   3.651 -0.2159  0.2577 -0.2111
 2194W        W 5713   4.941   2.653   8.997 -0.0396  0.1445  0.1656
 2195W        W 5714   2.953   1.959   1.141 -0.0944  0.3306 -0.3687
 2196W        W 5715   1.756   0.068  11.967 -0.2065  0.0060  0.1414
 2197W        W 5716   8.265   0.010   1.913  0.3004  0.1319  0.0120
 2198W        W 5717   9.000   0.234   2.942 -0.2058 -0.2780  0.3611
 2199W        W 5718   7.400   4.846  12.322  0.1577  0.2084  0.1458
 2200W        W 5719   5.154   0.353  10.447  0.0789 -0.0155  0.2332
 2201W        W 5720   6.816   5.238   3.546  0.0254 -0.1041  0.0657
 2202W        W 5721   0.031   7.749   9.844 -0.0039  0.2017  0.3088
 2203W        W 5722   2.812   5.291   0.996 -0.1368 -0.1241  0.1751
 2204W        W 5723   3.933   6.398  11.270 -0.1440  0.2238  0.1637
 2205W        W 5724   1.798   8.102   1.197 -0.1010  0.2386  0.0149
 2206W        W 5725   8.922   8.971   9.354 -0.1679 -0.0208 -0.0218
 2207W        W 5726   6.305   4.878   3.908 -0.1498 -0.0005  0.0880
 2208W        W 5727   3.336   7.353  10.347  0.4331 -0.0316 -0.1007
 2209W        W 5728   5.690   5.138   2.274 -0.0172 -0.0601 -0.0469
 2210W        W 5729   2.415   4.094  10.424  0.1090 -0.0712  0.1448
 2211W        W 5730   8.864   5.866   1.867 -0.1351 -0.0748 -0.0843
 2212W        W 5731   6.713   3.779  11.394  0.4450  0.0001  0.1026
 2213W        W 5732   2.422   3.595   1.375 -0.0885 -0.0860 -0.0870
 2214W        W 5733   2.691   7.765   3.850 -0.1414 -0.0988 -0.0464
 2215W        W 5734   1.478   0.890  10.738  0.3344 -0.2982  0.0005
 2216W        W 5735   4.715   6.360   9.778 -0.2445  0.0531 -0.1314
 2217W        W 5736   7.677   5.502   7.493  0.3991 -0.2711  0.0187
 2218W        W 5737   9.555   3.545  11.598  0.0878 -0.2724  0.2972
 2219W        W 5738   1.777   1.971   9.005  0.0109 -0.1375  0.2630
 2220W        W 5739   2.641   7.194   9.610  0.1654 -0.0232 -0.1181
 2221W        W 5740   5.483   2.908   1.693  0.2925 -0.4249  0.2736
 2222W        W 5741   7.500   5.701   0.645 -0.0270 -0.1779  0.0166
 2223W        W 5742   7.350   4.328   3.564  0.0351  0.1835 -0.0931
 2224W        W 5743   4.203   6.292  10.826 -0.0842  0.1076  0.0567
 2225W        W 5744   8.375   2.164   8.232 -0.3971 -0.0406 -0.0148
 2226W        W 5745   0.725   2.438   9.765 -0.0668 -0.3287 -0.0412
 2227W        W 5746   1.160   8.862   0.347  0.0093 -0.0585 -0.0907
 2228W        W 5747   8.192   6.748   2.536  0.2727  0.1178 -0.1210
 2229W        W 5748   2.228   9.314   2.893 -0.1120 -0.3913 -0.1779
 2230W        W 5749   5.253   1.999  10.766  0.0336 -0.1621 -0.0629
 2231W        W 5750   4.713   1.467  11.441 -0.1141  0.1803  0.3869
 2232W        W 5751   5.403   8.701  10.219 -0.0155  0.2711  0.0409
 2233W        W 5752   4.104   6.063   1.267 -0.1978  0.0055  0.1470
 2234W        W 5753   8.598   0.887   1.468  0.0387 -0.0065 -0.3417
 2235W        W 5754   5.155   4.262   0.619 -0.0549  0.4992 -0.0082
 2236W        W 5755   3.286   4.794   8.654 -0.2829  0.1561  0.2600
 2237W        W 5756   1.769   6.368  10.107 -0.0089 -0.1473 -0.4534
 2238W        W 5757   6.405   9.320   8.597 -0.1253  0.0450  0.2106
 2239W        W 5758   5.114   1.349   9.303  0.1061 -0.0116 -0.2575
 2240W        W 5759   9.009   0.837  11.973  0.3087  0.2417 -0.1438
 2241W        W 5760   5.313   6.620  10.098 -0.1988  0.1015  0.1111
 2242W        W 5761   2.185   7.485  10.522  0.1700 -0.1223  0.0462
 2243W        W 5762   8.610   7.864   3.043 -0.3600  0.3352 -0.0975
 2244W        W 5763   0.791   1.021   3.463 -0.1776 -0.1133 -0.1095
 2245W        W 5764   8.576   9.039   9.738 -0.0905  0.2947  0.3167
 2246W        W 5765   8.878   9.747   4.223  0.1194  0.1842 -0.1554
 2247W        W 5766   4.939   3.056  10.426 -0.1089  0.2234 -0.0252
 2248W        W 5767   1.568   4.409  10.142 -0.1600  0.0266  0.1435
 2249W        W 5768   3.928   7.503   9.536 -0.1134  0.3729 -0.0168
 2250W        W 5769   3.175   1.829   2.484  0.1424 -0.1997 -0.0783
 2251W        W 5770   5.628   0.718   2.476  0.2525  0.4250 -0.0646
 2252W        W 5771   1.157   2.770   8.016 -0.1966 -0.1247 -0.0104
 2253W        W 5772   4.611   8.180   9.916  0.1634  0.0543  0.1843
 2254W        W 5773   1.594   6.848   4.197  0.1473 -0.1130 -0.2024
 2255W        W 5774   5.499   3.264  11.682 -0.2344 -0.2150 -0.0851
 2256W        W 5775   7.241   5.503   9.330 -0.0508  0.1857 -0.1317
 2257W        W 5776   6.764   0.186   0.294  0.2773  0.0022 -0.1854
 2258W        W 5777   7.174   1.716  12.363  0.0921  0.1339 -0.2590
 2259W        W 5778   6.970   6.978   4.533  0.3186  0.0515 -0.0855
 2260W        W 5779   4.918   2.129   2.638  0.0165  0.3815  0.1619
 2261W        W 5780   2.747   6.117   2.339  0.0605  0.1652 -0.0652
 2262W        W 5781   6.682   2.171  11.281 -0.1268  0.2649  0.2031
 2263W        W 5782   9.199   2.057   0.334 -0.4501  0.0629 -0.0308
 2264W        W 5783   3.621   9.528   2.761 -0.0503 -0.1117 -0.0630
 2265W        W 5784   8.514   2.984  11.956 -0.0326 -0.1095  0.0024
 2266W        W 5785   0.911   3.125   4.084  0.2955 -0.0141  0.1915
 2267W        W 5786   3.182   6.349   2.438 -0.2907  0.1097 -0.1561
 2268W        W 5787   2.396   0.897   8.860  0.3118  0.0372  0.2727
 2269W        W 5788   7.211   0.425   0.128 -0.0311 -0.0386 -0.0588
 2270W        W 5789   9.204   5.600   8.076 -0.0940 -0.2236  0.0989
 2271W        W 5790   0.669   4.865   1.360  0.0733 -0.0702 -0.1386
 2272W        W 5791   7.882   7.422   9.981 -0.1369  0.1969 -0.0560
 2273W        W 5792   0.306   7.044  10.313 -0.0982  0.0525 -0.0944
 2274W        W 5793   8.814   6.606   9.857  0.0427 -0.2994 -0.3384
 2275W        W 5794   7.312   2.159  11.193  0.3845  0.2231  0.1716
 2276W        W 5795   3.457   7.946   8.878  0.0925  0.3558 -0.1415
 2277W        W 5796   8.917   2.071  11.457 -0.1733 -0.0847 -0.0256
 2278W        W 5797   2.980   1.800   2.959 -0.0164  0.1435 -0.0571
 2279W        W 5798   0.667   6.281   3.923 -0.1015 -0.2787 -0.0888
 2280W        W 5799   1.358   4.309  11.611  0.0365  0.0235  0.1388
 2281W        W 5800   1.535   0.393   2.108 -0.1235 -0.0906 -0.1200
 2282W        W 5801   9.191   9.400   8.471  0.1521  0.1142  0.1693
 2283W        W 5802   4.258   2.484   0.675 -0.3790  0.0575 -0.0493
 2284W        W 5803   3.231   0.533   0.832 -0.0313  0.0881  0.1167
 2285W        W 5804   7.106   1.176  11.034 -0.2846 -0.0936 -0.1106
 2286W        W 5805   2.837   5.686   1.269  0.1963 -0.1734 -0.2729
 2287W        W 5806   1.267   2.016  10.804 -0.4951 -0.0634  0.5573
 2288W        W 5807   0.002   1.465   0.659  0.0043  0.3367 -0.2305
 2289W        W 5808   2.265   7.834  11.588 -0.0374 -0.3490  0.0857
 2290W        W 5809   8.224   4.459   1.061  0.4447  0.1405 -0.0836
 2291W        W 5810   6.819   6.263   0.126  0.1360 -0.5785  0.2522
 2292W        W 5811   5.223   4.786  11.826  0.1480 -0.0797 -0.1278
 2293W        W 5812   6.247   4.909  11.700  0.0241  0.1505 -0.5734
 2294W        W 5813   0.420   3.933   0.485  0.0688  0.1575 -0.1804
 2295W        W 5814   5.369   6.597   2.057  0.2473 -0.1716  0.1937
 2296W        W 5815   8.868   2.439   3.016  0.1396 -0.2808 -0.5632
 2297W        W 5816   4.824   5.451  10.827 -0.3046 -0.2039  0.3333
 2298W        W 5817   8.394   3.604   0.267 -0.1220  0.2686  0.1856
 2299W        W 5818   5.530   4.713  10.091  0.1979  0.0880 -0.3396
 2300W        W 5819   7.552   4.622  10.923  0.1943  0.2114 -0.0643
 2301W        W 5820   7.769   1.960   1.989  0.1022  0.1698  0.1180
 2302W        W 5821   6.160   7.541  10.262 -0.1747 -0.0873 -0.1424
 2303W        W 5822   3.361   0.053   1.128  0.1463 -0.2505  0.0497
 2304W        W 5823   4.226   3.092   9.616 -0.0612  0.1659  0.0240
 2305W        W 5824   9.272   4.962  11.067 -0.1451 -0.4392  0.4179
 2306W        W 5825   4.923   9.282   0.434  0.1020 -0.1746 -0.1093
 2307W        W 5826   9.227   2.650   3.818  0.0655 -0.1274  0.2165
 2308W        W 5827   1.753   9.060   9.372 -0.0870 -0.0728  0.1784
 2309W        W 5828   1.688   7.635   9.023  0.2835  0.3417  0.0027
 2310W        W 5829   4.383   1.603   9.823  0.0215  0.0061  0.0218
 2311W        W 5830   6.070   5.602   9.990  0.0677  0.1798  0.1103
 2312W        W 5831   6.016   3.385  10.236 -0.1640 -0.3140  0.2533
 2313W        W 5832   3.240   6.637   9.602 -0.5113 -0.3547 -0.2897
 2314W        W 5833   8.206   8.656  10.945 -0.1376  0.3083  0.2835
 2315W        W 5834   4.660   7.862   0.790  0.0327  0.2203 -0.0089
 2316W        W 5835   0.926   0.866   2.964 -0.2085 -0.0499  0.1088
 2317W        W 5836   1.931   8.346   3.480 -0.2533 -0.0540 -0.0440
 2318W        W 5837   3.080   7.090  10.847  0.1233 -0.0126  0.1548
 2319W        W 5838   1.387   3.989  10.544  0.1150  0.3078  0.1557
 2320W        W 5839   4.301   4.330   2.902 -0.1396  0.3078  0.1538
 2321W        W 5840   4.025   4.994   1.575 -0.0883 -0.1111  0.2520
 2322W        W 5841   7.741   2.092   9.310 -0.0461 -0.0031  0.1258
 2323W        W 5842   8.282   7.834  11.220 -0.1029  0.3703  0.1913
 2324W        W 5843   4.787   2.646   3.423 -0.1326 -0.0293 -0.2248
 2325W        W 5844   0.391   6.390   9.515 -0.0847  0.1340  0.0362
 2326W        W 5845   9.342   5.933   9.309 -0.1233  0.0698  0.3278
 2327W        W 5846   2.161   8.390   3.889  0.0842  0.0420 -0.2063
 2328W        W 5847   3.813   0.876   8.741  0.0718 -0.2492 -0.1296
 2329W        W 5848   5.151   7.322   0.264  0.1189  0.3465  0.0676
 2330W        W 5849   4.383   0.582   2.710 -0.1030 -0.3109  0.1390
 2331W        W 5850   2.662   4.898   1.698  0.1898 -0.0843  0.2002
 2332W        W 5851   3.686   7.339   0.994 -0.0317  0.1599  0.0726
 2333W        W 5852   5.462   3.724   9.855 -0.0698 -0.1067 -0.1296
 2334W        W 5853   8.831   0.666   9.977  0.1675 -0.2478 -0.4160
 2335W        W 5854   7.127   7.474   3.881  0.3590 -0.2680 -0.0392
 2336W        W 5855   3.542   6.581  10.054 -0.0037  0.3709 -0.0633
 2337W        W 5856   7.880   0.043   2.853 -0.1321 -0.4520 -0.1789
 2338W        W 5857   5.660   8.761   0.447  0.2795 -0.0160 -0.1631
 2339W        W 5858   9.653   1.503  10.591  0.0123  0.1305  0.2512
 2340W        W 5859   1.636   2.774  10.866 -0.0633  0.2114 -0.2519
 2341W        W 5860   2.662   4.263   2.950 -0.3538 -0.2584 -0.5583
 2342W        W 5861   0.856   7.694   8.539  0.2083 -0.0933  0.1573
 2343W        W 5862   9.309   1.904   8.159  0.0127 -0.0784 -0.0954
 2344W        W 5863   2.598   1.597   9.873  0.3027  0.0406  0.1511
 2345W        W 5864   6.780   0.358   2.402 -0.1460 -0.4643 -0.0894
 2346W        W 5865   5.526   4.284   3.174 -0.1951  0.0628  0.2013
 2347W        W 5866   0.570   9.410  11.295  0.1129 -0.0979  0.4410
 2348W        W 5867   3.624   8.437  11.968 -0.0642  0.1496  0.0716
 2349W        W 5868   8.201   9.134  10.702  0.1491  0.1596 -0.0505
 2350W        W 5869   5.570   2.405   0.922 -0.1302  0.1885  0.1386
 2351W        W 5870   9.253   6.716   2.292  0.0161 -0.0925  0.2675
 2352W        W 5871   1.908   0.215   3.966  0.0370 -0.0556 -0.0937
 2353W        W 5872   2.965   6.793   8.342  0.2977  0.2119  0.2279
 2354W        W 5873   0.218   5.701   0.273  0.0286  0.2386  0.3209
 2355W        W 5874   4.750   9.050   9.895  0.1021 -0.0736 -0.1399
 2356W        W 5875   0.565   0.214   8.431  0.0086  0.0324 -0.2626
 2357W        W 5876   7.555   2.413   2.196 -0.0077  0.0865 -0.1732
 2358W        W 5877   6.304   6.021  10.858 -0.0978  0.2195  0.2125
 2359W        W 5878   6.837   1.985  10.316 -0.0791 -0.0090  0.1154
 2360W        W 5879   6.404   4.143  12.230  0.0798  0.1938  0.1157
 2361W        W 5880   1.997   3.634  10.097  0.0524  0.1515 -0.0528
 2362W        W 5881   6.751   1.918   9.277  0.1311 -0.1534 -0.0382
 2363W        W 5882   5.963   0.085  11.026 -0.2466  0.1109 -0.1639
 2364W        W 5883   2.146   4.814  11.253  0.2671 -0.0871 -0.0404
 2365W        W 5884   7.800   1.924   0.540  0.1018 -0.1057 -0.0864
 2366W        W 5885   1.812   3.863   9.728  0.4519 -0.1909  0.2444
 2367W        W 5886   9.731   7.849  10.733 -0.2986 -0.1527 -0.1658
 2368W        W 5887   0.326   3.803   4.619  0.0344 -0.0089  0.1814
 2369W        W 5888   7.336   7.139   3.051  0.2168 -0.1382  0.2602
 2370W        W 5889   2.287   0.677   9.607 -0.1399 -0.0711  0.0748
 2371W        W 5890   3.591   4.603   2.609  0.0735 -0.0834 -0.0831
 2372W        W 5891   7.833   9.493   9.890 -0.0725 -0.3169 -0.2251
 2373W        W 5892   1.837   3.147   0.783  0.3098  0.2579 -0.1549
 2374W        W 5893   0.353   4.430   3.182 -0.0614  0.1779 -0.0974
 2375W        W 5894   1.677   3.899  11.436  0.1511 -0.0857 -0.2535
 2376W        W 5895   6.680   5.122   2.097 -0.0135 -0.0237 -0.0330
 2377W        W 5896   8.169   3.516   4.252 -0.2486  0.1091 -0.2050
 2378W        W 5897   3.222   5.929   1.073  0.0672  0.1891 -0.0218
 2379W        W 5898   8.784   1.908   0.713 -0.1013  0.1909  0.0911
 2380W        W 5899   5.850   7.677  11.982  0.3505 -0.0697  0.2334
 2381W        W 5900   2.001   0.600   0.287  0.2593  0.0702  0.0962
 2382W        W 5901   5.658   6.865   0.701  0.0021  0.0029  0.2131
 2383W        W 5902   4.063   2.441   9.039  0.2099  0.0692 -0.1663
 2384W        W 5903   5.145   5.622  11.579  0.1062  0.0060 -0.0670
 2385W        W 5904   3.540   0.673  12.328  0.1503  0.2482 -0.0048
 2386W        W 5905   7.176   7.290   8.853  0.2590 -0.1275  0.0478
 2387W        W 5906   2.005   7.543   2.850 -0.1641 -0.1444  0.1471
 2388W        W 5907   1.021   1.732   2.390  0.2632 -0.1040 -0.1440
 2389W        W 5908   5.005   7.788  11.192  0.0972 -0.4768 -0.1954
 2390W        W 5909   8.921   3.234  11.824 -0.0017 -0.0475  0.1487
 2391W        W 5910   9.635   7.423  11.768  0.2018  0.0478  0.1154
 2392W        W 5911   2.619   1.131  12.020 -0.0561 -0.1545 -0.1696
 2393W        W 5912   6.549   3.975   9.273 -0.0383  0.0848  0.1647
 2394W        W 5913   1.547   2.966   1.642  0.1430 -0.1043 -0.0478
 2395W        W 5914   4.551   4.820   1.536  0.0652  0.0546 -0.1029
 2396W        W 5915   5.296   2.801   0.677 -0.1069 -0.0748  0.0883
 2397W        W 5916   5.868   8.935   9.044  0.0304 -0.0010 -0.2628
 2398W        W 5917   4.325   6.774  11.008 -0.0513 -0.0277 -0.2577
 2399W        W 5918   1.847   8.133   9.301 -0.2346  0.0638 -0.2290
 2400W        W 5919   6.476   7.219   7.560  0.2856 -0.0724  0.0694
 2401W        W 5920   0.802   7.311   9.142  0.0031 -0.0283  0.1005
 2402W        W 5921   2.876   7.264  11.253 -0.1031 -0.3662 -0.2840
 2403W        W 5922   8.183   2.759   4.432 -0.0889 -0.0395  0.2504
 2404W        W 5923   8.304   0.872   3.544 -0.4875 -0.3804  0.0420
 2405W        W 5924   1.495   4.347   8.585  0.2449 -0.3173 -0.0338
 2406W        W 5925   8.301   7.318   0.298  0.0071 -0.3295  0.1134
 2407W        W 5926   0.590   5.183   0.129 -0.4215 -0.1510 -0.0659
 2408W        W 5927   3.108   8.402  12.126  0.3483  0.1673 -0.3319
 2409W        W 5928   6.203   9.642   8.882 -0.1782 -0.0129  0.0448
 2410W        W 5929   7.032   0.744   1.946  0.1836  0.2080 -0.2203
 2411W        W 5930   8.655   2.906   2.723  0.0456 -0.0023  0.0889
 2412W        W 5931   9.094   3.297   1.946 -0.1190 -0.1217  0.0790
 2413W        W 5932   9.689   7.566   0.057  0.2594 -0.0448 -0.1793
 2414W        W 5933   0.552   2.263   0.295 -0.0146 -0.0183  0.0328
 2415W        W 5934   2.219   2.774   2.280  0.1482 -0.1535 -0.1673
 2416W        W 5935   1.742   4.763   0.270 -0.2479  0.3074  0.2435
 2417W        W 5936   2.691   9.358   1.694  0.2117  0.0828  0.1749
 2418W        W 5937   7.960   4.688   8.909  0.1128  0.1239  0.1192
 2419W        W 5938   1.922   3.460  11.556 -0.2901 -0.1209  0.3927
 2420W        W 5939   2.020   7.336   1.352  0.0246  0.0794 -0.0618
 2421W        W 5940   2.108   6.176   3.157  0.2519 -0.0260 -0.0938
 2422W        W 5941   2.632   0.517   3.619 -0.0523 -0.0464 -0.0684
 2423W        W 5942   2.808   4.672  12.021 -0.3758  0.0400 -0.2637
 2424W        W 5943   1.096   2.290  12.026  0.1497 -0.2057  0.0777
 2425W        W 5944   4.587   9.564  10.073  0.1710 -0.2370 -0.1558
 2426W        W 5945   3.624   0.206   1.554  0.0804  0.2634 -0.2669
 2427W        W 5946   3.560   0.214   0.736 -0.2707  0.0692  0.0364
 2428W        W 5947   3.701   4.620  10.371  0.2027 -0.4216  0.2959
 2429W        W 5948   9.190   1.558   1.629 -0.0288  0.1627  0.1626
 2430W        W 5949   0.478   3.584   2.892 -0.0387  0.1482  0.0949
 2431W        W 5950   0.745   5.243   4.607  0.2169 -0.0834 -0.2294
 2432W        W 5951   0.597   3.216   2.445 -0.2015 -0.2531  0.1014
 2433W        W 5952   4.818   8.624  10.136  0.1180 -0.3499 -0.1604
 2434W        W 5953   2.122   6.211   0.080 -0.2152  0.1774 -0.1411
 2435W        W 5954   2.992   6.236   2.874  0.0113  0.1431 -0.0857
 2436W        W 5955   2.297   1.836   9.311 -0.1474  0.1071  0.1455
 2437W        W 5956   3.023   1.235   0.562 -0.3310  0.1355  0.0050
 2438W        W 5957   1.278   0.932   9.632 -0.2200 -0.0720 -0.0047
 2439W        W 5958   0.438   7.463  11.161  0.0931  0.0798 -0.0980
 2440W        W 5959   0.892   6.263   9.686  0.1756 -0.1146 -0.0005
 2441W        W 5960   9.729   9.459  10.541  0.0961  0.1720 -0.1207
 2442W        W 5961   1.924   0.579   4.412 -0.2296 -0.2153  0.1393
 2443W        W 5962   6.267   7.909   2.106 -0.3235 -0.1291  0.0699
 2444W        W 5963   2.983   5.815   8.616  0.0484  0.2867 -0.1008
 2445W        W 5964   6.341   7.712   1.561  0.0623  0.1472 -0.2315
 2446W        W 5965   4.060   9.065   8.785  0.1222 -0.1678  0.0578
 2447W        W 5966   7.178   8.648   1.917 -0.2946 -0.0822  0.2077
 2448W        W 5967   0.028   9.665   1.359  0.4188  0.0508  0.2130
 2449W        W 5968   5.270   8.064   2.452 -0.0286 -0.0193 -0.1660
 2450W        W 5969   5.762   1.036   3.394  0.1015  0.1453  0.4471
 2451W        W 5970   6.897   2.619   0.519  0.3435 -0.0128 -0.2001
 2452W        W 5971   4.104   4.109   1.238 -0.0370  0.4559  0.1856
 2453W        W 5972   8.079   6.425   8.816 -0.0635  0.0715  0.0463
 2454W        W 5973   4.393   6.608   9.511 -0.1273 -0.1840 -0.2462
 2455W        W 5974   0.651   5.943   4.896  0.3919  0.2395 -0.2187
 2456W        W 5975   2.884   4.890   2.164 -0.1959 -0.0057 -0.1232
 2457W        W 5976   8.966   7.579   0.178 -0.0593  0.0719  0.2860
 2458W        W 5977   8.814   4.884  11.445  0.1464 -0.0312 -0.0066
 2459W        W 5978   0.213   9.211   1.845  0.1817  0.0784  0.1851
 2460W        W 5979   6.709   9.241  11.177  0.1411  0.0198  0.1415
 2461W        W 5980   4.086   5.492   0.152 -0.1722  0.0666 -0.0787
 2462W        W 5981   9.726   1.773  11.052 -0.3643 -0.0258 -0.0143
 2463W        W 5982   2.632   0.134   0.898  0.2531 -0.0732 -0.1533
 2464W        W 5983   5.140   3.425   2.324  0.0985  0.0097 -0.0286
 2465W        W 5984   1.106   9.584   1.057  0.0236 -0.1279 -0.1180
 2466W        W 5985   9.250   5.382  11.732  0.1346 -0.2906 -0.0475
 2467W        W 5986   1.389   4.403   9.090 -0.0349 -0.3580 -0.1196
 2468W        W 5987   8.614   8.096   9.442 -0.1019 -0.0488 -0.0985
 2469W        W 5988   7.401   2.389   2.671 -0.3563  0.2952 -0.1561
 2470W        W 5989   4.171   9.147   1.449  0.1086  0.3499 -0.0775
 2471W        W 5990   0.874   4.543   0.034 -0.0484 -0.0017 -0.0343
 2472W        W 5991   7.116   7.163   9.667 -0.1045  0.3642  0.0332
 2473W        W 5992   4.427   4.240   0.826 -0.0860 -0.3191 -0.1136
 2474W        W 5993   5.477   5.139   3.339 -0.0764  0.0888 -0.0838
 2475W        W 5994   1.470   4.924  10.530 -0.1288  0.2511  0.0970
 2476W        W 5995   6.147   0.523  12.225 -0.3977 -0.0097  0.0203
 2477W        W 5996   1.846   7.632   9.630 -0.0019  0.2159 -0.0582
 2478W        W 5997   5.842   4.014  11.942 -0.1740  0.1004  0.0480
 2479W        W 5998   7.225   6.818   8.778  0.0669  0.0857 -0.1163
 2480W        W 5999   5.477   8.973   8.679 -0.3753 -0.0146  0.2106
 2481W        W 6000   4.743   8.069   9.283 -0.0639  0.0624 -0.0074
 2482W        W 6001   8.679   2.032   2.778 -0.1532 -0.4367 -0.0335
 2483W        W 6002   5.993   8.851  11.053 -0.0088  0.2299 -0.1141
 2484W        W 6003   6.826   1.203   9.723 -0.0170 -0.1983  0.0470
 2485W        W 6004   0.425   5.334   9.976 -0.0000 -0.1592 -0.2336
 2486W        W 6005   7.953   7.443  12.407 -0.0385  0.0364  0.1464
 2487W        W 6006   2.016   0.795   2.010 -0.0172 -0.0188 -0.0304
 2488W        W 6007   4.837   9.498   3.232  0.1452  0.1503 -0.2919
 2489W        W 6008   3.254   6.556   1.184  0.0466  0.2789  0.2305
 2490W        W 6009   2.154   8.925   0.507 -0.2135  0.0094  0.1403
 2491W        W 6010   0.269   2.869   2.285  0.0539  0.1493  0.0229
 2492W        W 6011   3.429   0.492   4.044  0.1714 -0.0073  0.1501
 2493W        W 6012   9.453   4.879   4.041 -0.6023  0.1104 -0.1447
 2494W        W 6013   5.853   3.996   9.623  0.2365  0.1338  0.2183
 2495W        W 6014   4.023   2.350  11.818 -0.1793  0.0494  0.2978
 2496W        W 6015   8.424   7.881   1.576  0.0579  0.2182 -0.1211
 2497W        W 6016   0.305   7.243   9.048 -0.0881 -0.0697 -0.0993
 2498W        W 6017   8.622   8.520   0.273 -0.1191  0.1916 -0.2746
 2499W        W 6018   2.285   6.168   8.085 -0.0267  0.1198  0.2005
 2500W        W 6019   8.924   6.650   8.843  0.1648  0.1679 -0.0564
 2501W        W 6020   2.681   2.868  10.617  0.0637  0.0014 -0.0472
 2502W        W 6021   7.146   7.656   0.349 -0.0004  0.0878  0.0101
 2503W        W 6022   2.969   7.906  12.054 -0.0370  0.1948  0.1567
 2504W        W 6023   5.954   2.659   1.943 -0.1806  0.0098 -0.0090
 2505W        W 6024   2.518   7.317   4.241 -0.0542  0.2534  0.0635
 2506W        W 6025   0.891   3.547   8.784  0.0127  0.0402  0.1691
 2507W        W 6026   3.283   8.907   3.376 -0.0000  0.1374 -0.2648
 2508W        W 6027   9.208   6.968  10.905 -0.2079 -0.2864 -0.0659
 2509W        W 6028   1.401   3.441   3.108  0.3365  0.0446 -0.1624
 2510W        W 6029   4.990   9.138  11.535 -0.0101  0.4194 -0.2005
 2511W        W 6030   6.869   3.933  12.408  0.1460  0.0980 -0.3137
 2512W        W 6031   5.605   3.356   3.745  0.0779  0.2391 -0.0363
 2513W        W 6032   7.972   5.077  11.380  0.0086  0.0186 -0.0592
 2514W        W 6033   2.784   1.214  10.962  0.0013  0.4490 -0.0439
 2515W        W 6034   5.933   3.106  11.907 -0.1665 -0.0226 -0.0180
 2516W        W 6035   8.672   9.262   3.580  0.0890 -0.0085  0.3111
 2517W        W 6036   1.899   8.107  10.944 -0.0450  0.1570  0.0221
 2518W        W 6037   1.583   6.204   2.990 -0.1371  0.0424  0.1152
 2519W        W 6038   4.200   5.028  11.544  0.3603  0.0665 -0.0214
 2520W        W 6039   8.279   7.619   2.027  0.1586  0.0170  0.0346
 2521W        W 6040   3.644   7.354  12.371 -0.0015 -0.4116  0.0721
 2522W        W 6041   1.640   0.350   9.022  0.0116 -0.2656 -0.1402
 2523W        W 6042   0.591   3.831   4.136 -0.0528  0.1086 -0.1495
 2524W        W 6043   3.849   3.704  10.929 -0.0282 -0.3099 -0.2078
 2525W        W 6044   1.183   3.673   1.189  0.1867 -0.0159 -0.5210
 2526W        W 6045   1.267   1.229  11.502 -0.2373 -0.0738 -0.5254
 2527W        W 6046   1.918   0.936   3.213  0.3399  0.0512 -0.1739
 2528W        W 6047   4.825   1.417   9.720 -0.2071 -0.2479 -0.1416
 2529W        W 6048   8.181   9.355   3.170 -0.4803  0.0104  0.3530
 2530W        W 6049   7.081   5.502   0.513  0.0898 -0.1615 -0.1143
 2531W        W 6050   3.960   6.844   2.390 -0.1515  0.2783 -0.2392
 2532W        W 6051   1.095   4.220  12.060 -0.0113  0.0122 -0.2605
 2533W        W 6052   1.435   1.095   1.497 -0.1405  0.2815  0.1001
 2534W        W 6053   1.642   8.190   8.289  0.1127  0.1314 -0.0311
 2535W        W 6054   0.727   9.671   0.649  0.0694  0.0921  0.3414
 2536W        W 6055   9.036   5.358  11.282 -0.2193 -0.0665  0.4739
 2537W        W 6056   0.618   0.384   1.816 -0.1868  0.1535 -0.0176
 2538W        W 6057   6.306   5.774   7.670 -0.0816  0.4136 -0.2224
 2539W        W 6058   5.990   7.154  12.247 -0.2489 -0.0170  0.3470
 2540W        W 6059   9.717   4.887  12.094 -0.0029  0.1193  0.1422
 2541W        W 6060   5.928   6.160  12.126 -0.1155 -0.2949 -0.1772
 2542W        W 6061   6.009   9.545   0.035 -0.0258 -0.1654 -0.0288
 2543W        W 6062   3.290   1.860   9.226 -0.2143 -0.1380  0.2663
 2544W        W 6063   7.397   3.483  10.900  0.1279  0.2648 -0.0306
 2545W        W 6064   6.330   0.802   9.840  0.1751  0.2338  0.1998
 2546W        W 6065   1.398   3.450  11.405  0.3475  0.0283  0.0442
 2547W        W 6066   0.511   5.844   9.340  0.1073 -0.1634  0.2226
 2548W        W 6067   1.504   4.904   9.330 -0.1045  0.1730  0.1434
 2549W        W 6068   1.892   4.892   2.486 -0.4244 -0.2187 -0.1403
 2550W        W 6069   3.760   2.104   8.757 -0.0216 -0.3024  0.1409
 2551W        W 6070   4.444   1.308  10.964  0.0531 -0.1893  0.1815
 2552W        W 6071   9.336   8.596   1.918 -0.2161 -0.0861 -0.3054
 2553W        W 6072   7.635   8.442  11.062  0.1674 -0.1440 -0.1031
 2554W        W 6073   4.869   6.774   9.132 -0.2590  0.2554 -0.1385
 2555W        W 6074   3.969   3.108   1.955  0.1287  0.0636  0.2810
 2556W        W 6075   2.264   4.913   9.034 -0.0561 -0.2739 -0.1091
 2557W        W 6076   3.567   1.931   0.436 -0.1452 -0.0267 -0.2266
 2558W        W 6077   3.771   2.162   3.622  0.2439 -0.0614 -0.2172
 2559W        W 6078   3.831   1.137  10.920 -0.2243  0.0690 -0.1267
 2560W        W 6079   3.187   4.735   1.709  0.1744  0.0681  0.1391
 2561W        W 6080   4.410   7.808  10.151  0.0003  0.0664  0.1223
 2562W        W 6081   8.896   8.162   9.843 -0.0541  0.0374 -0.0057
 2563W        W 6082   4.312   0.283   9.939 -0.0857  0.0363 -0.1126
 2564W        W 6083   5.727   9.152  12.038 -0.4642  0.1213  0.1306
 2565W        W 6084   7.398   5.773  12.262 -0.2429  0.0341 -0.1504
 2566W        W 6085   1.851   0.999   3.750  0.0005 -0.0262 -0.0561
 2567W        W 6086   6.354   8.807   2.495 -0.1382  0.1873 -0.1552
 2568W        W 6087   6.807   1.612  10.943 -0.0019 -0.0874 -0.1489
 2569W        W 6088   8.352   2.011  12.060  0.0140 -0.1756  0.0875
 2570W        W 6089   7.382   7.557  11.105 -0.0129  0.0576  0.1163
 2571W        W 6090   0.875   3.070   0.480 -0.2261 -0.2621 -0.0635
 2572W        W 6091   4.866   9.460   0.915 -0.1513  0.1829 -0.1614
 2573W        W 6092   7.870   1.131   0.244  0.1112  0.1746 -0.1383
 2574W        W 6093   4.832   1.387   3.225  0.0658  0.3136  0.2386
 2575W        W 6094   1.463   2.812   8.802  0.0419  0.1269 -0.0721
 2576W        W 6095   4.477   2.781  10.386  0.0832 -0.1670  0.0149
 2577W        W 6096   5.847   5.820   2.861  0.1182  0.0577 -0.0605
 2578W        W 6097   5.995   4.028   0.035  0.1980 -0.1582  0.2385
 2579W        W 6098   2.658   5.306  12.248 -0.1433  0.4587  0.4049
 2580W        W 6099   1.930   8.610   3.015  0.2461  0.3903 -0.1963
 2581W        W 6100   3.347   9.366   9.436 -0.1131 -0.2795 -0.2752
 2582W        W 6101   8.549   6.436   2.634 -0.1464  0.0679 -0.1585
 2583W        W 6102   9.115   7.951  10.822 -0.2339  0.0440 -0.1250
 2584W        W 6103   7.160   3.410   1.473 -0.3109 -0.0776 -0.1966
 2585W        W 6104   7.621   7.863   1.237  0.1908  0.0657 -0.0964
 2586W        W 6105   1.715   3.066  11.223 -0.0043  0.0968 -0.1930
 2587W        W 6106   0.097   0.331  12.108  0.0351  0.1086  0.1531
 2588W        W 6107   3.282   6.708   3.346 -0.1204  0.0318  0.0594
 2589W        W 6108   0.636   8.448  11.131  0.2471  0.1981  0.1640
 2590W        W 6109   8.489   6.382  10.388  0.1305 -0.1132  0.1293
 2591W        W 6110   2.617   7.749  10.015 -0.0724 -0.4638  0.1263
 2592W        W 6111   5.567   1.464  12.173 -0.0875 -0.1282 -0.1279
 2593W        W 6112   8.696   9.027   0.049  0.1547 -0.0973 -0.1500
 2594W        W 6113   2.007   2.288   8.042 -0.3166 -0.1260 -0.0750
 2595W        W 6114   5.163   9.539   1.565 -0.2609 -0.1417  0.0172
 2596W        W 6115   5.994   5.348  11.398 -0.0373 -0.2406  0.1786
 2597W        W 6116   2.809   8.208   3.534 -0.1283  0.1114 -0.0969
 2598W        W 6117   4.081   1.208  10.061 -0.2689 -0.2542 -0.1616
 2599W        W 6118   4.296   4.507  10.313  0.3102  0.2183  0.2869
 2600W        W 6119   3.326   3.646   1.563 -0.0364  0.0847  0.2434
 2601W        W 6120   9.052   4.003   2.702  0.2727 -0.3436 -0.1407
 2602W        W 6121   1.341   9.512  11.399  0.2236 -0.5573  0.2406
 2603W        W 6122   5.393   7.641  10.037 -0.0351  0.0048 -0.0255
 2604W        W 6123   7.624   6.256   9.598  0.1550  0.3774 -0.2521
 2605W        W 6124   6.308   1.197  11.593 -0.1351 -0.1940  0.2655
 2606W        W 6125   9.048   8.302  11.188  0.0177  0.1602  0.3416
 2607W        W 6126   8.664   3.897  11.316 -0.2031 -0.0220 -0.0012
 2608W        W 6127   3.607   3.241   3.797 -0.2280  0.3947  0.0641
 2609W        W 6128   0.335   8.400  12.086 -0.0724 -0.0458 -0.2247
 2610W        W 6129   6.620   4.618  10.814 -0.1869 -0.4159 -0.3501
 2611W        W 6130   5.258   3.066   8.842  0.2060 -0.0852  0.1193
 2612W        W 6131   6.318   9.220   9.177 -0.1644  0.1856  0.3325
 2613W        W 6132   4.709   3.571   2.178 -0.1853  0.1712 -0.4241
 2614W        W 6133   8.233   6.852   9.102  0.2213  0.1800  0.1077
 2615W        W 6134   4.118   6.460   1.589 -0.1564 -0.0509 -0.1421
 2616W        W 6135   7.025   2.255   2.915  0.0197  0.0597 -0.1547
 2617W        W 6136   0.539   2.939   9.956  0.1192 -0.1404 -0.1186
 2618W        W 6137   6.695   2.450   9.532 -0.2121 -0.0283 -0.2064
 2619W        W 6138   3.539   5.836  11.537 -0.1279  0.1313  0.1708
 2620W        W 6139   8.081   0.686   1.630  0.0422  0.0804  0.2277
 2621W        W 6140   8.058   1.855  10.436 -0.0940 -0.0487 -0.3216
 2622W        W 6141   3.361   4.363   8.802 -0.1532 -0.0382 -0.4668
 2623W        W 6142   7.968   8.729   1.813 -0.3226 -0.2561  0.2202
 2624W        W 6143   7.405   0.104   9.694 -0.1543  0.0739 -0.0692
 2625W        W 6144   6.328   5.211  12.340  0.1741 -0.0663 -0.3582
 2626W        W 6145   8.897   1.957  10.704 -0.2430 -0.0766 -0.0151
 2627W        W 6146   3.984   1.773   1.979 -0.0695 -0.0134 -0.3484
 2628W        W 6147   7.367   4.051   0.120  0.2298 -0.1681 -0.1437
 2629W        W 6148   6.751   9.210   2.469  0.0773 -0.2604  0.0375
 2630W        W 6149   7.321   0.766   8.891  0.3336  0.1370 -0.1038
 2631W        W 6150   4.039   8.688   1.134 -0.1245 -0.5035 -0.3581
 2632W        W 6151   7.939   0.922   9.866  0.0986 -0.0449  0.2322
 2633W        W 6152   7.545   1.184   0.621  0.1301 -0.4355  0.2370
 2634W        W 6153   8.118   1.048  11.883 -0.6414 -0.0582  0.5511
 2635W        W 6154   0.750   4.187   2.806 -0.1831  0.1622 -0.0697
 2636W        W 6155   0.420   3.380  11.457 -0.2022  0.1078  0.1889
 2637W        W 6156   6.023   7.488   8.792 -0.0613 -0.0096 -0.1048
 2638W        W 6157   4.828   1.735   8.893 -0.1349  0.0574  0.0632
 2639W        W 6158   8.132   2.144   9.590 -0.0021 -0.2871 -0.1908
 2640W        W 6159   9.307   0.217   2.418 -0.1348 -0.3123  0.2841
 2641W        W 6160   5.397   5.144   0.946  0.3935  0.1803  0.1260
 2642W        W 6161   3.779   3.560  10.442 -0.2039  0.0428  0.0677
 2643W        W 6162   4.029   4.434   2.456  0.1739  0.3252 -0.0218
 2644W        W 6163   4.814   1.299   2.686 -0.2625 -0.1911 -0.0052
 2645W        W 6164   5.740   4.817  11.876 -0.0325 -0.1365  0.1266
 2646W        W 6165   0.072   0.996   2.225  0.0459  0.1861  0.1602
 2647W        W 6166   3.184   2.056  11.878  0.2577  0.1834  0.3089
 2648W        W 6167   1.259   4.249   1.798 -0.0627 -0.1370 -0.1080
 2649W        W 6168   3.689   3.843   8.862  0.3483 -0.4337 -0.1391
 2650W        W 6169   4.972   4.461   2.292 -0.1401  0.1131 -0.0970
 2651W        W 6170   2.586   8.588   1.001  0.0651  0.0435 -0.0750
 2652W        W 6171   7.447   3.177   0.644 -0.2496  0.2290 -0.0030
 2653W        W 6172   4.839   0.319  11.738 -0.2533  0.1249 -0.1355
 2654W        W 6173   7.630   0.454   4.079  0.3108 -0.1950  0.1129
 2655W        W 6174   9.153   4.317   1.558  0.0339  0.0596  0.1301
 2656W        W 6175   6.127   6.856   0.432 -0.3134  0.2865  0.6483
 2657W        W 6176   2.545   6.990   8.227  0.0242  0.2059  0.0039
 2658W        W 6177   9.668   9.363   8.476 -0.0309 -0.0478 -0.0705
 2659W        W 6178   3.832   6.702   8.740  0.1157  0.0750 -0.3376
 2660W        W 6179   4.159   7.856  11.489 -0.0846 -0.3482 -0.1090
 2661W        W 6180   3.682   9.087   1.106 -0.2585 -0.0388 -0.1440
 2662W        W 6181   0.847   5.097   0.559  0.3051 -0.2440  0.2748
 2663W        W 6182   0.731   5.467  11.861  0.2660 -0.1255  0.0273
 2664W        W 6183   9.109   3.695   7.916 -0.0208  0.2609  0.0094
 2665W        W 6184   9.075   4.552   1.105  0.1805  0.2025  0.0485
 2666W        W 6185   2.503   6.705   9.353 -0.0741  0.2462  0.0769
 2667W        W 6186   2.745   6.606   2.485 -0.2472  0.1448 -0.3607
 2668W        W 6187   1.654   2.505   1.521  0.2722 -0.1939  0.3924
 2669W        W 6188   7.330   5.722   2.820  0.3607 -0.0369 -0.2379
 2670W        W 6189   6.435   3.324   9.947  0.2862  0.1130 -0.2256
 2671W        W 6190   2.496   5.733  10.651  0.2322 -0.2705  0.5455
 2672W        W 6191   5.574   8.474   9.751 -0.0909 -0.1916  0.1917
 2673W        W 6192   4.510   6.866   9.979  0.1262  0.1009 -0.0065
 2674W        W 6193   6.597   5.112   2.611 -0.3664 -0.1416  0.0540
 2675W        W 6194   5.945   0.564  11.192 -0.0146  0.5876 -0.0800
 2676W        W 6195   1.167   2.740   0.256 -0.1736  0.0138  0.0201
 2677W        W 6196   3.181   0.321  12.264  0.0073  0.1531  0.4790
 2678W        W 6197   6.004   6.839   1.046 -0.0766  0.2080  0.0957
 2679W        W 6198   3.615   2.590   1.470  0.1147  0.0324 -0.4243
 2680W        W 6199   8.734   8.566   4.169 -0.1598 -0.3342  0.0105
 2681W        W 6200   5.039   9.326   9.480  0.0077  0.0081 -0.2257
 2682W        W 6201   7.643   8.484   9.819  0.3451 -0.0331  0.0351
 2683W        W 6202   7.720   8.302   0.173 -0.0343 -0.1294  0.0693
 2684W        W 6203   0.295   8.907   1.046 -0.0807 -0.0040 -0.0121
 2685W        W 6204   7.193   4.591   9.466  0.0924 -0.2149 -0.0918
 2686W        W 6205   0.019   1.863   3.008 -0.1731 -0.0006 -0.3839
 2687W        W 6206   8.624   3.481   9.444  0.3110 -0.2095 -0.0418
 2688W        W 6207   5.051   8.242   4.617 -0.5688  0.1533 -0.1052
 2689W        W 6208   6.312   8.462   3.447  0.0874  0.2276  0.4601
 2690W        W 6209   0.424   0.017  11.668 -0.3584  0.0600 -0.1870
 2691W        W 6210   6.242   6.785  11.576  0.3130  0.4930  0.2233
 2692W        W 6211   9.162   4.018   8.826  0.1567 -0.0100 -0.0484
 2693W        W 6212   7.513   9.525   2.492 -0.0050  0.0952  0.2983
 2694W        W 6213   2.244   5.918  10.197  0.1529 -0.1590 -0.0217
 2695W        W 6214   3.401   2.300   2.366 -0.0722 -0.4523 -0.0240
 2696W        W 6215   6.312   6.420  11.986  0.0486  0.0471  0.0158
 2697W        W 6216   4.147   2.152   2.689  0.1258 -0.0712  0.0878
 2698W        W 6217   9.494   3.531  10.399  0.2999  0.2427  0.0861
 2699W        W 6218   8.279   3.112   4.027  0.0585 -0.0356 -0.1920
 2700W        W 6219   6.925   4.751   3.743 -0.3105  0.2310  0.0789
 2701W        W 6220   4.500   3.100  10.736 -0.0571  0.1202 -0.0819
 2702W        W 6221   0.499   7.850   0.330  0.1790  0.0752 -0.0688
 2703W        W 6222   1.199   5.121   3.628 -0.2158  0.0901 -0.1827
 2704W        W 6223   2.475   8.062  12.370  0.4824 -0.0159  0.0212
 2705W        W 6224   6.468   1.963  10.687 -0.0681  0.1461 -0.1870
 2706W        W 6225   6.445   8.063   9.566 -0.2659  0.0939 -0.1029
 2707W        W 6226   3.525   3.112  10.796 -0.2911  0.0638 -0.1684
 2708W        W 6227   3.933   3.460  11.353  0.1788 -0.1504 -0.2344
 2709W        W 6228   1.920   6.882   3.588  0.3193  0.0847  0.1205
 2710W        W 6229   1.709   5.861  10.251 -0.3086 -0.1137  0.0553
 2711W        W 6230   5.883   8.845   9.546 -0.2606 -0.1313 -0.4265
 2712W        W 6231   3.240   0.178   2.471 -0.0078  0.0804 -0.1625
 2713W        W 6232   2.752   9.525  10.096  0.1217 -0.3287 -0.1383
 2714W        W 6233   0.770   1.751   0.296 -0.1363 -0.1744  0.2353
 2715W        W 6234   4.089   3.253  10.922  0.1946 -0.1714 -0.1058
 2716W        W 6235   1.596   7.045   1.617  0.0760 -0.1478 -0.0301
 2717W        W 6236   2.050   8.707  10.152 -0.1260  0.0289  0.3531
 2718W        W 6237   7.197   7.029  11.831 -0.1325 -0.1050  0.3767
 2719W        W 6238   9.057   5.940  11.634 -0.0145  0.1299 -0.2806
 2720W        W 6239   7.730   8.329   8.764  0.3075  0.1975  0.2101
 2721W        W 6240   2.327   8.063   2.115 -0.0354 -0.1688  0.1063
 2722W        W 6241   1.280   6.727   9.599  0.0605  0.2999  0.1574
 2723W        W 6242   1.131   6.095   3.781 -0.1837 -0.1842  0.1016
 2724W        W 6243   4.562   8.940   8.825 -0.1794 -0.0213  0.2575
 2725W        W 6244   2.377   6.634   0.272 -0.1695  0.0875  0.1284
 2726W        W 6245   3.733   7.173   7.862  0.0613  0.2425  0.4699
 2727W        W 6246   6.366   2.493   0.733 -0.0928  0.1731  0.0858
 2728W        W 6247   2.217   6.638  12.192  0.0302 -0.0982  0.2456
 2729W        W 6248   3.940   3.577   0.120 -0.0452 -0.1655  0.1869
 2730W        W 6249   5.960   9.653   0.493 -0.0440 -0.1600  0.0559
 2731W        W 6250   8.424   1.407  10.314 -0.3512 -0.1533 -0.0722
 2732W        W 6251   3.325   0.483   1.919  0.0013 -0.0401  0.0871
 2733W        W 6252   7.383   9.631  12.356 -0.0606  0.2458 -0.4317
 2734W        W 6253   8.090   6.910  10.009  0.0472 -0.5018 -0.0093
 2735W        W 6254   0.349   1.031   8.425 -0.0861 -0.0522 -0.0407
 2736W        W 6255   5.060   8.359  10.490 -0.3647  0.0456  0.3379
 2737W        W 6256   1.488   5.518   1.121  0.2336 -0.1693 -0.1398
 2738W        W 6257   9.269   7.853   9.943  0.3730 -0.2062 -0.0540
 2739W        W 6258   4.388   1.832  11.798 -0.0024  0.0480  0.0372
 2740W        W 6259   7.967   1.257  10.566  0.2487 -0.1151  0.0507
 2741W        W 6260   5.605   6.581  11.328  0.0899 -0.1292 -0.0099
 2742W        W 6261   6.466   4.728  12.203  0.1960 -0.0560  0.2399
 2743W        W 6262   3.192   4.802   2.973 -0.2390  0.1418  0.1287
 2744W        W 6263   0.222   1.951  10.381  0.1353  0.2004  0.2852
 2745W        W 6264   3.699   4.032   1.601 -0.1211  0.1144 -0.4436
 2746W        W 6265   1.571   6.210   4.165  0.1602 -0.1034 -0.4583
 2747W        W 6266   6.579   6.697   8.812 -0.0048 -0.1050 -0.0057
 2748W        W 6267   6.407   0.280   3.341 -0.1925 -0.3116  0.2143
 2749W        W 6268   3.458   7.664   2.365  0.1314 -0.0421 -0.2162
 2750W        W 6269   3.345   4.617   2.188  0.1587 -0.1749  0.0582
 2751W        W 6270   1.016   4.135   1.395 -0.2080 -0.1553 -0.0330
 2752W        W 6271   7.043   4.102   2.117 -0.1464 -0.0100 -0.0655
 2753W        W 6272   1.446   8.348   1.476  0.2525 -0.1044 -0.0409
 2754W        W 6273   0.159   3.553   0.298  0.0921  0.0413  0.0610
 2755W        W 6274   0.859   9.700   2.093 -0.0845 -0.3198  0.0475
 2756W        W 6275   4.270   7.351  11.266 -0.1186 -0.2908 -0.1309
 2757W        W 6276   8.064   6.041   9.571 -0.3495  0.1147 -0.0548
 2758W        W 6277   7.695   9.111   9.008 -0.1813 -0.1000 -0.0240
 2759W        W 6278   7.879   6.115  12.284 -0.0257 -0.0704  0.1700
 2760W        W 6279   7.863   5.562   2.981  0.1117 -0.1044  0.1630
 2761W        W 6280   5.685   3.616   0.980 -0.0655  0.1334  0.3457
 2762W        W 6281   2.658   9.181  11.389 -0.2194  0.1536 -0.0062
 2763W        W 6282   2.007   4.731   1.942  0.1422 -0.0170  0.4201
 2764W        W 6283   2.651   2.110   2.921 -0.1747 -0.2023 -0.1578
 2765W        W 6284   7.339   9.691   3.055  0.0290 -0.1513  0.2164
 2766W        W 6285   1.825   9.474  11.612  0.2366  0.0871 -0.3528
 2767W        W 6286   9.615   4.939   1.544 -0.0899 -0.0243  0.3472
 2768W        W 6287   7.073   6.442   9.982  0.2375  0.1793 -0.3445
 2769W        W 6288   4.555   8.397   0.820  0.1410 -0.2405 -0.0281
 2770W        W 6289   9.484   9.132   1.922  0.2163  0.1536 -0.0312
 2771W        W 6290   0.310   6.072   3.579 -0.0510 -0.3906 -0.2140
 2772W        W 6291   5.627   1.237  10.201  0.1569 -0.4849  0.2996
 2773W        W 6292   4.300   5.296  10.804  0.2965  0.2565  0.0354
 2774W        W 6293   8.255   7.581  10.766  0.1379 -0.2975 -0.0505
 2775W        W 6294   9.527   5.582  11.352  0.1192 -0.2604 -0.0391
 2776W        W 6295   2.961   0.264  10.120  0.3267  0.0289 -0.0242
 2777W        W 6296   5.382   7.780   1.956 -0.0499  0.1626 -0.0816
 2778W        W 6297   0.864   8.919   9.123  0.2170  0.1559  0.2626
 2779W        W 6298   7.208   3.233   3.308  0.0119 -0.0398  0.0303
 2780W        W 6299   2.265   0.396   2.830 -0.3797 -0.1142 -0.1066
 2781W        W 6300   6.753   1.215  11.801  0.1337 -0.3093  0.5003
 2782W        W 6301   0.474   1.484   0.809 -0.2789  0.2646  0.0057
 2783W        W 6302   5.663   0.125   0.159 -0.0022 -0.0509 -0.0691
 2784W        W 6303   9.044   5.393   2.944  0.1084  0.2182  0.3685
 2785W        W 6304   9.746   2.590   9.200  0.0870 -0.3234  0.0420
 2786W        W 6305   0.365   4.152   3.724  0.1336 -0.0313 -0.0514
 2787W        W 6306   6.067   3.291   0.900 -0.5503  0.1425  0.0413
 2788W        W 6307   8.771   2.956  11.027 -0.4784  0.3642 -0.0616
 2789W        W 6308   5.458   4.569   8.716  0.0388  0.0919  0.0258
 2790W        W 6309   5.375   2.064   1.258 -0.3003 -0.3319 -0.0689
 2791W        W 6310   3.857   4.517   0.364 -0.2677 -0.0274  0.1025
 2792W        W 6311   0.073   7.169   9.853 -0.3737  0.0232 -0.2484
 2793W        W 6312   4.938   2.579  10.148  0.2746  0.1416  0.0322
 2794W        W 6313   2.042   3.273   3.540  0.0902 -0.3310  0.3445
 2795W        W 6314   2.256   3.471  11.121  0.0510 -0.1491  0.2125
 2796W        W 6315   3.410   0.534  10.290  0.1285 -0.1654  0.1741
 2797W        W 6316   4.832   5.325   8.367 -0.3144  0.0390  0.1880
 2798W        W 6317   8.593   0.638   3.081 -0.1983  0.1801  0.3795
 2799W        W 6318   5.481   0.563   9.481 -0.1301 -0.0842 -0.0389
 2800W        W 6319   4.191   4.687  12.399  0.0543 -0.0543 -0.1105
 2801W        W 6320   4.007   4.535  11.405  0.0880 -0.1868 -0.0113
 2802W        W 6321   4.950   6.867   3.810  0.1153 -0.0454  0.2506
 2803W        W 6322   2.983   9.018   9.242 -0.2199  0.0227 -0.0130
 2804W        W 6323   2.466   9.018   2.039  0.2833 -0.3070 -0.0914
 2805W        W 6324   4.002   1.166   1.344 -0.4627  0.0108 -0.0346
 2806W        W 6325   8.709   6.915   0.043 -0.0102 -0.0304  0.1146
 2807W        W 6326   0.130   1.127  10.840 -0.2124  0.2553 -0.0493
 2808W        W 6327   4.065   7.454   1.900  0.2534 -0.1921 -0.3119
 2809W        W 6328   0.166   2.666   0.134  0.0755  0.3833 -0.1648
 2810W        W 6329   7.948   3.800   9.846 -0.2328 -0.1448 -0.1145
 2811W        W 6330   9.384   8.428   0.781 -0.3260 -0.1388  0.0238
 2812W        W 6331   9.086   3.447   1.458 -0.1424  0.1189 -0.1057
 2813W        W 6332   2.387   7.083   3.444  0.4157  0.2916  0.0524
 2814W        W 6333   2.127   2.288   3.504  0.1559  0.1245  0.3409
 2815W        W 6334   8.737   6.024   2.759 -0.1648 -0.2985 -0.2324
 2816W        W 6335   1.039   5.932   0.234 -0.0932 -0.0742  0.0412
 2817W        W 6336   5.574   6.149   2.471 -0.0567 -0.1355 -0.3012
 2818W        W 6337   9.084   0.733   3.209 -0.2314  0.0919  0.1224
 2819W        W 6338   9.284   4.463   2.647  0.3234 -0.2913 -0.1783
 2820W        W 6339   1.145   3.103   2.414  0.2754  0.0163  0.5194
 2821W        W 6340   9.422   0.200   0.422 -0.3155 -0.3265  0.2417
 2822W        W 6341   8.945   0.996  11.024 -0.3362 -0.3799 -0.1656
 2823W        W 6342   7.614   5.761   9.726 -0.2891  0.1106  0.0140
 2824W        W 6343   4.461   7.468   2.613 -0.2528 -0.1102  0.0888
 2825W        W 6344   3.387   9.677   8.949  0.2127 -0.3916  0.0055
 2826W        W 6345   2.405   8.954   7.914  0.1652 -0.0247  0.1403
 2827W        W 6346   3.881   0.721   2.749 -0.2762  0.0662 -0.0041
 2828W        W 6347   1.489   5.111   1.443  0.1098  0.2221  0.0489
 2829W        W 6348   6.033   2.325  10.968  0.2918  0.0344  0.0563
 2830W        W 6349   2.563   0.101   1.802 -0.2073 -0.1259  0.0674
 2831W        W 6350   4.394   1.931   1.250 -0.2599 -0.0011  0.2419
 2832W        W 6351   4.146   5.457  10.321  0.2047  0.0084 -0.0436
 2833W        W 6352   2.878   3.429   3.275  0.0586 -0.2216  0.2838
 2834W        W 6353   2.925   3.757   9.655  0.1211 -0.4722 -0.3551
 2835W        W 6354   0.403   5.443   9.055  0.3594 -0.0851  0.1616
 2836W        W 6355   5.535   7.769   1.439 -0.1504 -0.1613  0.0503
 2837W        W 6356   1.445   8.823  10.997 -0.2264 -0.4466 -0.0171
 2838W        W 6357   7.198   7.010   8.319 -0.0750  0.1044  0.0461
 2839W        W 6358   3.258   4.581   9.381  0.2872 -0.0721 -0.2753
 2840W        W 6359   8.726   4.875  10.510 -0.2530 -0.1088  0.0065
 2841W        W 6360   9.728   2.301   0.530 -0.1915 -0.0688  0.1490
 2842W        W 6361   7.218   0.173   8.268 -0.3283  0.0269  0.2404
 2843W        W 6362   0.764   5.589   0.447  0.1974  0.1307 -0.0140
 2844W        W 6363   0.513   6.570   2.779  0.0914  0.1909 -0.0755
 2845W        W 6364   2.615   5.904   3.053  0.0013  0.0438 -0.2836
 2846W        W 6365   9.717   4.085   0.292  0.0817  0.1349 -0.1373
 2847W        W 6366   3.622   4.184   2.184  0.0648 -0.1406  0.2547
 2848W        W 6367   6.020   7.632  11.430 -0.0229  0.2671  0.1463
 2849W        W 6368   1.965   8.852  11.494  0.0749 -0.3357  0.1616
 2850W        W 6369   3.297   3.395   9.802 -0.0034  0.2941  0.1538
 2851W        W 6370   1.379   1.699  11.169 -0.1950  0.2029  0.0935
 2852W        W 6371   5.906   4.488   8.813 -0.1505 -0.0741  0.2276
 2853W        W 6372   1.433   6.676   9.146 -0.1938 -0.0078  0.0166
 2854W        W 6373   8.619   3.356   3.316 -0.3224  0.1202  0.0394
 2855W        W 6374   3.634   6.442  12.346 -0.1283  0.1175  0.1019
 2856W        W 6375   7.670   3.680  11.235 -0.1796 -0.2033 -0.2720
 2857W        W 6376   5.752   4.930   0.473 -0.1992  0.1445  0.0417
 2858W        W 6377   5.124   3.758  10.195 -0.1188  0.1579  0.0273
 2859W        W 6378   6.564   6.185   7.558 -0.0033 -0.1276  0.3162
 2860W        W 6379   4.031   9.526   3.640 -0.0258 -0.1695  0.0951
 2861W        W 6380   7.890   0.756  12.206 -0.1624  0.1054 -0.1982
 2862W        W 6381   6.678   8.176   3.385  0.0191  0.1702 -0.1859
 2863W        W 6382   8.607   2.510  11.264  0.0535  0.4277 -0.2224
 2864W        W 6383   9.706   2.323  10.121 -0.0696 -0.2983 -0.4913
 2865W        W 6384   0.420   2.295   9.331 -0.2513  0.0369 -0.1244
 2866W        W 6385   6.807   4.881   3.029  0.1700  0.0940 -0.1797
 2867W        W 6386   2.286   3.032   0.027 -0.0963  0.1777  0.1802
 2868W        W 6387   9.483   6.901   1.835  0.1842  0.3594  0.3398
 2869W        W 6388   2.355   1.211  11.268 -0.2457  0.0282 -0.0773
 2870W        W 6389   8.110   3.127  10.490  0.0903  0.0022 -0.0256
 2871W        W 6390   5.265   4.469   0.184 -0.2553 -0.0598  0.0197
 2872W        W 6391   1.968   6.024   9.768 -0.1066  0.3237  0.0962
 2873W        W 6392   1.031   0.772  11.015  0.1411 -0.2406  0.2664
 2874W        W 6393   3.693   4.678  11.882 -0.1101  0.2386 -0.1781
 2875W        W 6394   0.592   4.737   2.237  0.1495 -0.2319  0.1149
 2876W        W 6395   7.474   2.449   3.889 -0.0649 -0.1260 -0.1399
 2877W        W 6396   9.483   0.374   9.975 -0.1029 -0.1225 -0.2250
 2878W        W 6397   5.372   6.786   4.652 -0.0447 -0.0697 -0.0042
 2879W        W 6398   0.012   1.542   2.157  0.1041 -0.1299  0.1010
 2880W        W 6399   8.813   3.181   9.070  0.1682  0.1942 -0.0723
 2881W        W 6400   0.694   5.248   1.056 -0.2570 -0.0645  0.3172
 2882W        W 6401   2.425   0.107   2.300 -0.2247  0.2416 -0.0055
 2883W        W 6402   0.936   7.757   1.784  0.0667 -0.1456 -0.0252
 2884W        W 6403   3.819   7.758   1.215 -0.0964  0.2407 -0.3706
 2885W        W 6404   7.231   3.819  12.033 -0.0178  0.0539  0.3659
 2886W        W 6405   3.642   2.056  11.119  0.2157 -0.0691 -0.0472
 2887W        W 6406   5.862   8.510   1.068  0.0177 -0.2030  0.1474
 2888W        W 6407   1.418   6.858   1.009  0.1465 -0.3542 -0.0728
 2889W        W 6408   1.815   6.585   1.988  0.0474 -0.0513  0.0380
 2890W        W 6409   7.917   7.430  11.176 -0.1381  0.0164  0.2765
 2891W        W 6410   4.369   2.758  12.236  0.1716 -0.0292 -0.2227
 2892W        W 6411   3.571   8.853   4.320 -0.1687 -0.3385 -0.1022
 2893W        W 6412   2.980   4.440   0.236  0.3365 -0.0734  0.1264
 2894W        W 6413   6.327   7.984   3.082  0.0122 -0.0100 -0.0641
 2895W        W 6414   4.772   0.842   2.486  0.1969 -0.0932 -0.0896
 2896W        W 6415   7.322   6.006   9.275  0.1017  0.0988 -0.0890
 2897W        W 6416   6.789   1.013  10.702  0.3505  0.5031  0.0693
 2898W        W 6417   1.858   0.425   1.365 -0.5490 -0.0668  0.1120
 2899W        W 6418   4.283   8.293   2.954  0.3460 -0.1966 -0.3651
 2900W        W 6419   3.451   7.612  10.779  0.2895  0.0725  0.0750
 2901W        W 6420   8.440   7.062   3.603  0.2083  0.0952  0.0160
 2902W        W 6421   9.606   3.970  11.803 -0.1150 -0.1182 -0.1571
 2903W        W 6422   7.710   3.754   9.304  0.0721 -0.0464 -0.2483
 2904W        W 6423   5.370   8.319  11.454 -0.0042  0.0158  0.0859
 2905W        W 6424   0.489   1.055  10.101 -0.0143 -0.1463 -0.2522
 2906W        W 6425   8.212   3.773   0.710  0.2808 -0.0155  0.1969
 2907W        W 6426   4.852   4.402  10.498  0.1487  0.1054 -0.3956
 2908W        W 6427   7.235   6.169   8.078  0.2967 -0.2950  0.2790
 2909W        W 6428   2.808   3.865   1.617  0.0774  0.1690  0.0052
 2910W        W 6429   7.347   8.422   3.931 -0.0030 -0.2301 -0.1218
 2911W        W 6430   1.088   2.185   4.620  0.2506  0.0566 -0.3330
 2912W        W 6431   9.190   0.211   1.313  0.1508  0.0217  0.0228
 2913W        W 6432   3.143   3.628   9.001  0.1102 -0.0102  0.0611
 2914W        W 6433   6.510   7.529  11.488  0.0337  0.1624 -0.0777
 2915W        W 6434   3.028   3.489   8.543 -0.2140  0.3169  0.0406
 2916W        W 6435   4.284   7.214   2.253 -0.0270 -0.1129  0.0611
 2917W        W 6436   9.721   4.029   2.102  0.0964  0.0577 -0.0217
 2918W        W 6437   8.666   9.343  11.164  0.2637 -0.1562  0.3022
 2919W        W 6438   8.736   1.923   0.154  0.3419  0.2232  0.0330
 2920W        W 6439   0.132   5.111   1.991  0.3353 -0.0611  0.2565
 2921W        W 6440   5.024   0.994  11.559 -0.4047  0.0661  0.0978
 2922W        W 6441   6.019   9.652  11.525 -0.0776 -0.0840  0.0085
 2923W        W 6442   3.795   8.331   1.832  0.0579 -0.0700  0.2877
 2924W        W 6443   7.787   4.322   8.566  0.0264  0.0610 -0.1356
 2925W        W 6444   3.340   5.178  10.955 -0.2143  0.2391 -0.0655
 2926W        W 6445   4.547   4.481   1.940 -0.1164 -0.3779 -0.3095
 2927W        W 6446   3.019   3.433   1.914 -0.1225  0.0482 -0.3411
 2928W        W 6447   1.043   4.136   4.054  0.0544  0.1661  0.0122
 2929W        W 6448   2.828   2.027  11.036 -0.2137  0.3054  0.0317
 2930W        W 6449   0.688   6.474   0.609  0.0970  0.1848 -0.2949
 2931W        W 6450   1.001   9.398  10.429 -0.0538 -0.1509 -0.2764
 2932W        W 6451   3.220   3.591  10.743  0.3375 -0.0023 -0.3388
 2933W        W 6452   3.034   2.423   1.141  0.0274 -0.2055  0.2146
 2934W        W 6453   3.030   2.404   9.484  0.0105 -0.0654 -0.3085
 2935W        W 6454   4.490   3.473  11.352  0.0544 -0.0134 -0.1652
 2936W        W 6455   5.455   5.999   1.287  0.1744 -0.2920  0.0015
 2937W        W 6456   3.821   5.139   2.360 -0.1831 -0.1562 -0.1179
 2938W        W 6457   1.701   6.760  12.070 -0.1217  0.2096 -0.0842
 2939W        W 6458   8.585   5.478   3.127  0.0816  0.0443 -0.2338
 2940W        W 6459   3.457   0.049   3.652  0.0321 -0.1826 -0.2399
 2941W        W 6460   0.076   6.104   1.099 -0.3539 -0.1485  0.0433
 2942W        W 6461   7.348   2.607  11.397 -0.1877  0.3408 -0.1943
 2943W        W 6462   3.384   6.821  10.515 -0.1993  0.1960 -0.1754
 2944W        W 6463   0.729   3.817   3.692  0.1684 -0.1155  0.4399
 2945W        W 6464   3.833   9.537   1.280 -0.0604 -0.1135 -0.1113
 2946W        W 6465   7.145   9.719  11.918  0.2096 -0.0599  0.2622
 2947W        W 6466   8.646   4.399  11.521 -0.3321 -0.2032  0.0179
 2948W        W 6467   3.186   1.305   3.294  0.1874 -0.3263 -0.0841
 2949W        W 6468   8.775   8.093   3.996 -0.2336  0.0249  0.0941
 2950W        W 6469   4.336   5.967   3.694 -0.1891  0.1321 -0.0815
 2951W        W 6470   6.598   8.136  12.174  0.2892  0.2676  0.1535
 2952W        W 6471   7.298   2.270   0.696  0.0467 -0.2533 -0.4630
 2953W        W 6472   3.504   1.306   1.327  0.2451  0.1125  0.1349
 2954W        W 6473   5.182   8.822   9.741  0.0100 -0.1861  0.3308
 2955W        W 6474   9.157   6.581   1.027 -0.1388 -0.0994  0.2340
 2956W        W 6475   3.464   9.116   8.997 -0.3142  0.0204  0.0359
 2957W        W 6476   4.099   3.263  11.858  0.2813 -0.1856  0.2914
 2958W        W 6477   9.331   6.199  12.179  0.1027  0.2412 -0.1435
 2959W        W 6478   8.287   1.374   2.071 -0.0293  0.1994 -0.1584
 2960W        W 6479   0.772   8.699   2.498  0.1250  0.3893  0.0276
 2961W        W 6480   2.807   0.446   2.630  0.0212  0.1568 -0.1936
 2962W        W 6481   7.952   6.076  10.042 -0.2843  0.0408  0.0183
 2963W        W 6482   9.461   7.383   1.830  0.0993  0.2702  0.0962
 2964W        W 6483   3.256   5.528   8.219 -0.2856  0.0956  0.0192
 2965W        W 6484   6.412   0.940   1.457 -0.0158 -0.1470 -0.1735
 2966W        W 6485   7.198   8.346   1.145  0.0529  0.0802 -0.3147
 2967W        W 6486   1.252   8.046   0.474 -0.3935  0.0023 -0.1498
 2968W        W 6487   8.300   1.541  11.773 -0.1550  0.0378 -0.0879
 2969W        W 6488   2.284   6.439  11.333  0.2122 -0.1198  0.2002
 2970W        W 6489   5.225   7.711   4.033  0.0109  0.1584 -0.2256
 2971W        W 6490   8.496   8.329   3.422 -0.1558 -0.3319  0.0897
 2972W        W 6491   5.516   0.840   1.385 -0.2288 -0.0301 -0.0835
 2973W        W 6492   1.167   5.266   0.125 -0.1439  0.3219  0.0501
 2974W        W 6493   6.791   2.401  10.045 -0.1391 -0.1941  0.1804
 2975W        W 6494   6.048   0.879   0.201 -0.0234  0.0625  0.0876
 2976W        W 6495   0.821   6.655  10.996  0.0583 -0.1434 -0.1137
 2977W        W 6496   1.666   4.050   9.273 -0.1100  0.1830  0.2211
 2978W        W 6497   6.668   6.017   1.725 -0.2143 -0.1540  0.1514
 2979W        W 6498   6.714   6.244   3.361 -0.2981  0.1499  0.0998
 2980W        W 6499   4.850   5.287   3.795 -0.1434  0.0015  0.0141
 2981W        W 6500   2.050   1.607   0.395  0.1376 -0.2923 -0.5088
 2982W        W 6501   1.231   5.614   8.658 -0.1733  0.2357 -0.2443
 2983W        W 6502   5.057   6.348   8.942  0.1244 -0.1202  0.1829
 2984W        W 6503   0.416   3.452   0.724  0.0739  0.0540 -0.2016
 2985W        W 6504   8.648   1.381   0.280  0.1825 -0.3640 -0.3189
 2986W        W 6505   7.165   2.291   3.502  0.1306 -0.1547  0.1587
 2987W        W 6506   1.669   2.786   0.360 -0.1589  0.1402  0.2448
 2988W        W 6507   4.304   4.620   0.542 -0.1189 -0.0240  0.2058
 2989W        W 6508   2.271   7.450   3.763  0.0871 -0.1171 -0.0447
 2990W        W 6509   9.473   6.575   4.226  0.0677  0.3631 -0.1678
 2991W        W 6510   4.411   2.021   0.385 -0.2233  0.0056 -0.3517
 2992W        W 6511   0.418   9.387   2.523 -0.0242 -0.0612 -0.0279
 2993W        W 6512   8.131   3.523   9.491  0.2682  0.1316 -0.0311
 2994W        W 6513   9.511   8.689   4.708 -0.0342 -0.0054  0.0504
 2995W        W 6514   5.922   5.263  11.970 -0.1360 -0.0059 -0.3921
 2996W        W 6515   8.721   5.004   3.156  0.0023 -0.2619  0.0413
 2997W        W 6516   7.230   6.013   0.938  0.1959  0.0093 -0.0287
 2998W        W 6517   1.958   3.488   1.728 -0.1404 -0.0308 -0.0356
 2999W        W 6518   5.313   9.321   2.609 -0.1397 -0.2883 -0.2742
 3000W        W 6519   4.084   2.804  11.659  0.0024  0.2419  0.1332
 3001W        W 6520   7.837   1.560   1.681  0.0775  0.1026 -0.0413
 3002W        W 6521   7.871   2.876   0.381 -0.0388  0.0634 -0.1696
 3003W        W 6522   0.102   1.005   1.164 -0.0885  0.0686 -0.0682
 3004W        W 6523   1.989   3.895   1.383 -0.0849 -0.0629  0.0455
 3005W        W 6524   7.517   0.644  10.095 -0.2037  0.1733  0.0030
 3006W        W 6525   1.239   3.707   2.661 -0.0093  0.0433 -0.0933
 3007W        W 6526   1.597   3.527  10.526  0.0861  0.2386 -0.3215
 3008W        W 6527   2.411   8.298   3.095  0.1018 -0.0819 -0.1561
 3009W        W 6528   1.320   9.540  11.879  0.2034  0.1595 -0.1350
 3010W        W 6529   2.986   7.549   2.283  0.0818  0.2554  0.1000
 3011W        W 6530   6.789   6.318   3.913  0.1069 -0.0518 -0.0621
 3012W        W 6531   7.986   8.678   2.839  0.3641 -0.0461  0.0256
 3013W        W 6532   7.059   7.471  11.656 -0.1941 -0.0400 -0.0814
 3014W        W 6533   4.407   3.505   2.606  0.1581  0.0375 -0.2134
 3015W        W 6534   8.304   2.983  10.941 -0.0640  0.2430  0.1799
 3016W        W 6535   0.202   2.152   8.235 -0.0407 -0.1640  0.0426
 3017W        W 6536   3.219   6.200   3.370 -0.0131  0.4007  0.3232
 3018W        W 6537   4.693   5.560   0.995 -0.0443 -0.0665 -0.0367
 3019W        W 6538   5.286   5.891   8.899  0.0223 -0.1672 -0.0329
 3020W        W 6539   6.642   8.255   2.512  0.0618  0.1845 -0.0245
 3021W        W 6540   5.168   2.878   9.364 -0.2184  0.0822 -0.3580
 3022W        W 6541   4.012   1.652   1.407  0.1203  0.1307  0.0612
 3023W        W 6542   0.585   2.576   8.914 -0.1898 -0.0535  0.1023
 3024W        W 6543   1.412   0.734  11.336 -0.0169 -0.0657  0.0288
 3025W        W 6544   0.798   3.046   8.929  0.2285 -0.1407  0.2416
 3026W        W 6545   0.670   0.516   0.698  0.1031 -0.3057 -0.1216
 3027W        W 6546   8.585   0.090  11.189 -0.0613  0.2475  0.3822
 3028W        W 6547   3.250   0.943   8.724  0.3638 -0.2609  0.1188
 3029W        W 6548   7.791   6.139   9.131 -0.4654  0.0677 -0.4817
 3030W        W 6549   4.820   6.692   1.104  0.0512 -0.1291  0.1269
 3031W        W 6550   9.412   1.200   0.871  0.1743  0.0808 -0.2609
 3032W        W 6551   2.696   5.273   2.460 -0.1824 -0.0155  0.0568
 3033W        W 6552   1.644   8.792   9.894 -0.1968  0.2947 -0.1691
 3034W        W 6553   8.295   8.038   3.833  0.1305 -0.4194  0.0300
 3035W        W 6554   5.420   6.212   8.017 -0.2953 -0.1753 -0.1420
 3036W        W 6555   5.526   9.612  11.206  0.1115  0.2108  0.1780
 3037W        W 6556   0.395   3.995  10.507 -0.0102  0.0259  0.2180
 3038W        W 6557   8.774   9.547   1.015  0.0055  0.0566  0.2998
 3039W        W 6558   0.280   0.697   7.164 -0.1996 -0.0745  0.0127
 3040W        W 6559   9.166   7.158   3.166 -0.3178  0.0474 -0.0038
 3041W        W 6560   9.240   4.741   1.847  0.2347 -0.1046 -0.1653
 3042W        W 6561   7.517   6.752   0.301 -0.0884  0.4688  0.2149
 3043W        W 6562   0.486   3.954   3.236 -0.1041  0.0272 -0.1661
 3044W        W 6563   3.955   9.237   3.162  0.0489 -0.0674  0.1021
 3045W        W 6564   0.764   3.875   1.011 -0.0267  0.2775  0.0926
 3046W        W 6565   4.410   0.257  11.335 -0.1258  0.1658 -0.1598
 3047W        W 6566   0.763   9.054   3.360 -0.0605  0.2247 -0.0424
 3048W        W 6567   5.063   5.589   9.999 -0.0091 -0.0779  0.0685
 3049W        W 6568   4.731   8.566   3.073 -0.0156  0.1061 -0.0147
 3050W        W 6569   4.682   4.637   0.897  0.0405  0.0755 -0.1687
 3051W        W 6570   0.452   7.975  10.871 -0.1440  0.0627 -0.5087
 3052W        W 6571   5.583   7.337   1.727  0.2151 -0.3031 -0.0570
 3053W        W 6572   3.650   3.371   9.124 -0.0747  0.1204 -0.0250
 3054W        W 6573   6.124   5.393   1.407 -0.2477  0.2508 -0.1072
 3055W        W 6574   3.268   8.654   8.860 -0.0890 -0.0635 -0.1362
 3056W        W 6575   0.351   4.779   1.743 -0.2155  0.0122 -0.2289
 3057W        W 6576   7.515   2.220   8.801  0.2542 -0.0823  0.1588
 3058W        W 6577   9.111   2.097   2.046 -0.3741 -0.1431  0.1291
 3059W        W 6578   4.190   1.368  11.354 -0.0930 -0.2032 -0.0126
 3060W        W 6579   6.887   9.262   4.034  0.1583  0.1958  0.0303
 3061W        W 6580   6.740   3.834  11.895 -0.0424 -0.1711  0.2450
 3062W        W 6581   7.067   4.489  11.460 -0.2002 -0.0003 -0.0046
 3063W        W 6582   4.549   8.248  10.441  0.0417 -0.0665 -0.0861
 3064W        W 6583   7.807   5.145  12.366  0.0923  0.0011 -0.3471
 3065W        W 6584   8.518   3.937   2.232  0.0968 -0.1283 -0.1212
 3066W        W 6585   3.654   0.998   2.193  0.0303  0.0335 -0.2513
 3067W        W 6586   3.098   8.407   1.649 -0.0332  0.0990 -0.1405
 3068W        W 6587   8.732   1.775  10.290  0.0115 -0.2182  0.0751
 3069W        W 6588   4.175   6.916  11.513 -0.0937 -0.0818  0.0733
 3070W        W 6589   3.042   9.092  11.892 -0.0948 -0.0886  0.4938
 3071W        W 6590   9.584   2.394  11.029 -0.0961 -0.3397  0.5004
 3072W        W 6591   6.072   3.199   9.082 -0.2311 -0.3166 -0.0199
 3073W        W 6592   1.501   2.351  11.128 -0.0852 -0.0344  0.5636
 3074W        W 6593   1.850   4.539   3.933 -0.0316  0.3757 -0.2777
 3075W        W 6594   5.560   6.420   0.376  0.2629 -0.1227  0.2547
 3076W        W 6595   4.722   6.023  10.130 -0.1487  0.0609  0.0193
 3077W        W 6596   7.724   1.995  10.759  0.2351  0.2771 -0.2200
 3078W        W 6597   5.604   7.448  12.376 -0.2395  0.1283 -0.1966
 3079W        W 6598   5.549   6.469   1.584 -0.1065 -0.0389 -0.1640
 3080W        W 6599   2.139   8.993   4.459  0.3051 -0.0962  0.0505
 3081W        W 6600   4.517   1.098   3.462 -0.1305 -0.1644  0.1337
 3082W        W 6601   3.205   4.193   2.906 -0.1312 -0.1588  0.0828
 3083W        W 6602   2.622   8.257   3.954  0.3549  0.2990 -0.0519
 3084W        W 6603   5.936   6.670  12.311 -0.1947  0.0851 -0.3149
 3085W        W 6604   0.872   7.967   9.743  0.0837 -0.0800  0.1355
 3086W        W 6605   3.720   2.282   1.951 -0.0992 -0.0066  0.1954
 3087W        W 6606   8.106   0.199   8.888 -0.3052 -0.1814 -0.3729
 3088W        W 6607   6.585   5.959   2.495 -0.2154  0.0267 -0.1803
 3089W        W 6608   8.944   4.569   0.368  0.4425  0.1609 -0.1154
 3090W        W 6609   6.701   5.179   0.831 -0.1237  0.0039 -0.0833
 3091W        W 6610   7.308   1.696  10.909  0.1513  0.1623 -0.1001
 3092W        W 6611   8.614   6.564   3.692 -0.0277 -0.1524 -0.1294
 3093W        W 6612   2.732   2.120   9.097  0.1004 -0.3907  0.0254
 3094W        W 6613   5.802   2.851  11.517  0.3366  0.3314  0.2311
 3095W        W 6614   6.882   1.707  11.902  0.0731 -0.1118 -0.1944
 3096W        W 6615   6.886   4.341   9.145  0.2044 -0.1915 -0.0923
 3097W        W 6616   8.548   2.308   4.260 -0.0806 -0.0326 -0.1774
 3098W        W 6617   0.544   2.772   3.225 -0.1445  0.3941 -0.1258
 3099W        W 6618   6.347   1.933   0.856 -0.3111 -0.0322  0.0346
 3100W        W 6619   9.395   9.172   7.633 -0.0405 -0.3094  0.4004
 3101W        W 6620   4.574   8.049  12.389 -0.1554  0.1567 -0.1740
 3102W        W 6621   3.257   8.993   1.445  0.2872 -0.0759 -0.3315
 3103W        W 6622   9.654   3.369   0.658  0.2686  0.0727 -0.1131
 3104W        W 6623   0.051   1.659  11.509  0.1590  0.2232 -0.3466
 3105W        W 6624   8.736   9.095  10.634  0.1800 -0.0473  0.1346
 3106W        W 6625   3.655   4.025   3.277  0.0529  0.0232  0.4171
 3107W        W 6626   2.978   1.283   9.714 -0.0197  0.0291 -0.0595
 3108W        W 6627   2.387   3.847   4.042  0.2468  0.0608  0.0220
 3109W        W 6628   8.461   8.878   2.700  0.0556  0.0804 -0.1551
 3110W        W 6629   6.098   4.425  11.493 -0.1105 -0.2659  0.1845
 3111W        W 6630   2.117   7.218  11.938 -0.0490 -0.1446 -0.0029
 3112W        W 6631   5.316   6.888   1.486  0.3232  0.1254  0.0986
 3113W        W 6632   4.159   6.366   2.555  0.3674 -0.1482  0.3292
 3114W        W 6633   4.164   3.973   2.529 -0.0625 -0.0348 -0.2275
 3115W        W 6634   4.223   3.758   4.140 -0.2145 -0.2448  0.2791
 3116W        W 6635   7.685   7.057  10.402  0.2567  0.0796 -0.3235
 3117W        W 6636   0.070   5.165   0.222 -0.2730 -0.1325  0.0445
 3118W        W 6637   5.639   4.446   0.651  0.3044  0.0292  0.0301
 3119W        W 6638   6.973   2.863   1.484 -0.0934 -0.2352 -0.2495
 3120W        W 6639   0.504   9.392   8.618  0.2513 -0.0598 -0.0677
 3121W        W 6640   1.394   4.288   3.798 -0.1589 -0.1760  0.4317
 3122W        W 6641   7.245   7.111  11.305  0.3187 -0.1255  0.1454
 3123W        W 6642   7.383   1.560   1.520 -0.0842 -0.1775  0.2811
 3124W        W 6643   2.569   5.152  11.792  0.2270 -0.2502 -0.3008
 3125W        W 6644   8.689   3.952   9.236  0.1546 -0.0985 -0.3771
 3126W        W 6645   1.279   9.144   2.055  0.0409 -0.1777  0.1297
 3127W        W 6646   2.692   5.491   1.684 -0.0238 -0.0063 -0.3421
 3128W        W 6647   8.292   7.716  10.238  0.1352 -0.1345 -0.0185
 3129W        W 6648   2.311   9.277   4.917 -0.2089 -0.0419  0.0181
 3130W        W 6649   1.952   8.083   3.051  0.1188  0.0107 -0.2293
 3131W        W 6650   3.297   9.347   0.927  0.1260 -0.1625  0.0456
 3132W        W 6651   0.876   9.713  11.577  0.1048  0.1408 -0.1466
 3133W        W 6652   0.608   6.918   0.163 -0.0517  0.0871 -0.1199
 3134W        W 6653   8.104   8.033   1.117 -0.2043  0.0109  0.1791
 3135W        W 6654   7.550   2.333  11.751  0.3044 -0.0889 -0.1977
 3136W        W 6655   7.706   3.291   9.720 -0.0907 -0.2653  0.3601
 3137W        W 6656   8.556   2.061  11.040  0.1413 -0.0867  0.1005
 3138W        W 6657   1.065   6.389  10.569 -0.2694  0.2750 -0.0001
 3139W        W 6658   4.535   2.502   2.482  0.1859 -0.0616  0.0504
 3140W        W 6659   5.013   9.678   2.310 -0.0293 -0.3328  0.0507
 3141W        W 6660   2.593   5.154   0.544 -0.0624  0.0660  0.0060
 3142W        W 6661   2.385   5.956   3.638  0.0292 -0.1292 -0.3983
 3143W        W 6662   3.297   2.015  12.377 -0.2166 -0.1235  0.1088
 3144W        W 6663   1.074   0.719   0.240  0.1848  0.0912  0.1020
 3145W        W 6664   8.177   2.906   3.561 -0.0039  0.2773 -0.1744
 3146W        W 6665   0.284   1.968   2.129  0.2841  0.3873  0.2967
 3147W        W 6666   6.467   4.800   9.255 -0.1216 -0.1357 -0.2663
 3148W        W 6667   5.864   3.657   1.812  0.0250 -0.0687  0.1660
 3149W        W 6668   0.379   7.346   8.318  0.1109  0.0480 -0.0767
 3150W        W 6669   6.065   7.151  10.524  0.1665  0.1279  0.0096
 3151W        W 6670   0.100   8.013  12.397  0.3291  0.0157  0.1020
 3152W        W 6671   4.009   3.757  12.066 -0.0238  0.3281 -0.0329
 3153W        W 6672   8.361   6.637   4.144 -0.1826  0.0424  0.0421
 3154W        W 6673   0.393   4.323   1.912  0.1070  0.1077  0.2297
 3155W        W 6674   2.408   8.554   1.582  0.3213  0.0307  0.2995
 3156W        W 6675   9.482   1.843   0.752  0.3744 -0.1117  0.1990
 3157W        W 6676   0.792   8.234   4.619 -0.0538  0.0812 -0.3052
 3158W        W 6677   8.916   4.076   3.278 -0.0197  0.2237 -0.2116
 3159W        W 6678   4.724   8.135   1.216 -0.0069 -0.3042  0.0955
 3160W        W 6679   3.925   2.184  10.008  0.1552 -0.1962 -0.1535
 3161W        W 6680   9.373   0.510  12.032 -0.3074 -0.1987 -0.0036
 3162W        W 6681   0.212   4.415  12.104 -0.0356 -0.0305 -0.0619
 3163W        W 6682   4.250   0.045   0.663 -0.0072  0.2054  0.3888
 3164W        W 6683   1.034   6.446   4.655 -0.1417 -0.0176  0.0671
 3165W        W 6684   6.683   1.503  10.205  0.2854  0.1054  0.1081
 3166W        W 6685   5.419   4.514   2.708 -0.1270 -0.0893  0.1006
 3167W        W 6686   9.125   0.489   9.058 -0.1602 -0.0766 -0.0658
 3168W        W 6687   5.720   8.047   2.268  0.0872 -0.2771 -0.0079
 3169W        W 6688   6.827   5.848  10.787  0.1212 -0.1076 -0.0244
 3170W        W 6689   7.929   1.190   2.845 -0.2875 -0.1732  0.2850
 3171W        W 6690   0.746   3.658   8.340  0.3051  0.1237 -0.0342
 3172W        W 6691   6.553   2.296   8.864 -0.1701  0.1367 -0.1426
 3173W        W 6692   2.847   4.402   8.395 -0.1440 -0.1166  0.0345
 3174W        W 6693   0.186   8.062   1.440  0.3438  0.0412 -0.3381
 3175W        W 6694   0.638   7.131  10.754  0.1159  0.2527  0.5002
 3176W        W 6695   6.301   2.307   9.311 -0.2675 -0.0859  0.1236
 3177W        W 6696   6.056   8.777   3.683 -0.0581 -0.2932  0.0211
 3178W        W 6697   0.503   2.194   3.833 -0.0944  0.5167 -0.1726
 3179W        W 6698   6.611   2.832   1.874 -0.1303 -0.1227  0.0063
 3180W        W 6699   4.643   3.229   3.595 -0.0050  0.0465  0.0495
 3181W        W 6700   4.587   3.579   9.274  0.0882  0.0861  0.1859
 3182W        W 6701   1.532   4.565   0.902  0.0574 -0.2779 -0.0318
 3183W        W 6702   6.220   8.828   0.753  0.1277  0.0377 -0.1402
 3184W        W 6703   5.404   9.400  11.702  0.0180 -0.0457 -0.0633
 3185W        W 6704   0.790   7.118  10.023 -0.0117 -0.1010 -0.1544
 3186W        W 6705   3.654   8.768  11.418 -0.0451  0.0673  0.1771
 3187W        W 6706   9.300   1.136  10.669 -0.1664 -0.0452  0.0439
 3188W        W 6707   1.435   0.836   3.150 -0.1440  0.4000 -0.0634
 3189W        W 6708   4.503   3.783   1.149  0.0645  0.0425 -0.0275
 3190W        W 6709   4.223   2.704  10.889 -0.2285  0.1355 -0.0778
 3191W        W 6710   5.933   9.033   1.739  0.1178  0.2019 -0.0367
 3192W        W 6711   0.957   7.926   3.959 -0.0026 -0.0183  0.2356
 3193W        W 6712   6.633   3.209   3.376 -0.2176 -0.1229 -0.0521
 3194W        W 6713   8.989   4.122  12.160 -0.1475 -0.0959 -0.0856
 3195W        W 6714   1.357   6.968   3.690  0.4058 -0.1404 -0.1798
 3196W        W 6715   0.877   5.576   2.707 -0.1301  0.0140 -0.0124
 3197W        W 6716   8.864   9.661   2.578 -0.0919  0.1071 -0.2654
 3198W        W 6717   8.830   6.208  12.031 -0.0840  0.2567  0.1672
 3199W        W 6718   7.394   4.422   4.062 -0.0991  0.2040 -0.3157
 3200W        W 6719   7.279   2.657   8.870 -0.0018  0.5378  0.1613
 3201W        W 6720   1.504   6.129   1.802 -0.1434 -0.1785  0.2126
 3202W        W 6721   0.653   4.551  11.789  0.1056  0.1520 -0.1510
 3203W        W 6722   5.785   2.931   2.884 -0.1376 -0.2838 -0.0433
 3204W        W 6723   9.274   0.057  12.186  0.3271 -0.3290 -0.2926
 3205W        W 6724   0.273   3.069   9.090 -0.0802  0.1924 -0.1127
 3206W        W 6725   3.671   5.905   3.393 -0.3668 -0.0913 -0.2573
 3207W        W 6726   0.428   0.967   2.952  0.0045 -0.2237 -0.2279
 3208W        W 6727   7.965   2.949   1.761  0.0863 -0.2457 -0.0452
 3209W        W 6728   9.577   6.370   2.927 -0.1415 -0.0791  0.3590
 3210W        W 6729   1.101   1.138  10.490 -0.1476 -0.1623 -0.1447
 3211W        W 6730   2.963   7.346   1.700 -0.1984  0.0474 -0.1130
 3212W        W 6731   9.145   4.159   0.694  0.2370 -0.1096  0.2119
 3213W        W 6732   2.873   4.683   9.869 -0.0151  0.3301  0.1713
 3214W        W 6733   5.465   1.238  11.723 -0.0716 -0.0597 -0.4126
 3215W        W 6734   5.825   6.146  11.157 -0.1379  0.0702 -0.1038
 3216W        W 6735   0.238   2.723   8.574 -0.2983 -0.2896  0.1081
 3217W        W 6736   0.071   0.346   9.622 -0.2790  0.4551  0.0722
 3218W        W 6737   7.461   2.110   0.226 -0.2507  0.1683 -0.4952
 3219W        W 6738   5.294   6.079   9.930 -0.3119 -0.0390 -0.2601
 3220W        W 6739   2.126   8.568   9.615 -0.1119 -0.0890  0.0367
 3221W        W 6740   8.740   9.154   1.416 -0.4167  0.1812  0.1933
 3222W        W 6741   4.258   8.367   9.591 -0.1409  0.4877 -0.1081
 3223W        W 6742   3.891   8.364   7.759 -0.2206  0.0521 -0.1064
 3224W        W 6743   1.299   9.395   9.518 -0.0517  0.2644  0.0190
 3225W        W 6744   4.985   9.167   1.813  0.3074  0.0024  0.0123
 3226W        W 6745   8.876   8.605   2.665 -0.0699  0.3547  0.0508
 3227W        W 6746   1.078   5.174   2.311  0.2763  0.0963  0.0305
 3228W        W 6747   6.126   1.852  10.341  0.2179  0.2934  0.2257
 3229W        W 6748   6.917   4.648   2.318  0.1458  0.0809 -0.1734
 3230W        W 6749   1.945   2.203  10.947 -0.3644  0.3669  0.1062
 3231W        W 6750   0.213   5.903   4.077 -0.1448  0.1639  0.3176
 3232W        W 6751   4.242   3.941   3.266  0.0393 -0.1765 -0.0812
 3233W        W 6752   7.722   4.867  11.849 -0.4387 -0.1552  0.0152
 3234W        W 6753   2.878   0.317   2.190  0.1924 -0.3003  0.1118
 3235W        W 6754   2.244   1.405   3.722  0.2076 -0.1041  0.1286
 3236W        W 6755   4.344   2.236  12.186  0.0358  0.2212 -0.2913
 3237W        W 6756   8.963   1.187   1.178  0.1106 -0.0057  0.0651
 3238W        W 6757   8.901   4.741   8.022  0.1937  0.1289 -0.2093
 3239W        W 6758   8.117   5.564  11.340  0.2466 -0.1440  0.3375
 3240W        W 6759   5.639   2.051  11.097  0.0538  0.2413  0.1516
 3241W        W 6760   3.927   1.544  11.870 -0.0926  0.1847  0.1433
 3242W        W 6761   7.970   6.805   1.553 -0.0744 -0.2650 -0.1257
 3243W        W 6762   9.024   8.652   9.719 -0.0771  0.2407 -0.2060
 3244W        W 6763   8.595   8.838   8.991 -0.0243 -0.0692  0.0867
 3245W        W 6764   3.123   0.009   1.840 -0.3859  0.3518 -0.2770
 3246W        W 6765   7.179   6.991   3.495 -0.2096  0.0450  0.2578
 3247W        W 6766   2.042   9.365   0.888 -0.1146 -0.0353  0.1639
 3248W        W 6767   0.323   0.826   9.331 -0.0493  0.1954 -0.1926
 3249W        W 6768   2.200   3.651   0.125 -0.4159 -0.4124 -0.0084
 3250W        W 6769   0.996   1.048   1.219  0.1593 -0.0500 -0.3840
 3251W        W 6770   3.419   7.977  11.818 -0.1701 -0.0758  0.2270
 3252W        W 6771   8.323   6.008   9.154  0.0316  0.1304  0.0944
 3253W        W 6772   4.050   9.621   4.441 -0.0166  0.2240  0.2495
 3254W        W 6773   9.527   5.111   9.878 -0.1014  0.0383  0.1302
 3255W        W 6774   4.561   2.293  10.576 -0.1988  0.0277 -0.1213
 3256W        W 6775   1.143   8.368   2.685 -0.0699  0.2254  0.3699
 3257W        W 6776   2.932   5.984  10.607 -0.1396 -0.0279 -0.1296
 3258W        W 6777   0.849   1.610   7.769  0.0328 -0.0216  0.0096
 3259W        W 6778   0.184   8.232   9.845 -0.0859  0.0302 -0.3903
 3260W        W 6779   4.799   8.448   1.724  0.1742 -0.0593  0.1554
 3261W        W 6780   4.524   3.489   9.783  0.1807 -0.1218 -0.0241
 3262W        W 6781   1.196   4.682   1.410  0.2270 -0.1601 -0.0428
 3263W        W 6782   9.059   6.523   0.525 -0.3543  0.0738  0.0688
 3264W        W 6783   3.564   8.345   4.177 -0.2522  0.2966 -0.1548
 3265W        W 6784   1.691   5.290   0.133 -0.0712 -0.0777 -0.2784
 3266W        W 6785   6.842   9.703   0.720 -0.2399  0.1820  0.0979
 3267W        W 6786   8.150   7.770   9.417  0.1888 -0.3644 -0.0279
 3268W        W 6787   2.718   1.400   3.516  0.1922  0.0549 -0.3068
 3269W        W 6788   2.023   1.722   8.140  0.1023  0.0481 -0.0547
 3270W        W 6789   5.545   7.500   3.718  0.1532  0.1059 -0.0218
 3271W        W 6790   6.227   6.317   3.522  0.0813 -0.1906  0.0252
 3272W        W 6791   2.646   0.540  12.407  0.0198 -0.1859 -0.1589
 3273W        W 6792   7.212   5.275   2.089  0.2432 -0.2919  0.3115
 3274W        W 6793   4.484   5.570   7.721  0.1706 -0.0817 -0.1702
 3275W        W 6794   1.840   2.691   3.404  0.0710  0.0486  0.0655
 3276W        W 6795   0.345   7.521   3.282 -0.0776 -0.2625 -0.0652
 3277W        W 6796   0.791   1.246   0.554  0.0107  0.2262  0.2190
 3278W        W 6797   1.306   0.331   1.325 -0.1424 -0.3755  0.0693
 3279W        W 6798   4.331   0.783   4.275 -0.0772 -0.1527  0.0564
 3280W        W 6799   4.571   4.627   2.580  0.0027  0.0311  0.2419
 3281W        W 6800   6.521   1.177   2.739  0.2038  0.2295  0.0985
 3282W        W 6801   6.412   1.366   1.784  0.0169 -0.1353 -0.1493
 3283W        W 6802   6.957   7.751  10.102  0.0693  0.0903  0.0879
 3284W        W 6803   4.352   5.491   8.223  0.2405 -0.1839 -0.1720
 3285W        W 6804   2.857   0.874   0.802  0.0001  0.2448 -0.2802
 3286W        W 6805   1.503   9.426   8.560  0.0004  0.1376 -0.1882
 3287W        W 6806   2.435   5.792  12.304 -0.2263  0.1145 -0.0555
 3288W        W 6807   7.226   0.866   3.346 -0.0183  0.0206  0.3435
 3289W        W 6808   0.674   3.031   1.957  0.1507  0.2085  0.1181
 3290W        W 6809   1.140   8.274   3.694 -0.0290  0.1569  0.1737
 3291W        W 6810   5.402   3.973   0.109 -0.2110  0.4911  0.0351
 3292W        W 6811   6.178   2.853  12.295  0.2625  0.2726  0.2705
 3293W        W 6812   6.741   8.483   0.165  0.4068 -0.0713 -0.0968
 3294W        W 6813   2.387   1.666   0.827  0.2527  0.1644  0.0378
 3295W        W 6814   4.163   8.127   1.114  0.3184 -0.3344 -0.1408
 3296W        W 6815   9.556   5.809  11.980 -0.3567  0.0241  0.2313
 3297W        W 6816   9.637   3.049   2.023  0.0044 -0.0938 -0.1562
 3298W        W 6817   7.740   3.948  12.193 -0.0009 -0.3534  0.0252
 3299W        W 6818   1.118   0.103  10.414  0.0621 -0.0748  0.2452
 3300W        W 6819   7.736   9.123  12.243 -0.2764 -0.0693  0.1647
 3301W        W 6820   5.232   6.998  11.482 -0.3139 -0.0026  0.1651
 3302W        W 6821   1.639   0.812   2.447 -0.1909 -0.2504 -0.2498
 3303W        W 6822   2.261   2.171   0.966  0.0624 -0.0076  0.3360
 3304W        W 6823   7.681   9.066   9.587  0.2478  0.1421  0.0108
 3305W        W 6824   2.540   4.677   3.343 -0.1564 -0.1461 -0.1694
 3306W        W 6825   3.944   1.095   9.615 -0.0094 -0.1928  0.4305
 3307W        W 6826   6.422   5.374  11.746  0.0159 -0.1151 -0.0488
 3308W        W 6827   9.347   3.023   1.593 -0.1427  0.2464  0.4899
 3309W        W 6828   1.778   3.557   9.155  0.1064 -0.3224  0.1189
 3310W        W 6829   7.468   7.447   3.546 -0.3973 -0.0645  0.0612
 3311W        W 6830   4.115   9.195  12.094 -0.0429 -0.1513  0.1501
 3312W        W 6831   0.446   5.103  11.720 -0.0162  0.0310 -0.2571
 3313W        W 6832   0.017   5.445   1.580 -0.1937 -0.2240 -0.5130
 3314W        W 6833   1.134   6.344   2.200  0.0328  0.0631  0.0914
 3315W        W 6834   3.447   6.273   0.855 -0.1100 -0.1011  0.2529
 3316W        W 6835   0.619   0.531   2.829  0.5417 -0.2676 -0.3070
 3317W        W 6836   5.788   5.941   3.762 -0.0713 -0.1172 -0.0819
 3318W        W 6837   1.372   5.686  12.284 -0.0195  0.4822 -0.0373
 3319W        W 6838   1.690   2.700  11.525 -0.0689  0.1955 -0.1836
 3320W        W 6839   8.949   8.594   8.671  0.0995  0.0386  0.1990
 3321W        W 6840   2.920   9.205  10.423  0.1552  0.0321  0.2029
 3322W        W 6841   7.083   4.938   0.549 -0.0317  0.1523 -0.1389
 3323W        W 6842   1.962   3.761   2.154 -0.0381 -0.0585  0.4442
 3324W        W 6843   0.556   9.353   4.131  0.2022 -0.1177  0.0981
 3325W        W 6844   6.914   0.930  12.349  0.0830  0.3501 -0.0683
 3326W        W 6845   2.177   0.464   9.168 -0.0622 -0.0902  0.1133
 3327W        W 6846   7.511   3.879   3.347 -0.0594  0.2559 -0.4487
 3328W        W 6847   9.740   5.175  10.351 -0.1491 -0.3344  0.0778
 3329W        W 6848   9.147   1.395  11.915 -0.1221 -0.0405 -0.1376
 3330W        W 6849   0.058   0.780  11.856 -0.3624  0.2540 -0.1640
 3331W        W 6850   7.068   6.424   8.487  0.0532  0.2277 -0.0962
 3332W        W 6851   8.534   1.714   9.421  0.2034  0.4398  0.2799
 3333W        W 6852   4.704   3.445   1.457 -0.2506  0.3092 -0.1889
 3334W        W 6853   4.220   7.686   3.057  0.2293  0.2637  0.0944
 3335W        W 6854   3.438   6.259   4.232  0.1370 -0.0414 -0.3001
 3336W        W 6855   1.848   5.532   1.556  0.1940  0.1366  0.0395
 3337W        W 6856   5.011   9.138   8.496  0.0240 -0.0757  0.0846
 3338W        W 6857   7.282   5.048  10.138 -0.1189 -0.0078  0.1416
 3339W        W 6858   8.116   2.837  12.375  0.0423 -0.1091 -0.2755
 3340W        W 6859   8.980   2.095   8.913 -0.1502  0.0045 -0.0109
 3341W        W 6860   8.709   4.315   0.839 -0.2483 -0.2585  0.0061
 3342W        W 6861   4.000   8.276   3.811  0.1897  0.0292 -0.2355
 3343W        W 6862   1.664   1.972   1.526 -0.1342 -0.1701 -0.0435
 3344W        W 6863   2.253   9.482   4.163  0.1028 -0.1211 -0.2103
 3345W        W 6864   9.091   7.329  11.238 -0.2916 -0.0520  0.0537
 3346W        W 6865   1.037   1.923   2.822 -0.1529  0.1100  0.1288
 3347W        W 6866   1.272   4.726  11.884  0.0464  0.2477 -0.1603
 3348W        W 6867   7.335   2.583   3.142 -0.1600 -0.0378  0.1915
 3349W        W 6868   7.781   2.259  10.274 -0.1699  0.2962  0.0165
 3350W        W 6869   6.472   7.643  10.819 -0.0936  0.1476 -0.2452
 3351W        W 6870   5.956   7.576   1.339  0.1286  0.1479  0.4682
 3352W        W 6871   0.949   2.128   7.994  0.1386  0.1035  0.0167
 3353W        W 6872   7.575   8.867   2.658  0.0613 -0.0705  0.1366
 3354W        W 6873   6.108   4.371   8.026 -0.1474  0.3016 -0.3855
 3355W        W 6874   4.832   2.572   9.639  0.2764 -0.1820 -0.2578
 3356W        W 6875   7.648   7.433   0.398  0.0878 -0.0771 -0.0769
 3357W        W 6876   8.348   3.958   7.588  0.1185  0.1751 -0.1839
 3358W        W 6877   8.112   0.611   2.126  0.1639 -0.3265  0.0887
 3359W        W 6878   0.918   9.136   9.670 -0.1321 -0.0950 -0.2893
 3360W        W 6879   1.643   2.847   1.123  0.1885  0.0117 -0.4222
 3361W        W 6880   8.478   1.227  11.425  0.2679 -0.0565  0.0583
 3362W        W 6881   0.982   3.833   1.777 -0.0231  0.5222  0.2184
 3363W        W 6882   7.362   8.080  11.236 -0.1126  0.1243  0.0381
 3364W        W 6883   7.435   6.148  10.131  0.2485 -0.2283  0.3444
 3365W        W 6884   2.798   5.500  10.964 -0.1882 -0.0067  0.1149
 3366W        W 6885   3.809   7.047  10.470  0.2203  0.2618 -0.2119
 3367W        W 6886   3.165   9.404   2.626  0.4674  0.0363 -0.3057
 3368W        W 6887   5.083   7.369   3.192  0.2435  0.2611  0.1133
 3369W        W 6888   3.267   3.512   8.107  0.2777  0.0045  0.2027
 3370W        W 6889   9.700   4.726   3.441  0.0951 -0.2017 -0.0263
 3371W        W 6890   1.393   4.114   7.747 -0.0324  0.1474 -0.0845
 3372W        W 6891   8.632   4.646  10.034 -0.4435  0.2352 -0.0932
 3373W        W 6892   0.424   2.484  12.072  0.2141 -0.1791 -0.1193
 3374W        W 6893   8.423   6.551  12.324  0.0419  0.1646  0.3065
 3375W        W 6894   0.016   9.061  10.248 -0.0762 -0.1280  0.1976
 3376W        W 6895   4.170   7.470  11.803 -0.0329  0.2747 -0.0399
 3377W        W 6896   8.441   9.415  12.019 -0.0038  0.1079 -0.0039
 3378W        W 6897   0.466   1.735   3.827 -0.0419  0.3321 -0.3272
 3379W        W 6898   7.107   2.636  10.938 -0.0158 -0.2418 -0.2471
 3380W        W 6899   5.280   4.120  11.281 -0.0506 -0.3051  0.3039
 3381W        W 6900   7.701   4.466   0.071  0.1254  0.2281  0.2005
 3382W        W 6901   6.084   4.459  12.012  0.2309 -0.4162  0.0031
 3383W        W 6902   3.547   9.311   3.595  0.0730  0.2539  0.5022
 3384W        W 6903   1.140   3.117   8.517  0.0129 -0.3509  0.0126
 3385W        W 6904   4.732   4.719  10.111 -0.1724 -0.3819  0.0090
 3386W        W 6905   1.144   2.610   1.582 -0.1386 -0.0308  0.2560
 3387W        W 6906   9.505   6.827   0.468 -0.1288 -0.1414  0.0173
 3388W        W 6907   5.002   5.081   3.171 -0.0631  0.1840  0.0672
 3389W        W 6908   1.238   5.629  11.076  0.1773  0.2408  0.0405
 3390W        W 6909   3.714   3.128   9.677 -0.2004 -0.1100  0.0076
 3391W        W 6910   3.780   3.606   9.955 -0.0558  0.2977 -0.1072
 3392W        W 6911   7.954   1.102   9.341 -0.0958  0.0431 -0.0322
 3393W        W 6912   8.295   3.078   1.332  0.0936 -0.2841 -0.1506
 3394W        W 6913   1.829   4.344  11.214 -0.0388 -0.0427 -0.0552
 3395W        W 6914   4.993   4.490   1.462 -0.0627  0.2519  0.0680
 3396W        W 6915   8.793   3.611   1.002  0.0360 -0.2008 -0.0391
 3397W        W 6916   5.725   7.117   8.532 -0.4033  0.2451  0.0384
 3398W        W 6917   2.401   6.881   3.858  0.0379 -0.0295  0.2031
 3399W        W 6918   6.395   6.966  10.186  0.0159 -0.0844 -0.0777
 3400W        W 6919   0.911   6.090   1.799 -0.0538  0.0623  0.1788
 3401W        W 6920   1.750   6.456   0.971  0.2641  0.0520  0.3446
 3402W        W 6921   0.649   0.885  11.519  0.1306 -0.2310  0.3567
 3403W        W 6922   4.177   9.502   8.581 -0.0023 -0.2749  0.3494
 3404W        W 6923   3.968   5.927   1.734 -0.0349  0.2446 -0.4121
 3405W        W 6924   8.141   1.125   8.439  0.2139 -0.3180 -0.0659
 3406W        W 6925   1.757   2.029   2.016 -0.1517 -0.1973  0.1423
 3407W        W 6926   7.275   8.829   3.125 -0.0646 -0.0099 -0.0883
 3408W        W 6927   3.380   5.944   2.811  0.0365 -0.0202 -0.0429
 3409W        W 6928   9.675   6.070   1.781 -0.1242  0.1766  0.2842
 3410W        W 6929   6.860   5.231  10.576  0.0581 -0.0906  0.1982
 3411W        W 6930   1.137   0.905   2.431  0.2885 -0.2367  0.2075
 3412W        W 6931   1.720   3.571  12.075  0.2501 -0.0784 -0.2522
 3413W        W 6932   7.865   7.384   1.155 -0.0753 -0.3734  0.0123
 3414W        W 6933   4.494   1.425   1.148 -0.5097 -0.0279 -0.4353
 3415W        W 6934   8.100   6.185   2.543  0.0617  0.3095 -0.0970
 3416W        W 6935   3.223   5.294   8.654  0.1802 -0.0219  0.3595
 3417W        W 6936   1.689   8.637   9.102 -0.2566  0.1412  0.2140
 3418W        W 6937   4.523   8.264   8.669  0.1421  0.0746  0.1507
 3419W        W 6938   0.107   9.319   8.982  0.1174  0.4797  0.0573
 3420W        W 6939   9.568   7.995  10.307  0.1230 -0.2193 -0.0904
 3421W        W 6940   2.638   3.001   0.458 -0.0182  0.1023 -0.1577
 3422W        W 6941   4.087   0.241   2.408  0.1234 -0.4150  0.0748
 3423W        W 6942   6.985   7.738   8.838  0.1778  0.2440 -0.2295
 3424W        W 6943   0.613   1.861  11.810 -0.1583  0.1517 -0.2342
 3425W        W 6944   4.137   8.796   3.003  0.0488 -0.0766  0.0153
 3426W        W 6945   2.857   8.023   2.127  0.0550  0.1023  0.0213
 3427W        W 6946   5.210   6.124   0.664 -0.0996 -0.1328  0.0880
 3428W        W 6947   2.672   1.329   0.940 -0.0334  0.0636 -0.1667
 3429W        W 6948   7.421   4.061   1.240 -0.0693  0.1654  0.0674
 3430W        W 6949   1.756   0.518   9.929  0.1086 -0.0180  0.2774
 3431W        W 6950   0.117   4.878   2.977  0.1875  0.0252 -0.0502
 3432W        W 6951   1.078   9.173   0.710  0.1664  0.1081 -0.1356
 3433W        W 6952   0.674   5.757  10.331  0.1032 -0.2359  0.1626
 3434W        W 6953   6.656   3.299   1.328 -0.1328 -0.0528 -0.1045
 3435W        W 6954   5.157   3.390   9.340  0.3500 -0.0830  0.0224
 3436W        W 6955   5.323   3.014   2.726 -0.1951 -0.0068  0.0359
 3437W        W 6956   0.059   4.606   1.036 -0.0818  0.3270  0.3214
 3438W        W 6957   0.368   5.697   2.515 -0.1948  0.1150 -0.0791
 3439W        W 6958   2.315   6.825   2.657  0.2152  0.1243 -0.0757
 3440W        W 6959   7.226   9.018   2.325  0.1999  0.1775  0.3119
 3441W        W 6960   1.849   7.626  12.209 -0.0888  0.0545  0.2292
 3442W        W 6961   9.101   8.289  12.044 -0.0498 -0.1060 -0.4017
 3443W        W 6962   5.834   5.373   0.904 -0.1392  0.5175 -0.0470
 3444W        W 6963   9.256   9.425   2.232 -0.1178 -0.2751 -0.0733
 3445W        W 6964   7.697   8.132   8.099 -0.2344 -0.0988  0.5533
 3446W        W 6965   8.266   7.241   1.604 -0.0283  0.0241  0.1705
 3447W        W 6966   4.426   1.153   9.604 -0.2149 -0.2113 -0.1936
 3448W        W 6967   2.312   2.418   3.943 -0.1427 -0.1737  0.0031
 3449W        W 6968   7.069   8.193   2.107 -0.1447 -0.0856  0.0737
 3450W        W 6969   0.424   4.680   3.719 -0.0447  0.1394 -0.0008
 3451W        W 6970   3.408   8.171  10.821 -0.2861 -0.1248  0.0853
 3452W        W 6971   7.217   9.165  12.260 -0.0881  0.0370 -0.5518
 3453W        W 6972   2.391   4.065   1.767 -0.0342 -0.3237 -0.1513
 3454W        W 6973   7.721   4.488   1.206  0.1226 -0.1674 -0.0060
 3455W        W 6974   7.487   5.506  10.114  0.4287  0.1123 -0.0439
 3456W        W 6975   4.135   4.867   2.034 -0.1496 -0.2096 -0.2126
 3457W        W 6976   0.071   7.671  11.369  0.0394 -0.1464 -0.0313
 3458W        W 6977   3.158   7.615   3.130  0.1630 -0.0382  0.0117
 3459W        W 6978   1.822   6.375   1.490  0.3049  0.0550  0.0286
 3460W        W 6979   7.619   6.740   3.487  0.0488  0.3134 -0.1218
 3461W        W 6980   0.199   0.553   3.115 -0.2423 -0.1152 -0.1991
 3462W        W 6981   6.101   2.094   1.965  0.0266 -0.0227 -0.0471
 3463W        W 6982   6.340   2.983  11.649  0.0611 -0.1919 -0.0168
 3464W        W 6983   7.909   5.231   9.011 -0.0243 -0.2145 -0.1766
 3465W        W 6984   6.606   4.403   1.291 -0.0614 -0.1944 -0.0890
 3466W        W 6985   1.571   9.485   2.910 -0.0322  0.3666  0.2324
 3467W        W 6986   6.188   6.839   3.628  0.3856  0.3722 -0.0049
 3468W        W 6987   5.001   6.022  10.952 -0.3005 -0.1094 -0.3958
 3469W        W 6988   0.937   3.644   9.381 -0.0104 -0.0892  0.0804
 3470W        W 6989   7.698   0.248   9.193 -0.1536 -0.1060 -0.1646
 3471W        W 6990   4.737   4.512   9.360 -0.0306  0.2860 -0.0305
 3472W        W 6991   0.996   0.213   0.274 -0.2840 -0.1457  0.0972
 3473W        W 6992   5.257   1.842   0.796 -0.3108  0.1087  0.0072
 3474W        W 6993   0.576   0.846   0.295 -0.1479  0.0633 -0.1559
 3475W        W 6994   5.283   7.455   2.328 -0.1745  0.1292 -0.1342
 3476W        W 6995   3.763   5.549  12.104 -0.0205  0.1173 -0.3874
 3477W        W 6996   5.724   0.863  10.839 -0.1830  0.1075  0.2740
 3478W        W 6997   1.808   1.740  10.829  0.3364  0.1735 -0.0608
 3479W        W 6998   4.918   3.459   2.784 -0.3241  0.1264 -0.0703
 3480W        W 6999   3.496   8.058   7.637 -0.1523  0.1331 -0.1611
 3481W        W 7000   4.294   2.556   9.679 -0.3253  0.0235 -0.1080
 3482W        W 7001   2.368   7.022  10.106 -0.1702  0.0167 -0.0788
 3483W        W 7002   1.636   5.782   3.918  0.0049 -0.1157  0.0562
 3484W        W 7003   1.425   0.066   8.241  0.2488  0.2120 -0.0606
 3485W        W 7004   2.681   2.403   0.718  0.1434  0.0962 -0.2374
 3486W        W 7005   1.641   3.382   1.293  0.3691 -0.1209  0.2223
 3487W        W 7006   2.574   6.485  11.788  0.1612  0.0344 -0.1171
 3488W        W 7007   2.740   7.056   2.605 -0.0099 -0.0964 -0.1735
 3489W        W 7008   3.613   0.526   2.310 -0.1064 -0.1043  0.2038
 3490W        W 7009   0.172   6.430   3.973 -0.2425 -0.1237 -0.3242
 3491W        W 7010   0.866   1.754   1.543 -0.2013  0.0448 -0.1238
 3492W        W 7011   3.720   5.135   8.678 -0.0334 -0.0067  0.0398
 3493W        W 7012   7.690   4.791   9.321 -0.1169  0.3105  0.2509
 3494W        W 7013   5.499   1.593  10.992 -0.3443  0.0650  0.1653
 3495W        W 7014   6.786   7.858   2.980  0.0589 -0.1622  0.0850
 3496W        W 7015   5.350   1.517   0.445 -0.1335 -0.1783 -0.1236
 3497W        W 7016   0.902   5.736  11.419  0.1207 -0.2460  0.1719
 3498W        W 7017   4.763   0.612  11.339 -0.1395  0.1226 -0.3476
 3499W        W 7018   8.001   9.719   3.987  0.0082 -0.0912 -0.0566
 3500W        W 7019   9.390   6.582  10.492 -0.1440 -0.0051 -0.3235
 3501W        W 7020   1.704   9.150   3.289 -0.2293  0.1857  0.2164
 3502W        W 7021   7.940   3.458   0.156  0.2536  0.1435  0.3170
 3503W        W 7022   3.716   9.627  11.887  0.0388 -0.0778  0.0827
 3504W        W 7023   8.398   7.390   9.847 -0.1892  0.2563 -0.1276
 3505W        W 7024   3.804   3.165   1.047  0.2194 -0.2430  0.3594
 3506W        W 7025   2.279   5.178   2.709  0.0222 -0.3732  0.0887
 3507W        W 7026   2.918   8.974   0.900  0.0128  0.4059  0.2088
 3508W        W 7027   3.491   5.141   0.732  0.0671  0.1563  0.2490
 3509W        W 7028   0.798   2.394   3.495 -0.0837  0.3311  0.0032
 3510W        W 7029   7.513   8.019   9.620 -0.0890  0.1437 -0.2355
 3511W        W 7030   4.621   6.242  11.211 -0.1137 -0.1679  0.4278
 3512W        W 7031   1.418   6.699  10.274 -0.0209 -0.2708 -0.1561
 3513W        W 7032   7.208   3.560  10.452 -0.0268  0.1727  0.2137
 3514W        W 7033   2.838   4.380  11.362  0.3549 -0.0772 -0.1733
 3515W        W 7034   5.741   5.604   4.096 -0.0145  0.2977  0.4350
 3516W        W 7035   7.362   7.905  11.698  0.2006 -0.3544  0.2875
 3517W        W 7036   9.150   4.078  11.590  0.1725 -0.1630 -0.1476
 3518W        W 7037   5.964   6.149   0.213 -0.0227  0.1398  0.1522
 3519W        W 7038   2.179   3.313   0.463  0.3378 -0.1837 -0.0758
 3520W        W 7039   1.773   2.199   4.338  0.4470 -0.2086  0.0771
 3521W        W 7040   7.922   1.598  10.981 -0.1458 -0.0156 -0.0998
 3522W        W 7041   8.295   3.208   2.294  0.3201  0.0245  0.0901
 3523W        W 7042   5.394   1.847   1.721  0.2409 -0.2508 -0.3755
 3524W        W 7043   1.526   9.553   9.051  0.2019  0.1128 -0.1774
 3525W        W 7044   5.489   9.301   8.281 -0.0730  0.1803  0.2279
 3526W        W 7045   6.251   0.950   0.639 -0.2344 -0.1151  0.0395
 3527W        W 7046   8.946   8.229   0.558  0.1783 -0.0839  0.3433
 3528W        W 7047   1.332   0.949   1.999  0.2640  0.0577  0.0542
 3529W        W 7048   5.076   5.715  10.535  0.0185  0.0066 -0.0705
 3530W        W 7049   4.124   5.957   7.824 -0.0477 -0.0990 -0.2215
 3531W        W 7050   5.326   8.828   3.458  0.1637  0.2165 -0.1144
 3532W        W 7051   4.671   0.331   1.733  0.0911  0.0704 -0.1802
 3533W        W 7052   9.665   0.978   2.815  0.1415 -0.1435 -0.0327
 3534W        W 7053   2.357   5.703   4.670  0.0964 -0.1359 -0.4299
 3535W        W 7054   7.447   6.494   9.138 -0.0269 -0.1163 -0.1049
 3536W        W 7055   2.186   7.523   8.794  0.0826 -0.0191 -0.1134
 3537W        W 7056   8.249   5.729   2.642 -0.0716  0.0367  0.1650
 3538W        W 7057   2.823   0.554   3.123  0.1124 -0.1207  0.2974
 3539W        W 7058   2.279   6.344   2.377  0.0772 -0.1253 -0.1264
 3540W        W 7059   4.981   5.427   1.407  0.2793 -0.0846 -0.2422
 3541W        W 7060   0.914   9.598   3.402  0.0020  0.3086  0.0456
 3542W        W 7061   4.725   6.016   0.704 -0.0455 -0.1598 -0.1754
 3543W        W 7062   5.396   9.260   9.101 -0.2602  0.1477  0.0532
 3544W        W 7063   0.358   7.800   2.788  0.2662 -0.1844  0.0597
 3545W        W 7064   9.186   3.175   0.430  0.1953 -0.0865 -0.1154
 3546W        W 7065   6.213   8.210  11.226  0.2725  0.0294 -0.0224
 3547W        W 7066   1.316   3.790  11.773 -0.1892 -0.2689 -0.1731
 3548W        W 7067   4.033   6.787  10.086 -0.1180  0.0131  0.0718
 3549W        W 7068   4.089   1.253   4.319 -0.3765  0.1538 -0.0291
 3550W        W 7069   2.711   7.784  11.432 -0.2927 -0.0633  0.0505
 3551W        W 7070   7.029   5.412   9.816 -0.1152 -0.0183  0.0734
 3552W        W 7071   9.437   4.880  11.561 -0.0905 -0.2352  0.0858
 3553W        W 7072   2.170   6.981  10.609  0.2675  0.0356 -0.2073
 3554W        W 7073   5.608   8.725  10.651  0.0929 -0.1271 -0.0803
 3555W        W 7074   6.429   8.455   2.948  0.2788 -0.1959 -0.2247
 3556W        W 7075   0.753   2.746   2.369 -0.1855 -0.3074 -0.0843
 3557W        W 7076   5.202   5.541  12.331 -0.1088 -0.1036  0.0826
 3558W        W 7077   5.142   7.592   8.165  0.0367  0.0282  0.3701
 3559W        W 7078   8.793   9.124  10.150 -0.1622  0.0837 -0.1077
 3560W        W 7079   6.472   0.307   1.327 -0.0139 -0.0130  0.0162
 3561W        W 7080   7.582   6.370  10.566 -0.0886 -0.4618 -0.0571
 3562W        W 7081   9.625   6.729  10.986  0.2010  0.1567 -0.4434
 3563W        W 7082   1.560   8.071  11.956 -0.0501  0.0431  0.0601
 3564W        W 7083   1.848   4.702   1.352  0.0294 -0.4023 -0.0448
 3565W        W 7084   6.141   1.894  12.273 -0.0147 -0.1012  0.1899
 3566W        W 7085   2.858   5.508   3.764  0.1700  0.0114 -0.1484
 3567W        W 7086   9.137   2.459  11.255 -0.1692 -0.2788 -0.1451
 3568W        W 7087   6.726   6.906   8.380  0.0004 -0.0758  0.1870
 3569W        W 7088   2.715   1.721   0.082  0.2255 -0.0383  0.2564
 3570W        W 7089   2.423   5.436   3.555  0.0135  0.1835 -0.0247
 3571W        W 7090   2.180   0.794  10.109  0.2890  0.0075 -0.0392
 3572W        W 7091   3.009   5.209   1.489  0.2532  0.0046 -0.2258
 3573W        W 7092   4.021   7.084   4.132  0.2233 -0.2477 -0.1487
 3574W        W 7093   0.763   8.806   0.989 -0.2096 -0.0462  0.3163
 3575W        W 7094   6.756   5.833   0.657 -0.2058 -0.0327  0.2368
 3576W        W 7095   8.892   8.508   1.640 -0.0548 -0.0708 -0.1208
 3577W        W 7096   4.558   7.605  10.608 -0.1173 -0.0901 -0.1635
 3578W        W 7097   3.779   7.534   8.973 -0.3703  0.0728 -0.0722
 3579W        W 7098   6.150   4.473   0.127  0.2180 -0.2721 -0.2690
 3580W        W 7099   6.262   4.265   9.928  0.2190 -0.2587  0.1839
 3581W        W 7100   5.920   3.608   3.053 -0.1750  0.0469 -0.0347
 3582W        W 7101   3.343   6.309  10.502 -0.1473 -0.0758 -0.0115
 3583W        W 7102   0.770   2.321   1.201 -0.2567 -0.1468  0.0194
 3584W        W 7103   1.750   9.347   1.882  0.0153  0.1400 -0.0927
 3585W        W 7104   8.189   1.497   9.014 -0.3596  0.1297  0.0434
 3586W        W 7105   6.030   8.956  10.543  0.3445 -0.1318 -0.0089
 3587W        W 7106   8.183   5.227   3.973  0.0889  0.1737  0.4838
 3588W        W 7107   6.369   0.390  11.371  0.0898  0.2470 -0.1259
 3589W        W 7108   5.881   8.349   0.140  0.1228 -0.2741  0.1632
 3590W        W 7109   7.679   2.658   3.501 -0.3315  0.0811 -0.1262
 3591W        W 7110   8.055   6.572   9.443  0.0120  0.1667  0.0041
 3592W        W 7111   9.265   4.241   2.098  0.3355 -0.1412 -0.0972
 3593W        W 7112   5.866   0.126  12.036  0.0136  0.1489  0.1213
 3594W        W 7113   8.140   3.778  11.943  0.0134 -0.3145  0.2529
 3595W        W 7114   4.733   7.608   0.276 -0.1555  0.1333 -0.3155
 3596W        W 7115   7.264   0.993   9.795 -0.0937 -0.0629 -0.0843
 3597W        W 7116   1.384   4.893  10.004 -0.4375 -0.1872  0.0780
 3598W        W 7117   7.327   4.021   8.692 -0.1001  0.1501 -0.0917
 3599W        W 7118   0.015   8.588   2.508 -0.0124  0.1020  0.0121
 3600W        W 7119   6.533   2.060  11.757  0.0649  0.1852  0.0652
 3601W        W 7120   3.716   3.633   2.392 -0.2012  0.1062 -0.0011
 3602W        W 7121   6.979   3.175   1.889 -0.0593  0.0827 -0.0108
 3603W        W 7122   9.282   3.374   3.322 -0.0470 -0.5169 -0.0922
 3604W        W 7123   7.045   7.796  12.221 -0.2686 -0.2438 -0.1454
 3605W        W 7124   8.982   3.706   0.167 -0.0234  0.1669  0.0391
 3606W        W 7125   8.917   9.685   3.674  0.2654 -0.0596  0.0643
 3607W        W 7126   9.630   2.527   3.429  0.0348 -0.0534  0.0195
 3608W        W 7127   2.549   6.884  11.274  0.2589  0.2186  0.1225
 3609W        W 7128   0.586   0.808   1.539 -0.0162 -0.1173  0.0933
 3610W        W 7129   5.242   4.814   0.582 -0.3112  0.2559 -0.2216
 3611W        W 7130   0.728   2.630   0.068 -0.1439  0.0987 -0.2413
 3612W        W 7131   4.878   7.856   2.033 -0.0471  0.0565  0.1404
 3613W        W 7132   8.122   9.401   9.066 -0.0760  0.2872 -0.0696
 3614W        W 7133   9.606   8.035   9.505 -0.1197 -0.0097  0.1662
 3615W        W 7134   5.147   8.376  10.953 -0.4729 -0.1438 -0.2888
 3616W        W 7135   4.973   3.551  12.217  0.1331  0.0069 -0.0247
 3617W        W 7136   0.094   3.832   9.217 -0.0889 -0.2014  0.1030
 3618W        W 7137   1.665   3.435   0.327 -0.3130 -0.1000  0.1021
 3619W        W 7138   8.174   0.457   9.846  0.0217 -0.0137 -0.0383
 3620W        W 7139   1.613   8.204   2.740  0.1197 -0.0806 -0.2717
 3621W        W 7140   2.956   4.026   8.803 -0.0504 -0.1812  0.0252
 3622W        W 7141   9.000   1.602   2.624 -0.2050 -0.2745  0.0316
 3623W        W 7142   9.524   7.055  10.482  0.1050 -0.2769  0.0111
 3624W        W 7143   2.994   5.891  12.237  0.1896 -0.1787  0.0673
 3625W        W 7144   5.830   9.347   2.165 -0.0231  0.0658 -0.2908
 3626W        W 7145   4.704   4.853  11.744  0.1186  0.1320  0.4302
 3627W        W 7146   0.368   6.951  11.221  0.3648  0.0724 -0.0494
 3628W        W 7147   7.215   1.304  12.060 -0.1428 -0.3008  0.0721
 3629W        W 7148   4.280   0.564   1.521  0.3211 -0.0010  0.0977
 3630W        W 7149   6.732   9.731  11.610  0.0324  0.1396  0.0064
 3631W        W 7150   8.883   0.021   2.125 -0.0786  0.3162  0.0791
 3632W        W 7151   1.473   7.365   1.220  0.3127 -0.0568 -0.2160
 3633W        W 7152   1.399   9.014   1.115  0.4525 -0.3162 -0.1339
 3634W        W 7153   9.244   4.823   3.584 -0.4820  0.2803 -0.1862
 3635W        W 7154   7.903   6.990   0.164 -0.2131 -0.0403  0.2132
 3636W        W 7155   1.154   3.442   0.317  0.2036 -0.2869  0.2433
 3637W        W 7156   4.622   1.869   0.836  0.2816  0.2617  0.2446
 3638W        W 7157   1.588   4.725  11.033 -0.2985 -0.3601  0.0382
 3639W        W 7158   3.496   6.081  11.988  0.1046 -0.0188  0.0074
 3640W        W 7159   1.102   3.051  11.575 -0.1421  0.0308  0.0345
 3641W        W 7160   1.023   7.231   3.283 -0.2616 -0.0560 -0.2623
 3642W        W 7161   0.593   4.845  11.300  0.0655  0.1972  0.0149
 3643W        W 7162   3.546   0.697  11.227  0.0514  0.0029  0.2123
 3644W        W 7163   5.131   9.633  10.303  0.0992 -0.1544 -0.0140
 3645W        W 7164   6.354   6.491   3.992 -0.2266 -0.0066 -0.1726
 3646W        W 7165   8.408   5.224   0.814 -0.3396 -0.1197  0.1379
 3647W        W 7166   6.939   4.796   1.087  0.2248  0.1162 -0.2727
 3648W        W 7167   4.153   4.870   2.592 -0.1432  0.2201  0.1201
 3649W        W 7168   0.349   6.750   2.278  0.2404  0.0695  0.0527
 3650W        W 7169   3.119   4.514   3.754 -0.0622 -0.0121  0.3857
 3651W        W 7170   7.232   8.489   9.498  0.0247  0.2691  0.0048
 3652W        W 7171   5.012   5.559   4.675 -0.1994  0.0176 -0.1025
 3653W        W 7172   2.899   3.471  11.395  0.2758  0.1152 -0.1410
 3654W        W 7173   1.666   8.886   2.075 -0.0074  0.0276  0.1473
 3655W        W 7174   2.421   2.090   0.374 -0.0287  0.0470 -0.0388
 3656W        W 7175   5.510   3.260   9.676  0.2172 -0.1989 -0.1286
 3657W        W 7176   8.314   9.505   1.346 -0.1127  0.4593 -0.2307
 3658W        W 7177   1.756   0.551  11.055 -0.0903 -0.5622  0.0206
 3659W        W 7178   6.420   3.452  11.739 -0.2869  0.0951  0.2946
 3660W        W 7179   6.188   2.911  10.057 -0.0997  0.3190 -0.0726
 3661W        W 7180   0.161   2.119  12.331  0.1510  0.1507 -0.2886
 3662W        W 7181   5.529   5.677  10.251 -0.1830 -0.0281 -0.2087
 3663W        W 7182   7.518   5.835   8.390  0.2459 -0.0592  0.1365
 3664W        W 7183   0.400   7.237   2.544 -0.1215  0.0136 -0.2259
 3665W        W 7184   0.368   1.410   3.222  0.0484  0.3339 -0.1756
 3666W        W 7185   6.296   8.101   0.216  0.1912  0.1746 -0.2381
 3667W        W 7186   3.325   0.023   8.392 -0.1249 -0.1922 -0.1099
 3668W        W 7187   4.467   6.622   3.126 -0.1626 -0.0125 -0.1807
 3669W        W 7188   8.796   3.634   8.863  0.0622  0.1113 -0.2452
 3670W        W 7189   1.671   7.652  10.565 -0.1767 -0.2819  0.1695
 3671W        W 7190   7.775   8.074   4.108  0.0446  0.0289  0.2235
 3672W        W 7191   8.437   9.506   4.064  0.3559 -0.0461  0.1598
 3673W        W 7192   0.593   0.599   8.142  0.3172  0.0159  0.0473
 3674W        W 7193   0.933   6.632   3.673  0.0335 -0.1754 -0.2205
 3675W        W 7194   8.046   4.559   2.725  0.0312 -0.2085  0.0800
 3676W        W 7195   7.215   0.673   2.416  0.1074  0.1389 -0.1472
 3677W        W 7196   2.605   7.666   1.917  0.1503  0.0413 -0.0055
 3678W        W 7197   5.771   5.537   8.080 -0.3922 -0.3217  0.1387
 3679W        W 7198   7.659   5.373  11.609  0.2391  0.2314 -0.1347
 3680W        W 7199   1.378   2.991   2.820 -0.1998  0.1882 -0.4373
 3681W        W 7200   1.043   8.469  11.337 -0.0269 -0.1759  0.0267
 3682W        W 7201   9.452   0.102   8.480  0.1626 -0.1227  0.4955
 3683W        W 7202   7.753   3.416   8.070  0.1432 -0.2853 -0.1220
 3684W        W 7203   6.563   6.109   9.153  0.1118 -0.2253  0.4577
 3685W        W 7204   9.213   9.077  10.979 -0.2368 -0.1037  0.0236
 3686W        W 7205   1.399   7.846   3.715  0.1784 -0.0085  0.0867
 3687W        W 7206   0.159   4.322  10.144  0.2222  0.0046 -0.1597
 3688W        W 7207   0.137   5.145  11.341  0.0164  0.0133 -0.3161
 3689W        W 7208   5.831   4.260   2.783  0.2183  0.0873  0.0029
 3690W        W 7209   3.178   1.022   1.768  0.2537  0.1865  0.1178
 3691W        W 7210   6.283   6.682  10.620  0.0327  0.2801  0.1720
 3692W        W 7211   3.697   4.119   4.107 -0.1966  0.4206 -0.0088
 3693W        W 7212   7.226   4.143   2.658 -0.0524 -0.1295  0.2435
 3694W        W 7213   1.326   4.221   2.561  0.0876 -0.0775  0.2401
 3695W        W 7214   1.512   9.393   0.743 -0.1875 -0.1976  0.3385
 3696W        W 7215   2.414   0.908   0.549  0.3103  0.2944  0.1484
 3697W        W 7216   0.719   5.626  10.848  0.0273 -0.1023  0.1666
 3698W        W 7217   0.437   2.562   2.740 -0.0743  0.1331 -0.1143
 3699W        W 7218   2.803   9.338  12.266  0.3074  0.0345 -0.0703
 3700W        W 7219   2.135   0.455   3.460  0.1889 -0.1765  0.0163
 3701W        W 7220   4.316   9.403  10.665  0.0459  0.4097  0.3496
 3702W        W 7221   5.889   8.877   8.043 -0.1366  0.4017  0.0451
 3703W        W 7222   1.159   0.616  10.502  0.0506  0.0211  0.0357
 3704W        W 7223   7.614   8.631  10.362 -0.2698 -0.1242  0.0868
 3705W        W 7224   6.185   3.310   0.345  0.2439  0.2534  0.0579
 3706W        W 7225   1.884   7.341   0.854  0.0131 -0.2752  0.1578
 3707W        W 7226   8.510   3.802   3.242  0.2049 -0.1545 -0.0333
 3708W        W 7227   6.584   5.760   3.310  0.0397  0.0775 -0.1287
 3709W        W 7228   2.304   2.342   2.588  0.0791 -0.0781 -0.3131
 3710W        W 7229   9.700   3.239   2.528  0.0403 -0.0104  0.2816
 3711W        W 7230   5.718   8.449   8.452  0.1314 -0.0277  0.1958
 3712W        W 7231   0.344   0.156  10.818  0.1926  0.3192  0.1539
 3713W        W 7232   3.055   6.806   1.590  0.0689 -0.3656 -0.0282
 3714W        W 7233   3.312   8.868  10.547 -0.1915 -0.1715 -0.0990
 3715W        W 7234   4.765   7.377   2.150  0.2277  0.2545  0.0299
 3716W        W 7235   9.125   7.991   0.976 -0.1832  0.1096 -0.0950
 3717W        W 7236   5.562   3.038   1.112 -0.4532  0.0516  0.1114
 3718W        W 7237   2.290   4.470   1.458  0.1862  0.1092  0.0711
 3719W        W 7238   7.422   4.289  10.553 -0.1131  0.3942  0.3235
 3720W        W 7239   7.646   5.077   2.176  0.0916 -0.2304 -0.0529
 3721W        W 7240   7.483   1.940   1.186 -0.0387  0.0759  0.1015
 3722W        W 7241   2.832   2.024   2.161  0.1605 -0.2047  0.0157
 3723W        W 7242   1.381   1.718   3.606  0.0061 -0.1926  0.0472
 3724W        W 7243   3.142   4.671   4.246 -0.0415 -0.2604  0.1197
 3725W        W 7244   8.007   9.260   1.004 -0.0748  0.2455  0.4558
 3726W        W 7245   5.781   6.838   9.441 -0.0871 -0.0344  0.1051
 3727W        W 7246   6.340   3.608   1.676  0.0454 -0.1761  0.3894
 3728W        W 7247   2.609   2.189   3.369  0.0450  0.1417  0.0184
 3729W        W 7248   8.040   3.637  10.567  0.0099  0.0126 -0.0999
 3730W        W 7249   8.303   1.089   0.605 -0.1891 -0.1314  0.0473
 3731W        W 7250   3.151   6.768  11.272  0.1368 -0.1464 -0.1772
 3732W        W 7251   1.507   0.532   0.375 -0.0195  0.5346  0.2839
 3733W        W 7252   1.419   2.707  10.165  0.3776 -0.3608 -0.0321
 3734W        W 7253   9.663   8.970   3.672  0.1380  0.0863  0.1450
 3735W        W 7254   1.948   0.936   1.287 -0.1590 -0.1046 -0.3646
 3736W        W 7255   5.627   0.504  12.185 -0.1956  0.0203  0.1146
 3737W        W 7256   1.968   6.256   3.669 -0.0439  0.2329  0.1506
 3738W        W 7257   6.448   7.032   0.835  0.1043  0.0481 -0.0409
 3739W        W 7258   6.656   4.055  10.913 -0.1428  0.1662 -0.0261
 3740W        W 7259   6.484   0.911   9.369  0.0600  0.0702 -0.1309
 3741W        W 7260   4.688   6.262   9.269  0.1148  0.0755 -0.3345
 3742W        W 7261   9.635   3.085   0.270  0.0559 -0.0026 -0.0565
 3743W        W 7262   5.678   2.056  12.088  0.1255 -0.1492  0.0527
 3744W        W 7263   8.973   5.036   0.105  0.1052  0.2875  0.1285
 3745W        W 7264   3.782   0.483   9.521 -0.0316 -0.1986  0.1782
 3746W        W 7265   5.048   0.009   2.807 -0.2017 -0.2101  0.2054
 3747W        W 7266   6.490   7.137   0.083 -0.4262 -0.1484 -0.1885
 3748W        W 7267   0.655   8.424  11.656 -0.1554  0.2214  0.0848
 3749W        W 7268   3.168   5.472   0.008  0.1830 -0.3102 -0.1196
 3750W        W 7269   5.825   6.667   2.371  0.0085  0.0736 -0.3906
 3751W        W 7270   4.192   2.252   2.089 -0.2756  0.1064 -0.0510
 3752W        W 7271   8.453   2.170  10.553 -0.0464 -0.2400  0.1087
 3753W        W 7272   5.388   5.377  10.666 -0.0802 -0.0001  0.1741
 3754W        W 7273   0.516   5.284   1.597  0.1567 -0.0523  0.0002
 3755W        W 7274   1.171   9.064  11.308 -0.0068 -0.1785 -0.0972
 3756W        W 7275   9.391   4.980   2.309 -0.0771  0.1750  0.0261
 3757W        W 7276   5.767   3.830  10.934 -0.1721 -0.0495  0.0127
 3758W        W 7277   0.365   2.974   0.435  0.0935 -0.2306 -0.2162
 3759W        W 7278   3.806   8.945   1.749 -0.0321 -0.0240  0.0081
 3760W        W 7279   9.729   2.783  10.098 -0.0768 -0.0103 -0.0595
 3761W        W 7280   0.465   3.861   2.059 -0.0258 -0.1519  0.1204
 3762W        W 7281   7.167   3.060  10.639 -0.1171  0.1729  0.3228
 3763W        W 7282   1.172   8.214   8.017 -0.2101  0.0461  0.2410
 3764W        W 7283   6.332   1.746  11.114  0.0496  0.2345  0.1377
 3765W        W 7284   3.436   1.047   2.740 -0.0407  0.0769 -0.0666
 3766W        W 7285   0.890   1.098   8.740  0.0779 -0.0529  0.1824
 3767W        W 7286   5.196   0.525   2.293  0.0866  0.0883  0.2022
 3768W        W 7287   3.485   2.552   0.201 -0.0643 -0.1754  0.0165
 3769W        W 7288   5.249   1.049   2.321 -0.1647  0.1519  0.4314
 3770W        W 7289   7.690   4.880   2.811  0.3833  0.0493  0.2138
 3771W        W 7290   6.361   6.456   2.214  0.1785  0.1211 -0.0325
 3772W        W 7291   1.932   2.894   3.888  0.0085 -0.2307 -0.0801
 3773W        W 7292   6.327   5.519   0.951  0.0752 -0.1247 -0.1183
 3774W        W 7293   0.965   4.567   2.578 -0.0100  0.1525  0.0945
 3775W        W 7294   2.675   8.626   8.784  0.2730  0.0461  0.4735
 3776W        W 7295   0.105   0.378  11.587 -0.4574  0.1754 -0.0925
 3777W        W 7296   3.036   2.606   8.959  0.0064 -0.3558  0.1183
 3778W        W 7297   8.249   4.497   9.268  0.0144  0.1927  0.0375
 3779W        W 7298   0.108   3.778  11.241  0.2766  0.1301  0.4213
 3780W        W 7299   0.831   5.655  12.325  0.3014  0.1620  0.2216
 3781W        W 7300   3.918   9.028   2.597 -0.0985 -0.1570 -0.1251
 3782W        W 7301   0.075   9.579  12.019  0.2879  0.1001 -0.3050
 3783W        W 7302   1.280   6.168  10.132 -0.0067  0.5966  0.1605
 3784W        W 7303   3.649   3.325  12.185 -0.0805 -0.2636 -0.3227
 3785W        W 7304   6.982   4.330   0.963  0.2064 -0.2507 -0.1438
 3786W        W 7305   7.111   3.838   0.879  0.1358 -0.0189 -0.0945
 3787W        W 7306   7.218   3.571   0.450 -0.1999 -0.0234 -0.0038
 3788W        W 7307   7.740   4.596  11.464 -0.1891  0.0474  0.2356
 3789W        W 7308   5.728   6.989   3.753 -0.2103  0.1455 -0.1967
 3790W        W 7309   0.223   4.294   9.152  0.0300 -0.2608 -0.0778
 3791W        W 7310   0.614   6.983   1.480 -0.0289  0.1442  0.1465
 3792W        W 7311   1.323   3.752   8.952  0.1553  0.1562  0.4753
 3793W        W 7312   9.672   2.819   0.737  0.1809 -0.0956  0.0514
 3794W        W 7313   5.839   2.585  11.926  0.0108  0.3638 -0.1488
 3795W        W 7314   6.828   9.392  12.055  0.1826  0.0380 -0.1522
 3796W        W 7315   5.559   1.358   0.880  0.1745 -0.0771  0.2818
 3797W        W 7316   1.534   6.213   9.678 -0.0808  0.1870  0.2103
 3798W        W 7317   4.249   4.522  10.980 -0.1865 -0.0480 -0.0422
 3799W        W 7318   1.272   7.827  11.569  0.0350  0.0968  0.1809
 3800W        W 7319   9.021   4.368   9.471 -0.2815  0.1862  0.3450
 3801W        W 7320   1.030   5.225   4.123  0.0497 -0.1871  0.0857
 3802W        W 7321   5.213   0.962   0.978  0.0015  0.3706 -0.2550
 3803W        W 7322   6.945   9.475   0.156 -0.1608 -0.1139  0.0344
 3804W        W 7323   9.662   1.316   1.723  0.3969 -0.2693 -0.0324
 3805W        W 7324   3.115   5.000   9.065  0.2539 -0.0538  0.0996
 3806W        W 7325   1.267   3.651   8.437  0.0922 -0.1008 -0.1118
 3807W        W 7326   9.599   0.898   8.339  0.0555 -0.3177  0.0386
 3808W        W 7327   2.030   1.794   3.394  0.0839 -0.0459  0.2372
 3809W        W 7328   8.212   8.259   8.993 -0.0397 -0.1512 -0.0014
 3810W        W 7329   3.979   2.363   4.036  0.0751 -0.2001 -0.0914
 3811W        W 7330   1.969   0.109   3.025  0.1488  0.1876  0.2333
 3812W        W 7331   7.489   6.579   3.936 -0.0540  0.0770  0.1695
 3813W        W 7332   6.691   7.334  10.006 -0.3385  0.0528  0.0080
 3814W        W 7333   8.313   9.650   3.594 -0.1502  0.0419 -0.1155
 3815W        W 7334   2.515   6.001  11.576  0.0452  0.0271 -0.0632
 3816W        W 7335   0.582   1.662   9.208  0.2457 -0.1361  0.0781
 3817W        W 7336   8.646   5.588   3.705  0.3077  0.0075 -0.0044
 3818W        W 7337   7.428   2.631   0.319  0.0852 -0.3815 -0.1759
 3819W        W 7338   1.954   3.710   3.069  0.1611 -0.1509 -0.1033
 3820W        W 7339   8.553   1.766   2.246 -0.0430  0.1529  0.4343
 3821W        W 7340   0.694   6.744  10.375  0.0657 -0.0825 -0.1284
 3822W        W 7341   2.124   9.107   9.827 -0.0624 -0.1217 -0.2577
 3823W        W 7342   0.318   5.832   1.575  0.0232  0.0869 -0.2493
 3824W        W 7343   2.109   3.035  11.591 -0.0950 -0.1449  0.4058
 3825W        W 7344   3.856   7.551  10.438  0.4484 -0.2757  0.0921
 3826W        W 7345   5.534   1.913  11.621  0.0302  0.4083 -0.1401
 3827W        W 7346   2.516   4.495   0.981 -0.0754 -0.2250 -0.0190
 3828W        W 7347   2.295   9.467   2.011 -0.1004  0.0718 -0.2500
 3829W        W 7348   2.017   1.012  10.939  0.0035  0.3328 -0.0754
 3830W        W 7349   2.500   1.952  10.649 -0.1250 -0.2379 -0.2440
 3831W        W 7350   3.003   8.456   9.179 -0.0838 -0.0943  0.1915
 3832W        W 7351   6.709   2.694  11.287  0.1501  0.1511 -0.0331
 3833W        W 7352   7.546   2.690  12.197 -0.3068  0.2192  0.3798
 3834W        W 7353   9.351   8.572   2.815  0.0287 -0.4031  0.1605
 3835W        W 7354   6.812   8.826  12.216 -0.0756  0.1420  0.2583
 3836W        W 7355   9.051   4.304  10.586  0.0482  0.0646  0.3032
 3837W        W 7356   7.945   2.012  11.660  0.1169 -0.0724  0.2853
 3838W        W 7357   2.471   7.667  12.039  0.1689 -0.1420 -0.3979
 3839W        W 7358   7.507   4.173   2.255 -0.0966 -0.0607 -0.1930
 3840W        W 7359   3.730   1.099   9.203 -0.1275 -0.1984 -0.0248
 3841W        W 7360   5.403   2.438   2.675  0.0847  0.2114  0.2225
 3842W        W 7361   4.168   0.164  10.792  0.0023 -0.2725  0.2125
 3843W        W 7362   4.244   9.467   1.034 -0.3183  0.0000 -0.1624
 3844W        W 7363   4.571   7.490   3.454  0.1214 -0.1169  0.0007
 3845W        W 7364   0.503   0.321   0.296 -0.0460  0.1051  0.2667
 3846W        W 7365   7.049   0.875   0.475  0.0084  0.1478  0.1744
 3847W        W 7366   3.587   6.120   7.871 -0.0713  0.2095  0.1265
 3848W        W 7367   7.704   8.348   0.965  0.0144  0.0344 -0.3042
 3849W        W 7368   8.386   0.980  10.102 -0.0998  0.0243 -0.2307
 3850W        W 7369   9.476   4.417  10.881 -0.2692  0.1457 -0.1186
 3851W        W 7370   6.305   3.942  11.673 -0.1481 -0.3341 -0.1590
 3852W        W 7371   6.114   5.636   0.015 -0.0703 -0.2135 -0.0554
 3853W        W 7372   8.200   6.199   4.910 -0.1011  0.0678  0.1316
 3854W        W 7373   6.084   1.118  11.031 -0.2597  0.1407 -0.2368
 3855W        W 7374   8.994   1.148  11.496 -0.0925  0.0775 -0.1781
 3856W        W 7375   5.453   8.820  11.703 -0.0632 -0.2873  0.2480
 3857W        W 7376   1.629   9.572   1.177 -0.1726 -0.0549 -0.1652
 3858W        W 7377   3.413   8.822   9.421 -0.3068 -0.1765 -0.0528
 3859W        W 7378   5.789   9.088   3.386  0.1522  0.3771 -0.0396
 3860W        W 7379   2.565   6.036  11.073  0.1886  0.0643 -0.1826
 3861W        W 7380   0.550   7.078   2.991 -0.1993 -0.0513  0.0572
 3862W        W 7381   3.976   5.797   2.339  0.2650  0.0901  0.3095
 3863W        W 7382   5.834   6.780  10.910  0.1040 -0.1288  0.2246
 3864W        W 7383   2.508   6.348   3.888 -0.0732 -0.0748 -0.1852
 3865W        W 7384   3.180   6.724   2.820  0.5540 -0.0396 -0.2532
 3866W        W 7385   9.433   4.913   1.001 -0.2510  0.5296 -0.4417
 3867W        W 7386   7.569   0.412  11.050 -0.1981 -0.0450  0.1930
 3868W        W 7387   6.422   7.518   3.855 -0.0773  0.0348  0.2950
 3869W        W 7388   3.930   6.417   2.054  0.2608 -0.0602  0.0410
 3870W        W 7389   8.101   4.733  12.191  0.3038  0.0388  0.4284
 3871W        W 7390   5.850   9.117   0.842 -0.1264  0.2435 -0.0448
 3872W        W 7391   2.305   1.255   1.801 -0.0140  0.1497 -0.5118
 3873W        W 7392   0.876   2.005   9.595  0.0773 -0.2136 -0.2134
 3874W        W 7393   2.470   1.891   2.525 -0.2068 -0.1929 -0.0051
 3875W        W 7394   7.960   0.824   3.172  0.0505 -0.1477  0.0926
 3876W        W 7395   9.149   9.685  11.146  0.0367  0.1742 -0.2374
 3877W        W 7396   4.692   1.694  12.170  0.0486 -0.2404 -0.1737
 3878W        W 7397   4.542   0.476  10.780  0.0360  0.0373 -0.1487
 3879W        W 7398   4.133   7.272   3.601 -0.2704 -0.0137  0.0862
 3880W        W 7399   1.650   4.109  11.992  0.0748  0.1229 -0.1327
 3881W        W 7400   2.620   2.679   9.810 -0.0232 -0.1254 -0.0911
 3882W        W 7401   3.570   6.489   8.315  0.1417 -0.1526  0.0212
 3883W        W 7402   8.974   1.083   2.866  0.1904 -0.0815  0.1035
 3884W        W 7403   0.986   3.301   2.816  0.0503  0.2024  0.0075
 3885W        W 7404   4.435   5.336   8.711  0.2224  0.0321 -0.0009
 3886W        W 7405   3.500   8.109   1.457  0.0654 -0.1462  0.1422
 3887W        W 7406   6.216   7.000   2.338 -0.1297  0.0201  0.2538
 3888W        W 7407   7.078   2.268   1.206  0.1036  0.1281  0.0244
 3889W        W 7408   0.587   8.368   9.009  0.1644  0.2769 -0.1054
 3890W        W 7409   8.468   4.811   2.730 -0.2026 -0.0733  0.3616
 3891W        W 7410   6.427   9.593   9.861  0.2849 -0.0377 -0.0847
 3892W        W 7411   5.576   7.468   9.524 -0.1305 -0.1078 -0.0717
 3893W        W 7412   9.599   0.488   1.443  0.0313  0.2873 -0.2000
 3894W        W 7413   0.461   1.176   1.926  0.1697 -0.2731  0.1180
 3895W        W 7414   3.146   3.232  10.383 -0.1871  0.0853  0.2178
 3896W        W 7415   9.506   4.702  10.228  0.2487  0.3584 -0.1033
 3897W        W 7416   6.784   8.662   2.208  0.2107  0.1402  0.2667
 3898W        W 7417   4.159   1.377   9.250  0.1481  0.0286  0.0088
 3899W        W 7418   8.489   5.071   0.323  0.0007  0.0315 -0.3174
 3900W        W 7419   8.966   8.004   1.458  0.0262  0.1295 -0.1054
 3901W        W 7420   8.396   3.164   8.637 -0.0657 -0.5393 -0.3136
 3902W        W 7421   9.512   1.617   9.555  0.0461 -0.1668  0.1718
 3903W        W 7422   3.665   8.320   0.959  0.2530  0.2432 -0.1713
 3904W        W 7423   6.216   9.529  10.640 -0.3739  0.2655 -0.0825
 3905W        W 7424   4.522   9.066   3.101 -0.1623 -0.2197  0.0603
 3906W        W 7425   8.275   6.896  11.273  0.0509  0.0532 -0.1907
 3907W        W 7426   5.165   2.221  11.828  0.0157 -0.2054 -0.0669
 3908W        W 7427   0.810   2.800  12.016  0.0884  0.4213  0.1067
 3909W        W 7428   2.432   5.845   2.608  0.3195  0.1369  0.1383
 3910W        W 7429   2.998   0.691   9.534 -0.0499  0.0483  0.0055
 3911W        W 7430   0.631   3.346   9.699 -0.1658  0.0786  0.1743
 3912W        W 7431   4.153   0.021  12.270 -0.0763 -0.0600 -0.4645
 3913W        W 7432   7.963   0.230  10.679 -0.1923 -0.1664  0.0059
 3914W        W 7433   0.985   7.694   4.933  0.0567 -0.2139 -0.2260
 3915W        W 7434   2.440   1.380   8.566 -0.3917 -0.1511  0.1182
 3916W        W 7435   0.157   0.763   8.017 -0.1213  0.3238 -0.1425
 3917W        W 7436   5.385   0.794   1.883 -0.0020  0.0821 -0.2585
 3918W        W 7437   3.967   7.016   1.342 -0.4703  0.0324  0.1163
 3919W        W 7438   8.912   8.438   9.168  0.0568  0.0134 -0.1838
 3920W        W 7439   8.504   0.849   9.600  0.3352  0.1890  0.1579
 3921W        W 7440   5.885   0.467   1.159  0.1808  0.3687 -0.0508
 3922W        W 7441   9.716   7.502  10.293  0.0169  0.0720  0.0088
 3923W        W 7442   0.031   3.114   9.702 -0.1326  0.1001 -0.0493
 3924W        W 7443   3.778   2.939  11.238  0.1713  0.1458 -0.1308
 3925W        W 7444   8.643   6.792   2.312  0.0080 -0.3940 -0.1146
 3926W        W 7445   7.496   4.013   9.704 -0.0492 -0.0552  0.0147
 3927W        W 7446   0.125   0.158   2.753  0.0947  0.2808 -0.1200
 3928W        W 7447   5.397   8.320   1.305  0.4268 -0.0375 -0.0490
 3929W        W 7448   2.284   4.150   0.743  0.1285 -0.3196 -0.0777
 3930W        W 7449   0.392   8.846   0.033 -0.0864  0.0375  0.1952
 3931W        W 7450   8.055   5.062   8.247 -0.0343  0.0041  0.0965
 3932W        W 7451   1.442   8.361  10.803 -0.2058  0.2297  0.0603
 3933W        W 7452   7.147   7.794   1.395 -0.2557  0.1579  0.2025
 3934W        W 7453   3.967   6.346   4.268  0.2699 -0.0350 -0.1510
 3935W        W 7454   4.913   1.525  11.009  0.1989 -0.2870  0.1277
 3936W        W 7455   1.276   2.200   3.737 -0.0354 -0.2147 -0.0176
 3937W        W 7456   2.431   5.711   0.803 -0.1251 -0.0724 -0.0986
 3938W        W 7457   5.013   2.225   3.181  0.2512 -0.3513 -0.1228
 3939W        W 7458   2.296   6.605   3.377 -0.1884 -0.1697 -0.1867
 3940W        W 7459   8.806   7.425   2.224  0.1238 -0.1142 -0.1388
 3941W        W 7460   4.963   2.246   1.047  0.0838 -0.0877  0.0739
 3942W        W 7461   6.003   4.815   4.385  0.2801 -0.3347 -0.0048
 3943W        W 7462   8.049   5.011   2.491 -0.0751 -0.1568  0.0492
 3944W        W 7463   1.017   5.910  11.922 -0.1956  0.0661 -0.1450
 3945W        W 7464   5.555   6.515   1.078 -0.0428  0.3474 -0.0613
 3946W        W 7465   4.918   6.685   1.726 -0.1228  0.0426  0.4085
 3947W        W 7466   9.521   2.858   8.586  0.2587  0.4795 -0.0728
 3948W        W 7467   6.779   1.054   3.631 -0.0199 -0.4325 -0.2674
 3949W        W 7468   8.151   4.194   3.097  0.4660  0.0533 -0.1410
 3950W        W 7469   0.202   7.964  11.882 -0.0544  0.1195 -0.1723
 3951W        W 7470   9.509   9.197  11.419  0.2539 -0.2740 -0.0460
 3952W        W 7471   6.034   0.057   9.683  0.3211 -0.5413  0.2937
 3953W        W 7472   4.163   7.975  10.598 -0.0030 -0.0227 -0.2761
 3954W        W 7473   0.282   5.314  12.133 -0.2201 -0.1864  0.2333
 3955W        W 7474   2.200   0.402  11.150  0.1520 -0.1614 -0.2332
 3956W        W 7475   5.190   6.500   9.459 -0.0257 -0.0383  0.2724
 3957W        W 7476   7.765   5.824   2.509 -0.1400  0.1182 -0.1376
 3958W        W 7477   1.955   1.010   9.711 -0.0596  0.1920  0.2952
 3959W        W 7478   1.103   7.906  12.034  0.0254  0.1548 -0.0582
 3960W        W 7479   9.683   8.210   4.322 -0.0423  0.0317 -0.2169
 3961W        W 7480   8.299   4.978   9.287  0.3342  0.0239  0.2628
 3962W        W 7481   6.241   6.713   2.715 -0.1499 -0.2267 -0.0329
 3963W        W 7482   0.677   0.554  10.228  0.0168 -0.0229  0.0776
 3964W        W 7483   2.326   7.998   3.521  0.3071  0.0906  0.2367
 3965W        W 7484   7.037   5.379  11.035 -0.1116 -0.1155 -0.0826
 3966W        W 7485   7.445   2.643  10.394 -0.1197  0.0342 -0.2319
 3967W        W 7486   9.087   7.687   1.804  0.0047 -0.0849 -0.2896
 3968W        W 7487   1.309   3.988   9.983 -0.1385  0.0266  0.1858
 3969W        W 7488   0.586   7.837   8.979 -0.1467  0.2025  0.2613
 3970W        W 7489   2.633   0.330   9.284  0.1798  0.1727  0.0327
 3971W        W 7490   8.995   3.612  11.539 -0.3670 -0.0737  0.0366
 3972W        W 7491   6.318   8.282   1.494 -0.0381  0.1766 -0.3068
 3973W        W 7492   3.368   6.437   0.380 -0.0462 -0.0973  0.0385
 3974W        W 7493   6.086   3.280   2.498 -0.3715  0.2111 -0.0598
 3975W        W 7494   0.736   1.506   9.942 -0.1596 -0.4315 -0.1113
 3976W        W 7495   1.637   6.919  11.592  0.0335  0.1871 -0.1487
 3977W        W 7496   4.505   0.528   9.078 -0.2752  0.0829 -0.0053
 3978W        W 7497   8.253   9.259  10.091  0.1623  0.0946  0.1198
 3979W        W 7498   9.394   7.569   9.568  0.1690  0.0594  0.0397
 3980W        W 7499   1.463   5.774   9.237 -0.2089  0.1157  0.2322
 3981W        W 7500   7.566   4.812   3.580  0.2606  0.0093 -0.5362
 3982W        W 7501   5.507   9.216  10.509 -0.1193 -0.1471 -0.0186
 3983W        W 7502   2.835   9.608   9.147  0.2148 -0.2712  0.0847
 3984W        W 7503   4.084   4.147   2.016  0.2524  0.0695 -0.1577
 3985W        W 7504   8.038   0.811   3.936 -0.1002 -0.1937 -0.0738
 3986W        W 7505   5.025   8.381   0.808  0.0048  0.0169 -0.1088
 3987W        W 7506   5.812   5.984   1.668 -0.1879 -0.0433 -0.3390
 3988W        W 7507   6.282   9.365   0.842 -0.1161  0.2805  0.0568
 3989W        W 7508   4.199   0.022  11.712 -0.0425  0.1799 -0.1680
 3990W        W 7509   3.148   9.139   0.284 -0.1089  0.1186 -0.2006
 3991W        W 7510   8.445   9.551  10.493  0.1674  0.0293 -0.2420
 3992W        W 7511   4.074   9.518  11.234  0.1407 -0.0160 -0.1618
 3993W        W 7512   3.493   1.877   3.333  0.2083 -0.1780 -0.1109
 3994W        W 7513   4.397   5.822   9.086  0.2484  0.0669  0.1990
 3995W        W 7514   0.473   2.430   2.136  0.3107  0.2149  0.2659
 3996W        W 7515   2.124   4.364   0.236 -0.1255 -0.0911 -0.1518
 3997W        W 7516   9.420   4.427  11.844  0.4030  0.0395 -0.1249
 3998W        W 7517   4.408   1.009   0.394 -0.3399  0.0029 -0.0701
 3999W        W 7518   2.308   1.443  12.304  0.2209  0.0205  0.0067
 4000W        W 7519   6.830   7.773  11.146 -0.1007  0.0777 -0.1300
 4001W        W 7520   7.111   4.819   4.228  0.0763  0.1917  0.0831
 4002W        W 7521   1.127   4.718   2.143 -0.1565 -0.0614  0.1984
 4003W        W 7522   2.721   9.503  11.760  0.2729  0.0436  0.2079
 4004W        W 7523   7.541   9.267   0.241  0.0245 -0.1139 -0.3933
 4005W        W 7524   6.672   9.045   0.310 -0.2384 -0.4159  0.1135
 4006W        W 7525   1.860   2.069   8.467  0.0037 -0.1330  0.1623
 4007W        W 7526   6.773   0.914  11.404 -0.1563 -0.2462 -0.2182
 4008W        W 7527   2.638   3.372  10.437  0.0050  0.0057 -0.1771
 4009W        W 7528   0.690   0.945  10.572  0.1425  0.1164 -0.0569
 4010W        W 7529   9.181   7.211   9.289  0.1319 -0.0929 -0.0757
 4011W        W 7530   8.057   8.274  11.278 -0.2781  0.2992  0.1538
 4012W        W 7531   2.737   0.598  11.946 -0.1329 -0.0768  0.4768
 4013W        W 7532   3.004   3.920   3.364  0.0436 -0.0128  0.0283
 4014W        W 7533   7.220   7.131   4.959  0.2122 -0.2093 -0.2304
 4015W        W 7534   4.062   4.884  10.562  0.3651 -0.2237  0.2487
 4016W        W 7535   6.815   6.307   0.838  0.1578  0.0393  0.0323
 4017W        W 7536   5.282   0.050  11.972  0.2721  0.1934 -0.0821
 4018W        W 7537   1.121   6.372   0.410 -0.0858 -0.1845 -0.2200
 4019W        W 7538   4.294   2.920   0.847 -0.0205 -0.0063  0.0700
 4020W        W 7539   2.386   0.304  11.788  0.2448 -0.2408 -0.1760
 4021W        W 7540   9.694   7.171   3.361  0.2190 -0.1264 -0.1622
 4022W        W 7541   0.669   8.707   0.452 -0.2062 -0.3522  0.1035
 4023W        W 7542   1.701   6.561   3.323 -0.0587 -0.1451 -0.0183
 4024W        W 7543   6.533   6.156  10.369 -0.1072 -0.2733  0.0708
 4025W        W 7544   6.402   4.015   0.342 -0.0807  0.0165 -0.2482
 4026W        W 7545   4.034   8.132  12.400  0.3656 -0.0129  0.0117
 4027W        W 7546   8.475   0.839  11.115 -0.3115 -0.2287  0.4489
 4028W        W 7547   6.209   7.093   8.529  0.0451 -0.1654  0.1690
 4029W        W 7548   1.087   0.779   0.832  0.1262  0.2852 -0.0081
 4030W        W 7549   0.390   0.691   2.106 -0.1709  0.2058  0.0190
 4031W        W 7550   3.298   8.955   3.871  0.0288  0.1479 -0.2500
 4032W        W 7551   8.564   7.896   0.401 -0.1031 -0.1822 -0.0068
 4033W        W 7552   6.460   5.406   9.677 -0.0016 -0.2837 -0.1286
 4034W        W 7553   5.907   7.866   0.443  0.3198 -0.1052  0.0620
 4035W        W 7554   4.216   8.534   0.217 -0.3840  0.2921 -0.1735
 4036W        W 7555   9.282   7.778  11.284 -0.1662  0.0687  0.3050
 4037W        W 7556   1.547   8.962   8.327  0.1732 -0.1394  0.1542
 4038W        W 7557   7.733   2.899  10.066  0.1567  0.0499  0.1737
 4039W        W 7558   5.623   6.008   9.379  0.3828 -0.0365 -0.0092
 4040W        W 7559   8.565   0.385   2.576  0.0788  0.2264 -0.3341
 4041W        W 7560   5.730   8.595   3.345 -0.0732  0.0553 -0.1182
 4042W        W 7561   6.990   6.331   9.019 -0.2666  0.1548  0.0450
 4043W        W 7562   0.113   1.208   9.805 -0.0592 -0.3431 -0.0285
 4044W        W 7563   5.879   8.318   3.794 -0.1070  0.0915  0.1148
 4045W        W 7564   7.938   5.966  11.634 -0.0653 -0.1646 -0.0395
 4046W        W 7565   3.743   1.345   1.861 -0.0133  0.1937  0.0933
 4047W        W 7566   3.753   8.522   2.755  0.1764 -0.0133  0.3608
 4048W        W 7567   5.842   3.779   2.574 -0.1099  0.1588 -0.3192
 4049W        W 7568   8.008   5.581   0.833 -0.0421  0.2905  0.1469
 4050W        W 7569   0.976   1.259  11.065  0.3295 -0.1070 -0.0918
 4051W        W 7570   2.496   7.374  10.968  0.1547  0.2818  0.0452
 4052W        W 7571   5.456   3.338   1.944 -0.1628  0.1907  0.0963
 4053W        W 7572   9.438   5.684  10.470 -0.0242 -0.4628 -0.4654
 4054W        W 7573   0.415   1.936  11.329 -0.2468  0.2640 -0.0208
 4055W        W 7574   7.502   3.002   1.986  0.0331  0.0992 -0.3828
 4056W        W 7575   3.125   4.062   2.403 -0.2066 -0.1301 -0.1067
 4057W        W 7576   0.383   4.462   1.372  0.1915 -0.1313 -0.1831
 4058W        W 7577   5.742   1.140   2.852 -0.1929  0.1316  0.0542
 4059W        W 7578   0.550   0.957   0.988  0.1535 -0.3301 -0.2907
 4060W        W 7579   1.289   0.530   2.723  0.1156  0.0661  0.0969
 4061W        W 7580   0.673   3.365   4.955  0.5048  0.0251 -0.0584
 4062W        W 7581   8.164   9.363   9.558 -0.0173 -0.2628  0.0742
 4063W        W 7582   9.600   4.177  11.324 -0.0012  0.2722  0.2155
 4064W        W 7583   7.921   4.317   0.667 -0.6312 -0.2346 -0.1619
 4065W        W 7584   9.569   0.117   0.933 -0.1300  0.0574 -0.0344
 4066W        W 7585   8.139   3.306   3.206  0.1387  0.0690 -0.0510
 4067W        W 7586   4.465   5.533   0.464 -0.0756 -0.1898 -0.0730
 4068W        W 7587   3.813   8.228   9.231 -0.0263  0.2311 -0.1425
 4069W        W 7588   2.381   1.055  10.475  0.0592 -0.1472  0.0606
 4070W        W 7589   3.648   5.150   9.687  0.0618 -0.1467  0.2618
 4071W        W 7590   5.659   6.479   9.777  0.3739  0.1199  0.2163
 4072W        W 7591   6.202   3.714  11.221 -0.1116  0.1167 -0.1183
 4073W        W 7592   7.851   6.683   0.704  0.0687 -0.1110  0.1070
 4074W        W 7593   3.661   6.360   2.642 -0.2565 -0.0244  0.0903
 4075W        W 7594   4.631   7.074   9.409  0.0261 -0.0675 -0.1992
 4076W        W 7595   2.669   6.424  10.431  0.1055  0.1191  0.3062
 4077W        W 7596   2.647   4.154   3.593 -0.0948  0.0308  0.1023
 4078W        W 7597   4.229   0.197   9.353  0.1087 -0.2112  0.3442
 4079W        W 7598   3.884   3.136   2.425 -0.1255  0.0184 -0.3877
 4080W        W 7599   0.319   1.631   1.739  0.1319 -0.1453  0.2069
 4081W        W 7600   0.277   4.877  10.038  0.1217  0.3225  0.0161
 4082W        W 7601   1.586   7.407   3.661 -0.1286  0.0624  0.0743
 4083W        W 7602   3.746   7.437   8.430 -0.0520  0.1889  0.0753
 4084W        W 7603   0.895   1.919   3.656 -0.2105  0.0265  0.0291
 4085W        W 7604   8.462   2.709  10.515 -0.0646  0.0427  0.1569
 4086W        W 7605   5.725   0.931   0.699 -0.0112  0.1695  0.0078
 4087W        W 7606   8.716   1.907   1.693 -0.1575 -0.1116  0.1318
 4088W        W 7607   0.565   6.144  10.726 -0.0274  0.3132 -0.0619
 4089W        W 7608   4.688   1.604  10.230 -0.2257 -0.2592 -0.1112
 4090W        W 7609   6.290   2.991   1.520 -0.0387 -0.0095 -0.2466
 4091W        W 7610   2.298   1.594  11.646 -0.3859  0.1583 -0.0895
 4092W        W 7611   7.581   2.497  10.853  0.0591  0.1136 -0.1133
 4093W        W 7612   5.901   9.309   2.985 -0.0515  0.0356 -0.0076
 4094W        W 7613   5.546   0.098   9.728  0.0702 -0.2573  0.1369
 4095W        W 7614   3.514   7.878   9.525 -0.1019 -0.1414  0.1428
 4096W        W 7615   5.110   2.347   0.348  0.4055  0.2894 -0.1333
 4097W        W 7616   3.015   2.712   1.544 -0.2030 -0.0368 -0.0641
 4098W        W 7617   9.282   1.990  12.268 -0.1336 -0.0140  0.1075
 4099W        W 7618   8.941   2.527   1.852  0.2697 -0.0670  0.0729
 4100W        W 7619   1.323   4.584   7.609  0.0826  0.0507  0.0312
 4101W        W 7620   4.506   1.019   1.504 -0.0301  0.2305  0.0191
 4102W        W 7621   5.455   4.857   8.015 -0.1252  0.4740 -0.2442
 4103W        W 7622   2.757   0.018   3.524 -0.0940  0.0955 -0.1924
 4104W        W 7623   3.272   7.734   0.023  0.2280  0.1647 -0.0191
 4105W        W 7624   0.653   1.454  10.481  0.2539 -0.0403  0.1420
 4106W        W 7625   0.798   0.494   9.653  0.2380  0.1976  0.0270
 4107W        W 7626   1.516   8.129   3.322  0.0594  0.0396  0.2210
 4108W        W 7627   6.350   4.757  11.176  0.1396 -0.1964 -0.2004
 4109W        W 7628   8.800   1.455   1.898 -0.0343 -0.3334  0.1722
 4110W        W 7629   7.790   8.320   4.555 -0.4874  0.4297  0.1717
 4111W        W 7630   7.021   6.874   4.023 -0.0984  0.0595 -0.4495
 4112W        W 7631   5.596   1.119   9.296  0.0799 -0.1372  0.1021
 4113W        W 7632   8.483   5.701   0.438  0.1476  0.1003 -0.2819
 4114W        W 7633   9.483   3.574   2.205 -0.1517  0.0824  0.1449
 4115W        W 7634   3.372   6.238   9.338  0.0422  0.0904 -0.0704
 4116W        W 7635   3.103   2.276   3.118 -0.1704  0.1333 -0.2346
 4117W        W 7636   2.907   1.631  10.774  0.0481 -0.2900 -0.2619
 4118W        W 7637   9.319   9.342   9.152  0.2956 -0.2067 -0.1403
 4119W        W 7638   9.075   4.448  10.144  0.1659  0.1479 -0.1103
 4120W        W 7639   8.897   7.079   7.895 -0.3781 -0.0059 -0.0078
 4121W        W 7640   4.505   0.623   3.345 -0.1859 -0.1356 -0.0799
 4122W        W 7641   9.432   6.370   8.922  0.1683 -0.1698  0.0443
 4123W        W 7642   6.723   9.437   8.957  0.0033  0.1233 -0.1366
 4124W        W 7643   7.364   4.545   3.008  0.1413 -0.0353 -0.0451
 4125W        W 7644   8.899   5.843  10.375  0.4077  0.1981 -0.0033
 4126W        W 7645   1.278   4.882   3.146  0.1145 -0.1670 -0.2228
 4127W        W 7646   3.705   7.044  11.002 -0.1171  0.0202  0.2348
 4128W        W 7647   0.385   3.436   7.949  0.1471 -0.3460 -0.2102
 4129W        W 7648   4.289   3.282  12.295 -0.2809  0.0428 -0.1665
 4130W        W 7649   8.771   3.366   0.562  0.2772 -0.1914  0.2862
 4131W        W 7650   2.256   8.317   8.736  0.1691 -0.4272  0.1701
 4132W        W 7651   0.434   5.798   0.765 -0.0389  0.3063  0.0503
 4133W        W 7652   3.551   1.214   3.618 -0.1708 -0.3562  0.0181
 4134W        W 7653   0.831   8.207   2.040  0.1315 -0.1491  0.0545
 4135W        W 7654   7.260   3.182   9.935 -0.0575 -0.2138 -0.3078
 4136W        W 7655   8.107   8.329   9.597  0.3580 -0.1087  0.1673
 4137W        W 7656   3.297   8.114   9.897 -0.1743 -0.2152  0.0245
 4138W        W 7657   5.137   4.829  10.436 -0.1680 -0.1197  0.0569
 4139W        W 7658   2.558   3.014  11.060  0.3120  0.2248 -0.1028
 4140W        W 7659   3.598   7.461  11.879 -0.2137 -0.1600  0.2910
 4141W        W 7660   3.474   2.060   2.850  0.2305  0.1097 -0.0757
 4142W        W 7661   5.730   2.925   3.513 -0.0989  0.1467 -0.0167
 4143W        W 7662   1.863   1.280  10.452 -0.0291  0.0400 -0.2906
 4144W        W 7663   2.938   8.113   0.130 -0.1695 -0.0114  0.1642
 4145W        W 7664   3.627   6.419   3.140  0.2518  0.0547  0.3678
 4146W        W 7665   1.728   9.428  12.244  0.0339  0.1403 -0.0278
 4147W        W 7666   9.434   0.740   1.874  0.0661 -0.1646  0.0052
 4148W        W 7667   3.184   4.272   9.772 -0.0448 -0.1837  0.1114
 4149W        W 7668   3.155   0.177   3.043 -0.1166  0.2018 -0.2046
 4150W        W 7669   5.747   7.301  10.095 -0.1790  0.2966 -0.0470
 4151W        W 7670   4.897   5.202   0.659  0.1782  0.5651  0.0620
 4152W        W 7671   3.918   5.340   3.372  0.2164  0.1619  0.0817
 4153W        W 7672   2.006   4.705   0.749 -0.2319 -0.1232 -0.1111
 4154W        W 7673   3.940   6.730   3.427  0.0027 -0.1706 -0.0622
 4155W        W 7674   5.916   3.262   1.479  0.0230 -0.0106  0.1577
 4156W        W 7675   0.167   2.807  11.057 -0.4369  0.1679  0.1662
 4157W        W 7676   7.925   9.394   2.207  0.4186 -0.0318  0.2491
 4158W        W 7677   3.442   5.759  11.031 -0.0371  0.0921 -0.1352
 4159W        W 7678   6.992   7.451   3.173  0.1450  0.2664  0.0447
 4160W        W 7679   5.149   6.891  10.546  0.0507 -0.2712 -0.1624
 4161W        W 7680   6.161   3.699   1.160  0.0849  0.1836 -0.1601
 4162W        W 7681   8.142   8.924   9.165 -0.2937 -0.0244  0.1392
 4163W        W 7682   4.461   3.692   0.060 -0.1378 -0.0399  0.0687
 4164W        W 7683   8.726   7.307   8.413 -0.3322  0.2206  0.0481
 4165W        W 7684   8.094   6.717  10.490 -0.2484  0.1027  0.2210
 4166W        W 7685   0.168   5.651  10.467 -0.3221  0.0358  0.1031
 4167W        W 7686   2.741   3.918  11.219 -0.2852  0.0997 -0.3837
 4168W        W 7687   9.522   8.204  11.031  0.0801 -0.0308  0.0260
 4169W        W 7688   1.350   6.709   0.073  0.0599 -0.0355  0.0620
 4170W        W 7689   8.102   8.889   2.315  0.0712 -0.0208 -0.1789
 4171W        W 7690   1.758   9.359   0.345  0.0271 -0.0027  0.1345
 4172W        W 7691   2.471   9.194   0.826 -0.1767  0.2387 -0.0420
 4173W        W 7692   2.610   0.215  10.982  0.0345  0.2920 -0.1703
 4174W        W 7693   8.877   5.230   1.075 -0.0988  0.2460  0.0924
 4175W        W 7694   8.410   2.279   1.014  0.1664 -0.0740 -0.2664
 4176W        W 7695   3.013   7.838   1.650  0.1374 -0.4912 -0.0698
 4177W        W 7696   5.721   3.273   8.696 -0.0906  0.1048 -0.3822
 4178W        W 7697   1.186   8.230   9.969  0.0888 -0.2613 -0.0939
 4179W        W 7698   9.230   8.586  10.715 -0.0389  0.0479 -0.0750
 4180W        W 7699   6.789   1.033   0.926  0.0277 -0.1794 -0.0244
 4181W        W 7700   7.283   3.705   2.903  0.1529 -0.2201  0.0352
 4182W        W 7701   3.904   7.026   9.216 -0.0877  0.1597 -0.2879
 4183W        W 7702   7.706   2.632   8.567 -0.0665 -0.2258  0.2783
 4184W        W 7703   6.927   0.620   1.192  0.3385  0.1576 -0.0147
 4185W        W 7704   6.996   8.381  11.004 -0.0968 -0.0161  0.1150
 4186W        W 7705   0.130   1.388   9.300  0.2755  0.1224 -0.2087
 4187W        W 7706   4.242   4.975   3.117 -0.1428  0.1827 -0.1026
 4188W        W 7707   1.731   4.302   0.550  0.2244  0.3798 -0.1262
 4189W        W 7708   5.637   3.261   2.420 -0.0953  0.1335  0.4589
 4190W        W 7709   0.685   0.120   3.780 -0.0308  0.0048  0.0923
 4191W        W 7710   2.780   7.225   3.715 -0.1123  0.0693  0.1755
 4192W        W 7711   3.502   5.419   9.185 -0.1881  0.5583 -0.0849
 4193W        W 7712   8.870   2.522   3.496 -0.2041  0.0793 -0.0275
 4194W        W 7713   8.963   4.658  11.855 -0.1560 -0.2262  0.2765
 4195W        W 7714   6.507   7.047   1.775 -0.0702  0.1021  0.1847
 4196W        W 7715   4.586   6.648   8.055  0.0079 -0.0097  0.0920
 4197W        W 7716   8.774   4.364   1.950  0.0962 -0.2436 -0.1625
 4198W        W 7717   6.825   7.382   2.036 -0.0194  0.0631  0.1537
 4199W        W 7718   7.983   7.559   2.411  0.3565  0.1230  0.1081
 4200W        W 7719   1.181   2.023   3.264 -0.0745  0.1555 -0.0971
 4201W        W 7720   2.386   5.257   4.635 -0.3081  0.1984 -0.3538
 4202W        W 7721   6.478   5.983  11.766  0.3224  0.0839 -0.1014
 4203W        W 7722   8.457   3.756   9.806 -0.1296 -0.0431 -0.0974
 4204W        W 7723   6.320   7.199   1.270  0.1547  0.1955 -0.1737
 4205W        W 7724   4.909   1.426   0.706  0.2114  0.1050  0.0404
 4206W        W 7725   0.479   3.333   4.343  0.0676  0.2960 -0.3233
 4207W        W 7726   6.207   8.937  10.020 -0.2612  0.3915 -0.0581
 4208W        W 7727   3.003   1.376   2.585  0.1105  0.1311  0.2802
 4209W        W 7728   6.323   8.987   3.189  0.1076 -0.2973 -0.1796
 4210W        W 7729   5.379   9.518   2.009 -0.1208  0.3323  0.2242
 4211W        W 7730   6.289   0.116   0.901 -0.0776 -0.0845  0.0690
 4212W        W 7731   4.599   8.878  11.742  0.1539  0.2776  0.2260
 4213W        W 7732   5.647   4.501  12.265  0.0677  0.4315  0.0974
 4214W        W 7733   8.883   8.603   2.176  0.0318 -0.1234 -0.0740
 4215W        W 7734   1.403   3.432   0.790 -0.4268  0.2569  0.0932
 4216W        W 7735   4.665   4.866   8.549 -0.1412 -0.3459  0.0939
 4217W        W 7736   9.728   2.717   3.890  0.0753  0.2399  0.1614
 4218W        W 7737   0.096   1.883   9.236 -0.2787 -0.1345 -0.1931
 4219W        W 7738   5.617   6.154  11.766  0.1880 -0.0932 -0.1965
 4220W        W 7739   2.962   4.163  12.125 -0.1205 -0.1946  0.1698
 4221W        W 7740   4.606   4.829  10.652 -0.2005  0.0796 -0.0001
 4222W        W 7741   8.622   0.106   0.621  0.0431  0.0674  0.0272
 4223W        W 7742   1.481   3.823   1.678 -0.2248  0.1266 -0.0452
 4224W        W 7743   4.254   7.898   3.623  0.1887 -0.1073  0.1211
 4225W        W 7744   5.960   5.438  10.465 -0.1397  0.2433  0.2258
 4226W        W 7745   3.886   5.178   1.154 -0.1754  0.0075  0.2158
 4227W        W 7746   1.294   8.842   9.318  0.0805 -0.1178 -0.1853
 4228W        W 7747   4.200   2.168   3.212 -0.2798 -0.1081 -0.0159
 4229W        W 7748   6.702   3.856  10.295  0.1915  0.3709  0.1448
 4230W        W 7749   1.669   2.646   9.604  0.3855  0.2585 -0.1927
 4231W        W 7750   7.836   1.892   9.896 -0.0098 -0.3813 -0.1749
 4232W        W 7751   8.174   1.055   2.422 -0.0401  0.3331 -0.0640
 4233W        W 7752   3.695   0.252   2.705  0.0276  0.2147 -0.1969
 4234W        W 7753   1.818   0.756   7.996  0.0491  0.3305  0.1478
 4235W        W 7754   9.155   2.460   9.302  0.0764 -0.2501 -0.0226
 4236W        W 7755   9.741   4.081   3.428 -0.1042 -0.0189  0.1017
 4237W        W 7756   0.724   0.514   1.179 -0.1549 -0.2106 -0.1421
 4238W        W 7757   5.860   6.328   2.867  0.1316  0.2223  0.0293
 4239W        W 7758   7.182   5.961   7.551  0.0914 -0.0089  0.2514
 4240W        W 7759   2.520   3.139   3.200 -0.0322  0.0724  0.0087
 4241W        W 7760   0.914   3.689   9.897  0.2537 -0.0481  0.0129
 4242W        W 7761   1.963   0.425   2.389  0.1919  0.0765  0.2381
 4243W        W 7762   6.239   2.834  11.168  0.0116  0.1546 -0.3539
 4244W        W 7763   6.526   0.561   2.746  0.1080  0.0692  0.0820
 4245W        W 7764   7.674   9.665  10.995  0.2601 -0.0930 -0.0157
 4246W        W 7765   7.144   6.451   0.462 -0.1906 -0.1137  0.0768
 4247W        W 7766   3.097   7.230   4.080  0.0597 -0.3922 -0.2620
 4248W        W 7767   8.259   2.590   9.308 -0.2304 -0.0534 -0.0461
 4249W        W 7768   7.252   9.613   1.577 -0.0257  0.0015 -0.0351
 4250W        W 7769   5.187   4.140   8.766 -0.2608  0.0076 -0.1276
 4251W        W 7770   6.599   5.680  12.122  0.0486  0.3796  0.1508
 4252W        W 7771   8.182   0.317   3.124 -0.0954  0.2218 -0.2100
 4253W        W 7772   1.136   8.306  11.776 -0.2483 -0.0703 -0.0448
 4254W        W 7773   6.073   4.637  10.740  0.1620  0.0189 -0.0508
 4255W        W 7774   9.660   6.736  10.086  0.0088 -0.0535 -0.1517
 4256W        W 7775   7.550   5.594   2.142  0.1283 -0.0930 -0.0789
 4257W        W 7776   2.422   7.268   2.928 -0.2037  0.0297  0.1111
 4258W        W 7777   2.108   8.558   2.069 -0.2627  0.0503  0.0318
 4259W        W 7778   6.988   0.006   9.984 -0.2579  0.4832  0.1374
 4260W        W 7779   8.952   3.117   3.023 -0.3162 -0.1914 -0.2820
 4261W        W 7780   3.620   6.681   1.596  0.3664 -0.0357 -0.2477
 4262W        W 7781   4.705   2.848   0.497  0.1495 -0.1794 -0.1670
 4263W        W 7782   4.790   8.280  11.239  0.2299 -0.1659 -0.0129
 4264W        W 7783   7.307   8.608  12.321 -0.1005  0.0477 -0.1327
 4265W        W 7784   4.329   7.813   9.637 -0.0302  0.1533 -0.0718
 4266W        W 7785   8.513   3.065   9.736 -0.0337  0.2525 -0.2332
 4267W        W 7786   7.497   5.189   0.757  0.2242 -0.1112  0.0115
 4268W        W 7787   4.146   5.299   9.832 -0.3207 -0.1307 -0.1006
 4269W        W 7788   5.554   8.007   4.605  0.1818  0.4627 -0.1275
 4270W        W 7789   1.259   1.986   1.926 -0.1070 -0.2260 -0.1239
 4271W        W 7790   5.829   1.043  11.478 -0.1170 -0.3292  0.0431
 4272W        W 7791   5.984   4.784   1.583 -0.0741  0.0891  0.3655
 4273W        W 7792   3.696   7.096   3.193 -0.2171  0.3360 -0.1163
 4274W        W 7793   5.311   5.993   2.854 -0.1227 -0.0536  0.1071
 4275W        W 7794   1.073   3.590   4.060  0.0864  0.2589 -0.0295
 4276W        W 7795   5.024   1.510   2.202 -0.0469  0.1813  0.1321
 4277W        W 7796   7.170   6.467   3.566 -0.0412 -0.1696 -0.1826
 4278W        W 7797   5.966   1.647   1.815 -0.1368  0.2389 -0.2779
 4279W        W 7798   0.761   2.804  10.944  0.0673 -0.3416  0.1853
 4280W        W 7799   0.984   4.086   9.072  0.1491 -0.0754 -0.1208
 4281W        W 7800   7.832   7.148   3.328 -0.1442  0.1925 -0.0036
 4282W        W 7801   5.321   3.304   0.123  0.1387  0.1448 -0.0399
 4283W        W 7802   3.418   2.582  11.192 -0.1076  0.2744 -0.0029
 4284W        W 7803   7.498   4.581   2.506  0.5459  0.2055  0.2092
 4285W        W 7804   3.903   9.231   9.224 -0.1625 -0.0401 -0.0671
 4286W        W 7805   4.693   3.112   9.497 -0.0143  0.2474 -0.0385
 4287W        W 7806   8.029   6.965   2.030 -0.1079 -0.0257  0.0411
 4288W        W 7807   0.368   3.304  12.256 -0.2219 -0.0672 -0.1152
 4289W        W 7808   2.000   5.539   9.983  0.0698  0.0802  0.0017
 4290W        W 7809   9.222   5.417  10.119  0.2358 -0.1105  0.0482
 4291W        W 7810   8.541   6.034   9.954 -0.0323  0.5011 -0.0456
 4292W        W 7811   4.985   4.795   1.879 -0.0219  0.2983 -0.0841
 4293W        W 7812   9.402   7.767   1.396 -0.1820  0.0020 -0.0856
 4294W        W 7813   5.131   7.739   8.691  0.1460 -0.1636  0.1971
 4295W        W 7814   7.646   2.190   3.075  0.1701  0.1934 -0.0405
 4296W        W 7815   5.695   2.261   1.603  0.1284  0.3159  0.1503
 4297W        W 7816   3.688   8.669   0.354  0.1503 -0.1163  0.0687
 4298W        W 7817   7.957   6.574  10.979  0.3578  0.1173 -0.1013
 4299W        W 7818   4.202   8.833   9.205  0.0104 -0.1104  0.1047
 4300W        W 7819   9.541   1.116   0.323 -0.0298  0.2897  0.3332
 4301W        W 7820   0.274   2.904   8.002  0.1624  0.0018 -0.1090
 4302W        W 7821   7.332   0.779  11.309 -0.1906  0.0963  0.1794
 4303W        W 7822   0.620   4.726   8.851  0.1273  0.1877 -0.3108
 4304W        W 7823   6.001   0.439   2.817 -0.0188  0.1193 -0.1734
 4305W        W 7824   6.190   6.713   7.518 -0.0448 -0.0349 -0.0981
 4306W        W 7825   1.326   0.168   3.651  0.2966  0.0105 -0.0083
 4307W        W 7826   5.601   7.940  12.356 -0.2187 -0.2573 -0.1660
 4308W        W 7827   6.841   0.221   9.504 -0.0780 -0.2116 -0.0572
 4309W        W 7828   0.872   3.927   0.226 -0.1081 -0.0611 -0.0184
 4310W        W 7829   6.336   5.293   9.201  0.0511  0.0226  0.3448
 4311W        W 7830   9.341   3.723  11.167 -0.1776 -0.3340 -0.1887
 4312W        W 7831   4.578   5.379  11.657 -0.3428  0.0397 -0.2031
 4313W        W 7832   3.358   3.895   8.506  0.1808 -0.0924 -0.1175
 4314W        W 7833   2.357   9.704   9.505 -0.1200 -0.0624  0.0765
 4315W        W 7834   7.465   7.915   1.756 -0.1780  0.2712 -0.1865
 4316W        W 7835   1.531   2.052   2.896  0.5079 -0.0943 -0.1716
 4317W        W 7836   3.385   9.574   0.345 -0.0635  0.0154  0.2061
 4318W        W 7837   2.666   1.987  11.594 -0.0167 -0.1590  0.2481
 4319W        W 7838   4.386   0.124   8.827  0.2298  0.1864 -0.1485
 4320W        W 7839   4.377   9.589   3.092  0.0314  0.0734 -0.2174
 4321W        W 7840   4.899   8.922   0.785 -0.1305 -0.2482  0.0456
 4322W        W 7841   6.395   6.531   0.847 -0.3573 -0.0337 -0.0945
 4323W        W 7842   3.363   3.642  11.849  0.1190 -0.0607 -0.1463
 4324W        W 7843   1.113   5.962   1.146 -0.0991  0.1589 -0.1402
 4325W        W 7844   4.991   7.834   9.699 -0.0133  0.3441  0.1419
 4326W        W 7845   9.541   9.185   9.642  0.1764  0.1671  0.0192
 4327W        W 7846   0.697   4.438  10.747 -0.1722 -0.0853  0.2831
 4328W        W 7847   0.978   7.010   2.733  0.3689 -0.1003  0.1464
 4329W        W 7848   3.837   9.595  10.778  0.2177  0.2139 -0.3083
 4330W        W 7849   8.196   5.752   7.790 -0.1602 -0.0690  0.0216
 4331W        W 7850   4.243   5.779   9.940  0.1503 -0.1575 -0.3396
 4332W        W 7851   6.744   6.814   2.200  0.0442  0.0119  0.2312
 4333W        W 7852   7.170   5.066   2.579  0.0221  0.1001 -0.1301
 4334W        W 7853   4.768   9.622   1.901 -0.6167  0.0228  0.1756
 4335W        W 7854   3.033   7.738   0.582  0.5385  0.2462  0.1195
 4336W        W 7855   9.741   8.879   8.568 -0.2222 -0.0610  0.0140
 4337W        W 7856   2.195   7.030   8.657 -0.1559  0.2208  0.1473
 4338W        W 7857   3.980   7.585   2.397  0.1947  0.3383 -0.1828
 4339W        W 7858   3.517   9.010   2.959 -0.0677 -0.0697 -0.0782
 4340W        W 7859   1.857   4.037  10.323 -0.0215  0.0327 -0.1206
 4341W        W 7860   1.037   6.870   0.471  0.4288  0.0631  0.4255
 4342W        W 7861   4.249   5.689   3.194  0.1546 -0.1771  0.3670
 4343W        W 7862   7.866   1.681   3.002  0.1039 -0.0005 -0.3120
 4344W        W 7863   8.311   7.611   3.385 -0.0989  0.1737 -0.0113
 4345W        W 7864   6.946   0.117   1.169 -0.1098 -0.0859 -0.0206
 4346W        W 7865   3.954   5.930   2.815  0.0356  0.0851 -0.0890
 4347W        W 7866   6.497   9.576   1.244 -0.2603  0.1298  0.0325
 4348W        W 7867   3.841   7.231   0.392 -0.0415 -0.0639 -0.0154
 4349W        W 7868   1.648   5.909  11.879 -0.0793  0.1838  0.0739
 4350W        W 7869   3.411   1.826  10.727 -0.1784  0.0731  0.2338
 4351W        W 7870   8.564   3.772  12.221 -0.0094 -0.0113 -0.0428
 4352W        W 7871   8.007   5.965   3.368 -0.2887  0.0840 -0.1573
 4353W        W 7872   3.890   3.464   3.396 -0.1175  0.0587  0.1488
 4354W        W 7873   5.806   1.696   1.346 -0.0331 -0.0761  0.0857
 4355W        W 7874   3.278   1.205  11.211 -0.1572  0.0764  0.3383
 4356W        W 7875   8.447   9.130   8.162 -0.1304 -0.0745  0.1660
 4357W        W 7876   4.822   4.209  10.947  0.0404 -0.1090  0.0499
 4358W        W 7877   4.076   5.132  12.124 -0.1347 -0.1470  0.2281
 4359W        W 7878   4.800   2.614   1.514 -0.2874  0.0517 -0.2842
 4360W        W 7879   6.861   1.738   9.718 -0.0962 -0.2590 -0.0261
 4361W        W 7880   4.259   8.006   4.113 -0.2735 -0.1526 -0.1578
 4362W        W 7881   4.583   5.816   1.447  0.0349 -0.1343  0.0750
 4363W        W 7882   4.946   9.450   8.113  0.0900  0.1084 -0.2473
 4364W        W 7883   4.992   3.461   9.808 -0.0843 -0.0135 -0.3393
 4365W        W 7884   9.077   2.375   9.786  0.0881  0.2459 -0.0500
 4366W        W 7885   5.739   5.533   9.045 -0.2595  0.0864 -0.0318
 4367W        W 7886   3.421   4.596   0.851 -0.0225 -0.1013  0.1506
 4368W        W 7887   5.644   3.298   0.560  0.2068 -0.1475 -0.2732
 4369W        W 7888   5.431   4.252   9.732 -0.0461 -0.5713 -0.1691
 4370W        W 7889   0.053   6.023  11.497  0.2807 -0.0959  0.1222
 4371W        W 7890   9.162   2.648   8.262  0.1062  0.0531  0.0544
 4372W        W 7891   3.091   5.519  10.472 -0.2281  0.0270 -0.1237
 4373W        W 7892   3.721   7.407   1.538  0.1383  0.0185 -0.0831
 4374W        W 7893   7.281   3.521   3.728 -0.1638 -0.0324 -0.1202
 4375W        W 7894   7.589   1.731  11.344 -0.1214 -0.0005 -0.0782
 4376W        W 7895   6.392   0.725  10.960  0.1578 -0.2030 -0.0789
 4377W        W 7896   8.193   4.782   9.734 -0.4096 -0.2795  0.0248
 4378W        W 7897   7.880   1.042   1.974  0.3119 -0.2260 -0.2089
 4379W        W 7898   8.624   4.199   9.734  0.0281 -0.1048 -0.1524
 4380W        W 7899   0.055   8.958  12.052 -0.4053  0.2578 -0.2865
 4381W        W 7900   9.685   9.667   1.912  0.2329  0.0399 -0.2165
 4382W        W 7901   5.263   6.067  12.075 -0.0448  0.0613  0.1855
 4383W        W 7902   1.311   6.476  11.833 -0.0513  0.1677  0.0304
 4384W        W 7903   7.684   0.606   9.555  0.0077  0.0147 -0.2736
 4385W        W 7904   3.102   2.908   0.258  0.2027 -0.0693  0.1755
 4386W        W 7905   8.513   0.723   4.124 -0.0539 -0.0406  0.1966
 4387W        W 7906   9.261   4.339   3.482  0.4638 -0.1005  0.0588
 4388W        W 7907   8.550   2.289   2.114  0.0673  0.1755 -0.0534
 4389W        W 7908   2.957   7.113   3.105  0.5181 -0.0648  0.3135
 4390W        W 7909   8.914   4.631  10.978  0.0973  0.1153 -0.2419
 4391W        W 7910   7.590   3.818  10.575  0.2371  0.1045 -0.3436
 4392W        W 7911   7.973   6.618  12.150 -0.0549 -0.2842 -0.0507
 4393W        W 7912   0.595   4.531  10.265 -0.1974  0.1186  0.2645
 4394W        W 7913   0.881   5.413   9.116 -0.1822  0.1969  0.0604
 4395W        W 7914   9.435   0.717   0.692 -0.2145 -0.0049  0.3524
 4396W        W 7915   7.650   3.444   4.041 -0.0123  0.0365 -0.0570
 4397W        W 7916   3.184   1.001   9.231  0.0721 -0.0145 -0.1131
 4398W        W 7917   8.646   4.385   1.377 -0.0180  0.2009 -0.3091
 4399W        W 7918   3.753   2.926   3.138  0.2755 -0.0003  0.1621
 4400W        W 7919   6.777   0.325  12.196 -0.1645 -0.4007 -0.2473
 4401W        W 7920   4.064   0.194   2.988 -0.4766  0.0481  0.1044
 4402W        W 7921   6.762   3.949   2.862 -0.0322  0.1150 -0.2160
 4403W        W 7922   1.663   9.322   2.385  0.0620  0.2751 -0.0971
 4404W        W 7923   9.707   6.875   3.832  0.1394 -0.0146 -0.0535
 4405W        W 7924   2.552   8.849   9.410  0.1406 -0.1624 -0.1728
 4406W        W 7925   8.082   4.745   0.258 -0.3527 -0.0821  0.0470
 4407W        W 7926   8.205   7.534   2.903  0.0095  0.2575 -0.1259
 4408W        W 7927   2.931   2.160   0.320  0.0888 -0.3592 -0.0087
 4409W        W 7928   5.306   1.260   3.097 -0.2677 -0.1952  0.0861
 4410W        W 7929   4.968   7.763   3.436 -0.0539  0.0147 -0.1556
 4411W        W 7930   9.129   2.156  10.307 -0.1539  0.2275 -0.1672
 4412W        W 7931   6.532   7.166  10.645  0.0029 -0.0782  0.0029
 4413W        W 7932   9.042   6.560  12.334  0.0477  0.2467 -0.0299
 4414W        W 7933   4.858   0.103   1.314  0.0541 -0.2788 -0.3106
 4415W        W 7934   7.928   3.889   2.016 -0.0387 -0.1363  0.2074
 4416W        W 7935   5.521   7.484   0.846  0.1257 -0.0317 -0.0646
 4417W        W 7936   2.207   5.540   8.855 -0.0889  0.2698  0.0024
 4418W        W 7937   6.855   4.156   0.520 -0.4286 -0.4365 -0.1985
 4419W        W 7938   9.134   0.286   3.432  0.0372  0.0728  0.1294
 4420W        W 7939   7.000   6.839   0.796  0.0639 -0.3392 -0.3420
 4421W        W 7940   4.259   4.701  11.917 -0.1172 -0.0777  0.2373
 4422W        W 7941   5.880   4.746   2.628  0.2248 -0.5826  0.1902
 4423W        W 7942   7.591   6.994   9.968 -0.1765  0.1517  0.0904
 4424W        W 7943   2.726   6.298   3.307 -0.0962 -0.0081 -0.2998
 4425W        W 7944   2.043   0.131  10.716  0.1874  0.0818 -0.3437
 4426W        W 7945   7.304   0.758   3.813 -0.1927  0.4936  0.0900
 4427W        W 7946   9.221   4.179   0.199  0.4003 -0.0032 -0.1513
 4428W        W 7947   6.339   2.790   9.017 -0.2973 -0.1188 -0.1602
 4429W        W 7948   5.588   7.730   2.672  0.0154  0.0344 -0.1854
 4430W        W 7949   5.056   5.124   9.926 -0.2451  0.0802  0.1217
 4431W        W 7950   0.917   6.838   2.251  0.0420  0.2638  0.0015
 4432W        W 7951   2.948   1.829  10.310  0.0693  0.1867 -0.2003
 4433W        W 7952   5.340   2.668   3.128  0.0871  0.4328  0.1354
 4434W        W 7953   8.732   1.258   9.343  0.4845  0.3241  0.1288
 4435W        W 7954   2.596   6.998   1.580 -0.2427  0.1973  0.1457
 4436W        W 7955   0.591   3.375   3.821 -0.3678 -0.1184 -0.0793
 4437W        W 7956   8.827   8.178   4.507 -0.1423 -0.4251  0.0016
 4438W        W 7957   5.239   2.851   3.603 -0.0913 -0.0622 -0.0962
 4439W        W 7958   7.369   8.080   0.576 -0.0002 -0.0726 -0.1226
 4440W        W 7959   6.199   3.858  10.164  0.0631  0.1363  0.2846
 4441W        W 7960   2.975   6.695   0.341  0.2713 -0.2359  0.0428
 4442W        W 7961   0.866   4.048  11.649  0.0160 -0.1330  0.0585
 4443W        W 7962   5.443   5.221  11.790  0.1582 -0.1380  0.1507
 4444W        W 7963   9.462   3.085   2.963  0.2526 -0.1952 -0.0601
 4445W        W 7964   1.191   1.681   0.592  0.2468  0.0425  0.2184
 4446W        W 7965   6.462   9.503   0.380  0.0399  0.4834  0.2519
 4447W        W 7966   5.518   0.351  10.927  0.3502  0.2954  0.0814
 4448W        W 7967   3.983   8.045   8.719 -0.1244 -0.1384  0.0700
 4449W        W 7968   7.682   0.194  12.015  0.0115  0.2002  0.4099
 4450W        W 7969   4.763   4.986   2.272 -0.4066  0.0277  0.3308
 4451W        W 7970   2.855   6.728  12.152  0.0914  0.0586 -0.5604
 4452W        W 7971   5.165   9.145  10.142  0.6352 -0.0160  0.2263
 4453W        W 7972   1.093   3.347   1.579 -0.0389 -0.3699 -0.0741
 4454W        W 7973   6.561   7.166   9.518 -0.0172  0.2049  0.2435
 4455W        W 7974   6.650   8.641   0.587  0.0266 -0.0352 -0.1136
 4456W        W 7975   0.785   8.190   0.697  0.0143 -0.1998 -0.3314
 4457W        W 7976   5.420   2.197  10.297  0.3643 -0.5114  0.0606
 4458W        W 7977   6.146   8.031  10.355  0.1140  0.1353 -0.0652
 4459W        W 7978   8.433   2.967  11.413  0.1848  0.0329  0.2035
 4460W        W 7979   5.948   1.363   0.541 -0.3220 -0.0193 -0.2443
 4461W        W 7980   8.225   1.816   1.879  0.0681 -0.2920  0.1447
 4462W        W 7981   7.031   8.302  12.005  0.1171 -0.1103 -0.2122
 4463W        W 7982   1.873   2.879  12.052 -0.0083 -0.2069  0.1887
 4464W        W 7983   9.348   6.956  11.472  0.0851 -0.1124  0.0149
 4465W        W 7984   9.186   6.017   2.946  0.2484  0.0571 -0.1800
 4466W        W 7985   2.880   9.484   2.176 -0.1142  0.1475 -0.1015
 4467W        W 7986   0.114   0.868   1.677  0.0724  0.2149 -0.1190
 4468W        W 7987   1.770   8.304   7.795 -0.1947  0.0964  0.1337
 4469W        W 7988   1.389   5.302   1.920  0.0047 -0.0412  0.0301
 4470W        W 7989   1.240   0.382  10.989 -0.3832  0.2288  0.0895
 4471W        W 7990   8.112   3.654   2.375  0.0210 -0.1438 -0.0765
 4472W        W 7991   9.673   4.582   4.590  0.1714 -0.0283  0.2274
 4473W        W 7992   0.292   3.358   2.015  0.3848 -0.2547 -0.4107
 4474W        W 7993   0.371   8.517   2.139 -0.1152  0.0103  0.1195
 4475W        W 7994   1.079   2.480   8.814  0.0371 -0.0712 -0.2123
 4476W        W 7995   9.639   3.253   1.145  0.0892  0.2780 -0.1274
 4477W        W 7996   3.406   3.524  11.203  0.4679  0.0626  0.2171
 4478W        W 7997   2.320   2.767   3.539 -0.2197  0.1517 -0.1072
 4479W        W 7998   5.395   3.790  11.732 -0.0112  0.0392 -0.0728
 4480W        W 7999   2.261   7.429   9.836  0.2088 -0.0410 -0.0303
 4481W        W 8000   3.616   7.801   4.890 -0.2421  0.1151 -0.3637
 4482W        W 8001   1.674   3.028   9.273  0.1444  0.2302  0.1931
 4483W        W 8002   1.012   6.066  10.917  0.4552  0.0380 -0.0453
 4484W        W 8003   6.927   8.306   2.965  0.1757 -0.0088 -0.1058
 4485W        W 8004   4.051   3.140   1.491 -0.1041 -0.1720 -0.1685
 4486W        W 8005   7.027   9.540   2.192 -0.1345  0.1397  0.1959
 4487W        W 8006   8.972   0.542   0.454 -0.2544 -0.1061  0.0567
 4488W        W 8007   0.408   0.132   2.218 -0.1219 -0.2540  0.0367
 4489W        W 8008   8.114   4.811   3.704  0.3477 -0.0686  0.0535
 4490W        W 8009   0.514   7.057  12.095 -0.0419  0.0042 -0.2836
 4491W        W 8010   3.907   8.740  12.251 -0.1652 -0.2756 -0.0799
 4492W        W 8011   0.636   6.045   2.759 -0.3340  0.3274 -0.2089
 4493W        W 8012   2.631   9.297   9.664 -0.0897 -0.2561 -0.0364
 4494W        W 8013   3.402   3.507   1.080 -0.0458 -0.0483 -0.0332
 4495W        W 8014   1.433   0.029   0.421  0.1161 -0.1151 -0.1009
 4496W        W 8015   7.333   1.296   8.873 -0.2334 -0.2067 -0.0697
 4497W        W 8016   6.843   5.401   2.975  0.1743 -0.3099  0.1465
 4498W        W 8017   7.736   6.995  11.251  0.0010  0.4016 -0.1129
 4499W        W 8018   6.347   8.601  12.184  0.3598 -0.0093  0.0170
 4500W        W 8019   1.522   6.034   3.488 -0.0022 -0.1372 -0.0851
 4501W        W 8020   3.142   0.985   1.223 -0.1627  0.1552  0.0952
 4502W        W 8021   6.507   4.937   1.245 -0.0593  0.1236  0.0074
 4503W        W 8022   0.914   1.868   4.142  0.0035  0.0536  0.1097
 4504W        W 8023   0.819   6.426   1.347 -0.0109 -0.0038  0.0110
 4505W        W 8024   3.431   7.786   0.868 -0.0209  0.1681 -0.0709
 4506W        W 8025   5.687   7.171   3.233  0.1960 -0.1448  0.1948
 4507W        W 8026   3.173   1.605   0.292  0.2196 -0.0540  0.2965
 4508W        W 8027   2.734   4.391   9.496  0.2782  0.1854  0.3448
 4509W        W 8028   1.950   1.938   3.900 -0.1053 -0.0634 -0.1826
 4510W        W 8029   0.130   6.184   9.086 -0.4437  0.1700  0.2139
 4511W        W 8030   1.055   1.384   9.563 -0.3337 -0.2256 -0.4809
 4512W        W 8031   9.238   1.232   3.384 -0.0792  0.1037 -0.1400
 4513W        W 8032   0.431   3.030   1.024 -0.0145 -0.4587  0.1899
 4514W        W 8033   7.339   8.088   9.143 -0.0132  0.1726  0.3887
 4515W        W 8034   1.062   2.066   8.489 -0.1088  0.0224 -0.1357
 4516W        W 8035   7.798   1.968  12.121  0.0568  0.3347 -0.0675
 4517W        W 8036   2.986   5.630   0.721 -0.1690 -0.2118  0.4333
 4518W        W 8037   5.381   0.786  10.450 -0.1034 -0.1020 -0.2934
 4519W        W 8038   6.212   5.984   8.581 -0.0876 -0.0778 -0.1022
 4520W        W 8039   4.469   8.831  12.276  0.0603 -0.0880  0.1285
 4521W        W 8040   1.057   4.549   8.680  0.0723  0.2198  0.0287
 4522W        W 8041   9.465   1.438   2.903  0.0195  0.0957 -0.0241
 4523W        W 8042   6.104   0.083   3.695  0.3114 -0.0152  0.0701
 4524W        W 8043   6.285   8.245   9.099  0.0552 -0.1139  0.1622
 4525W        W 8044   5.007   7.544  11.723 -0.4001  0.1426 -0.2269
 4526W        W 8045   8.100   2.027   2.359  0.0873  0.0464 -0.4427
 4527W        W 8046   1.706   6.248   9.194  0.2890 -0.2048  0.0377
 4528W        W 8047   6.551   6.091   4.349  0.1384 -0.1331 -0.2513
 4529W        W 8048   2.147   0.373   1.841  0.0724  0.0744  0.0780
 4530W        W 8049   3.797   9.541   0.777 -0.1843 -0.0857 -0.1889
 4531W        W 8050   1.910   2.636  10.112 -0.0815  0.3507  0.4733
 4532W        W 8051   2.150   3.758   3.593 -0.0049 -0.0280 -0.0603
 4533W        W 8052   8.651   8.786   3.651  0.0198  0.2219  0.0941
 4534W        W 8053   7.470   6.182   1.334 -0.1165  0.2279 -0.2071
 4535W        W 8054   8.704   9.563   8.313 -0.0734 -0.0999 -0.1124
 4536W        W 8055   1.462   0.930  10.215 -0.2006  0.3522  0.4479
 4537W        W 8056   5.941   1.103   8.895 -0.1008  0.1637 -0.3354
 4538W        W 8057   1.636   8.943   4.520 -0.0838  0.0726  0.1143
 4539W        W 8058   3.828   4.653   8.762 -0.0618 -0.2426  0.2052
 4540W        W 8059   5.383   3.270  10.172  0.0837 -0.0640  0.1016
 4541W        W 8060   0.691   5.484   9.592 -0.0536  0.1666 -0.1208
 4542W        W 8061   9.418   0.609   0.156 -0.0836  0.0351 -0.0944
 4543W        W 8062   0.890   7.386   2.340  0.1249  0.0031 -0.0882
 4544W        W 8063   8.243   4.706  11.631 -0.0777  0.0366 -0.3462
 4545W        W 8064   7.661   4.831   1.649 -0.0093  0.2113 -0.1703
 4546W        W 8065   4.144   4.992   8.966 -0.1271  0.0554 -0.0687
 4547W        W 8066   8.768   2.490  10.798 -0.0796 -0.2683  0.0874
 4548W        W 8067   6.713   6.578  11.705 -0.0743  0.3621 -0.1240
 4549W        W 8068   8.729   4.112   0.115  0.1875 -0.0575 -0.1138
 4550W        W 8069   2.164   4.197   9.983  0.2184 -0.0536 -0.1039
 4551W        W 8070   5.319   8.481   8.716 -0.1226 -0.0599 -0.2602
 4552W        W 8071   6.881   3.364   2.854 -0.1220  0.0813 -0.1336
 4553W        W 8072   7.582   4.584   9.838  0.0778  0.0025  0.2574
 4554W        W 8073   9.366   7.363   0.488 -0.1964  0.0021  0.0614
 4555W        W 8074   8.760   1.475   9.810  0.0682  0.0382 -0.1895
 4556W        W 8075   5.472   2.565   9.075  0.1320 -0.2637 -0.2268
 4557W        W 8076   4.043   6.700   2.889 -0.3871 -0.2759 -0.2961
 4558W        W 8077   5.092   4.650   9.772  0.0731 -0.0239 -0.2090
 4559W        W 8078   0.071   8.755   1.826  0.0856  0.1309 -0.1511
 4560W        W 8079   9.278   7.057   3.636 -0.0262  0.0912 -0.0692
 4561W        W 8080   7.576   2.414   1.220  0.1216 -0.1663  0.2113
 4562W        W 8081   6.788   8.038   9.185  0.3930 -0.1238 -0.1677
 4563W        W 8082   3.111   7.365   9.033 -0.1887 -0.0802 -0.1562
 4564W        W 8083   3.409   0.063  10.378 -0.0840 -0.0541 -0.0653
 4565W        W 8084   3.118   0.627  11.528  0.3790 -0.3013 -0.1519
 4566W        W 8085   7.645   3.006  10.846  0.3900  0.0811  0.4265
 4567W        W 8086   9.363   8.474   9.395 -0.1263  0.3308 -0.2815
 4568W        W 8087   2.640   7.088  10.585 -0.1136  0.1654 -0.1368
 4569W        W 8088   0.207   0.706   9.937  0.1956 -0.3593 -0.1122
 4570W        W 8089   9.275   1.609   2.126 -0.1070  0.1750 -0.1210
 4571W        W 8090   6.217   1.255  10.185 -0.0220  0.1674  0.3661
 4572W        W 8091   1.804   2.346   1.045  0.0695  0.4390  0.2839
 4573W        W 8092   2.730   5.997  10.124 -0.1514 -0.0197 -0.2458
 4574W        W 8093   5.198   0.446   9.920 -0.0625  0.1295 -0.1836
 4575W        W 8094   1.602   1.379   8.159 -0.1369  0.0092 -0.1038
 4576W        W 8095   6.946   6.852   9.208 -0.2790 -0.0657 -0.2391
 4577W        W 8096   3.541   8.156   2.404 -0.0851 -0.0140 -0.0318
 4578W        W 8097   9.167   8.312   4.196 -0.1498 -0.2781 -0.0247
 4579W        W 8098   8.887   6.840   3.368 -0.1053 -0.0207 -0.2321
 4580W        W 8099   4.484   3.590   8.695 -0.1662  0.5426  0.1013
 4581W        W 8100   6.585   5.405   0.388  0.2623 -0.0633  0.1900
 4582W        W 8101   7.042   2.196   2.319 -0.3238  0.3171  0.0036
 4583W        W 8102   4.762   6.598  10.834 -0.1164  0.1514  0.1471
 4584W        W 8103   0.293   2.132   9.843 -0.2165 -0.3521  0.1168
 4585W        W 8104   4.801   7.890   4.266 -0.0838  0.2675  0.0826
 4586W        W 8105   2.709   6.703   1.225 -0.1174 -0.0687 -0.0035
 4587W        W 8106   2.543   7.719   2.416  0.2257 -0.1584 -0.0602
 4588W        W 8107   6.499   2.383   0.265 -0.0765  0.2075  0.3591
 4589W        W 8108   9.284   2.315   7.904  0.6418 -0.4509 -0.0406
 4590W        W 8109   1.283   7.917  10.540 -0.1258  0.2027  0.3885
 4591W        W 8110   0.553   6.103   0.298 -0.0747  0.1605  0.1669
 4592W        W 8111   7.569   9.075   0.715 -0.2815  0.2777 -0.2473
 4593W        W 8112   2.711   8.109   8.941  0.1049  0.1815  0.0594
 4594W        W 8113   5.300   9.522   8.688  0.1522  0.0221 -0.0869
 4595W        W 8114   6.969   1.907   1.907  0.4297 -0.1111  0.0755
 4596W        W 8115   7.179   4.853   3.351  0.1307  0.0001  0.1227
 4597W        W 8116   7.424   8.096  10.151  0.4400  0.0719  0.2346
 4598W        W 8117   9.150   3.194  11.332  0.5721  0.2153  0.1694
 4599W        W 8118   5.790   3.903   1.384 -0.0226 -0.0264  0.1109
 4600W        W 8119   2.653   0.320   8.726  0.1039  0.2223  0.3227
 4601W        W 8120   1.645   1.455   0.638  0.1340  0.0311  0.4973
 4602W        W 8121   4.325   8.584   2.563 -0.3782  0.1003 -0.0114
 4603W        W 8122   9.444   6.048   3.397  0.1151  0.0586 -0.0333
 4604W        W 8123   2.788   8.174   4.397  0.2339 -0.1772 -0.0309
 4605W        W 8124   4.175   3.622   2.148  0.2571  0.0175  0.1899
 4606W        W 8125   1.336   7.118   2.337  0.2941  0.1520 -0.1719
 4607W        W 8126   4.303   2.629   1.609 -0.1670 -0.0114  0.1866
 4608W        W 8127   8.725   6.743  11.937  0.1495  0.2958 -0.3576
 4609W        W 8128   9.671   7.213   9.356 -0.1944  0.0251 -0.0359
 4610W        W 8129   4.964   7.726   2.602  0.0569 -0.0479  0.4064
 4611W        W 8130   5.631   7.597   4.177  0.0574 -0.0070 -0.1161
 4612W        W 8131   3.865   8.628  10.072  0.4929  0.4336  0.1959
 4613W        W 8132   4.801   3.689   0.743  0.0633 -0.0048  0.0711
 4614W        W 8133   0.966   4.871   7.941 -0.3282  0.0023  0.2165
 4615W        W 8134   4.585   6.256   1.174 -0.1517  0.0464  0.1573
 4616W        W 8135   2.113   1.226   0.826 -0.2576 -0.1022  0.1347
 4617W        W 8136   1.248   2.361   9.747 -0.1800  0.1528 -0.1309
 4618W        W 8137   0.666   0.054   8.928  0.2393 -0.1589  0.0982
 4619W        W 8138   7.477   4.651   0.778 -0.3702 -0.0765 -0.1024
 4620W        W 8139   4.822   5.904   2.657  0.0913  0.3383  0.1803
 4621W        W 8140   4.035   2.141   1.516  0.1712 -0.1957  0.1824
 4622W        W 8141   1.309   5.260   2.858 -0.0412 -0.0250 -0.2915
 4623W        W 8142   2.378   9.674   8.965 -0.1390  0.0782 -0.4066
 4624W        W 8143   3.322   5.389  11.418  0.3711 -0.0344 -0.0995
 4625W        W 8144   7.506   3.506   1.147 -0.1034  0.0672  0.0567
 4626W        W 8145   9.061   7.171   8.778  0.2939 -0.1852 -0.4045
 4627W        W 8146   9.292   0.835   4.342 -0.1952 -0.0182  0.0659
 4628W        W 8147   5.476   5.535   2.691 -0.0689  0.1877  0.0006
 4629W        W 8148   9.126   7.779   3.755 -0.3991  0.2029  0.1002
 4630W        W 8149   8.691   0.564   3.566  0.1116 -0.3645  0.3025
 4631W        W 8150   9.216   7.298   1.409  0.4188  0.0990  0.0052
 4632W        W 8151   2.618   8.298  11.981 -0.0419 -0.1682 -0.3803
 4633W        W 8152   0.511   7.091   1.977  0.1034 -0.3334 -0.3490
 4634W        W 8153   0.595   2.905  11.371  0.3103 -0.3377  0.0362
 4635W        W 8154   1.042   4.112   9.586  0.1088 -0.3086 -0.1302
 4636W        W 8155   8.788   7.808  11.173 -0.1305  0.2168  0.3680
 4637W        W 8156   8.077   2.374   8.837  0.0889  0.0804 -0.0749
 4638W        W 8157   4.348   6.169   8.293  0.2982 -0.3201 -0.2558
 4639W        W 8158   1.509   0.969   9.117 -0.0082 -0.2713  0.1433
 4640W        W 8159   0.358   5.336   2.876 -0.1836  0.2315  0.3568
 4641W        W 8160   7.506   4.180  11.162 -0.2719 -0.0735  0.5077
 4642W        W 8161   5.246   0.862   2.774  0.2300  0.2074  0.1386
 4643W        W 8162   1.075   8.735   1.388  0.1622  0.1109 -0.0513
 4644W        W 8163   4.753   0.444   3.760  0.1053 -0.0536 -0.1682
 4645W        W 8164   9.078   0.553  10.924 -0.2753 -0.1028  0.0240
 4646W        W 8165   7.082   0.396   0.659 -0.0172  0.1825  0.0020
 4647W        W 8166   9.516   2.147   9.604 -0.0632 -0.0257 -0.0169
 4648W        W 8167   0.269   2.461   4.134 -0.1148  0.2074 -0.2953
 4649W        W 8168   7.371   5.412  10.567  0.0941 -0.0394 -0.0090
 4650W        W 8169   3.802   0.741   9.977 -0.0988  0.0322 -0.1732
 4651W        W 8170   4.855   9.297  10.715 -0.2747  0.0954 -0.0474
 4652W        W 8171   1.437   2.338   9.266  0.0234 -0.1483 -0.1492
 4653W        W 8172   4.374   9.197   1.922  0.3727  0.3235 -0.1799
 4654W        W 8173   2.854   1.702   0.688  0.3385  0.0312 -0.0492
 4655W        W 8174   5.878   8.556  10.156 -0.0509 -0.0644  0.0475
 4656W        W 8175   3.415   1.838  10.081  0.1245  0.1997  0.0068
 4657W        W 8176   1.221   7.527   8.815  0.2790  0.1650 -0.0292
 4658W        W 8177   7.362   7.660  10.542  0.3014 -0.2892 -0.0371
 4659W        W 8178   6.149   5.470   8.708  0.0485  0.0355  0.3848
 4660W        W 8179   1.630   7.204  12.338 -0.1922  0.1855  0.1276
 4661W        W 8180   6.581   6.179   8.144 -0.1523 -0.6580  0.3541
 4662W        W 8181   6.291   5.161   8.346  0.1033 -0.0808 -0.0486
 4663W        W 8182   3.185   5.808   4.243  0.4846  0.0790 -0.0749
 4664W        W 8183   1.829   2.469   2.348  0.1133 -0.1215 -0.0353
 4665W        W 8184   5.863   5.637   7.209  0.0145 -0.1490  0.3805
 4666W        W 8185   5.362   6.971   2.421 -0.4135  0.1835 -0.0082
 4667W        W 8186   2.742   4.263  10.079 -0.0458  0.3610 -0.3093
 4668W        W 8187   6.313   9.147  12.351 -0.0331  0.0452  0.3711
 4669W        W 8188   5.587   7.289  10.608 -0.2800  0.0065 -0.0128
 4670W        W 8189   2.657   8.844   0.463  0.2903  0.3341 -0.0356
 4671W        W 8190   8.423   1.663  10.761 -0.0173 -0.2257 -0.4077
 4672W        W 8191   9.105   7.660   8.038 -0.0895  0.3757  0.1282
 4673W        W 8192   1.125   2.919   1.956 -0.1402  0.2038  0.1509
 4674W        W 8193   8.197   5.203   2.940 -0.0847  0.3012  0.2154
 4675W        W 8194   0.152   8.436   3.683 -0.2306  0.1137  0.0383
 4676W        W 8195   1.267   0.505   9.262  0.1915 -0.0859 -0.0526
 4677W        W 8196   3.833   6.346   7.487 -0.0670  0.0724  0.3438
 4678W        W 8197   5.379   4.021   2.773 -0.2120 -0.1146  0.2613
 4679W        W 8198   4.218   3.624  10.623 -0.0132 -0.1536  0.0472
 4680W        W 8199   5.864   7.359   0.423 -0.1878  0.2221  0.1275
 4681W        W 8200   9.661   8.019   0.987 -0.2265  0.2318 -0.0220
 4682W        W 8201   6.008   0.963   1.199 -0.0141  0.1253 -0.0030
 4683W        W 8202   7.790   7.241   1.628 -0.1765 -0.0088 -0.0337
 4684W        W 8203   6.548   4.575   0.803 -0.0349  0.0726  0.1647
 4685W        W 8204   1.167   3.880  11.285 -0.2070 -0.3056 -0.1585
 4686W        W 8205   1.979   4.269   8.537  0.1057  0.1486 -0.0352
 4687W        W 8206   4.029   5.800  10.704 -0.0411  0.4704 -0.0635
 4688W        W 8207   9.349   5.048   8.820  0.0189 -0.0226  0.1057
 4689W        W 8208   6.535   7.446   3.001  0.1394  0.3459  0.2755
 4690W        W 8209   8.364   5.804  10.405  0.0621  0.1921  0.2006
 4691W        W 8210   8.109   2.528   3.204  0.0191  0.1514 -0.1766
 4692W        W 8211   1.731   7.126   2.602  0.0314 -0.0658 -0.3820
 4693W        W 8212   7.429   6.680  11.005 -0.2313  0.0902 -0.1537
 4694W        W 8213   0.103   8.492   9.284 -0.0314 -0.2039  0.2075
 4695W        W 8214   9.175   5.259  10.559  0.1989 -0.0409  0.1229
 4696W        W 8215   9.175   6.125  10.690  0.0646  0.0086 -0.3669
 4697W        W 8216   8.463   3.979   1.131  0.0959  0.3307  0.0610
 4698W        W 8217   8.263   0.022  10.075 -0.0205  0.0520  0.0815
 4699W        W 8218   6.750   1.414  12.280  0.0679  0.4138 -0.2847
 4700W        W 8219   8.085   8.099   8.507 -0.3622  0.1067  0.0991
 4701W        W 8220   5.362   4.755   2.286 -0.1832 -0.0883  0.1745
 4702W        W 8221   8.132   0.303  11.195  0.2618 -0.0100 -0.1961
 4703W        W 8222   4.120   6.460   3.803  0.0947  0.2250  0.1488
 4704W        W 8223   6.901   1.684   0.852  0.2605  0.2800 -0.0918
 4705W        W 8224   4.745   2.136  11.010 -0.0092  0.1317  0.1670
 4706W        W 8225   5.465   6.539   3.583  0.1276 -0.1817 -0.2050
 4707W        W 8226   1.802   9.478   9.718 -0.0287 -0.0728 -0.3543
 4708W        W 8227   7.218   4.054  10.129  0.0793  0.1084  0.3217
 4709W        W 8228   2.389   8.749  11.337  0.0542 -0.2015 -0.0158
 4710W        W 8229   6.219   4.202  11.018 -0.1442 -0.2343  0.2049
 4711W        W 8230   0.828   6.312  11.730  0.0084 -0.2941 -0.0854
 4712W        W 8231   8.287   3.900   1.699 -0.3333 -0.0906  0.0875
 4713W        W 8232   5.945   7.867   9.193  0.0493 -0.1418 -0.0341
 4714W        W 8233   1.057   4.447  10.010  0.1846  0.0621  0.1208
 4715W        W 8234   9.301   7.943  12.332 -0.2081  0.0305 -0.2463
 4716W        W 8235   5.590   1.667   2.168  0.1567 -0.2330 -0.0111
 4717W        W 8236   1.032   8.417   3.187 -0.3307  0.0760 -0.4521
 4718W        W 8237   1.346   9.293  10.881 -0.2123 -0.1700 -0.0192
 4719W        W 8238   4.119   1.856   0.850 -0.1131  0.2249 -0.0174
 4720W        W 8239   3.461   3.802  12.305 -0.2128 -0.3078 -0.3082
 4721W        W 8240   5.817   5.639  10.970  0.0154  0.1724 -0.3489
 4722W        W 8241   8.578   7.933   8.968 -0.2356 -0.1289 -0.0099
 4723W        W 8242   4.855   7.142   1.407 -0.1373 -0.0215  0.5420
 4724W        W 8243   1.572   4.696   3.534 -0.1492 -0.1089 -0.0804
 4725W        W 8244   4.180   0.021  10.301  0.2933  0.0323  0.1085
 4726W        W 8245   9.521   4.182  12.232  0.0236  0.2204  0.0757
 4727W        W 8246   1.744   5.579   8.718 -0.0094  0.1357 -0.1853
 4728W        W 8247   2.958   3.087   2.906  0.0981 -0.1206 -0.0270
 4729W        W 8248   3.110   6.136  11.041  0.0353 -0.0267 -0.0034
 4730W        W 8249   6.096   8.875  11.823  0.1310 -0.2044 -0.1275
 4731W        W 8250   8.026   6.848   8.492  0.0771  0.1756  0.2197
 4732W        W 8251   0.437   0.049   3.133  0.0387 -0.0588 -0.2452
 4733W        W 8252   8.762   2.977   2.174 -0.1420 -0.1667 -0.0675
 4734W        W 8253   0.693   6.237  10.246 -0.1436 -0.1380  0.2419
 4735W        W 8254   0.301   2.956  11.766  0.0095 -0.2710  0.1087
 4736W        W 8255   4.136   3.307  10.129  0.2435 -0.1525  0.0309
 4737W        W 8256   1.344   5.597  11.627  0.3524  0.3247 -0.1943
 4738W        W 8257   9.536   7.587   3.563  0.0332 -0.0429  0.0981
 4739W        W 8258   3.252   2.841   3.628  0.2390 -0.0033  0.0680
 4740W        W 8259   7.403   7.594   9.905 -0.0727 -0.0376  0.2618
 4741W        W 8260   9.619   7.120  12.124  0.3011  0.1239 -0.1412
 4742W        W 8261   6.584   9.673  10.322 -0.0881 -0.1832 -0.1029
 4743W        W 8262   7.434   1.692  11.816  0.0090  0.0664 -0.0062
 4744W        W 8263   7.682   6.320  11.921  0.0506 -0.1663 -0.4781
 4745W        W 8264   3.260   2.786   9.834 -0.1198 -0.0863 -0.0175
 4746W        W 8265   1.721   2.052   0.192 -0.0188 -0.0502  0.0278
 4747W        W 8266   9.367   8.910  10.003 -0.0896  0.0625  0.1809
 4748W        W 8267   6.885   4.447   4.567 -0.1828 -0.2416  0.1848
 4749W        W 8268   6.874   0.137  11.076  0.4343 -0.3558  0.0953
 4750W        W 8269   3.012   4.467   3.282  0.2101 -0.0048 -0.0956
 4751W        W 8270   0.130   8.071   8.981 -0.2079  0.0607  0.0696
 4752W        W 8271   8.456   9.021   4.063 -0.4137 -0.0847 -0.1794
 4753W        W 8272   5.925   4.095   0.957 -0.3429  0.1802 -0.1056
 4754W        W 8273   7.567   7.385  11.541  0.0649  0.0559 -0.2945
 4755W        W 8274   8.931   8.541  11.646 -0.2236  0.1161  0.0954
 4756W        W 8275   8.234   8.498  11.743 -0.0584 -0.0355  0.1250
 4757W        W 8276   6.626   6.804   0.464 -0.1231 -0.1966 -0.0598
 4758W        W 8277   9.017   5.968   0.564 -0.2839  0.1692  0.1469
 4759W        W 8278   2.101   6.577   8.930 -0.0566 -0.1036  0.0054
 4760W        W 8279   2.114   3.078  10.804  0.1305  0.0982  0.1377
 4761W        W 8280   5.996   7.302   9.358 -0.2200  0.3281  0.0967
 4762W        W 8281   6.067   9.282   1.296 -0.1490  0.0418  0.0902
 4763W        W 8282   7.427   5.877  11.770  0.0459  0.1168  0.1698
 4764W        W 8283   4.035   1.273   2.248  0.0317  0.2988 -0.5758
 4765W        W 8284   9.195   7.064   0.127 -0.0214  0.3549  0.0931
 4766W        W 8285   2.928   8.034  10.660 -0.0562  0.1876  0.1322
 4767W        W 8286   3.777   5.352  10.670 -0.1775  0.0008 -0.1813
 4768W        W 8287   7.135   5.798   1.425 -0.2589 -0.0618  0.0996
 4769W        W 8288   1.989   5.432   3.805 -0.2964  0.1828  0.0779
 4770W        W 8289   1.801   3.935  10.873 -0.2974  0.1265 -0.1088
 4771W        W 8290   4.380   5.708   2.615  0.1402  0.0878 -0.1348
 4772W        W 8291   4.975   4.656   8.940 -0.0069 -0.1720  0.1495
 4773W        W 8292   2.447   2.457  10.893  0.1789  0.3342  0.2977
 4774W        W 8293   8.536   2.133   3.726  0.1490 -0.1087 -0.0219
 4775W        W 8294   6.455   2.162   2.984 -0.0659 -0.1453  0.0311
 4776W        W 8295   4.759   8.454  11.966  0.3383  0.0116  0.0001
 4777W        W 8296   3.000   4.621  10.348 -0.0540 -0.0886 -0.1896
 4778W        W 8297   7.123   4.114   3.149 -0.1992  0.2809  0.0494
 4779W        W 8298   9.461   2.395   2.985  0.0133  0.0314  0.2767
 4780W        W 8299   1.986   1.825   1.163 -0.1414  0.2270 -0.0885
 4781W        W 8300   2.636   8.189   2.617  0.0356 -0.0933  0.1084
 4782W        W 8301   8.461   0.457  10.335  0.0020  0.1440 -0.0634
 4783W        W 8302   7.246   3.101  12.007 -0.0643  0.2008 -0.0995
 4784W        W 8303   3.560   0.765  11.790  0.1104  0.3127  0.0234
 4785W        W 8304   8.871   7.117   9.730  0.2908 -0.1124  0.2842
 4786W        W 8305   7.806   5.157   1.305 -0.3378 -0.1471  0.3690
 4787W        W 8306   3.107   9.530   4.571 -0.3896 -0.1125  0.1443
 4788W        W 8307   5.766   4.061  11.381  0.0676  0.3985  0.0168
 4789W        W 8308   7.362   1.282  11.533 -0.3054  0.1762 -0.0593
 4790W        W 8309   9.688   5.594   9.120  0.1974  0.0038 -0.3255
 4791W        W 8310   0.055   8.587   3.047 -0.2255  0.0304  0.2286
 4792W        W 8311   0.197   3.705   2.456  0.0885 -0.1318  0.0466
 4793W        W 8312   6.678   5.746  11.332 -0.1575  0.1426 -0.2011
 4794W        W 8313   0.327   0.227  10.080 -0.2967 -0.0885 -0.2004
 4795W        W 8314   2.371   5.445   1.259  0.0020  0.3858 -0.1523
 4796W        W 8315   2.127   4.125   2.686 -0.3217 -0.0311 -0.1392
 4797W        W 8316   7.148   4.584  10.172  0.0570  0.0375  0.1529
 4798W        W 8317   2.929   9.596  11.240  0.0342 -0.1398  0.1671
 4799W        W 8318   1.335   6.597   1.773  0.3932 -0.1309  0.0973
 4800W        W 8319   1.832   2.587   8.420  0.0482 -0.1409 -0.0973
 4801W        W 8320   4.519   7.046   1.871  0.0101 -0.1828  0.4177
 4802W        W 8321   3.228   3.061  11.346 -0.1002  0.5083 -0.2419
 4803W        W 8322   0.283   5.567   1.152 -0.2568 -0.0161  0.0458
 4804W        W 8323   6.774   2.197   0.726 -0.3236  0.0804 -0.0332
 4805W        W 8324   1.108   7.215   0.874 -0.1536  0.0534 -0.0068
 4806W        W 8325   5.876   6.015   9.858  0.3117  0.1533  0.1028
 4807W        W 8326   1.369   5.569   3.545  0.0240 -0.1374 -0.0008
 4808W        W 8327   3.913   4.210  11.771  0.0755  0.2074 -0.2170
 4809W        W 8328   0.128   6.759   3.123 -0.1113  0.2754 -0.0524
 4810W        W 8329   6.235   5.407   3.749  0.1373 -0.0459  0.2163
 4811W        W 8330   4.384   8.659   9.936 -0.0585 -0.2993 -0.2061
 4812W        W 8331   4.748   7.057   3.329 -0.0141 -0.3492  0.4148
 4813W        W 8332   5.936   0.787   9.310  0.1292  0.0011  0.0206
 4814W        W 8333   6.473   0.193  10.727  0.0758 -0.0663 -0.2381
 4815W        W 8334   9.355   8.986  12.362 -0.0958  0.0446 -0.2259
 4816W        W 8335   8.297   9.496  11.522  0.2327 -0.0668  0.0841
 4817W        W 8336   3.290   5.627  11.889  0.2561  0.1936 -0.0498
 4818W        W 8337   0.227   6.250   0.626 -0.1940 -0.1807 -0.0729
 4819W        W 8338   3.376   6.009   8.298 -0.1586 -0.3088  0.3103
 4820W        W 8339   7.417   5.283  12.055 -0.2539 -0.2224 -0.0428
 4821W        W 8340   8.577   2.740   8.950 -0.2059  0.1488  0.2144
 4822W        W 8341   3.057   0.771   0.274  0.0858 -0.4220 -0.1956
 4823W        W 8342   6.691   6.729   3.575 -0.2425  0.0649 -0.2242
 4824W        W 8343   4.246   3.427   1.018  0.0137  0.0991  0.1805
 4825W        W 8344   2.889   2.981  12.202  0.0739  0.1755  0.0593
 4826W        W 8345   8.042   3.265  11.623  0.2124  0.0383  0.0939
 4827W        W 8346   4.719   8.098   3.820 -0.0647  0.0099 -0.0777
 4828W        W 8347   2.542   6.028   1.916  0.0385 -0.3916 -0.0094
 4829W        W 8348   5.020   8.410   3.425  0.0811 -0.2174 -0.0867
 4830W        W 8349   4.974   1.019   0.280 -0.0195  0.1037  0.0908
 4831W        W 8350   3.341   1.782   8.569 -0.2491 -0.2265 -0.1152
 4832W        W 8351   9.600   1.330  11.157  0.1715 -0.2769  0.2355
 4833W        W 8352   3.462   4.974   3.351  0.0378  0.3291 -0.0729
 4834W        W 8353   0.017   0.520   9.120  0.1198 -0.0429 -0.0296
 4835W        W 8354   9.598   1.643  12.096 -0.0322 -0.1726  0.1802
 4836W        W 8355   6.765   0.566   3.834  0.0498 -0.1022  0.2390
 4837W        W 8356   6.471   7.741   9.985  0.1808 -0.0481  0.2645
 4838W        W 8357   0.569   9.395   7.935 -0.3615 -0.1236  0.0621
 4839W        W 8358   2.060   2.152  10.358  0.0442 -0.0325  0.0296
 4840W        W 8359   9.552   5.419  12.279  0.0798 -0.0700  0.0914
 4841W        W 8360   5.179   3.997  10.660  0.0589  0.1565 -0.1554
 4842W        W 8361   2.560   9.278   8.357  0.0526 -0.2288 -0.2093
 4843W        W 8362   4.235   6.477  11.700 -0.1277 -0.0193  0.3124
 4844W        W 8363   2.768   5.342   8.346  0.0156  0.0296 -0.2505
 4845W        W 8364   4.273   9.031   9.664 -0.1882 -0.0814  0.1546
 4846W        W 8365   2.941   9.728  10.716 -0.0867  0.1319 -0.0072
 4847W        W 8366   9.173   8.104   8.796 -0.1091 -0.1990  0.1714
 4848W        W 8367   5.343   9.147   0.672 -0.1268 -0.1092  0.4845
 4849W        W 8368   2.304   1.196   2.304  0.0720 -0.2366 -0.2840
 4850W        W 8369   6.110   4.681  10.226 -0.0764 -0.0462 -0.0283
 4851W        W 8370   0.440   5.901   9.889  0.0179 -0.3077  0.2438
 4852W        W 8371   8.606   7.424   8.881  0.2492 -0.0854  0.0915
 4853W        W 8372   0.789   7.502   2.827 -0.1552 -0.0235 -0.2953
 4854W        W 8373   1.011   8.773  11.719 -0.0520 -0.0287  0.1069
 4855W        W 8374   8.270   5.130   8.694 -0.1996 -0.0536  0.3526
 4856W        W 8375   8.351   7.936   2.456 -0.1011 -0.1625  0.0203
 4857W        W 8376   7.421   7.075   0.682  0.0587  0.1522 -0.1488
 4858W        W 8377   8.895   6.475   4.094 -0.0868  0.0589  0.0348
 4859W        W 8378   8.062   5.543   9.911  0.2647  0.1838  0.1889
 4860W        W 8379   4.302   9.398   4.047  0.0381  0.2845  0.0145
 4861W        W 8380   4.717   8.607   1.246 -0.0042 -0.3791 -0.0867
 4862W        W 8381   5.994   2.242   8.894 -0.0951  0.0708 -0.0389
 4863W        W 8382   4.411   1.137   3.920  0.1702 -0.3211  0.0938
 4864W        W 8383   3.640   6.807   0.989  0.0527 -0.2172 -0.0309
 4865W        W 8384   2.171   4.639   8.129  0.0172 -0.0635 -0.0609
 4866W        W 8385   1.457   5.679   2.600  0.0106 -0.2258  0.0712
 4867W        W 8386   0.591   0.022  10.396 -0.1596 -0.1067  0.1611
 4868W        W 8387   6.551   1.286  11.118  0.1547  0.0372  0.2600
 4869W        W 8388   3.566   0.317  10.833 -0.2789 -0.0048  0.0034
 4870W        W 8389   1.875   2.230  11.487 -0.0300  0.0922  0.2210
 4871W        W 8390   6.615   5.744   8.795 -0.2157 -0.0105  0.4429
 4872W        W 8391   5.198   7.870   0.927 -0.1341  0.0132  0.2918
 4873W        W 8392   2.258   6.521   1.128  0.0666  0.0001 -0.2068
 4874W        W 8393   4.814   6.575  10.253  0.1134  0.1601 -0.2573
 4875W        W 8394   4.266   5.457  11.277  0.0960 -0.0202 -0.4134
 4876W        W 8395   6.538   8.231  10.628  0.0444  0.3993 -0.2330
 4877W        W 8396   5.977   8.343   0.619 -0.1097 -0.0600 -0.0595
 4878W        W 8397   5.375   6.050   1.897 -0.0776 -0.0656  0.3147
 4879W        W 8398   4.224   4.501   8.488  0.2427  0.0953  0.2191
 4880W        W 8399   8.910   5.436   0.379  0.0700 -0.5144 -0.2526
 4881W        W 8400   6.349   4.826   0.410 -0.2168 -0.0522 -0.3614
 4882W        W 8401   1.211   4.133   0.914 -0.2943 -0.0004 -0.2245
 4883W        W 8402   0.550   0.054   9.681 -0.2783  0.1175 -0.0016
 4884W        W 8403   8.180   5.383   3.482  0.0460  0.1817  0.0958
 4885W        W 8404   5.361   7.895  10.773  0.0840 -0.1643 -0.3146
 4886W        W 8405   9.172   1.655   1.080 -0.2968 -0.2620 -0.3719
 4887W        W 8406   7.263   1.337   0.971  0.1084 -0.1743 -0.1943
 4888W        W 8407   0.052   6.892  11.679  0.0071  0.1750 -0.0802
 4889W        W 8408   3.741   2.294   0.725  0.3943  0.1388 -0.4449
 4890W        W 8409   9.685   6.726   2.559  0.1187  0.0638 -0.0601
 4891W        W 8410   1.693   3.877   2.593  0.1542  0.2395 -0.0537
 4892W        W 8411   7.598   3.280  10.387 -0.1611  0.0369 -0.2936
 4893W        W 8412   9.005   5.259   2.333 -0.3364 -0.1078  0.0536
 4894W        W 8413   0.628   9.350   9.230  0.0947  0.1534 -0.1692
 4895W        W 8414   6.837   6.299   2.232 -0.4096  0.1271  0.0579
 4896W        W 8415   5.519   5.705   9.779  0.1171  0.3022 -0.1244
 4897W        W 8416   3.271   4.434  10.770 -0.2564  0.2377  0.4188
 4898W        W 8417   6.404   1.604  11.960  0.0882 -0.1450 -0.2526
 4899W        W 8418   0.221   3.683   8.527  0.0549 -0.0387 -0.2057
 4900W        W 8419   8.634   8.557   0.854  0.0475 -0.1255  0.2844
 4901W        W 8420   3.009   1.378   8.489  0.2405 -0.3495  0.2153
 4902W        W 8421   0.475   2.602  10.605 -0.2794  0.0173  0.0549
 4903W        W 8422   1.471   3.397   1.923  0.2606  0.0420 -0.2675
 4904W        W 8423   4.193   2.056   9.596 -0.0244 -0.1472 -0.2114
 4905W        W 8424   7.007   4.480   8.617 -0.1874 -0.2058  0.3431
 4906W        W 8425   1.737   5.699   2.000 -0.0423  0.1521  0.0286
 4907W        W 8426   5.085   5.538   3.414 -0.3079  0.0224 -0.3550
 4908W        W 8427   9.518   5.422   2.257  0.1932  0.0878  0.2511
 4909W        W 8428   5.445   8.952   1.722  0.0969 -0.2201  0.2605
 4910W        W 8429   8.017   5.591   1.363  0.0781 -0.0566 -0.1838
 4911W        W 8430   0.876   0.810   1.973  0.2758  0.1003  0.1523
 4912W        W 8431   6.187   8.778   1.391  0.3916  0.1617  0.1106
 4913W        W 8432   4.265   7.275  10.182  0.2758 -0.0663  0.1951
 4914W        W 8433   1.361   7.932  11.005  0.3500  0.1361 -0.1765
 4915W        W 8434   0.124   4.834   9.588  0.0164 -0.0749  0.2063
 4916W        W 8435   3.105   8.645   0.353  0.1298 -0.1951 -0.3147
 4917W        W 8436   8.547   0.429   1.865 -0.0817  0.2519  0.0512
 4918W        W 8437   3.238   7.614   1.296 -0.1283  0.2788  0.1027
 4919W        W 8438   2.887   3.487   1.254 -0.2465  0.0414 -0.2922
 4920W        W 8439   7.954   7.584  11.854 -0.0832 -0.0451  0.1647
 4921W        W 8440   4.137   1.257  12.324 -0.1318 -0.1677  0.1643
 4922W        W 8441   5.942   6.267   1.245 -0.1523 -0.1040  0.5296
 4923W        W 8442   2.845   2.201   3.833  0.2078 -0.3595 -0.0101
 4924W        W 8443   4.836   4.123  12.399 -0.1005 -0.3204  0.3812
 4925W        W 8444   5.830   4.870  11.316 -0.3950  0.2429 -0.0372
 4926W        W 8445   4.137   3.250   9.134  0.0728  0.0475 -0.2302
 4927W        W 8446   6.035   4.160   2.248 -0.1569 -0.0128  0.1639
 4928W        W 8447   0.561   8.146   3.609  0.0892  0.1204  0.0061
 4929W        W 8448   7.894   2.800  11.248  0.1269  0.2105 -0.1978
 4930W        W 8449   5.864   1.300   2.394  0.3805  0.3865 -0.0320
 4931W        W 8450   4.646   8.797   0.428  0.2665  0.0173  0.0366
 4932W        W 8451   5.388   0.554   3.593 -0.2643  0.1864 -0.0139
 4933W        W 8452   4.216   6.309   9.972  0.0187  0.4358  0.0268
 4934W        W 8453   2.478   1.991  10.143 -0.2959  0.1294  0.1907
 4935W        W 8454   6.594   3.073   0.159  0.0007 -0.4945  0.1331
 4936W        W 8455   8.105   1.943   3.960 -0.2554  0.1125 -0.0320
 4937W        W 8456   6.401   6.107  12.384  0.2557  0.0642  0.0152
 4938W        W 8457   9.475   0.202   3.762  0.0126  0.2370  0.1536
 4939W        W 8458   6.501   7.033   3.960 -0.1359  0.3168 -0.1533
 4940W        W 8459   3.749   1.189  11.493  0.1084  0.0096  0.0110
 4941W        W 8460   4.528   2.784   2.001 -0.0205  0.1129 -0.0163
 4942W        W 8461   2.641   8.535   2.179 -0.1095 -0.0683  0.3757
 4943W        W 8462   6.279   3.738  10.743  0.0659 -0.1389  0.0975
 4944W        W 8463   4.210   6.164   9.486 -0.1617 -0.3697  0.0396
 4945W        W 8464   8.717   7.110   1.347  0.1001 -0.1132  0.1913
 4946W        W 8465   8.079   4.117   2.469 -0.3469 -0.1405 -0.0380
 4947W        W 8466   7.115   8.914   0.377 -0.0330 -0.1382 -0.1491
 4948W        W 8467   9.618   5.062   4.502 -0.0144 -0.2936 -0.2449
 4949W        W 8468   8.819   8.804  10.996 -0.0732  0.2441 -0.0639
 4950W        W 8469   3.668   7.629   3.321 -0.0988 -0.0438  0.0240
 4951W        W 8470   8.513   0.323   0.186 -0.0759 -0.0750 -0.1054
 4952W        W 8471   9.583   1.938   7.494  0.2755 -0.0706  0.0318
 4953W        W 8472   0.665   2.105   2.479  0.4817  0.1690  0.0151
 4954W        W 8473   3.405   5.959   0.078 -0.0282  0.0323  0.2795
 4955W        W 8474   2.570   8.072   0.879 -0.3973 -0.1124  0.3125
 4956W        W 8475   3.658   6.361   3.692  0.1751 -0.4475  0.3939
 4957W        W 8476   0.840   3.299  11.112 -0.1318 -0.1935 -0.1861
 4958W        W 8477   3.788   3.557   1.837 -0.2140 -0.3393 -0.1972
 4959W        W 8478   6.491   2.438  10.882 -0.1249  0.0643 -0.3792
 4960W        W 8479   8.231   3.996  10.270 -0.1404 -0.0318 -0.0699
 4961W        W 8480   5.240   5.738   2.326  0.2362 -0.1931 -0.0961
 4962W        W 8481   3.723   6.343   1.279  0.2544  0.2478  0.2937
 4963W        W 8482   3.290   7.081  11.711  0.3064  0.2455  0.1348
 4964W        W 8483   0.156   4.632  11.103 -0.0853  0.1809 -0.0510
 4965W        W 8484   5.941   1.812  10.822  0.0133  0.0848  0.1914
 4966W        W 8485   3.111   7.104   9.550  0.1128  0.1390 -0.0409
 4967W        W 8486   2.299   9.371   0.035  0.2522  0.4308  0.2238
 4968W        W 8487   5.500   6.495  12.246  0.1507  0.0425  0.1847
 4969W        W 8488   0.210   8.156  11.384 -0.0060  0.0690 -0.1509
 4970W        W 8489   8.628   5.378  12.371  0.0642  0.0658 -0.0963
 4971W        W 8490   7.531   6.900   1.917 -0.0663 -0.0122  0.1546
 4972W        W 8491   0.880   8.733   1.892  0.2099  0.0325 -0.2523
 4973W        W 8492   1.877   5.705  12.339  0.4673  0.0683 -0.1007
 4974W        W 8493   2.691   2.622   2.343  0.1708  0.0364 -0.2327
 4975W        W 8494   0.482   3.259   8.595 -0.0986 -0.0144  0.3917
 4976W        W 8495   7.358   1.366   2.765  0.0130  0.0833 -0.0139
 4977W        W 8496   9.468   2.414   0.063  0.0535  0.0831 -0.0065
 4978W        W 8497   5.348   1.168  11.214 -0.1994 -0.0351  0.0729
 4979W        W 8498   7.892   6.439   1.221  0.2162  0.2750 -0.1427
 4980W        W 8499   7.190   5.779  11.258  0.0038 -0.1275 -0.2734
 4981W        W 8500   0.951   1.622  12.228 -0.0397  0.1238  0.3552
 4982W        W 8501   1.966   2.497   1.862  0.4941  0.2923 -0.0916
 4983W        W 8502   5.769   4.843   1.129  0.2299 -0.0422  0.1374
 4984W        W 8503   8.526   4.945   8.276  0.0540  0.1009  0.2108
 4985W        W 8504   0.874   8.865   2.952  0.4510 -0.0124  0.0257
 4986W        W 8505   6.898   4.442   2.826  0.1981 -0.2661  0.2886
 4987W        W 8506   3.085   8.600   1.169  0.1195 -0.2389  0.0125
 4988W        W 8507   0.986   9.086   3.954  0.0074  0.2593  0.0927
 4989W        W 8508   0.861   1.645  11.392  0.2361  0.1412  0.1818
 4990W        W 8509   1.165   4.439  10.529  0.3604  0.1594  0.1833
 4991W        W 8510   5.225   7.294   8.600  0.0047 -0.1700  0.3294
 4992W        W 8511   6.855   7.897   3.799 -0.2201 -0.3266  0.0058
 4993W        W 8512   6.127   6.408  10.147  0.0173  0.0813  0.1694
 4994W        W 8513   8.394   4.221   3.533 -0.1542 -0.1255  0.0367
 4995W        W 8514   5.899   2.844   0.740  0.1718  0.3216  0.0866
 4996W        W 8515   3.378   3.224   3.292 -0.1621 -0.1494  0.2931
 4997W        W 8516   9.643   0.475   7.717 -0.1642  0.0954  0.2944
 4998W        W 8517   1.110   5.494   0.781 -0.0327 -0.2217  0.2550
 4999W        W 8518   8.533   9.638   8.887 -0.1069  0.0629  0.2882
 5000W        W 8519   3.616   5.307   1.539  0.2854 -0.2022  0.0468
 5001W        W 8520   6.313   5.905   2.062 -0.0596  0.0746  0.0045
 5002W        W 8521   1.007   5.117   1.651 -0.3337  0.2661 -0.0625
 5003W        W 8522   7.779   5.763   0.233 -0.3041  0.0818  0.1344
 5004W        W 8523   0.629   3.663  10.742 -0.0292 -0.0207 -0.3728
 5005W        W 8524   8.773   2.849   0.606  0.0890 -0.0264  0.2714
 5006W        W 8525   3.246   4.217   1.748  0.0735  0.0509 -0.1869
 5007W        W 8526   4.659   2.485   0.165  0.2826 -0.1645 -0.0294
 5008W        W 8527   2.498   2.640   8.983  0.1055  0.3208 -0.2719
 5009W        W 8528   7.161   6.663  11.455 -0.1646  0.3093 -0.3265
 5010W        W 8529   3.630   9.180   0.489 -0.2887 -0.2059 -0.1048
 5011W        W 8530   1.036   5.622   4.598 -0.1141 -0.0968  0.1451
 5012W        W 8531   0.456   1.373  11.347  0.2033  0.1220  0.3062
 5013W        W 8532   8.035   9.224   2.690 -0.0766 -0.2410  0.3153
 5014W        W 8533   0.785   4.386   3.497  0.0740 -0.3144 -0.0774
 5015W        W 8534   5.941   4.126  10.557  0.0840  0.1895 -0.1506
 5016W        W 8535   1.238   7.006  11.832  0.0140  0.1119 -0.1067
 5017W        W 8536   0.575   0.954  12.033  0.3937  0.0694  0.1693
 5018W        W 8537   1.956   5.861   2.759 -0.1550  0.1986  0.0408
 5019W        W 8538   7.134   0.253   3.983  0.1444 -0.0598  0.1820
 5020W        W 8539   4.563   9.008  10.369 -0.0113 -0.1182 -0.1405
 5021W        W 8540   8.904   0.907   7.706  0.0397  0.1381 -0.3093
 5022W        W 8541   4.485   5.945  11.598 -0.1902 -0.0269 -0.1804
 5023W        W 8542   5.835   2.928  10.893  0.3267 -0.1511  0.0942
 5024W        W 8543   1.608   6.074   0.224  0.2045 -0.0641 -0.0813
 5025W        W 8544   8.430   8.033   4.811  0.1749  0.0397  0.1884
 5026W        W 8545   6.057   4.503   3.492 -0.1815 -0.3085 -0.1762
 5027W        W 8546   1.738   4.858  12.094  0.0421 -0.0520  0.1274
 5028W        W 8547   2.403   7.980  10.520 -0.0102  0.0960  0.2789
 5029W        W 8548   4.501   5.073   0.287 -0.1297 -0.0504 -0.1806
 5030W        W 8549   0.163   7.648   4.172 -0.3390  0.1261  0.1286
 5031W        W 8550   3.523   4.407  11.390  0.0957  0.2471  0.2406
 5032W        W 8551   1.153   5.280   9.680 -0.2262  0.1122  0.2368
 5033W        W 8552   5.910   5.769   1.221  0.0451 -0.0500 -0.0262
 5034W        W 8553   7.686   9.528   8.807 -0.0553  0.0206 -0.1528
 5035W        W 8554   0.352   6.098   8.344  0.3142  0.0595 -0.0473
 5036W        W 8555   2.031   5.004  11.687  0.0042 -0.0156  0.0656
 5037W        W 8556   9.545   8.862   0.969  0.0145 -0.2405  0.0358
 5038W        W 8557   1.013   1.413   2.786 -0.0097 -0.0058 -0.1581
 5039W        W 8558   8.486   4.358  11.017 -0.0589  0.1991  0.0299
 5040W        W 8559   0.532   4.937   3.304  0.0755  0.1999 -0.1342
 5041W        W 8560   8.858   3.576   2.526 -0.1460  0.0561 -0.1046
 5042W        W 8561   3.623   5.709   8.742 -0.6281  0.1887 -0.2189
 5043W        W 8562   0.549   1.335   1.383  0.1206 -0.0497 -0.2585
 5044W        W 8563   7.311   1.880   9.265  0.3243 -0.0361 -0.0425
 5045W        W 8564   9.177   1.507   0.530  0.0619  0.3467 -0.1282
 5046W        W 8565   3.030   2.341  11.386 -0.0573  0.3848 -0.0553
 5047W        W 8566   6.806   6.992   3.056 -0.2147 -0.0291  0.1410
 5048W        W 8567   6.609   6.205  11.260  0.1132  0.0090  0.0772
 5049W        W 8568   1.736   0.594   9.452  0.0932  0.0259 -0.0500
 5050W        W 8569   1.196   8.609   0.761 -0.0324  0.0907  0.0109
 5051W        W 8570   4.809   0.903   2.972  0.0847 -0.0750 -0.0085
 5052W        W 8571   1.516   6.180  10.603  0.0132 -0.0468  0.1063
 5053W        W 8572   9.035   9.057   0.899 -0.0407  0.1216 -0.2045
 5054W        W 8573   5.881   7.591   2.252  0.0387  0.0130  0.0704
 5055W        W 8574   0.545   4.031   1.501 -0.2932  0.0011  0.1602
 5056W        W 8575   6.839   3.507  10.883  0.4612 -0.1132 -0.1564
 5057W        W 8576   0.258   1.547   8.310  0.0815  0.0015 -0.1075
 5058W        W 8577   3.172   0.281  11.146 -0.0094 -0.0680 -0.1028
 5059W        W 8578   8.902   7.781   8.582 -0.1787  0.1365 -0.0745
 5060W        W 8579   3.629   9.706   2.126 -0.0797  0.2015  0.1801
 5061W        W 8580   3.040   8.163  11.617  0.0839  0.2373 -0.0047
 5062W        W 8581   8.856   8.087   2.488  0.1108  0.1352  0.1152
 5063W        W 8582   3.635   0.875   1.584  0.0720 -0.2766 -0.3130
 5064W        W 8583   6.752   5.911   1.157 -0.1561  0.0277 -0.0923
 5065W        W 8584   1.884   4.229   1.763  0.3293  0.0924 -0.2145
 5066W        W 8585   8.474   6.149   3.951  0.0588  0.0712 -0.1380
 5067W        W 8586   8.300   1.769   0.828 -0.0654  0.0018  0.0703
 5068W        W 8587   9.030   1.053   1.744 -0.0755  0.0797  0.0903
 5069W        W 8588   6.281   8.695   1.934  0.0974 -0.2960  0.1322
 5070W        W 8589   3.782   6.485  11.813 -0.2700 -0.1962 -0.0697
 5071W        W 8590   0.065   8.496   1.298  0.0711  0.1353  0.0156
 5072W        W 8591   2.477   4.959  10.131  0.3535  0.3241  0.3233
 5073W        W 8592   5.443   0.125   3.212 -0.1367 -0.0596 -0.0354
 5074W        W 8593   1.493   6.478   3.786 -0.1557 -0.0413  0.1762
 5075W        W 8594   9.742   4.631   2.170  0.0028 -0.0028 -0.3080
 5076W        W 8595   8.202   3.712  11.386 -0.3619  0.0846 -0.2253
 5077W        W 8596   9.331   3.845   1.688  0.1674 -0.1983 -0.2985
 5078W        W 8597   6.901   8.795  11.288  0.0103 -0.2188  0.2495
 5079W        W 8598   3.728   2.349   3.162  0.0657 -0.1127  0.2218
 5080W        W 8599   1.794   7.229   2.087  0.1042  0.0830  0.0711
 5081W        W 8600   5.553   7.490   8.970  0.3408  0.1642  0.0312
 5082W        W 8601   9.733   7.998   0.466  0.2341  0.0335 -0.1627
 5083W        W 8602   0.844   6.685  12.079  0.2861 -0.0849 -0.1186
 5084W        W 8603   7.723   4.174  10.127 -0.1818 -0.0291  0.0852
 5085W        W 8604   0.755   9.191   0.307 -0.1209 -0.1619  0.0757
 5086W        W 8605   7.543   3.638  10.057  0.0994 -0.1783  0.1294
 5087W        W 8606   6.526   9.138   1.545  0.1470 -0.0881  0.3426
 5088W        W 8607   9.523   4.051   2.545  0.1060 -0.2007  0.2546
 5089W        W 8608   8.172   8.243   0.677 -0.1534  0.1290  0.0120
 5090W        W 8609   5.246   0.217  11.423 -0.0063 -0.0779  0.0018
 5091W        W 8610   9.645   9.486   3.540 -0.1555  0.0107  0.0234
 5092W        W 8611   2.712   3.913   2.123 -0.0476  0.2559 -0.0307
 5093W        W 8612   1.704   4.628  11.655  0.1579  0.1450 -0.2576
 5094W        W 8613   3.916   5.477  11.624  0.1915  0.1207 -0.1969
 5095W        W 8614   1.625   1.822  10.391  0.0447 -0.0810  0.0417
 5096W        W 8615   3.361   4.805  10.015 -0.1366  0.0939 -0.2028
 5097W        W 8616   2.630   1.571   2.213  0.1930  0.1098  0.0004
 5098W        W 8617   5.987   5.037   3.483 -0.1187  0.2345  0.4013
 5099W        W 8618   1.063   7.202   1.816  0.1899 -0.1849 -0.1756
 5100W        W 8619   0.252   1.905   0.586 -0.4997 -0.0726 -0.1937
 5101W        W 8620   3.002   1.792   3.507 -0.0036 -0.0083 -0.1266
 5102W        W 8621   0.604   3.848  11.233 -0.0752 -0.0000  0.1918
 5103W        W 8622   7.264   0.218   2.578 -0.0920 -0.0463 -0.1173
 5104W        W 8623   3.539   3.835   9.449  0.4764 -0.0552  0.1620
 5105W        W 8624   0.514   3.519   9.191  0.1889  0.1424  0.0084
 5106W        W 8625   5.285   4.491   1.042  0.1115 -0.0478 -0.0182
 5107W        W 8626   0.247   6.896   1.144  0.1573  0.4945 -0.2733
 5108W        W 8627   5.446   7.190   8.162 -0.3481  0.0158  0.2245
 5109W        W 8628   1.440   7.934   1.937  0.0421 -0.0603 -0.2376
 5110W        W 8629   8.637   1.125  11.970 -0.0247  0.2254  0.0362
 5111W        W 8630   4.404   6.274   8.842 -0.1052 -0.0767 -0.0750
 5112W        W 8631   3.166   3.370  12.348 -0.0063 -0.1158 -0.1130
 5113W        W 8632   5.906   6.857   9.982 -0.1333  0.2624 -0.0613
 5114W        W 8633   2.474   9.131  11.920  0.0864  0.0109  0.1479
 5115W        W 8634   6.787   6.761   9.718 -0.1457  0.0716 -0.1329
 5116W        W 8635   5.704   5.724   8.522  0.0152  0.1336 -0.1569
 5117W        W 8636   4.700   7.394   9.953  0.4262 -0.0700 -0.0813
 5118W        W 8637   9.387   4.186   9.845 -0.1787  0.0983  0.0568
 5119W        W 8638   9.123   7.033  12.043 -0.2362  0.2920  0.1982
 5120W        W 8639   4.548   2.494  11.829  0.1659  0.3345 -0.1911
 5121W        W 8640   1.194   9.130  12.098 -0.0751 -0.1304 -0.2274
 5122W        W 8641   5.977   3.185   2.007  0.1899  0.0175 -0.0627
 5123W        W 8642   7.505   8.461   1.492 -0.0224 -0.3776 -0.0739
 5124W        W 8643   8.526   3.573  10.307 -0.0667 -0.1974 -0.0129
 5125W        W 8644   7.297   7.783   2.926 -0.0577  0.1736 -0.2207
 5126W        W 8645   6.861   3.671   1.913 -0.2636 -0.1254  0.5267
 5127W        W 8646   4.888   4.153   1.015 -0.0326 -0.0400 -0.0087
 5128W        W 8647   7.654   2.870  11.723  0.1018  0.1899 -0.0433
 5129W        W 8648   4.993   6.578   3.393 -0.0169  0.1184 -0.1181
 5130W        W 8649   2.010   3.812   0.531  0.3752  0.0150  0.2365
 5131W        W 8650   5.722   1.872   0.872  0.0417 -0.1393  0.1685
 5132W        W 8651   5.540   0.754   0.222  0.1152  0.1996  0.1882
 5133W        W 8652   9.124   9.478   1.677  0.0907  0.1993  0.2476
 5134W        W 8653   1.028   5.803   9.472 -0.1831 -0.0273 -0.0427
 5135W        W 8654   4.776   4.642   0.391 -0.1786  0.1581  0.0602
 5136W        W 8655   3.109   5.285   2.842  0.1097  0.2247 -0.0659
 5137W        W 8656   7.096   6.286  11.084  0.1877  0.3866 -0.0495
 5138W        W 8657   5.972   3.035   9.658  0.0443  0.0954  0.0349
 5139W        W 8658   3.571   3.966  10.648  0.0773 -0.0359 -0.2455
 5140W        W 8659   7.346   8.563   0.623 -0.0728 -0.0161  0.3101
 5141W        W 8660   0.202   7.371  10.730 -0.1421  0.0183  0.1593
 5142W        W 8661   9.221   3.834  10.689 -0.2064 -0.0713  0.0018
 5143W        W 8662   4.608   2.967   2.917  0.0452 -0.0663 -0.3328
 5144W        W 8663   7.673   3.784   2.509  0.0835  0.0304 -0.1023
 5145W        W 8664   8.371   5.990   0.024  0.0722  0.0724 -0.0087
 5146W        W 8665   1.941   5.631   1.014  0.1322  0.0402  0.1949
 5147W        W 8666   5.934   4.872  12.348  0.1200  0.1934 -0.1050
 5148W        W 8667   9.149   2.727   2.750  0.2284 -0.3214 -0.1094
 5149W        W 8668   8.280   0.054   9.341 -0.0259  0.1525 -0.0354
 5150W        W 8669   2.624   1.612   8.181 -0.0468 -0.1431  0.1229
 5151W        W 8670   1.123   4.648   9.562  0.1496 -0.2227 -0.1265
 5152W        W 8671   2.398   5.540  11.372  0.2865 -0.0675  0.0786
 5153W        W 8672   5.686   7.719  10.411 -0.1695 -0.0213 -0.2013
 5154W        W 8673   4.406   9.540   2.253  0.1689 -0.0578 -0.1994
 5155W        W 8674   6.139   4.076   8.569  0.0673  0.0083 -0.1852
 5156W        W 8675   5.176   1.016   9.692 -0.2575 -0.0829  0.0473
 5157W        W 8676   2.723   4.929   2.857  0.0207  0.0219 -0.0763
 5158W        W 8677   8.762   0.022  10.165  0.0145  0.0319 -0.0036
 5159W        W 8678   3.857   4.825  10.987  0.3796  0.1944 -0.0964
 5160W        W 8679   6.280   6.633   8.337 -0.2401 -0.0247  0.0992
 5161W        W 8680   0.205   1.359   2.713  0.0762  0.1333 -0.0387
 5162W        W 8681   2.792   2.890   9.359 -0.1163  0.3570 -0.3325
 5163W        W 8682   3.246   3.081   9.445  0.0470  0.1759  0.2298
 5164W        W 8683   3.073   7.726  10.258 -0.0398  0.1892  0.1763
 5165W        W 8684   0.004   6.564   4.819 -0.0450  0.0862 -0.0349
 5166W        W 8685   5.583   8.533   2.559  0.1296  0.2978  0.0563
 5167W        W 8686   9.161   2.109   1.525 -0.1711 -0.2450  0.1671
 5168W        W 8687   4.082   7.964   1.598 -0.0623 -0.1767 -0.1806
 5169W        W 8688   5.207   0.253   1.751 -0.0082  0.2418 -0.0163
 5170W        W 8689   3.806   2.572   9.624 -0.0538 -0.2096  0.0615
 5171W        W 8690   2.893   3.895  10.426 -0.2562 -0.0003  0.3686
 5172W        W 8691   3.433   4.216   0.547 -0.4627  0.0235  0.0364
 5173W        W 8692   5.924   7.815   3.663 -0.1769  0.2014  0.1532
 5174W        W 8693   2.807   4.442   1.547  0.1241  0.0432 -0.1569
 5175W        W 8694   6.593   9.107  11.639 -0.0846  0.0862 -0.0875
 5176W        W 8695   7.740   6.046   0.907 -0.1104 -0.1288  0.2188
 5177W        W 8696   9.615   0.832   9.582  0.0294 -0.0526  0.0156
 5178W        W 8697   7.354   3.048   2.819  0.0102 -0.0390 -0.1138
 5179W        W 8698   9.105   4.632   3.130 -0.3813 -0.2178  0.0754
 5180W        W 8699   9.370   6.939   9.695  0.1539 -0.1777  0.3340
 5181W        W 8700   0.037   8.697   0.470 -0.0921  0.1560 -0.2389
 5182W        W 8701   3.402   4.932   1.203 -0.2389 -0.0986 -0.0182
 5183W        W 8702   4.906   4.314   2.800 -0.3866 -0.1413 -0.2336
 5184W        W 8703   0.710   6.262   3.180  0.0789 -0.1856 -0.0394
 5185W        W 8704   8.429   8.811   3.184  0.1685 -0.0133 -0.1688
 5186W        W 8705   1.166   2.180  10.267  0.0635  0.0607 -0.0025
 5187W        W 8706   1.267   1.839   9.909 -0.1358  0.1484  0.2205
 5188W        W 8707   1.277   3.080  10.593  0.1519  0.0476  0.3379
 5189W        W 8708   3.691   9.429   8.461 -0.2197 -0.0567 -0.1352
 5190W        W 8709   7.635   0.455   3.062  0.4594 -0.4721  0.0420
 5191W        W 8710   4.465   4.514   8.951 -0.2032  0.1942 -0.1623
 5192W        W 8711   0.042   1.030  10.321  0.0865 -0.2572  0.2284
 5193W        W 8712   2.187   9.207  11.104  0.1219  0.0394  0.2487
 5194W        W 8713   4.385   3.031   2.424  0.3719  0.1746  0.0161
 5195W        W 8714   2.308   0.778   1.565 -0.0385 -0.1255  0.0258
 5196W        W 8715   4.755   3.160   8.968  0.3961 -0.2144 -0.2676
 5197W        W 8716   4.535   1.357   2.232  0.1179 -0.2487  0.1523
 5198W        W 8717   8.277   7.609   1.172 -0.1860  0.0298  0.0794
 5199W        W 8718   2.358   4.612   8.574 -0.0392 -0.0959 -0.2095
 5200W        W 8719   8.339   1.655  11.240  0.1200 -0.0069 -0.1542
 5201W        W 8720   7.964   8.026  12.178  0.2363 -0.0283 -0.1653
 5202W        W 8721   8.575   2.456  11.893 -0.1561  0.2612  0.2586
 5203W        W 8722   9.537   0.633   3.465  0.1617  0.0644  0.1089
 5204W        W 8723   7.737   1.247  12.101  0.0590 -0.0878 -0.1408
 5205W        W 8724   9.709   4.432   3.853  0.0046  0.0337  0.2023
 5206W        W 8725   0.557   8.816  11.945 -0.3480 -0.1350  0.1197
 5207W        W 8726   0.257   6.361  11.137 -0.2423 -0.0519  0.0078
 5208W        W 8727   4.276   5.586  12.009 -0.0487 -0.3306  0.2584
 5209W        W 8728   5.401   8.692   0.930 -0.3323 -0.0201 -0.0678
 5210W        W 8729   1.500   2.282   8.667  0.1281 -0.2167 -0.1817
 5211W        W 8730   9.419   7.996   8.048 -0.1407 -0.2208  0.0223
 5212W        W 8731   5.844   7.026  11.403  0.3116 -0.1639 -0.1472
 5213W        W 8732   6.109   3.180   3.253 -0.2433  0.1528  0.1677
 5214W        W 8733   9.336   1.404   3.929  0.0319 -0.1596 -0.1369
 5215W        W 8734   0.271   9.008   3.251 -0.2200 -0.2927  0.4995
 5216W        W 8735   0.693   1.314   8.262  0.2239 -0.0247 -0.2369
 5217W        W 8736   4.522   4.075   8.721  0.3517 -0.0138  0.2955
 5218W        W 8737   9.078   7.703   3.213 -0.1074 -0.0158  0.1322
 5219W        W 8738   4.870   0.794  10.461  0.2229  0.0894 -0.1301
 5220W        W 8739   5.441   8.297   1.842  0.0869 -0.1100  0.2390
 5221W        W 8740   4.146   4.558   7.840  0.0466  0.0732 -0.3521
 5222W        W 8741   5.014   2.513   2.331  0.2961 -0.0471  0.2973
 5223W        W 8742   1.749   8.820   3.656  0.1860 -0.3050 -0.1046
 5224W        W 8743   5.493   5.028   2.833  0.1172  0.1310  0.0717
 5225W        W 8744   3.107   6.416   3.792  0.3570 -0.0007  0.0760
 5226W        W 8745   6.716   7.798   2.317 -0.2379  0.0356  0.1277
 5227W        W 8746   9.377   1.008   9.223  0.1710 -0.1966  0.0733
 5228W        W 8747   8.004   8.325   1.521  0.0353 -0.1320  0.3691
 5229W        W 8748   2.874   1.483   1.335  0.0514  0.1967 -0.0232
 5230W        W 8749   2.468   0.772  10.930  0.0281  0.1439 -0.4495
 5231W        W 8750   4.822   2.718   0.996 -0.2162 -0.2401  0.0036
 5232W        W 8751   8.056   0.651   0.246  0.0122 -0.2031  0.1493
 5233W        W 8752   1.565   7.749   0.883  0.0807  0.3016  0.0248
 5234W        W 8753   8.746   3.092   1.618  0.1145 -0.1345  0.0434
 5235W        W 8754   8.577   1.446   1.417 -0.4266  0.1647 -0.0559
 5236W        W 8755   0.636   8.902  11.372 -0.2214 -0.2016  0.0207
 5237W        W 8756   8.337   0.587   0.657 -0.0964  0.2111  0.1193
 5238W        W 8757   0.834   3.621  12.195  0.2059 -0.0737 -0.4339
 5239W        W 8758   0.771   7.631  10.661 -0.1811  0.0852  0.1917
 5240W        W 8759   0.074   0.503   0.981  0.1456  0.1363 -0.1779
 5241W        W 8760   3.542   1.393   9.914  0.5125  0.1417  0.0257
 5242W        W 8761   1.603   0.072  10.059 -0.1500 -0.2643 -0.0871
 5243W        W 8762   7.390   1.773   9.722  0.2099  0.1262 -0.0770
 5244W        W 8763   2.119   3.840   8.287 -0.2104  0.2002  0.2922
 5245W        W 8764   7.697   0.129   2.169 -0.0601 -0.1558  0.1028
 5246W        W 8765   0.944   9.656   8.447  0.1162 -0.1154  0.3006
 5247W        W 8766   8.858   4.152   3.792  0.3738 -0.0256  0.2982
 5248W        W 8767   3.332   1.719   8.046  0.1548  0.2205 -0.1764
 5249W        W 8768   3.364   2.934  12.121 -0.3030  0.1265 -0.0855
 5250W        W 8769   8.650   1.739   8.943 -0.0482  0.1594  0.0834
 5251W        W 8770   4.722   2.348   1.936 -0.3121 -0.3281  0.1559
 5252W        W 8771   7.804   3.218   9.253  0.0140 -0.1523  0.0950
 5253W        W 8772   4.557   4.243   1.445 -0.0495  0.0034 -0.0361
 5254W        W 8773   6.985   2.222   0.146  0.1069 -0.2837 -0.1843
 5255W        W 8774   1.492   0.753   1.112 -0.0659 -0.0509  0.0643
 5256W        W 8775   3.875   8.055  11.010 -0.0105  0.1386 -0.2539
 5257W        W 8776   3.617   6.920   2.754 -0.2951  0.2173  0.0518
 5258W        W 8777   5.125   7.750   9.235  0.1595 -0.3167  0.0418
 5259W        W 8778   5.686   4.583   9.257 -0.0533 -0.1918 -0.0101
 5260W        W 8779   7.053   0.275   8.783 -0.0877 -0.6490 -0.3385
 5261W        W 8780   1.271   8.694   3.956 -0.0719 -0.1360 -0.0909
 5262W        W 8781   6.053   4.984   8.883  0.2215  0.0167  0.0068
 5263W        W 8782   3.349   9.630   9.852 -0.3148  0.0793  0.2020
 5264W        W 8783   9.697   0.388   2.097 -0.3296  0.0221 -0.0176
 5265W        W 8784   1.212   3.077   1.160 -0.1575 -0.1019 -0.1777
 5266W        W 8785   8.378   8.208  12.369 -0.0168 -0.0649 -0.1286
 5267W        W 8786   4.539   0.546   0.601 -0.2210 -0.1147 -0.0994
 5268W        W 8787   5.057   5.722   0.407 -0.3447  0.3806  0.0406
 5269W        W 8788   9.196   1.624  10.393 -0.0644  0.4245  0.0003
 5270W        W 8789   0.334   2.582   3.611  0.0963  0.0996 -0.2434
 5271W        W 8790   5.356   7.002   9.318 -0.0458 -0.1014  0.0356
 5272W        W 8791   9.556   3.047  10.479  0.2724 -0.1085  0.2623
 5273W        W 8792   2.545   4.490  12.375 -0.1414  0.0619  0.0077
 5274W        W 8793   2.220   3.609  10.651  0.0841 -0.2592  0.0379
 5275W        W 8794   3.848   9.288   2.219 -0.0539  0.2481  0.1106
 5276W        W 8795   3.467   8.139  12.406 -0.3463 -0.1552 -0.1359
 5277W        W 8796   8.148   8.055   3.096  0.1806  0.0419 -0.0726
 5278W        W 8797   0.720   2.372   1.702  0.1500 -0.1532 -0.1221
 5279W        W 8798   3.762   8.662   2.289 -0.1258 -0.0893 -0.2518
 5280W        W 8799   2.227   8.054   0.376  0.2020 -0.1851 -0.1133
 5281W        W 8800   8.967   7.442   4.145  0.0088 -0.3174  0.1371
 5282W        W 8801   2.143   8.857   1.024  0.0544  0.0082 -0.0251
 5283W        W 8802   1.004   2.408   2.161 -0.0361 -0.0303 -0.2370
 5284W        W 8803   2.086   3.524   8.696  0.1293  0.4940  0.0931
 5285W        W 8804   2.774   9.710   2.705 -0.0320  0.1090  0.0471
 5286W        W 8805   1.910   0.837  11.457  0.1671 -0.1632  0.0501
 5287W        W 8806   6.762   3.154  12.095 -0.3370  0.0528 -0.1882
 5288W        W 8807   7.552   5.615   1.189 -0.2968 -0.2591  0.0792
 5289W        W 8808   6.431   6.238   0.476  0.2842 -0.0324  0.1691
 5290W        W 8809   7.069   4.354  10.965  0.1051  0.0787  0.1308
 5291W        W 8810   1.683   8.600   1.010 -0.1375  0.0379  0.0572
 5292W        W 8811   8.129   0.203  12.196  0.0620  0.1207  0.2731
 5293W        W 8812   7.984   8.365  10.159  0.1466  0.0883  0.0404
 5294W        W 8813   0.436   1.230   8.869  0.0218 -0.1206 -0.4322
 5295W        W 8814   7.418   9.269   3.950 -0.3597  0.0942 -0.0019
 5296W        W 8815   7.226   8.916  10.282 -0.0808  0.2939  0.1331
 5297W        W 8816   4.439   9.261   0.589 -0.1283  0.0450 -0.2299
 5298W        W 8817   7.425   3.725   2.086  0.0639  0.0116  0.0234
 5299W        W 8818   3.330   6.878   0.004  0.1642  0.2859 -0.2001
 5300W        W 8819   5.472   0.092   1.297  0.0838  0.1786  0.1796
 5301W        W 8820   8.956   8.755   0.554 -0.1305  0.0196  0.0578
 5302W        W 8821   8.293   7.016  12.186  0.2137 -0.0357 -0.0223
 5303W        W 8822   2.930   9.312   1.245 -0.1119  0.2039 -0.0168
 5304W        W 8823   2.168   7.680  11.109  0.0392 -0.1088  0.0395
 5305W        W 8824   5.017   5.874   1.117 -0.5415 -0.3143 -0.3418
 5306W        W 8825   8.469   5.988   8.119 -0.0550 -0.0918  0.1402
 5307W        W 8826   1.576   5.232   8.432  0.1304 -0.0482 -0.2472
 5308W        W 8827   1.988   6.804   0.690 -0.0986 -0.2984 -0.1207
 5309W        W 8828   0.196   3.882  12.331 -0.0492 -0.2992 -0.1299
 5310W        W 8829   3.473   2.651   1.006 -0.2680  0.2171 -0.0862
 5311W        W 8830   1.465   1.480  11.955  0.0975 -0.2161 -0.1626
 5312W        W 8831   5.795   1.724   0.199  0.0694 -0.2883  0.0516
 5313W        W 8832   2.877   4.510   9.009 -0.0444 -0.0428 -0.1151
 5314W        W 8833   8.212   2.551  11.525  0.0548  0.2136 -0.3275
 5315W        W 8834   7.305   5.074   9.595  0.0962  0.0128 -0.3135
 5316W        W 8835   3.088   3.385   3.758 -0.0226 -0.0099 -0.1225
 5317W        W 8836   2.259   8.873   3.949  0.0280 -0.2716  0.0717
 5318W        W 8837   1.627   5.923  11.117  0.0764 -0.0623 -0.1300
 5319W        W 8838   1.538   7.074   0.470 -0.0541 -0.0124  0.1653
 5320W        W 8839   2.923   8.531   3.180  0.0233 -0.0363  0.3506
 5321W        W 8840   9.086   0.205   0.817  0.0602  0.0467  0.1891
 5322W        W 8841   4.068   4.575   9.311 -0.2104 -0.1565 -0.0054
 5323W        W 8842   4.552   0.387   2.272  0.1368  0.0866  0.0613
 5324W        W 8843   7.890   2.125   1.510  0.0408  0.2325  0.1221
 5325W        W 8844   1.339   5.084   0.570  0.0136  0.5812 -0.1608
 5326W        W 8845   3.167   1.109  11.663  0.0792 -0.0209  0.1849
 5327W        W 8846   6.053   5.300   0.417 -0.3528  0.1237 -0.0489
 5328W        W 8847   0.967   7.809   0.154 -0.0028  0.2376 -0.3852
 5329W        W 8848   6.121   5.954   4.682  0.0068  0.3729  0.3418
 5330W        W 8849   8.000   4.828   0.856  0.3235  0.0538 -0.1130
 5331W        W 8850   7.114   7.866   3.367  0.2058  0.2176 -0.3205
 5332W        W 8851   4.313   1.619   8.800 -0.1488 -0.3780  0.2532
 5333W        W 8852   5.161   8.489   2.245 -0.1219  0.0321 -0.4051
 5334W        W 8853   9.241   2.490  10.715  0.1046 -0.2232  0.1524
 5335W        W 8854   6.934   0.731   9.527 -0.0341  0.1915 -0.1185
 5336W        W 8855   9.037   3.381  10.869 -0.0105  0.2197  0.3306
 5337W        W 8856   5.441   7.997   3.648 -0.3132  0.1167  0.0294
 5338W        W 8857   3.333   1.170   0.176 -0.2828 -0.1969 -0.0231
 5339W        W 8858   9.443   6.291   2.468 -0.3812 -0.1500  0.2111
 5340W        W 8859   4.263   2.919   0.266  0.2383  0.2459  0.1057
 5341W        W 8860   8.098   7.612   4.152  0.0989 -0.0775  0.0383
 5342W        W 8861   3.782   1.991   2.410 -0.0079 -0.3273 -0.3073
 5343W        W 8862   3.585   3.224  11.665 -0.2283 -0.1329 -0.0764
 5344W        W 8863   7.925   4.020   1.044  0.1057  0.0216 -0.1872
 5345W        W 8864   7.186   8.896   8.218 -0.0743 -0.1400  0.0273
 5346W        W 8865   0.970   5.944   8.991  0.0295 -0.0468  0.0017
 5347W        W 8866   8.555   5.960  11.551 -0.2109 -0.0039  0.0640
 5348W        W 8867   6.491   8.986   3.834  0.1872  0.0820  0.2870
 5349W        W 8868   6.539   9.037   9.640 -0.1174  0.0806  0.0145
 5350W        W 8869   7.779   7.859  10.896 -0.0778 -0.0552  0.0228
 5351W        W 8870   6.388   4.537   1.836 -0.1677  0.0991  0.2041
 5352W        W 8871   3.709   2.690   3.624  0.3239  0.3087 -0.3100
 5353W        W 8872   8.277   7.346   9.290 -0.0177  0.1434  0.0388
 5354W        W 8873   0.780   4.467   1.696  0.0754 -0.1054 -0.2226
 5355W        W 8874   6.182   7.089   3.034 -0.0059 -0.3739  0.1724
 5356W        W 8875   6.091   5.948   8.102  0.1521  0.6044  0.3360
 5357W        W 8876   5.358   1.932   2.503 -0.3066  0.1820  0.0007
 5358W        W 8877   4.047   2.656   2.365 -0.4461 -0.1855  0.3032
 5359W        W 8878   1.716   8.192   8.798 -0.0022 -0.1342  0.2873
 5360W        W 8879   4.921   2.715  12.084 -0.1144 -0.0740  0.1633
 5361W        W 8880   6.513   3.461   0.895 -0.0237  0.0494 -0.1976
 5362W        W 8881   3.682   1.632  12.302 -0.3488 -0.0136 -0.1085
 5363W        W 8882   1.423   5.635   0.410  0.1145  0.1514  0.1136
 5364W        W 8883   3.228   2.256  10.826  0.1167 -0.1497 -0.0810
 5365W        W 8884   6.230   2.739   1.105  0.5141  0.1191  0.2347
 5366W        W 8885   9.684   3.936  10.799 -0.0685 -0.1993  0.1032
 5367W        W 8886   7.421   7.944   3.786 -0.0214  0.2921  0.0095
 5368W        W 8887   0.462   3.680  11.833 -0.6792 -0.1559 -0.1341
 5369W        W 8888   2.663   4.105   0.435  0.2721 -0.0526 -0.0187
 5370W        W 8889   6.393   6.680   3.190  0.0097  0.0140 -0.2036
 5371W        W 8890   7.669   6.922   2.376  0.0354  0.2395 -0.1002
 5372W        W 8891   0.794   0.488   2.308 -0.0758 -0.0957  0.0306
 5373W        W 8892   7.314   8.508   2.438 -0.1799  0.0278 -0.0149
 5374W        W 8893   8.257   4.451   1.801 -0.0967 -0.0146  0.0427
 5375W        W 8894   0.105   6.306   9.910 -0.2009  0.0057  0.0928
 5376W        W 8895   2.719   6.557   1.960 -0.2896 -0.0524 -0.5563
 5377W        W 8896   8.382   2.391  12.360  0.0532 -0.5108  0.4168
 5378W        W 8897   4.288   9.291  11.649 -0.0181 -0.3013  0.0620
 5379W        W 8898   5.422   3.547   2.744 -0.1959  0.1430 -0.2557
 5380W        W 8899   1.771   5.124   0.979  0.2091 -0.2005 -0.2950
 5381W        W 8900   9.418   0.800   2.424  0.0356  0.0738  0.2736
 5382W        W 8901   3.625   9.017  11.819 -0.1119  0.1070 -0.1790
 5383W        W 8902   7.848   1.362  11.542 -0.0082 -0.0018 -0.3576
 5384W        W 8903   8.140   0.616   2.736 -0.0680  0.2143  0.1516
 5385W        W 8904   6.987   3.132   0.532 -0.1003  0.2303  0.3324
 5386W        W 8905   9.238   5.031  12.073  0.3844 -0.3076  0.3305
 5387W        W 8906   0.916   0.026   9.340 -0.0697  0.1919 -0.0813
 5388W        W 8907   5.706   8.982   1.284 -0.0985  0.1233  0.3295
 5389W        W 8908   4.463   5.208   1.886 -0.3484 -0.2944  0.0298
 5390W        W 8909   7.870   5.821   3.895  0.0435  0.3034 -0.1888
 5391W        W 8910   3.820   0.192   9.911  0.0508  0.0777  0.1760
 5392W        W 8911   9.009   7.076   1.911 -0.0399 -0.0720  0.0986
 5393W        W 8912   0.418   8.858   8.137 -0.2163  0.2062  0.1458
 5394W        W 8913   4.080   2.822  10.012 -0.2626  0.2087  0.0368
 5395W        W 8914   8.937   0.561  12.377  0.1681  0.3695  0.2600
 5396W        W 8915   5.637   3.729  10.329 -0.1936  0.3672  0.0136
 5397W        W 8916   1.392   1.418  10.726  0.1278 -0.1277  0.0163
 5398W        W 8917   2.859   8.232  10.185 -0.0329  0.3828  0.0110
 5399W        W 8918   5.527   2.360   2.185 -0.2211 -0.0996 -0.3056
 5400W        W 8919   1.171   2.105   1.447 -0.0336  0.1050 -0.0607
 5401W        W 8920   3.619   2.600  10.280 -0.2815 -0.1423 -0.1210
 5402W        W 8921   7.092   0.472   9.908 -0.3521  0.1069  0.2732
 5403W        W 8922   9.627   1.823  10.035  0.1356  0.1040  0.2340
 5404W        W 8923   2.878   5.938   3.579 -0.0299  0.1652 -0.2015
 5405W        W 8924   4.941   1.761   1.160 -0.1713  0.3823  0.0246
 5406W        W 8925   4.438   7.864  11.020 -0.2456 -0.0839 -0.1937
 5407W        W 8926   5.866   2.731   1.421 -0.0881 -0.4373 -0.1166
 5408W        W 8927   0.234   9.147  11.639 -0.2555 -0.0230 -0.1544
 5409W        W 8928   6.876   4.910   9.855 -0.0866 -0.2036  0.2676
 5410W        W 8929   2.217   5.099   1.596  0.1442  0.0009  0.1390
 5411W        W 8930   5.433   6.134   4.026 -0.2322  0.0811  0.0935
 5412W        W 8931   2.322   4.903   1.179  0.2091 -0.0627 -0.0957
 5413W        W 8932   3.862   7.532   4.475 -0.1394 -0.0221  0.2928
 5414W        W 8933   0.519   8.738   9.469  0.1306 -0.0193  0.0052
 5415W        W 8934   4.656   2.192   3.871  0.0657 -0.1434 -0.0897
 5416W        W 8935   8.659   5.411  10.584 -0.0818 -0.0293 -0.2258
 5417W        W 8936   2.459   5.460  10.105 -0.0049  0.1532 -0.1461
 5418W        W 8937   9.230   1.531  12.396  0.3633 -0.2260  0.2601
 5419W        W 8938   0.498   0.405   9.249 -0.1742  0.2391  0.0530
 5420W        W 8939   9.017   2.920  10.540 -0.0174 -0.0699 -0.1780
 5421W        W 8940   6.302   2.166   2.496  0.2840  0.1674  0.2200
 5422W        W 8941   3.744   5.677  10.091  0.1411 -0.2890 -0.0925
 5423W        W 8942   0.628   2.363  11.191 -0.1312  0.2204 -0.1023
 5424W        W 8943   2.517   0.376   9.916  0.2743 -0.1705  0.0333
 5425W        W 8944   5.433   0.378   2.773  0.0422  0.3105 -0.0592
 5426W        W 8945   9.280   6.654   8.097 -0.4060 -0.2657 -0.1919
 5427W        W 8946   9.277   9.487   0.713  0.1267 -0.0078 -0.1164
 5428W        W 8947   5.791   9.525   9.371 -0.0602  0.0780  0.2265
 5429W        W 8948   5.401   4.948  12.252  0.0038 -0.1110  0.2342
 5430W        W 8949   7.846   4.616   2.076 -0.1730 -0.1689  0.1083
 5431W        W 8950   6.469   9.677  12.306 -0.1396 -0.0958 -0.3681
 5432W        W 8951   2.840   5.646   9.320  0.0593  0.0323 -0.1602
 5433W        W 8952   8.892   2.373   0.885 -0.1266  0.1853 -0.1612
 5434W        W 8953   7.706   1.781   2.493 -0.1022 -0.0003 -0.3171
 5435W        W 8954   5.089   1.711   2.910 -0.2811 -0.2781  0.0372
 5436W        W 8955   9.515   8.192   3.862 -0.1289  0.0177  0.2465
 5437W        W 8956   6.673   4.343  11.893 -0.3906  0.1321  0.0079
 5438W        W 8957   3.127   7.295   0.338 -0.0973 -0.3547 -0.3040
 5439W        W 8958   9.526   8.509   8.886  0.1695  0.0194 -0.1112
 5440W        W 8959   2.003   6.596   4.046 -0.1519 -0.1584 -0.0741
 5441W        W 8960   1.844   9.183  10.225 -0.2029  0.4346  0.1924
 5442W        W 8961   2.476   1.845   1.270  0.3314 -0.2707 -0.2329
 5443W        W 8962   3.770   2.759   0.586  0.1062  0.1334 -0.2029
 5444W        W 8963   7.013   2.147  11.636 -0.1728 -0.4451 -0.0497
 5445W        W 8964   4.761   8.540   9.583  0.3648 -0.0263 -0.2333
 5446W        W 8965   7.676   7.219   8.109 -0.0082  0.1077 -0.3655
 5447W        W 8966   6.831   7.822   1.788 -0.1708  0.1376 -0.1484
 5448W        W 8967   1.570   0.960   0.591 -0.2681  0.1847  0.1268
 5449W        W 8968   4.542   1.745  10.688 -0.1472  0.1936 -0.1614
 5450W        W 8969   5.089   6.292   1.400 -0.0994 -0.2002  0.2249
 5451W        W 8970   2.893   5.205  11.314 -0.1882 -0.1971  0.0498
 5452W        W 8971   5.502   5.580   1.912  0.1226  0.0271 -0.1187
 5453W        W 8972   4.886   6.338   3.881 -0.1123 -0.1404  0.1936
 5454W        W 8973   1.255   0.559   9.992 -0.1937 -0.0092 -0.2062
 5455W        W 8974   4.241   8.416  12.058  0.3861  0.2264  0.0884
 5456W        W 8975   5.195   3.468   1.081  0.1783 -0.0388  0.1323
 5457W        W 8976   0.567   6.195   4.425  0.2297  0.1370 -0.0714
 5458W        W 8977   4.843   7.381   4.205 -0.1791 -0.1545  0.0348
 5459W        W 8978   5.241   4.198  12.087 -0.1941 -0.2645  0.1226
 5460W        W 8979   1.718   8.980   0.036  0.0551  0.1009  0.3001
 5461W        W 8980   3.953   6.591   9.667  0.0398  0.2956 -0.1394
 5462W        W 8981   0.453   9.578   0.193 -0.1864 -0.1683 -0.1087
 5463W        W 8982   7.414   4.553   8.870  0.2321  0.0247 -0.0711
 5464W        W 8983   0.877   8.916  12.332  0.1970  0.0724 -0.2161
 5465W        W 8984   9.012   3.795   4.097 -0.1881  0.0974 -0.0540
 5466W        W 8985   8.024   4.296  11.229  0.0745 -0.1025  0.0608
 5467W        W 8986   7.884   7.704   1.654  0.1047 -0.0157 -0.1111
 5468W        W 8987   2.730   3.055   3.714  0.2509  0.0148  0.0970
 5469W        W 8988   2.155   2.282   8.835  0.1566  0.3799  0.2042
 5470W        W 8989   5.268   1.148  10.713 -0.2066  0.2184 -0.3143
 5471W        W 8990   8.859   5.222   1.778 -0.1172 -0.1467 -0.1182
 5472W        W 8991   4.035   7.203   2.741 -0.0672 -0.0342 -0.1692
 5473W        W 8992   9.277   1.148   8.704  0.0423 -0.1337  0.3544
 5474W        W 8993   9.369   8.313   0.297 -0.2729  0.0095  0.2854
 5475W        W 8994   3.584   7.882   8.424 -0.3357  0.0423 -0.1580
 5476W        W 8995   0.028   1.466   1.168 -0.2196 -0.0107 -0.1280
 5477W        W 8996   3.645   0.081  12.369 -0.0350  0.1252 -0.0304
 5478W        W 8997   1.737   2.916   2.117  0.3433  0.0750 -0.2615
 5479W        W 8998   2.917   7.153   1.214 -0.2698  0.4155  0.3334
 5480W        W 8999   0.162   0.948  11.393 -0.0460  0.1697  0.0096
 5481W        W 9000   7.707   8.660   9.314 -0.1582  0.0164 -0.2202
 5482W        W 9001   7.174   5.935   0.297 -0.0075 -0.0500  0.3756
 5483W        W 9002   5.115   9.253   3.588 -0.2752 -0.3216  0.2445
 5484W        W 9003   2.333   4.803  12.058 -0.0515  0.2607 -0.3216
 5485W        W 9004   6.512   8.587  10.966  0.2530  0.0183  0.0320
 5486W        W 9005   6.473   5.158   4.465  0.0614 -0.0243  0.0806
 5487W        W 9006   6.171   2.779   0.360 -0.2144  0.1431  0.0794
 5488W        W 9007   0.802   2.752   8.428  0.1025 -0.1195 -0.2137
 5489W        W 9008   0.284   8.250   4.701 -0.1059  0.0473  0.0572
 5490W        W 9009   6.473   3.589  12.304  0.2938  0.1786 -0.2378
 5491W        W 9010   2.139   6.264   0.661 -0.2400  0.0684  0.0271
 5492W        W 9011   0.988   0.443  11.551  0.1222  0.0878  0.1096
 5493W        W 9012   5.111   7.323   9.616 -0.0188 -0.1878 -0.1697
 5494W        W 9013   8.886   7.098   0.488 -0.1451 -0.0268 -0.2309
 5495W        W 9014   1.521   0.575   4.049  0.0983  0.0529  0.1921
 5496W        W 9015   7.331   9.394   9.795 -0.1471 -0.0481 -0.1011
 5497W        W 9016   6.388   4.281  10.393  0.3242 -0.1997 -0.0066
 5498W        W 9017   6.458   2.001   9.918 -0.1668 -0.1845 -0.0237
 5499W        W 9018   4.911   2.070  10.325  0.2790 -0.1557  0.2109
 5500W        W 9019   6.425   4.451   8.902  0.1417  0.0776  0.1605
 5501W        W 9020   6.279   7.448   2.005  0.0147 -0.2242 -0.1360
 5502W        W 9021   0.792   7.471   0.523 -0.0633 -0.0560 -0.2302
 5503W        W 9022   0.867   6.781   3.210 -0.2427  0.1859  0.0790
 5504W        W 9023   8.337   0.887   9.003 -0.3678 -0.0521 -0.1732
 5505W        W 9024   6.825   7.271  11.089 -0.0043 -0.0551  0.3450
 5506W        W 9025   9.486   3.664   9.671  0.2615  0.0527  0.0213
 5507W        W 9026   7.857   7.830   3.606  0.0776 -0.1519  0.4682
 5508W        W 9027   0.736   2.490  11.648 -0.2790  0.0867 -0.1014
 5509W        W 9028   5.516   4.842   9.618  0.0992 -0.0686  0.2307
 5510W        W 9029   1.663   2.108   7.679  0.4075  0.0149 -0.0503
 5511W        W 9030   3.418   7.630   4.096 -0.2194  0.0012  0.5346
 5512W        W 9031   2.612   6.762   3.018 -0.0282  0.2381 -0.0978
 5513W        W 9032   9.443   5.452   0.406  0.1468 -0.3001 -0.1511
 5514W        W 9033   0.909   4.068  10.252  0.1201 -0.1908  0.1070
 5515W        W 9034   3.375   4.359  12.388 -0.1868 -0.1605  0.2888
 5516W        W 9035   5.477   7.840  11.358  0.0781 -0.3118  0.0550
 5517W        W 9036   2.346   7.054   1.087 -0.0504 -0.1050  0.0571
 5518W        W 9037   6.459   7.446  12.064 -0.1855  0.0882 -0.1078
 5519W        W 9038   0.165   4.190   4.296 -0.1420  0.0292 -0.1774
 5520W        W 9039   3.322   2.283   8.370 -0.2439 -0.0419 -0.0750
 5521W        W 9040   0.601   3.531  10.226 -0.0130 -0.0536  0.2650
 5522W        W 9041   8.121   1.313   3.321  0.2982  0.0261 -0.0524
 5523W        W 9042   7.509   3.928   3.883 -0.0432  0.1090 -0.1862
 5524W        W 9043   2.183   7.052   0.015  0.2246  0.0420  0.1689
 5525W        W 9044   4.428   6.123   2.936  0.0043 -0.2528 -0.3243
 5526W        W 9045   9.401   0.842  11.640 -0.2404 -0.0901  0.1325
 5527W        W 9046   5.222   4.522  10.881  0.0159  0.0523  0.2207
 5528W        W 9047   4.523   8.462   9.118  0.1004  0.1117  0.2041
 5529W        W 9048   0.266   8.438   8.630  0.0479 -0.1658 -0.1651
 5530W        W 9049   0.604   6.230  12.163 -0.0838  0.1669 -0.1823
 5531W        W 9050   7.035   9.170   1.815 -0.1826  0.1290 -0.0772
 5532W        W 9051   3.827   6.883   0.073 -0.0620 -0.1179  0.1861
 5533W        W 9052   4.417   5.764   1.887  0.0498  0.2195 -0.1443
 5534W        W 9053   2.242   1.261  10.049  0.2057 -0.0195 -0.1073
 5535W        W 9054   0.815   9.216  11.738  0.3609  0.0420 -0.1155
 5536W        W 9055   8.542   6.040   3.473  0.0428  0.0585  0.0906
 5537W        W 9056   3.351   5.425   1.160  0.2103  0.0026  0.1626
 5538W        W 9057   2.161   4.554   4.730  0.0855 -0.2585  0.2541
 5539W        W 9058   4.725   4.500   3.716  0.1455  0.1892 -0.0949
 5540W        W 9059   7.406   5.641   4.056  0.1035 -0.1625 -0.1368
 5541W        W 9060   7.759   2.463   9.744  0.3109 -0.1231 -0.0127
 5542W        W 9061   3.731   2.507  10.775  0.0550  0.1403 -0.1594
 5543W        W 9062   3.128   5.235   0.440 -0.0620  0.1817  0.1578
 5544W        W 9063   3.673   2.254   9.214 -0.1998  0.0559  0.0273
 5545W        W 9064   5.057   6.355   0.254  0.3297  0.1482 -0.0163
 5546W        W 9065   0.035   6.271  11.904  0.0857 -0.1068 -0.0493
 5547W        W 9066   7.052   1.756  11.310 -0.2123 -0.1060  0.0504
 5548W        W 9067   7.331   8.667   8.962  0.0906  0.1994  0.2413
 5549W        W 9068   4.720   4.118   0.459  0.0203  0.0444  0.3306
 5550W        W 9069   6.762   4.836  11.696 -0.3570  0.1133  0.1587
 5551W        W 9070   2.751   1.007   2.024  0.0008  0.1798 -0.1223
 5552W        W 9071   8.052   7.076  10.849  0.2603 -0.1970 -0.0132
 5553W        W 9072   3.931   0.288   1.167 -0.2119 -0.1061  0.2140
 5554W        W 9073   2.849   7.301  10.089 -0.1589  0.3506  0.1993
 5555W        W 9074   8.546   7.355  11.204  0.0607  0.2235 -0.4655
 5556W        W 9075   6.025   9.730   2.432 -0.0344 -0.0477 -0.0716
 5557W        W 9076   6.553   7.083   2.668 -0.2009 -0.1013  0.0786
 5558W        W 9077   8.890   7.611   0.641 -0.3027 -0.0546 -0.0948
 5559W        W 9078   0.851   1.331  11.820  0.0397  0.0985  0.0132
 5560W        W 9079   0.900   2.372   0.631 -0.0249 -0.2293 -0.0323
 5561W        W 9080   2.279   2.442   9.421 -0.0253 -0.0291 -0.0060
 5562W        W 9081   7.567   5.564  11.016 -0.0853 -0.0508 -0.3316
 5563W        W 9082   0.912   4.926  10.379  0.1964 -0.0254 -0.0579
 5564W        W 9083   4.054   5.356   2.869  0.2792 -0.2261 -0.1060
 5565W        W 9084   6.960   2.820   9.647 -0.0018 -0.2797  0.0053
 5566W        W 9085   4.937   5.432   2.756 -0.0280 -0.2576  0.1667
 5567W        W 9086   5.902   7.781   1.810 -0.2026  0.1185  0.0280
 5568W        W 9087   2.375   3.266   9.864 -0.1236 -0.1514  0.0105
 5569W        W 9088   0.406   5.762   3.173  0.3149  0.0520  0.0520
 5570W        W 9089   0.199   0.085   8.737  0.1283 -0.0685 -0.0777
 5571W        W 9090   5.521   3.305   3.226  0.0863  0.0149  0.2504
 5572W        W 9091   2.064   5.158   8.133 -0.0712 -0.1545  0.1111
 5573W        W 9092   2.009   1.024   9.178 -0.1643 -0.1795  0.0326
 5574W        W 9093   0.608   4.401   4.106 -0.1563  0.0811  0.2191
 5575W        W 9094   2.187   7.884   1.432  0.1912 -0.1191  0.0312
 5576W        W 9095   0.885   6.065   8.497  0.0180  0.5654  0.4323
 5577W        W 9096   7.015   1.059   1.381 -0.1521 -0.0194 -0.1344
 5578W        W 9097   0.759   5.378   3.184 -0.1904  0.2478 -0.3414
 5579W        W 9098   7.195   0.901  11.806 -0.0860 -0.0991 -0.0398
 5580W        W 9099   2.226   7.240   2.428 -0.1125 -0.1349 -0.0944
 5581W        W 9100   1.289   8.163   1.015 -0.0806  0.1247 -0.0597
 5582W        W 9101   2.696   9.346   0.350 -0.0373 -0.0621 -0.0018
 5583W        W 9102   7.728   8.836   1.171 -0.0359  0.0333  0.0907
 5584W        W 9103   5.770   5.986   7.629 -0.2705 -0.0157  0.1542
 5585W        W 9104   3.668   9.337  11.466 -0.1579  0.1752 -0.0585
 5586W        W 9105   8.206   1.983   9.136 -0.1699 -0.2206  0.1005
 5587W        W 9106   9.639   8.942  10.735 -0.1526  0.1550 -0.1513
 5588W        W 9107   3.626   9.023  10.232  0.0354  0.0769  0.2060
 5589W        W 9108   2.896   3.821   2.759 -0.2916 -0.0912 -0.0673
 5590W        W 9109   7.873   6.658   4.386 -0.2967  0.1336  0.2172
 5591W        W 9110   6.689   6.794   1.272 -0.2475 -0.4120 -0.1086
 5592W        W 9111   8.427   0.958  10.578 -0.0867  0.0623 -0.0067
 5593W        W 9112   0.183   0.626   2.535  0.0854 -0.2069 -0.4101
 5594W        W 9113   3.578   8.915   8.546  0.2714  0.1454 -0.1041
 5595W        W 9114   8.800   6.899  11.227  0.0745 -0.0594  0.1937
 5596W        W 9115   7.799   8.444   2.444 -0.0779 -0.2035  0.1915
 5597W        W 9116   6.280   8.392  11.688  0.1891  0.0845 -0.3746
 5598W        W 9117   7.593   1.332   9.682  0.1191  0.0665  0.1499
 5599W        W 9118   9.711   2.529  11.973 -0.0223  0.0743  0.0821
 5600W        W 9119   9.545   2.991   3.542 -0.1115 -0.0895  0.1535
 5601W        W 9120   5.989   2.234   0.495 -0.0183 -0.1638  0.0416
 5602W        W 9121   0.609   2.260   8.554 -0.2022 -0.1536  0.0192
 5603W        W 9122   4.980   8.917  11.059 -0.1438 -0.1605 -0.1019
 5604W        W 9123   0.246   0.249   3.559  0.3709 -0.1350  0.1602
 5605W        W 9124   8.831   9.603  11.635  0.0640 -0.0877  0.0479
 5606W        W 9125   1.337   7.562  12.310  0.1158 -0.2696 -0.0820
 5607W        W 9126   7.647   6.222   0.444 -0.1591 -0.0288 -0.0708
 5608W        W 9127   3.452   7.981   2.927 -0.1688 -0.0106  0.2061
 5609W        W 9128   4.335   4.126   9.304 -0.0713 -0.2505 -0.0502
 5610W        W 9129   6.393   5.981   5.055  0.1642 -0.0479 -0.0435
 5611W        W 9130   2.706   5.643  11.778  0.2152  0.0152 -0.0128
 5612W        W 9131   3.258   3.045   4.197  0.1095  0.1502  0.2383
 5613W        W 9132   7.281   2.125  12.134  0.1833  0.0640 -0.1769
 5614W        W 9133   8.376   2.136   0.503 -0.3014  0.1715 -0.1077
 5615W        W 9134   9.262   0.199   1.856 -0.2392 -0.1368  0.1637
 5616W        W 9135   4.643   0.006  10.536 -0.3993  0.3330 -0.0030
 5617W        W 9136   5.259   6.567  11.771 -0.0720 -0.2454 -0.0212
 5618W        W 9137   5.942   7.600   3.065  0.4024  0.2661  0.0161
 5619W        W 9138   0.066   6.727   9.604  0.2142  0.0527  0.0620
 5620W        W 9139   6.475   9.210  10.353 -0.0561  0.0038 -0.0285
 5621W        W 9140   2.077   6.265  10.547 -0.1838  0.0671  0.2403
 5622W        W 9141   9.725   5.291   8.728 -0.0483 -0.0376 -0.0687
 5623W        W 9142   5.813   4.963  10.458  0.3490 -0.0225 -0.1411
 5624W        W 9143   4.665   9.401   1.473  0.0861 -0.3223  0.0394
 5625W        W 9144   0.281   0.102   0.804  0.1881  0.0751  0.4181
 5626W        W 9145   0.250   3.108   1.537  0.0344 -0.1136 -0.0849
 5627W        W 9146   3.639   5.345   0.192 -0.0026  0.0770 -0.1620
 5628W        W 9147   7.424   3.585   8.960  0.1118 -0.1184 -0.3792
 5629W        W 9148   6.182   1.848   9.410 -0.1262 -0.0753  0.3824
 5630W        W 9149   2.441   8.378   9.249  0.0471  0.3111 -0.1388
 5631W        W 9150   8.845   5.067   8.778 -0.0878 -0.1797 -0.5283
 5632W        W 9151   9.257   6.326   1.924 -0.1333 -0.0308  0.1775
 5633W        W 9152   6.300   4.008   2.762  0.4122 -0.0988 -0.5558
 5634W        W 9153   4.244   7.161  10.690  0.1909  0.1229 -0.0084
 5635W        W 9154   1.319   2.889   0.688  0.5865  0.2085 -0.3861
 5636W        W 9155   7.070   9.366   1.148 -0.2565  0.1638 -0.0083
 5637W        W 9156   2.746   8.608  12.400  0.0423 -0.0345 -0.1002
 5638W        W 9157   3.853   5.962   3.933  0.0049 -0.0335  0.1229
 5639W        W 9158   9.691   5.915   2.778  0.0125 -0.0240  0.2946
 5640W        W 9159   3.766   7.260  10.009 -0.0473  0.1770 -0.0134
 5641W        W 9160   2.367   1.794   1.802 -0.2010  0.1904 -0.1662
 5642W        W 9161   1.953   0.371  11.578  0.0577 -0.1257 -0.0838
 5643W        W 9162   6.585   2.270   1.229  0.0717  0.0873  0.0458
 5644W        W 9163   9.583   7.218   8.865 -0.1783  0.0561 -0.0440
 5645W        W 9164   2.199   1.318   3.201  0.1353  0.2344 -0.1760
 5646W        W 9165   6.628   1.368   1.278 -0.1460 -0.2103  0.0320
 5647W        W 9166   2.003   5.824   0.502  0.2470  0.2903  0.0721
 5648W        W 9167   2.945   8.859   2.320 -0.1286 -0.2003  0.4599
 5649W        W 9168   8.108   4.752   1.440  0.0973  0.1989  0.1698
 5650W        W 9169   9.295   2.604  10.190  0.1995  0.1090 -0.2558
 5651W        W 9170   2.361   2.984   2.690 -0.1095  0.3219  0.0104
 5652W        W 9171   1.012   1.259   1.730  0.1238  0.2612  0.1112
 5653W        W 9172   8.999   3.638   3.612 -0.4150  0.1255 -0.1553
 5654W        W 9173   5.890   2.392   0.013  0.1704  0.4328  0.2716
 5655W        W 9174   4.486   0.869  11.623 -0.0084 -0.0247 -0.1221
 5656W        W 9175   2.513   1.375   0.375  0.0235  0.1653  0.2223
 5657W        W 9176   3.882   9.644   8.920 -0.1049  0.1563 -0.1155
 5658W        W 9177   1.289   7.427   2.718  0.0489  0.0843  0.0495
 5659W        W 9178   2.155   9.414  10.501 -0.1614  0.3461  0.2523
 5660W        W 9179   8.742   7.277  10.800 -0.2626  0.2639  0.2059
 5661W        W 9180   5.374   9.137  10.964 -0.0538 -0.1615  0.0427
 5662W        W 9181   6.020   0.056   1.386 -0.2586 -0.0968  0.3278
 5663W        W 9182   7.429   9.647  10.230  0.0284 -0.2109  0.1717
 5664W        W 9183   3.352   8.124   1.940  0.0929 -0.1951  0.2588
 5665W        W 9184   9.548   5.417  10.901 -0.1086  0.0240 -0.0126
 5666W        W 9185   1.149   2.567  10.798 -0.0894 -0.2025  0.0035
 5667W        W 9186   1.489   0.987  11.922 -0.0579 -0.0927  0.1144
 5668W        W 9187   7.354   8.907  11.333  0.0867  0.0933 -0.0659
 5669W        W 9188   5.879   5.343   3.072  0.0486  0.2404 -0.0311
 5670W        W 9189   4.977   8.154   8.848  0.0595  0.0442 -0.3561
 5671W        W 9190   0.691   6.279   9.122  0.0869  0.0380  0.0514
 5672W        W 9191   6.796   1.729   0.297  0.2026 -0.1057  0.1597
 5673W        W 9192   2.151   7.504   4.509  0.0932  0.0344  0.0285
 5674W        W 9193   4.790   3.113   0.030 -0.0025  0.3865  0.1995
 5675W        W 9194   1.690   1.398   9.932 -0.0144  0.3197  0.0024
 5676W        W 9195   2.630   2.308   1.388 -0.0440 -0.0330  0.2126
 5677W        W 9196   8.309   3.119   9.269  0.3098 -0.0233 -0.1998
 5678W        W 9197   6.893   5.690   3.805 -0.1234 -0.0353 -0.0383
 5679W        W 9198   4.650   5.829   9.672  0.0825 -0.0846 -0.0638
 5680W        W 9199   9.446   7.428   4.006 -0.0712  0.0435  0.1066
 5681W        W 9200   6.355   5.062   1.714  0.2298 -0.2433 -0.0719
 5682W        W 9201   8.090   6.193  10.643 -0.1201 -0.0621 -0.0591
 5683W        W 9202   0.412   9.672   1.714 -0.3734  0.2031  0.1139
 5684W        W 9203   2.591   4.064   1.196 -0.0991  0.1218  0.1129
 5685W        W 9204   3.992   1.467   3.856  0.1852  0.1286 -0.2546
 5686W        W 9205   1.685   4.337   2.923 -0.1163 -0.3034  0.2341
 5687W        W 9206   0.554   8.315   1.153 -0.0479  0.2981 -0.0026
 5688W        W 9207   2.902   0.165  11.680 -0.0401 -0.2496 -0.1741
 5689W        W 9208   0.142   3.747   4.038 -0.0741 -0.3878  0.1917
 5690W        W 9209   9.484   0.245  10.887 -0.1722 -0.0677  0.2230
 5691W        W 9210   8.092   0.140   0.403 -0.0972 -0.4071  0.2483
 5692W        W 9211   4.626   8.272   2.167 -0.2938  0.0676  0.3637
 5693W        W 9212   3.535   0.446   3.180  0.2657  0.1358 -0.0207
 5694W        W 9213   9.551   9.454  10.999  0.1608  0.2332  0.2249
 5695W        W 9214   1.641   0.937   0.075  0.1049 -0.0934  0.1056
 5696W        W 9215   2.071   4.269   9.516 -0.0045  0.0745  0.1597
 5697W        W 9216   4.641   3.495  10.240  0.2442 -0.1338 -0.3760
 5698W        W 9217   2.086   8.109  11.997  0.0898 -0.0624 -0.0368
 5699W        W 9218   8.883   2.386  12.301  0.2515  0.0307 -0.0049
 5700W        W 9219   1.864   8.095   1.709  0.2675 -0.1585  0.0715
 5701W        W 9220   3.945   1.690  10.093 -0.0641  0.0267  0.1471
 5702W        W 9221   0.188   6.784   1.736 -0.0435  0.2050  0.0735
 5703W        W 9222   3.419   8.606   9.919  0.1930  0.2406 -0.2051
 5704W        W 9223   7.019   6.024   4.212  0.1922  0.1439  0.0972
 5705W        W 9224   4.514   9.370   3.554  0.1175 -0.1494  0.0107
 5706W        W 9225   0.721   3.239  11.845 -0.2397 -0.4975 -0.2043
 5707W        W 9226   8.703   2.672   4.631  0.6038  0.0850  0.0434
 5708W        W 9227   1.401   1.916  12.219  0.1977  0.1859 -0.0774
 5709W        W 9228   8.066   4.981   1.860 -0.2743  0.2906 -0.1639
 5710W        W 9229   1.057   9.183   8.497  0.3561 -0.0852 -0.0427
 5711W        W 9230   3.082   9.377   3.629  0.1767  0.1821 -0.0613
 5712W        W 9231   7.970   8.343  10.667  0.1630  0.0914  0.0841
 5713W        W 9232   7.747   5.109  10.803 -0.1739  0.0351  0.0424
 5714W        W 9233   4.157   2.131  10.925  0.0771  0.0316  0.1653
 5715W        W 9234   2.107   5.537   2.331  0.1089  0.0365 -0.0087
 5716W        W 9235   5.099   0.620   0.609  0.0690 -0.0833  0.3779
 5717W        W 9236   7.584   8.362   2.001 -0.1219 -0.1634  0.1519
 5718W        W 9237   8.157   8.964  11.961 -0.1452  0.0587  0.5877
 5719W        W 9238   3.840   5.998   9.131  0.0305  0.0550  0.4376
 5720W        W 9239   7.868   7.639   8.405 -0.3425 -0.0956  0.1641
 5721W        W 9240   2.676   7.129   0.227 -0.2838 -0.0223  0.1813
 5722W        W 9241   3.351   8.359   9.476 -0.1728 -0.0004 -0.0172
 5723W        W 9242   4.606   2.946   9.949 -0.0241 -0.0436 -0.0121
 5724W        W 9243   8.548   6.457  11.434 -0.3374  0.1038 -0.0338
 5725W        W 9244   1.325   6.391   1.306  0.3821 -0.0733 -0.1035
 5726W        W 9245   4.417   4.419   9.782  0.1483  0.1886  0.1768
 5727W        W 9246   5.534   3.745   2.171  0.1378  0.0309 -0.2014
 5728W        W 9247   9.070   2.845  12.031  0.2147  0.1109  0.0388
 5729W        W 9248   7.739   6.780   8.899 -0.1869 -0.2501 -0.0922
 5730W        W 9249   2.024   6.029   8.888  0.3076  0.2055 -0.0694
 5731W        W 9250   3.122   2.541  12.317 -0.3488  0.2086  0.4146
 5732W        W 9251   8.007   3.735   2.916 -0.2921  0.2094  0.0348
 5733W        W 9252   1.326   2.635   3.508 -0.2466 -0.0748  0.1678
 5734W        W 9253   8.263   7.614   0.692 -0.2525  0.0371  0.1049
 5735W        W 9254   6.813   5.156   9.432  0.1002 -0.2448 -0.2782
 5736W        W 9255   3.214   7.321   0.824 -0.0335 -0.1460 -0.0256
 5737W        W 9256   5.813   9.178  11.537  0.0010  0.1101 -0.4389
 5738W        W 9257   9.172   3.682  11.997 -0.2267 -0.2505  0.1294
 5739W        W 9258   4.276   1.404   1.736 -0.2637  0.2855 -0.2737
 5740W        W 9259   0.544   7.679   3.780 -0.2414 -0.0365 -0.1335
 5741W        W 9260   6.919   7.311   0.954 -0.1018 -0.1780 -0.1346
 5742W        W 9261   8.022   2.401   1.979  0.0090 -0.2346 -0.1102
 5743W        W 9262   1.888   5.211   2.007  0.0984  0.0888  0.0534
 5744W        W 9263   5.323   2.406  12.267  0.1478 -0.1542 -0.4340
 5745W        W 9264   6.292   0.867   3.545  0.1126 -0.2524 -0.0188
 5746W        W 9265   8.689   2.064   9.835 -0.1900  0.0034  0.1787
 5747W        W 9266   7.914   0.811   0.698  0.0826 -0.1411 -0.2046
 5748W        W 9267   6.544   6.366   9.875  0.3962  0.0447 -0.1477
 5749W        W 9268   6.428   9.050  10.872 -0.1808 -0.0103  0.0638
 5750W        W 9269   7.542   3.205  11.390  0.0305  0.0331  0.1145
 5751W        W 9270   7.229   6.076   3.228  0.0168  0.0627  0.0957
 5752W        W 9271   4.965   1.140   1.345 -0.2328  0.2152 -0.0736
 5753W        W 9272   0.971   7.418   1.378 -0.1558 -0.1265 -0.1320
 5754W        W 9273   1.405   1.543   2.060  0.0733 -0.1749 -0.1723
 5755W        W 9274   0.786   6.567   1.855  0.3651  0.1849 -0.0817
 5756W        W 9275   8.904   1.533   3.091 -0.0081  0.0256  0.1112
 5757W        W 9276   9.317   0.781  10.095  0.2959 -0.2592  0.0145
 5758W        W 9277   8.065   1.977   0.161 -0.1197  0.0689 -0.1043
 5759W        W 9278   0.415   7.939   1.866 -0.3076 -0.0233  0.1347
 5760W        W 9279   8.478   5.366   1.468  0.2030 -0.1873  0.2471
 5761W        W 9280   5.026   7.539   1.655 -0.0338  0.0330 -0.1261
 5762W        W 9281   3.592   1.321   4.139 -0.2424 -0.1143 -0.1223
 5763W        W 9282   8.306   5.689   4.151  0.0136 -0.0398 -0.2549
 5764W        W 9283   6.632   0.536   0.599 -0.1521  0.0582 -0.1140
 5765W        W 9284   8.270   1.104  12.341 -0.1927 -0.0990 -0.4052
 5766W        W 9285   6.377   7.614   9.308 -0.2133  0.0634 -0.0324
 5767W        W 9286   9.400   4.037   9.294  0.2711  0.0977 -0.0146
 5768W        W 9287   1.606   8.892   0.615  0.1037  0.1945 -0.0836
 5769W        W 9288   4.926   8.640   3.939 -0.3207  0.1954  0.1643
 5770W        W 9289   2.370   4.639   9.789 -0.0319  0.0670  0.2818
 5771W        W 9290   3.587   8.461   4.665 -0.2238  0.0336 -0.0143
 5772W        W 9291   2.501   2.508  10.257 -0.1347 -0.2124  0.2749
 5773W        W 9292   1.674   1.859  11.747  0.0991  0.3862 -0.0675
 5774W        W 9293   1.377   4.279  11.057  0.2790 -0.2147  0.1065
 5775W        W 9294   1.021   4.662   3.824 -0.2438 -0.1447  0.1748
 5776W        W 9295   5.830   9.568   0.967  0.0039 -0.0548  0.0645
 5777W        W 9296   0.347   1.402  11.857 -0.2802 -0.0860  0.1714
 5778W        W 9297   5.058   9.462  11.188  0.1100  0.1510 -0.0697
 5779W        W 9298   5.055   7.428   0.748 -0.1724  0.1622  0.1605
 5780W        W 9299   2.115   1.705   2.229  0.1088  0.1530 -0.0871
 5781W        W 9300   2.408   9.096  10.244 -0.0489  0.3847  0.1670
 5782W        W 9301   7.443   5.011  11.280 -0.0587  0.1939  0.1469
 5783W        W 9302   1.834   6.662   9.440 -0.0856 -0.0991  0.0704
 5784W        W 9303   3.034   6.132  11.749  0.0919 -0.1238  0.1572
 5785W        W 9304   6.490   8.272   8.637  0.0638  0.0101  0.2997
 5786W        W 9305   1.863   5.235   9.200  0.0452 -0.1177 -0.1859
 5787W        W 9306   3.786   4.539   1.245 -0.4755 -0.1724  0.0283
 5788W        W 9307   2.028   9.671   2.588  0.3727  0.1709  0.4173
 5789W        W 9308   2.383   4.819   2.409  0.1666  0.0702  0.0816
 5790W        W 9309   1.795   0.570   2.946  0.0407  0.2067  0.3234
 5791W        W 9310   9.157   7.128   0.929  0.2751 -0.0805  0.0987
 5792W        W 9311   3.101   7.031   2.238 -0.0825 -0.0548  0.1303
 5793W        W 9312   6.630   7.688   0.049 -0.3151 -0.1666 -0.1364
 5794W        W 9313   5.802   1.006  12.100 -0.0153  0.1070  0.2488
 5795W        W 9314   2.048   5.713  10.935 -0.2970  0.1612 -0.2090
 5796W        W 9315   8.534   8.204   8.459  0.1630 -0.0645 -0.0790
 5797W        W 9316   1.351   9.326   1.542  0.0235 -0.2019 -0.1478
 5798W        W 9317   3.505   0.589   9.120  0.0528 -0.0781 -0.0996
 5799W        W 9318   5.127   2.807   0.146  0.0703 -0.0360  0.1319
 5800W        W 9319   3.929   3.837   3.746 -0.1640  0.0559  0.2491
 5801W        W 9320   6.763   5.017   0.128 -0.1192  0.4207  0.1904
 5802W        W 9321   2.542   8.682   9.954  0.3063 -0.2451  0.0850
 5803W        W 9322   8.567   0.850   0.273  0.1186  0.1056  0.0763
 5804W        W 9323   1.955   7.155   3.983 -0.1069 -0.1118 -0.1016
 5805W        W 9324   0.212   1.470  10.218 -0.1076  0.1795  0.0611
 5806W        W 9325   0.232   6.606  12.232 -0.0518  0.2292  0.3600
 5807W        W 9326   8.713   7.735  10.596  0.0988 -0.0988  0.0235
 5808W        W 9327   1.440   0.229  11.366 -0.0300 -0.0732 -0.0374
 5809W        W 9328   6.142   4.958   0.816 -0.1987  0.1602 -0.0017
 5810W        W 9329   2.851   4.934   0.111  0.0133 -0.0144  0.0245
 5811W        W 9330   6.751   8.531   9.664 -0.2365  0.1440 -0.1717
 5812W        W 9331   0.964   3.788   3.120 -0.3020  0.0832  0.0528
 5813W        W 9332   7.540   3.089   8.873  0.4209  0.1583  0.0700
 5814W        W 9333   9.432   5.503   9.530 -0.0339 -0.1959 -0.2830
 5815W        W 9334   8.469   4.667   0.600  0.5058 -0.0503  0.3787
 5816W        W 9335   0.231   4.976   9.030 -0.1768  0.1083  0.0881
 5817W        W 9336   4.179   7.069   9.623  0.2635 -0.1356 -0.1507
 5818W        W 9337   4.046   9.000   0.746 -0.0525 -0.1084 -0.3283
 5819W        W 9338   5.458   3.562  12.132  0.0103  0.2305 -0.1957
 5820W        W 9339   7.109   3.905  10.745  0.1878  0.0122  0.0594
 5821W        W 9340   8.441   9.181   8.722  0.0096 -0.0037 -0.2863
 5822W        W 9341   3.595   4.918  11.404  0.0492 -0.0189 -0.4163
 5823W        W 9342   7.188   9.102   8.866 -0.0741 -0.2852  0.2380
 5824W        W 9343   8.194   4.150   8.770 -0.0135  0.1961  0.1090
 5825W        W 9344   3.358   5.021   2.450  0.0701 -0.0034 -0.0217
 5826W        W 9345   2.712   2.434  11.882 -0.1301  0.0228  0.2448
 5827W        W 9346   9.158   1.823   9.947  0.0104 -0.4049  0.1474
 5828W        W 9347   1.793   0.143   0.095 -0.2159  0.0423 -0.3278
 5829W        W 9348   4.711   6.431   2.583 -0.0093  0.1895  0.2587
 5830W        W 9349   0.709   0.448  10.722 -0.1559  0.3072  0.1009
 5831W        W 9350   0.325   0.309   1.420  0.2127 -0.0969 -0.0996
 5832W        W 9351   4.967   8.726   9.021  0.1567 -0.0198  0.0433
 5833W        W 9352   6.960   4.639  12.212  0.3294 -0.1539 -0.3128
 5834W        W 9353   3.410   1.880   2.076  0.0060  0.0623 -0.3710
 5835W        W 9354   9.146   4.553  11.382  0.0876 -0.2105  0.0047
 5836W        W 9355   5.207   6.973   0.982 -0.1333 -0.2021 -0.3533
 5837W        W 9356   1.178   0.955   3.899  0.3498  0.0364  0.0256
 5838W        W 9357   9.047   0.577   2.105  0.1132  0.0593 -0.2312
 5839W        W 9358   1.838   5.348   2.845  0.0645 -0.1185 -0.1747
 5840W        W 9359   1.132   7.868   9.145  0.1794 -0.0696  0.0650
 5841W        W 9360   2.700   5.217   9.716 -0.0957 -0.0315  0.3258
 5842W        W 9361   4.450   9.448   0.115 -0.0505  0.2343  0.2076
 5843W        W 9362   6.086   9.297   9.686 -0.1081  0.1412  0.1800
 5844W        W 9363   7.836   0.220  10.198 -0.0107  0.4646  0.3405
 5845W        W 9364   2.846   2.314  10.524 -0.0869 -0.1894 -0.1398
 5846W        W 9365   2.134   4.250   2.197  0.1525 -0.0228  0.0220
 5847W        W 9366   1.450   3.072  12.399  0.0841  0.5205  0.4115
 5848W        W 9367   7.263   2.668   9.953 -0.1646  0.1429 -0.1367
 5849W        W 9368   0.278   3.605   1.269  0.3455  0.0832  0.1708
 5850W        W 9369   1.040   4.892   9.140  0.1839  0.1825  0.1175
 5851W        W 9370   3.587   8.590   1.369 -0.0345  0.2202 -0.2193
 5852W        W 9371   0.578   1.242   9.572  0.1268 -0.2464  0.6820
 5853W        W 9372   4.967   5.382   9.536 -0.2675  0.0883 -0.0180
 5854W        W 9373   4.533   3.847   1.810  0.0263 -0.1388 -0.3110
 5855W        W 9374   2.257   8.058   4.621 -0.1233  0.2881 -0.2572
 5856W        W 9375   3.342   2.179   1.489 -0.3116  0.0547  0.1093
 5857W        W 9376   1.471   8.455   9.555  0.1438  0.1335  0.1118
 5858W        W 9377   6.462   3.289   2.011 -0.0019 -0.1108 -0.4407
 5859W        W 9378   4.959   6.100  11.693  0.0034 -0.2494  0.1263
 5860W        W 9379   6.853   9.390   9.432 -0.1272 -0.1844  0.2486
 5861W        W 9380   6.275   2.815  10.597  0.1086 -0.1545  0.2937
 5862W        W 9381   0.824   6.795   9.529  0.0398 -0.0057  0.1910
 5863W        W 9382   8.494   8.622   9.391  0.0935 -0.0322  0.1166
 5864W        W 9383   3.901   1.273   2.789  0.1001  0.2423  0.0301
 5865W        W 9384   7.087   2.553   1.917 -0.0358 -0.0174 -0.0338
 5866W        W 9385   8.502   2.223   8.706  0.2859 -0.1047  0.1712
 5867W        W 9386   4.247   7.528   1.037  0.0123 -0.0352  0.0507
 5868W        W 9387   3.351   7.238  11.212 -0.1601 -0.1243 -0.2001
 5869W        W 9388   2.876   4.387   2.076 -0.1536 -0.0567  0.0758
 5870W        W 9389   4.447   2.791   9.170 -0.1582  0.0048  0.3097
 5871W        W 9390   0.260   9.184   9.468  0.1896  0.0604  0.0290
 5872W        W 9391   1.646   8.296  10.227  0.2108 -0.3388 -0.1055
 5873W        W 9392   5.556   0.373   0.647  0.3340  0.2066 -0.0135
 5874W        W 9393   8.682   4.711   9.548 -0.2061 -0.4088  0.3389
 5875W        W 9394   6.934   6.030  12.133  0.0007  0.1118  0.1160
 5876W        W 9395   4.166   9.535   9.769 -0.0727  0.0161  0.2443
 5877W        W 9396   5.069   3.264   0.549  0.2547  0.3523  0.2267
 5878W        W 9397   9.385   2.749   9.642 -0.0189 -0.1089 -0.1910
 5879W        W 9398   7.652   0.288   0.608  0.3042 -0.1733  0.0549
 5880W        W 9399   1.614   5.994   1.182 -0.3221 -0.1375 -0.3292
 5881W        W 9400   1.460   6.092   0.711  0.1738 -0.1078  0.2733
 5882W        W 9401   9.432   0.987   1.399 -0.1051 -0.1780  0.4767
 5883W        W 9402   5.062   8.009   1.564 -0.2789 -0.0572  0.1738
 5884W        W 9403   0.017   1.027   8.819  0.0596  0.2502  0.0817
 5885W        W 9404   0.405   2.583   1.315 -0.1199 -0.0960  0.2807
 5886W        W 9405   1.942   9.738  11.169 -0.0728  0.0705  0.1620
 5887W        W 9406   2.950   6.591  10.800  0.3465 -0.1834  0.0017
 5888W        W 9407   5.670   6.856   2.882  0.2080 -0.0966 -0.0499
 5889W        W 9408   0.062   3.372   3.168  0.1015 -0.1319 -0.1118
 5890W        W 9409   8.480   6.886  10.772 -0.0129 -0.1692  0.2169
 5891W        W 9410   1.279   7.540   2.112  0.0726  0.1721  0.0782
 5892W        W 9411   0.305   4.157  11.646  0.1118  0.2677  0.2243
 5893W        W 9412   8.371   8.067  10.757  0.1618 -0.0586  0.1085
 5894W        W 9413   7.865   4.657   8.095  0.3170 -0.0265 -0.0348
 5895W        W 9414   7.256   6.016   3.743 -0.2014 -0.1174 -0.1353
 5896W        W 9415   8.792   5.758   9.246  0.3339  0.3532 -0.2271
 5897W        W 9416   5.355   2.790  10.400 -0.0966  0.0427  0.4064
 5898W        W 9417   3.691   0.971   3.166 -0.1050 -0.3152 -0.2384
 5899W        W 9418   6.967   6.761  10.871  0.2378  0.1292 -0.1124
 5900W        W 9419   3.933   2.448  11.298 -0.0722  0.1068  0.5001
 5901W        W 9420   9.572   6.481  11.458  0.2941  0.0066 -0.0380
 5902W        W 9421   8.014   0.732  10.908 -0.1558  0.5083  0.1069
 5903W        W 9422   8.942   4.875   0.728  0.0640 -0.3299 -0.0492
 5904W        W 9423   3.616   6.981   9.616  0.3846 -0.1832 -0.1641
 5905W        W 9424   4.082   9.082   0.234 -0.1320  0.3424 -0.0551
 5906W        W 9425   6.862   5.448   1.678  0.1254 -0.0711  0.1766
 5907W        W 9426   3.943   7.804   0.706  0.0392  0.2061 -0.0411
 5908W        W 9427   8.236   4.598   8.471 -0.1610  0.0552 -0.0425
 5909W        W 9428   7.855   7.027   9.505 -0.0534  0.0338  0.0861
 5910W        W 9429   5.186   1.703   9.969  0.0505  0.4351 -0.3902
 5911W        W 9430   8.616   6.454   3.163  0.0930  0.0700  0.0810
 5912W        W 9431   2.014   7.590   3.357  0.2056  0.0011 -0.1344
 5913W        W 9432   6.710   8.560  11.793 -0.0713 -0.2192  0.2948
 5914W        W 9433   0.613   4.973   9.398  0.0104 -0.2911 -0.0148
 5915W        W 9434   5.615   4.519  10.534  0.0900 -0.0392 -0.3084
 5916W        W 9435   5.106   3.180  11.986  0.1296  0.0184 -0.3018
 5917W        W 9436   3.111   6.848   0.853 -0.2039  0.2898  0.0725
 5918W        W 9437   3.874   5.461   0.644  0.0068  0.0714  0.1366
 5919W        W 9438   8.967   0.977   0.631  0.2593 -0.1553  0.1635
 5920W        W 9439   8.207   4.084  12.333  0.2045 -0.2177  0.2272
 5921W        W 9440   9.445   1.453   8.339  0.0545  0.2814 -0.2214
 5922W        W 9441   4.166   1.755  12.253  0.0915  0.0055  0.0191
 5923W        W 9442   2.888   9.635   8.622 -0.0423  0.0697  0.1247
 5924W        W 9443   6.215   7.014  11.082 -0.0752 -0.1284 -0.0416
 5925W        W 9444   5.434   7.747   3.170  0.1072  0.2526 -0.1013
 5926W        W 9445   2.250   8.659  11.837  0.2485 -0.2498 -0.0580
 5927W        W 9446   7.411   2.144   1.679 -0.1116 -0.0646  0.1044
 5928W        W 9447   8.900   3.635   2.988 -0.0905  0.1142  0.0565
 5929W        W 9448   9.732   2.541  10.566  0.2935  0.0276 -0.0960
 5930W        W 9449   8.284   2.223  10.092 -0.3537  0.0944  0.2065
 5931W        W 9450   9.578   2.161  11.465 -0.2456  0.2070  0.1425
 5932W        W 9451   8.707   0.344   1.103  0.0944 -0.0063 -0.1181
 5933W        W 9452   2.238   4.487  10.907  0.0763  0.0860 -0.0530
 5934W        W 9453   5.647   5.670  12.132 -0.1239 -0.0675  0.0909
 5935W        W 9454   9.399   6.652  11.923 -0.0941  0.2155 -0.0438
 5936W        W 9455   6.388   6.592   0.049 -0.0500  0.0140  0.0098
 5937W        W 9456   4.436   0.212   0.241 -0.1108  0.2623 -0.1790
 5938W        W 9457   4.817   4.630  11.208 -0.0871 -0.0919 -0.2117
 5939W        W 9458   6.407   5.501   2.337  0.1028 -0.3222 -0.0850
 5940W        W 9459   2.149   6.766   1.625 -0.0218  0.3499  0.2123
 5941W        W 9460   7.224   7.242  10.238 -0.0670  0.1166 -0.1429
 5942W        W 9461   6.248   1.807   0.351 -0.1682  0.0373 -0.0604
 5943W        W 9462   9.516   4.496   9.265  0.1175 -0.0401  0.1038
 5944W        W 9463   6.111   6.068   2.550  0.1394  0.0525  0.1545
 5945W        W 9464   3.993   5.418   1.926 -0.0758 -0.1539  0.0093
 5946W        W 9465   7.016   5.423  12.376  0.1277 -0.2004 -0.0254
 5947W        W 9466   3.071   1.768   9.736  0.2444  0.0144 -0.0465
 5948W        W 9467   0.759   0.506  12.306 -0.1853 -0.0230  0.0454
 5949W        W 9468   9.210   4.765  10.592  0.1848  0.0651  0.2055
 5950W        W 9469   8.781   8.397  10.715 -0.0151 -0.0439 -0.5758
 5951W        W 9470   1.597   3.149  11.772  0.0258  0.0362  0.2811
 5952W        W 9471   2.598   8.091   1.682 -0.0191 -0.1501  0.0576
 5953W        W 9472   0.549   5.410  11.372 -0.0476 -0.1242  0.1230
 5954W        W 9473   7.154   4.702  10.651 -0.0967 -0.1129  0.0014
 5955W        W 9474   8.448   0.238  11.688  0.2052  0.0553  0.5424
 5956W        W 9475   6.937   5.628  11.768 -0.1819  0.0116 -0.2071
 5957W        W 9476   0.794   9.293   1.883 -0.1061  0.3608  0.1789
 5958W        W 9477   0.117   7.094   0.121 -0.3286  0.0592  0.1048
 5959W        W 9478   8.355   5.627   1.899  0.0562 -0.1720  0.0435
 5960W        W 9479   7.960   0.726  10.372  0.1724  0.0246  0.1165
 5961W        W 9480   6.903   4.875  11.191  0.4448 -0.0966 -0.0884
 5962W        W 9481   8.569   3.550   1.418  0.1504  0.3910  0.0385
 5963W        W 9482   2.027   7.668   2.176 -0.3123 -0.0079 -0.5059
 5964W        W 9483   9.188   3.631   9.180  0.0077 -0.0341  0.2777
 5965W        W 9484   4.704   5.760   3.874 -0.1493  0.0420 -0.3369
 5966W        W 9485   4.377   9.406   9.097 -0.1171 -0.0589 -0.3489
 5967W        W 9486   9.502   4.550   0.634 -0.2111  0.0899  0.4161
 5968W        W 9487   5.984   8.010   2.750  0.0251 -0.1255  0.0051
 5969W        W 9488   4.732   7.525   4.647  0.1192 -0.0578  0.1356
 5970W        W 9489   7.963   1.444  10.094  0.0824  0.3293  0.0435
 5971W        W 9490   9.625   1.549   8.847 -0.1678  0.0428 -0.2333
 5972W        W 9491   8.005   6.440   0.187  0.0310  0.1200  0.0553
 5973W        W 9492   8.751   5.061   4.708  0.1533  0.0028 -0.1150
 5974W        W 9493   7.831   9.582   1.741 -0.2914 -0.0259 -0.1276
 5975W        W 9494   9.080   8.163   1.990  0.0214 -0.2120 -0.1419
 5976W        W 9495   1.449   0.847   8.320  0.0598 -0.0355  0.1539
 5977W        W 9496   9.029   4.757   9.127 -0.2229  0.1511 -0.0148
 5978W        W 9497   3.483   8.507   3.715 -0.0742  0.4485 -0.1990
 5979W        W 9498   7.400   5.040   9.004 -0.0498 -0.0984 -0.0096
 5980W        W 9499   6.774   4.235  10.011 -0.2783  0.0203  0.2774
 5981W        W 9500   8.601   5.979  10.802 -0.0309  0.0248  0.4008
 5982W        W 9501   6.794   6.692  12.181  0.0088  0.1981 -0.1140
 5983W        W 9502   5.900   6.387   3.858 -0.0772 -0.2379  0.0514
 5984W        W 9503   5.546   0.822   9.959 -0.0069  0.2817 -0.0795
 5985W        W 9504   5.904   4.618   9.765 -0.0068  0.0023  0.1619
 5986W        W 9505   1.154   7.979   2.409  0.0065 -0.4895  0.5481
 5987W        W 9506   6.407   5.566   1.745 -0.1830  0.1070  0.0058
 5988W        W 9507   9.409   5.048   3.148  0.0668 -0.0647 -0.0448
 5989W        W 9508   9.270   2.522   0.549  0.1713 -0.1044 -0.2606
 5990W        W 9509   4.593   3.095  11.944  0.0023 -0.0125 -0.1991
 5991W        W 9510   5.876   4.629   2.097  0.0627 -0.0543  0.1006
 5992W        W 9511   0.965   4.022  10.847  0.1667 -0.1956  0.0651
 5993W        W 9512   2.258   6.153  12.009 -0.0941  0.0243 -0.1470
 5994W        W 9513   0.902   3.579   0.686  0.0938 -0.1924 -0.2083
 5995W        W 9514   9.011   6.286  10.201 -0.0943 -0.2826 -0.3554
 5996W        W 9515   5.588   9.318   0.185  0.1141  0.0870  0.2035
 5997W        W 9516   1.646   2.252   3.335 -0.3606  0.1823 -0.4646
 5998W        W 9517   3.559   5.667   1.886 -0.1628 -0.2493  0.3692
 5999W        W 9518   4.828   6.922  11.199 -0.1725  0.2522  0.0769
 6000W        W 9519   6.440   0.078   2.827  0.2216  0.2958 -0.1961
 6001W        W 9520   0.210   9.517   9.908  0.2762 -0.2036  0.2906
 6002W        W 9521   8.676   4.163   8.702 -0.4023 -0.1210 -0.2069
 6003W        W 9522   9.026   0.056   8.713  0.0904 -0.5442  0.3440
 6004W        W 9523   0.610   7.074   3.575 -0.1584  0.1665 -0.1645
 6005W        W 9524   6.269   5.968   3.863  0.1503 -0.3102  0.2311
 6006W        W 9525   1.753   8.187   2.256  0.0487 -0.4172  0.1705
 6007W        W 9526   1.961   4.280   1.052 -0.0945 -0.0153 -0.1101
 6008W        W 9527   7.806   7.996   2.738 -0.2720 -0.0461  0.1626
 6009W        W 9528   3.618   3.096  10.226 -0.1797 -0.4413  0.1387
 6010W        W 9529   3.932   7.539  10.957 -0.1785 -0.0489 -0.1764
 6011W        W 9530   3.830   4.674   8.224  0.2359  0.0119 -0.1217
 6012W        W 9531   0.884   2.573   3.984  0.1043 -0.2357  0.6175
 6013W        W 9532   5.620   1.218   0.148  0.1238  0.1440  0.2413
 6014W        W 9533   5.290   9.605  10.789  0.3195  0.2937 -0.1807
 6015W        W 9534   7.683   6.936   1.077  0.3338  0.2791 -0.0585
 6016W        W 9535   1.492   1.748   8.660  0.3165  0.1467  0.2267
 6017W        W 9536   1.397   8.981   8.865 -0.1574  0.0199 -0.2302
 6018W        W 9537   7.274   9.710   9.084 -0.1078 -0.2031 -0.1960
 6019W        W 9538   6.975   7.316  12.209  0.0159 -0.1262 -0.0035
 6020W        W 9539   2.203   4.233   3.207 -0.2390  0.1862  0.0703
 6021W        W 9540   9.569   3.402  10.909  0.0839  0.0504  0.1159
 6022W        W 9541   6.234   6.278   1.727  0.0992  0.0322 -0.0126
 6023W        W 9542   7.808   0.125   3.394 -0.2226  0.2197  0.0657
 6024W        W 9543   2.963   9.041   2.880 -0.1815  0.0607  0.0167
 6025W        W 9544   2.160   3.400   8.004  0.0175 -0.0668  0.1156
 6026W        W 9545   5.626   3.058   9.241 -0.1891  0.0863  0.0545
 6027W        W 9546   6.961   3.643   3.293 -0.1699 -0.0640  0.4063
 6028W        W 9547   7.769   5.428   8.540 -0.0433  0.0211  0.0300
 6029W        W 9548   1.806   7.905   7.481 -0.3066  0.0827  0.1593
 6030W        W 9549   5.001   0.185   0.863 -0.2338 -0.1265 -0.0062
 6031W        W 9550   1.945   9.744   9.216  0.3922 -0.2660  0.1134
 6032W        W 9551   8.373   4.376   4.528  0.1617  0.0939 -0.1678
 6033W        W 9552   4.186   0.761   1.096  0.0447 -0.1658  0.0046
 6034W        W 9553   5.369   6.407  10.853  0.1185 -0.0671 -0.2778
 6035W        W 9554   3.415   9.363  10.606 -0.1454 -0.0493 -0.0694
 6036W        W 9555   1.627   7.408  11.856  0.2465 -0.0359 -0.0569
 6037W        W 9556   1.178   5.101   1.057  0.1231  0.0344 -0.0073
 6038W        W 9557   3.441   6.585  10.941 -0.0031  0.0560 -0.0073
 6039W        W 9558   8.468   9.533   2.358 -0.1712 -0.1631 -0.1103
 6040W        W 9559   1.096   5.333  10.598 -0.4554  0.2629 -0.2840
 6041W        W 9560   8.429   1.327   7.722  0.0953 -0.3867  0.2041
 6042W        W 9561   3.762   7.855   1.989  0.1383  0.2668 -0.0146
 6043W        W 9562   5.722   9.031   9.997 -0.0617 -0.2440 -0.2190
 6044W        W 9563   3.938   0.653  10.843 -0.1454 -0.0735 -0.1954
 6045W        W 9564   4.992   7.255   9.049 -0.2424 -0.1992 -0.2400
 6046W        W 9565   0.080   0.522   0.451 -0.0205  0.1214 -0.1675
 6047W        W 9566   1.186   3.306   9.108  0.1076  0.1916  0.1079
 6048W        W 9567   2.187   7.402   9.353  0.2135 -0.0425 -0.2293
 6049W        W 9568   7.083   8.033   2.571  0.2112 -0.0375  0.1169
 6050W        W 9569   0.213   8.360   0.781 -0.3046  0.2796  0.2707
 6051W        W 9570   4.498   5.693  10.463 -0.2159  0.0042  0.1377
 6052W        W 9571   7.356   5.969  10.775  0.0292 -0.2866  0.1831
 6053W        W 9572   0.764   3.404   1.157 -0.3054 -0.1665 -0.0513
 6054W        W 9573   3.495   6.724   2.311  0.2152  0.0079 -0.3275
 6055W        W 9574   5.067   4.289   3.489 -0.1725 -0.3864 -0.1002
 6056W        W 9575   2.649   3.562   8.841 -0.1448  0.3418 -0.5996
 6057W        W 9576   2.120   3.288  12.022 -0.3619  0.0103  0.3286
 6058W        W 9577   4.491   0.734   1.931  0.0963 -0.2757 -0.1405
 6059W        W 9578   2.955   7.668  10.990 -0.3292  0.0908  0.2688
 6060W        W 9579   7.855   8.879   3.238 -0.2462 -0.0285 -0.0134
 6061W        W 9580   8.139   1.580  12.282 -0.1273 -0.1287  0.2081
 6062W        W 9581   1.651   7.700   2.566  0.0221 -0.2100 -0.3827
 6063W        W 9582   9.614   3.292   9.268 -0.0200 -0.0490  0.2410
 6064W        W 9583   1.272   1.270   0.902  0.0790 -0.1124  0.1803
 6065W        W 9584   0.254   5.730  11.143 -0.1136  0.0089  0.2716
 6066W        W 9585   5.464   5.206  10.182  0.0160 -0.0361  0.2515
 6067W        W 9586   0.473   6.582   3.512  0.1173 -0.2039  0.1270
 6068W        W 9587   9.025   6.676   9.426 -0.4347 -0.3039  0.1689
 6069W        W 9588   6.909   8.033   9.686 -0.2035 -0.1217  0.2697
 6070W        W 9589   0.242   6.645   0.326 -0.0517  0.1560  0.2412
 6071W        W 9590   7.504   6.622   3.014  0.2052 -0.3261 -0.0768
 6072W        W 9591   7.680   1.191   1.338  0.1489 -0.2388  0.2911
 6073W        W 9592   5.099   3.514  10.639 -0.0576 -0.0078  0.1117
 6074W        W 9593   6.661   6.385  10.807  0.3137 -0.2535 -0.1250
 6075W        W 9594   2.779   5.398   8.816 -0.1833  0.0918  0.1340
 6076W        W 9595   1.247   5.864   2.122 -0.1145  0.0914  0.1294
 6077W        W 9596   2.400   9.533   1.258 -0.2152 -0.3482  0.0521
 6078W        W 9597   0.480   4.397   9.735  0.0238 -0.4078 -0.0082
 6079W        W 9598   1.962   9.288   8.883  0.0697  0.0033 -0.2637
 6080W        W 9599   8.873   0.796  10.549 -0.0496  0.4179  0.2287
 6081W        W 9600   9.469   5.574   3.188 -0.1523  0.0048 -0.2959
 6082W        W 9601   7.199   1.827   2.676 -0.1154  0.4032  0.2795
 6083W        W 9602   4.342   4.219   0.196  0.4310  0.0112  0.1552
 6084W        W 9603   5.366   1.259   1.783  0.2585 -0.1777 -0.0978
 6085W        W 9604   0.944   8.449   9.451  0.1523 -0.1248 -0.0380
 6086W        W 9605   9.168   7.503  11.683  0.0358  0.0587 -0.1891
 6087W        W 9606   3.594   5.023   4.325  0.4308  0.0550  0.0019
 6088W        W 9607   2.603   7.098   2.131 -0.1718 -0.4826 -0.1719
 6089W        W 9608   8.576   0.859   2.579  0.0147 -0.0357 -0.1140
 6090W        W 9609   8.536   7.668  11.672 -0.3174  0.1094 -0.0311
 6091W        W 9610   1.056   9.451   8.898  0.1144 -0.4467 -0.0424
 6092W        W 9611   5.042   8.087  12.231 -0.1754  0.0995  0.2993
 6093W        W 9612   0.810   9.519   9.998 -0.0804 -0.1767 -0.0559
 6094W        W 9613   1.573   6.668   2.373 -0.0504  0.1348 -0.1006
 6095W        W 9614   8.093   1.967   3.445 -0.1739 -0.1382  0.2229
 6096W        W 9615   4.105   6.408   0.288 -0.2524  0.1268 -0.2412
 6097W        W 9616   5.908   8.303   9.436 -0.1567 -0.4463 -0.0245
 6098W        W 9617   4.640   2.735   3.918 -0.2052 -0.0649  0.0363
 6099W        W 9618   4.574   6.591   4.120 -0.0816  0.0178 -0.2975
 6100W        W 9619   4.640   6.567   0.086  0.2023  0.0530 -0.0862
 6101W        W 9620   7.572   7.843   0.094 -0.1530  0.0571  0.2800
 6102W        W 9621   4.747   0.301  10.137  0.1285  0.1616  0.0041
 6103W        W 9622   5.889   3.262  11.267  0.3335 -0.2690 -0.0671
 6104W        W 9623   6.148   4.552   1.139  0.0764 -0.2113 -0.0479
 6105W        W 9624   8.550   6.262   0.445  0.1109  0.0234 -0.0842
 6106W        W 9625   5.347   7.272   2.811  0.2416  0.1287  0.2631
 6107W        W 9626   6.308   0.945  12.094 -0.2786 -0.0986 -0.1977
 6108W        W 9627   0.219   7.414   0.485  0.0497 -0.0600  0.3814
 6109W        W 9628   6.990   3.640   9.955  0.1505 -0.0766  0.0555
 6110W        W 9629   9.212   1.452   9.155 -0.0694  0.2165 -0.0659
 6111W        W 9630   6.697   8.012   1.245 -0.2747 -0.2228 -0.1024
 6112W        W 9631   1.410   6.935  11.049 -0.2077 -0.1473  0.3290
 6113W        W 9632   6.718   4.081   8.755  0.4131 -0.1223 -0.3285
 6114W        W 9633   3.932   4.326   0.800 -0.1587 -0.1953 -0.1346
 6115W        W 9634   6.243   9.513   1.737 -0.2197 -0.2337  0.0278
 6116W        W 9635   9.674   8.161   2.820 -0.0288  0.0008 -0.2032
 6117W        W 9636   2.261   1.546  10.871  0.1280 -0.1060  0.1799
 6118W        W 9637   7.126   5.917   9.780  0.1698  0.2358  0.3746
 6119W        W 9638   4.590   7.183  11.644 -0.0406 -0.0813 -0.0723
 6120W        W 9639   3.871   0.137   8.378  0.1210 -0.0628  0.0643
 6121W        W 9640   1.912   4.680   9.915  0.1187  0.0490 -0.1538
 6122W        W 9641   6.829   5.767   2.106  0.2289  0.4550  0.0010
 6123W        W 9642   1.211   6.372   3.305  0.2456 -0.5492  0.0353
 6124W        W 9643   9.408   3.620   2.734  0.1882  0.1809 -0.0440
 6125W        W 9644   7.794   5.118   3.250 -0.0376 -0.0565  0.2368
 6126W        W 9645   3.236   7.247   2.690 -0.3286  0.1386  0.0478
 6127W        W 9646   1.780   9.726   3.535  0.1022 -0.0945  0.0575
 6128W        W 9647   5.182   1.755  11.992  0.0101 -0.2306  0.2687
 6129W        W 9648   9.533   3.493   3.801  0.0986 -0.3059  0.0323
 6130W        W 9649   1.977   7.917  10.296  0.0794 -0.0637 -0.0025
 6131W        W 9650   1.988   2.918   8.904 -0.3325 -0.0416  0.0746
 6132W        W 9651   7.865   7.219   9.064 -0.2113 -0.0768 -0.3677
 6133W        W 9652   4.832   1.953  11.612  0.6869  0.2916  0.0572
 6134W        W 9653   0.895   5.519   1.926  0.2019  0.1023 -0.3336
 6135W        W 9654   0.989   7.368  11.618  0.2538 -0.0045  0.2222
 6136W        W 9655   0.340   3.279  10.986 -0.1656 -0.0791 -0.1231
 6137W        W 9656   3.712   9.179  12.360  0.0708 -0.3441 -0.0672
 6138W        W 9657   3.318   9.500  12.175  0.7079  0.0891  0.2057
 6139W        W 9658   7.024   0.580  10.899 -0.3859 -0.3804  0.1096
 6140W        W 9659   2.033   8.325  10.543 -0.0772  0.2111  0.1870
 6141W        W 9660   8.937   8.992  11.984  0.0606 -0.2563  0.3052
 6142W        W 9661   8.927   4.673   8.557 -0.0221  0.0981 -0.1164
 6143W        W 9662   0.526   7.320   4.160 -0.2293 -0.1577  0.0852
 6144W        W 9663   8.221   9.075   0.001 -0.0577  0.4087 -0.4143
 6145W        W 9664   4.473   7.154   3.981  0.0810 -0.0360  0.1215
 6146W        W 9665   5.102   2.068   2.064  0.1770  0.1297 -0.0262
 6147W        W 9666   3.367   3.551   0.375 -0.0426  0.1493 -0.0247
 6148W        W 9667   7.260   2.157  10.035 -0.0408 -0.1007 -0.1196
 6149W        W 9668   0.031   7.253   2.857 -0.0056 -0.0084  0.1949
 6150W        W 9669   4.072   7.089   8.716  0.0162 -0.2275  0.4658
 6151W        W 9670   9.491   1.271   2.439 -0.1038 -0.0163 -0.1458
 6152W        W 9671   2.948   8.688   9.677 -0.3084 -0.0633 -0.0634
 6153W        W 9672   7.804   0.715   9.024  0.0336 -0.4467 -0.0639
 6154W        W 9673   3.142   3.994  11.556  0.1160  0.0185  0.0023
 6155W        W 9674   2.075   0.299  10.248  0.0362  0.1793 -0.2165
 6156W        W 9675   5.632   2.729   0.273 -0.2871  0.1552 -0.0925
 6157W        W 9676   9.703   5.887   2.278  0.2195 -0.0665 -0.0331
 6158W        W 9677   2.080   2.622  10.634  0.2395  0.4497  0.2124
 6159W        W 9678   5.348   1.479   1.285 -0.1639  0.2292 -0.2019
 6160W        W 9679   7.514   8.424   2.944 -0.2555 -0.1074 -0.1545
 6161W        W 9680   8.385   7.998   9.835  0.1260 -0.2550  0.0696
 6162W        W 9681   0.192   7.615   9.382  0.2165  0.0501  0.1525
 6163W        W 9682   8.134   4.825  10.655  0.1931  0.2761  0.4058
 6164W        W 9683   2.064   2.710  11.149 -0.2374 -0.2970 -0.2016
 6165W        W 9684   5.557   5.436   1.365 -0.2424 -0.3908 -0.0145
 6166W        W 9685   6.633   5.414   1.279 -0.1496  0.0648  0.0939
 6167W        W 9686   6.967   3.993   3.658  0.1025 -0.0400 -0.1750
 6168W        W 9687   9.028   2.569   8.799  0.0794  0.1947  0.3971
 6169W        W 9688   0.250   2.200  10.888 -0.3474 -0.0237  0.0810
 6170W        W 9689   5.384   3.561   1.507  0.1878 -0.0294  0.1037
 6171W        W 9690   9.500   8.272  11.522 -0.0546 -0.0545  0.1594
 6172W        W 9691   7.389   0.567  12.114  0.1444 -0.1445 -0.2734
 6173W        W 9692   8.855   6.159  11.187 -0.1272 -0.1534 -0.0857
 6174W        W 9693   9.266   4.411   4.050 -0.1526  0.1758  0.0685
 6175W        W 9694   1.293   0.145   8.706  0.4562 -0.0579 -0.1251
 6176W        W 9695   3.141   5.287   9.485  0.0599  0.0873 -0.1535
 6177W        W 9696   2.209   6.833   2.140  0.3167 -0.2893 -0.5769
 6178W        W 9697   1.243   1.219   0.339  0.0610  0.2617  0.2378
 6179W        W 9698   1.704   3.898   8.702  0.0298  0.1178  0.2323
 6180W        W 9699   3.213   4.531  11.747 -0.0026  0.2287  0.0086
 6181W        W 9700   8.605   3.521   1.910 -0.0133 -0.1403 -0.0673
 6182W        W 9701   5.854   7.253   2.649 -0.1667 -0.1219 -0.0115
 6183W        W 9702   3.705   7.505   2.840 -0.3832  0.2977 -0.1021
 6184W        W 9703   1.781   6.461   8.065  0.2339  0.1430 -0.1719
 6185W        W 9704   3.514   7.349   9.362  0.1935  0.1081  0.1594
 6186W        W 9705   6.574   3.827   9.778 -0.3513 -0.3351  0.2886
 6187W        W 9706   1.836   8.518  12.150 -0.3841 -0.0810 -0.1187
 6188W        W 9707   5.081   1.175  10.163  0.1671 -0.3196  0.2311
 6189W        W 9708   3.449   1.088   0.826  0.0839 -0.1032 -0.1440
 6190W        W 9709   7.252   5.163   3.856  0.1336  0.0553  0.0791
 6191W        W 9710   9.472   0.493   2.884 -0.1914  0.3394  0.2114
 6192W        W 9711   8.802   5.497  11.797  0.0828  0.1766  0.1704
 6193W        W 9712   6.020   8.005   8.669 -0.3081 -0.4677 -0.1353
 6194W        W 9713   0.899   9.229   1.343  0.3318  0.1192  0.0596
 6195W        W 9714   6.208   0.890   3.040 -0.2368 -0.3215 -0.2023
 6196W        W 9715   2.523   8.268  11.450  0.1008 -0.1004  0.1960
 6197W        W 9716   9.449   3.121  11.756  0.0939  0.0047  0.0062
 6198W        W 9717   1.736   5.400  11.907 -0.0142  0.1078  0.0253
 6199W        W 9718   0.625   3.300   3.263 -0.0132 -0.0160  0.0555
 6200W        W 9719   8.826   7.600   1.195  0.1395  0.1267  0.1360
 6201W        W 9720   1.217   2.007   8.951  0.2599  0.1191 -0.2216
 6202W        W 9721   9.482   5.074   9.292  0.1760  0.0142  0.1202
 6203W        W 9722   4.672   7.091   8.760  0.1423 -0.2899 -0.1607
 6204W        W 9723   6.996   6.358   1.307  0.4913 -0.1667 -0.1480
 6205W        W 9724   5.008   4.378  11.614  0.1858  0.1140 -0.0563
 6206W        W 9725   3.915   0.477  12.103 -0.0653  0.0223 -0.0752
 6207W        W 9726   6.455   1.273   2.254 -0.1280 -0.2095  0.1374
 6208W        W 9727   2.106   7.300   8.190 -0.0366  0.1630  0.1761
 6209W        W 9728   2.060   8.934   1.759 -0.1198  0.0667  0.0039
 6210W        W 9729   1.834   4.644   8.986 -0.2408  0.2733  0.0889
 6211W        W 9730   4.495   4.431  11.604 -0.3875 -0.2125 -0.0474
 6212W        W 9731   4.597   5.878   4.617  0.3199  0.0079  0.0958
 6213W        W 9732   0.155   4.468  10.613  0.0754  0.2446  0.1671
 6214W        W 9733   8.046   7.773   8.903  0.0996  0.1213  0.3589
 6215W        W 9734   2.601   0.970   9.904 -0.2881  0.2949  0.2650
 6216W        W 9735   8.418   4.376   4.054 -0.0813  0.2063 -0.1887
 6217W        W 9736   5.470   8.190   0.498 -0.1521 -0.2525 -0.3565
 6218W        W 9737   3.798   5.291  11.168 -0.2058 -0.3309 -0.0348
 6219W        W 9738   0.668   3.804   7.700 -0.2505 -0.0166  0.2872
 6220W        W 9739   3.834   8.913  10.659 -0.3355  0.0373  0.1553
 6221W        W 9740   1.114   3.148  10.120 -0.0372 -0.1989  0.0929
 6222W        W 9741   1.365   3.853   2.200 -0.2186 -0.1725 -0.0402
 6223W        W 9742   0.999   0.179   2.995 -0.1048  0.1650  0.3896
 6224W        W 9743   1.874   0.097   0.592 -0.0086 -0.0460 -0.1248
 6225W        W 9744   6.655   4.119   2.417  0.2121 -0.1538  0.0854
 6226W        W 9745   6.979   4.128   1.572  0.1966  0.2163  0.1180
 6227W        W 9746   6.563   7.664   3.393 -0.0277  0.1727 -0.0596
 6228W        W 9747   7.652   5.333   2.581  0.0281  0.0085 -0.0729
 6229W        W 9748   7.873   4.012   0.282  0.3183 -0.3550  0.1579
 6230W        W 9749   2.272   2.930  10.322  0.0316 -0.0671  0.1926
 6231W        W 9750   5.358   2.744  11.799  0.2559  0.3312  0.0256
 6232W        W 9751   3.014   6.048   0.308  0.1050  0.1514 -0.2387
 6233W        W 9752   1.801   7.620   4.133  0.2759  0.3087  0.0914
 6234W        W 9753   7.453   1.007   9.309  0.1936  0.3167 -0.0799
 6235W        W 9754   0.706   2.087   8.996 -0.0973 -0.2351  0.1607
 6236W        W 9755   5.520   5.240  11.270  0.0683 -0.1410  0.0911
 6237W        W 9756   6.725   0.860   2.395 -0.0285 -0.0585 -0.0097
 6238W        W 9757   3.152   0.762   2.275  0.0772  0.0118 -0.1007
 6239W        W 9758   1.161   7.877   2.880  0.0713  0.2745  0.1147
 6240W        W 9759   5.891   2.782   8.834  0.0841 -0.3071 -0.0077
 6241W        W 9760   2.733   7.201   0.770  0.3888 -0.1302  0.3537
 6242W        W 9761   3.039   2.777   0.719  0.0602 -0.2462 -0.0053
 6243W        W 9762   3.994   4.098   7.966 -0.0283 -0.2164  0.1800
 6244W        W 9763   2.665   5.381   3.011 -0.0282 -0.1616 -0.1530
 6245W        W 9764   1.164   1.072  12.258 -0.1736 -0.0834  0.1529
 6246W        W 9765   6.693   1.938   2.581 -0.2193  0.1440  0.1903
 6247W        W 9766   0.942   7.673  11.161 -0.1902 -0.1359  0.2862
 6248W        W 9767   5.116   6.491  11.282  0.0644 -0.0194 -0.0063
 6249W        W 9768   7.620   6.378   1.760 -0.1006 -0.1771 -0.0396
 6250W        W 9769   9.333   1.892   4.052 -0.2228 -0.1413 -0.2329
 6251W        W 9770   5.203   8.298   9.312 -0.3000 -0.1930  0.0221
 6252W        W 9771   8.996   0.790   9.469 -0.0897  0.0387  0.0322
 6253W        W 9772   4.654   7.130   0.083  0.1568 -0.1550  0.1541
 6254W        W 9773   1.649   5.262   3.313  0.0781  0.1262  0.1913
 6255W        W 9774   0.961   8.235   1.490 -0.0556  0.0960 -0.1656
 6256W        W 9775   2.466   0.125   3.171 -0.2015  0.2824  0.1065
 6257W        W 9776   4.289   9.727   1.448  0.0518 -0.2826 -0.1792
 6258W        W 9777   2.139   8.372   0.809 -0.0190 -0.1080 -0.0839
 6259W        W 9778   6.612   6.241   8.650 -0.1074  0.0314  0.0654
 6260W        W 9779   4.929   7.798  10.249  0.2605  0.0493  0.0339
 6261W        W 9780   1.244   5.280  11.993 -0.0767  0.4016 -0.0171
 6262W        W 9781   8.500   2.237   3.218  0.2729 -0.1167 -0.0972
 6263W        W 9782   2.724   3.549  10.914 -0.0345 -0.1449 -0.1810
 6264W        W 9783   3.909   1.857  11.481 -0.0472  0.0668 -0.2168
 6265W        W 9784   9.283   3.459   8.381  0.0339  0.1170  0.0375
 6266W        W 9785   0.945   7.070   3.970 -0.1373 -0.1158 -0.3500
 6267W        W 9786   3.971   0.490   0.724  0.0025  0.3990 -0.1007
 6268W        W 9787   2.412   0.031   8.444 -0.2008  0.1291  0.1824
 6269W        W 9788   0.885   3.569  11.548  0.1001 -0.1214  0.1183
 6270W        W 9789   9.732   9.276   0.064  0.0726  0.0068 -0.0370
 6271W        W 9790   6.867   0.380   1.610  0.1254  0.1639  0.0789
 6272W        W 9791   3.572   5.177  11.849 -0.0729  0.2293  0.3088
 6273W        W 9792   0.356   3.107   2.842 -0.0214 -0.2493  0.2838
 6274W        W 9793   6.421   0.879   8.878 -0.1286  0.2772 -0.2353
 6275W        W 9794   3.427   0.863   9.698  0.0955 -0.0304 -0.0099
 6276W        W 9795   5.718   4.408   1.388 -0.0230  0.0569 -0.2480
 6277W        W 9796   1.072   2.141  11.355  0.2729 -0.1070  0.1895
 6278W        W 9797   4.658   4.207   3.291 -0.0933 -0.2222  0.0657
 6279W        W 9798   6.036   3.586  12.137  0.3823  0.1862  0.1640
 6280W        W 9799   2.131   2.248   1.457  0.0422 -0.0207  0.1998
 6281W        W 9800   4.617   7.644   8.902 -0.4170  0.2580  0.0573
 6282W        W 9801   2.203   1.633  10.362  0.2327 -0.0885  0.1040
 6283W        W 9802   9.721   8.653   8.114 -0.1628 -0.1613  0.2431
 6284W        W 9803   7.832   5.407   1.764 -0.0241 -0.0963  0.2150
 6285W        W 9804   1.791   1.194   1.846 -0.1900 -0.3475 -0.0162
 6286W        W 9805   0.453   4.843  10.629  0.0507  0.0582  0.0710
 6287W        W 9806   1.128   0.741   1.550 -0.1530  0.2866  0.0135
 6288W        W 9807   7.769   3.189  12.137  0.0081 -0.0108  0.2593
 6289W        W 9808   1.226   0.689   8.797 -0.2048 -0.0465  0.1856
 6290W        W 9809   7.821   9.413   3.633 -0.2036  0.1771  0.0077
 6291W        W 9810   1.252   2.617   2.542 -0.1382 -0.1369 -0.1382
 6292W        W 9811   4.597   4.069   2.259  0.0615 -0.1320 -0.2672
 6293W        W 9812   1.982   0.175   9.734  0.0481  0.1078 -0.0883
 6294W        W 9813   6.652   2.999  10.897 -0.2926  0.1975  0.2795
 6295W        W 9814   8.704   1.383   0.808  0.2464 -0.1857 -0.2406
 6296W        W 9815   5.105   7.559  12.229  0.0385  0.0969  0.1041
 6297W        W 9816   4.767   8.767   2.147 -0.2027 -0.0566 -0.0038
 6298W        W 9817   2.818   9.032   3.968  0.1630 -0.0789 -0.1337
 6299W        W 9818   9.005   6.299   9.126 -0.0450  0.0655 -0.4833
 6300W        W 9819   1.940   1.514   8.596  0.4057  0.1342 -0.0486
 6301W        W 9820   3.324   8.105   3.439 -0.0871 -0.0482  0.1541
 6302W        W 9821   7.409   6.814  12.179 -0.0493  0.0996  0.1745
 6303W        W 9822   3.282   8.171   0.559 -0.1885  0.1522 -0.0494
 6304W        W 9823   2.887   2.629  11.026  0.0821 -0.4051  0.0849
 6305W        W 9824   7.581   8.877  11.734  0.3446  0.0289 -0.0366
 6306W        W 9825   7.103   8.870   0.905 -0.2018 -0.0665  0.1820
 6307W        W 9826   1.456   1.634   2.579  0.3977  0.2532 -0.0371
 6308W        W 9827   1.116   3.614  10.318 -0.2564  0.0601  0.3363
 6309W        W 9828   0.957   4.178   2.201 -0.1802 -0.1669 -0.2670
 6310W        W 9829   6.543   3.014   0.679 -0.1372 -0.0604  0.4105
 6311W        W 9830   2.462   5.951   9.110 -0.2906  0.2332  0.2415
 6312W        W 9831   8.471   8.366   2.850  0.1934  0.2977  0.3688
 6313W        W 9832   5.024   8.863  11.977 -0.0736  0.1262  0.3415
 6314W        W 9833   3.349   7.533   9.887 -0.2516  0.3300 -0.2555
 6315W        W 9834   1.794   7.026   9.083  0.0997 -0.3295  0.1354
 6316W        W 9835   6.605   4.296   7.787 -0.1560  0.1876 -0.0535
 6317W        W 9836   7.721   2.635   9.173  0.3200 -0.2203 -0.3096
 6318W        W 9837   5.292   8.969   2.275  0.1167 -0.0681  0.5163
 6319W        W 9838   9.341   5.352   1.301  0.0492 -0.3546  0.0255
 6320W        W 9839   6.631   1.100   0.327 -0.0922  0.2469 -0.1198
 6321W        W 9840   0.249   7.503  12.069 -0.0714 -0.2191 -0.0107
 6322W        W 9841   7.934   5.646   9.308  0.3238  0.2944 -0.3748
 6323W        W 9842   9.636   2.730   1.300 -0.1445  0.0961  0.1431
 6324W        W 9843   1.091   4.701  11.413 -0.1245 -0.0451 -0.1175
 6325W        W 9844   1.517   0.127   9.515 -0.0040 -0.2759 -0.2246
 6326W        W 9845   1.796   8.620   8.617  0.0699  0.0278  0.3036
 6327W        W 9846   5.049   4.896   9.371  0.0392  0.1652  0.0370
 6328W        W 9847   3.013   9.101   8.754  0.0211  0.0392  0.1144
 6329W        W 9848   0.939   0.547   7.724  0.0912  0.2124 -0.1807
 6330W        W 9849   4.823   5.772  12.008  0.0751 -0.0642 -0.1105
 6331W        W 9850   8.153   3.401  10.031  0.0568  0.1923 -0.0789
 6332W        W 9851   3.065   3.933   1.210 -0.0440 -0.0917 -0.1550
 6333W        W 9852   1.156   1.822  11.738  0.2154  0.2234  0.0643
 6334W        W 9853   3.371   8.702   1.947  0.0741  0.1524 -0.2550
 6335W        W 9854   8.693   2.997   3.643  0.0826  0.0696 -0.0182
 6336W        W 9855   1.435   4.881   8.783 -0.0417 -0.0556 -0.0425
 6337W        W 9856   0.037   4.774   8.532  0.4418 -0.1205 -0.2760
 6338W        W 9857   9.302   8.821   2.353 -0.1937  0.0440  0.1592
 6339W        W 9858   1.537   6.588   0.574  0.1977  0.0592 -0.4229
 6340W        W 9859   7.508   9.227  10.551  0.0396  0.0760 -0.1392
 6341W        W 9860   1.787   4.751   8.426  0.1312  0.1119  0.1051
 6342W        W 9861   4.343   2.900   3.352  0.2673 -0.1638 -0.2599
 6343W        W 9862   8.305   3.133   0.378 -0.0472 -0.2294 -0.1766
 6344W        W 9863   1.812   1.364   2.363  0.0782  0.1551  0.2188
 6345W        W 9864   6.786   3.784   7.943 -0.2710  0.1073  0.0864
 6346W        W 9865   8.135   6.471   3.543  0.3726  0.1191  0.1209
 6347W        W 9866   7.327   3.377   2.407  0.1401  0.3291 -0.0568
 6348W        W 9867   2.305   2.034  11.252  0.0224  0.0326 -0.1226
 6349W        W 9868   0.696   7.868  11.664  0.3036 -0.2067 -0.2830
 6350W        W 9869   1.152   2.601  11.407 -0.0779 -0.2356  0.1146
 6351W        W 9870   8.601   5.518  10.077 -0.0619 -0.1623 -0.0971
 6352W        W 9871   1.943   9.711   8.697 -0.3025  0.0388 -0.3430
 6353W        W 9872   2.016   5.624   9.484 -0.2297 -0.0234  0.0687
 6354W        W 9873   9.713   6.496   2.098  0.0125 -0.0893  0.0742
 6355W        W 9874   7.144   8.482  10.033  0.0235 -0.0144  0.4532
 6356W        W 9875   1.829   3.175   4.290 -0.0664  0.1571 -0.3373
 6357W        W 9876   8.431   2.068  11.518 -0.0734  0.0707 -0.2004
 6358W        W 9877   0.301   7.968  10.285  0.2910  0.5796  0.4859
 6359W        W 9878   2.714   2.807   1.110  0.0539 -0.1282 -0.2020
 6360W        W 9879   4.582   3.510   3.122 -0.2201  0.2463 -0.1999
 6361W        W 9880   4.369   1.428   0.657 -0.0505  0.3048 -0.0401
 6362W        W 9881   3.668   4.511   1.749  0.2041  0.1382 -0.1129
 6363W        W 9882   0.091   0.387   8.336  0.0237  0.3598  0.1796
 6364W        W 9883   3.584   4.043   2.634 -0.0965 -0.0033 -0.0955
 6365W        W 9884   9.693   9.594   2.376  0.4181 -0.0007  0.0902
 6366W        W 9885   3.895   4.623   2.994 -0.0748 -0.0040  0.1368
 6367W        W 9886   7.212   2.737   0.986  0.0789 -0.0348 -0.0063
 6368W        W 9887   4.104   4.789   9.858  0.1681 -0.3655 -0.1873
 6369W        W 9888   7.635   3.768   0.710 -0.0763 -0.2741  0.1747
 6370W        W 9889   5.214   9.498   4.075 -0.0450 -0.0375 -0.1388
 6371W        W 9890   6.756   0.870  10.131  0.0031 -0.0926  0.2402
 6372W        W 9891   4.014   2.552   1.160  0.1963 -0.0429 -0.1647
 6373W        W 9892   7.945   9.507   0.115  0.0577 -0.0404  0.0805
 6374W        W 9893   3.695   5.829   0.874  0.2865  0.0977  0.0247
 6375W        W 9894   7.378   1.782   0.707 -0.2110  0.1804 -0.0150
 6376W        W 9895   6.285   3.849   7.995 -0.1856  0.1918  0.2019
 6377W        W 9896   8.365   9.393   0.694  0.3087 -0.1618 -0.2624
 6378W        W 9897   6.368   5.960   9.631  0.0057  0.0164 -0.3327
 6379W        W 9898   3.130   4.097   9.265  0.2313 -0.1835 -0.1594
 6380W        W 9899   1.386   0.522  12.300  0.1968 -0.2312  0.0959
 6381W        W 9900   2.006   4.993   4.310 -0.0809 -0.2504  0.0597
 6382W        W 9901   4.222   0.142   1.946  0.3339 -0.1598  0.0688
 6383W        W 9902   0.549   0.327  11.265 -0.2033 -0.0128  0.0387
 6384W        W 9903   4.218   0.938   3.075  0.0524 -0.4958  0.0665
 6385W        W 9904   2.465   5.993   0.394 -0.0270 -0.0894  0.2796
 6386W        W 9905   6.222   4.160   1.485  0.0663  0.5224  0.1993
 6387W        W 9906   2.050   6.111   1.863 -0.1153 -0.1203 -0.2888
 6388W        W 9907   4.101   6.162   0.777  0.1542 -0.1137  0.0682
 6389W        W 9908   6.482   5.597  10.467  0.1553  0.0937 -0.1446
 6390W        W 9909   8.910   2.859   9.448  0.1551 -0.0786  0.2697
 6391W        W 9910   8.854   9.106   2.350  0.0934 -0.2151  0.0607
 6392W        W 9911   1.999   4.625   3.367  0.0977  0.3212 -0.1582
 6393W        W 9912   0.550   7.448   1.618 -0.3797  0.0695  0.0673
 6394W        W 9913   8.255   6.081  11.177  0.1033  0.0768  0.2553
 6395W        W 9914   9.345   6.802   8.677  0.2547  0.0361 -0.0666
 6396W        W 9915   1.758   2.513   2.924  0.1484  0.0642  0.0031
 6397W        W 9916   8.912   7.388   3.569  0.1945 -0.4775 -0.3290
 6398W        W 9917   7.899   4.141   1.540 -0.0967  0.0767 -0.0462
 6399W        W 9918   4.008   0.565   3.300 -0.1023  0.2449  0.1336
 6400W        W 9919   7.969   3.311  11.048  0.1396 -0.0685 -0.1454
 6401W        W 9920   5.656   7.991   1.005  0.3853 -0.0058 -0.0252
 6402W        W 9921   4.571   6.291   3.448 -0.1338  0.2756  0.1311
 6403W        W 9922   8.932   9.408  12.243 -0.3617 -0.1426  0.1577
 6404W        W 9923   6.529   5.633   4.646  0.1088 -0.1248 -0.1011
 6405W        W 9924   0.838   5.059   2.762 -0.3403 -0.0745  0.2023
 6406W        W 9925   6.335   1.793   3.400  0.3193 -0.0749 -0.0713
 6407W        W 9926   0.399   6.303   1.538  0.1609 -0.0871 -0.1263
 6408W        W 9927   0.320   8.645  10.284 -0.2258 -0.3115 -0.1428
 6409W        W 9928   2.649   7.575   3.318 -0.1668  0.0350 -0.1987
 6410W        W 9929   5.467   7.970   8.968  0.3041  0.0730 -0.0199
 6411W        W 9930   0.866   2.800   0.989  0.0971  0.0782 -0.2397
 6412W        W 9931   5.568   2.955  12.248 -0.0905  0.2823 -0.1160
 6413W        W 9932   2.085   3.253   2.190  0.0609  0.0035  0.0873
 6414W        W 9933   4.877   4.635  12.197  0.1606 -0.0428 -0.3614
 6415W        W 9934   9.082   9.368   4.596  0.1464 -0.1448 -0.3703
 6416W        W 9935   1.397   6.438  11.021 -0.0983  0.2150  0.1346
 6417W        W 9936   8.204   6.793  11.747 -0.3527  0.2121  0.0909
 6418W        W 9937   4.123   1.025  11.886 -0.2382 -0.2976 -0.2163
 6419W        W 9938   6.644   2.662  12.279 -0.4101  0.5406  0.2373
 6420W        W 9939   5.236   6.827   8.664 -0.0231 -0.0651 -0.1560
 6421W        W 9940   5.169   6.087   3.448  0.2489 -0.2723 -0.0149
 6422W        W 9941   3.596   1.914   1.145 -0.2349 -0.1574 -0.0303
 6423W        W 9942   1.142   6.052   2.620  0.0206  0.2447  0.2007
 6424W        W 9943   8.051   2.894   8.902 -0.0258  0.0434  0.0785
 6425W        W 9944   6.701   0.086   3.711 -0.0094  0.0068  0.0352
 6426W        W 9945   2.140   8.796   8.944 -0.0616 -0.0048  0.0417
 6427W        W 9946   2.984   6.042   9.677 -0.0665  0.2761  0.0008
 6428W        W 9947   8.758   7.742  10.078  0.1287  0.3660  0.0160
 6429W        W 9948   3.648   6.707   4.028 -0.2309 -0.0510 -0.2344
 6430W        W 9949   5.123   7.126   1.885 -0.3235 -0.2640  0.1011
 6431W        W 9950   0.851   8.423  12.160 -0.1123  0.1529  0.0091
 6432W        W 9951   8.317   8.766  10.397 -0.0880 -0.0190  0.2542
 6433W        W 9952   2.892   7.441  11.836 -0.1167 -0.4022  0.1750
 6434W        W 9953   1.267   3.529  10.933  0.3000 -0.0870  0.0451
 6435W        W 9954   9.491   2.012  10.612  0.1041  0.0053 -0.2183
 6436W        W 9955   4.923   4.007   9.697  0.0480 -0.1327 -0.1967
 6437W        W 9956   1.736   2.435   3.850  0.0213 -0.0846 -0.1094
 6438W        W 9957   5.026   5.288   1.880 -0.0994  0.1745 -0.3433
 6439W        W 9958   1.894   8.629  11.023 -0.0346 -0.2362 -0.1970
 6440W        W 9959   9.231   3.869  10.160  0.0505 -0.0084 -0.1889
 6441W        W 9960   2.788   3.505   0.353  0.1921  0.1789  0.0078
 6442W        W 9961   4.163   2.637   2.939  0.0914 -0.0325  0.1711
 6443W        W 9962   5.990   4.980   9.384 -0.0951  0.2523 -0.1686
 6444W        W 9963   3.681   5.027   2.859  0.0191  0.0043 -0.0364
 6445W        W 9964   4.287   3.914  10.137  0.2395  0.0367  0.2200
 6446W        W 9965   4.234   7.687   0.051  0.1789 -0.1688 -0.1771
 6447W        W 9966   2.777   5.568   0.260 -0.0271  0.0851 -0.1053
 6448W        W 9967   2.183   2.739   0.904  0.1768  0.0959  0.0436
 6449W        W 9968   2.176   3.799  11.937 -0.0176 -0.0097  0.2377
 6450W        W 9969   8.494   4.316  10.532  0.1008 -0.0956  0.2562
 6451W        W 9970   9.348   7.532   8.635  0.0465 -0.1366  0.1647
 6452W        W 9971   8.732   4.339   2.486 -0.1542 -0.2174  0.0588
 6453W        W 9972   1.150   9.527   2.579  0.1692  0.1897 -0.0149
 6454W        W 9973   7.115   5.791   8.856  0.3163 -0.0972  0.1917
 6455W        W 9974   3.786   9.109   9.757  0.2118 -0.0382 -0.2476
 6456W        W 9975   9.705   1.716   0.231 -0.5738 -0.2463  0.1032
 6457W        W 9976   8.970   5.566   9.674  0.2571  0.1903  0.1323
 6458W        W 9977   8.699   3.996  11.786  0.4385  0.0256  0.2195
 6459W        W 9978   5.480   3.524  11.230  0.0419  0.0340 -0.0125
 6460W        W 9979   8.321   1.742   9.859  0.1681 -0.0569  0.1908
 6461W        W 9980   9.670   4.434   1.652 -0.2118  0.0178 -0.0139
 6462W        W 9981   1.113   0.106   9.812  0.3164 -0.0140  0.1342
 6463W        W 9982   1.099   3.786   8.021  0.0261 -0.1191  0.4777
 6464W        W 9983   7.740   6.107  11.000  0.1079 -0.2397 -0.0597
 6465W        W 9984   1.001   0.874   8.243  0.0442 -0.1722 -0.0806
 6466W        W 9985   2.009   0.667  10.582 -0.0593 -0.1470 -0.0834
 6467W        W 9986   7.293   8.748  10.794  0.0553 -0.1851  0.0293
 6468W        W 9987   2.681   6.748   9.874 -0.4992 -0.1422 -0.0397
 6469W        W 9988   3.725   9.703   9.486  0.0926 -0.2934  0.1543
 6470W        W 9989   7.153   8.167   0.146  0.1012 -0.0597 -0.3503
 6471W        W 9990   6.675   8.840   8.686 -0.1536 -0.0185  0.0313
 6472W        W 9991   2.941   5.786  11.373 -0.1683  0.0071 -0.0865
 6473W        W 9992   4.479   2.537   8.733  0.0403  0.0186  0.2411
 6474W        W 9993   3.196   0.885   3.127 -0.0137  0.1040 -0.1741
 6475W        W 9994   9.035   5.814   4.656 -0.1747 -0.3546  0.1474
 6476W        W 9995   0.213   6.281   2.527 -0.3905  0.0038  0.1235
 6477W        W 9996   3.354   3.654   3.033  0.2457  0.0343  0.0448
 6478W        W 9997   4.720   2.359   0.653 -0.0259  0.4069 -0.1450
 6479W        W 9998   2.443   2.571   7.972 -0.1920 -0.1558 -0.1105
 6480W        W 9999   7.439   0.797   1.523  0.0978  0.1847 -0.0737
 6481W        W10000   4.201   3.709   0.556  0.0189 -0.0430  0.2331
 6482W        W10001   4.326   8.083   0.430  0.0349 -0.1418 -0.3275
 6483W        W10002   1.339   1.590   1.534  0.1667 -0.2811  0.0636
 6484W        W10003   6.692   5.791   9.999  0.1441 -0.3358  0.1052
 6485W        W10004   7.624   7.158   8.636 -0.3746 -0.0273  0.2879
 6486W        W10005   3.544   3.121   0.262 -0.0617  0.1468  0.0818
 6487W        W10006   2.607   3.121   1.520 -0.0127  0.1675 -0.1456
 6488W        W10007   8.416   8.443   1.774  0.1536  0.1277 -0.1151
 6489W        W10008   3.146   5.307   1.936  0.0075 -0.2925 -0.1740
 6490W        W10009   2.402   4.440   9.106 -0.1854  0.1838 -0.1970
 6491W        W10010   1.881   7.786   8.523 -0.3585  0.0915 -0.1962
 6492W        W10011   8.646   6.983   4.845 -0.2316  0.1006 -0.0425
 6493W        W10012   3.600   0.736   0.493 -0.0402 -0.0436 -0.3061
 6494W        W10013   9.045   6.470  11.581  0.0284 -0.4345  0.1399
 6495W        W10014   9.515   4.218  10.435 -0.0832 -0.0401  0.2427
 6496W        W10015   7.866   0.137   9.633  0.0533 -0.1558 -0.1783
 6497W        W10016   9.511   9.033   3.137 -0.0969 -0.2241  0.0233
 6498W        W10017   6.689   3.316  10.440  0.1292 -0.2802  0.3814
 6499W        W10018   4.835   3.962  11.897 -0.0362 -0.1100  0.0665
 6500W        W10019   0.886   1.305   2.180  0.1566 -0.0404 -0.0224
 6501W        W10020   9.487   7.714   9.084  0.1559  0.2541 -0.1461
 6502W        W10021   9.202   3.400   0.894  0.0180  0.2306  0.2079
 6503W        W10022   7.627   1.065   2.423  0.0762 -0.1922 -0.0260
 6504W        W10023   0.489   1.538   2.326  0.1106 -0.3981  0.0506
 6505W        W10024   8.092   6.056   0.537  0.2651 -0.1805 -0.0062
 6506W        W10025   9.207   5.556   0.830  0.2012 -0.0603  0.1895
 6507W        W10026   2.281   2.558   4.495  0.0972  0.0483 -0.0103
 6508W        W10027   5.255   9.305  12.160 -0.3309  0.2137 -0.1718
 6509W        W10028   1.379   7.968   9.591 -0.1644 -0.0045 -0.1023
 6510W        W10029   7.824   0.079   1.236  0.2429 -0.1763  0.0087
 6511W        W10030   8.409   6.488   1.359  0.1250 -0.0519  0.0927
 6512W        W10031   7.988   4.257  10.638  0.1141 -0.2410  0.0357
 6513W        W10032   2.366   1.376   9.056  0.1206  0.0843  0.0206
 6514W        W10033   5.902   6.220   2.104 -0.1292 -0.0973 -0.1080
 6515W        W10034   9.275   1.907  11.804 -0.1237 -0.1893  0.0684
 6516W        W10035   2.269   5.423   0.213 -0.1005 -0.2236  0.0060
 6517W        W10036   2.895   0.702   8.990  0.2181  0.0436 -0.1071
 6518W        W10037   9.061   8.638   0.074 -0.0289 -0.1656 -0.1452
 6519W        W10038   4.335   0.758  10.143  0.1964  0.0934 -0.0388
 6520W        W10039   4.398   6.086   4.189  0.2109  0.0398 -0.1545
 6521W        W10040   4.411   3.666   3.623  0.0978  0.1933 -0.2120
 6522W        W10041   8.684   7.895   3.567 -0.1673  0.2734  0.1363
 6523W        W10042   2.518   4.733  11.559 -0.1367 -0.0925 -0.1467
 6524W        W10043   1.104   2.808   9.755 -0.1266  0.0791 -0.3580
 6525W        W10044   5.974   6.397   0.617  0.1852  0.3055  0.0947
 6526W        W10045   2.923   6.845  10.330 -0.0448 -0.2637  0.0926
 6527W        W10046   3.130   8.100   3.928 -0.0538  0.0631  0.3203
 6528W        W10047   4.413   6.156  12.084  0.1176 -0.0339 -0.1153
 6529W        W10048   4.019   6.923   1.872  0.2386  0.1055 -0.1263
 6530W        W10049   8.656   2.823   0.087 -0.1945 -0.0016 -0.0102
 6531W        W10050   5.967   6.061   4.251 -0.1141  0.0568  0.1886
 6532W        W10051   6.106   7.830   4.115 -0.2089  0.2020 -0.2772
 6533W        W10052   4.880   2.484  11.404  0.2441  0.0891  0.0803
 6534W        W10053   6.335   1.850   1.402 -0.1408 -0.0287  0.2511
 6535W        W10054   9.450   0.095  11.735  0.1926 -0.0250 -0.0494
 6536W        W10055   4.713   9.365   2.744 -0.2987  0.0162 -0.2323
 6537W        W10056   1.598   4.454   9.609 -0.2154  0.5498 -0.2795
 6538W        W10057   1.922   1.150  12.123 -0.3840 -0.2028  0.0085
 6539W        W10058   2.259   8.507   2.532  0.3043  0.0267 -0.0916
 6540W        W10059   1.490   0.491  11.767 -0.0324 -0.1057  0.1393
 6541W        W10060   8.181   1.736   1.332 -0.0273  0.2178  0.0441
 6542W        W10061   1.704   6.625  10.653 -0.1680  0.1696  0.2537
 6543W        W10062   0.015   3.219   8.432  0.1354 -0.1962 -0.2005
 6544W        W10063   8.515   7.531   3.922  0.0130 -0.1388  0.0877
 6545W        W10064   2.763   7.632   8.791  0.1395 -0.1577 -0.5619
 6546W        W10065   6.793   5.175  12.029 -0.1715 -0.0178  0.0300
 6547W        W10066   6.704   8.726   1.713 -0.0651 -0.2746  0.2087
 6548W        W10067   5.094   1.603  10.545  0.0104 -0.0869  0.1962
 6549W        W10068   2.571   7.466   1.433  0.0263  0.0470 -0.2460
 6550W        W10069   8.021   3.798   3.448 -0.1182 -0.1690 -0.2090
 6551W        W10070   4.944   3.902   1.459  0.1863  0.2231 -0.1094
 6552W        W10071   2.037   9.686   1.565  0.2986  0.0094 -0.1734
 6553W        W10072   0.755   3.734   2.457  0.0897  0.1336 -0.2092
 6554W        W10073   2.049   1.767   9.808 -0.0056  0.0776 -0.1110
 6555W        W10074   6.994   7.465   2.584  0.1092  0.1996  0.0559
 6556W        W10075   4.954   1.335  11.924 -0.3193  0.0726 -0.0176
 6557W        W10076   2.106   0.407   8.199  0.0145 -0.0455  0.2112
 6558W        W10077   4.398   4.149   3.683  0.0426  0.1581  0.0185
 6559W        W10078   0.752   3.205  10.600 -0.0811 -0.0016  0.0437
 6560W        W10079   1.173   2.075   0.939  0.0830  0.0884  0.2883
 6561W        W10080   6.790   9.614   1.680  0.3550  0.1055 -0.2394
 6562W        W10081   4.558   8.340   8.162 -0.0350  0.3153 -0.4027
 6563W        W10082   8.005   8.092   2.008  0.1078  0.1225 -0.0515
 6564W        W10083   3.960   2.910  10.484 -0.3967 -0.0360 -0.2001
 6565W        W10084   1.330   1.254   8.725 -0.2760 -0.2376 -0.0474
 6566W        W10085   6.911   7.810   0.814  0.0923  0.0264 -0.1865
 6567W        W10086   2.751   2.626   2.993 -0.0806 -0.1634 -0.1875
 6568W        W10087   8.114   2.972   2.719  0.0304  0.0633 -0.0884
 6569W        W10088   3.242   2.715  10.630  0.4541 -0.1366 -0.0438
 6570W        W10089   5.047   1.439   0.032 -0.0182  0.0388  0.0278
 6571W        W10090   1.941   5.069  10.159  0.1123 -0.1651 -0.0821
 6572W        W10091   9.734   3.161  11.304 -0.0286  0.0652 -0.0364
 6573W        W10092   1.801   9.107  10.759  0.0211  0.1163 -0.1076
 6574W        W10093   2.432   4.186   8.142  0.0319  0.1781 -0.1487
 6575W        W10094   3.827   1.465   0.895 -0.3368  0.1053  0.2538
 6576W        W10095   0.799   5.161  10.942  0.2212  0.3330  0.0482
 6577W        W10096   0.113   4.622  11.649 -0.1301  0.1898 -0.0088
 6578W        W10097   1.836   2.078   9.543  0.2824 -0.0263  0.2114
 6579W        W10098   0.466   9.446  10.780  0.3095 -0.1574  0.1714
 6580W        W10099   0.758   0.587   8.670 -0.3172  0.0034  0.0448
 6581W        W10100   1.808   1.999   2.531  0.1574 -0.2378  0.4325
 6582W        W10101   0.636   6.102  11.236 -0.2157 -0.0452 -0.0341
 6583W        W10102   1.128   8.464   8.958  0.1991  0.0538 -0.0366
 6584W        W10103   1.719   7.775  11.361 -0.3779  0.1142 -0.0759
 6585W        W10104   6.621   1.599  11.489  0.1154  0.1578  0.0490
 6586W        W10105   1.670   8.194   0.669 -0.2890  0.1107  0.1413
 6587W        W10106   8.497   5.192   2.127 -0.2009  0.0347 -0.0123
 6588W        W10107   6.206   1.343   0.080 -0.2387 -0.0514  0.0346
 6589W        W10108   3.606   5.525   3.005 -0.0939  0.1019 -0.1595
 6590W        W10109   1.390   6.695   2.974 -0.3067 -0.3483  0.0703
 6591W        W10110   6.182   4.407   9.419  0.0467 -0.2149  0.0129
 6592W        W10111   1.879   0.641   0.836 -0.0156  0.2528 -0.3322
 6593W        W10112   2.077   3.134   1.243 -0.3510  0.0999  0.3132
 6594W        W10113   7.774   2.945   3.128  0.0125 -0.0829  0.3985
 6595W        W10114   9.425   5.877   0.139 -0.2112  0.0172 -0.1479
 6596W        W10115   4.332   6.595   2.180  0.0621 -0.4147  0.4246
 6597W        W10116   8.198   6.418   8.259  0.1795 -0.3057  0.0244
 6598W        W10117   0.229   6.374  10.384  0.0177 -0.0641 -0.2170
 6599W        W10118   4.553   3.697   7.994  0.0723 -0.2364  0.0611
 6600W        W10119   0.318   0.409   4.042  0.3244  0.0712 -0.0626
 6601W        W10120   9.727   2.381   2.160 -0.0334  0.0555 -0.0685
 6602W        W10121   5.774   6.672  11.804  0.0678 -0.3073 -0.0497
 6603W        W10122   3.798   2.129  12.375  0.1178 -0.1438  0.1013
 6604W        W10123   5.353   3.993   1.167 -0.3234  0.0912 -0.1240
 6605W        W10124   3.130   1.575  12.151 -0.1059 -0.2876 -0.2484
 6606W        W10125   6.093   5.774   3.364 -0.3698  0.0372  0.2156
 6607W        W10126   4.954   9.551   0.026  0.1544 -0.2038  0.2184
 6608W        W10127   2.293   6.171   4.932  0.3030 -0.0419  0.0284
 6609W        W10128   7.457   9.323  11.766  0.0984  0.0059 -0.2060
 6610W        W10129   4.993   2.654   2.799 -0.0367 -0.0815 -0.1337
 6611W        W10130   8.213   2.458  10.927  0.0411 -0.0017 -0.1169
 6612W        W10131   7.870   9.533   4.498  0.4230  0.0858  0.0968
 6613W        W10132   9.699   7.719   3.049  0.0203 -0.0438  0.1728
 6614W        W10133   4.244   4.659   1.142 -0.3264  0.2106 -0.3114
 6615W        W10134   3.076   7.282  12.235 -0.1055  0.0371 -0.2141
 6616W        W10135   8.214   0.410   3.670 -0.2221 -0.1788  0.1032
 6617W        W10136   1.703   6.284  12.227  0.0158 -0.1822  0.0969
 6618W        W10137   8.166   1.182   1.607 -0.0355 -0.1719 -0.1623
 6619W        W10138   0.969   8.381   4.185  0.1054  0.0570 -0.0251
 6620W        W10139   3.599   5.832   1.367  0.1417  0.1425  0.0188
 6621W        W10140   6.521   4.032   1.941 -0.1485 -0.0601 -0.2177
 6622W        W10141   5.065   5.921   9.432  0.0855 -0.0162  0.1059
 6623W        W10142   9.315   4.615  12.391  0.3922 -0.2337 -0.1764
 6624W        W10143   9.410   8.685  11.216  0.0746 -0.0735 -0.2964
 6625W        W10144   7.778   4.402   3.328  0.0718 -0.2131 -0.4531
 6626W        W10145   3.762   9.494  10.122 -0.1949  0.0355  0.0829
 6627W        W10146   9.393   9.309  11.925 -0.3536 -0.0115  0.1795
 6628W        W10147   5.793   8.600   4.156  0.2709  0.0457 -0.0091
 6629W        W10148   5.390   6.028  11.301  0.1987  0.2972 -0.0082
 6630W        W10149   3.596   1.561  11.157 -0.2361 -0.0838  0.3303
 6631W        W10150   1.382   8.276  12.395 -0.2399 -0.1861  0.1556
 6632W        W10151   7.297   6.709  10.297  0.2287 -0.0835  0.0338
 6633W        W10152   4.182   4.112  10.632  0.0721 -0.1567  0.0014
 6634W        W10153   5.453   9.311   9.686 -0.3564 -0.2944 -0.1099
 6635W        W10154   0.009   9.561   0.538  0.2226  0.0098 -0.0313
 6636W        W10155   9.552   5.393   2.727 -0.2682  0.0177  0.3350
 6637W        W10156   8.431   2.778   1.764 -0.0830 -0.2221 -0.1458
 6638W        W10157   2.220   9.612  11.979 -0.0114  0.0712  0.0111
 6639W        W10158   2.298   2.984   9.309 -0.2620 -0.0541  0.3608
 6640W        W10159   4.401   1.806  11.234 -0.0740  0.0784  0.0759
 6641W        W10160   2.466   9.014   1.353 -0.2907 -0.0676  0.0729
 6642W        W10161   9.022   7.607   9.016 -0.0438 -0.3408  0.0921
 6643W        W10162   8.781   3.122   1.129 -0.1314 -0.2072  0.0229
 6644W        W10163   7.125   8.884   1.420 -0.1197 -0.1489 -0.1189
 6645W        W10164   1.335   9.384   3.568 -0.1241  0.4510 -0.2509
 6646W        W10165   7.653   4.103   2.918  0.1067  0.1752 -0.1599
 6647W        W10166   8.518   2.840   3.200  0.3420 -0.3576 -0.1193
 6648W        W10167   6.676   0.729   3.278  0.0722 -0.1752 -0.1672
 6649W        W10168   2.231   2.174   2.137  0.1456  0.1272  0.2408
 6650W        W10169   7.951   6.831   3.919 -0.2559  0.0880 -0.1555
 6651W        W10170   0.488   4.794   0.909 -0.1689 -0.0918 -0.0479
 6652W        W10171   8.133   9.207   1.701 -0.2362 -0.0152  0.0304
 6653W        W10172   3.751   8.191   9.768 -0.3017 -0.0711  0.4511
 6654W        W10173   8.579   7.236   0.861  0.3941 -0.2137 -0.1761
 6655W        W10174   5.414   9.389   3.157 -0.3785 -0.1152 -0.2147
 6656W        W10175   4.563   8.901   1.568 -0.0695 -0.0715 -0.3518
 6657W        W10176   2.012   6.482  11.760  0.3209  0.1468 -0.3221
 6658W        W10177   8.802   3.889   1.672  0.3121 -0.0283 -0.0284
 6659W        W10178   4.603   4.940   9.666 -0.2941 -0.4062  0.3054
 6660W        W10179   5.826   2.127   9.964  0.0682  0.1725 -0.1020
 6661W        W10180   3.008   2.298   2.628  0.1436  0.0031 -0.0563
 6662W        W10181   3.182   1.403   2.089  0.4001 -0.2047  0.0889
 6663W        W10182   6.674   2.621  11.774 -0.3481  0.1251 -0.0495
 6664W        W10183   8.717   7.057   9.248  0.0305 -0.2444  0.2678
 6665W        W10184   7.397   5.209   7.710 -0.1410  0.0880  0.4004
 6666W        W10185   6.172   7.929   0.864  0.4265 -0.1688  0.1438
 6667W        W10186   2.401   0.627   2.302  0.0682 -0.3246  0.0318
 6668W        W10187   8.523   3.362  10.725  0.1235  0.2293  0.1338
 6669W        W10188   4.621   7.485  12.155 -0.0655  0.3412 -0.1164
 6670W        W10189   5.999   6.725   1.925 -0.3837 -0.1323  0.1597
 6671W        W10190   7.267   0.808   0.907  0.0289  0.2046 -0.0756
 6672W        W10191   5.740   8.491  12.047 -0.1620 -0.0097  0.1682
 6673W        W10192   6.680   8.269  11.396  0.1925 -0.3710 -0.3392
 6674W        W10193   1.761   3.014  10.392  0.1481 -0.1396  0.0502
 6675W        W10194   6.281   8.460   9.803 -0.2347  0.1532 -0.0682
 6676W        W10195   2.887   8.085   3.011 -0.0126  0.1851 -0.0513
 6677W        W10196   9.008   5.757   3.379  0.0416  0.0928  0.1796
 6678W        W10197   6.864   8.455   3.764  0.1529 -0.0680  0.1024
 6679W        W10198   7.617   7.557   4.017  0.2641  0.0191  0.0139
 6680W        W10199   5.540   8.227   2.956  0.0078  0.2764 -0.0791
 6681W        W10200   5.735   4.606   4.016  0.1238 -0.1148 -0.1449
 6682W        W10201   0.177   2.184   8.839 -0.1156  0.0919  0.1949
 6683W        W10202   3.954   3.227   0.545  0.0985 -0.0715  0.4020
 6684W        W10203   2.103   3.551   0.994  0.0102 -0.3622 -0.1348
 6685W        W10204   4.159   3.751   9.027 -0.1563 -0.0927  0.1147
 6686W        W10205   2.001   4.214  11.664  0.0635 -0.1466 -0.0259
 6687W        W10206   2.053   1.136   0.285  0.0161  0.0079 -0.0904
 6688W        W10207   8.153   8.606   1.147 -0.0904 -0.1410  0.1512
 6689W        W10208   0.669   0.513   3.369 -0.3388 -0.1480  0.0597
 6690W        W10209   2.939   0.363   8.211  0.3642 -0.0113 -0.1787
 6691W        W10210   7.537   0.682   2.046  0.1762  0.0750 -0.3277
 6692W        W10211   4.374   7.338   1.514 -0.0288  0.4113 -0.3055
 6693W        W10212   0.521   8.820  10.689 -0.1255 -0.1488 -0.1896
 6694W        W10213   6.760   8.534   1.270  0.1802  0.1503  0.2644
 6695W        W10214   7.756   7.848  11.430 -0.4983  0.4992  0.1963
 6696W        W10215   2.861   1.964   1.640 -0.0549  0.0803  0.0584
 6697W        W10216   7.423   4.486   8.314  0.0001 -0.1622  0.1905
 6698W        W10217   1.809   2.270  12.022  0.0050 -0.2777 -0.0999
 6699W        W10218   0.132   5.290   3.330  0.1419  0.0824  0.0261
 6700W        W10219   2.672   2.578   0.144 -0.0768  0.1055  0.1019
 6701W        W10220   9.309   5.853   9.969 -0.3125 -0.1284  0.0260
 6702W        W10221   6.828   7.951  11.750 -0.0698  0.1280  0.1547
 6703W        W10222   9.139   8.772   3.920 -0.0561 -0.0876  0.3557
 6704W        W10223   6.352   4.872   9.783  0.0496 -0.0523 -0.1031
 6705ION    NA+10224   6.635   8.220  10.109 -0.0274  0.2228 -0.2357
 6706ION    NA+10225   3.870   7.885   7.994  0.3874  0.0819  0.1934
 6707ION    NA+10226   8.570   4.826   1.095 -0.1350  0.1863  0.0040
 6708ION    NA+10227   4.835   4.036   9.131 -0.1994 -0.2636  0.0922
 6709ION    NA+10228   4.126   3.329   3.854  0.0484  0.0801 -0.0780
 6710ION    NA+10229   4.175   0.894   9.170 -0.0766  0.0129  0.0486
 6711ION    NA+10230   1.856   0.880   8.737  0.0196  0.0502  0.3640
 6712ION    NA+10231   8.550   5.009  11.973  0.0682 -0.1704 -0.0476
 6713ION    NA+10232   2.497   4.262  11.834 -0.1399 -0.0359 -0.1603
 6714ION    NA+10233   7.239   8.410   4.443  0.1911 -0.2237  0.2818
 6715ION    NA+10234   7.022   0.365  11.519 -0.0043  0.1940 -0.3255
 6716ION    NA+10235   9.746   9.024   1.405  0.1264 -0.1316 -0.0684
 6717ION    NA+10236   8.907   2.798  11.556  0.1370  0.0808 -0.0089
 6718ION    NA+10237   7.457   7.641  12.059 -0.1791  0.0038  0.0690
 6719ION    NA+10238   9.058   3.954   1.190 -0.2215 -0.0010  0.2008
 6720ION    NA+10239   3.894   0.942  10.468  0.1047 -0.3784 -0.1365
 6721ION    NA+10240   2.410   1.430   2.730 -0.3741 -0.1590 -0.1044
 6722ION    NA+10241   7.277   7.403   1.701 -0.1688 -0.3218 -0.0641
 6723ION    NA+10242   3.269   2.520   4.122 -0.1534 -0.2247  0.0719
 6724ION    NA+10243   7.675   6.776  11.687 -0.1320 -0.0136  0.3707
 6725ION    NA+10244   7.205   0.377   3.491 -0.2405 -0.0169  0.1376
 6726ION    NA+10245   3.841   8.003   4.508  0.2364 -0.2966 -0.2812
 6727ION    NA+10246   8.836   5.693   4.175  0.0065  0.0387 -0.1468
 6728ION    NA+10247   8.655   6.730   0.829  0.0379 -0.2924 -0.2247
 6729ION    NA+10248   1.429   7.140   9.851  0.1768  0.2736 -0.0903
 6730ION    NA+10249   1.688   7.298   8.590  0.1383  0.0016 -0.1134
 6731ION    NA+10250   6.092   4.062   3.253  0.0688  0.0895  0.2467
 6732ION    NA+10251   8.739   3.819  10.800  0.0007 -0.2313 -0.3842
 6733ION    NA+10252   2.243   2.589   3.084  0.1497 -0.1922 -0.0685
 6734ION    NA+10253   4.570   7.141   0.989  0.2748 -0.3391  0.1800
 6735ION    NA+10254   9.659   3.604   7.985 -0.4631 -0.0327 -0.1607
 6736ION    NA+10255   0.691   8.829   8.632 -0.0453 -0.0883 -0.0832
 6737ION    NA+10256   1.624   0.553   3.557  0.0466  0.0199 -0.0373
 6738ION    NA+10257   6.084   0.614   1.629 -0.2600 -0.2780 -0.3444
 6739ION    NA+10258   2.542   5.244  10.547  0.1130  0.0276 -0.4953
 6740ION    NA+10259   8.138   1.573   2.603  0.0347  0.3768 -0.0757
 6741ION    NA+10260   8.329   2.610   0.378  0.2131 -0.1214  0.2334
 6742ION    NA+10261   8.879   9.278   0.462 -0.1223 -0.0735  0.1123
 6743ION    NA+10262   5.691   9.473   1.574  0.1248  0.2142  0.1144
 6744ION    NA+10263   6.146   9.439  11.975  0.2089  0.0718  0.2781
 6745ION    NA+10264   4.298   6.247   4.696  0.2658  0.1213 -0.3448
 6746ION    NA+10265   4.727   8.610  10.709  0.0229 -0.4169 -0.2984
 6747ION    NA+10266   1.082   6.929  10.622 -0.6658  0.0786  0.2945
 6748ION    NA+10267   8.377   3.339   0.919  0.2540 -0.2356  0.0250
 6749ION    NA+10268   9.744   0.029   0.046 -0.1680 -0.0709 -0.1390
 6750ION    NA+10269   9.471   8.347   9.887  0.0253 -0.1160  0.3306
 6751ION    NA+10270   2.462   4.148   8.689  0.1666 -0.3238  0.0721
 6752ION    NA+10271   5.483   5.920   4.495 -0.2579 -0.1381  0.1472
 6753ION    NA+10272   4.738   5.797   8.188  0.1667  0.2277  0.0998
 6754ION    NA+10273   2.495   7.183   4.726 -0.0798  0.0770  0.0784
 6755ION    NA+10274   0.260   0.622  10.484 -0.1171 -0.1887 -0.0733
 6756ION    NA+10275   3.952   0.425   0.252 -0.0345 -0.0952  0.3103
 6757ION    NA+10276   5.870   0.524   9.761 -0.0324 -0.0040  0.0157
 6758ION    NA+10277   1.929   6.847  11.047  0.0262  0.0997  0.1642
 6759ION    NA+10278   9.174   6.302   8.497  0.1524  0.0943  0.1116
 6760ION    NA+10279   5.614   5.686  11.560 -0.0071 -0.3363  0.0479
 6761ION    NA+10280   9.158   1.246   9.621  0.2988 -0.0432 -0.0919
 6762ION    NA+10281   4.417   2.986  11.316 -0.0721  0.4312 -0.0043
 6763ION    NA+10282   1.116   2.998   3.252  0.1357  0.1009 -0.2430
 6764ION    NA+10283   3.228   1.400   8.932  0.2423 -0.2764 -0.2774
 6765ION    NA+10284   2.983   4.770   0.658  0.2155 -0.2344 -0.0168
 6766ION    NA+10285   0.467   0.585   7.674 -0.0340  0.0787 -0.2630
 6767ION    NA+10286   0.364   7.819   0.869 -0.0709 -0.0056  0.2075
 6768ION    NA+10287   2.264   4.920   0.163  0.1960  0.1958  0.0812
 6769ION    NA+10288   5.237   2.902  10.847  0.5411 -0.0728  0.1265
 6770ION    NA+10289   1.435   2.490   1.969 -0.3375  0.1161 -0.1697
 6771ION    NA+10290   2.141   2.560  12.342  0.0889 -0.2962 -0.1276
 6772ION    NA+10291   6.145   5.859   9.085 -0.3546  0.1569 -0.2564
 6773ION    NA+10292   1.104   2.172   0.151  0.0953  0.0779 -0.1590
 6774ION    NA+10293   5.045   1.835   9.346 -0.1358 -0.0293 -0.0018
 6775ION    NA+10294   0.927   8.135  10.832 -0.4540  0.0427 -0.0959
 6776ION    CL-10295   2.071   4.897  10.682 -0.0330  0.0807  0.2681
 6777ION    CL-10296   5.060   2.437  10.610 -0.2417  0.1612 -0.5128
 6778ION    CL-10297   8.234   2.868   0.775  0.1237  0.2785 -0.1099
 6779ION    CL-10298   8.322   4.734   3.180  0.1048  0.3147  0.1580
 6780ION    CL-10299   2.093   5.198  12.217  0.0632  0.0585 -0.0673
 6781ION    CL-10300   8.433   9.550   0.176  0.2686  0.1732  0.1439
 6782ION    CL-10301   2.548   4.629   0.475 -0.1055  0.2429 -0.1832
 6783ION    CL-10302   2.125   2.131   2.987 -0.0509  0.1571 -0.1314
 6784ION    CL-10303   3.779   4.084  10.237  0.0073 -0.3602 -0.0518
 6785ION    CL-10304   7.571   8.854   3.669  0.0692 -0.2531 -0.1926
 6786ION    CL-10305   0.517   8.906   1.554 -0.3055 -0.2149  0.1297
 6787ION    CL-10306   5.865   0.032   1.909 -0.1648  0.2207  0.1160
 6788ION    CL-10307   1.181   7.386  10.241 -0.0651  0.1236  0.0005
 6789ION    CL-10308   5.098   8.295   9.902 -0.1042  0.1243 -0.1456
 6790ION    CL-10309   4.956   3.232  11.113  0.4360  0.0262  0.1252
 6791ION    CL-10310   1.710   1.440   9.027 -0.0181  0.2825 -0.2797
 6792ION    CL-10311   9.011   4.173  11.081  0.1123 -0.0268 -0.2281
 6793ION    CL-10312   9.381   8.328   1.431  0.1334  0.0171 -0.1168
 6794ION    CL-10313   9.226   7.753   2.376  0.0040  0.2395  0.0082
 6795ION    CL-10314   8.085   3.581   1.257  0.0036  0.2392  0.0696
 6796ION    CL-10315   1.391   1.579   3.109 -0.1536 -0.0587  0.1827
 6797ION    CL-10316   4.386   7.345   0.525 -0.1448  0.0711  0.1548
 6798ION    CL-10317   7.798   3.884   8.856 -0.0723  0.0630  0.2387
 6799ION    CL-10318   2.936   5.118  10.241 -0.1216 -0.0147 -0.1748
 6800ION    CL-10319   9.535   8.574  10.311  0.2992  0.0778  0.0617
 6801ION    CL-10320   3.242   6.898   3.784 -0.1657  0.2723 -0.0884
 6802ION    CL-10321   4.303   7.351   9.119  0.5585  0.3305  0.0553
 6803ION    CL-10322   1.904   0.668  12.079 -0.1150  0.0996  0.0033
 6804ION    CL-10323   9.697   2.643   2.625  0.0269  0.0210 -0.0770
 6805ION    CL-10324   5.915   1.134   9.791  0.2130  0.0081  0.2331
 6806ION    CL-10325   0.358   8.354   0.219 -0.0240  0.2813  0.4786
 6807ION    CL-10326   0.830   8.259   8.540 -0.2372 -0.2572 -0.0853
 6808ION    CL-10327   4.043   4.214   8.903 -0.1954 -0.3856 -0.0341
 6809ION    CL-10328   3.429   6.946   0.491  0.0642 -0.1637  0.2886
 6810ION    CL-10329   1.447   2.379   0.541  0.4647  0.1676 -0.0231
 6811ION    CL-10330   5.254   5.665   3.854  0.3738 -0.1330 -0.0841
 6812ION    CL-10331   3.894   6.234   8.636 -0.1713 -0.0895 -0.1581
 6813ION    CL-10332   6.129   5.814  11.354 -0.1318 -0.1832  0.0032
 6814ION    CL-10333   5.592   0.358  10.189  0.2278 -0.1106  0.2846
 6815ION    CL-10334   2.745   1.186   3.057 -0.1763 -0.1912 -0.0255
 6816ION    CL-10335   7.535   5.715   3.420 -0.2302 -0.0553  0.2041
 6817ION    CL-10336   0.638   8.308  10.488 -0.0445  0.0124  0.0474
 6818ION    CL-10337   3.900   9.590   0.296 -0.2216 -0.0794  0.0362
 6819ION    CL-10338   6.343   0.187  11.881 -0.0845 -0.0774 -0.0519
 6820ION    CL-10339   3.470   6.786   9.192  0.0840  0.0434 -0.0174
 6821ION    CL-10340   8.226   6.238  11.949 -0.2541 -0.0590 -0.0769
 6822ION    CL-10341   9.485   2.746  11.433  0.0468  0.0280 -0.2765
 6823ION    CL-10342   0.669   2.086  12.285 -0.2952 -0.1945  0.0120
 6824ION    CL-10343   1.920   5.083   8.748 -0.0784  0.0666  0.4097
 6825ION    CL-10344   7.733   7.161  11.981 -0.2580 -0.1170  0.1113
 6826ION    CL-10345   9.329   9.009   8.745  0.2950  0.5588 -0.0708
 6827ION    CL-10346   8.332   7.237  10.408  0.0836  0.0733  0.2367
 6828ION    CL-10347   4.574   1.158  10.151 -0.1209 -0.1529 -0.0570
 6829ION    CL-10348   7.636   1.570   0.160 -0.3038  0.1095  0.1079
 6830ION    CL-10349   1.377   7.248   9.300 -0.0998  0.2438 -0.1540
 6831ION    CL-10350   4.422   6.819   1.389  0.2021 -0.0358  0.1053
 6832ION    CL-10351   7.306   7.264   1.259  0.0065 -0.1491  0.0409
 6833ION    CL-10352   4.551   4.975   3.497 -0.1039  0.1758 -0.1221
 6834ION    CL-10353   9.422   1.284  10.078  0.1073  0.1776  0.0005
 6835ION    CL-10354   8.482   1.213   2.950  0.1525 -0.1278 -0.6224
 6836ION    CL-10355   1.904   6.322  11.005  0.2365  0.2618 -0.2011
 6837ION    CL-10356   4.335   8.892  10.828  0.1804  0.0232 -0.3624
 6838ION    CL-10357   6.869   9.695   3.243 -0.1482  0.0766 -0.0608
 6839ION    CL-10358   0.350   8.855   8.972 -0.2308  0.0200 -0.1395
 6840ION    CL-10359   3.660   0.694   1.101  0.0386 -0.2313  0.0801
 6841ION    CL-10360   0.543   1.054   2.442 -0.2044 -0.0583 -0.2197
 6842ION    CL-10361   4.012   1.666   0.317  0.0774  0.0617 -0.2730
 6843ION    CL-10362   2.628   6.681   8.714  0.1238  0.2479  0.2867
 6844ION    CL-10363   3.870   1.436   3.325  0.0241 -0.4406  0.2358
 6845ION    CL-10364   9.296   9.449   0.197 -0.4714 -0.0661 -0.3363
 6846ION    CL-10365   5.776   6.102   8.912  0.1364 -0.0536 -0.2597
   9.74974   9.74974  12.41029
