Protein in INSANE! Membrane UpperLeaflet>POPC=1.0 LowerLeaflet>POPC=1.0
12676
    1AU     AUC    1   5.753   5.859   6.009
    1AU     AUC    2   6.012   5.867   5.850
    1AU     AUC    3   6.002   5.846   6.163
    1AU     AUC    4   5.504   5.859   5.848
    1AU     AUC    5   5.493   5.872   6.164
    1AU     AUC    6   5.601   6.116   6.016
    1AU     AUC    7   5.912   6.116   5.996
    1AU     AUC    8   5.595   5.609   6.015
    1AU     AUC    9   5.891   5.593   6.023
    1AU     AUC   10   5.757   5.703   6.266
    1AU     AUC   11   5.773   6.015   6.269
    1AU     AUC   12   5.748   5.697   5.750
    1AU     AUC   13   5.743   6.003   5.752
    1AU     AUC   14   6.261   5.864   5.685
    1AU     AUC   15   6.271   5.876   5.984
    1AU     AUC   16   6.264   5.858   6.304
    1AU     AUC   17   5.245   5.854   5.696
    1AU     AUC   18   5.233   5.873   5.998
    1AU     AUC   19   5.245   5.896   6.330
    1AU     AUC   20   5.450   6.378   6.021
    1AU     AUC   21   5.762   6.385   6.015
    1AU     AUC   22   6.054   6.382   6.005
    1AU     AUC   23   5.410   5.360   6.024
    1AU     AUC   24   5.724   5.337   6.003
    1AU     AUC   25   6.049   5.333   6.013
    1AU     AUC   26   5.770   5.549   6.515
    1AU     AUC   27   5.780   5.856   6.538
    1AU     AUC   28   5.777   6.164   6.532
    1AU     AUC   29   5.756   5.527   5.502
    1AU     AUC   30   5.761   5.844   5.486
    1AU     AUC   31   5.738   6.160   5.487
    1AU     AUC   32   6.028   5.699   6.424
    1AU     AUC   33   6.034   6.002   6.431
    1AU     AUC   34   6.020   5.693   5.586
    1AU     AUC   35   6.019   6.005   5.578
    1AU     AUC   36   5.499   5.729   6.441
    1AU     AUC   37   5.506   6.030   6.444
    1AU     AUC   38   5.505   5.695   5.578
    1AU     AUC   39   5.492   6.012   5.587
    1AU     AUC   40   6.165   6.131   5.827
    1AU     AUC   41   6.187   6.103   6.157
    1AU     AUC   42   5.334   6.118   5.862
    1AU     AUC   43   5.344   6.137   6.181
    1AU     AUC   44   6.169   5.594   5.855
    1AU     AUC   45   6.156   5.574   6.158
    1AU     AUC   46   5.329   5.601   5.858
    1AU     AUC   47   5.337   5.621   6.200
    1AU     AUC   48   5.605   6.275   6.289
    1AU     AUC   49   5.925   6.283   6.256
    1AU     AUC   50   5.570   5.443   6.260
    1AU     AUC   51   5.896   5.433   6.270
    1AU     AUC   52   5.590   6.279   5.755
    1AU     AUC   53   5.908   6.271   5.739
    1AU     AUC   54   5.573   5.447   5.742
    1AU     AUC   55   5.907   5.435   5.765
    1AU    AUSL   56   6.298   5.734   6.695
    1AU    AUSL   57   6.059   5.367   6.615
    1AU     AUL   58   6.223   5.298   6.967
    1AU       S   59   6.447   5.120   6.571
    1AU     LIG   60   6.280   4.783   6.851
    1AU     LIG   61   6.383   4.522   7.209
    1AU     LIG   62   6.605   4.208   7.468
    1AU     LIG   63   6.690   3.959   7.861
    1AU     LIG   64   6.705   3.820   8.320
    1AU     LIG   65   6.907   3.612   8.691
    1AU       S   66   6.361   5.678   6.773
    1AU     LIG   67   6.329   5.683   7.277
    1AU     LIG   68   6.532   5.586   7.708
    1AU     LIG   69   6.865   5.570   8.070
    1AU     LIG   70   7.248   5.586   8.376
    1AU     LIG   71   7.635   5.617   8.666
    1AU     LIG   72   7.903   5.556   9.053
    1AU    AUSL   73   5.895   5.687   6.828
    1AU    AUSL   74   5.687   6.053   6.797
    1AU     AUL   75   5.848   6.006   7.209
    1AU       S   76   5.938   5.650   6.963
    1AU     LIG   77   5.875   5.463   7.367
    1AU     LIG   78   6.093   5.285   7.760
    1AU     LIG   79   6.202   5.055   8.185
    1AU     LIG   80   6.226   4.815   8.616
    1AU     LIG   81   6.379   4.680   9.054
    1AU     LIG   82   6.505   4.796   9.499
    1AU       S   83   5.441   5.795   7.170
    1AU     LIG   84   5.283   5.686   7.605
    1AU     LIG   85   5.082   5.613   8.031
    1AU     LIG   86   5.000   5.726   8.486
    1AU     LIG   87   5.064   6.018   8.874
    1AU     LIG   88   4.960   6.289   9.254
    1AU     LIG   89   4.703   6.492   9.604
    1AU    AUSL   90   6.092   6.093   6.791
    1AU    AUSL   91   6.404   6.076   6.485
    1AU     AUL   92   6.522   6.018   6.982
    1AU       S   93   6.119   6.178   6.888
    1AU     LIG   94   6.270   6.303   7.312
    1AU     LIG   95   6.409   6.423   7.768
    1AU     LIG   96   6.508   6.641   8.200
    1AU     LIG   97   6.547   6.812   8.674
    1AU     LIG   98   6.665   6.881   9.156
    1AU     LIG   99   6.629   6.821   9.636
    1AU       S  100   6.640   6.104   6.531
    1AU     LIG  101   6.992   6.143   6.832
    1AU     LIG  102   7.214   6.353   7.200
    1AU     LIG  103   7.474   6.644   7.486
    1AU     LIG  104   7.756   6.757   7.869
    1AU     LIG  105   8.174   6.814   8.132
    1AU     LIG  106   8.558   6.960   8.394
    1AU    AUSL  107   6.279   5.885   5.353
    1AU    AUSL  108   6.047   6.294   5.327
    1AU     AUL  109   6.336   6.169   4.906
    1AU       S  110   6.340   5.890   5.234
    1AU     LIG  111   6.699   5.841   4.891
    1AU     LIG  112   6.699   5.561   4.497
    1AU     LIG  113   6.828   5.509   4.038
    1AU     LIG  114   7.229   5.572   3.745
    1AU     LIG  115   7.609   5.665   3.445
    1AU     LIG  116   7.716   5.722   2.978
    1AU       S  117   6.066   6.353   5.190
    1AU     LIG  118   6.343   6.659   4.985
    1AU     LIG  119   6.669   6.741   4.644
    1AU     LIG  120   7.026   6.879   4.345
    1AU     LIG  121   7.242   7.078   3.966
    1AU     LIG  122   7.387   7.446   3.694
    1AU     LIG  123   7.461   7.926   3.619
    1AU    AUSL  124   6.017   5.573   5.208
    1AU    AUSL  125   6.373   5.516   5.516
    1AU     AUL  126   6.511   5.498   5.181
    1AU       S  127   6.499   5.078   5.395
    1AU     LIG  128   6.698   4.875   5.029
    1AU     LIG  129   6.899   4.526   4.782
    1AU     LIG  130   7.108   4.311   4.418
    1AU     LIG  131   7.486   4.391   4.132
    1AU     LIG  132   7.865   4.481   3.856
    1AU     LIG  133   8.222   4.308   3.595
    1AU       S  134   6.046   5.452   5.036
    1AU     LIG  135   6.162   5.239   4.632
    1AU     LIG  136   6.371   5.239   4.192
    1AU     LIG  137   6.366   5.163   3.710
    1AU     LIG  138   6.315   4.977   3.254
    1AU     LIG  139   6.382   4.967   2.772
    1AU     LIG  140   6.604   4.973   2.338
    1AU    AUSL  141   5.869   5.939   5.401
    1AU    AUSL  142   5.622   5.690   5.164
    1AU     AUL  143   5.927   5.923   5.018
    1AU       S  144   5.557   5.762   4.792
    1AU     LIG  145   5.572   5.493   4.425
    1AU     LIG  146   5.293   5.240   4.125
    1AU     LIG  147   5.092   4.964   3.772
    1AU     LIG  148   5.001   4.792   3.322
    1AU     LIG  149   4.838   4.901   2.881
    1AU     LIG  150   4.694   5.128   2.472
    1AU       S  151   6.061   5.505   5.124
    1AU     LIG  152   6.241   5.729   4.687
    1AU     LIG  153   6.311   5.747   4.210
    1AU     LIG  154   6.427   5.685   3.745
    1AU     LIG  155   6.511   5.854   3.292
    1AU     LIG  156   6.715   6.161   2.969
    1AU     LIG  157   6.832   6.381   2.564
    1AU    AUSL  158   5.303   5.917   6.738
    1AU    AUSL  159   5.431   6.334   6.648
    1AU     AUL  160   5.520   6.241   6.967
    1AU       S  161   5.223   5.919   7.144
    1AU     LIG  162   4.960   5.553   7.223
    1AU     LIG  163   4.793   5.402   7.656
    1AU     LIG  164   4.602   5.376   8.118
    1AU     LIG  165   4.276   5.313   8.496
    1AU     LIG  166   4.036   5.438   8.913
    1AU     LIG  167   3.706   5.689   9.192
    1AU       S  168   5.059   6.310   6.878
    1AU     LIG  169   5.045   6.579   7.271
    1AU     LIG  170   4.964   6.846   7.651
    1AU     LIG  171   4.818   6.929   8.094
    1AU     LIG  172   4.767   7.224   8.455
    1AU     LIG  173   4.593   7.587   8.715
    1AU     LIG  174   4.385   8.018   8.781
    1AU    AUSL  175   5.602   5.716   6.545
    1AU    AUSL  176   5.047   5.682   6.515
    1AU     AUL  177   5.179   5.661   6.763
    1AU       S  178   4.902   5.281   6.729
    1AU     LIG  179   4.479   5.125   6.591
    1AU     LIG  180   4.078   4.878   6.626
    1AU     LIG  181   3.868   4.612   6.966
    1AU     LIG  182   3.709   4.338   7.324
    1AU     LIG  183   3.496   4.131   7.685
    1AU     LIG  184   3.194   4.233   8.046
    1AU       S  185   5.493   5.663   7.098
    1AU     LIG  186   5.385   5.280   7.297
    1AU     LIG  187   5.253   5.184   7.750
    1AU     LIG  188   5.047   5.112   8.179
    1AU     LIG  189   4.887   4.894   8.579
    1AU     LIG  190   4.830   4.749   9.034
    1AU     LIG  191   4.743   4.908   9.465
    1AU    AUSL  192   5.383   5.824   5.472
    1AU    AUSL  193   5.500   5.395   5.427
    1AU     AUL  194   5.349   5.518   5.129
    1AU       S  195   5.329   5.885   4.830
    1AU     LIG  196   5.090   5.624   4.526
    1AU     LIG  197   4.826   5.449   4.161
    1AU     LIG  198   4.629   5.229   3.780
    1AU     LIG  199   4.276   5.109   3.467
    1AU     LIG  200   3.978   5.188   3.100
    1AU     LIG  201   3.805   5.532   2.809
    1AU       S  202   5.076   5.054   5.484
    1AU     LIG  203   4.827   4.708   5.313
    1AU     LIG  204   4.450   4.577   5.065
    1AU     LIG  205   4.196   4.322   4.746
    1AU     LIG  206   4.213   4.141   4.287
    1AU     LIG  207   4.309   3.835   3.911
    1AU     LIG  208   4.157   3.492   3.614
    1AU    AUSL  209   5.548   6.114   5.194
    1AU    AUSL  210   5.131   6.150   5.452
    1AU     AUL  211   5.133   5.927   5.238
    1AU       S  212   5.115   6.397   5.237
    1AU     LIG  213   4.708   6.545   5.001
    1AU     LIG  214   4.524   6.687   4.560
    1AU     LIG  215   4.448   6.849   4.106
    1AU     LIG  216   4.118   7.028   3.800
    1AU     LIG  217   3.653   7.135   3.722
    1AU     LIG  218   3.362   7.492   3.605
    1AU       S  219   5.487   6.070   4.947
    1AU     LIG  220   5.444   6.032   4.390
    1AU     LIG  221   5.238   5.768   4.041
    1AU     LIG  222   5.077   5.833   3.588
    1AU     LIG  223   5.116   6.078   3.164
    1AU     LIG  224   5.111   6.248   2.706
    1AU     LIG  225   4.916   6.302   2.269
    1AU    AUSL  226   6.382   6.470   5.927
    1AU    AUSL  227   6.386   6.217   5.579
    1AU     AUL  228   6.554   6.662   5.724
    1AU       S  229   6.517   6.337   5.329
    1AU     LIG  230   6.807   6.356   4.972
    1AU     LIG  231   7.118   6.454   4.627
    1AU     LIG  232   7.480   6.603   4.350
    1AU     LIG  233   7.928   6.570   4.164
    1AU     LIG  234   8.297   6.811   3.987
    1AU     LIG  235   8.470   7.046   3.597
    1AU       S  236   6.840   6.337   5.909
    1AU     LIG  237   7.287   6.456   6.087
    1AU     LIG  238   7.791   6.509   6.053
    1AU     LIG  239   8.290   6.590   6.016
    1AU     LIG  240   8.719   6.876   6.017
    1AU     LIG  241   8.995   7.303   6.009
    1AU     LIG  242   9.215   7.714   6.179
    1AU    AUSL  243   6.606   5.921   5.760
    1AU    AUSL  244   6.592   5.758   6.191
    1AU     AUL  245   6.874   5.702   5.950
    1AU       S  246   6.795   6.142   5.807
    1AU     LIG  247   7.275   6.021   5.829
    1AU     LIG  248   7.780   6.063   5.788
    1AU     LIG  249   8.275   6.136   5.723
    1AU     LIG  250   8.766   6.080   5.668
    1AU     LIG  251   9.209   6.282   5.642
    1AU     LIG  252   9.563   6.607   5.489
    1AU       S  253   6.904   5.290   6.199
    1AU     LIG  254   7.269   5.037   6.170
    1AU     LIG  255   7.679   4.807   6.179
    1AU     LIG  256   8.081   4.569   6.208
    1AU     LIG  257   8.508   4.408   6.208
    1AU     LIG  258   8.874   4.332   6.475
    1AU     LIG  259   9.201   4.408   6.819
    1AU    AUSL  260   6.373   6.086   6.077
    1AU    AUSL  261   6.271   6.439   6.326
    1AU     AUL  262   6.503   6.477   6.205
    1AU       S  263   6.504   6.222   6.567
    1AU     LIG  264   6.939   6.510   6.488
    1AU     LIG  265   7.142   6.744   6.871
    1AU     LIG  266   7.344   7.074   7.182
    1AU     LIG  267   7.549   7.530   7.258
    1AU     LIG  268   7.828   7.935   7.328
    1AU     LIG  269   8.057   8.341   7.470
    1AU       S  270   6.820   6.168   6.096
    1AU     LIG  271   7.131   6.019   6.333
    1AU     LIG  272   7.612   6.071   6.280
    1AU     LIG  273   8.111   6.115   6.207
    1AU     LIG  274   8.605   6.185   6.145
    1AU     LIG  275   9.084   6.323   6.146
    1AU     LIG  276   9.443   6.553   6.394
    1AU    AUSL  277   5.093   6.401   6.091
    1AU    AUSL  278   5.141   6.136   6.431
    1AU     AUL  279   5.086   6.574   6.374
    1AU       S  280   4.923   6.193   6.639
    1AU     LIG  281   4.605   6.425   7.000
    1AU     LIG  282   4.540   6.652   7.432
    1AU     LIG  283   4.372   6.736   7.899
    1AU     LIG  284   4.039   6.822   8.272
    1AU     LIG  285   3.607   7.023   8.428
    1AU     LIG  286   3.213   7.286   8.567
    1AU       S  287   4.731   6.454   6.107
    1AU     LIG  288   4.567   6.889   6.209
    1AU     LIG  289   4.336   7.343   6.121
    1AU     LIG  290   3.994   7.708   6.140
    1AU     LIG  291   3.540   7.892   6.047
    1AU     LIG  292   3.109   8.136   6.143
    1AU     LIG  293   2.693   8.162   6.429
    1AU    AUSL  294   5.160   6.067   5.849
    1AU    AUSL  295   5.248   6.487   5.715
    1AU     AUL  296   4.980   6.385   5.708
    1AU       S  297   4.594   6.334   5.966
    1AU     LIG  298   4.534   6.615   5.556
    1AU     LIG  299   4.155   6.868   5.322
    1AU     LIG  300   3.630   6.901   5.275
    1AU     LIG  301   3.101   6.906   5.241
    1AU     LIG  302   2.601   6.753   5.210
    1AU     LIG  303   2.135   6.906   5.097
    1AU       S  304   5.081   6.673   5.344
    1AU     LIG  305   4.946   6.995   5.023
    1AU     LIG  306   4.857   7.366   4.763
    1AU     LIG  307   4.538   7.686   4.806
    1AU     LIG  308   4.395   8.076   4.600
    1AU     LIG  309   4.061   8.349   4.413
    1AU     LIG  310   3.803   8.715   4.262
    1AU    AUSL  311   4.886   5.994   6.155
    1AU    AUSL  312   4.948   5.712   5.837
    1AU     AUL  313   4.781   5.970   5.748
    1AU       S  314   4.576   5.536   6.009
    1AU     LIG  315   4.194   5.458   6.304
    1AU     LIG  316   3.705   5.400   6.371
    1AU     LIG  317   3.302   5.154   6.256
    1AU     LIG  318   2.906   5.021   5.952
    1AU     LIG  319   2.408   5.015   5.899
    1AU     LIG  320   2.002   4.917   5.648
    1AU       S  321   4.704   6.074   6.219
    1AU     LIG  322   4.456   6.382   6.508
    1AU     LIG  323   4.039   6.594   6.655
    1AU     LIG  324   3.544   6.684   6.691
    1AU     LIG  325   3.055   6.776   6.648
    1AU     LIG  326   2.649   7.036   6.722
    1AU     LIG  327   2.206   6.902   6.808
    1AU    AUSL  328   6.465   5.395   6.028
    1AU    AUSL  329   6.220   5.632   6.315
    1AU     AUL  330   6.651   5.618   6.398
    1AU       S  331   6.684   5.193   6.080
    1AU     LIG  332   6.839   4.778   6.038
    1AU     LIG  333   7.257   4.532   6.025
    1AU     LIG  334   7.698   4.331   5.947
    1AU     LIG  335   8.145   4.124   5.948
    1AU     LIG  336   8.483   3.886   6.192
    1AU     LIG  337   8.864   3.810   6.507
    1AU       S  338   6.456   5.247   6.564
    1AU     LIG  339   6.757   4.938   6.899
    1AU     LIG  340   6.902   4.567   7.198
    1AU     LIG  341   7.122   4.269   7.512
    1AU     LIG  342   7.474   4.186   7.829
    1AU     LIG  343   7.809   4.259   8.176
    1AU     LIG  344   8.248   4.272   8.384
    1AU    AUSL  345   6.274   5.716   5.859
    1AU    AUSL  346   6.212   5.208   5.759
    1AU     AUL  347   6.572   5.461   5.670
    1AU       S  348   6.605   5.285   6.077
    1AU     LIG  349   6.998   5.143   5.717
    1AU     LIG  350   7.458   4.896   5.708
    1AU     LIG  351   7.948   4.737   5.736
    1AU     LIG  352   8.395   4.516   5.707
    1AU     LIG  353   8.819   4.417   5.504
    1AU     LIG  354   9.205   4.681   5.539
    1AU       S  355   6.460   4.996   5.645
    1AU     LIG  356   6.438   4.578   5.360
    1AU     LIG  357   6.643   4.204   5.100
    1AU     LIG  358   6.851   3.792   4.906
    1AU     LIG  359   7.072   3.329   4.874
    1AU     LIG  360   7.496   3.100   4.773
    1AU     LIG  361   7.984   3.110   4.673
    1AU    AUSL  362   5.051   5.357   6.047
    1AU    AUSL  363   5.110   5.528   5.513
    1AU     AUL  364   4.855   5.506   5.630
    1AU       S  365   5.033   5.194   5.341
    1AU     LIG  366   4.565   5.141   5.459
    1AU     LIG  367   4.201   5.021   5.226
    1AU     LIG  368   3.986   4.776   4.915
    1AU     LIG  369   3.719   4.515   4.649
    1AU     LIG  370   3.449   4.445   4.271
    1AU     LIG  371   3.159   4.455   3.894
    1AU       S  372   4.705   5.298   6.007
    1AU     LIG  373   4.361   5.027   6.075
    1AU     LIG  374   3.936   5.019   6.140
    1AU     LIG  375   3.608   4.747   6.297
    1AU     LIG  376   3.146   4.638   6.203
    1AU     LIG  377   2.730   4.390   6.098
    1AU     LIG  378   2.498   4.006   5.931
    1AU    AUSL  379   5.216   5.748   6.156
    1AU    AUSL  380   5.306   5.385   6.383
    1AU     AUL  381   4.920   5.534   6.339
    1AU       S  382   5.062   5.151   6.544
    1AU     LIG  383   4.812   4.910   6.292
    1AU     LIG  384   4.465   4.615   6.392
    1AU     LIG  385   4.119   4.340   6.613
    1AU     LIG  386   3.837   4.062   6.911
    1AU     LIG  387   3.660   3.737   7.242
    1AU     LIG  388   3.594   3.259   7.382
    1AU       S  389   4.614   5.621   6.017
    1AU     LIG  390   4.160   5.404   5.794
    1AU     LIG  391   3.671   5.365   5.850
    1AU     LIG  392   3.187   5.458   5.877
    1AU     LIG  393   2.862   5.415   6.255
    1AU     LIG  394   2.381   5.365   6.318
    1AU     LIG  395   1.950   5.253   6.509
    1AU    AUSL  396   5.795   6.515   6.574
    1AU    AUSL  397   5.468   6.313   6.240
    1AU     AUL  398   5.494   6.609   6.642
    1AU       S  399   5.111   6.409   6.798
    1AU     LIG  400   4.906   6.812   6.832
    1AU     LIG  401   4.795   7.100   7.209
    1AU     LIG  402   4.707   7.566   7.378
    1AU     LIG  403   4.651   8.066   7.439
    1AU     LIG  404   4.345   8.451   7.454
    1AU     LIG  405   3.920   8.567   7.663
    1AU       S  406   5.852   6.926   6.564
    1AU     LIG  407   5.939   7.309   6.825
    1AU     LIG  408   6.071   7.711   7.027
    1AU     LIG  409   6.148   7.945   7.442
    1AU     LIG  410   6.106   8.191   7.857
    1AU     LIG  411   6.008   8.523   8.187
    1AU     LIG  412   5.962   8.977   8.331
    1AU    AUSL  413   5.517   6.712   6.206
    1AU    AUSL  414   5.988   6.711   5.806
    1AU     AUL  415   5.625   6.964   5.968
    1AU       S  416   5.713   6.974   6.418
    1AU     LIG  417   5.733   7.424   6.371
    1AU     LIG  418   5.673   7.804   6.655
    1AU     LIG  419   5.485   8.228   6.802
    1AU     LIG  420   5.386   8.700   6.890
    1AU     LIG  421   5.384   9.176   7.063
    1AU     LIG  422   5.172   9.601   7.117
    1AU       S  423   6.031   7.020   5.732
    1AU     LIG  424   6.387   7.159   5.504
    1AU     LIG  425   6.468   7.617   5.337
    1AU     LIG  426   6.710   8.067   5.318
    1AU     LIG  427   6.818   8.552   5.255
    1AU     LIG  428   6.892   9.033   5.212
    1AU     LIG  429   6.843   9.494   5.104
    1AU    AUSL  430   5.912   6.552   6.178
    1AU    AUSL  431   5.962   6.178   6.421
    1AU     AUL  432   6.110   6.543   6.580
    1AU       S  433   6.525   6.372   6.696
    1AU     LIG  434   6.717   6.503   7.087
    1AU     LIG  435   6.969   6.763   7.407
    1AU     LIG  436   7.174   6.896   7.832
    1AU     LIG  437   7.236   7.099   8.276
    1AU     LIG  438   7.282   7.489   8.567
    1AU     LIG  439   7.435   7.840   8.869
    1AU       S  440   5.996   6.869   6.261
    1AU     LIG  441   6.234   7.271   6.407
    1AU     LIG  442   6.410   7.716   6.604
    1AU     LIG  443   6.706   8.149   6.670
    1AU     LIG  444   6.869   8.640   6.700
    1AU     LIG  445   6.704   9.094   6.651
    1AU     LIG  446   6.807   9.554   6.756
    1AU    AUSL  447   5.735   5.308   6.367
    1AU    AUSL  448   6.152   5.227   6.229
    1AU     AUL  449   5.967   5.070   6.602
    1AU       S  450   5.546   4.684   6.388
    1AU     LIG  451   5.467   4.422   6.706
    1AU     LIG  452   5.301   4.048   6.873
    1AU     LIG  453   5.321   3.595   6.897
    1AU     LIG  454   5.365   3.251   7.212
    1AU     LIG  455   5.386   3.085   7.664
    1AU     LIG  456   5.470   2.783   8.025
    1AU       S  457   6.326   4.995   6.322
    1AU     LIG  458   6.605   4.650   6.480
    1AU     LIG  459   6.663   4.323   6.818
    1AU     LIG  460   6.924   4.021   7.099
    1AU     LIG  461   7.238   3.683   7.289
    1AU     LIG  462   7.529   3.271   7.351
    1AU     LIG  463   7.927   2.994   7.381
    1AU    AUSL  464   5.453   5.093   6.140
    1AU    AUSL  465   5.546   5.365   6.734
    1AU     AUL  466   5.517   5.101   6.550
    1AU       S  467   5.286   4.899   6.173
    1AU     LIG  468   5.044   4.487   6.404
    1AU     LIG  469   5.031   4.006   6.435
    1AU     LIG  470   5.006   3.521   6.485
    1AU     LIG  471   4.756   3.089   6.518
    1AU     LIG  472   4.628   2.699   6.764
    1AU     LIG  473   4.633   2.249   6.850
    1AU       S  474   5.157   5.197   6.816
    1AU     LIG  475   4.853   4.783   6.800
    1AU     LIG  476   4.431   4.616   6.919
    1AU     LIG  477   4.214   4.282   7.178
    1AU     LIG  478   4.033   3.978   7.505
    1AU     LIG  479   4.017   3.692   7.890
    1AU     LIG  480   4.045   3.644   8.366
    1AU    AUSL  481   5.855   4.963   6.162
    1AU    AUSL  482   5.516   5.050   5.737
    1AU     AUL  483   5.803   4.784   5.993
    1AU       S  484   5.406   4.758   5.707
    1AU     LIG  485   5.125   4.485   5.871
    1AU     LIG  486   5.122   4.028   5.763
    1AU     LIG  487   5.092   3.577   5.543
    1AU     LIG  488   4.860   3.131   5.442
    1AU     LIG  489   4.634   2.715   5.267
    1AU     LIG  490   4.562   2.253   5.150
    1AU       S  491   5.412   4.759   6.227
    1AU     LIG  492   5.440   4.237   6.214
    1AU     LIG  493   5.519   3.823   6.454
    1AU     LIG  494   5.666   3.366   6.560
    1AU     LIG  495   5.947   2.950   6.542
    1AU     LIG  496   6.154   2.546   6.723
    1AU     LIG  497   6.299   2.132   6.916
    1AU    AUSL  498   5.749   6.536   5.475
    1AU    AUSL  499   6.040   6.306   5.771
    1AU     AUL  500   6.134   6.617   5.533
    1AU       S  501   5.795   6.869   5.338
    1AU     LIG  502   6.092   7.082   5.099
    1AU     LIG  503   6.168   7.493   4.917
    1AU     LIG  504   6.104   7.730   4.511
    1AU     LIG  505   6.071   8.072   4.192
    1AU     LIG  506   6.056   8.483   3.985
    1AU     LIG  507   5.997   8.799   3.650
    1AU       S  508   6.485   6.302   5.454
    1AU     LIG  509   6.743   6.760   5.278
    1AU     LIG  510   7.065   6.868   4.942
    1AU     LIG  511   7.356   7.140   4.677
    1AU     LIG  512   7.601   7.568   4.664
    1AU     LIG  513   7.807   7.997   4.551
    1AU     LIG  514   7.835   8.419   4.315
    1AU    AUSL  515   5.627   6.506   5.870
    1AU    AUSL  516   5.529   6.212   5.586
    1AU     AUL  517   5.464   6.688   5.620
    1AU       S  518   5.844   6.991   5.568
    1AU     LIG  519   5.953   7.447   5.425
    1AU     LIG  520   5.957   7.885   5.206
    1AU     LIG  521   5.768   8.336   5.077
    1AU     LIG  522   5.453   8.726   4.981
    1AU     LIG  523   5.416   9.204   4.846
    1AU     LIG  524   5.009   9.411   4.732
    1AU       S  525   5.335   6.522   5.205
    1AU     LIG  526   5.165   6.604   4.762
    1AU     LIG  527   4.966   6.900   4.413
    1AU     LIG  528   4.912   7.016   3.933
    1AU     LIG  529   4.901   7.365   3.600
    1AU     LIG  530   4.647   7.741   3.454
    1AU     LIG  531   4.390   8.060   3.195
    1AU    AUSL  532   5.837   5.161   5.472
    1AU    AUSL  533   5.382   5.427   5.820
    1AU     AUL  534   5.511   5.153   5.374
    1AU       S  535   5.050   5.081   5.678
    1AU     LIG  536   4.721   4.800   5.799
    1AU     LIG  537   4.319   4.658   5.568
    1AU     LIG  538   4.011   4.399   5.265
    1AU     LIG  539   3.740   4.098   4.989
    1AU     LIG  540   3.450   3.684   4.926
    1AU     LIG  541   3.257   3.335   4.661
    1AU       S  542   5.640   4.734   5.514
    1AU     LIG  543   5.282   4.439   5.356
    1AU     LIG  544   5.194   3.998   5.237
    1AU     LIG  545   5.346   3.577   5.076
    1AU     LIG  546   5.358   3.296   4.675
    1AU     LIG  547   5.354   3.114   4.218
    1AU     LIG  548   5.479   2.815   3.866
    1AU    AUSL  549   5.829   5.264   5.898
    1AU    AUSL  550   5.957   5.525   5.599
    1AU     AUL  551   5.994   5.016   5.646
    1AU       S  552   5.475   4.857   5.710
    1AU     LIG  553   5.593   4.306   5.742
    1AU     LIG  554   5.566   3.849   5.561
    1AU     LIG  555   5.694   3.393   5.454
    1AU     LIG  556   6.039   3.027   5.456
    1AU     LIG  557   6.274   2.624   5.329
    1AU     LIG  558   6.478   2.241   5.113
    1AU       S  559   6.280   5.103   5.297
    1AU     LIG  560   6.182   4.851   4.981
    1AU     LIG  561   6.382   4.498   4.764
    1AU     LIG  562   6.622   4.144   4.554
    1AU     LIG  563   6.752   3.932   4.150
    1AU     LIG  564   6.948   3.719   3.781
    1AU     LIG  565   7.233   3.556   3.451
    2POPC   NC3  566   1.386   2.514   7.945
    2POPC   PO4  567   1.136   3.080   8.151
    2POPC   GL1  568   1.223   2.980   7.732
    2POPC   GL2  569   0.893   2.828   7.692
    2POPC   C1A  570   1.249   2.727   7.329
    2POPC   D2A  571   1.489   2.692   6.958
    2POPC   C3A  572   1.364   2.748   6.556
    2POPC   C4A  573   1.658   2.968   6.303
    2POPC   C1B  574   0.879   3.078   7.299
    2POPC   C2B  575   1.011   3.023   6.869
    2POPC   C3B  576   0.865   2.864   6.471
    2POPC   C4B  577   1.122   2.756   6.096
    3POPC   NC3  578   2.746   1.971   8.116
    3POPC   PO4  579   3.222   2.341   7.735
    3POPC   GL1  580   3.015   1.928   7.596
    3POPC   GL2  581   2.696   1.751   7.659
    3POPC   C1A  582   3.053   1.894   7.176
    3POPC   D2A  583   3.172   1.979   6.780
    3POPC   C3A  584   2.992   1.880   6.464
    3POPC   C4A  585   3.049   1.957   6.087
    3POPC   C1B  586   2.566   1.952   7.291
    3POPC   C2B  587   2.618   2.105   6.857
    3POPC   C3B  588   2.500   2.038   6.440
    3POPC   C4B  589   2.592   2.163   6.004
    4POPC   NC3  590   8.561   5.248   8.184
    4POPC   PO4  591   9.050   5.512   8.220
    4POPC   GL1  592   8.938   5.288   7.806
    4POPC   GL2  593   8.973   4.925   7.692
    4POPC   C1A  594   8.970   5.286   7.316
    4POPC   D2A  595   9.218   5.173   6.912
    4POPC   C3A  596   9.085   5.229   6.453
    4POPC   C4A  597   8.815   5.285   6.071
    4POPC   C1B  598   9.006   4.781   7.210
    4POPC   C2B  599   8.885   4.814   6.743
    4POPC   C3B  600   8.841   4.807   6.294
    4POPC   C4B  601   8.941   4.529   5.974
    5POPC   NC3  602   1.411   0.508   8.114
    5POPC   PO4  603   0.847   0.813   7.989
    5POPC   GL1  604   1.016   0.441   7.744
    5POPC   GL2  605   1.256   0.143   7.787
    5POPC   C1A  606   0.938   0.325   7.313
    5POPC   D2A  607   0.828   0.493   6.914
    5POPC   C3A  608   0.850   0.161   6.610
    5POPC   C4A  609   0.865  11.483   6.224
    5POPC   C1B  610   1.444   0.380   7.426
    5POPC   C2B  611   1.348   0.519   6.977
    5POPC   C3B  612   1.205   0.514   6.535
    5POPC   C4B  613   1.286   0.256   6.179
    6POPC   NC3  614   7.991   2.502   7.979
    6POPC   PO4  615   7.610   3.064   8.001
    6POPC   GL1  616   7.527   2.765   7.653
    6POPC   GL2  617   7.187   2.639   7.729
    6POPC   C1A  618   7.515   2.738   7.178
    6POPC   D2A  619   7.375   2.857   6.735
    6POPC   C3A  620   7.593   2.754   6.328
    6POPC   C4A  621   7.642   2.891   5.880
    6POPC   C1B  622   7.186   2.396   7.370
    6POPC   C2B  623   7.182   2.403   6.915
    6POPC   C3B  624   7.106   2.499   6.463
    6POPC   C4B  625   7.266   2.465   6.042
    7POPC   NC3  626   2.129   5.684   8.157
    7POPC   PO4  627   1.657   6.099   8.066
    7POPC   GL1  628   1.669   5.926   7.669
    7POPC   GL2  629   2.023   5.915   7.667
    7POPC   C1A  630   1.640   6.108   7.247
    7POPC   D2A  631   1.852   6.054   6.862
    7POPC   C3A  632   1.682   6.060   6.449
    7POPC   C4A  633   1.742   5.679   6.234
    7POPC   C1B  634   1.919   5.686   7.283
    7POPC   C2B  635   2.073   5.602   6.869
    7POPC   C3B  636   2.143   5.823   6.487
    7POPC   C4B  637   2.209   5.761   6.035
    8POPC   NC3  638   0.397   5.454   8.173
    8POPC   PO4  639   0.031   4.970   8.133
    8POPC   GL1  640   0.228   4.973   7.808
    8POPC   GL2  641   0.547   5.048   7.873
    8POPC   C1A  642   0.112   4.818   7.392
    8POPC   D2A  643   0.184   4.636   6.979
    8POPC   C3A  644   0.009   4.787   6.611
    8POPC   C4A  645   0.212   4.849   6.240
    8POPC   C1B  646   0.533   5.143   7.452
    8POPC   C2B  647   0.499   5.025   7.036
    8POPC   C3B  648   0.454   5.139   6.570
    8POPC   C4B  649   0.628   5.140   6.145
    9POPC   NC3  650  11.190   5.285   8.136
    9POPC   PO4  651  11.096   4.626   8.347
    9POPC   GL1  652  11.136   4.775   7.856
    9POPC   GL2  653  11.260   5.106   7.686
    9POPC   C1A  654  11.083   4.768   7.383
    9POPC   D2A  655  11.084   5.062   6.996
    9POPC   C3A  656  10.986   4.926   6.592
    9POPC   C4A  657  11.082   4.828   6.183
    9POPC   C1B  658  11.421   5.284   7.319
    9POPC   C2B  659   0.062   5.223   6.879
    9POPC   C3B  660  11.427   5.259   6.393
    9POPC   C4B  661  11.182   5.296   5.967
   10POPC   NC3  662  11.332   8.166   7.924
   10POPC   PO4  663  10.639   8.322   8.066
   10POPC   GL1  664  10.932   8.350   7.657
   10POPC   GL2  665  11.302   8.428   7.513
   10POPC   C1A  666  10.839   8.405   7.223
   10POPC   D2A  667  10.881   8.504   6.803
   10POPC   C3A  668  11.047   8.192   6.591
   10POPC   C4A  669  10.980   8.056   6.195
   10POPC   C1B  670  11.267   8.086   7.234
   10POPC   C2B  671  11.474   8.063   6.841
   10POPC   C3B  672  11.470   7.966   6.438
   10POPC   C4B  673  11.410   8.306   6.200
   11POPC   NC3  674   3.542   2.431   8.066
   11POPC   PO4  675   4.196   2.556   8.307
   11POPC   GL1  676   3.962   2.533   7.823
   11POPC   GL2  677   3.620   2.762   7.679
   11POPC   C1A  678   3.832   2.424   7.386
   11POPC   D2A  679   3.649   2.673   7.092
   11POPC   C3A  680   3.761   2.536   6.700
   11POPC   C4A  681   3.762   2.808   6.372
   11POPC   C1B  682   3.238   2.862   7.352
   11POPC   C2B  683   3.116   2.946   6.903
   11POPC   C3B  684   3.214   2.838   6.457
   11POPC   C4B  685   3.421   3.166   6.194
   12POPC   NC3  686   4.945   7.919   8.051
   12POPC   PO4  687   5.185   7.463   7.854
   12POPC   GL1  688   5.112   7.846   7.558
   12POPC   GL2  689   5.182   8.197   7.696
   12POPC   C1A  690   5.006   7.886   7.092
   12POPC   D2A  691   5.127   7.875   6.645
   12POPC   C3A  692   4.776   7.952   6.344
   12POPC   C4A  693   4.399   8.084   6.098
   12POPC   C1B  694   5.194   8.322   7.252
   12POPC   C2B  695   4.990   8.364   6.825
   12POPC   C3B  696   5.159   8.309   6.379
   12POPC   C4B  697   5.238   7.939   6.102
   13POPC   NC3  698   8.467   0.927   8.006
   13POPC   PO4  699   7.763   1.075   8.139
   13POPC   GL1  700   8.007   1.096   7.763
   13POPC   GL2  701   7.829   1.341   7.546
   13POPC   C1A  702   8.070   0.903   7.357
   13POPC   D2A  703   7.936   1.029   6.920
   13POPC   C3A  704   8.247   0.963   6.590
   13POPC   C4A  705   8.282   1.100   6.170
   13POPC   C1B  706   8.174   1.396   7.224
   13POPC   C2B  707   8.231   1.446   6.784
   13POPC   C3B  708   7.930   1.352   6.453
   13POPC   C4B  709   7.745   1.656   6.168
   14POPC   NC3  710   1.042   9.544   8.097
   14POPC   PO4  711   0.791  10.172   8.158
   14POPC   GL1  712   0.984   9.944   7.787
   14POPC   GL2  713   1.348   9.885   7.801
   14POPC   C1A  714   0.874   9.948   7.363
   14POPC   D2A  715   1.138   9.923   6.999
   14POPC   C3A  716   1.075   9.675   6.622
   14POPC   C4A  717   1.143   9.883   6.242
   14POPC   C1B  718   1.311   9.649   7.420
   14POPC   C2B  719   1.510   9.557   7.018
   14POPC   C3B  720   1.597   9.655   6.608
   14POPC   C4B  721   1.473   9.507   6.206
   15POPC   NC3  722   1.213  10.534   8.223
   15POPC   PO4  723   0.698  10.679   7.849
   15POPC   GL1  724   0.953  10.433   7.667
   15POPC   GL2  725   1.314  10.400   7.714
   15POPC   C1A  726   1.054  10.408   7.258
   15POPC   D2A  727   1.310  10.501   6.950
   15POPC   C3A  728   1.145  10.287   6.586
   15POPC   C4A  729   0.924  10.336   6.198
   15POPC   C1B  730   1.504  10.168   7.327
   15POPC   C2B  731   1.599  10.092   6.863
   15POPC   C3B  732   1.602  10.130   6.398
   15POPC   C4B  733   1.409  10.371   6.081
   16POPC   NC3  734   3.648   9.151   8.183
   16POPC   PO4  735   3.084   9.344   7.963
   16POPC   GL1  736   3.457   9.498   7.723
   16POPC   GL2  737   3.654   9.819   7.742
   16POPC   C1A  738   3.507   9.582   7.274
   16POPC   D2A  739   3.387   9.762   6.869
   16POPC   C3A  740   3.304   9.563   6.444
   16POPC   C4A  741   3.189   9.527   6.008
   16POPC   C1B  742   3.786  10.009   7.323
   16POPC   C2B  743   3.898   9.925   6.869
   16POPC   C3B  744   3.801   9.707   6.455
   16POPC   C4B  745   3.659   9.731   6.004
   17POPC   NC3  746  10.457   1.252   8.316
   17POPC   PO4  747  10.377   1.811   8.000
   17POPC   GL1  748  10.301   1.516   7.694
   17POPC   GL2  749  10.420   1.186   7.767
   17POPC   C1A  750  10.526   1.422   7.286
   17POPC   D2A  751  10.669   1.244   6.892
   17POPC   C3A  752  10.627   1.565   6.613
   17POPC   C4A  753  10.510   1.558   6.209
   17POPC   C1B  754  10.114   1.132   7.404
   17POPC   C2B  755  10.203   1.025   6.977
   17POPC   C3B  756  10.240   1.202   6.548
   17POPC   C4B  757  10.239   1.047   6.097
   18POPC   NC3  758   3.843  11.351   8.164
   18POPC   PO4  759   3.303   0.097   7.833
   18POPC   GL1  760   3.650  11.410   7.682
   18POPC   GL2  761   3.595  11.068   7.738
   18POPC   C1A  762   3.779  11.347   7.277
   18POPC   D2A  763   3.747  11.055   6.950
   18POPC   C3A  764   3.660  11.200   6.580
   18POPC   C4A  765   3.725   0.006   6.289
   18POPC   C1B  766   3.355  11.028   7.318
   18POPC   C2B  767   3.243  10.923   6.863
   18POPC   C3B  768   3.257  10.983   6.396
   18POPC   C4B  769   3.581  11.002   6.058
   19POPC   NC3  770  11.335   6.279   8.125
   19POPC   PO4  771  11.285   6.952   7.995
   19POPC   GL1  772  11.272   6.729   7.641
   19POPC   GL2  773  11.294   6.365   7.629
   19POPC   C1A  774  11.174   6.789   7.205
   19POPC   D2A  775  11.107   7.003   6.793
   19POPC   C3A  776  11.197   6.811   6.325
   19POPC   C4A  777  10.882   6.960   5.942
   19POPC   C1B  778  11.272   6.299   7.200
   19POPC   C2B  779  11.052   6.482   6.834
   19POPC   C3B  780  11.066   6.310   6.446
   19POPC   C4B  781  11.482   6.188   6.276
   20POPC   NC3  782  10.423   0.261   8.445
   20POPC   PO4  783  10.955   0.060   8.135
   20POPC   GL1  784  10.717   0.237   7.754
   20POPC   GL2  785  10.346   0.329   7.758
   20POPC   C1A  786  10.565   0.226   7.295
   20POPC   D2A  787  10.493  11.486   6.917
   20POPC   C3A  788  10.547   0.227   6.545
   20POPC   C4A  789  10.679   0.178   6.123
   20POPC   C1B  790  10.256   0.608   7.363
   20POPC   C2B  791  10.438   0.579   6.928
   20POPC   C3B  792  10.244   0.675   6.532
   20POPC   C4B  793  10.224   0.426   6.184
   21POPC   NC3  794   6.944   1.128   7.980
   21POPC   PO4  795   6.251   1.171   8.056
   21POPC   GL1  796   6.500   0.973   7.698
   21POPC   GL2  797   6.281   0.741   7.502
   21POPC   C1A  798   6.852   1.052   7.364
   21POPC   D2A  799   6.804   1.213   6.963
   21POPC   C3A  800   6.555   0.959   6.706
   21POPC   C4A  801   6.545   1.177   6.335
   21POPC   C1B  802   6.344   1.077   7.188
   21POPC   C2B  803   6.307   1.454   6.906
   21POPC   C3B  804   6.361   1.668   6.491
   21POPC   C4B  805   6.218   1.485   6.099
   22POPC   NC3  806   8.954  10.999   7.979
   22POPC   PO4  807   9.306  10.494   7.894
   22POPC   GL1  808   9.192  10.815   7.568
   22POPC   GL2  809   9.098  11.215   7.562
   22POPC   C1A  810   8.972  10.877   7.189
   22POPC   D2A  811   8.662  10.786   6.865
   22POPC   C3A  812   8.664  11.004   6.502
   22POPC   C4A  813   8.977  11.004   6.258
   22POPC   C1B  814   8.685  11.248   7.355
   22POPC   C2B  815   8.797  11.301   6.916
   22POPC   C3B  816   8.702   0.025   6.532
   22POPC   C4B  817   8.740  11.446   6.097
   23POPC   NC3  818   0.478   1.079   7.880
   23POPC   PO4  819   0.808   1.602   7.991
   23POPC   GL1  820   0.642   1.489   7.621
   23POPC   GL2  821   0.260   1.489   7.663
   23POPC   C1A  822   0.565   1.557   7.199
   23POPC   D2A  823   0.486   1.312   6.840
   23POPC   C3A  824   0.469   1.590   6.499
   23POPC   C4A  825   0.278   1.541   6.097
   23POPC   C1B  826   0.127   1.259   7.289
   23POPC   C2B  827  11.465   1.083   6.924
   23POPC   C3B  828   0.076   1.231   6.514
   23POPC   C4B  829   0.462   1.066   6.321
   24POPC   NC3  830   4.438   8.595   8.082
   24POPC   PO4  831   4.099   9.162   8.134
   24POPC   GL1  832   4.147   9.021   7.729
   24POPC   GL2  833   4.470   8.939   7.661
   24POPC   C1A  834   4.065   8.898   7.294
   24POPC   D2A  835   4.194   8.599   6.968
   24POPC   C3A  836   4.134   8.712   6.518
   24POPC   C4A  837   4.072   8.497   6.134
   24POPC   C1B  838   4.564   8.878   7.219
   24POPC   C2B  839   4.451   9.011   6.795
   24POPC   C3B  840   4.548   8.965   6.358
   24POPC   C4B  841   4.716   9.181   6.032
   25POPC   NC3  842   3.543   1.374   8.206
   25POPC   PO4  843   3.229   0.712   8.085
   25POPC   GL1  844   3.265   0.868   7.665
   25POPC   GL2  845   3.517   1.126   7.585
   25POPC   C1A  846   3.151   1.014   7.251
   25POPC   D2A  847   3.355   1.113   6.856
   25POPC   C3A  848   3.144   1.111   6.451
   25POPC   C4A  849   3.156   1.467   6.138
   25POPC   C1B  850   3.829   1.372   7.297
   25POPC   C2B  851   3.999   1.509   6.873
   25POPC   C3B  852   3.899   1.459   6.435
   25POPC   C4B  853   3.609   1.182   6.321
   26POPC   NC3  854   5.641   9.705   8.274
   26POPC   PO4  855   6.085  10.157   8.242
   26POPC   GL1  856   6.164   9.887   7.834
   26POPC   GL2  857   5.843   9.706   7.774
   26POPC   C1A  858   6.049   9.899   7.344
   26POPC   D2A  859   6.198   9.778   6.909
   26POPC   C3A  860   5.973   9.870   6.521
   26POPC   C4A  861   6.005   9.898   6.072
   26POPC   C1B  862   5.645   9.574   7.358
   26POPC   C2B  863   5.650   9.648   6.892
   26POPC   C3B  864   5.544   9.553   6.442
   26POPC   C4B  865   5.706   9.487   6.001
   27POPC   NC3  866  11.082  10.428   8.029
   27POPC   PO4  867  10.720   9.911   7.795
   27POPC   GL1  868  11.081  10.097   7.623
   27POPC   GL2  869  11.094  10.470   7.531
   27POPC   C1A  870  11.167  10.056   7.202
   27POPC   D2A  871  10.910  10.112   6.843
   27POPC   C3A  872  11.183  10.280   6.561
   27POPC   C4A  873  11.247  10.107   6.146
   27POPC   C1B  874  10.810  10.755   7.301
   27POPC   C2B  875  11.005  10.688   6.918
   27POPC   C3B  876  11.100  10.843   6.518
   27POPC   C4B  877  11.338  10.624   6.231
   28POPC   NC3  878   5.453   0.130   7.941
   28POPC   PO4  879   5.031   0.598   8.244
   28POPC   GL1  880   5.213   0.540   7.787
   28POPC   GL2  881   5.129   0.262   7.565
   28POPC   C1A  882   5.362   0.604   7.301
   28POPC   D2A  883   5.086   0.354   7.018
   28POPC   C3A  884   5.127   0.364   6.578
   28POPC   C4A  885   5.293   0.639   6.287
   28POPC   C1B  886   4.874   0.640   7.414
   28POPC   C2B  887   4.631   0.682   7.050
   28POPC   C3B  888   4.730   0.711   6.604
   28POPC   C4B  889   4.799   0.972   6.249
   29POPC   NC3  890   8.714   2.598   8.040
   29POPC   PO4  891   8.235   2.903   7.994
   29POPC   GL1  892   8.547   2.884   7.625
   29POPC   GL2  893   8.789   2.581   7.528
   29POPC   C1A  894   8.845   3.044   7.303
   29POPC   D2A  895   8.962   3.340   6.959
   29POPC   C3A  896   8.987   3.178   6.529
   29POPC   C4A  897   8.689   3.024   6.177
   29POPC   C1B  898   9.104   2.618   7.168
   29POPC   C2B  899   9.035   2.665   6.724
   29POPC   C3B  900   9.065   2.706   6.292
   29POPC   C4B  901   9.056   2.572   5.862
   30POPC   NC3  902   7.387  10.619   8.233
   30POPC   PO4  903   7.713  10.794   7.691
   30POPC   GL1  904   7.354  10.572   7.589
   30POPC   GL2  905   7.403  10.268   7.795
   30POPC   C1A  906   7.279  10.412   7.177
   30POPC   D2A  907   7.001  10.441   6.842
   30POPC   C3A  908   7.142  10.630   6.476
   30POPC   C4A  909   7.498  10.648   6.217
   30POPC   C1B  910   7.677  10.170   7.443
   30POPC   C2B  911   7.615  10.070   7.014
   30POPC   C3B  912   7.510  10.255   6.612
   30POPC   C4B  913   7.475  10.127   6.182
   31POPC   NC3  914  10.258   4.546   7.649
   31POPC   PO4  915  10.099   4.027   7.919
   31POPC   GL1  916   9.992   4.125   7.499
   31POPC   GL2  917   9.752   4.369   7.483
   31POPC   C1A  918  10.066   4.294   7.056
   31POPC   D2A  919  10.203   4.643   6.769
   31POPC   C3A  920  10.073   4.598   6.335
   31POPC   C4A  921   9.791   4.258   6.221
   31POPC   C1B  922   9.584   4.069   7.157
   31POPC   C2B  923   9.347   3.901   6.779
   31POPC   C3B  924   9.324   4.124   6.397
   31POPC   C4B  925   9.327   4.588   6.341
   32POPC   NC3  926   0.354   2.063   8.003
   32POPC   PO4  927   0.964   2.357   7.920
   32POPC   GL1  928   0.790   2.019   7.640
   32POPC   GL2  929   0.448   1.946   7.538
   32POPC   C1A  930   0.759   2.124   7.206
   32POPC   D2A  931   0.477   1.973   6.896
   32POPC   C3A  932   0.723   2.055   6.559
   32POPC   C4A  933   0.853   1.919   6.165
   32POPC   C1B  934   0.122   1.814   7.287
   32POPC   C2B  935   0.077   1.614   6.894
   32POPC   C3B  936  11.485   1.773   6.475
   32POPC   C4B  937   0.308   2.034   6.270
   33POPC   NC3  938   9.460   5.676   8.284
   33POPC   PO4  939   9.928   6.074   8.156
   33POPC   GL1  940   9.960   5.862   7.760
   33POPC   GL2  941  10.192   6.047   7.592
   33POPC   C1A  942   9.942   5.685   7.319
   33POPC   D2A  943   9.862   5.811   6.874
   33POPC   C3A  944   9.768   5.604   6.486
   33POPC   C4A  945   9.866   5.678   6.062
   33POPC   C1B  946   9.979   6.194   7.200
   33POPC   C2B  947   9.842   6.314   6.750
   33POPC   C3B  948   9.735   6.105   6.349
   33POPC   C4B  949   9.442   5.946   6.036
   34POPC   NC3  950   5.066   1.076   8.178
   34POPC   PO4  951   5.660   0.721   8.134
   34POPC   GL1  952   5.416   0.988   7.775
   34POPC   GL2  953   5.153   1.261   7.714
   34POPC   C1A  954   5.385   1.095   7.308
   34POPC   D2A  955   5.087   0.923   6.984
   34POPC   C3A  956   5.188   1.042   6.574
   34POPC   C4A  957   5.260   1.171   6.131
   34POPC   C1B  958   4.888   1.255   7.325
   34POPC   C2B  959   4.781   1.389   6.891
   34POPC   C3B  960   4.902   1.442   6.446
   34POPC   C4B  961   5.022   1.636   6.048
   35POPC   NC3  962   7.749   9.247   8.102
   35POPC   PO4  963   8.443   9.263   8.065
   35POPC   GL1  964   8.344   9.169   7.646
   35POPC   GL2  965   8.027   9.136   7.687
   35POPC   C1A  966   8.218   8.840   7.314
   35POPC   D2A  967   8.098   8.719   6.847
   35POPC   C3A  968   8.365   8.686   6.424
   35POPC   C4A  969   8.332   8.778   5.965
   35POPC   C1B  970   7.846   9.190   7.281
   35POPC   C2B  971   8.000   9.219   6.863
   35POPC   C3B  972   8.005   9.056   6.417
   35POPC   C4B  973   7.857   8.998   5.952
   36POPC   NC3  974   8.908  10.395   8.120
   36POPC   PO4  975   8.481  11.018   8.016
   36POPC   GL1  976   8.620  10.682   7.656
   36POPC   GL2  977   8.879  10.385   7.616
   36POPC   C1A  978   8.576  10.460   7.230
   36POPC   D2A  979   8.616  10.273   6.812
   36POPC   C3A  980   8.386  10.550   6.480
   36POPC   C4A  981   8.553  10.731   6.075
   36POPC   C1B  982   9.110  10.383   7.213
   36POPC   C2B  983   9.132  10.608   6.800
   36POPC   C3B  984   8.900  10.516   6.427
   36POPC   C4B  985   8.990  10.119   6.277
   37POPC   NC3  986   7.146   8.841   7.955
   37POPC   PO4  987   7.829   8.653   8.188
   37POPC   GL1  988   7.788   8.684   7.742
   37POPC   GL2  989   7.576   8.918   7.698
   37POPC   C1A  990   7.729   8.686   7.266
   37POPC   D2A  991   7.593   8.922   6.896
   37POPC   C3A  992   7.413   8.703   6.566
   37POPC   C4A  993   7.734   8.629   6.276
   37POPC   C1B  994   7.337   9.023   7.328
   37POPC   C2B  995   7.134   9.132   6.935
   37POPC   C3B  996   7.179   9.159   6.491
   37POPC   C4B  997   7.387   9.023   6.137
   38POPC   NC3  998   0.556  11.019   8.111
   38POPC   PO4  999   1.125  10.973   8.474
   38POPC   GL1 1000   1.155  10.952   7.944
   38POPC   GL2 1001   0.927  11.191   7.769
   38POPC   C1A 1002   1.238  10.856   7.453
   38POPC   D2A 1003   1.230  11.034   7.003
   38POPC   C3A 1004   1.189  10.831   6.583
   38POPC   C4A 1005   0.961  10.861   6.204
   38POPC   C1B 1006   1.149  11.362   7.389
   38POPC   C2B 1007   1.432   0.013   7.066
   38POPC   C3B 1008   1.360   0.034   6.640
   38POPC   C4B 1009   1.302  11.258   6.312
   39POPC   NC3 1010   9.329   8.529   8.107
   39POPC   PO4 1011   9.253   7.854   8.074
   39POPC   GL1 1012   9.548   8.045   7.734
   39POPC   GL2 1013   9.715   8.360   7.750
   39POPC   C1A 1014   9.696   8.043   7.277
   39POPC   D2A 1015   9.840   7.768   6.910
   39POPC   C3A 1016   9.658   7.811   6.459
   39POPC   C4A 1017   9.693   7.804   6.003
   39POPC   C1B 1018   9.647   8.549   7.354
   39POPC   C2B 1019   9.524   8.447   6.928
   39POPC   C3B 1020   9.696   8.457   6.505
   39POPC   C4B 1021   9.550   8.258   6.135
   40POPC   NC3 1022   1.155   1.276   7.998
   40POPC   PO4 1023   1.725   0.856   8.105
   40POPC   GL1 1024   1.516   0.874   7.735
   40POPC   GL2 1025   1.590   1.207   7.665
   40POPC   C1A 1026   1.615   0.851   7.281
   40POPC   D2A 1027   1.762   0.812   6.840
   40POPC   C3A 1028   1.430   0.964   6.544
   40POPC   C4A 1029   1.035   0.960   6.286
   40POPC   C1B 1030   1.422   1.360   7.271
   40POPC   C2B 1031   1.324   1.379   6.823
   40POPC   C3B 1032   0.936   1.369   6.571
   40POPC   C4B 1033   0.798   1.408   6.144
   41POPC   NC3 1034   7.997   3.295   8.032
   41POPC   PO4 1035   8.285   3.801   7.962
   41POPC   GL1 1036   8.335   3.416   7.684
   41POPC   GL2 1037   8.000   3.468   7.537
   41POPC   C1A 1038   8.390   3.265   7.262
   41POPC   D2A 1039   8.461   3.547   6.908
   41POPC   C3A 1040   8.530   3.413   6.500
   41POPC   C4A 1041   8.312   3.361   6.125
   41POPC   C1B 1042   7.946   3.427   7.069
   41POPC   C2B 1043   8.045   3.288   6.631
   41POPC   C3B 1044   7.819   3.231   6.233
   41POPC   C4B 1045   7.474   3.372   5.955
   42POPC   NC3 1046  11.102   9.769   8.034
   42POPC   PO4 1047  10.796   9.204   7.862
   42POPC   GL1 1048  10.968   9.520   7.579
   42POPC   GL2 1049  11.320   9.634   7.590
   42POPC   C1A 1050  10.793   9.673   7.186
   42POPC   D2A 1051  10.632   9.457   6.811
   42POPC   C3A 1052  10.688   9.687   6.445
   42POPC   C4A 1053  10.867   9.779   6.037
   42POPC   C1B 1054  11.341   9.582   7.161
   42POPC   C2B 1055  11.122   9.625   6.792
   42POPC   C3B 1056  11.210   9.624   6.382
   42POPC   C4B 1057  11.347   9.596   5.984
   43POPC   NC3 1058  11.194   7.288   8.312
   43POPC   PO4 1059  11.094   7.761   7.838
   43POPC   GL1 1060  11.083   7.278   7.653
   43POPC   GL2 1061  10.886   7.048   7.530
   43POPC   C1A 1062  11.424   7.205   7.274
   43POPC   D2A 1063   0.091   6.937   6.927
   43POPC   C3A 1064   0.009   7.153   6.526
   43POPC   C4A 1065  11.351   7.512   6.277
   43POPC   C1B 1066  10.956   7.450   7.221
   43POPC   C2B 1067  11.027   7.758   6.898
   43POPC   C3B 1068  10.891   7.667   6.500
   43POPC   C4B 1069  10.935   7.239   6.370
   44POPC   NC3 1070   1.528   8.061   8.195
   44POPC   PO4 1071   0.875   8.173   8.169
   44POPC   GL1 1072   1.170   8.238   7.796
   44POPC   GL2 1073   1.164   8.588   7.641
   44POPC   C1A 1074   1.408   8.176   7.390
   44POPC   D2A 1075   1.493   8.347   6.958
   44POPC   C3A 1076   1.585   8.202   6.556
   44POPC   C4A 1077   1.342   8.111   6.193
   44POPC   C1B 1078   0.933   8.382   7.321
   44POPC   C2B 1079   1.040   8.127   7.019
   44POPC   C3B 1080   1.065   8.222   6.626
   44POPC   C4B 1081   0.861   8.288   6.244
   45POPC   NC3 1082   3.328   3.408   8.072
   45POPC   PO4 1083   2.691   3.235   8.067
   45POPC   GL1 1084   2.656   3.189   7.649
   45POPC   GL2 1085   2.450   3.479   7.620
   45POPC   C1A 1086   2.854   3.264   7.227
   45POPC   D2A 1087   2.760   3.353   6.775
   45POPC   C3A 1088   2.946   3.364   6.357
   45POPC   C4A 1089   2.966   3.818   6.161
   45POPC   C1B 1090   2.311   3.267   7.266
   45POPC   C2B 1091   2.112   3.487   6.953
   45POPC   C3B 1092   2.335   3.616   6.624
   45POPC   C4B 1093   2.411   3.277   6.378
   46POPC   NC3 1094  10.733   8.838   8.125
   46POPC   PO4 1095  11.284   9.354   8.180
   46POPC   GL1 1096  11.296   9.140   7.756
   46POPC   GL2 1097  11.159   8.814   7.825
   46POPC   C1A 1098  11.472   9.120   7.339
   46POPC   D2A 1099  11.243   9.116   6.930
   46POPC   C3A 1100  11.463   9.171   6.527
   46POPC   C4A 1101  11.205   9.114   6.164
   46POPC   C1B 1102  11.061   8.833   7.369
   46POPC   C2B 1103  11.326   8.613   7.032
   46POPC   C3B 1104  11.330   8.652   6.570
   46POPC   C4B 1105  10.985   8.599   6.261
   47POPC   NC3 1106   0.649   3.010   8.130
   47POPC   PO4 1107   0.205   2.482   8.124
   47POPC   GL1 1108   0.389   2.719   7.795
   47POPC   GL2 1109   0.521   2.446   7.658
   47POPC   C1A 1110   0.425   2.835   7.346
   47POPC   D2A 1111   0.504   2.982   6.942
   47POPC   C3A 1112   0.215   2.990   6.622
   47POPC   C4A 1113   0.411   2.949   6.226
   47POPC   C1B 1114   0.295   2.340   7.280
   47POPC   C2B 1115   0.342   2.487   6.884
   47POPC   C3B 1116   0.348   2.502   6.476
   47POPC   C4B 1117   0.681   2.444   6.217
   48POPC   NC3 1118   5.427   0.403   8.375
   48POPC   PO4 1119   5.959   0.222   7.941
   48POPC   GL1 1120   5.693   0.360   7.605
   48POPC   GL2 1121   5.757   0.621   7.624
   48POPC   C1A 1122   5.533   0.143   7.235
   48POPC   D2A 1123   5.601   0.374   6.866
   48POPC   C3A 1124   5.601   0.158   6.510
   48POPC   C4A 1125   5.381  11.425   6.217
   48POPC   C1B 1126   5.996   0.403   7.239
   48POPC   C2B 1127   6.200   0.617   6.972
   48POPC   C3B 1128   6.088   0.712   6.601
   48POPC   C4B 1129   5.881   0.490   6.233
   49POPC   NC3 1130  10.757   4.882   8.206
   49POPC   PO4 1131  10.760   5.522   8.111
   49POPC   GL1 1132  10.765   5.223   7.754
   49POPC   GL2 1133  10.480   5.015   7.758
   49POPC   C1A 1134  10.681   5.051   7.296
   49POPC   D2A 1135  10.529   5.044   6.861
   49POPC   C3A 1136  10.486   4.920   6.440
   49POPC   C4A 1137  10.660   5.093   6.119
   49POPC   C1B 1138  10.246   5.265   7.413
   49POPC   C2B 1139  10.195   5.403   6.964
   49POPC   C3B 1140  10.213   5.347   6.495
   49POPC   C4B 1141   9.879   5.173   6.191
   50POPC   NC3 1142   8.100  10.716   7.931
   50POPC   PO4 1143   8.512  10.254   7.959
   50POPC   GL1 1144   8.342  10.207   7.583
   50POPC   GL2 1145   8.114  10.503   7.472
   50POPC   C1A 1146   8.173  10.095   7.189
   50POPC   D2A 1147   8.046  10.251   6.805
   50POPC   C3A 1148   8.257  10.024   6.565
   50POPC   C4A 1149   8.478  10.113   6.227
   50POPC   C1B 1150   7.791  10.553   7.126
   50POPC   C2B 1151   7.550  10.725   6.827
   50POPC   C3B 1152   7.868  10.689   6.549
   50POPC   C4B 1153   7.948  10.334   6.289
   51POPC   NC3 1154   9.926   1.761   8.084
   51POPC   PO4 1155   9.286   1.574   8.290
   51POPC   GL1 1156   9.437   1.870   7.849
   51POPC   GL2 1157   9.752   2.117   7.743
   51POPC   C1A 1158   9.426   1.960   7.360
   51POPC   D2A 1159   9.684   1.877   6.943
   51POPC   C3A 1160   9.511   1.958   6.524
   51POPC   C4A 1161   9.329   1.794   6.132
   51POPC   C1B 1162   9.844   2.239   7.289
   51POPC   C2B 1163   9.522   2.373   6.961
   51POPC   C3B 1164   9.505   2.473   6.510
   51POPC   C4B 1165   9.843   2.262   6.249
   52POPC   NC3 1166  10.503   2.244   8.197
   52POPC   PO4 1167  10.809   1.724   8.340
   52POPC   GL1 1168  10.788   2.047   7.832
   52POPC   GL2 1169  10.410   2.063   7.588
   52POPC   C1A 1170  10.820   2.134   7.341
   52POPC   D2A 1171  10.582   1.906   6.996
   52POPC   C3A 1172  10.544   2.076   6.542
   52POPC   C4A 1173  10.567   2.065   6.076
   52POPC   C1B 1174  10.108   1.796   7.333
   52POPC   C2B 1175  10.105   1.533   6.970
   52POPC   C3B 1176  10.125   1.722   6.571
   52POPC   C4B 1177  10.112   1.850   6.145
   53POPC   NC3 1178   2.858   5.797   8.314
   53POPC   PO4 1179   3.261   6.177   8.160
   53POPC   GL1 1180   2.905   5.994   7.835
   53POPC   GL2 1181   2.597   5.709   7.748
   53POPC   C1A 1182   2.903   5.889   7.390
   53POPC   D2A 1183   2.937   6.030   6.973
   53POPC   C3A 1184   3.050   5.763   6.614
   53POPC   C4A 1185   3.102   5.877   6.171
   53POPC   C1B 1186   2.455   5.665   7.247
   53POPC   C2B 1187   2.578   5.593   6.760
   53POPC   C3B 1188   2.617   5.829   6.343
   53POPC   C4B 1189   2.453   6.194   6.217
   54POPC   NC3 1190   8.928   9.277   8.132
   54POPC   PO4 1191   8.942   9.953   8.242
   54POPC   GL1 1192   8.812   9.872   7.756
   54POPC   GL2 1193   8.766   9.511   7.709
   54POPC   C1A 1194   8.757   9.972   7.293
   54POPC   D2A 1195   8.965   9.857   6.864
   54POPC   C3A 1196   8.707   9.723   6.483
   54POPC   C4A 1197   8.677   9.624   6.009
   54POPC   C1B 1198   9.069   9.552   7.353
   54POPC   C2B 1199   9.168   9.332   6.969
   54POPC   C3B 1200   9.142   9.327   6.531
   54POPC   C4B 1201   9.133   9.632   6.204
   55POPC   NC3 1202   9.732   0.224   7.977
   55POPC   PO4 1203   9.216  11.371   8.071
   55POPC   GL1 1204   9.262   0.173   7.733
   55POPC   GL2 1205   9.408   0.524   7.667
   55POPC   C1A 1206   9.466   0.109   7.334
   55POPC   D2A 1207   9.418   0.346   6.955
   55POPC   C3A 1208   9.293   0.118   6.601
   55POPC   C4A 1209   9.324   0.276   6.186
   55POPC   C1B 1210   9.746   0.541   7.320
   55POPC   C2B 1211   9.831   0.651   6.855
   55POPC   C3B 1212   9.737   0.441   6.459
   55POPC   C4B 1213   9.767   0.476   6.000
   56POPC   NC3 1214   0.142   8.170   8.455
   56POPC   PO4 1215   0.196   7.857   7.891
   56POPC   GL1 1216   0.277   8.175   7.635
   56POPC   GL2 1217   0.627   8.238   7.694
   56POPC   C1A 1218   0.291   8.140   7.217
   56POPC   D2A 1219   0.560   8.156   6.886
   56POPC   C3A 1220   0.393   8.255   6.520
   56POPC   C4A 1221   0.362   8.080   6.132
   56POPC   C1B 1222   0.711   7.892   7.354
   56POPC   C2B 1223   0.775   7.693   6.906
   56POPC   C3B 1224   0.737   7.852   6.456
   56POPC   C4B 1225   0.761   7.859   5.941
   57POPC   NC3 1226   0.606   4.074   7.971
   57POPC   PO4 1227   0.419   3.422   8.154
   57POPC   GL1 1228   0.455   3.593   7.752
   57POPC   GL2 1229   0.595   3.268   7.666
   57POPC   C1A 1230   0.403   3.832   7.354
   57POPC   D2A 1231   0.617   3.949   6.953
   57POPC   C3A 1232   0.484   3.842   6.558
   57POPC   C4A 1233   0.647   3.718   6.141
   57POPC   C1B 1234   0.298   3.328   7.324
   57POPC   C2B 1235   0.413   3.479   6.930
   57POPC   C3B 1236   0.579   3.344   6.529
   57POPC   C4B 1237   0.218   3.447   6.242
   58POPC   NC3 1238   5.188  10.957   8.157
   58POPC   PO4 1239   4.977   0.047   8.011
   58POPC   GL1 1240   4.847  11.343   7.647
   58POPC   GL2 1241   4.975  11.043   7.697
   58POPC   C1A 1242   5.087  11.350   7.256
   58POPC   D2A 1243   5.271  11.381   6.836
   58POPC   C3A 1244   4.925  11.399   6.529
   58POPC   C4A 1245   4.888  11.482   6.096
   58POPC   C1B 1246   5.131  10.840   7.324
   58POPC   C2B 1247   5.239  10.806   6.886
   58POPC   C3B 1248   5.227  10.990   6.461
   58POPC   C4B 1249   5.209  10.986   5.984
   59POPC   NC3 1250   2.939   0.269   8.080
   59POPC   PO4 1251   2.472   0.807   7.967
   59POPC   GL1 1252   2.784   0.636   7.707
   59POPC   GL2 1253   2.589   0.333   7.680
   59POPC   C1A 1254   3.002   0.528   7.325
   59POPC   D2A 1255   2.934   0.293   6.945
   59POPC   C3A 1256   2.890   0.445   6.542
   59POPC   C4A 1257   2.865   0.252   6.156
   59POPC   C1B 1258   2.482   0.441   7.248
   59POPC   C2B 1259   2.295   0.702   6.905
   59POPC   C3B 1260   2.200   0.759   6.467
   59POPC   C4B 1261   2.495   0.725   6.064
   60POPC   NC3 1262   8.977   1.237   8.161
   60POPC   PO4 1263   8.332   1.349   8.093
   60POPC   GL1 1264   8.660   1.329   7.725
   60POPC   GL2 1265   8.878   1.061   7.660
   60POPC   C1A 1266   8.684   1.314   7.243
   60POPC   D2A 1267   8.882   1.263   6.813
   60POPC   C3A 1268   8.618   1.389   6.451
   60POPC   C4A 1269   8.670   1.340   5.966
   60POPC   C1B 1270   9.147   1.105   7.261
   60POPC   C2B 1271   9.230   0.843   6.933
   60POPC   C3B 1272   9.262   1.014   6.559
   60POPC   C4B 1273   9.083   1.300   6.262
   61POPC   NC3 1274   2.246  10.413   7.990
   61POPC   PO4 1275   1.654  10.678   8.143
   61POPC   GL1 1276   1.812  10.536   7.739
   61POPC   GL2 1277   1.825  10.152   7.751
   61POPC   C1A 1278   1.743  10.639   7.311
   61POPC   D2A 1279   1.692  10.850   6.930
   61POPC   C3A 1280   1.921  10.717   6.587
   61POPC   C4A 1281   1.807  10.676   6.185
   61POPC   C1B 1282   2.060  10.225   7.362
   61POPC   C2B 1283   2.013  10.373   6.944
   61POPC   C3B 1284   2.098  10.200   6.519
   61POPC   C4B 1285   2.014  10.245   6.065
   62POPC   NC3 1286   0.260   4.586   8.241
   62POPC   PO4 1287   0.079   4.058   7.996
   62POPC   GL1 1288   0.059   4.430   7.761
   62POPC   GL2 1289   0.398   4.505   7.753
   62POPC   C1A 1290   0.204   4.302   7.346
   62POPC   D2A 1291   0.130   4.086   6.983
   62POPC   C3A 1292   0.160   4.267   6.591
   62POPC   C4A 1293   0.217   4.054   6.200
   62POPC   C1B 1294   0.590   4.627   7.391
   62POPC   C2B 1295   0.688   4.497   6.975
   62POPC   C3B 1296   0.524   4.625   6.596
   62POPC   C4B 1297   0.541   4.444   6.196
   63POPC   NC3 1298   1.110   8.811   8.085
   63POPC   PO4 1299   1.480   9.451   8.092
   63POPC   GL1 1300   1.349   9.171   7.753
   63POPC   GL2 1301   1.009   9.099   7.674
   63POPC   C1A 1302   1.340   9.152   7.295
   63POPC   D2A 1303   1.097   9.250   6.941
   63POPC   C3A 1304   1.328   9.187   6.589
   63POPC   C4A 1305   1.212   9.088   6.183
   63POPC   C1B 1306   0.911   8.891   7.297
   63POPC   C2B 1307   1.156   8.728   6.949
   63POPC   C3B 1308   1.108   8.706   6.501
   63POPC   C4B 1309   0.794   8.773   6.161
   64POPC   NC3 1310   9.790  10.866   8.092
   64POPC   PO4 1311  10.147   0.039   8.142
   64POPC   GL1 1312   9.976  11.250   7.822
   64POPC   GL2 1313   9.603  11.248   7.717
   64POPC   C1A 1314   9.965  11.022   7.423
   64POPC   D2A 1315   9.949  11.231   7.002
   64POPC   C3A 1316   9.894  11.060   6.585
   64POPC   C4A 1317   9.860  10.802   6.219
   64POPC   C1B 1318   9.487  11.096   7.261
   64POPC   C2B 1319   9.316  11.117   6.824
   64POPC   C3B 1320   9.431  11.186   6.376
   64POPC   C4B 1321   9.236  11.322   5.963
   65POPC   NC3 1322   0.735   7.744   7.999
   65POPC   PO4 1323   1.415   7.670   7.976
   65POPC   GL1 1324   1.117   7.563   7.701
   65POPC   GL2 1325   1.167   7.227   7.818
   65POPC   C1A 1326   1.172   7.690   7.277
   65POPC   D2A 1327   1.440   7.824   6.961
   65POPC   C3A 1328   1.245   7.750   6.596
   65POPC   C4A 1329   1.129   7.629   6.221
   65POPC   C1B 1330   1.197   7.180   7.361
   65POPC   C2B 1331   0.954   7.124   6.950
   65POPC   C3B 1332   1.017   7.190   6.491
   65POPC   C4B 1333   1.461   7.257   6.338
   66POPC   NC3 1334   8.907   0.240   8.142
   66POPC   PO4 1335   9.181   0.820   8.095
   66POPC   GL1 1336   8.893   0.569   7.746
   66POPC   GL2 1337   8.697   0.233   7.682
   66POPC   C1A 1338   8.872   0.682   7.293
   66POPC   D2A 1339   8.665   0.817   6.886
   66POPC   C3A 1340   8.732   0.907   6.394
   66POPC   C4A 1341   8.620   0.813   5.922
   66POPC   C1B 1342   8.948   0.178   7.319
   66POPC   C2B 1343   8.885   0.326   6.920
   66POPC   C3B 1344   9.009   0.531   6.576
   66POPC   C4B 1345   8.819   0.440   6.209
   67POPC   NC3 1346   4.305   3.016   8.267
   67POPC   PO4 1347   3.686   3.140   8.106
   67POPC   GL1 1348   4.029   3.062   7.785
   67POPC   GL2 1349   4.348   2.837   7.730
   67POPC   C1A 1350   4.015   2.929   7.347
   67POPC   D2A 1351   4.149   2.769   6.936
   67POPC   C3A 1352   4.239   2.930   6.505
   67POPC   C4A 1353   4.407   3.083   6.111
   67POPC   C1B 1354   4.325   2.485   7.361
   67POPC   C2B 1355   4.138   2.272   6.960
   67POPC   C3B 1356   4.233   2.409   6.529
   67POPC   C4B 1357   4.573   2.574   6.269
   68POPC   NC3 1358   9.926   9.329   8.163
   68POPC   PO4 1359   9.776   8.705   8.105
   68POPC   GL1 1360   9.711   8.915   7.725
   68POPC   GL2 1361   9.341   8.915   7.686
   68POPC   C1A 1362   9.959   9.003   7.343
   68POPC   D2A 1363   9.914   8.765   6.923
   68POPC   C3A 1364   9.884   8.938   6.459
   68POPC   C4A 1365   9.997   9.167   6.026
   68POPC   C1B 1366   9.340   8.917   7.210
   68POPC   C2B 1367   9.428   8.931   6.747
   68POPC   C3B 1368   9.382   8.853   6.355
   68POPC   C4B 1369   9.168   8.457   6.394
   69POPC   NC3 1370  11.475   3.629   8.174
   69POPC   PO4 1371  10.737   3.551   7.950
   69POPC   GL1 1372  10.838   3.494   7.564
   69POPC   GL2 1373  11.095   3.269   7.684
   69POPC   C1A 1374  10.821   3.732   7.206
   69POPC   D2A 1375  10.815   3.610   6.776
   69POPC   C3A 1376  10.738   3.882   6.434
   69POPC   C4A 1377  10.971   3.735   6.041
   69POPC   C1B 1378  11.296   3.138   7.311
   69POPC   C2B 1379  11.334   3.264   6.868
   69POPC   C3B 1380  11.263   3.237   6.401
   69POPC   C4B 1381  11.014   2.984   6.108
   70POPC   NC3 1382   1.220   5.966   7.930
   70POPC   PO4 1383   0.875   5.437   8.111
   70POPC   GL1 1384   0.981   5.578   7.693
   70POPC   GL2 1385   1.335   5.522   7.698
   70POPC   C1A 1386   0.857   5.470   7.257
   70POPC   D2A 1387   0.658   5.490   6.863
   70POPC   C3A 1388   0.913   5.381   6.483
   70POPC   C4A 1389   1.056   5.447   6.045
   70POPC   C1B 1390   1.283   5.746   7.291
   70POPC   C2B 1391   1.201   5.588   6.869
   70POPC   C3B 1392   1.261   5.743   6.445
   70POPC   C4B 1393   1.333   5.903   6.046
   71POPC   NC3 1394   9.880   6.554   8.054
   71POPC   PO4 1395  10.526   6.396   7.914
   71POPC   GL1 1396  10.587   6.352   7.547
   71POPC   GL2 1397  10.841   6.507   7.495
   71POPC   C1A 1398  10.484   6.260   7.166
   71POPC   D2A 1399  10.578   6.318   6.753
   71POPC   C3A 1400  10.269   6.542   6.546
   71POPC   C4A 1401   9.966   6.559   6.255
   71POPC   C1B 1402  10.665   6.736   7.184
   71POPC   C2B 1403  10.642   6.813   6.788
   71POPC   C3B 1404  10.712   6.719   6.379
   71POPC   C4B 1405  10.406   6.768   6.070
   72POPC   NC3 1406   2.876   1.021   8.044
   72POPC   PO4 1407   3.064   1.613   8.081
   72POPC   GL1 1408   3.015   1.351   7.683
   72POPC   GL2 1409   2.690   1.174   7.617
   72POPC   C1A 1410   2.881   1.427   7.235
   72POPC   D2A 1411   2.736   1.627   6.887
   72POPC   C3A 1412   2.769   1.441   6.520
   72POPC   C4A 1413   2.629   1.642   6.166
   72POPC   C1B 1414   2.623   0.946   7.262
   72POPC   C2B 1415   2.831   0.824   6.891
   72POPC   C3B 1416   2.682   0.924   6.496
   72POPC   C4B 1417   2.396   1.196   6.297
   73POPC   NC3 1418   9.644   7.608   8.039
   73POPC   PO4 1419   9.714   6.975   7.981
   73POPC   GL1 1420   9.643   7.306   7.619
   73POPC   GL2 1421   9.807   7.638   7.552
   73POPC   C1A 1422   9.481   7.465   7.186
   73POPC   D2A 1423   9.506   7.399   6.709
   73POPC   C3A 1424   9.337   7.081   6.377
   73POPC   C4A 1425   9.331   6.847   5.956
   73POPC   C1B 1426   9.975   7.348   7.215
   73POPC   C2B 1427  10.030   7.314   6.759
   73POPC   C3B 1428   9.845   7.223   6.354
   73POPC   C4B 1429   9.849   6.981   5.975
   74POPC   NC3 1430  10.519   3.916   8.108
   74POPC   PO4 1431  10.653   4.549   7.905
   74POPC   GL1 1432  10.737   4.389   7.555
   74POPC   GL2 1433  10.514   4.109   7.607
   74POPC   C1A 1434  10.747   4.269   7.145
   74POPC   D2A 1435  10.707   4.567   6.845
   74POPC   C3A 1436  10.641   4.446   6.455
   74POPC   C4A 1437  10.635   4.603   6.032
   74POPC   C1B 1438  10.363   3.922   7.245
   74POPC   C2B 1439  10.452   3.967   6.852
   74POPC   C3B 1440  10.227   4.153   6.571
   74POPC   C4B 1441  10.325   4.162   6.185
   75POPC   NC3 1442   4.910  10.346   8.186
   75POPC   PO4 1443   5.477  10.003   7.979
   75POPC   GL1 1444   5.321  10.283   7.660
   75POPC   GL2 1445   5.080  10.543   7.744
   75POPC   C1A 1446   5.197  10.266   7.206
   75POPC   D2A 1447   4.989  10.227   6.788
   75POPC   C3A 1448   4.948   9.961   6.392
   75POPC   C4A 1449   4.958   9.961   5.890
   75POPC   C1B 1450   4.755  10.494   7.388
   75POPC   C2B 1451   4.688  10.644   6.935
   75POPC   C3B 1452   4.869  10.625   6.512
   75POPC   C4B 1453   5.023  10.407   6.132
   76POPC   NC3 1454   7.650   8.256   8.012
   76POPC   PO4 1455   7.070   8.398   7.874
   76POPC   GL1 1456   7.279   8.542   7.528
   76POPC   GL2 1457   7.515   8.308   7.522
   76POPC   C1A 1458   7.257   8.561   7.074
   76POPC   D2A 1459   7.224   8.248   6.751
   76POPC   C3A 1460   7.090   8.339   6.353
   76POPC   C4A 1461   7.068   8.623   6.019
   76POPC   C1B 1462   7.343   8.042   7.214
   76POPC   C2B 1463   7.516   7.843   6.833
   76POPC   C3B 1464   7.409   7.902   6.374
   76POPC   C4B 1465   7.506   7.783   5.918
   77POPC   NC3 1466   2.358  11.154   8.382
   77POPC   PO4 1467   3.040  11.367   8.296
   77POPC   GL1 1468   2.830  11.392   7.774
   77POPC   GL2 1469   2.546  11.154   7.766
   77POPC   C1A 1470   2.783  11.499   7.333
   77POPC   D2A 1471   2.881  11.295   6.918
   77POPC   C3A 1472   2.695  11.446   6.528
   77POPC   C4A 1473   2.437  11.435   6.157
   77POPC   C1B 1474   2.722  10.994   7.374
   77POPC   C2B 1475   2.683  10.844   6.970
   77POPC   C3B 1476   2.776  10.944   6.541
   77POPC   C4B 1477   2.622  10.943   6.118
   78POPC   NC3 1478   7.811   0.631   8.018
   78POPC   PO4 1479   8.496   0.481   8.112
   78POPC   GL1 1480   8.284   0.550   7.737
   78POPC   GL2 1481   8.125   0.277   7.769
   78POPC   C1A 1482   8.401   0.497   7.327
   78POPC   D2A 1483   8.209   0.581   6.951
   78POPC   C3A 1484   8.439   0.477   6.578
   78POPC   C4A 1485   8.228   0.579   6.213
   78POPC   C1B 1486   7.888   0.396   7.399
   78POPC   C2B 1487   7.862   0.204   7.013
   78POPC   C3B 1488   7.846   0.426   6.604
   78POPC   C4B 1489   7.722   0.164   6.281
   79POPC   NC3 1490   2.042   0.509   8.008
   79POPC   PO4 1491   2.500   0.029   8.131
   79POPC   GL1 1492   2.176   0.018   7.790
   79POPC   GL2 1493   1.921   0.227   7.599
   79POPC   C1A 1494   2.250  11.427   7.354
   79POPC   D2A 1495   2.417   0.020   6.949
   79POPC   C3A 1496   2.174   0.075   6.569
   79POPC   C4A 1497   2.153   0.346   6.201
   79POPC   C1B 1498   1.927   0.390   7.175
   79POPC   C2B 1499   1.773   0.306   6.765
   79POPC   C3B 1500   1.703   0.532   6.383
   79POPC   C4B 1501   1.697   0.424   5.947
   80POPC   NC3 1502  10.814   3.248   8.286
   80POPC   PO4 1503  10.134   3.312   8.245
   80POPC   GL1 1504  10.326   3.326   7.758
   80POPC   GL2 1505  10.342   3.636   7.648
   80POPC   C1A 1506  10.627   3.052   7.479
   80POPC   D2A 1507  10.836   3.221   7.109
   80POPC   C3A 1508  10.818   3.098   6.657
   80POPC   C4A 1509  10.742   3.382   6.319
   80POPC   C1B 1510  10.345   3.413   7.246
   80POPC   C2B 1511  10.233   3.503   6.823
   80POPC   C3B 1512  10.281   3.654   6.396
   80POPC   C4B 1513  10.481   3.723   5.997
   81POPC   NC3 1514  10.868   6.701   8.014
   81POPC   PO4 1515  10.769   7.335   8.158
   81POPC   GL1 1516  10.509   7.300   7.759
   81POPC   GL2 1517  10.147   7.390   7.831
   81POPC   C1A 1518  10.493   7.220   7.263
   81POPC   D2A 1519  10.670   7.312   6.826
   81POPC   C3A 1520  10.427   7.155   6.475
   81POPC   C4A 1521  10.518   7.287   6.099
   81POPC   C1B 1522  10.301   7.646   7.455
   81POPC   C2B 1523  10.344   7.649   7.001
   81POPC   C3B 1524  10.375   7.668   6.553
   81POPC   C4B 1525  10.124   7.599   6.174
   82POPC   NC3 1526   0.499   9.898   7.931
   82POPC   PO4 1527   0.731   9.192   8.085
   82POPC   GL1 1528   0.652   9.451   7.746
   82POPC   GL2 1529   0.276   9.458   7.754
   82POPC   C1A 1530   0.829   9.449   7.326
   82POPC   D2A 1531   0.666   9.695   6.947
   82POPC   C3A 1532   0.528   9.547   6.534
   82POPC   C4A 1533   0.826   9.456   6.206
   82POPC   C1B 1534   0.333   9.618   7.347
   82POPC   C2B 1535   0.214   9.953   7.074
   82POPC   C3B 1536   0.034   9.913   6.678
   82POPC   C4B 1537   0.195   9.863   6.259
   83POPC   NC3 1538   3.326   1.978   7.987
   83POPC   PO4 1539   3.918   1.658   8.267
   83POPC   GL1 1540   3.648   1.612   7.766
   83POPC   GL2 1541   3.531   1.955   7.528
   83POPC   C1A 1542   3.356   1.534   7.379
   83POPC   D2A 1543   3.486   1.627   6.992
   83POPC   C3A 1544   3.391   1.562   6.588
   83POPC   C4A 1545   3.520   1.824   6.259
   83POPC   C1B 1546   3.455   2.197   7.140
   83POPC   C2B 1547   3.276   2.455   6.820
   83POPC   C3B 1548   3.395   2.319   6.411
   83POPC   C4B 1549   3.810   2.316   6.230
   84POPC   NC3 1550   6.655  10.710   7.989
   84POPC   PO4 1551   7.078  10.262   8.197
   84POPC   GL1 1552   6.879  10.299   7.758
   84POPC   GL2 1553   6.487  10.298   7.717
   84POPC   C1A 1554   6.800  10.521   7.348
   84POPC   D2A 1555   6.517  10.564   6.983
   84POPC   C3A 1556   6.596  10.483   6.537
   84POPC   C4A 1557   6.678  10.826   6.321
   84POPC   C1B 1558   6.500  10.124   7.279
   84POPC   C2B 1559   6.620  10.067   6.832
   84POPC   C3B 1560   6.477   9.981   6.392
   84POPC   C4B 1561   6.499   9.967   5.913
   85POPC   NC3 1562   9.710   2.634   7.954
   85POPC   PO4 1563   9.107   2.420   7.911
   85POPC   GL1 1564   9.275   2.761   7.642
   85POPC   GL2 1565   9.460   2.492   7.511
   85POPC   C1A 1566   9.353   3.064   7.258
   85POPC   D2A 1567   9.469   2.888   6.847
   85POPC   C3A 1568   9.487   3.004   6.418
   85POPC   C4A 1569   9.497   2.780   6.050
   85POPC   C1B 1570   9.723   2.734   7.251
   85POPC   C2B 1571   9.959   2.654   6.879
   85POPC   C3B 1572   9.964   2.714   6.445
   85POPC   C4B 1573   9.961   2.993   6.125
   86POPC   NC3 1574   0.154   9.105   8.099
   86POPC   PO4 1575  11.453   8.531   8.200
   86POPC   GL1 1576   0.200   8.676   7.770
   86POPC   GL2 1577   0.579   8.790   7.790
   86POPC   C1A 1578   0.445   8.599   7.340
   86POPC   D2A 1579   0.649   8.659   6.916
   86POPC   C3A 1580   0.355   8.766   6.587
   86POPC   C4A 1581   0.305   8.615   6.166
   86POPC   C1B 1582   0.470   9.093   7.441
   86POPC   C2B 1583   0.569   9.171   6.986
   86POPC   C3B 1584   0.756   9.091   6.570
   86POPC   C4B 1585   0.429   9.123   6.215
   87POPC   NC3 1586   6.241   2.412   8.158
   87POPC   PO4 1587   6.833   2.392   8.023
   87POPC   GL1 1588   6.763   2.256   7.620
   87POPC   GL2 1589   6.503   2.486   7.572
   87POPC   C1A 1590   6.733   2.265   7.156
   87POPC   D2A 1591   6.673   2.470   6.755
   87POPC   C3A 1592   6.574   2.330   6.344
   87POPC   C4A 1593   6.783   2.612   6.031
   87POPC   C1B 1594   6.448   2.708   7.156
   87POPC   C2B 1595   6.471   2.941   6.746
   87POPC   C3B 1596   6.393   2.803   6.323
   87POPC   C4B 1597   6.140   2.933   5.966
   88POPC   NC3 1598   5.853  10.271   7.863
   88POPC   PO4 1599   5.366  10.539   8.288
   88POPC   GL1 1600   5.562  10.711   7.831
   88POPC   GL2 1601   5.864  10.868   7.636
   88POPC   C1A 1602   5.578  10.601   7.327
   88POPC   D2A 1603   5.599  10.392   6.891
   88POPC   C3A 1604   5.371  10.492   6.486
   88POPC   C4A 1605   5.481  10.558   6.007
   88POPC   C1B 1606   6.117  10.571   7.329
   88POPC   C2B 1607   6.100  10.285   6.987
   88POPC   C3B 1608   6.087  10.396   6.591
   88POPC   C4B 1609   5.793  10.302   6.300
   89POPC   NC3 1610   1.138   1.917   7.994
   89POPC   PO4 1611   1.576   2.330   8.337
   89POPC   GL1 1612   1.592   2.080   7.853
   89POPC   GL2 1613   1.284   2.188   7.582
   89POPC   C1A 1614   1.654   1.980   7.380
   89POPC   D2A 1615   1.366   2.173   7.064
   89POPC   C3A 1616   1.482   2.201   6.633
   89POPC   C4A 1617   1.156   2.305   6.339
   89POPC   C1B 1618   1.151   1.800   7.349
   89POPC   C2B 1619   0.985   1.757   6.932
   89POPC   C3B 1620   1.184   1.812   6.549
   89POPC   C4B 1621   1.272   1.572   6.213
   90POPC   NC3 1622   6.112   0.728   8.002
   90POPC   PO4 1623   6.861   0.651   7.974
   90POPC   GL1 1624   6.761   0.540   7.572
   90POPC   GL2 1625   6.896   0.243   7.461
   90POPC   C1A 1626   6.689   0.637   7.139
   90POPC   D2A 1627   6.621   0.427   6.776
   90POPC   C3A 1628   6.849   0.592   6.459
   90POPC   C4A 1629   6.714   0.779   6.057
   90POPC   C1B 1630   6.482   0.183   7.263
   90POPC   C2B 1631   6.373  11.471   6.885
   90POPC   C3B 1632   6.194   0.200   6.563
   90POPC   C4B 1633   6.395   0.460   6.284
   91POPC   NC3 1634   4.227   2.093   8.324
   91POPC   PO4 1635   3.782   2.053   7.943
   91POPC   GL1 1636   4.033   2.012   7.595
   91POPC   GL2 1637   4.137   1.683   7.564
   91POPC   C1A 1638   3.875   1.903   7.170
   91POPC   D2A 1639   3.733   1.997   6.723
   91POPC   C3A 1640   4.070   1.933   6.416
   91POPC   C4A 1641   4.291   2.170   6.064
   91POPC   C1B 1642   4.380   1.873   7.217
   91POPC   C2B 1643   4.414   1.794   6.780
   91POPC   C3B 1644   4.569   1.822   6.346
   91POPC   C4B 1645   4.547   1.750   5.895
   92POPC   NC3 1646   7.549  11.175   7.890
   92POPC   PO4 1647   6.830  11.172   7.966
   92POPC   GL1 1648   6.964  10.951   7.583
   92POPC   GL2 1649   7.262  11.156   7.481
   92POPC   C1A 1650   7.077  10.878   7.113
   92POPC   D2A 1651   7.241  11.123   6.789
   92POPC   C3A 1652   7.054  11.145   6.414
   92POPC   C4A 1653   7.071  10.869   6.008
   92POPC   C1B 1654   7.596  11.155   7.159
   92POPC   C2B 1655   7.795  11.193   6.768
   92POPC   C3B 1656   7.608  11.134   6.372
   92POPC   C4B 1657   7.347  11.324   6.047
   93POPC   NC3 1658   0.420  10.473   8.147
   93POPC   PO4 1659   0.050   9.924   7.950
   93POPC   GL1 1660   0.112  10.101   7.562
   93POPC   GL2 1661   0.415  10.307   7.616
   93POPC   C1A 1662   0.033  10.420   7.235
   93POPC   D2A 1663   0.200  10.597   6.830
   93POPC   C3A 1664   0.257  10.330   6.492
   93POPC   C4A 1665   0.637  10.049   6.516
   93POPC   C1B 1666   0.543  10.554   7.247
   93POPC   C2B 1667   0.802  10.727   6.935
   93POPC   C3B 1668   0.700  10.597   6.564
   93POPC   C4B 1669   0.518  10.631   6.173
   94POPC   NC3 1670   4.562   0.545   8.125
   94POPC   PO4 1671   4.070   0.150   7.863
   94POPC   GL1 1672   4.297   0.376   7.556
   94POPC   GL2 1673   4.619   0.304   7.682
   94POPC   C1A 1674   4.163   0.436   7.100
   94POPC   D2A 1675   3.849   0.303   6.738
   94POPC   C3A 1676   4.008   0.441   6.300
   94POPC   C4A 1677   4.373   0.700   6.163
   94POPC   C1B 1678   4.655   0.167   7.252
   94POPC   C2B 1679   4.611   0.229   6.804
   94POPC   C3B 1680   4.494   0.194   6.381
   94POPC   C4B 1681   4.407  11.335   6.107
   95POPC   NC3 1682   7.109   2.031   7.949
   95POPC   PO4 1683   7.765   2.084   8.128
   95POPC   GL1 1684   7.565   2.144   7.676
   95POPC   GL2 1685   7.413   1.820   7.543
   95POPC   C1A 1686   7.591   2.149   7.185
   95POPC   D2A 1687   7.427   1.967   6.782
   95POPC   C3A 1688   7.509   2.128   6.371
   95POPC   C4A 1689   7.438   1.997   5.949
   95POPC   C1B 1690   7.110   1.919   7.181
   95POPC   C2B 1691   6.916   2.002   6.727
   95POPC   C3B 1692   6.995   2.043   6.259
   95POPC   C4B 1693   6.748   2.124   5.895
   96POPC   NC3 1694  11.136   4.283   8.049
   96POPC   PO4 1695  11.049   3.657   8.357
   96POPC   GL1 1696  11.169   3.785   7.832
   96POPC   GL2 1697  10.990   3.972   7.664
   96POPC   C1A 1698  11.325   3.772   7.337
   96POPC   D2A 1699  11.145   3.994   6.908
   96POPC   C3A 1700  11.246   3.961   6.434
   96POPC   C4A 1701  10.953   4.216   6.137
   96POPC   C1B 1702  11.204   4.270   7.373
   96POPC   C2B 1703  11.201   4.504   6.973
   96POPC   C3B 1704  11.146   4.439   6.556
   96POPC   C4B 1705  11.403   4.446   6.184
   97POPC   NC3 1706   8.019   1.688   8.090
   97POPC   PO4 1707   8.526   2.180   8.053
   97POPC   GL1 1708   8.528   1.831   7.762
   97POPC   GL2 1709   8.251   1.618   7.665
   97POPC   C1A 1710   8.531   1.806   7.309
   97POPC   D2A 1711   8.277   1.931   6.959
   97POPC   C3A 1712   8.424   1.871   6.516
   97POPC   C4A 1713   8.261   1.635   6.180
   97POPC   C1B 1714   7.948   1.827   7.413
   97POPC   C2B 1715   7.799   1.688   7.015
   97POPC   C3B 1716   7.899   1.836   6.610
   97POPC   C4B 1717   8.038   2.098   6.267
   98POPC   NC3 1718  11.035   5.856   8.264
   98POPC   PO4 1719   0.096   6.011   7.860
   98POPC   GL1 1720  11.318   5.850   7.577
   98POPC   GL2 1721  11.144   5.616   7.759
   98POPC   C1A 1722  11.347   5.764   7.142
   98POPC   D2A 1723  11.201   5.542   6.773
   98POPC   C3A 1724  11.215   5.748   6.378
   98POPC   C4A 1725  11.016   5.986   6.041
   98POPC   C1B 1726  10.950   5.496   7.361
   98POPC   C2B 1727  10.739   5.496   6.966
   98POPC   C3B 1728  10.760   5.387   6.538
   98POPC   C4B 1729  10.778   5.568   6.146
   99POPC   NC3 1730   1.508   6.489   8.274
   99POPC   PO4 1731   0.908   6.334   7.986
   99POPC   GL1 1732   1.175   6.399   7.665
   99POPC   GL2 1733   1.252   6.730   7.734
   99POPC   C1A 1734   1.158   6.256   7.247
   99POPC   D2A 1735   1.312   6.101   6.837
   99POPC   C3A 1736   1.177   6.261   6.424
   99POPC   C4A 1737   1.476   6.388   6.103
   99POPC   C1B 1738   0.991   6.729   7.321
   99POPC   C2B 1739   1.154   6.632   6.888
   99POPC   C3B 1740   1.298   6.761   6.462
   99POPC   C4B 1741   1.075   6.702   6.088
  100POPC   NC3 1742   1.378   4.404   8.037
  100POPC   PO4 1743   0.715   4.609   8.119
  100POPC   GL1 1744   0.939   4.423   7.699
  100POPC   GL2 1745   1.286   4.174   7.596
  100POPC   C1A 1746   0.864   4.159   7.335
  100POPC   D2A 1747   1.106   4.050   6.949
  100POPC   C3A 1748   0.866   4.207   6.572
  100POPC   C4A 1749   0.994   4.142   6.149
  100POPC   C1B 1750   1.312   4.439   7.255
  100POPC   C2B 1751   1.213   4.530   6.833
  100POPC   C3B 1752   1.339   4.353   6.457
  100POPC   C4B 1753   1.394   4.538   6.078
  101POPC   NC3 1754   7.168   9.828   8.116
  101POPC   PO4 1755   7.309   9.277   7.941
  101POPC   GL1 1756   7.554   9.430   7.627
  101POPC   GL2 1757   7.482   9.757   7.687
  101POPC   C1A 1758   7.451   9.505   7.162
  101POPC   D2A 1759   7.545   9.434   6.733
  101POPC   C3A 1760   7.297   9.668   6.423
  101POPC   C4A 1761   7.113   9.470   6.076
  101POPC   C1B 1762   7.218   9.930   7.337
  101POPC   C2B 1763   7.142   9.948   6.856
  101POPC   C3B 1764   7.000  10.111   6.423
  101POPC   C4B 1765   7.022   9.965   5.968
  102POPC   NC3 1766   2.129   8.571   8.010
  102POPC   PO4 1767   1.476   8.526   8.116
  102POPC   GL1 1768   1.669   8.510   7.726
  102POPC   GL2 1769   1.757   8.849   7.766
  102POPC   C1A 1770   1.554   8.695   7.312
  102POPC   D2A 1771   1.645   8.926   6.912
  102POPC   C3A 1772   1.642   8.731   6.484
  102POPC   C4A 1773   1.755   8.450   6.116
  102POPC   C1B 1774   2.041   8.796   7.423
  102POPC   C2B 1775   2.141   8.876   7.041
  102POPC   C3B 1776   2.133   8.898   6.641
  102POPC   C4B 1777   2.104   8.850   6.232
  103POPC   NC3 1778   2.981   6.512   8.087
  103POPC   PO4 1779   2.459   6.009   8.142
  103POPC   GL1 1780   2.453   6.190   7.685
  103POPC   GL2 1781   2.659   6.458   7.669
  103POPC   C1A 1782   2.499   6.168   7.224
  103POPC   D2A 1783   2.472   6.082   6.770
  103POPC   C3A 1784   2.865   6.233   6.517
  103POPC   C4A 1785   2.940   6.386   6.100
  103POPC   C1B 1786   2.561   6.668   7.263
  103POPC   C2B 1787   2.615   6.549   6.840
  103POPC   C3B 1788   2.603   6.642   6.405
  103POPC   C4B 1789   2.833   6.901   6.113
  104POPC   NC3 1790   7.695   1.400   8.458
  104POPC   PO4 1791   7.169   1.556   7.965
  104POPC   GL1 1792   7.298   1.305   7.595
  104POPC   GL2 1793   7.469   0.987   7.723
  104POPC   C1A 1794   7.344   1.450   7.135
  104POPC   D2A 1795   7.468   1.467   6.665
  104POPC   C3A 1796   7.249   1.597   6.244
  104POPC   C4A 1797   7.435   1.499   5.795
  104POPC   C1B 1798   7.555   0.984   7.277
  104POPC   C2B 1799   7.251   0.981   6.935
  104POPC   C3B 1800   7.106   1.084   6.525
  104POPC   C4B 1801   7.482   1.145   6.259
  105POPC   NC3 1802   3.695  10.368   8.269
  105POPC   PO4 1803   3.113  10.159   8.081
  105POPC   GL1 1804   3.343  10.227   7.743
  105POPC   GL2 1805   3.387  10.582   7.816
  105POPC   C1A 1806   3.284  10.076   7.315
  105POPC   D2A 1807   3.379  10.269   6.931
  105POPC   C3A 1808   3.219  10.105   6.535
  105POPC   C4A 1809   3.513  10.149   6.245
  105POPC   C1B 1810   3.569  10.521   7.386
  105POPC   C2B 1811   3.788  10.553   6.998
  105POPC   C3B 1812   3.620  10.642   6.577
  105POPC   C4B 1813   3.838  10.564   6.190
  106POPC   NC3 1814   0.632   6.775   7.927
  106POPC   PO4 1815   0.231   6.433   8.300
  106POPC   GL1 1816   0.215   6.524   7.836
  106POPC   GL2 1817   0.473   6.343   7.648
  106POPC   C1A 1818   0.164   6.619   7.350
  106POPC   D2A 1819   0.178   6.416   6.919
  106POPC   C3A 1820   0.232   6.642   6.521
  106POPC   C4A 1821   0.253   6.600   6.076
  106POPC   C1B 1822   0.612   6.398   7.220
  106POPC   C2B 1823   0.618   6.722   6.902
  106POPC   C3B 1824   0.792   6.668   6.517
  106POPC   C4B 1825   0.685   6.361   6.237
  107POPC   NC3 1826   5.852  10.557   8.316
  107POPC   PO4 1827   5.614  11.223   8.108
  107POPC   GL1 1828   5.453  11.199   7.669
  107POPC   GL2 1829   5.727  11.363   7.599
  107POPC   C1A 1830   5.558  11.110   7.212
  107POPC   D2A 1831   5.904  10.911   7.004
  107POPC   C3A 1832   5.758  10.795   6.612
  107POPC   C4A 1833   5.669  10.973   6.224
  107POPC   C1B 1834   6.021  11.376   7.288
  107POPC   C2B 1835   5.865  11.426   6.905
  107POPC   C3B 1836   5.950  11.257   6.550
  107POPC   C4B 1837   5.929  11.445   6.191
  108POPC   NC3 1838   9.940   3.607   7.956
  108POPC   PO4 1839   9.904   3.015   7.811
  108POPC   GL1 1840   9.888   3.276   7.481
  108POPC   GL2 1841   9.880   3.631   7.430
  108POPC   C1A 1842   9.850   3.219   7.072
  108POPC   D2A 1843   9.888   3.137   6.696
  108POPC   C3A 1844   9.816   3.429   6.379
  108POPC   C4A 1845   9.634   3.379   5.979
  108POPC   C1B 1846   9.492   3.558   7.171
  108POPC   C2B 1847   9.426   3.395   6.746
  108POPC   C3B 1848   9.302   3.583   6.333
  108POPC   C4B 1849   9.468   3.857   5.992
  109POPC   NC3 1850   2.054   4.605   8.061
  109POPC   PO4 1851   2.057   4.004   8.151
  109POPC   GL1 1852   1.813   4.162   7.791
  109POPC   GL2 1853   2.137   4.168   7.644
  109POPC   C1A 1854   1.739   4.145   7.311
  109POPC   D2A 1855   1.616   4.189   6.853
  109POPC   C3A 1856   1.840   4.406   6.479
  109POPC   C4A 1857   1.895   4.753   6.154
  109POPC   C1B 1858   2.192   3.886   7.280
  109POPC   C2B 1859   2.116   4.016   6.854
  109POPC   C3B 1860   2.278   4.117   6.415
  109POPC   C4B 1861   2.002   4.142   6.051
  110POPC   NC3 1862  10.154   8.406   8.059
  110POPC   PO4 1863  10.327   9.092   8.214
  110POPC   GL1 1864  10.229   8.851   7.800
  110POPC   GL2 1865  10.513   8.650   7.713
  110POPC   C1A 1866  10.150   8.544   7.396
  110POPC   D2A 1867  10.398   8.535   6.984
  110POPC   C3A 1868  10.235   8.580   6.559
  110POPC   C4A 1869  10.285   8.762   6.143
  110POPC   C1B 1870  10.541   8.863   7.354
  110POPC   C2B 1871  10.724   8.970   6.984
  110POPC   C3B 1872  10.653   8.887   6.565
  110POPC   C4B 1873  10.709   9.065   6.182
  111POPC   NC3 1874   0.502   0.530   8.128
  111POPC   PO4 1875   0.301  11.400   8.097
  111POPC   GL1 1876   0.528   0.096   7.727
  111POPC   GL2 1877   0.516   0.466   7.604
  111POPC   C1A 1878   0.495   0.041   7.270
  111POPC   D2A 1879   0.375   0.254   6.872
  111POPC   C3A 1880   0.376   0.042   6.436
  111POPC   C4A 1881   0.464   0.141   5.964
  111POPC   C1B 1882   0.339   0.766   7.263
  111POPC   C2B 1883   0.369   0.797   6.804
  111POPC   C3B 1884   0.555   0.563   6.484
  111POPC   C4B 1885   0.831   0.503   6.164
  112POPC   NC3 1886  10.592   9.557   8.063
  112POPC   PO4 1887   9.928   9.790   8.239
  112POPC   GL1 1888  10.180   9.749   7.837
  112POPC   GL2 1889  10.305   9.377   7.704
  112POPC   C1A 1890  10.220   9.793   7.385
  112POPC   D2A 1891  10.026   9.627   7.019
  112POPC   C3A 1892  10.189   9.659   6.617
  112POPC   C4A 1893   9.979   9.680   6.189
  112POPC   C1B 1894  10.376   9.325   7.252
  112POPC   C2B 1895  10.224   9.154   6.852
  112POPC   C3B 1896  10.301   9.226   6.417
  112POPC   C4B 1897  10.427   9.489   6.043
  113POPC   NC3 1898   9.547  10.016   8.398
  113POPC   PO4 1899   9.266   9.583   7.999
  113POPC   GL1 1900   9.646   9.677   7.802
  113POPC   GL2 1901   9.808   9.421   7.680
  113POPC   C1A 1902   9.681   9.822   7.363
  113POPC   D2A 1903   9.513   9.725   6.955
  113POPC   C3A 1904   9.738   9.904   6.604
  113POPC   C4A 1905   9.530   9.928   6.207
  113POPC   C1B 1906   9.551   9.337   7.372
  113POPC   C2B 1907   9.706   9.248   6.989
  113POPC   C3B 1908   9.754   9.395   6.607
  113POPC   C4B 1909   9.566   9.346   6.238
  114POPC   NC3 1910  10.171  10.299   8.141
  114POPC   PO4 1911  10.841  10.115   8.274
  114POPC   GL1 1912  10.635  10.391   7.809
  114POPC   GL2 1913  10.337  10.244   7.666
  114POPC   C1A 1914  10.681  10.274   7.295
  114POPC   D2A 1915  10.511  10.457   6.936
  114POPC   C3A 1916  10.694  10.522   6.544
  114POPC   C4A 1917  10.749  10.180   6.314
  114POPC   C1B 1918  10.282  10.599   7.380
  114POPC   C2B 1919  10.063  10.707   6.987
  114POPC   C3B 1920  10.194  10.629   6.555
  114POPC   C4B 1921  10.373  10.464   6.131
  115POPC   NC3 1922  10.631   7.770   7.994
  115POPC   PO4 1923   9.984   7.938   8.014
  115POPC   GL1 1924  10.120   8.077   7.636
  115POPC   GL2 1925  10.465   8.122   7.635
  115POPC   C1A 1926  10.202   8.085   7.200
  115POPC   D2A 1927   9.993   8.251   6.885
  115POPC   C3A 1928  10.073   8.079   6.507
  115POPC   C4A 1929  10.086   8.286   6.142
  115POPC   C1B 1930  10.697   7.924   7.286
  115POPC   C2B 1931  10.609   8.064   6.859
  115POPC   C3B 1932  10.559   8.196   6.448
  115POPC   C4B 1933  10.511   7.914   6.108
  116POPC   NC3 1934  11.472   7.460   7.860
  116POPC   PO4 1935   0.655   7.239   7.887
  116POPC   GL1 1936   0.394   7.388   7.611
  116POPC   GL2 1937   0.207   7.038   7.664
  116POPC   C1A 1938   0.268   7.609   7.228
  116POPC   D2A 1939   0.032   7.559   6.832
  116POPC   C3A 1940   0.319   7.572   6.460
  116POPC   C4A 1941   0.661   7.431   6.173
  116POPC   C1B 1942   0.464   7.039   7.270
  116POPC   C2B 1943   0.470   7.266   6.877
  116POPC   C3B 1944   0.505   7.079   6.495
  116POPC   C4B 1945   0.655   6.945   6.092
  117POPC   NC3 1946   8.491   9.818   8.136
  117POPC   PO4 1947   7.848   9.635   8.316
  117POPC   GL1 1948   8.080   9.602   7.881
  117POPC   GL2 1949   7.981   9.892   7.751
  117POPC   C1A 1950   8.356   9.658   7.451
  117POPC   D2A 1951   8.459   9.688   6.956
  117POPC   C3A 1952   8.241   9.521   6.539
  117POPC   C4A 1953   8.172   9.720   6.173
  117POPC   C1B 1954   7.873   9.706   7.344
  117POPC   C2B 1955   7.949   9.727   6.903
  117POPC   C3B 1956   7.788   9.820   6.491
  117POPC   C4B 1957   7.731   9.440   6.221
  118POPC   NC3 1958   3.606   0.421   7.935
  118POPC   PO4 1959   3.800   1.054   7.992
  118POPC   GL1 1960   3.838   0.732   7.619
  118POPC   GL2 1961   3.797   0.370   7.473
  118POPC   C1A 1962   3.575   0.743   7.221
  118POPC   D2A 1963   3.340   0.594   6.852
  118POPC   C3A 1964   3.586   0.720   6.512
  118POPC   C4A 1965   3.632   0.747   6.051
  118POPC   C1B 1966   3.448   0.242   7.220
  118POPC   C2B 1967   3.366  11.438   6.932
  118POPC   C3B 1968   3.219   0.012   6.526
  118POPC   C4B 1969   3.350   0.362   6.263
  119POPC   NC3 1970  11.273   2.365   8.195
  119POPC   PO4 1971  10.738   2.715   8.227
  119POPC   GL1 1972  10.904   2.564   7.840
  119POPC   GL2 1973  11.219   2.758   7.864
  119POPC   C1A 1974  10.993   2.682   7.406
  119POPC   D2A 1975  10.822   2.726   7.022
  119POPC   C3A 1976  10.905   2.400   6.770
  119POPC   C4A 1977  10.915   2.389   6.316
  119POPC   C1B 1978  11.476   2.669   7.514
  119POPC   C2B 1979  11.425   2.711   7.062
  119POPC   C3B 1980  11.232   2.784   6.678
  119POPC   C4B 1981  11.410   2.727   6.298
  120POPC   NC3 1982   8.089  11.422   8.143
  120POPC   PO4 1983   7.761  10.898   8.206
  120POPC   GL1 1984   8.031  11.162   7.729
  120POPC   GL2 1985   7.836  11.398   7.537
  120POPC   C1A 1986   8.108  11.030   7.249
  120POPC   D2A 1987   8.301  11.126   6.847
  120POPC   C3A 1988   8.162  11.077   6.391
  120POPC   C4A 1989   8.004  10.817   6.056
  120POPC   C1B 1990   8.243   0.007   7.370
  120POPC   C2B 1991   8.399   0.111   6.982
  120POPC   C3B 1992   8.171   0.047   6.612
  120POPC   C4B 1993   8.241   0.063   6.206
  121POPC   NC3 1994   5.996   1.550   8.106
  121POPC   PO4 1995   5.333   1.567   8.088
  121POPC   GL1 1996   5.677   1.412   7.740
  121POPC   GL2 1997   5.905   1.098   7.697
  121POPC   C1A 1998   5.929   1.431   7.337
  121POPC   D2A 1999   5.789   1.339   6.929
  121POPC   C3A 2000   5.971   1.331   6.516
  121POPC   C4A 2001   5.747   1.303   6.088
  121POPC   C1B 2002   5.856   0.920   7.245
  121POPC   C2B 2003   5.596   0.877   6.866
  121POPC   C3B 2004   5.675   0.937   6.426
  121POPC   C4B 2005   6.101   0.966   6.169
  122POPC   NC3 2006  10.759   1.553   7.918
  122POPC   PO4 2007  11.366   1.918   8.100
  122POPC   GL1 2008  11.300   2.164   7.718
  122POPC   GL2 2009  11.190   1.838   7.574
  122POPC   C1A 2010  11.297   2.255   7.270
  122POPC   D2A 2011  11.479   2.118   6.905
  122POPC   C3A 2012  11.378   2.292   6.563
  122POPC   C4A 2013  11.377   2.241   6.152
  122POPC   C1B 2014  11.123   1.786   7.118
  122POPC   C2B 2015  11.028   1.920   6.698
  122POPC   C3B 2016  10.993   1.833   6.267
  122POPC   C4B 2017  10.892   1.652   5.850
  123POPC   NC3 2018   1.305   3.499   8.058
  123POPC   PO4 2019   1.067   4.070   8.030
  123POPC   GL1 2020   0.956   3.758   7.701
  123POPC   GL2 2021   1.278   3.612   7.555
  123POPC   C1A 2022   0.845   3.594   7.282
  123POPC   D2A 2023   1.102   3.527   6.923
  123POPC   C3A 2024   0.989   3.699   6.541
  123POPC   C4A 2025   1.145   3.652   6.133
  123POPC   C1B 2026   1.360   3.247   7.271
  123POPC   C2B 2027   1.490   3.191   6.813
  123POPC   C3B 2028   1.253   3.242   6.423
  123POPC   C4B 2029   1.339   3.189   5.939
  124POPC   NC3 2030   9.275  10.035   7.884
  124POPC   PO4 2031   9.724  10.432   8.266
  124POPC   GL1 2032   9.823  10.479   7.775
  124POPC   GL2 2033   9.833  10.144   7.740
  124POPC   C1A 2034   9.634  10.584   7.326
  124POPC   D2A 2035   9.572  10.245   6.977
  124POPC   C3A 2036   9.440  10.313   6.532
  124POPC   C4A 2037   9.372  10.689   6.331
  124POPC   C1B 2038   9.975  10.222   7.302
  124POPC   C2B 2039  10.137  10.111   6.908
  124POPC   C3B 2040  10.237  10.128   6.478
  124POPC   C4B 2041   9.908  10.271   6.236
  125POPC   NC3 2042  11.079   0.645   7.988
  125POPC   PO4 2043   0.161   0.847   8.100
  125POPC   GL1 2044   0.037   0.527   7.759
  125POPC   GL2 2045  11.296   0.228   7.765
  125POPC   C1A 2046   0.075   0.343   7.330
  125POPC   D2A 2047  11.419   0.535   6.944
  125POPC   C3A 2048   0.051   0.489   6.531
  125POPC   C4A 2049   0.001   0.257   6.186
  125POPC   C1B 2050  11.070   0.297   7.369
  125POPC   C2B 2051  10.957   0.232   6.936
  125POPC   C3B 2052  11.065   0.290   6.510
  125POPC   C4B 2053  11.064   0.527   6.185
  126POPC   NC3 2054   0.486   6.110   8.092
  126POPC   PO4 2055  11.461   5.645   8.242
  126POPC   GL1 2056   0.145   5.497   7.756
  126POPC   GL2 2057   0.486   5.692   7.747
  126POPC   C1A 2058   0.324   5.587   7.299
  126POPC   D2A 2059   0.331   5.895   6.988
  126POPC   C3A 2060   0.201   5.672   6.627
  126POPC   C4A 2061   0.379   5.602   6.243
  126POPC   C1B 2062   0.718   5.936   7.428
  126POPC   C2B 2063   0.843   5.951   6.995
  126POPC   C3B 2064   0.759   5.898   6.556
  126POPC   C4B 2065   0.818   5.877   6.125
  127POPC   NC3 2066  10.383   5.980   8.063
  127POPC   PO4 2067  10.904   6.301   8.285
  127POPC   GL1 2068  10.915   6.078   7.824
  127POPC   GL2 2069  10.679   5.817   7.706
  127POPC   C1A 2070  10.896   6.009   7.325
  127POPC   D2A 2071  10.968   5.980   6.880
  127POPC   C3A 2072  10.738   5.906   6.522
  127POPC   C4A 2073  10.576   6.228   6.240
  127POPC   C1B 2074  10.463   5.728   7.320
  127POPC   C2B 2075  10.376   5.862   6.899
  127POPC   C3B 2076  10.206   6.016   6.545
  127POPC   C4B 2077  10.319   5.785   6.253
  128POPC   NC3 2078   2.074   6.326   7.991
  128POPC   PO4 2079   1.752   6.852   8.123
  128POPC   GL1 2080   1.770   6.741   7.662
  128POPC   GL2 2081   1.688   6.424   7.664
  128POPC   C1A 2082   1.613   6.625   7.198
  128POPC   D2A 2083   1.645   6.500   6.736
  128POPC   C3A 2084   1.822   6.792   6.412
  128POPC   C4A 2085   2.242   6.971   6.306
  128POPC   C1B 2086   2.049   6.372   7.372
  128POPC   C2B 2087   2.138   6.441   6.982
  128POPC   C3B 2088   2.146   6.418   6.553
  128POPC   C4B 2089   1.986   6.378   6.138
  129POPC   NC3 2090  10.313   2.939   8.048
  129POPC   PO4 2091  10.032   2.322   8.138
  129POPC   GL1 2092  10.288   2.501   7.812
  129POPC   GL2 2093  10.057   2.582   7.589
  129POPC   C1A 2094  10.515   2.533   7.407
  129POPC   D2A 2095  10.417   2.408   6.969
  129POPC   C3A 2096  10.484   2.625   6.552
  129POPC   C4A 2097  10.309   2.511   6.131
  129POPC   C1B 2098  10.200   2.896   7.265
  129POPC   C2B 2099  10.371   3.007   6.902
  129POPC   C3B 2100  10.329   3.125   6.474
  129POPC   C4B 2101  10.494   2.988   6.114
  130POPC   NC3 2102   4.350  10.514   7.958
  130POPC   PO4 2103   3.805  10.802   8.174
  130POPC   GL1 2104   3.899  10.658   7.768
  130POPC   GL2 2105   3.869  10.306   7.758
  130POPC   C1A 2106   3.967  10.874   7.383
  130POPC   D2A 2107   4.235  10.916   7.018
  130POPC   C3A 2108   4.139  10.706   6.644
  130POPC   C4A 2109   4.364  10.663   6.271
  130POPC   C1B 2110   4.123  10.384   7.365
  130POPC   C2B 2111   4.259  10.304   6.946
  130POPC   C3B 2112   4.506  10.288   6.576
  130POPC   C4B 2113   4.561  10.193   6.140
  131POPC   NC3 2114   0.992   4.986   8.112
  131POPC   PO4 2115   1.635   4.788   8.023
  131POPC   GL1 2116   1.273   4.810   7.651
  131POPC   GL2 2117   1.019   5.086   7.628
  131POPC   C1A 2118   1.004   4.832   7.208
  131POPC   D2A 2119   0.916   4.953   6.776
  131POPC   C3A 2120   0.977   4.714   6.410
  131POPC   C4A 2121   1.111   4.962   6.128
  131POPC   C1B 2122   1.307   5.223   7.290
  131POPC   C2B 2123   1.421   4.992   6.918
  131POPC   C3B 2124   1.478   4.875   6.491
  131POPC   C4B 2125   1.476   5.264   6.285
  132POPC   NC3 2126   5.328   2.020   8.044
  132POPC   PO4 2127   5.971   2.036   8.133
  132POPC   GL1 2128   5.929   1.872   7.687
  132POPC   GL2 2129   5.582   1.897   7.618
  132POPC   C1A 2130   5.882   1.910   7.194
  132POPC   D2A 2131   5.918   1.799   6.738
  132POPC   C3A 2132   6.092   2.118   6.453
  132POPC   C4A 2133   5.999   2.494   6.224
  132POPC   C1B 2134   5.424   1.595   7.318
  132POPC   C2B 2135   5.292   1.424   6.904
  132POPC   C3B 2136   5.478   1.497   6.482
  132POPC   C4B 2137   5.795   1.778   6.219
  133POPC   NC3 2138  11.474  11.246   7.802
  133POPC   PO4 2139   0.147  10.857   8.297
  133POPC   GL1 2140   0.213  10.800   7.764
  133POPC   GL2 2141   0.428  11.083   7.635
  133POPC   C1A 2142   0.159  10.918   7.254
  133POPC   D2A 2143  11.472  11.042   6.820
  133POPC   C3A 2144   0.185  10.941   6.396
  133POPC   C4A 2145   0.155  10.811   5.891
  133POPC   C1B 2146   0.726  11.066   7.312
  133POPC   C2B 2147   0.779  11.265   6.924
  133POPC   C3B 2148   0.665  11.116   6.525
  133POPC   C4B 2149   0.537  11.136   6.077
  134POPC   NC3 2150   2.298   3.613   8.103
  134POPC   PO4 2151   1.694   3.269   8.013
  134POPC   GL1 2152   1.910   3.314   7.619
  134POPC   GL2 2153   1.956   3.667   7.671
  134POPC   C1A 2154   1.834   3.105   7.195
  134POPC   D2A 2155   1.975   3.002   6.776
  134POPC   C3A 2156   1.912   3.350   6.496
  134POPC   C4A 2157   1.640   3.508   6.174
  134POPC   C1B 2158   1.718   3.628   7.261
  134POPC   C2B 2159   1.634   3.682   6.815
  134POPC   C3B 2160   1.837   3.865   6.456
  134POPC   C4B 2161   2.165   3.678   6.159
  135POPC   NC3 2162   1.634   2.878   8.239
  135POPC   PO4 2163   2.218   2.462   8.051
  135POPC   GL1 2164   1.884   2.485   7.784
  135POPC   GL2 2165   1.761   2.828   7.725
  135POPC   C1A 2166   1.699   2.476   7.368
  135POPC   D2A 2167   1.848   2.330   6.980
  135POPC   C3A 2168   1.835   2.550   6.583
  135POPC   C4A 2169   1.616   2.469   6.186
  135POPC   C1B 2170   2.120   2.751   7.403
  135POPC   C2B 2171   2.324   2.487   7.056
  135POPC   C3B 2172   2.345   2.508   6.607
  135POPC   C4B 2173   2.167   2.822   6.309
  136POPC   NC3 2174   2.716   9.068   8.044
  136POPC   PO4 2175   2.531   8.491   7.817
  136POPC   GL1 2176   2.470   8.910   7.643
  136POPC   GL2 2177   2.798   9.044   7.534
  136POPC   C1A 2178   2.364   9.226   7.318
  136POPC   D2A 2179   2.469   9.266   6.857
  136POPC   C3A 2180   2.570   9.076   6.436
  136POPC   C4A 2181   2.571   8.867   6.004
  136POPC   C1B 2182   2.620   8.792   7.168
  136POPC   C2B 2183   2.551   8.619   6.730
  136POPC   C3B 2184   2.854   8.656   6.379
  136POPC   C4B 2185   3.074   9.057   6.236
  137POPC   NC3 2186   2.007   2.063   8.187
  137POPC   PO4 2187   1.505   1.592   8.012
  137POPC   GL1 2188   1.832   1.654   7.722
  137POPC   GL2 2189   2.074   1.926   7.714
  137POPC   C1A 2190   1.894   1.555   7.300
  137POPC   D2A 2191   1.648   1.757   6.934
  137POPC   C3A 2192   1.684   1.653   6.518
  137POPC   C4A 2193   1.734   1.952   6.177
  137POPC   C1B 2194   2.121   2.158   7.385
  137POPC   C2B 2195   2.148   1.917   6.987
  137POPC   C3B 2196   2.012   2.056   6.586
  137POPC   C4B 2197   2.111   2.294   6.202
  138POPC   NC3 2198   1.614  11.071   8.399
  138POPC   PO4 2199   1.704   0.173   8.057
  138POPC   GL1 2200   1.690  11.281   7.807
  138POPC   GL2 2201   1.974  11.040   7.894
  138POPC   C1A 2202   1.710  11.170   7.358
  138POPC   D2A 2203   1.922  11.321   6.975
  138POPC   C3A 2204   1.770  11.224   6.576
  138POPC   C4A 2205   1.757   0.004   6.243
  138POPC   C1B 2206   2.169  10.921   7.494
  138POPC   C2B 2207   2.187  10.864   7.048
  138POPC   C3B 2208   2.294  11.081   6.670
  138POPC   C4B 2209   2.141  11.052   6.255
  139POPC   NC3 2210   4.486  11.461   8.056
  139POPC   PO4 2211   4.728  10.766   8.070
  139POPC   GL1 2212   4.468  10.968   7.733
  139POPC   GL2 2213   4.136  11.133   7.793
  139POPC   C1A 2214   4.643  10.990   7.319
  139POPC   D2A 2215   4.669  11.232   6.961
  139POPC   C3A 2216   4.535  11.045   6.589
  139POPC   C4A 2217   4.758  11.002   6.224
  139POPC   C1B 2218   4.280  11.317   7.378
  139POPC   C2B 2219   4.190  11.442   6.971
  139POPC   C3B 2220   4.142  11.372   6.559
  139POPC   C4B 2221   4.033  11.045   6.273
  140POPC   NC3 2222   9.470   1.185   8.065
  140POPC   PO4 2223  10.050   1.314   8.128
  140POPC   GL1 2224   9.781   1.386   7.714
  140POPC   GL2 2225   9.550   1.080   7.587
  140POPC   C1A 2226   9.656   1.501   7.281
  140POPC   D2A 2227   9.363   1.440   6.899
  140POPC   C3A 2228   9.518   1.458   6.469
  140POPC   C4A 2229   9.892   1.411   6.233
  140POPC   C1B 2230   9.661   1.018   7.164
  140POPC   C2B 2231   9.770   1.152   6.765
  140POPC   C3B 2232   9.769   0.942   6.369
  140POPC   C4B 2233   9.400   0.798   6.134
  141POPC   NC3 2234   2.736  10.089   8.320
  141POPC   PO4 2235   2.582  10.737   8.103
  141POPC   GL1 2236   2.698  10.616   7.714
  141POPC   GL2 2237   2.838  10.287   7.652
  141POPC   C1A 2238   2.474  10.527   7.338
  141POPC   D2A 2239   2.512  10.353   6.947
  141POPC   C3A 2240   2.429  10.579   6.598
  141POPC   C4A 2241   2.483  10.438   6.198
  141POPC   C1B 2242   2.978  10.487   7.231
  141POPC   C2B 2243   2.969  10.505   6.749
  141POPC   C3B 2244   2.993  10.539   6.317
  141POPC   C4B 2245   2.924  10.190   6.098
  142POPC   NC3 2246   6.939   0.168   7.961
  142POPC   PO4 2247   7.693   0.133   7.991
  142POPC   GL1 2248   7.393   0.155   7.649
  142POPC   GL2 2249   7.296   0.489   7.729
  142POPC   C1A 2250   7.320   0.098   7.186
  142POPC   D2A 2251   7.449   0.083   6.728
  142POPC   C3A 2252   7.209   0.198   6.362
  142POPC   C4A 2253   7.396   0.307   5.911
  142POPC   C1B 2254   7.195   0.621   7.315
  142POPC   C2B 2255   7.144   0.486   6.886
  142POPC   C3B 2256   7.381   0.641   6.536
  142POPC   C4B 2257   7.215   0.721   6.148
  143POPC   NC3 2258   3.010   9.787   7.830
  143POPC   PO4 2259   2.344   9.955   8.101
  143POPC   GL1 2260   2.514   9.857   7.707
  143POPC   GL2 2261   2.591   9.487   7.702
  143POPC   C1A 2262   2.611   9.995   7.294
  143POPC   D2A 2263   2.909  10.031   6.950
  143POPC   C3A 2264   2.682  10.078   6.538
  143POPC   C4A 2265   2.414   9.910   6.178
  143POPC   C1B 2266   2.798   9.507   7.257
  143POPC   C2B 2267   2.899   9.551   6.791
  143POPC   C3B 2268   2.782   9.584   6.354
  143POPC   C4B 2269   2.712   9.337   6.001
  144POPC   NC3 2270   1.673   7.300   8.028
  144POPC   PO4 2271   1.972   7.850   8.343
  144POPC   GL1 2272   1.895   7.894   7.864
  144POPC   GL2 2273   2.071   8.168   7.697
  144POPC   C1A 2274   1.791   7.833   7.380
  144POPC   D2A 2275   1.920   7.953   6.913
  144POPC   C3A 2276   1.759   7.730   6.511
  144POPC   C4A 2277   1.755   7.854   6.059
  144POPC   C1B 2278   1.914   8.326   7.282
  144POPC   C2B 2279   1.965   8.457   6.832
  144POPC   C3B 2280   2.164   8.382   6.431
  144POPC   C4B 2281   2.220   8.101   6.066
  145POPC   NC3 2282   2.603   2.765   8.016
  145POPC   PO4 2283   3.099   2.316   8.239
  145POPC   GL1 2284   2.746   2.337   7.768
  145POPC   GL2 2285   2.479   2.466   7.596
  145POPC   C1A 2286   2.844   2.373   7.244
  145POPC   D2A 2287   2.791   2.574   6.848
  145POPC   C3A 2288   2.880   2.379   6.474
  145POPC   C4A 2289   3.034   2.461   6.083
  145POPC   C1B 2290   2.613   2.823   7.292
  145POPC   C2B 2291   2.479   2.955   6.846
  145POPC   C3B 2292   2.683   2.862   6.398
  145POPC   C4B 2293   2.515   3.004   5.948
  146POPC   NC3 2294  11.226   1.545   8.346
  146POPC   PO4 2295  10.832   1.051   8.097
  146POPC   GL1 2296  11.041   1.155   7.687
  146POPC   GL2 2297  11.406   1.067   7.712
  146POPC   C1A 2298  11.082   1.279   7.216
  146POPC   D2A 2299  11.138   1.430   6.747
  146POPC   C3A 2300  10.971   1.284   6.381
  146POPC   C4A 2301  10.671   0.959   6.419
  146POPC   C1B 2302  11.284   0.807   7.358
  146POPC   C2B 2303  10.994   0.810   6.983
  146POPC   C3B 2304  11.166   0.849   6.569
  146POPC   C4B 2305  11.441   0.864   6.200
  147POPC   NC3 2306   1.913   1.289   8.065
  147POPC   PO4 2307   2.337   1.735   8.121
  147POPC   GL1 2308   2.285   1.450   7.721
  147POPC   GL2 2309   2.143   1.106   7.653
  147POPC   C1A 2310   2.386   1.454   7.269
  147POPC   D2A 2311   2.404   1.245   6.845
  147POPC   C3A 2312   2.229   1.583   6.558
  147POPC   C4A 2313   2.007   1.532   6.142
  147POPC   C1B 2314   2.070   1.063   7.213
  147POPC   C2B 2315   1.895   1.300   6.864
  147POPC   C3B 2316   1.892   1.166   6.464
  147POPC   C4B 2317   1.613   1.193   6.122
  148POPC   NC3 2318  11.414  11.276   8.356
  148POPC   PO4 2319  11.215  10.862   7.864
  148POPC   GL1 2320  11.190  11.033   7.463
  148POPC   GL2 2321  10.970  11.294   7.665
  148POPC   C1A 2322  11.359  11.391   7.191
  148POPC   D2A 2323  11.420   0.046   6.769
  148POPC   C3A 2324  11.340  11.315   6.382
  148POPC   C4A 2325   0.073  11.295   5.984
  148POPC   C1B 2326  10.836  11.309   7.270
  148POPC   C2B 2327  10.988  11.208   6.910
  148POPC   C3B 2328  10.867  11.327   6.564
  148POPC   C4B 2329  10.845  11.160   6.196
  149POPC   NC3 2330   5.374   8.765   8.060
  149POPC   PO4 2331   4.839   8.376   8.067
  149POPC   GL1 2332   4.888   8.630   7.686
  149POPC   GL2 2333   4.976   8.981   7.768
  149POPC   C1A 2334   5.064   8.805   7.288
  149POPC   D2A 2335   4.954   8.986   6.881
  149POPC   C3A 2336   4.982   8.769   6.511
  149POPC   C4A 2337   4.662   8.457   6.385
  149POPC   C1B 2338   4.852   9.260   7.402
  149POPC   C2B 2339   4.709   9.406   6.992
  149POPC   C3B 2340   4.765   9.421   6.525
  149POPC   C4B 2341   5.088   9.524   6.162
  150POPC   NC3 2342   4.359   9.534   8.157
  150POPC   PO4 2343   4.488  10.100   8.098
  150POPC   GL1 2344   4.215   9.911   7.726
  150POPC   GL2 2345   4.101   9.541   7.707
  150POPC   C1A 2346   4.283   9.868   7.254
  150POPC   D2A 2347   4.556   9.871   6.868
  150POPC   C3A 2348   4.312   9.833   6.492
  150POPC   C4A 2349   4.057  10.089   6.224
  150POPC   C1B 2350   4.313   9.353   7.330
  150POPC   C2B 2351   4.213   9.469   6.882
  150POPC   C3B 2352   4.211   9.340   6.443
  150POPC   C4B 2353   4.118   9.535   6.048
  151POPC   NC3 2354   8.953   1.985   8.031
  151POPC   PO4 2355   9.183   1.429   7.798
  151POPC   GL1 2356   8.992   1.710   7.568
  151POPC   GL2 2357   8.957   2.079   7.544
  151POPC   C1A 2358   9.021   1.704   7.163
  151POPC   D2A 2359   8.767   1.746   6.861
  151POPC   C3A 2360   9.016   1.713   6.540
  151POPC   C4A 2361   8.816   1.774   6.169
  151POPC   C1B 2362   8.847   2.184   7.137
  151POPC   C2B 2363   9.106   2.153   6.777
  151POPC   C3B 2364   9.081   2.201   6.329
  151POPC   C4B 2365   8.691   2.317   6.125
  152POPC   NC3 2366  10.570  11.286   8.033
  152POPC   PO4 2367  10.235  10.753   8.029
  152POPC   GL1 2368  10.444  10.984   7.647
  152POPC   GL2 2369  10.412  11.342   7.576
  152POPC   C1A 2370  10.407  11.052   7.183
  152POPC   D2A 2371  10.567  10.945   6.843
  152POPC   C3A 2372  10.402  11.127   6.557
  152POPC   C4A 2373  10.375  10.954   6.199
  152POPC   C1B 2374  10.069   0.057   7.402
  152POPC   C2B 2375  10.052   0.234   7.012
  152POPC   C3B 2376  10.062   0.067   6.596
  152POPC   C4B 2377  10.206  11.425   6.202
  153POPC   NC3 2378   1.919   9.535   8.174
  153POPC   PO4 2379   2.276   8.994   8.126
  153POPC   GL1 2380   2.088   9.240   7.757
  153POPC   GL2 2381   2.068   9.601   7.699
  153POPC   C1A 2382   1.840   9.249   7.344
  153POPC   D2A 2383   1.957   9.338   6.903
  153POPC   C3A 2384   1.855   9.257   6.448
  153POPC   C4A 2385   2.215   9.342   6.175
  153POPC   C1B 2386   1.833   9.765   7.366
  153POPC   C2B 2387   2.032   9.849   6.973
  153POPC   C3B 2388   2.162   9.685   6.580
  153POPC   C4B 2389   1.925   9.756   6.218
  154POPC   NC3 2390   6.067  11.269   7.941
  154POPC   PO4 2391   6.187  10.651   7.961
  154POPC   GL1 2392   6.386  10.926   7.612
  154POPC   GL2 2393   6.509  11.289   7.595
  154POPC   C1A 2394   6.417  11.029   7.178
  154POPC   D2A 2395   6.665  11.040   6.804
  154POPC   C3A 2396   6.291  10.892   6.637
  154POPC   C4A 2397   6.146  10.839   6.238
  154POPC   C1B 2398   6.837  11.311   7.229
  154POPC   C2B 2399   6.923   0.018   6.832
  154POPC   C3B 2400   6.708   0.051   6.438
  154POPC   C4B 2401   6.407  11.273   6.279
  155POPC   NC3 2402   8.280   8.841   8.166
  155POPC   PO4 2403   8.947   8.800   8.179
  155POPC   GL1 2404   8.799   8.946   7.782
  155POPC   GL2 2405   8.569   8.701   7.687
  155POPC   C1A 2406   8.786   9.095   7.358
  155POPC   D2A 2407   8.612   8.866   7.008
  155POPC   C3A 2408   8.478   9.107   6.688
  155POPC   C4A 2409   8.673   9.223   6.309
  155POPC   C1B 2410   8.957   8.613   7.405
  155POPC   C2B 2411   9.044   8.616   6.935
  155POPC   C3B 2412   8.915   8.857   6.573
  155POPC   C4B 2413   8.816   8.755   6.132
  156POPC   NC3 2414   4.122   1.373   7.965
  156POPC   PO4 2415   4.634   0.986   7.992
  156POPC   GL1 2416   4.477   1.195   7.638
  156POPC   GL2 2417   4.425   0.882   7.482
  156POPC   C1A 2418   4.365   1.342   7.228
  156POPC   D2A 2419   4.371   1.089   6.865
  156POPC   C3A 2420   4.392   1.339   6.545
  156POPC   C4A 2421   4.442   1.334   6.155
  156POPC   C1B 2422   4.064   0.926   7.235
  156POPC   C2B 2423   3.859   1.009   6.854
  156POPC   C3B 2424   4.049   0.955   6.461
  156POPC   C4B 2425   4.026   1.069   6.033
  157POPC   NC3 2426   0.907   8.131   3.992
  157POPC   PO4 2427   1.450   7.754   3.943
  157POPC   GL1 2428   1.307   7.970   4.309
  157POPC   GL2 2429   1.253   8.312   4.321
  157POPC   C1A 2430   1.385   7.994   4.749
  157POPC   D2A 2431   1.296   7.659   5.020
  157POPC   C3A 2432   1.292   7.881   5.379
  157POPC   C4A 2433   1.317   7.750   5.784
  157POPC   C1B 2434   0.948   8.236   4.663
  157POPC   C2B 2435   0.893   7.984   5.017
  157POPC   C3B 2436   0.831   8.104   5.437
  157POPC   C4B 2437   1.075   8.199   5.773
  158POPC   NC3 2438   3.598   1.783   4.088
  158POPC   PO4 2439   4.137   2.258   3.899
  158POPC   GL1 2440   3.827   2.194   4.353
  158POPC   GL2 2441   3.505   2.024   4.525
  158POPC   C1A 2442   3.844   2.251   4.793
  158POPC   D2A 2443   3.534   2.042   5.069
  158POPC   C3A 2444   3.554   2.191   5.482
  158POPC   C4A 2445   3.459   2.208   5.902
  158POPC   C1B 2446   3.456   1.620   4.741
  158POPC   C2B 2447   3.576   1.426   5.127
  158POPC   C3B 2448   3.716   1.671   5.457
  158POPC   C4B 2449   3.351   1.758   5.720
  159POPC   NC3 2450   0.708   5.680   3.922
  159POPC   PO4 2451   0.898   6.279   3.933
  159POPC   GL1 2452   0.598   6.150   4.248
  159POPC   GL2 2453   0.395   5.875   4.249
  159POPC   C1A 2454   0.626   5.965   4.683
  159POPC   D2A 2455   0.784   5.855   5.105
  159POPC   C3A 2456   0.512   5.785   5.452
  159POPC   C4A 2457   0.612   5.543   5.800
  159POPC   C1B 2458   0.307   5.578   4.623
  159POPC   C2B 2459   0.174   5.717   5.051
  159POPC   C3B 2460   0.034   5.568   5.480
  159POPC   C4B 2461  11.473   5.735   5.918
  160POPC   NC3 2462   2.038   4.531   4.107
  160POPC   PO4 2463   1.707   4.084   3.780
  160POPC   GL1 2464   1.599   4.046   4.228
  160POPC   GL2 2465   1.921   4.059   4.439
  160POPC   C1A 2466   1.479   4.272   4.611
  160POPC   D2A 2467   1.735   4.455   4.910
  160POPC   C3A 2468   1.650   4.331   5.333
  160POPC   C4A 2469   1.752   4.453   5.741
  160POPC   C1B 2470   2.179   3.751   4.743
  160POPC   C2B 2471   2.263   3.779   5.214
  160POPC   C3B 2472   2.140   4.101   5.558
  160POPC   C4B 2473   2.274   4.498   5.820
  161POPC   NC3 2474   0.479   1.495   4.173
  161POPC   PO4 2475   0.422   0.991   3.726
  161POPC   GL1 2476   0.390   0.983   4.236
  161POPC   GL2 2477   0.560   1.151   4.537
  161POPC   C1A 2478   0.143   0.907   4.672
  161POPC   D2A 2479   0.279   1.183   5.015
  161POPC   C3A 2480   0.409   1.063   5.420
  161POPC   C4A 2481   0.234   1.087   5.851
  161POPC   C1B 2482   0.625   1.526   4.832
  161POPC   C2B 2483   0.577   1.544   5.283
  161POPC   C3B 2484   0.576   1.439   5.699
  161POPC   C4B 2485   0.727   0.983   5.855
  162POPC   NC3 2486   2.269   1.550   4.089
  162POPC   PO4 2487   2.562   0.921   3.919
  162POPC   GL1 2488   2.401   1.075   4.323
  162POPC   GL2 2489   2.043   1.132   4.336
  162POPC   C1A 2490   2.329   0.904   4.756
  162POPC   D2A 2491   2.046   0.911   5.139
  162POPC   C3A 2492   2.209   1.015   5.530
  162POPC   C4A 2493   2.070   1.009   5.985
  162POPC   C1B 2494   1.932   1.269   4.763
  162POPC   C2B 2495   1.844   1.361   5.219
  162POPC   C3B 2496   1.846   1.357   5.655
  162POPC   C4B 2497   1.566   1.619   5.817
  163POPC   NC3 2498   1.241   3.287   4.060
  163POPC   PO4 2499   0.799   3.667   3.725
  163POPC   GL1 2500   0.850   3.493   4.290
  163POPC   GL2 2501   1.159   3.535   4.501
  163POPC   C1A 2502   0.837   3.329   4.781
  163POPC   D2A 2503   0.960   3.556   5.196
  163POPC   C3A 2504   0.940   3.390   5.654
  163POPC   C4A 2505   0.859   3.221   6.102
  163POPC   C1B 2506   1.424   3.302   4.716
  163POPC   C2B 2507   1.500   3.448   5.077
  163POPC   C3B 2508   1.505   3.354   5.474
  163POPC   C4B 2509   1.371   3.687   5.699
  164POPC   NC3 2510   9.638   7.532   3.806
  164POPC   PO4 2511   9.825   7.006   4.007
  164POPC   GL1 2512   9.740   7.297   4.329
  164POPC   GL2 2513   9.980   7.531   4.360
  164POPC   C1A 2514   9.639   7.284   4.783
  164POPC   D2A 2515   9.356   7.509   5.101
  164POPC   C3A 2516   9.384   7.343   5.541
  164POPC   C4A 2517   9.503   7.345   5.969
  164POPC   C1B 2518  10.174   7.384   4.763
  164POPC   C2B 2519  10.119   7.065   5.094
  164POPC   C3B 2520   9.847   7.100   5.448
  164POPC   C4B 2521   9.926   7.468   5.701
  165POPC   NC3 2522  11.209   3.062   3.986
  165POPC   PO4 2523  10.875   2.421   3.936
  165POPC   GL1 2524  10.999   2.515   4.342
  165POPC   GL2 2525  11.322   2.696   4.354
  165POPC   C1A 2526  11.143   2.426   4.759
  165POPC   D2A 2527  10.900   2.566   5.091
  165POPC   C3A 2528  11.103   2.447   5.438
  165POPC   C4A 2529  11.243   2.621   5.824
  165POPC   C1B 2530  11.481   2.825   4.783
  165POPC   C2B 2531  11.295   2.908   5.181
  165POPC   C3B 2532  11.279   3.081   5.568
  165POPC   C4B 2533   0.014   3.051   5.935
  166POPC   NC3 2534  11.153   8.776   3.720
  166POPC   PO4 2535  10.948   9.096   4.315
  166POPC   GL1 2536  11.030   8.704   4.476
  166POPC   GL2 2537  11.234   8.634   4.222
  166POPC   C1A 2538  11.167   8.677   4.898
  166POPC   D2A 2539  11.251   9.045   5.126
  166POPC   C3A 2540  10.948   9.018   5.422
  166POPC   C4A 2541  10.908   8.808   5.800
  166POPC   C1B 2542  11.418   8.375   4.578
  166POPC   C2B 2543   0.022   8.343   5.068
  166POPC   C3B 2544  11.471   8.666   5.432
  166POPC   C4B 2545  11.390   8.717   5.897
  167POPC   NC3 2546   8.835   5.418   3.918
  167POPC   PO4 2547   8.540   5.971   3.942
  167POPC   GL1 2548   8.700   5.718   4.314
  167POPC   GL2 2549   9.060   5.637   4.325
  167POPC   C1A 2550   8.772   5.621   4.767
  167POPC   D2A 2551   8.731   5.396   5.177
  167POPC   C3A 2552   8.734   5.547   5.608
  167POPC   C4A 2553   8.471   5.712   5.959
  167POPC   C1B 2554   9.271   5.798   4.710
  167POPC   C2B 2555   9.118   5.761   5.157
  167POPC   C3B 2556   9.203   5.758   5.615
  167POPC   C4B 2557   8.976   5.772   6.028
  168POPC   NC3 2558   8.350   3.537   4.034
  168POPC   PO4 2559   8.018   3.934   4.214
  168POPC   GL1 2560   8.168   3.583   4.525
  168POPC   GL2 2561   8.453   3.333   4.493
  168POPC   C1A 2562   8.295   3.447   4.961
  168POPC   D2A 2563   8.564   3.558   5.308
  168POPC   C3A 2564   8.353   3.654   5.713
  168POPC   C4A 2565   7.936   3.649   5.935
  168POPC   C1B 2566   8.517   2.999   4.821
  168POPC   C2B 2567   8.504   3.025   5.292
  168POPC   C3B 2568   8.235   3.108   5.682
  168POPC   C4B 2569   8.146   2.860   6.072
  169POPC   NC3 2570   8.995   9.056   4.096
  169POPC   PO4 2571   8.445   9.169   3.702
  169POPC   GL1 2572   8.538   8.854   4.193
  169POPC   GL2 2573   8.789   8.630   4.301
  169POPC   C1A 2574   8.609   8.895   4.701
  169POPC   D2A 2575   8.721   8.649   5.100
  169POPC   C3A 2576   8.644   8.764   5.539
  169POPC   C4A 2577   8.676   9.117   5.781
  169POPC   C1B 2578   9.066   8.668   4.692
  169POPC   C2B 2579   9.230   8.623   5.124
  169POPC   C3B 2580   9.146   8.833   5.518
  169POPC   C4B 2581   9.263   8.666   5.911
  170POPC   NC3 2582  10.513   1.363   3.848
  170POPC   PO4 2583  10.055   0.812   3.929
  170POPC   GL1 2584  10.084   1.234   4.119
  170POPC   GL2 2585  10.379   1.146   4.302
  170POPC   C1A 2586  10.053   1.505   4.495
  170POPC   D2A 2587  10.184   1.374   4.890
  170POPC   C3A 2588  10.146   1.483   5.315
  170POPC   C4A 2589   9.994   1.404   5.734
  170POPC   C1B 2590  10.606   1.182   4.695
  170POPC   C2B 2591  10.514   1.100   5.162
  170POPC   C3B 2592  10.458   1.204   5.609
  170POPC   C4B 2593  10.713   1.190   5.946
  171POPC   NC3 2594   8.211   8.769   3.831
  171POPC   PO4 2595   8.520   9.344   4.180
  171POPC   GL1 2596   8.197   9.161   4.412
  171POPC   GL2 2597   8.030   8.912   4.269
  171POPC   C1A 2598   8.156   9.096   4.822
  171POPC   D2A 2599   8.299   8.929   5.201
  171POPC   C3A 2600   8.196   9.104   5.584
  171POPC   C4A 2601   8.268   9.273   6.017
  171POPC   C1B 2602   8.203   8.632   4.583
  171POPC   C2B 2603   8.242   8.473   4.995
  171POPC   C3B 2604   8.241   8.457   5.469
  171POPC   C4B 2605   7.973   8.444   5.863
  172POPC   NC3 2606   6.569   0.366   3.707
  172POPC   PO4 2607   7.128   0.631   3.890
  172POPC   GL1 2608   6.961   0.306   4.183
  172POPC   GL2 2609   6.602   0.296   4.200
  172POPC   C1A 2610   6.870   0.249   4.647
  172POPC   D2A 2611   6.873   0.418   5.097
  172POPC   C3A 2612   6.765   0.309   5.538
  172POPC   C4A 2613   6.876   0.312   5.997
  172POPC   C1B 2614   6.361   0.433   4.558
  172POPC   C2B 2615   6.355   0.514   5.004
  172POPC   C3B 2616   6.275   0.421   5.452
  172POPC   C4B 2617   6.235   0.629   5.831
  173POPC   NC3 2618   3.641   8.052   3.969
  173POPC   PO4 2619   3.037   8.093   3.998
  173POPC   GL1 2620   3.041   8.333   4.394
  173POPC   GL2 2621   3.409   8.330   4.414
  173POPC   C1A 2622   3.134   8.379   4.865
  173POPC   D2A 2623   3.335   8.131   5.236
  173POPC   C3A 2624   3.424   8.255   5.687
  173POPC   C4A 2625   3.563   8.410   6.101
  173POPC   C1B 2626   3.434   7.972   4.718
  173POPC   C2B 2627   3.674   7.769   5.085
  173POPC   C3B 2628   3.738   7.822   5.544
  173POPC   C4B 2629   3.956   8.111   5.815
  174POPC   NC3 2630   9.507   9.777   3.879
  174POPC   PO4 2631  10.056   9.368   3.955
  174POPC   GL1 2632   9.781   9.519   4.267
  174POPC   GL2 2633   9.589   9.258   4.400
  174POPC   C1A 2634   9.821   9.831   4.616
  174POPC   D2A 2635   9.832  10.040   5.032
  174POPC   C3A 2636   9.608   9.950   5.411
  174POPC   C4A 2637   9.797  10.013   5.792
  174POPC   C1B 2638   9.638   9.399   4.829
  174POPC   C2B 2639   9.903   9.512   5.189
  174POPC   C3B 2640   9.882   9.514   5.645
  174POPC   C4B 2641   9.469   9.591   5.805
  175POPC   NC3 2642   9.085   0.334   3.906
  175POPC   PO4 2643   8.546   0.704   3.748
  175POPC   GL1 2644   8.851   0.546   4.272
  175POPC   GL2 2645   8.817   0.234   4.349
  175POPC   C1A 2646   8.852   0.713   4.735
  175POPC   D2A 2647   8.665   0.775   5.160
  175POPC   C3A 2648   8.918   0.644   5.503
  175POPC   C4A 2649   9.382   0.694   5.637
  175POPC   C1B 2650   8.821   0.041   4.744
  175POPC   C2B 2651   8.845   0.246   5.122
  175POPC   C3B 2652   8.631   0.191   5.484
  175POPC   C4B 2653   8.478   0.324   5.848
  176POPC   NC3 2654   8.126   9.441   3.897
  176POPC   PO4 2655   7.733   8.896   3.841
  176POPC   GL1 2656   7.734   9.308   4.176
  176POPC   GL2 2657   8.017   9.622   4.336
  176POPC   C1A 2658   7.742   9.349   4.632
  176POPC   D2A 2659   7.743   9.288   5.052
  176POPC   C3A 2660   7.785   9.643   5.321
  176POPC   C4A 2661   7.973   9.559   5.716
  176POPC   C1B 2662   8.142   9.634   4.783
  176POPC   C2B 2663   8.254   9.444   5.181
  176POPC   C3B 2664   8.477   9.530   5.538
  176POPC   C4B 2665   8.373   9.909   5.746
  177POPC   NC3 2666   2.937   0.324   4.063
  177POPC   PO4 2667   2.396   0.137   3.832
  177POPC   GL1 2668   2.476   0.270   4.260
  177POPC   GL2 2669   2.622   0.614   4.332
  177POPC   C1A 2670   2.390   0.350   4.694
  177POPC   D2A 2671   2.210   0.450   5.055
  177POPC   C3A 2672   2.491   0.495   5.389
  177POPC   C4A 2673   2.527   0.285   5.787
  177POPC   C1B 2674   2.827   0.669   4.761
  177POPC   C2B 2675   2.968   0.642   5.219
  177POPC   C3B 2676   2.883   0.748   5.670
  177POPC   C4B 2677   3.019   0.732   6.124
  178POPC   NC3 2678   2.092  11.304   3.939
  178POPC   PO4 2679   1.542  10.964   3.646
  178POPC   GL1 2680   1.606  11.205   4.133
  178POPC   GL2 2681   1.891  11.053   4.350
  178POPC   C1A 2682   1.583  11.329   4.612
  178POPC   D2A 2683   1.885  11.170   4.968
  178POPC   C3A 2684   1.763  11.251   5.431
  178POPC   C4A 2685   1.846  11.084   5.849
  178POPC   C1B 2686   2.217  11.338   4.558
  178POPC   C2B 2687   2.370  11.398   4.953
  178POPC   C3B 2688   2.405  11.109   5.264
  178POPC   C4B 2689   2.362  11.158   5.712
  179POPC   NC3 2690  10.698   8.771   4.089
  179POPC   PO4 2691  10.076   8.527   3.941
  179POPC   GL1 2692  10.155   8.896   4.216
  179POPC   GL2 2693  10.349   8.757   4.453
  179POPC   C1A 2694   9.986   9.049   4.631
  179POPC   D2A 2695  10.175   8.882   5.016
  179POPC   C3A 2696  10.044   8.914   5.452
  179POPC   C4A 2697  10.110   8.497   5.677
  179POPC   C1B 2698  10.630   8.794   4.775
  179POPC   C2B 2699  10.703   8.683   5.130
  179POPC   C3B 2700  10.522   8.727   5.497
  179POPC   C4B 2701  10.437   9.067   5.752
  180POPC   NC3 2702   2.389  10.282   3.977
  180POPC   PO4 2703   3.028   9.961   3.895
  180POPC   GL1 2704   2.847  10.162   4.263
  180POPC   GL2 2705   2.701  10.472   4.323
  180POPC   C1A 2706   2.743  10.042   4.686
  180POPC   D2A 2707   3.014  10.144   5.054
  180POPC   C3A 2708   2.841  10.165   5.476
  180POPC   C4A 2709   2.452  10.183   5.742
  180POPC   C1B 2710   2.868  10.518   4.705
  180POPC   C2B 2711   2.579  10.427   5.050
  180POPC   C3B 2712   2.503  10.601   5.441
  180POPC   C4B 2713   2.788  10.576   5.798
  181POPC   NC3 2714  11.347   4.280   3.994
  181POPC   PO4 2715  11.237   4.937   3.799
  181POPC   GL1 2716  11.283   4.723   4.245
  181POPC   GL2 2717  11.049   4.439   4.366
  181POPC   C1A 2718  11.444   4.604   4.662
  181POPC   D2A 2719  11.183   4.445   5.018
  181POPC   C3A 2720  11.358   4.491   5.436
  181POPC   C4A 2721  11.080   4.504   5.766
  181POPC   C1B 2722  11.236   4.130   4.627
  181POPC   C2B 2723  11.363   3.929   5.029
  181POPC   C3B 2724  11.216   3.997   5.441
  181POPC   C4B 2725  11.337   4.041   5.852
  182POPC   NC3 2726   2.739  11.104   3.527
  182POPC   PO4 2727   2.940  10.523   3.870
  182POPC   GL1 2728   2.853  10.942   4.224
  182POPC   GL2 2729   2.681  11.290   4.179
  182POPC   C1A 2730   2.784  11.021   4.675
  182POPC   D2A 2731   2.857  10.841   5.102
  182POPC   C3A 2732   2.846  10.999   5.513
  182POPC   C4A 2733   3.091  10.964   5.917
  182POPC   C1B 2734   2.747   0.009   4.592
  182POPC   C2B 2735   2.806   0.183   5.002
  182POPC   C3B 2736   2.716  11.500   5.408
  182POPC   C4B 2737   2.812  11.372   5.841
  183POPC   NC3 2738   9.043   8.229   3.951
  183POPC   PO4 2739   8.458   8.377   3.931
  183POPC   GL1 2740   8.667   8.146   4.312
  183POPC   GL2 2741   9.010   7.975   4.382
  183POPC   C1A 2742   8.765   8.260   4.755
  183POPC   D2A 2743   8.595   8.144   5.170
  183POPC   C3A 2744   8.725   8.251   5.582
  183POPC   C4A 2745   8.554   8.320   6.003
  183POPC   C1B 2746   9.173   7.927   4.807
  183POPC   C2B 2747   9.056   7.909   5.249
  183POPC   C3B 2748   9.103   7.780   5.672
  183POPC   C4B 2749   8.745   7.796   5.972
  184POPC   NC3 2750   1.184  10.309   3.892
  184POPC   PO4 2751   1.626  10.697   4.089
  184POPC   GL1 2752   1.502  10.350   4.310
  184POPC   GL2 2753   1.197  10.547   4.324
  184POPC   C1A 2754   1.613  10.136   4.708
  184POPC   D2A 2755   1.659  10.322   5.137
  184POPC   C3A 2756   1.561  10.075   5.506
  184POPC   C4A 2757   1.549   9.906   5.909
  184POPC   C1B 2758   1.150  10.371   4.681
  184POPC   C2B 2759   1.155  10.552   5.052
  184POPC   C3B 2760   1.228  10.457   5.431
  184POPC   C4B 2761   1.066  10.613   5.777
  185POPC   NC3 2762   4.432   8.806   3.658
  185POPC   PO4 2763   4.210   9.226   4.002
  185POPC   GL1 2764   4.227   9.187   4.431
  185POPC   GL2 2765   4.263   8.834   4.479
  185POPC   C1A 2766   4.063   9.216   4.850
  185POPC   D2A 2767   4.202   9.405   5.240
  185POPC   C3A 2768   4.049   9.237   5.636
  185POPC   C4A 2769   4.144   9.014   6.042
  185POPC   C1B 2770   4.527   8.984   4.825
  185POPC   C2B 2771   4.550   8.992   5.242
  185POPC   C3B 2772   4.478   8.964   5.646
  185POPC   C4B 2773   4.511   8.640   5.937
  186POPC   NC3 2774  11.170   9.391   4.046
  186POPC   PO4 2775  10.739  10.006   3.959
  186POPC   GL1 2776  10.899   9.968   4.392
  186POPC   GL2 2777  11.152   9.737   4.419
  186POPC   C1A 2778  10.794   9.695   4.791
  186POPC   D2A 2779  10.871   9.564   5.228
  186POPC   C3A 2780  11.054   9.874   5.518
  186POPC   C4A 2781  11.445   9.978   5.667
  186POPC   C1B 2782  11.286   9.493   4.788
  186POPC   C2B 2783  11.450   9.573   5.199
  186POPC   C3B 2784  11.251   9.408   5.531
  186POPC   C4B 2785  10.887   9.348   5.793
  187POPC   NC3 2786   2.344   5.983   3.734
  187POPC   PO4 2787   3.017   6.196   3.838
  187POPC   GL1 2788   2.726   6.069   4.168
  187POPC   GL2 2789   2.511   5.756   4.171
  187POPC   C1A 2790   2.907   5.935   4.586
  187POPC   D2A 2791   3.147   5.974   4.999
  187POPC   C3A 2792   2.920   5.913   5.416
  187POPC   C4A 2793   2.727   5.998   5.835
  187POPC   C1B 2794   2.421   5.782   4.629
  187POPC   C2B 2795   2.285   5.870   5.073
  187POPC   C3B 2796   2.407   5.763   5.495
  187POPC   C4B 2797   2.599   5.498   5.831
  188POPC   NC3 2798  11.413   8.016   3.990
  188POPC   PO4 2799  10.725   8.253   3.854
  188POPC   GL1 2800  10.959   8.212   4.230
  188POPC   GL2 2801  11.047   7.893   4.346
  188POPC   C1A 2802  10.923   8.245   4.685
  188POPC   D2A 2803  10.784   8.176   5.090
  188POPC   C3A 2804  11.030   8.404   5.381
  188POPC   C4A 2805  11.091   8.326   5.791
  188POPC   C1B 2806  11.347   7.896   4.681
  188POPC   C2B 2807  11.216   7.890   5.077
  188POPC   C3B 2808  11.329   7.992   5.466
  188POPC   C4B 2809  11.344   7.880   5.896
  189POPC   NC3 2810   1.789   9.777   4.047
  189POPC   PO4 2811   1.175   9.876   3.739
  189POPC   GL1 2812   1.244   9.897   4.190
  189POPC   GL2 2813   1.344   9.587   4.239
  189POPC   C1A 2814   1.146   9.864   4.641
  189POPC   D2A 2815   1.237  10.016   5.065
  189POPC   C3A 2816   0.950   9.955   5.400
  189POPC   C4A 2817   1.092  10.096   5.776
  189POPC   C1B 2818   1.564   9.556   4.656
  189POPC   C2B 2819   1.458   9.416   5.075
  189POPC   C3B 2820   1.425   9.583   5.490
  189POPC   C4B 2821   1.122   9.586   5.814
  190POPC   NC3 2822   1.271   7.314   3.887
  190POPC   PO4 2823   1.540   6.789   3.698
  190POPC   GL1 2824   1.475   6.921   4.144
  190POPC   GL2 2825   1.160   6.838   4.283
  190POPC   C1A 2826   1.499   7.009   4.622
  190POPC   D2A 2827   1.664   7.153   5.045
  190POPC   C3A 2828   1.469   7.357   5.431
  190POPC   C4A 2829   1.645   7.367   5.862
  190POPC   C1B 2830   0.955   6.948   4.696
  190POPC   C2B 2831   0.828   7.035   5.142
  190POPC   C3B 2832   0.902   6.981   5.601
  190POPC   C4B 2833   1.119   7.200   5.942
  191POPC   NC3 2834   9.829   5.517   3.883
  191POPC   PO4 2835   9.271   5.263   3.975
  191POPC   GL1 2836   9.527   5.426   4.377
  191POPC   GL2 2837   9.810   5.677   4.383
  191POPC   C1A 2838   9.668   5.477   4.847
  191POPC   D2A 2839   9.610   5.683   5.272
  191POPC   C3A 2840   9.625   5.460   5.674
  191POPC   C4A 2841   9.405   5.436   6.092
  191POPC   C1B 2842   9.883   5.944   4.781
  191POPC   C2B 2843   9.894   6.106   5.213
  191POPC   C3B 2844   9.695   6.101   5.615
  191POPC   C4B 2845   9.610   6.405   5.943
  192POPC   NC3 2846   2.812   2.253   3.892
  192POPC   PO4 2847   3.433   2.211   4.056
  192POPC   GL1 2848   3.097   1.922   4.239
  192POPC   GL2 2849   2.812   2.113   4.368
  192POPC   C1A 2850   2.990   1.750   4.649
  192POPC   D2A 2851   2.925   2.059   4.937
  192POPC   C3A 2852   3.072   1.951   5.314
  192POPC   C4A 2853   3.022   2.186   5.645
  192POPC   C1B 2854   2.520   1.936   4.661
  192POPC   C2B 2855   2.503   1.821   5.080
  192POPC   C3B 2856   2.574   1.957   5.502
  192POPC   C4B 2857   2.843   1.662   5.715
  193POPC   NC3 2858   1.941   2.357   3.738
  193POPC   PO4 2859   1.823   1.660   4.032
  193POPC   GL1 2860   1.908   2.097   4.212
  193POPC   GL2 2861   2.269   2.096   4.260
  193POPC   C1A 2862   2.001   2.314   4.656
  193POPC   D2A 2863   2.266   2.267   5.026
  193POPC   C3A 2864   2.149   2.290   5.445
  193POPC   C4A 2865   1.814   2.275   5.758
  193POPC   C1B 2866   2.042   1.811   4.632
  193POPC   C2B 2867   1.990   1.828   5.067
  193POPC   C3B 2868   1.893   1.847   5.491
  193POPC   C4B 2869   2.175   1.905   5.847
  194POPC   NC3 2870   8.199   1.899   3.889
  194POPC   PO4 2871   7.691   2.345   3.852
  194POPC   GL1 2872   7.953   2.224   4.232
  194POPC   GL2 2873   8.087   1.902   4.372
  194POPC   C1A 2874   8.123   2.315   4.657
  194POPC   D2A 2875   7.949   2.212   5.068
  194POPC   C3A 2876   8.084   2.367   5.471
  194POPC   C4A 2877   8.254   2.387   5.880
  194POPC   C1B 2878   8.133   1.793   4.824
  194POPC   C2B 2879   8.108   1.520   5.176
  194POPC   C3B 2880   7.841   1.635   5.510
  194POPC   C4B 2881   7.944   1.953   5.787
  195POPC   NC3 2882   0.858   1.081   3.601
  195POPC   PO4 2883   0.879   1.672   4.015
  195POPC   GL1 2884   0.962   1.318   4.258
  195POPC   GL2 2885   1.307   1.254   4.239
  195POPC   C1A 2886   1.038   1.252   4.698
  195POPC   D2A 2887   1.076   1.493   5.093
  195POPC   C3A 2888   0.985   1.249   5.459
  195POPC   C4A 2889   1.196   1.197   5.844
  195POPC   C1B 2890   1.484   1.035   4.552
  195POPC   C2B 2891   1.460   1.109   4.977
  195POPC   C3B 2892   1.453   1.038   5.402
  195POPC   C4B 2893   1.668   0.879   5.721
  196POPC   NC3 2894  11.007  10.367   4.078
  196POPC   PO4 2895  10.878  10.920   3.818
  196POPC   GL1 2896  10.964  10.843   4.246
  196POPC   GL2 2897  11.347  10.741   4.256
  196POPC   C1A 2898  10.858  10.665   4.665
  196POPC   D2A 2899  10.834  10.831   5.093
  196POPC   C3A 2900  10.879  10.679   5.533
  196POPC   C4A 2901  10.844  10.668   6.049
  196POPC   C1B 2902  11.345  10.492   4.627
  196POPC   C2B 2903  11.098  10.326   4.962
  196POPC   C3B 2904  11.215  10.337   5.364
  196POPC   C4B 2905  11.260  10.460   5.773
  197POPC   NC3 2906   7.262   1.036   4.044
  197POPC   PO4 2907   7.823   1.476   3.864
  197POPC   GL1 2908   7.680   1.249   4.233
  197POPC   GL2 2909   7.399   1.393   4.396
  197POPC   C1A 2910   7.585   1.001   4.641
  197POPC   D2A 2911   7.219   1.039   4.913
  197POPC   C3A 2912   7.312   0.982   5.346
  197POPC   C4A 2913   7.409   1.006   5.782
  197POPC   C1B 2914   7.312   1.528   4.818
  197POPC   C2B 2915   7.230   1.504   5.282
  197POPC   C3B 2916   6.968   1.266   5.601
  197POPC   C4B 2917   6.992   1.200   6.033
  198POPC   NC3 2918   9.739   9.021   3.954
  198POPC   PO4 2919   9.223   8.645   4.049
  198POPC   GL1 2920   9.449   8.772   4.353
  198POPC   GL2 2921   9.746   8.634   4.325
  198POPC   C1A 2922   9.521   8.882   4.775
  198POPC   D2A 2923   9.281   9.125   5.081
  198POPC   C3A 2924   9.549   9.182   5.403
  198POPC   C4A 2925   9.555   9.087   5.803
  198POPC   C1B 2926   9.940   8.538   4.709
  198POPC   C2B 2927   9.783   8.576   5.138
  198POPC   C3B 2928   9.622   8.655   5.547
  198POPC   C4B 2929   9.775   8.689   6.013
  199POPC   NC3 2930   8.824  10.564   4.079
  199POPC   PO4 2931   9.062   9.927   3.911
  199POPC   GL1 2932   9.053  10.177   4.294
  199POPC   GL2 2933   8.678  10.209   4.412
  199POPC   C1A 2934   9.049  10.353   4.726
  199POPC   D2A 2935   8.930  10.164   5.122
  199POPC   C3A 2936   9.069  10.388   5.493
  199POPC   C4A 2937   9.067  10.631   5.909
  199POPC   C1B 2938   8.556   9.950   4.760
  199POPC   C2B 2939   8.458   9.922   5.193
  199POPC   C3B 2940   8.538  10.269   5.442
  199POPC   C4B 2941   8.731  10.278   5.843
  200POPC   NC3 2942   1.522   8.909   3.864
  200POPC   PO4 2943   0.913   8.597   3.983
  200POPC   GL1 2944   1.157   8.798   4.334
  200POPC   GL2 2945   1.150   9.120   4.298
  200POPC   C1A 2946   1.306   8.614   4.768
  200POPC   D2A 2947   1.214   8.387   5.179
  200POPC   C3A 2948   1.060   8.644   5.555
  200POPC   C4A 2949   1.265   8.620   5.988
  200POPC   C1B 2950   1.131   9.111   4.778
  200POPC   C2B 2951   1.332   8.942   5.203
  200POPC   C3B 2952   1.291   9.097   5.643
  200POPC   C4B 2953   0.882   9.128   5.819
  201POPC   NC3 2954   9.730   4.085   3.845
  201POPC   PO4 2955   9.793   3.447   3.920
  201POPC   GL1 2956   9.781   3.678   4.306
  201POPC   GL2 2957   9.440   3.803   4.381
  201POPC   C1A 2958   9.757   3.782   4.773
  201POPC   D2A 2959   9.548   3.858   5.176
  201POPC   C3A 2960   9.767   3.984   5.579
  201POPC   C4A 2961   9.973   3.835   5.990
  201POPC   C1B 2962   9.398   3.409   4.663
  201POPC   C2B 2963   9.453   3.272   5.082
  201POPC   C3B 2964   9.474   3.450   5.488
  201POPC   C4B 2965   9.163   3.565   5.734
  202POPC   NC3 2966   5.878   1.053   3.931
  202POPC   PO4 2967   5.402   1.550   3.859
  202POPC   GL1 2968   5.448   1.542   4.277
  202POPC   GL2 2969   5.509   1.196   4.281
  202POPC   C1A 2970   5.640   1.421   4.691
  202POPC   D2A 2971   5.462   1.355   5.071
  202POPC   C3A 2972   5.755   1.489   5.360
  202POPC   C4A 2973   5.970   1.667   5.711
  202POPC   C1B 2974   5.440   0.948   4.689
  202POPC   C2B 2975   5.494   0.840   5.116
  202POPC   C3B 2976   5.497   1.062   5.510
  202POPC   C4B 2977   5.960   1.121   5.676
  203POPC   NC3 2978   9.546   2.724   3.842
  203POPC   PO4 2979  10.141   2.519   3.787
  203POPC   GL1 2980   9.901   2.441   4.186
  203POPC   GL2 2981   9.624   2.658   4.341
  203POPC   C1A 2982   9.990   2.484   4.645
  203POPC   D2A 2983   9.880   2.271   5.028
  203POPC   C3A 2984   9.932   2.512   5.399
  203POPC   C4A 2985   9.889   2.566   5.841
  203POPC   C1B 2986   9.527   2.786   4.775
  203POPC   C2B 2987   9.417   2.546   5.139
  203POPC   C3B 2988   9.466   2.651   5.550
  203POPC   C4B 2989   9.732   3.013   5.647
  204POPC   NC3 2990  11.354   5.213   4.153
  204POPC   PO4 2991  10.782   4.826   4.199
  204POPC   GL1 2992  10.833   4.889   4.542
  204POPC   GL2 2993  10.956   5.239   4.478
  204POPC   C1A 2994  10.743   4.722   4.953
  204POPC   D2A 2995  10.985   4.803   5.314
  204POPC   C3A 2996  10.882   4.968   5.675
  204POPC   C4A 2997  10.720   5.351   5.697
  204POPC   C1B 2998  11.195   5.033   4.835
  204POPC   C2B 2999  11.481   4.898   5.117
  204POPC   C3B 3000  11.415   5.046   5.504
  204POPC   C4B 3001  11.444   4.828   5.830
  205POPC   NC3 3002  10.290   3.654   3.857
  205POPC   PO4 3003  10.925   3.994   3.910
  205POPC   GL1 3004  10.653   3.677   4.249
  205POPC   GL2 3005  10.304   3.506   4.325
  205POPC   C1A 3006  10.625   3.405   4.690
  205POPC   D2A 3007  10.545   3.594   5.112
  205POPC   C3A 3008  10.512   3.319   5.469
  205POPC   C4A 3009  10.763   3.311   5.815
  205POPC   C1B 3010  10.275   3.796   4.687
  205POPC   C2B 3011  10.117   3.887   5.120
  205POPC   C3B 3012  10.229   3.747   5.548
  205POPC   C4B 3013  10.160   3.368   5.854
  206POPC   NC3 3014   3.690   1.045   3.766
  206POPC   PO4 3015   3.556   1.588   3.676
  206POPC   GL1 3016   3.415   1.380   4.290
  206POPC   GL2 3017   3.465   1.011   4.242
  206POPC   C1A 3018   3.674   1.169   4.688
  206POPC   D2A 3019   3.823   0.933   5.098
  206POPC   C3A 3020   3.712   1.108   5.542
  206POPC   C4A 3021   3.667   1.417   5.897
  206POPC   C1B 3022   3.323   0.810   4.617
  206POPC   C2B 3023   3.312   0.984   5.036
  206POPC   C3B 3024   3.207   1.150   5.434
  206POPC   C4B 3025   3.290   1.065   5.860
  207POPC   NC3 3026   5.633   9.827   3.886
  207POPC   PO4 3027   5.438   9.278   4.169
  207POPC   GL1 3028   5.643   9.531   4.475
  207POPC   GL2 3029   5.618   9.872   4.401
  207POPC   C1A 3030   5.772   9.585   4.930
  207POPC   D2A 3031   5.740   9.481   5.400
  207POPC   C3A 3032   6.131   9.552   5.706
  207POPC   C4A 3033   6.331   9.517   6.151
  207POPC   C1B 3034   5.333   9.798   4.781
  207POPC   C2B 3035   5.245   9.577   5.209
  207POPC   C3B 3036   5.334   9.666   5.682
  207POPC   C4B 3037   5.450   9.928   6.098
  208POPC   NC3 3038   0.492  11.391   3.878
  208POPC   PO4 3039   0.765  10.779   3.868
  208POPC   GL1 3040   0.676  11.049   4.213
  208POPC   GL2 3041   0.296  11.107   4.284
  208POPC   C1A 3042   0.689  11.129   4.650
  208POPC   D2A 3043   0.768  11.240   5.083
  208POPC   C3A 3044   0.895  10.908   5.353
  208POPC   C4A 3045   0.618  10.830   5.682
  208POPC   C1B 3046   0.247  10.845   4.699
  208POPC   C2B 3047   0.375  10.860   5.178
  208POPC   C3B 3048   0.298  11.191   5.520
  208POPC   C4B 3049   0.137   0.129   5.572
  209POPC   NC3 3050   3.298  10.282   3.643
  209POPC   PO4 3051   3.705   9.899   4.029
  209POPC   GL1 3052   3.658   9.821   4.413
  209POPC   GL2 3053   3.805   9.490   4.371
  209POPC   C1A 3054   3.286   9.845   4.707
  209POPC   D2A 3055   3.261   9.676   5.110
  209POPC   C3A 3056   3.459   9.781   5.497
  209POPC   C4A 3057   3.270  10.003   5.802
  209POPC   C1B 3058   3.599   9.444   4.796
  209POPC   C2B 3059   3.661   9.358   5.257
  209POPC   C3B 3060   3.548   9.320   5.708
  209POPC   C4B 3061   3.671   9.251   6.163
  210POPC   NC3 3062   0.210   8.014   3.392
  210POPC   PO4 3063   0.314   7.800   4.061
  210POPC   GL1 3064   0.254   8.009   4.387
  210POPC   GL2 3065   0.555   8.164   4.352
  210POPC   C1A 3066   0.415   7.886   4.783
  210POPC   D2A 3067   0.234   7.781   5.148
  210POPC   C3A 3068   0.342   7.985   5.543
  210POPC   C4A 3069   0.128   8.302   5.745
  210POPC   C1B 3070   0.410   8.380   4.704
  210POPC   C2B 3071   0.551   8.352   5.063
  210POPC   C3B 3072   0.486   8.496   5.424
  210POPC   C4B 3073   0.622   8.401   5.820
  211POPC   NC3 3074   7.808  10.389   3.906
  211POPC   PO4 3075   8.424  10.739   3.887
  211POPC   GL1 3076   8.200  10.553   4.251
  211POPC   GL2 3077   8.173  10.179   4.213
  211POPC   C1A 3078   8.116  10.688   4.706
  211POPC   D2A 3079   7.898  10.758   5.121
  211POPC   C3A 3080   8.158  10.628   5.483
  211POPC   C4A 3081   8.239  10.396   5.861
  211POPC   C1B 3082   8.083  10.162   4.640
  211POPC   C2B 3083   8.152  10.301   5.064
  211POPC   C3B 3084   8.003  10.125   5.466
  211POPC   C4B 3085   7.894  10.018   5.900
  212POPC   NC3 3086   1.628   5.339   4.003
  212POPC   PO4 3087   1.845   5.990   3.795
  212POPC   GL1 3088   1.772   5.974   4.227
  212POPC   GL2 3089   1.989   5.748   4.345
  212POPC   C1A 3090   1.605   5.986   4.630
  212POPC   D2A 3091   1.660   5.976   5.052
  212POPC   C3A 3092   1.914   6.040   5.389
  212POPC   C4A 3093   1.782   5.959   5.818
  212POPC   C1B 3094   1.930   5.621   4.765
  212POPC   C2B 3095   1.936   5.526   5.197
  212POPC   C3B 3096   1.993   5.509   5.641
  212POPC   C4B 3097   1.957   5.273   6.010
  213POPC   NC3 3098   5.527  11.458   3.442
  213POPC   PO4 3099   6.135   0.187   3.786
  213POPC   GL1 3100   6.107   0.097   4.235
  213POPC   GL2 3101   5.907  11.310   4.234
  213POPC   C1A 3102   5.987   0.072   4.695
  213POPC   D2A 3103   6.085  11.258   5.028
  213POPC   C3A 3104   6.082  11.438   5.413
  213POPC   C4A 3105   6.133  11.231   5.799
  213POPC   C1B 3106   5.809  11.090   4.613
  213POPC   C2B 3107   5.666  10.946   5.029
  213POPC   C3B 3108   5.729  11.091   5.424
  213POPC   C4B 3109   5.634  11.243   5.811
  214POPC   NC3 3110   0.223   4.951   3.778
  214POPC   PO4 3111   0.890   4.575   3.870
  214POPC   GL1 3112   0.671   4.744   4.282
  214POPC   GL2 3113   0.386   4.982   4.274
  214POPC   C1A 3114   0.744   4.968   4.678
  214POPC   D2A 3115   0.763   4.818   5.101
  214POPC   C3A 3116   0.398   4.690   5.367
  214POPC   C4A 3117   0.462   4.800   5.801
  214POPC   C1B 3118   0.234   5.050   4.685
  214POPC   C2B 3119   0.424   5.239   5.044
  214POPC   C3B 3120   0.409   5.203   5.485
  214POPC   C4B 3121   0.193   5.262   5.900
  215POPC   NC3 3122   5.624   0.124   3.924
  215POPC   PO4 3123   5.445   0.834   3.943
  215POPC   GL1 3124   5.668   0.677   4.304
  215POPC   GL2 3125   5.673   0.320   4.366
  215POPC   C1A 3126   5.821   0.592   4.753
  215POPC   D2A 3127   5.867   0.381   5.139
  215POPC   C3A 3128   5.794   0.640   5.523
  215POPC   C4A 3129   5.627   0.811   5.928
  215POPC   C1B 3130   5.477   0.020   4.630
  215POPC   C2B 3131   5.606  11.441   5.055
  215POPC   C3B 3132   5.601   0.109   5.466
  215POPC   C4B 3133   5.899   0.228   5.787
  216POPC   NC3 3134   2.862   7.659   4.034
  216POPC   PO4 3135   2.355   8.095   3.972
  216POPC   GL1 3136   2.621   8.033   4.319
  216POPC   GL2 3137   2.345   8.047   4.502
  216POPC   C1A 3138   2.874   7.958   4.720
  216POPC   D2A 3139   2.825   8.121   5.181
  216POPC   C3A 3140   2.957   8.045   5.630
  216POPC   C4A 3141   2.694   7.865   5.981
  216POPC   C1B 3142   2.538   8.337   4.781
  216POPC   C2B 3143   2.354   8.312   5.185
  216POPC   C3B 3144   2.485   8.228   5.597
  216POPC   C4B 3145   2.659   8.372   5.979
  217POPC   NC3 3146   1.815   6.475   3.902
  217POPC   PO4 3147   2.421   6.404   3.866
  217POPC   GL1 3148   2.217   6.203   4.217
  217POPC   GL2 3149   2.030   6.484   4.355
  217POPC   C1A 3150   2.072   6.137   4.695
  217POPC   D2A 3151   2.228   6.404   5.036
  217POPC   C3A 3152   2.130   6.551   5.458
  217POPC   C4A 3153   1.764   6.444   5.687
  217POPC   C1B 3154   1.800   6.569   4.759
  217POPC   C2B 3155   1.707   6.588   5.190
  217POPC   C3B 3156   1.757   6.920   5.508
  217POPC   C4B 3157   2.020   6.859   5.872
  218POPC   NC3 3158   0.512   3.356   3.951
  218POPC   PO4 3159   0.137   3.923   3.949
  218POPC   GL1 3160   0.403   3.757   4.297
  218POPC   GL2 3161   0.389   3.427   4.434
  218POPC   C1A 3162   0.639   3.800   4.686
  218POPC   D2A 3163   0.401   3.800   5.075
  218POPC   C3A 3164   0.520   3.671   5.487
  218POPC   C4A 3165   0.277   3.766   5.808
  218POPC   C1B 3166   0.362   3.188   4.773
  218POPC   C2B 3167   0.494   3.297   5.150
  218POPC   C3B 3168   0.286   3.191   5.483
  218POPC   C4B 3169   0.454   3.281   5.831
  219POPC   NC3 3170  10.285   7.052   4.033
  219POPC   PO4 3171  10.929   7.347   3.959
  219POPC   GL1 3172  10.814   7.124   4.288
  219POPC   GL2 3173  10.529   7.311   4.391
  219POPC   C1A 3174  10.836   7.044   4.713
  219POPC   D2A 3175  10.700   6.908   5.120
  219POPC   C3A 3176  10.649   7.134   5.497
  219POPC   C4A 3177  10.274   7.104   5.713
  219POPC   C1B 3178  10.637   7.682   4.639
  219POPC   C2B 3179  10.458   7.774   5.043
  219POPC   C3B 3180  10.309   7.491   5.332
  219POPC   C4B 3181  10.472   7.587   5.706
  220POPC   NC3 3182  10.575   4.512   3.948
  220POPC   PO4 3183  10.123   4.032   4.068
  220POPC   GL1 3184  10.240   4.370   4.329
  220POPC   GL2 3185  10.545   4.468   4.456
  220POPC   C1A 3186  10.195   4.294   4.760
  220POPC   D2A 3187  10.433   4.299   5.078
  220POPC   C3A 3188  10.188   4.270   5.441
  220POPC   C4A 3189  10.081   4.403   5.828
  220POPC   C1B 3190  10.695   4.106   4.634
  220POPC   C2B 3191  10.862   4.020   5.040
  220POPC   C3B 3192  10.813   4.297   5.398
  220POPC   C4B 3193  10.578   4.199   5.758
  221POPC   NC3 3194   5.046   8.227   3.865
  221POPC   PO4 3195   4.844   7.697   4.145
  221POPC   GL1 3196   4.898   7.929   4.508
  221POPC   GL2 3197   4.889   8.234   4.350
  221POPC   C1A 3198   4.810   8.100   4.922
  221POPC   D2A 3199   4.561   8.268   5.258
  221POPC   C3A 3200   4.559   8.015   5.618
  221POPC   C4A 3201   4.693   7.680   5.903
  221POPC   C1B 3202   5.174   8.380   4.672
  221POPC   C2B 3203   5.272   8.229   5.102
  221POPC   C3B 3204   5.039   8.171   5.498
  221POPC   C4B 3205   4.871   8.265   5.932
  222POPC   NC3 3206   1.311   4.318   3.885
  222POPC   PO4 3207   1.196   3.752   4.072
  222POPC   GL1 3208   1.064   4.029   4.395
  222POPC   GL2 3209   1.074   4.394   4.323
  222POPC   C1A 3210   1.085   3.996   4.858
  222POPC   D2A 3211   1.315   3.939   5.244
  222POPC   C3A 3212   1.268   4.192   5.663
  222POPC   C4A 3213   1.503   4.037   6.061
  222POPC   C1B 3214   1.022   4.505   4.748
  222POPC   C2B 3215   1.133   4.417   5.173
  222POPC   C3B 3216   0.870   4.529   5.507
  222POPC   C4B 3217   0.921   4.573   5.895
  223POPC   NC3 3218   2.702   8.397   3.957
  223POPC   PO4 3219   2.700   9.033   3.939
  223POPC   GL1 3220   2.786   8.787   4.306
  223POPC   GL2 3221   2.484   8.639   4.382
  223POPC   C1A 3222   2.851   8.801   4.772
  223POPC   D2A 3223   2.746   8.632   5.165
  223POPC   C3A 3224   2.800   8.662   5.587
  223POPC   C4A 3225   3.108   8.618   5.928
  223POPC   C1B 3226   2.485   9.087   4.595
  223POPC   C2B 3227   2.530   9.213   5.052
  223POPC   C3B 3228   2.643   9.156   5.508
  223POPC   C4B 3229   3.063   9.093   5.718
  224POPC   NC3 3230  10.275   0.394   3.906
  224POPC   PO4 3231  10.709   0.120   4.256
  224POPC   GL1 3232  10.331   0.282   4.435
  224POPC   GL2 3233  10.247   0.637   4.386
  224POPC   C1A 3234  10.219   0.354   4.860
  224POPC   D2A 3235  10.375   0.514   5.225
  224POPC   C3A 3236  10.438   0.226   5.564
  224POPC   C4A 3237  10.064   0.126   5.756
  224POPC   C1B 3238  10.568   0.691   4.727
  224POPC   C2B 3239  10.846   0.709   5.104
  224POPC   C3B 3240  10.679   0.764   5.533
  224POPC   C4B 3241  10.619   0.689   5.993
  225POPC   NC3 3242   2.209   3.039   4.027
  225POPC   PO4 3243   1.798   2.786   3.644
  225POPC   GL1 3244   1.772   2.634   4.129
  225POPC   GL2 3245   2.079   2.593   4.247
  225POPC   C1A 3246   1.664   2.721   4.612
  225POPC   D2A 3247   1.618   2.930   5.033
  225POPC   C3A 3248   1.763   2.697   5.413
  225POPC   C4A 3249   1.730   2.838   5.830
  225POPC   C1B 3250   2.166   2.826   4.636
  225POPC   C2B 3251   2.117   2.854   5.076
  225POPC   C3B 3252   2.332   2.784   5.444
  225POPC   C4B 3253   2.196   2.626   5.833
  226POPC   NC3 3254   6.865   7.911   3.956
  226POPC   PO4 3255   6.983   8.448   3.831
  226POPC   GL1 3256   7.077   8.460   4.297
  226POPC   GL2 3257   7.362   8.272   4.395
  226POPC   C1A 3258   7.083   8.459   4.792
  226POPC   D2A 3259   7.309   8.413   5.211
  226POPC   C3A 3260   7.114   8.310   5.613
  226POPC   C4A 3261   7.036   8.013   5.961
  226POPC   C1B 3262   7.599   8.396   4.786
  226POPC   C2B 3263   7.802   8.295   5.196
  226POPC   C3B 3264   7.616   8.204   5.596
  226POPC   C4B 3265   7.476   8.276   6.028
  227POPC   NC3 3266   1.304   0.301   4.039
  227POPC   PO4 3267   1.077   0.915   3.952
  227POPC   GL1 3268   1.097   0.725   4.372
  227POPC   GL2 3269   0.980   0.378   4.448
  227POPC   C1A 3270   1.090   0.751   4.823
  227POPC   D2A 3271   0.826   0.876   5.143
  227POPC   C3A 3272   0.998   0.688   5.518
  227POPC   C4A 3273   1.238   0.679   5.901
  227POPC   C1B 3274   1.382   0.352   4.712
  227POPC   C2B 3275   1.256   0.304   5.150
  227POPC   C3B 3276   1.414   0.280   5.554
  227POPC   C4B 3277   1.460  11.421   5.831
  228POPC   NC3 3278  10.867   7.806   3.889
  228POPC   PO4 3279  11.470   7.694   3.654
  228POPC   GL1 3280  11.365   7.538   4.161
  228POPC   GL2 3281  11.334   7.203   4.242
  228POPC   C1A 3282  11.102   7.466   4.616
  228POPC   D2A 3283  10.859   7.423   5.061
  228POPC   C3A 3284  10.993   7.578   5.496
  228POPC   C4A 3285  10.909   7.601   5.973
  228POPC   C1B 3286  11.356   7.032   4.657
  228POPC   C2B 3287  11.209   6.897   5.047
  228POPC   C3B 3288  11.156   7.078   5.454
  228POPC   C4B 3289  11.259   7.270   5.852
  229POPC   NC3 3290   4.427   2.621   3.955
  229POPC   PO4 3291   3.985   2.953   4.016
  229POPC   GL1 3292   4.029   2.677   4.403
  229POPC   GL2 3293   4.284   2.387   4.377
  229POPC   C1A 3294   3.855   2.756   4.830
  229POPC   D2A 3295   3.639   2.643   5.229
  229POPC   C3A 3296   3.845   2.642   5.645
  229POPC   C4A 3297   4.127   2.656   6.028
  229POPC   C1B 3298   4.300   2.499   4.796
  229POPC   C2B 3299   4.134   2.525   5.208
  229POPC   C3B 3300   4.322   2.437   5.595
  229POPC   C4B 3301   4.608   2.732   5.786
  230POPC   NC3 3302   4.801  10.116   3.885
  230POPC   PO4 3303   5.438  10.246   3.916
  230POPC   GL1 3304   5.392  10.333   4.303
  230POPC   GL2 3305   5.284  10.678   4.291
  230POPC   C1A 3306   5.232  10.305   4.703
  230POPC   D2A 3307   4.989  10.423   5.065
  230POPC   C3A 3308   5.083  10.123   5.378
  230POPC   C4A 3309   5.383  10.178   5.672
  230POPC   C1B 3310   4.914  10.720   4.574
  230POPC   C2B 3311   4.802  10.907   4.983
  230POPC   C3B 3312   4.757  10.766   5.385
  230POPC   C4B 3313   5.102  10.604   5.631
  231POPC   NC3 3314  10.507   2.689   4.010
  231POPC   PO4 3315  10.782   3.294   3.919
  231POPC   GL1 3316  10.811   3.028   4.293
  231POPC   GL2 3317  10.493   2.984   4.434
  231POPC   C1A 3318  10.963   2.939   4.712
  231POPC   D2A 3319  10.814   3.095   5.120
  231POPC   C3A 3320  10.813   2.873   5.526
  231POPC   C4A 3321  10.737   2.596   5.875
  231POPC   C1B 3322  10.553   2.588   4.673
  231POPC   C2B 3323  10.407   2.369   5.055
  231POPC   C3B 3324  10.431   2.509   5.478
  231POPC   C4B 3325  10.266   2.879   5.684
  232POPC   NC3 3326   7.222  10.812   4.037
  232POPC   PO4 3327   6.844  11.400   3.847
  232POPC   GL1 3328   7.020  11.243   4.278
  232POPC   GL2 3329   7.352  11.099   4.432
  232POPC   C1A 3330   6.937  11.234   4.745
  232POPC   D2A 3331   6.995  11.422   5.179
  232POPC   C3A 3332   7.034  11.182   5.582
  232POPC   C4A 3333   6.829  11.309   5.985
  232POPC   C1B 3334   7.362  10.899   4.849
  232POPC   C2B 3335   7.448  11.181   5.180
  232POPC   C3B 3336   7.527  11.357   5.567
  232POPC   C4B 3337   7.531  10.937   5.793
  233POPC   NC3 3338   1.514   3.670   3.759
  233POPC   PO4 3339   1.686   3.130   4.081
  233POPC   GL1 3340   1.636   3.527   4.280
  233POPC   GL2 3341   1.966   3.568   4.297
  233POPC   C1A 3342   1.576   3.771   4.665
  233POPC   D2A 3343   1.781   3.954   4.990
  233POPC   C3A 3344   1.775   3.783   5.377
  233POPC   C4A 3345   1.882   3.656   5.753
  233POPC   C1B 3346   1.926   3.305   4.698
  233POPC   C2B 3347   1.988   3.353   5.137
  233POPC   C3B 3348   1.990   3.167   5.537
  233POPC   C4B 3349   2.042   3.211   5.994
  234POPC   NC3 3350   8.998   1.888   3.868
  234POPC   PO4 3351   8.449   2.309   3.996
  234POPC   GL1 3352   8.826   2.177   4.246
  234POPC   GL2 3353   8.740   1.852   4.296
  234POPC   C1A 3354   9.026   2.093   4.673
  234POPC   D2A 3355   8.975   2.296   5.065
  234POPC   C3A 3356   9.012   2.013   5.395
  234POPC   C4A 3357   9.005   2.066   5.811
  234POPC   C1B 3358   8.539   2.002   4.638
  234POPC   C2B 3359   8.587   1.855   5.055
  234POPC   C3B 3360   8.331   1.921   5.411
  234POPC   C4B 3361   8.483   1.935   5.824
  235POPC   NC3 3362   9.559   0.205   3.581
  235POPC   PO4 3363   9.270   0.759   3.947
  235POPC   GL1 3364   9.436   0.464   4.247
  235POPC   GL2 3365   9.799   0.381   4.143
  235POPC   C1A 3366   9.252   0.405   4.666
  235POPC   D2A 3367   9.219   0.614   5.074
  235POPC   C3A 3368   9.315   0.305   5.337
  235POPC   C4A 3369   9.508   0.189   5.692
  235POPC   C1B 3370   9.802   0.470   4.592
  235POPC   C2B 3371   9.711   0.433   5.027
  235POPC   C3B 3372   9.854   0.500   5.456
  235POPC   C4B 3373  10.199   0.643   5.726
  236POPC   NC3 3374   8.834   0.954   4.002
  236POPC   PO4 3375   8.556   1.604   3.852
  236POPC   GL1 3376   8.639   1.368   4.210
  236POPC   GL2 3377   9.019   1.421   4.170
  236POPC   C1A 3378   8.557   1.475   4.661
  236POPC   D2A 3379   8.590   1.321   5.097
  236POPC   C3A 3380   8.714   1.581   5.479
  236POPC   C4A 3381   9.084   1.562   5.742
  236POPC   C1B 3382   9.007   1.218   4.583
  236POPC   C2B 3383   9.096   1.118   5.013
  236POPC   C3B 3384   8.962   1.140   5.431
  236POPC   C4B 3385   9.065   1.038   5.835
  237POPC   NC3 3386   0.261   7.358   3.882
  237POPC   PO4 3387   0.888   7.024   3.900
  237POPC   GL1 3388   0.655   7.133   4.325
  237POPC   GL2 3389   0.324   7.274   4.364
  237POPC   C1A 3390   0.609   7.337   4.782
  237POPC   D2A 3391   0.350   7.241   5.182
  237POPC   C3A 3392   0.461   7.246   5.663
  237POPC   C4A 3393   0.201   7.139   6.057
  237POPC   C1B 3394   0.114   7.462   4.707
  237POPC   C2B 3395  11.374   7.403   5.094
  237POPC   C3B 3396   0.030   7.519   5.525
  237POPC   C4B 3397   0.265   7.629   5.926
  238POPC   NC3 3398   5.528   1.980   3.951
  238POPC   PO4 3399   5.925   2.373   4.082
  238POPC   GL1 3400   5.830   2.022   4.360
  238POPC   GL2 3401   5.943   1.695   4.265
  238POPC   C1A 3402   5.522   1.905   4.694
  238POPC   D2A 3403   5.355   1.848   5.138
  238POPC   C3A 3404   5.599   1.961   5.508
  238POPC   C4A 3405   5.855   2.163   5.845
  238POPC   C1B 3406   6.030   1.750   4.748
  238POPC   C2B 3407   6.039   1.908   5.200
  238POPC   C3B 3408   6.290   2.057   5.562
  238POPC   C4B 3409   6.294   1.973   6.019
  239POPC   NC3 3410   0.704   6.659   4.126
  239POPC   PO4 3411   0.111   6.904   3.947
  239POPC   GL1 3412   0.227   6.760   4.316
  239POPC   GL2 3413   0.154   6.406   4.254
  239POPC   C1A 3414   0.340   6.904   4.723
  239POPC   D2A 3415   0.437   6.727   5.083
  239POPC   C3A 3416   0.354   6.779   5.508
  239POPC   C4A 3417   0.649   6.570   5.767
  239POPC   C1B 3418   0.366   6.390   4.665
  239POPC   C2B 3419   0.435   6.214   5.090
  239POPC   C3B 3420   0.317   6.270   5.505
  239POPC   C4B 3421   0.383   6.078   5.914
  240POPC   NC3 3422  10.432   9.627   3.857
  240POPC   PO4 3423  10.865   9.124   3.794
  240POPC   GL1 3424  10.514   9.247   4.167
  240POPC   GL2 3425  10.677   9.533   4.289
  240POPC   C1A 3426  10.435   9.281   4.663
  240POPC   D2A 3427  10.557   9.184   5.109
  240POPC   C3A 3428  10.372   9.440   5.408
  240POPC   C4A 3429  10.586   9.749   5.621
  240POPC   C1B 3430  10.358   9.788   4.522
  240POPC   C2B 3431  10.282   9.799   4.980
  240POPC   C3B 3432  10.155   9.915   5.435
  240POPC   C4B 3433  10.285  10.013   5.919
  241POPC   NC3 3434   4.855  11.132   3.811
  241POPC   PO4 3435   5.594  11.168   3.801
  241POPC   GL1 3436   5.390  11.194   4.223
  241POPC   GL2 3437   5.027  11.234   4.290
  241POPC   C1A 3438   5.295  11.045   4.668
  241POPC   D2A 3439   5.124  11.301   4.993
  241POPC   C3A 3440   5.198  11.112   5.396
  241POPC   C4A 3441   5.183  11.427   5.697
  241POPC   C1B 3442   4.723  11.287   4.652
  241POPC   C2B 3443   4.607  11.436   5.082
  241POPC   C3B 3444   4.542  11.323   5.507
  241POPC   C4B 3445   4.781  11.118   5.746
  242POPC   NC3 3446  11.308   5.970   3.597
  242POPC   PO4 3447  10.949   5.618   4.049
  242POPC   GL1 3448  11.130   5.721   4.413
  242POPC   GL2 3449  11.435   5.696   4.262
  242POPC   C1A 3450  11.212   5.550   4.839
  242POPC   D2A 3451  11.061   5.364   5.267
  242POPC   C3A 3452  11.049   5.710   5.592
  242POPC   C4A 3453  10.898   6.130   5.549
  242POPC   C1B 3454   0.016   6.006   4.592
  242POPC   C2B 3455  11.258   6.068   4.936
  242POPC   C3B 3456  11.372   6.050   5.364
  242POPC   C4B 3457  11.383   6.227   5.783
  243POPC   NC3 3458   8.020  11.113   3.873
  243POPC   PO4 3459   7.658  10.747   4.199
  243POPC   GL1 3460   7.933  11.040   4.375
  243POPC   GL2 3461   8.318  11.066   4.284
  243POPC   C1A 3462   7.819  11.133   4.779
  243POPC   D2A 3463   7.946  11.278   5.162
  243POPC   C3A 3464   7.958  11.081   5.558
  243POPC   C4A 3465   7.866  11.300   5.956
  243POPC   C1B 3466   8.333  11.178   4.712
  243POPC   C2B 3467   8.384  10.981   5.106
  243POPC   C3B 3468   8.467  11.190   5.462
  243POPC   C4B 3469   8.352  11.176   5.893
  244POPC   NC3 3470   2.257   8.920   3.986
  244POPC   PO4 3471   1.740   9.331   3.868
  244POPC   GL1 3472   1.662   9.194   4.301
  244POPC   GL2 3473   1.834   8.936   4.306
  244POPC   C1A 3474   1.630   9.028   4.772
  244POPC   D2A 3475   1.807   8.733   5.130
  244POPC   C3A 3476   1.637   8.713   5.588
  244POPC   C4A 3477   1.670   8.957   5.991
  244POPC   C1B 3478   2.060   8.805   4.632
  244POPC   C2B 3479   2.301   8.766   4.958
  244POPC   C3B 3480   2.287   8.794   5.397
  244POPC   C4B 3481   2.152   9.048   5.750
  245POPC   NC3 3482   4.355   0.485   3.810
  245POPC   PO4 3483   4.133  11.367   3.891
  245POPC   GL1 3484   4.217   0.194   4.239
  245POPC   GL2 3485   4.225   0.535   4.344
  245POPC   C1A 3486   4.357   0.202   4.693
  245POPC   D2A 3487   4.141   0.278   5.078
  245POPC   C3A 3488   4.373   0.298   5.440
  245POPC   C4A 3489   4.362   0.272   5.881
  245POPC   C1B 3490   4.318   0.730   4.776
  245POPC   C2B 3491   4.545   0.728   5.191
  245POPC   C3B 3492   4.519   0.738   5.659
  245POPC   C4B 3493   4.054   0.656   5.743
  246POPC   NC3 3494   8.739   9.593   3.860
  246POPC   PO4 3495   9.368   9.315   3.944
  246POPC   GL1 3496   9.127   9.487   4.332
  246POPC   GL2 3497   8.839   9.714   4.344
  246POPC   C1A 3498   8.920   9.309   4.750
  246POPC   D2A 3499   8.775   9.171   5.210
  246POPC   C3A 3500   9.064   9.344   5.565
  246POPC   C4A 3501   9.115   9.168   6.019
  246POPC   C1B 3502   9.048   9.813   4.734
  246POPC   C2B 3503   8.906   9.659   5.152
  246POPC   C3B 3504   8.873   9.858   5.556
  246POPC   C4B 3505   9.189  10.014   5.823
  247POPC   NC3 3506   2.257   0.569   3.899
  247POPC   PO4 3507   1.755   0.184   4.021
  247POPC   GL1 3508   1.981   0.265   4.345
  247POPC   GL2 3509   2.097   0.612   4.377
  247POPC   C1A 3510   1.896   0.203   4.743
  247POPC   D2A 3511   1.765   0.140   5.115
  247POPC   C3A 3512   2.146   0.077   5.398
  247POPC   C4A 3513   2.043   0.050   5.813
  247POPC   C1B 3514   1.832   0.711   4.712
  247POPC   C2B 3515   1.627   0.637   5.091
  247POPC   C3B 3516   1.856   0.509   5.441
  247POPC   C4B 3517   2.126   0.568   5.741
  248POPC   NC3 3518  10.480   6.126   3.714
  248POPC   PO4 3519  10.626   6.734   3.961
  248POPC   GL1 3520  10.546   6.686   4.338
  248POPC   GL2 3521  10.400   6.366   4.248
  248POPC   C1A 3522  10.393   6.788   4.728
  248POPC   D2A 3523  10.237   6.538   5.053
  248POPC   C3A 3524  10.328   6.696   5.422
  248POPC   C4A 3525  10.041   6.588   5.730
  248POPC   C1B 3526  10.459   6.266   4.680
  248POPC   C2B 3527  10.364   6.013   5.015
  248POPC   C3B 3528  10.345   6.172   5.438
  248POPC   C4B 3529  10.507   6.374   5.772
  249POPC   NC3 3530   0.433   1.970   3.731
  249POPC   PO4 3531   0.083   2.258   4.165
  249POPC   GL1 3532   0.250   1.934   4.324
  249POPC   GL2 3533   0.570   2.006   4.240
  249POPC   C1A 3534   0.206   1.799   4.735
  249POPC   D2A 3535   0.366   1.955   5.096
  249POPC   C3A 3536   0.183   1.864   5.450
  249POPC   C4A 3537   0.010   2.215   5.647
  249POPC   C1B 3538   0.647   2.078   4.673
  249POPC   C2B 3539   0.673   2.347   5.038
  249POPC   C3B 3540   0.500   2.318   5.475
  249POPC   C4B 3541   0.501   1.986   5.808
  250POPC   NC3 3542   0.517   8.842   3.889
  250POPC   PO4 3543  11.445   8.430   3.795
  250POPC   GL1 3544   0.228   8.536   4.200
  250POPC   GL2 3545   0.566   8.670   4.340
  250POPC   C1A 3546   0.166   8.825   4.601
  250POPC   D2A 3547   0.306   8.816   5.048
  250POPC   C3A 3548   0.192   9.138   5.383
  250POPC   C4A 3549   0.067   9.167   5.821
  250POPC   C1B 3550   0.798   8.713   4.679
  250POPC   C2B 3551   0.864   8.762   5.077
  250POPC   C3B 3552   0.683   8.981   5.379
  250POPC   C4B 3553   0.453   8.874   5.753
  251POPC   NC3 3554  11.165  11.273   3.715
  251POPC   PO4 3555  10.660   0.157   3.762
  251POPC   GL1 3556  11.167   0.099   4.101
  251POPC   GL2 3557  11.294  11.259   4.208
  251POPC   C1A 3558  11.232   0.044   4.626
  251POPC   D2A 3559  11.074  11.294   5.033
  251POPC   C3A 3560  11.199  11.370   5.487
  251POPC   C4A 3561  11.124  11.498   5.938
  251POPC   C1B 3562  11.233  11.029   4.635
  251POPC   C2B 3563  11.340  10.811   5.027
  251POPC   C3B 3564  11.378  10.854   5.456
  251POPC   C4B 3565  11.177  10.988   5.844
  252POPC   NC3 3566   4.160   1.009   4.170
  252POPC   PO4 3567   4.635   1.412   3.842
  252POPC   GL1 3568   4.642   1.238   4.236
  252POPC   GL2 3569   4.385   1.420   4.371
  252POPC   C1A 3570   4.667   1.150   4.693
  252POPC   D2A 3571   4.543   1.215   5.101
  252POPC   C3A 3572   4.620   1.408   5.470
  252POPC   C4A 3573   4.804   1.237   5.821
  252POPC   C1B 3574   4.167   1.313   4.764
  252POPC   C2B 3575   4.079   1.361   5.202
  252POPC   C3B 3576   4.212   1.123   5.528
  252POPC   C4B 3577   4.153   1.469   5.761
  253POPC   NC3 3578   5.679  10.625   3.936
  253POPC   PO4 3579   6.018  10.060   3.938
  253POPC   GL1 3580   5.907  10.294   4.341
  253POPC   GL2 3581   6.018  10.663   4.343
  253POPC   C1A 3582   5.771  10.135   4.796
  253POPC   D2A 3583   5.569   9.973   5.204
  253POPC   C3A 3584   5.825   9.955   5.562
  253POPC   C4A 3585   5.874  10.290   5.798
  253POPC   C1B 3586   5.649  10.607   4.652
  253POPC   C2B 3587   5.517  10.471   5.096
  253POPC   C3B 3588   5.596  10.615   5.504
  253POPC   C4B 3589   5.925  10.781   5.785
  254POPC   NC3 3590   1.873  10.614   3.693
  254POPC   PO4 3591   2.439  10.975   3.852
  254POPC   GL1 3592   2.362  10.877   4.307
  254POPC   GL2 3593   2.162  10.581   4.372
  254POPC   C1A 3594   2.310  10.862   4.779
  254POPC   D2A 3595   2.071  10.640   5.077
  254POPC   C3A 3596   2.036  10.827   5.459
  254POPC   C4A 3597   2.207  10.694   5.862
  254POPC   C1B 3598   2.225  10.259   4.722
  254POPC   C2B 3599   2.176  10.125   5.181
  254POPC   C3B 3600   2.014  10.334   5.526
  254POPC   C4B 3601   1.673  10.556   5.691
  255POPC   NC3 3602   9.736  11.084   3.732
  255POPC   PO4 3603   9.181  11.451   3.669
  255POPC   GL1 3604   9.492  11.452   4.070
  255POPC   GL2 3605   9.617  11.117   4.232
  255POPC   C1A 3606   9.520  11.484   4.572
  255POPC   D2A 3607   9.450  11.384   5.073
  255POPC   C3A 3608   9.660  11.254   5.518
  255POPC   C4A 3609   9.726  11.384   6.027
  255POPC   C1B 3610   9.629  10.973   4.689
  255POPC   C2B 3611   9.365  10.851   5.068
  255POPC   C3B 3612   9.235  10.906   5.493
  255POPC   C4B 3613   9.507  10.905   5.871
  256POPC   NC3 3614   9.155   4.792   4.025
  256POPC   PO4 3615   8.611   5.021   3.921
  256POPC   GL1 3616   8.733   5.183   4.356
  256POPC   GL2 3617   9.073   5.133   4.422
  256POPC   C1A 3618   8.743   5.048   4.811
  256POPC   D2A 3619   8.794   4.872   5.252
  256POPC   C3A 3620   8.744   4.926   5.706
  256POPC   C4A 3621   8.418   4.921   6.030
  256POPC   C1B 3622   9.178   5.315   4.818
  256POPC   C2B 3623   9.219   5.267   5.261
  256POPC   C3B 3624   9.150   5.240   5.680
  256POPC   C4B 3625   9.233   4.955   6.000
  257POPC   NC3 3626   2.883   3.775   4.003
  257POPC   PO4 3627   2.673   3.163   3.949
  257POPC   GL1 3628   2.652   3.385   4.300
  257POPC   GL2 3629   2.370   3.287   4.450
  257POPC   C1A 3630   2.767   3.543   4.704
  257POPC   D2A 3631   2.950   3.384   5.081
  257POPC   C3A 3632   2.870   3.540   5.499
  257POPC   C4A 3633   3.123   3.429   5.858
  257POPC   C1B 3634   2.430   3.202   4.876
  257POPC   C2B 3635   2.473   3.255   5.298
  257POPC   C3B 3636   2.365   3.496   5.654
  257POPC   C4B 3637   2.621   3.502   5.980
  258POPC   NC3 3638   4.153  10.679   4.071
  258POPC   PO4 3639   4.404  10.086   4.108
  258POPC   GL1 3640   4.095  10.195   4.436
  258POPC   GL2 3641   3.809  10.342   4.318
  258POPC   C1A 3642   4.185  10.188   4.903
  258POPC   D2A 3643   4.563  10.125   5.187
  258POPC   C3A 3644   4.646  10.296   5.604
  258POPC   C4A 3645   4.668  10.642   5.877
  258POPC   C1B 3646   3.879  10.613   4.713
  258POPC   C2B 3647   3.867  10.515   5.149
  258POPC   C3B 3648   4.111  10.303   5.436
  258POPC   C4B 3649   4.211  10.434   5.849
  259POPC   NC3 3650   5.026   0.657   3.953
  259POPC   PO4 3651   5.150   0.030   3.714
  259POPC   GL1 3652   5.171   0.215   4.169
  259POPC   GL2 3653   4.810   0.234   4.301
  259POPC   C1A 3654   5.253   0.483   4.556
  259POPC   D2A 3655   5.341   0.369   5.003
  259POPC   C3A 3656   5.298   0.517   5.458
  259POPC   C4A 3657   5.395   0.347   5.889
  259POPC   C1B 3658   4.858   0.268   4.774
  259POPC   C2B 3659   4.873   0.349   5.232
  259POPC   C3B 3660   4.852   0.327   5.690
  259POPC   C4B 3661   4.832   0.476   6.126
  260POPC   NC3 3662   1.896   7.988   3.970
  260POPC   PO4 3663   1.905   8.644   3.909
  260POPC   GL1 3664   2.030   8.411   4.299
  260POPC   GL2 3665   1.752   8.223   4.397
  260POPC   C1A 3666   2.011   8.336   4.798
  260POPC   D2A 3667   1.739   8.215   5.156
  260POPC   C3A 3668   1.986   8.349   5.519
  260POPC   C4A 3669   2.186   8.554   5.844
  260POPC   C1B 3670   1.869   7.858   4.669
  260POPC   C2B 3671   1.796   7.688   5.104
  260POPC   C3B 3672   1.775   7.839   5.535
  260POPC   C4B 3673   1.559   8.206   5.712
  261POPC   NC3 3674   8.824   2.657   4.058
  261POPC   PO4 3675   9.336   3.012   4.117
  261POPC   GL1 3676   9.120   2.853   4.474
  261POPC   GL2 3677   9.116   2.539   4.467
  261POPC   C1A 3678   9.015   2.834   4.926
  261POPC   D2A 3679   8.969   2.737   5.373
  261POPC   C3A 3680   9.182   3.034   5.675
  261POPC   C4A 3681   9.170   3.169   6.059
  261POPC   C1B 3682   8.685   2.498   4.683
  261POPC   C2B 3683   8.465   2.347   5.074
  261POPC   C3B 3684   8.625   2.357   5.512
  261POPC   C4B 3685   8.600   2.754   5.754
  262POPC   NC3 3686   3.237  10.857   3.942
  262POPC   PO4 3687   3.266   0.027   3.961
  262POPC   GL1 3688   3.170  11.372   4.342
  262POPC   GL2 3689   3.427  11.161   4.344
  262POPC   C1A 3690   3.195  11.338   4.803
  262POPC   D2A 3691   3.259  11.137   5.197
  262POPC   C3A 3692   3.239  11.357   5.575
  262POPC   C4A 3693   3.296  11.423   6.020
  262POPC   C1B 3694   3.705  11.108   4.689
  262POPC   C2B 3695   3.737  11.006   5.116
  262POPC   C3B 3696   3.663  11.050   5.534
  262POPC   C4B 3697   3.799  10.692   5.701
  263POPC   NC3 3698  11.228   2.110   3.933
  263POPC   PO4 3699   0.138   1.605   3.883
  263POPC   GL1 3700  11.287   1.715   4.271
  263POPC   GL2 3701  10.968   1.984   4.328
  263POPC   C1A 3702  11.205   1.865   4.739
  263POPC   D2A 3703  11.333   2.060   5.109
  263POPC   C3A 3704  11.175   1.853   5.475
  263POPC   C4A 3705  11.385   1.801   5.902
  263POPC   C1B 3706  10.740   2.119   4.710
  263POPC   C2B 3707  10.819   2.063   5.135
  263POPC   C3B 3708  10.706   2.089   5.547
  263POPC   C4B 3709  11.002   2.158   5.850
  264POPC   NC3 3710   4.351   1.778   3.772
  264POPC   PO4 3711   3.856   1.360   4.083
  264POPC   GL1 3712   3.924   1.652   4.444
  264POPC   GL2 3713   4.177   1.863   4.257
  264POPC   C1A 3714   3.917   1.739   4.899
  264POPC   D2A 3715   4.042   2.035   5.202
  264POPC   C3A 3716   4.178   1.942   5.581
  264POPC   C4A 3717   3.888   1.887   5.921
  264POPC   C1B 3718   4.309   1.965   4.695
  264POPC   C2B 3719   4.449   1.744   5.098
  264POPC   C3B 3720   4.739   1.896   5.453
  264POPC   C4B 3721   4.744   2.219   5.809
  265POPC   NC3 3722   1.120   6.635   3.741
  265POPC   PO4 3723   1.481   6.427   4.205
  265POPC   GL1 3724   1.314   6.410   4.557
  265POPC   GL2 3725   0.999   6.380   4.447
  265POPC   C1A 3726   1.296   6.645   4.909
  265POPC   D2A 3727   1.286   6.874   5.265
  265POPC   C3A 3728   1.310   6.659   5.638
  265POPC   C4A 3729   1.532   6.875   5.986
  265POPC   C1B 3730   0.829   6.465   4.838
  265POPC   C2B 3731   0.861   6.531   5.268
  265POPC   C3B 3732   0.836   6.192   5.503
  265POPC   C4B 3733   1.032   6.253   5.874
  266POPC   NC3 3734   1.371   6.072   3.946
  266POPC   PO4 3735   1.134   5.446   3.942
  266POPC   GL1 3736   1.315   5.669   4.283
  266POPC   GL2 3737   1.031   5.874   4.301
  266POPC   C1A 3738   1.396   5.531   4.711
  266POPC   D2A 3739   1.254   5.670   5.127
  266POPC   C3A 3740   1.529   5.656   5.453
  266POPC   C4A 3741   1.511   5.481   5.823
  266POPC   C1B 3742   1.119   5.968   4.726
  266POPC   C2B 3743   1.205   6.193   5.098
  266POPC   C3B 3744   1.352   6.121   5.503
  266POPC   C4B 3745   1.064   5.756   5.638
  267POPC   NC3 3746   7.246   2.200   3.919
  267POPC   PO4 3747   7.080   1.588   3.618
  267POPC   GL1 3748   7.222   1.720   4.063
  267POPC   GL2 3749   7.579   1.845   4.160
  267POPC   C1A 3750   7.151   1.922   4.515
  267POPC   D2A 3751   7.175   1.983   4.998
  267POPC   C3A 3752   6.870   1.936   5.337
  267POPC   C4A 3753   7.029   1.761   5.722
  267POPC   C1B 3754   7.653   1.935   4.624
  267POPC   C2B 3755   7.656   1.803   5.066
  267POPC   C3B 3756   7.448   1.949   5.447
  267POPC   C4B 3757   7.154   2.252   5.602
  268POPC   NC3 3758  10.306   8.258   3.642
  268POPC   PO4 3759  10.056   7.724   3.880
  268POPC   GL1 3760  10.369   7.837   4.219
  268POPC   GL2 3761  10.431   8.207   4.289
  268POPC   C1A 3762  10.172   7.899   4.653
  268POPC   D2A 3763   9.947   8.096   4.988
  268POPC   C3A 3764  10.096   7.966   5.381
  268POPC   C4A 3765  10.131   7.946   5.785
  268POPC   C1B 3766  10.412   8.334   4.744
  268POPC   C2B 3767  10.309   8.380   5.184
  268POPC   C3B 3768  10.537   8.209   5.560
  268POPC   C4B 3769  10.602   8.403   5.966
  269POPC   NC3 3770   2.844   9.483   3.892
  269POPC   PO4 3771   2.240   9.809   3.890
  269POPC   GL1 3772   2.563   9.733   4.236
  269POPC   GL2 3773   2.904   9.660   4.377
  269POPC   C1A 3774   2.499   9.593   4.679
  269POPC   D2A 3775   2.745   9.687   5.063
  269POPC   C3A 3776   2.489   9.766   5.406
  269POPC   C4A 3777   2.343   9.516   5.721
  269POPC   C1B 3778   2.963   9.341   4.730
  269POPC   C2B 3779   3.031   9.238   5.184
  269POPC   C3B 3780   2.982   9.561   5.527
  269POPC   C4B 3781   2.779   9.798   5.834
  270POPC   NC3 3782   3.867  11.008   3.721
  270POPC   PO4 3783   4.543  10.770   3.822
  270POPC   GL1 3784   4.573  10.948   4.243
  270POPC   GL2 3785   4.524  11.288   4.196
  270POPC   C1A 3786   4.406  10.834   4.670
  270POPC   D2A 3787   4.368  10.629   5.069
  270POPC   C3A 3788   4.194  10.863   5.396
  270POPC   C4A 3789   4.264  10.946   5.819
  270POPC   C1B 3790   4.183  11.258   4.526
  270POPC   C2B 3791   4.163  11.230   4.975
  270POPC   C3B 3792   4.047  11.369   5.396
  270POPC   C4B 3793   3.954  11.351   5.848
  271POPC   NC3 3794   2.822   6.616   3.886
  271POPC   PO4 3795   2.864   7.206   4.034
  271POPC   GL1 3796   2.832   6.833   4.373
  271POPC   GL2 3797   2.552   6.604   4.321
  271POPC   C1A 3798   2.904   6.598   4.813
  271POPC   D2A 3799   3.025   6.412   5.257
  271POPC   C3A 3800   2.848   6.607   5.642
  271POPC   C4A 3801   2.464   6.601   5.901
  271POPC   C1B 3802   2.543   6.291   4.606
  271POPC   C2B 3803   2.674   6.165   5.000
  271POPC   C3B 3804   2.542   6.258   5.422
  271POPC   C4B 3805   2.246   6.170   5.752
  272POPC   NC3 3806   6.929   3.093   4.091
  272POPC   PO4 3807   6.800   2.416   3.970
  272POPC   GL1 3808   7.077   2.560   4.332
  272POPC   GL2 3809   7.451   2.478   4.300
  272POPC   C1A 3810   7.075   2.781   4.770
  272POPC   D2A 3811   7.278   2.853   5.199
  272POPC   C3A 3812   7.112   2.777   5.644
  272POPC   C4A 3813   7.164   2.959   6.093
  272POPC   C1B 3814   7.388   2.367   4.726
  272POPC   C2B 3815   7.466   2.373   5.163
  272POPC   C3B 3816   7.589   2.490   5.571
  272POPC   C4B 3817   7.762   2.404   5.975
  273POPC   NC3 3818   1.943   9.758   3.545
  273POPC   PO4 3819   1.962  10.189   4.117
  273POPC   GL1 3820   2.107   9.823   4.411
  273POPC   GL2 3821   2.137   9.435   4.227
  273POPC   C1A 3822   2.026   9.786   4.816
  273POPC   D2A 3823   1.741   9.819   5.095
  273POPC   C3A 3824   1.943   9.670   5.401
  273POPC   C4A 3825   2.026   9.884   5.735
  273POPC   C1B 3826   2.035   9.318   4.635
  273POPC   C2B 3827   2.012   9.218   5.070
  273POPC   C3B 3828   1.768   9.186   5.439
  273POPC   C4B 3829   1.802   9.425   5.833
  274POPC   NC3 3830   7.263   8.823   3.861
  274POPC   PO4 3831   7.065   9.403   4.116
  274POPC   GL1 3832   7.315   9.133   4.428
  274POPC   GL2 3833   7.477   8.812   4.320
  274POPC   C1A 3834   7.310   8.994   4.881
  274POPC   D2A 3835   7.374   8.904   5.318
  274POPC   C3A 3836   7.116   9.085   5.690
  274POPC   C4A 3837   6.823   9.064   6.089
  274POPC   C1B 3838   7.736   8.854   4.652
  274POPC   C2B 3839   7.824   8.783   5.055
  274POPC   C3B 3840   7.829   8.755   5.478
  274POPC   C4B 3841   7.497   8.691   5.757
  275POPC   NC3 3842   2.787   1.267   3.724
  275POPC   PO4 3843   2.637   1.809   3.974
  275POPC   GL1 3844   2.736   1.515   4.292
  275POPC   GL2 3845   2.904   1.214   4.232
  275POPC   C1A 3846   2.550   1.419   4.701
  275POPC   D2A 3847   2.339   1.318   5.078
  275POPC   C3A 3848   2.291   1.535   5.440
  275POPC   C4A 3849   2.361   1.410   5.821
  275POPC   C1B 3850   3.033   1.230   4.664
  275POPC   C2B 3851   2.814   1.120   5.060
  275POPC   C3B 3852   2.698   1.199   5.500
  275POPC   C4B 3853   2.785   1.166   5.970
  276POPC   NC3 3854   3.760   2.553   3.996
  276POPC   PO4 3855   3.186   2.464   3.667
  276POPC   GL1 3856   3.105   2.565   4.192
  276POPC   GL2 3857   3.445   2.564   4.433
  276POPC   C1A 3858   3.002   2.500   4.678
  276POPC   D2A 3859   3.193   2.434   5.136
  276POPC   C3A 3860   3.234   2.646   5.567
  276POPC   C4A 3861   3.469   2.698   5.983
  276POPC   C1B 3862   3.350   2.841   4.824
  276POPC   C2B 3863   3.389   3.104   5.212
  276POPC   C3B 3864   3.487   3.092   5.662
  276POPC   C4B 3865   3.867   3.087   5.946
  277POPC   NC3 3866   8.969  11.031   3.573
  277POPC   PO4 3867   9.228  10.755   4.173
  277POPC   GL1 3868   8.874  11.007   4.316
  277POPC   GL2 3869   9.072  11.301   4.303
  277POPC   C1A 3870   8.708  10.840   4.717
  277POPC   D2A 3871   8.857  10.667   5.114
  277POPC   C3A 3872   8.697  10.745   5.528
  277POPC   C4A 3873   8.835  11.062   5.782
  277POPC   C1B 3874   9.131  11.146   4.731
  277POPC   C2B 3875   8.919  11.183   5.138
  277POPC   C3B 3876   9.064  11.402   5.489
  277POPC   C4B 3877   9.020   0.251   5.787
  278POPC   NC3 3878   6.328   2.576   4.021
  278POPC   PO4 3879   6.498   3.192   4.113
  278POPC   GL1 3880   6.616   2.802   4.414
  278POPC   GL2 3881   6.570   2.419   4.434
  278POPC   C1A 3882   6.576   2.708   4.880
  278POPC   D2A 3883   6.761   2.897   5.251
  278POPC   C3A 3884   6.565   2.925   5.662
  278POPC   C4A 3885   6.666   3.130   6.054
  278POPC   C1B 3886   6.871   2.307   4.741
  278POPC   C2B 3887   6.958   2.434   5.161
  278POPC   C3B 3888   6.700   2.455   5.531
  278POPC   C4B 3889   6.341   2.472   5.844
  279POPC   NC3 3890   0.423   2.804   3.746
  279POPC   PO4 3891   0.130   3.086   4.189
  279POPC   GL1 3892   0.516   2.892   4.328
  279POPC   GL2 3893   0.483   2.504   4.380
  279POPC   C1A 3894   0.659   2.781   4.754
  279POPC   D2A 3895   0.475   2.800   5.145
  279POPC   C3A 3896   0.739   2.949   5.455
  279POPC   C4A 3897   0.691   2.787   5.831
  279POPC   C1B 3898   0.227   2.366   4.780
  279POPC   C2B 3899   0.084   2.482   5.190
  279POPC   C3B 3900   0.173   2.706   5.563
  279POPC   C4B 3901   0.255   2.533   5.962
  280POPC   NC3 3902  11.123   3.605   3.792
  280POPC   PO4 3903   0.035   3.122   3.664
  280POPC   GL1 3904  11.456   3.513   4.128
  280POPC   GL2 3905  11.133   3.466   4.281
  280POPC   C1A 3906  11.495   3.625   4.629
  280POPC   D2A 3907   0.003   3.389   5.047
  280POPC   C3A 3908   0.014   3.602   5.409
  280POPC   C4A 3909  11.350   3.511   5.824
  280POPC   C1B 3910  11.006   3.698   4.610
  280POPC   C2B 3911  11.037   3.534   4.988
  280POPC   C3B 3912  11.011   3.499   5.399
  280POPC   C4B 3913  10.756   3.780   5.566
  281POPC   NC3 3914   3.354  10.174   4.144
  281POPC   PO4 3915   3.689  10.785   4.097
  281POPC   GL1 3916   3.353  10.648   4.381
  281POPC   GL2 3917   3.369  10.368   4.602
  281POPC   C1A 3918   3.267  10.838   4.758
  281POPC   D2A 3919   3.357  10.613   5.104
  281POPC   C3A 3920   3.268  10.711   5.519
  281POPC   C4A 3921   3.353  10.522   5.934
  281POPC   C1B 3922   3.686  10.150   4.787
  281POPC   C2B 3923   3.511  10.129   5.129
  281POPC   C3B 3924   3.552  10.293   5.490
  281POPC   C4B 3925   3.775  10.183   5.813
  282POPC   NC3 3926   3.730   0.084   4.040
  282POPC   PO4 3927   3.945   0.691   3.902
  282POPC   GL1 3928   3.725   0.561   4.274
  282POPC   GL2 3929   3.396   0.457   4.228
  282POPC   C1A 3930   3.833   0.320   4.662
  282POPC   D2A 3931   3.684   0.015   5.000
  282POPC   C3A 3932   3.626   0.162   5.433
  282POPC   C4A 3933   3.698   0.288   5.862
  282POPC   C1B 3934   3.314   0.308   4.659
  282POPC   C2B 3935   3.492   0.506   5.048
  282POPC   C3B 3936   3.423   0.654   5.491
  282POPC   C4B 3937   3.193   0.360   5.765
  283POPC   NC3 3938   4.135   9.690   4.018
  283POPC   PO4 3939   4.823   9.613   3.841
  283POPC   GL1 3940   4.589   9.535   4.294
  283POPC   GL2 3941   4.315   9.734   4.463
  283POPC   C1A 3942   4.514   9.479   4.812
  283POPC   D2A 3943   4.725   9.478   5.225
  283POPC   C3A 3944   4.523   9.489   5.659
  283POPC   C4A 3945   4.597   9.670   6.102
  283POPC   C1B 3946   4.024   9.725   4.770
  283POPC   C2B 3947   3.884   9.809   5.164
  283POPC   C3B 3948   3.970   9.750   5.581
  283POPC   C4B 3949   4.299   9.941   5.783
  284POPC   NC3 3950  10.368  10.282   3.823
  284POPC   PO4 3951  10.070  10.857   3.958
  284POPC   GL1 3952  10.424  10.686   4.214
  284POPC   GL2 3953  10.536  10.350   4.319
  284POPC   C1A 3954  10.354  10.695   4.663
  284POPC   D2A 3955  10.430  10.509   5.050
  284POPC   C3A 3956  10.382  10.786   5.343
  284POPC   C4A 3957  10.444  10.777   5.740
  284POPC   C1B 3958  10.627  10.183   4.736
  284POPC   C2B 3959  10.670  10.066   5.174
  284POPC   C3B 3960  10.524  10.280   5.523
  284POPC   C4B 3961  10.802  10.228   5.818
  285POPC   NC3 3962   0.912   5.024   3.950
  285POPC   PO4 3963   0.337   5.402   3.961
  285POPC   GL1 3964   0.713   5.382   4.323
  285POPC   GL2 3965   1.076   5.214   4.391
  285POPC   C1A 3966   0.855   5.491   4.744
  285POPC   D2A 3967   1.108   5.201   4.986
  285POPC   C3A 3968   1.193   5.236   5.434
  285POPC   C4A 3969   0.882   5.074   5.695
  285POPC   C1B 3970   1.328   4.898   4.629
  285POPC   C2B 3971   1.422   4.813   5.091
  285POPC   C3B 3972   1.345   4.731   5.546
  285POPC   C4B 3973   1.536   4.977   5.859
  286POPC   NC3 3974   7.204   9.814   3.982
  286POPC   PO4 3975   7.914   9.879   3.885
  286POPC   GL1 3976   7.681   9.980   4.316
  286POPC   GL2 3977   7.460   9.685   4.395
  286POPC   C1A 3978   7.677   9.879   4.807
  286POPC   D2A 3979   7.348   9.900   5.142
  286POPC   C3A 3980   7.498  10.009   5.564
  286POPC   C4A 3981   7.496   9.714   5.876
  286POPC   C1B 3982   7.298   9.510   4.808
  286POPC   C2B 3983   7.309   9.406   5.267
  286POPC   C3B 3984   7.087   9.619   5.573
  286POPC   C4B 3985   6.696   9.502   5.781
  287POPC   NC3 3986   7.406   0.272   3.846
  287POPC   PO4 3987   7.673   0.907   3.853
  287POPC   GL1 3988   7.734   0.707   4.258
  287POPC   GL2 3989   7.452   0.527   4.279
  287POPC   C1A 3990   7.780   0.530   4.722
  287POPC   D2A 3991   7.799   0.318   5.198
  287POPC   C3A 3992   7.676   0.620   5.569
  287POPC   C4A 3993   7.718   0.699   6.071
  287POPC   C1B 3994   7.245   0.603   4.638
  287POPC   C2B 3995   7.371   0.558   5.051
  287POPC   C3B 3996   7.274   0.338   5.414
  287POPC   C4B 3997   7.081   0.657   5.671
  288POPC   NC3 3998   5.016   9.217   4.001
  288POPC   PO4 3999   4.833   8.612   3.742
  288POPC   GL1 4000   4.708   8.696   4.207
  288POPC   GL2 4001   4.725   9.023   4.357
  288POPC   C1A 4002   4.660   8.532   4.673
  288POPC   D2A 4003   4.914   8.586   5.077
  288POPC   C3A 4004   4.864   8.655   5.535
  288POPC   C4A 4005   5.002   8.758   5.985
  288POPC   C1B 4006   5.021   8.903   4.690
  288POPC   C2B 4007   5.037   9.068   5.140
  288POPC   C3B 4008   4.975   9.178   5.576
  288POPC   C4B 4009   5.310   9.166   5.884
  289POPC   NC3 4010   5.066   1.247   3.923
  289POPC   PO4 4011   4.599   0.749   4.087
  289POPC   GL1 4012   4.814   0.732   4.437
  289POPC   GL2 4013   5.063   0.966   4.365
  289POPC   C1A 4014   4.963   0.764   4.854
  289POPC   D2A 4015   5.042   1.068   5.089
  289POPC   C3A 4016   4.962   0.931   5.450
  289POPC   C4A 4017   5.096   0.794   5.835
  289POPC   C1B 4018   5.121   1.356   4.639
  289POPC   C2B 4019   4.945   1.554   5.038
  289POPC   C3B 4020   5.124   1.465   5.459
  289POPC   C4B 4021   5.444   1.529   5.767
  290POPC   NC3 4022   4.443   7.498   4.191
  290POPC   PO4 4023   3.846   7.675   4.097
  290POPC   GL1 4024   4.015   7.460   4.491
  290POPC   GL2 4025   4.190   7.126   4.463
  290POPC   C1A 4026   4.095   7.481   4.948
  290POPC   D2A 4027   4.262   7.791   5.253
  290POPC   C3A 4028   4.211   7.651   5.678
  290POPC   C4A 4029   3.919   7.332   5.790
  290POPC   C1B 4030   4.434   7.101   4.853
  290POPC   C2B 4031   4.552   7.340   5.214
  290POPC   C3B 4032   4.483   7.213   5.639
  290POPC   C4B 4033   4.211   6.906   5.844
  291POPC   NC3 4034   0.375   0.549   3.865
  291POPC   PO4 4035   0.068  11.488   3.761
  291POPC   GL1 4036   0.198   0.140   4.231
  291POPC   GL2 4037   0.350   0.477   4.356
  291POPC   C1A 4038   0.538   0.105   4.611
  291POPC   D2A 4039   0.770   0.279   4.986
  291POPC   C3A 4040   0.681   0.143   5.423
  291POPC   C4A 4041   0.954   0.215   5.773
  291POPC   C1B 4042   0.579   0.655   4.700
  291POPC   C2B 4043   0.362   0.647   5.122
  291POPC   C3B 4044   0.439   0.578   5.587
  291POPC   C4B 4045   0.361   0.634   6.030
  292POPC   NC3 4046  10.362   2.272   3.458
  292POPC   PO4 4047  10.182   1.704   3.856
  292POPC   GL1 4048  10.192   2.003   4.206
  292POPC   GL2 4049  10.491   2.202   4.262
  292POPC   C1A 4050  10.189   2.020   4.665
  292POPC   D2A 4051  10.342   1.865   5.042
  292POPC   C3A 4052  10.105   1.994   5.390
  292POPC   C4A 4053  10.166   2.168   5.765
  292POPC   C1B 4054  10.545   1.726   4.455
  292POPC   C2B 4055  10.750   1.630   4.866
  292POPC   C3B 4056  10.693   1.591   5.341
  292POPC   C4B 4057  10.405   1.708   5.713
  293POPC   NC3 4058   1.354   1.707   4.017
  293POPC   PO4 4059   1.484   2.243   3.714
  293POPC   GL1 4060   1.400   2.273   4.184
  293POPC   GL2 4061   1.076   2.124   4.217
  293POPC   C1A 4062   1.499   2.228   4.666
  293POPC   D2A 4063   1.678   2.252   5.128
  293POPC   C3A 4064   1.400   2.062   5.477
  293POPC   C4A 4065   1.317   2.048   5.936
  293POPC   C1B 4066   1.112   1.883   4.622
  293POPC   C2B 4067   1.084   2.045   5.038
  293POPC   C3B 4068   0.871   1.950   5.416
  293POPC   C4B 4069   1.024   1.682   5.745
  294POPC   NC3 4070   0.436  10.494   3.730
  294POPC   PO4 4071   0.789  10.150   4.071
  294POPC   GL1 4072   0.695  10.530   4.304
  294POPC   GL2 4073   0.366  10.602   4.239
  294POPC   C1A 4074   0.722  10.633   4.733
  294POPC   D2A 4075   0.732  10.276   4.989
  294POPC   C3A 4076   0.708  10.417   5.372
  294POPC   C4A 4077   0.650  10.348   5.777
  294POPC   C1B 4078   0.333  10.325   4.628
  294POPC   C2B 4079   0.169  10.404   5.058
  294POPC   C3B 4080   0.211  10.438   5.521
  294POPC   C4B 4081   0.196  10.291   5.977
  295POPC   NC3 4082   2.918   2.841   3.731
  295POPC   PO4 4083   2.395   2.462   3.857
  295POPC   GL1 4084   2.582   2.553   4.215
  295POPC   GL2 4085   2.629   2.853   4.343
  295POPC   C1A 4086   2.498   2.439   4.601
  295POPC   D2A 4087   2.562   2.662   4.943
  295POPC   C3A 4088   2.700   2.430   5.300
  295POPC   C4A 4089   2.706   2.578   5.724
  295POPC   C1B 4090   2.864   3.002   4.702
  295POPC   C2B 4091   2.941   2.886   5.158
  295POPC   C3B 4092   2.884   3.035   5.566
  295POPC   C4B 4093   3.013   2.951   5.986
  296POPC   NC3 4094   1.210  10.953   3.968
  296POPC   PO4 4095   0.868   0.111   4.004
  296POPC   GL1 4096   1.100  11.377   4.314
  296POPC   GL2 4097   1.158  11.035   4.460
  296POPC   C1A 4098   1.101  11.439   4.755
  296POPC   D2A 4099   1.355  11.286   5.086
  296POPC   C3A 4100   1.129  11.371   5.436
  296POPC   C4A 4101   0.985  11.186   5.815
  296POPC   C1B 4102   1.472  10.832   4.742
  296POPC   C2B 4103   1.575  10.819   5.194
  296POPC   C3B 4104   1.381  10.951   5.559
  296POPC   C4B 4105   1.408  10.901   5.991
  297POPC   NC3 4106   9.942   8.117   4.105
  297POPC   PO4 4107   9.329   7.866   3.882
  297POPC   GL1 4108   9.529   7.858   4.274
  297POPC   GL2 4109   9.458   8.217   4.296
  297POPC   C1A 4110   9.667   7.784   4.709
  297POPC   D2A 4111   9.849   7.600   5.125
  297POPC   C3A 4112   9.613   7.796   5.474
  297POPC   C4A 4113   9.705   8.181   5.660
  297POPC   C1B 4114   9.478   8.334   4.735
  297POPC   C2B 4115   9.473   8.179   5.169
  297POPC   C3B 4116   9.231   8.296   5.547
  297POPC   C4B 4117   9.066   8.198   5.968
  298POPC   NC3 4118   6.395  11.323   3.912
  298POPC   PO4 4119   6.481  10.720   3.915
  298POPC   GL1 4120   6.544  10.968   4.296
  298POPC   GL2 4121   6.533  11.325   4.388
  298POPC   C1A 4122   6.405  10.966   4.723
  298POPC   D2A 4123   6.588  11.070   5.107
  298POPC   C3A 4124   6.349  10.918   5.443
  298POPC   C4A 4125   6.507  10.911   5.868
  298POPC   C1B 4126   6.473  11.477   4.776
  298POPC   C2B 4127   6.507   0.059   5.168
  298POPC   C3B 4128   6.557  11.366   5.557
  298POPC   C4B 4129   6.409   0.130   5.903
  299POPC   NC3 4130  11.088   6.895   3.907
  299POPC   PO4 4131  10.943   6.207   3.750
  299POPC   GL1 4132  10.994   6.473   4.206
  299POPC   GL2 4133  11.213   6.693   4.330
  299POPC   C1A 4134  10.886   6.536   4.697
  299POPC   D2A 4135  10.736   6.393   5.129
  299POPC   C3A 4136  10.863   6.638   5.527
  299POPC   C4A 4137  10.965   6.476   5.968
  299POPC   C1B 4138  11.388   6.519   4.677
  299POPC   C2B 4139   0.008   6.478   5.077
  299POPC   C3B 4140  11.366   6.590   5.441
  299POPC   C4B 4141  11.359   6.775   5.829
  300POPC   NC3 4142  11.489   1.147   3.846
  300POPC   PO4 4143  10.826   1.021   3.874
  300POPC   GL1 4144  11.084   0.939   4.240
  300POPC   GL2 4145  11.376   1.159   4.326
  300POPC   C1A 4146  11.079   0.944   4.694
  300POPC   D2A 4147  11.003   1.241   5.045
  300POPC   C3A 4148  11.001   1.163   5.484
  300POPC   C4A 4149  11.080   0.885   5.830
  300POPC   C1B 4150  11.393   1.378   4.708
  300POPC   C2B 4151  11.426   1.546   5.125
  300POPC   C3B 4152  11.465   1.399   5.555
  300POPC   C4B 4153  11.291   1.317   5.988
  301POPC   NC3 4154  10.775   5.198   3.943
  301POPC   PO4 4155  10.243   4.827   3.795
  301POPC   GL1 4156  10.270   4.885   4.253
  301POPC   GL2 4157  10.441   5.182   4.391
  301POPC   C1A 4158  10.288   4.814   4.722
  301POPC   D2A 4159  10.156   4.717   5.156
  301POPC   C3A 4160  10.427   4.717   5.545
  301POPC   C4A 4161  10.231   4.886   5.937
  301POPC   C1B 4162  10.601   5.221   4.838
  301POPC   C2B 4163  10.561   5.131   5.253
  301POPC   C3B 4164  10.243   5.236   5.547
  301POPC   C4B 4165  10.279   5.399   5.951
  302POPC   NC3 4166   9.660   1.061   3.905
  302POPC   PO4 4167   9.402   1.650   3.868
  302POPC   GL1 4168   9.554   1.421   4.265
  302POPC   GL2 4169   9.442   1.051   4.359
  302POPC   C1A 4170   9.521   1.398   4.727
  302POPC   D2A 4171   9.717   1.234   5.094
  302POPC   C3A 4172   9.484   1.198   5.501
  302POPC   C4A 4173   9.488   1.326   5.946
  302POPC   C1B 4174   9.870   1.013   4.574
  302POPC   C2B 4175  10.081   0.858   4.956
  302POPC   C3B 4176  10.035   0.985   5.403
  302POPC   C4B 4177   9.804   0.946   5.823
  303POPC   NC3 4178   9.627  10.667   3.969
  303POPC   PO4 4179   9.939  10.123   3.795
  303POPC   GL1 4180  10.023  10.317   4.223
  303POPC   GL2 4181   9.909  10.641   4.398
  303POPC   C1A 4182  10.114  10.256   4.666
  303POPC   D2A 4183   9.927  10.549   4.981
  303POPC   C3A 4184  10.033  10.402   5.385
  303POPC   C4A 4185   9.988  10.531   5.800
  303POPC   C1B 4186   9.592  10.367   4.638
  303POPC   C2B 4187   9.428  10.346   5.089
  303POPC   C3B 4188   9.554  10.492   5.510
  303POPC   C4B 4189   9.506  10.391   5.951
  304POPC   NC3 4190   6.620   1.679   3.689
  304POPC   PO4 4191   6.317   1.166   3.875
  304POPC   GL1 4192   6.544   1.042   4.328
  304POPC   GL2 4193   6.875   0.804   4.330
  304POPC   C1A 4194   6.551   1.220   4.802
  304POPC   D2A 4195   6.714   1.462   5.197
  304POPC   C3A 4196   6.544   1.618   5.638
  304POPC   C4A 4197   6.704   1.631   6.091
  304POPC   C1B 4198   6.757   0.757   4.744
  304POPC   C2B 4199   6.800   0.914   5.174
  304POPC   C3B 4200   6.621   0.843   5.552
  304POPC   C4B 4201   6.469   1.150   5.825
  305POPC   NC3 4202  10.886   0.505   4.007
  305POPC   PO4 4203   0.007   0.716   4.064
  305POPC   GL1 4204  11.326   0.503   4.415
  305POPC   GL2 4205  10.968   0.475   4.509
  305POPC   C1A 4206  11.318   0.519   4.878
  305POPC   D2A 4207  11.362   0.893   5.120
  305POPC   C3A 4208  11.461   0.838   5.501
  305POPC   C4A 4209  11.432   0.534   5.791
  305POPC   C1B 4210  10.745   0.231   4.864
  305POPC   C2B 4211  10.832   0.187   5.240
  305POPC   C3B 4212  11.164   0.392   5.383
  305POPC   C4B 4213  10.936   0.394   5.724
  306POPC   NC3 4214   0.798   9.712   3.934
  306POPC   PO4 4215   0.342   9.266   3.934
  306POPC   GL1 4216   0.634   9.187   4.308
  306POPC   GL2 4217   0.830   9.504   4.430
  306POPC   C1A 4218   0.606   9.166   4.783
  306POPC   D2A 4219   0.517   9.450   5.122
  306POPC   C3A 4220   0.629   9.472   5.555
  306POPC   C4A 4221   0.378   9.533   5.920
  306POPC   C1B 4222   0.623   9.818   4.744
  306POPC   C2B 4223   0.382   9.942   5.151
  306POPC   C3B 4224   0.442   9.942   5.598
  306POPC   C4B 4225   0.674   9.914   6.019
  307POPC   NC3 4226  10.782   6.033   4.153
  307POPC   PO4 4227  10.179   5.820   3.895
  307POPC   GL1 4228  10.451   5.667   4.243
  307POPC   GL2 4229  10.289   5.880   4.424
  307POPC   C1A 4230  10.693   5.694   4.683
  307POPC   D2A 4231  10.840   5.823   5.094
  307POPC   C3A 4232  10.561   5.710   5.393
  307POPC   C4A 4233  10.544   5.858   5.810
  307POPC   C1B 4234  10.201   5.549   4.725
  307POPC   C2B 4235  10.106   5.582   5.171
  307POPC   C3B 4236  10.077   5.760   5.604
  307POPC   C4B 4237  10.092   6.123   5.945
  308POPC   NC3 4238  10.548  11.252   3.990
  308POPC   PO4 4239   9.911   0.009   3.784
  308POPC   GL1 4240  10.041  11.413   4.224
  308POPC   GL2 4241  10.233  11.130   4.370
  308POPC   C1A 4242  10.004  11.416   4.716
  308POPC   D2A 4243   9.994   0.034   5.188
  308POPC   C3A 4244  10.187  11.243   5.450
  308POPC   C4A 4245  10.043  11.061   5.822
  308POPC   C1B 4246  10.611  11.133   4.669
  308POPC   C2B 4247  10.555  11.271   5.078
  308POPC   C3B 4248  10.719  11.184   5.472
  308POPC   C4B 4249  10.527  11.289   5.833
  309POPC   NC3 4250   0.604   4.047   3.932
  309POPC   PO4 4251   0.231   4.574   4.027
  309POPC   GL1 4252   0.264   4.270   4.310
  309POPC   GL2 4253   0.592   4.250   4.388
  309POPC   C1A 4254   0.226   4.098   4.699
  309POPC   D2A 4255   0.165   4.332   5.059
  309POPC   C3A 4256   0.244   4.135   5.434
  309POPC   C4A 4257   0.217   4.370   5.794
  309POPC   C1B 4258   0.500   4.524   4.722
  309POPC   C2B 4259   0.659   4.287   5.060
  309POPC   C3B 4260   0.825   4.044   5.370
  309POPC   C4B 4261   0.660   4.110   5.780
  310POPC   NC3 4262   9.931   4.557   3.622
  310POPC   PO4 4263   9.368   4.365   3.940
  310POPC   GL1 4264   9.738   4.463   4.218
  310POPC   GL2 4265   9.789   4.173   4.429
  310POPC   C1A 4266   9.800   4.595   4.693
  310POPC   D2A 4267   9.801   4.315   5.094
  310POPC   C3A 4268   9.696   4.502   5.505
  310POPC   C4A 4269   9.712   4.746   5.929
  310POPC   C1B 4270   9.450   4.204   4.728
  310POPC   C2B 4271   9.235   4.260   5.143
  310POPC   C3B 4272   9.264   4.128   5.568
  310POPC   C4B 4273   9.403   4.343   5.904
  311POPC   NC3 4274   6.352  10.322   4.085
  311POPC   PO4 4275   6.972  10.216   3.886
  311POPC   GL1 4276   6.823  10.525   4.266
  311POPC   GL2 4277   6.494  10.496   4.521
  311POPC   C1A 4278   6.876  10.725   4.722
  311POPC   D2A 4279   6.659  10.572   5.129
  311POPC   C3A 4280   6.826  10.659   5.571
  311POPC   C4A 4281   6.766  10.433   6.007
  311POPC   C1B 4282   6.136  10.536   4.843
  311POPC   C2B 4283   6.061  10.505   5.305
  311POPC   C3B 4284   6.342  10.452   5.680
  311POPC   C4B 4285   6.275  10.373   6.121
  312POPC   NC3 4286   8.141   0.608   3.956
  312POPC   PO4 4287   7.816   0.032   3.868
  312POPC   GL1 4288   7.936   0.209   4.285
  312POPC   GL2 4289   8.307   0.255   4.294
  312POPC   C1A 4290   8.042   0.095   4.740
  312POPC   D2A 4291   8.358   0.039   5.091
  312POPC   C3A 4292   8.136   0.061   5.535
  312POPC   C4A 4293   7.953   0.303   5.847
  312POPC   C1B 4294   8.456   0.380   4.712
  312POPC   C2B 4295   8.229   0.528   5.021
  312POPC   C3B 4296   8.243   0.548   5.454
  312POPC   C4B 4297   8.118   0.810   5.771
  313POPC   NC3 4298   8.225   1.249   3.876
  313POPC   PO4 4299   8.449   0.797   4.248
  313POPC   GL1 4300   8.128   1.040   4.391
  313POPC   GL2 4301   8.145   1.402   4.362
  313POPC   C1A 4302   8.173   1.138   4.824
  313POPC   D2A 4303   8.189   0.989   5.223
  313POPC   C3A 4304   8.440   1.127   5.541
  313POPC   C4A 4305   8.264   1.478   5.707
  313POPC   C1B 4306   7.809   1.451   4.686
  313POPC   C2B 4307   7.674   1.267   5.088
  313POPC   C3B 4308   7.800   1.133   5.498
  313POPC   C4B 4309   7.862   1.229   5.925
  314POPC   NC3 4310   9.342   3.454   4.027
  314POPC   PO4 4311   8.623   3.161   4.022
  314POPC   GL1 4312   8.938   3.302   4.348
  314POPC   GL2 4313   8.953   3.643   4.410
  314POPC   C1A 4314   8.894   3.348   4.832
  314POPC   D2A 4315   8.976   3.250   5.277
  314POPC   C3A 4316   8.734   3.279   5.701
  314POPC   C4A 4317   8.807   3.521   6.083
  314POPC   C1B 4318   9.132   3.808   4.826
  314POPC   C2B 4319   9.042   3.764   5.268
  314POPC   C3B 4320   8.800   3.902   5.647
  314POPC   C4B 4321   8.971   4.022   6.040
  315POPC   NC3 4322   6.802  10.558   3.635
  315POPC   PO4 4323   7.451  10.617   3.694
  315POPC   GL1 4324   7.361  10.337   4.165
  315POPC   GL2 4325   7.291  10.562   4.474
  315POPC   C1A 4326   7.244  10.099   4.611
  315POPC   D2A 4327   7.153  10.371   4.995
  315POPC   C3A 4328   7.066  10.231   5.437
  315POPC   C4A 4329   7.235  10.411   5.830
  315POPC   C1B 4330   7.637  10.412   4.737
  315POPC   C2B 4331   7.650  10.299   5.127
  315POPC   C3B 4332   7.543  10.532   5.440
  315POPC   C4B 4333   7.739  10.473   5.805
  316POPC   NC3 4334   1.386   2.679   3.785
  316POPC   PO4 4335   0.869   3.013   3.933
  316POPC   GL1 4336   0.978   2.658   4.213
  316POPC   GL2 4337   1.294   2.786   4.276
  316POPC   C1A 4338   1.028   2.426   4.629
  316POPC   D2A 4339   1.242   2.545   5.036
  316POPC   C3A 4340   0.987   2.486   5.402
  316POPC   C4A 4341   0.908   2.302   5.799
  316POPC   C1B 4342   1.137   2.912   4.676
  316POPC   C2B 4343   1.127   3.063   5.120
  316POPC   C3B 4344   1.274   2.898   5.515
  316POPC   C4B 4345   1.369   2.511   5.726
  317POPC   NC3 4346   9.771   1.930   3.916
  317POPC   PO4 4347   9.208   2.360   3.900
  317POPC   GL1 4348   9.426   2.193   4.232
  317POPC   GL2 4349   9.292   1.879   4.309
  317POPC   C1A 4350   9.495   2.287   4.684
  317POPC   D2A 4351   9.419   2.022   5.053
  317POPC   C3A 4352   9.553   2.160   5.474
  317POPC   C4A 4353   9.460   2.268   5.927
  317POPC   C1B 4354   9.692   1.853   4.559
  317POPC   C2B 4355   9.843   1.746   4.973
  317POPC   C3B 4356   9.676   1.671   5.395
  317POPC   C4B 4357   9.727   1.827   5.823
  318POPC   NC3 4358   3.337   5.870   3.778
  318POPC   PO4 4359   3.583   5.372   3.798
  318POPC   GL1 4360   3.487   5.083   4.191
  318POPC   GL2 4361   3.168   4.878   4.238
  318POPC   C1A 4362   3.632   5.054   4.652
  318POPC   D2A 4363   3.729   5.211   5.095
  318POPC   C3A 4364   3.417   5.162   5.445
  318POPC   C4A 4365   3.427   4.904   5.830
  318POPC   C1B 4366   3.246   4.725   4.677
  318POPC   C2B 4367   3.504   4.745   5.083
  318POPC   C3B 4368   3.792   4.817   5.454
  318POPC   C4B 4369   3.885   4.610   5.852
  319W        W 4370  11.145  10.841   8.515
  320W        W 4371   8.596   4.371   3.141
  321W        W 4372   5.740   3.533   8.142
  322W        W 4373   6.761   6.822  11.799
  323W        W 4374   7.645   8.426   9.832
  324W        W 4375   2.101   9.555   8.692
  325W        W 4376   5.972   3.860   8.586
  326W        W 4377   0.938   5.085   2.220
  327W        W 4378   3.681   0.790   3.123
  328W        W 4379   9.280   0.747  11.236
  329W        W 4380   7.623   6.076   8.390
  330W        W 4381   8.697   5.515   8.624
  331W        W 4382  10.935   9.109   9.088
  332W        W 4383   9.772   9.400   9.116
  333W        W 4384  10.453   6.552   2.963
  334W        W 4385   7.791  10.870   2.236
  335W        W 4386  10.250   6.672  10.846
  336W        W 4387   7.489   1.366   0.140
  337W        W 4388   5.137   6.455   0.805
  338W        W 4389   0.739   4.362  11.631
  339W        W 4390   0.125   8.135  10.791
  340W        W 4391   7.998   2.320   2.935
  341W        W 4392   4.072  10.758  11.514
  342W        W 4393   3.164   7.624  10.009
  343W        W 4394   1.451   0.903   1.893
  344W        W 4395   9.695   6.580   9.999
  345W        W 4396   7.226   8.045   0.762
  346W        W 4397  11.005   5.437  10.578
  347W        W 4398   6.670   0.751   1.753
  348W        W 4399   3.280   7.033   1.763
  349W        W 4400   5.527   3.586   9.483
  350W        W 4401   1.858   9.491  11.789
  351W        W 4402   4.764   2.834   0.533
  352W        W 4403   9.933  11.411   3.191
  353W        W 4404   8.636   3.428   2.121
  354W        W 4405   1.530   7.588  10.019
  355W        W 4406   0.403   8.519  11.540
  356W        W 4407   1.001   6.978   8.245
  357W        W 4408   2.466   9.931   0.342
  358W        W 4409   6.398   3.607   8.769
  359W        W 4410   7.500   9.543   9.016
  360W        W 4411  10.641   5.091  11.972
  361W        W 4412   6.146   8.452  10.410
  362W        W 4413   1.091   1.393   9.798
  363W        W 4414   6.514   2.926  11.639
  364W        W 4415   2.296  10.833   1.374
  365W        W 4416   1.827   5.520   2.479
  366W        W 4417   9.426   8.844   3.035
  367W        W 4418   4.613  10.785   2.796
  368W        W 4419   5.203   5.464   1.808
  369W        W 4420   8.478   6.950   3.058
  370W        W 4421   7.621   6.572   9.484
  371W        W 4422   5.545   2.607   1.486
  372W        W 4423  11.108  10.523   2.898
  373W        W 4424   7.755   9.499   3.537
  374W        W 4425   5.575   6.651  10.532
  375W        W 4426   1.376   9.920   0.461
  376W        W 4427   9.838   4.717   0.742
  377W        W 4428   7.594   5.192  10.109
  378W        W 4429   2.227   3.699   2.317
  379W        W 4430   1.466   8.142   2.721
  380W        W 4431   3.758   3.739   1.266
  381W        W 4432   9.319   2.450   2.486
  382W        W 4433   5.142   3.227   1.343
  383W        W 4434   5.660   0.354  11.106
  384W        W 4435   5.397   6.070   9.836
  385W        W 4436   4.836   1.158   3.120
  386W        W 4437   9.408   4.617  11.940
  387W        W 4438   4.969  10.550  10.440
  388W        W 4439   8.651   9.879   2.574
  389W        W 4440  11.187   2.663   8.800
  390W        W 4441   2.677   5.920   1.840
  391W        W 4442   2.961   8.023   9.261
  392W        W 4443   2.720   1.973  11.774
  393W        W 4444   0.839   9.329   2.632
  394W        W 4445   5.385   4.441   3.923
  395W        W 4446   2.722   8.637   3.225
  396W        W 4447   1.666   7.940   3.521
  397W        W 4448   5.168   3.665   1.845
  398W        W 4449   6.930   7.550   1.321
  399W        W 4450   3.103   7.441   2.512
  400W        W 4451   3.784   0.462  10.681
  401W        W 4452  11.409   2.583  10.880
  402W        W 4453   5.378  10.840  10.591
  403W        W 4454   1.450   9.185   0.666
  404W        W 4455   8.690  10.527  11.726
  405W        W 4456   4.937   2.380   8.150
  406W        W 4457   3.132   6.606   1.474
  407W        W 4458   0.212   6.566  11.491
  408W        W 4459   3.310   4.761  11.051
  409W        W 4460  10.364   4.113   1.223
  410W        W 4461   3.578   5.544  11.288
  411W        W 4462   5.943  10.437  10.961
  412W        W 4463   7.603   5.085  11.924
  413W        W 4464   2.825   9.195   3.457
  414W        W 4465   6.480  10.167   3.604
  415W        W 4466   3.269   3.398   0.450
  416W        W 4467   8.215   9.057  11.272
  417W        W 4468   2.322   2.274   9.142
  418W        W 4469   9.006   5.400  11.558
  419W        W 4470   5.261   2.625  10.781
  420W        W 4471   9.992   6.644   2.759
  421W        W 4472   6.952   4.633  10.753
  422W        W 4473   4.286   7.000   0.730
  423W        W 4474  11.311   6.064  10.397
  424W        W 4475   1.296   6.453   0.176
  425W        W 4476   9.063   8.876   0.515
  426W        W 4477   6.445   4.033   9.152
  427W        W 4478   2.318   9.671  11.925
  428W        W 4479  10.998   7.451   1.408
  429W        W 4480  10.011  10.742  10.406
  430W        W 4481   3.941   0.157  11.113
  431W        W 4482   7.068   7.506   0.303
  432W        W 4483   7.813   0.848   2.619
  433W        W 4484   7.059   0.262  11.527
  434W        W 4485   8.616   2.235  11.876
  435W        W 4486   4.224   5.712   0.342
  436W        W 4487   4.263   3.760   1.384
  437W        W 4488   5.532   1.953   9.460
  438W        W 4489   8.442   7.137   1.656
  439W        W 4490   7.618   1.696   3.397
  440W        W 4491  10.021  10.812   1.319
  441W        W 4492   8.016   4.090   1.176
  442W        W 4493   5.596   9.687   9.433
  443W        W 4494   1.278   6.513   1.132
  444W        W 4495   9.447   7.926   2.852
  445W        W 4496   6.958  11.289   2.822
  446W        W 4497   5.430   4.135   2.232
  447W        W 4498   2.240   2.798   8.940
  448W        W 4499   0.934  10.856   9.833
  449W        W 4500   2.865   7.659   1.724
  450W        W 4501   4.282  11.125   3.454
  451W        W 4502   4.730   0.776  11.939
  452W        W 4503   7.662   3.646  10.454
  453W        W 4504  10.895   8.843   1.474
  454W        W 4505  10.415   0.572   1.398
  455W        W 4506   3.189   8.101   9.769
  456W        W 4507   3.149   1.649   2.478
  457W        W 4508   9.317   7.543  10.790
  458W        W 4509   2.972  11.194   2.220
  459W        W 4510   7.771   9.279  11.718
  460W        W 4511   9.545   2.582   0.461
  461W        W 4512   7.053   1.698   0.201
  462W        W 4513   4.143   8.672   8.993
  463W        W 4514   0.912   1.400   0.046
  464W        W 4515   7.177   8.885   3.159
  465W        W 4516   3.133   5.667   9.446
  466W        W 4517  10.020   7.099   0.482
  467W        W 4518   5.526   8.401   9.961
  468W        W 4519   0.649   0.956   0.261
  469W        W 4520   1.101   9.487   0.376
  470W        W 4521   7.093   4.315   0.872
  471W        W 4522   2.772  10.805   1.981
  472W        W 4523   4.332  10.777   0.031
  473W        W 4524   9.233  10.064  11.060
  474W        W 4525   3.179   6.448   8.896
  475W        W 4526   5.978   5.732  11.369
  476W        W 4527   5.922   6.041   9.805
  477W        W 4528   2.158   4.835   3.277
  478W        W 4529   9.580   1.060   9.599
  479W        W 4530  10.716   0.891  11.388
  480W        W 4531   4.712   0.636  11.046
  481W        W 4532   2.317   7.600   8.048
  482W        W 4533   2.457   4.846   8.321
  483W        W 4534   7.982   9.583   9.308
  484W        W 4535   3.757   2.576   8.719
  485W        W 4536   4.556   7.145  11.793
  486W        W 4537   3.913   8.952   8.580
  487W        W 4538   0.916   8.459   1.748
  488W        W 4539   9.452   6.510  10.434
  489W        W 4540   3.050   7.117   9.525
  490W        W 4541   5.075  10.721   9.953
  491W        W 4542   7.040   1.819  10.837
  492W        W 4543   5.104   2.309   3.202
  493W        W 4544   2.287   7.168   9.875
  494W        W 4545   3.082   1.756   3.765
  495W        W 4546   7.962   6.088   3.236
  496W        W 4547  11.477   3.443   2.746
  497W        W 4548   5.958   6.460   0.423
  498W        W 4549   4.082  11.272   2.154
  499W        W 4550   0.925   2.720   1.194
  500W        W 4551   5.501   2.731   3.278
  501W        W 4552   4.859   4.341   0.869
  502W        W 4553   9.717   3.354  10.688
  503W        W 4554   5.127   9.822   2.215
  504W        W 4555   6.112  10.810  10.019
  505W        W 4556   1.455   3.338   1.474
  506W        W 4557   7.246   0.856   9.297
  507W        W 4558   0.844   6.533   1.396
  508W        W 4559   9.875   8.462   0.659
  509W        W 4560   1.657   4.033   9.677
  510W        W 4561   4.486   5.310  11.224
  511W        W 4562  10.551  10.052   2.234
  512W        W 4563  11.406   4.710  11.875
  513W        W 4564   8.194   5.496   8.477
  514W        W 4565  10.847   9.360   1.542
  515W        W 4566   1.159   2.796   2.942
  516W        W 4567   7.426   6.560   8.508
  517W        W 4568   0.050   4.821   0.349
  518W        W 4569   2.749   8.568   0.352
  519W        W 4570   2.627   4.655   1.950
  520W        W 4571   4.648  10.232   0.931
  521W        W 4572   3.889   1.743   2.161
  522W        W 4573   7.573   2.402   2.675
  523W        W 4574   2.335   6.959  10.808
  524W        W 4575   6.354   9.532   9.692
  525W        W 4576   6.179   5.069  10.849
  526W        W 4577   3.163   8.647   9.890
  527W        W 4578   8.253   4.816   3.607
  528W        W 4579   8.869   8.553  11.251
  529W        W 4580   3.292   8.102   0.345
  530W        W 4581   7.445   2.653   1.847
  531W        W 4582   6.752   0.814   9.238
  532W        W 4583   9.741   7.558   1.320
  533W        W 4584   8.460   6.092   3.432
  534W        W 4585   0.917   5.588   9.582
  535W        W 4586   1.804  10.998  10.282
  536W        W 4587   4.952   0.080  10.321
  537W        W 4588   8.540   6.637   2.170
  538W        W 4589   1.306   7.472  10.892
  539W        W 4590   0.331   1.687   0.789
  540W        W 4591   5.670   2.811  11.019
  541W        W 4592   5.538   2.318   3.576
  542W        W 4593   6.664   8.761  11.220
  543W        W 4594   3.534   1.007   1.260
  544W        W 4595   7.400   1.316   0.910
  545W        W 4596   7.381   6.171   0.328
  546W        W 4597   0.994   8.534   8.504
  547W        W 4598  11.450   5.170   3.366
  548W        W 4599   9.153   6.092   8.210
  549W        W 4600   3.899  10.791  11.014
  550W        W 4601   0.839   7.885   1.975
  551W        W 4602  10.536   9.921   1.269
  552W        W 4603   5.578   7.166   1.677
  553W        W 4604   7.611  10.081   0.106
  554W        W 4605   2.641   7.562   0.269
  555W        W 4606   9.885   6.492   2.287
  556W        W 4607  10.955   6.481   9.625
  557W        W 4608  10.058   3.303   1.361
  558W        W 4609   1.512  11.348  11.984
  559W        W 4610   7.741   1.930   2.544
  560W        W 4611   9.434   7.029  10.740
  561W        W 4612   0.409   1.182   0.704
  562W        W 4613   5.661   7.944   2.793
  563W        W 4614   6.091  11.323   2.694
  564W        W 4615   1.186   6.569   0.647
  565W        W 4616  10.805  11.301   1.166
  566W        W 4617   4.600   7.108   9.851
  567W        W 4618  11.455   2.576   3.114
  568W        W 4619   5.557   4.167   8.687
  569W        W 4620   2.281   9.175   2.787
  570W        W 4621   2.505   8.148  11.837
  571W        W 4622   9.056  10.510  10.827
  572W        W 4623   1.014   1.892   0.010
  573W        W 4624   1.352   8.686   1.936
  574W        W 4625   6.487   7.185   3.082
  575W        W 4626   4.875   2.016   1.390
  576W        W 4627   9.890   9.762  10.365
  577W        W 4628   9.616   6.782   9.231
  578W        W 4629   1.130   5.670   0.491
  579W        W 4630   5.830  10.458   9.443
  580W        W 4631   7.996   0.583  11.432
  581W        W 4632   9.245   2.113   3.463
  582W        W 4633   6.412   5.731   2.220
  583W        W 4634   1.817   2.205   9.283
  584W        W 4635   9.472   3.216   3.555
  585W        W 4636   4.333   2.600  11.120
  586W        W 4637   5.685   8.690   9.570
  587W        W 4638  10.868   6.763  11.968
  588W        W 4639   8.198  10.964   0.750
  589W        W 4640   1.308   9.004  11.491
  590W        W 4641   2.176   1.812   2.668
  591W        W 4642   2.622   0.347   2.830
  592W        W 4643   3.237   3.733   0.048
  593W        W 4644   4.622   6.197   3.470
  594W        W 4645   9.418   4.364   9.873
  595W        W 4646   4.296   7.946  10.349
  596W        W 4647   0.848   8.919   1.376
  597W        W 4648   7.385   3.134   9.476
  598W        W 4649   5.114   9.506   9.442
  599W        W 4650   3.031   6.057  11.938
  600W        W 4651   0.519   8.592   2.016
  601W        W 4652   4.292   7.184   8.876
  602W        W 4653   9.900   1.954   1.686
  603W        W 4654   0.824   3.508   3.095
  604W        W 4655   2.757   9.379   9.948
  605W        W 4656   7.387   4.848  10.497
  606W        W 4657   4.818   6.591   1.205
  607W        W 4658   7.383   1.696  11.777
  608W        W 4659   9.411   3.175  11.498
  609W        W 4660   8.703   9.903   0.304
  610W        W 4661  10.306   9.465  10.025
  611W        W 4662   2.431   2.323  10.120
  612W        W 4663  10.746   9.543   8.816
  613W        W 4664   7.013   9.935   3.211
  614W        W 4665   3.502   5.110   3.348
  615W        W 4666   5.578   9.715   1.912
  616W        W 4667   5.564   2.439   9.227
  617W        W 4668   8.595  11.328   2.176
  618W        W 4669   6.294   7.047  10.472
  619W        W 4670   2.319   7.672  11.842
  620W        W 4671   1.431   2.816   1.905
  621W        W 4672   0.204   2.216   1.461
  622W        W 4673   4.105   6.361   8.601
  623W        W 4674   6.682   7.199  11.424
  624W        W 4675   0.232   5.351   1.487
  625W        W 4676   0.319   4.273   3.091
  626W        W 4677   3.790  10.224   0.181
  627W        W 4678   8.835   4.340   0.116
  628W        W 4679   1.387   1.002   2.765
  629W        W 4680   2.371   9.586  10.163
  630W        W 4681   7.848   9.313   0.728
  631W        W 4682  11.423   5.646  11.713
  632W        W 4683   5.688   8.499   1.371
  633W        W 4684   7.192  10.194   1.412
  634W        W 4685   2.791   9.565  11.550
  635W        W 4686   6.011   6.892   1.799
  636W        W 4687  10.992   7.423  11.377
  637W        W 4688   1.398   6.677   2.170
  638W        W 4689   3.596  10.405  10.479
  639W        W 4690   3.683   9.485   3.288
  640W        W 4691   0.719   6.752   9.069
  641W        W 4692   9.003   6.830   9.545
  642W        W 4693   8.681   6.668   1.660
  643W        W 4694  11.429   5.774   1.104
  644W        W 4695   3.614   1.830   2.647
  645W        W 4696  10.473   0.728   0.926
  646W        W 4697   1.819  10.176  11.277
  647W        W 4698   4.143   5.684  11.839
  648W        W 4699  11.296   7.449  11.785
  649W        W 4700   8.571   0.554  10.213
  650W        W 4701   6.240   9.750   0.366
  651W        W 4702   1.773   7.302   0.260
  652W        W 4703   4.076   0.446   1.416
  653W        W 4704   5.198   1.669  11.733
  654W        W 4705   8.115   7.120   9.959
  655W        W 4706   8.417   1.177  10.861
  656W        W 4707   5.097   4.463  11.212
  657W        W 4708   7.142   7.132   1.118
  658W        W 4709   0.779   1.883   2.312
  659W        W 4710   7.969   0.318   0.258
  660W        W 4711   5.181  10.006   3.112
  661W        W 4712   0.691   8.906  11.098
  662W        W 4713   5.176   1.824   3.117
  663W        W 4714   2.631   5.227   3.684
  664W        W 4715   5.741   3.155   2.141
  665W        W 4716   3.615   4.837   0.619
  666W        W 4717   8.932   3.762   0.740
  667W        W 4718   7.630   9.179   3.086
  668W        W 4719   7.451   8.171   2.065
  669W        W 4720   1.297  11.358  11.009
  670W        W 4721   1.003   3.042   9.675
  671W        W 4722   9.055   0.269  11.457
  672W        W 4723   5.809   5.784  11.866
  673W        W 4724   4.959  10.227  10.039
  674W        W 4725   3.565   7.022   9.610
  675W        W 4726   6.573  11.076  10.971
  676W        W 4727   9.606   5.510   9.467
  677W        W 4728   2.106   4.193  10.577
  678W        W 4729   7.449   4.222   1.926
  679W        W 4730   0.894   7.629   9.380
  680W        W 4731   2.471  10.355  10.086
  681W        W 4732   7.068  10.552   8.666
  682W        W 4733   7.176  11.124   0.381
  683W        W 4734   0.805   3.372  10.035
  684W        W 4735   4.705   6.178   0.806
  685W        W 4736   3.650   2.365  11.805
  686W        W 4737   2.188   6.241   2.980
  687W        W 4738   8.336   5.275   2.806
  688W        W 4739   8.809   3.802   9.099
  689W        W 4740  10.710   4.852   3.590
  690W        W 4741   5.850  10.550   0.179
  691W        W 4742   2.327  11.308   9.052
  692W        W 4743   5.704   1.789   1.011
  693W        W 4744   8.158   8.264   2.250
  694W        W 4745   2.296   1.726  11.918
  695W        W 4746   1.422   5.164   2.646
  696W        W 4747   5.491   2.656   0.955
  697W        W 4748   3.147   9.355   9.219
  698W        W 4749   2.990   4.143   0.225
  699W        W 4750   4.727   7.232   0.550
  700W        W 4751   9.980   0.757   3.436
  701W        W 4752  10.598   5.184   2.272
  702W        W 4753   8.077   4.612   9.472
  703W        W 4754   1.649   2.312   2.330
  704W        W 4755   9.280   3.255  10.939
  705W        W 4756   7.124   0.934  11.314
  706W        W 4757   9.600   8.990   0.888
  707W        W 4758   4.339   9.949  10.659
  708W        W 4759  10.656   3.221   0.682
  709W        W 4760   4.899   1.289   1.221
  710W        W 4761   1.257   9.778   9.826
  711W        W 4762   6.549   9.980   9.611
  712W        W 4763   2.184   8.638   1.617
  713W        W 4764   1.887   8.566  10.021
  714W        W 4765   9.350   9.452   2.314
  715W        W 4766   2.765   2.189   0.264
  716W        W 4767   3.142   3.183   1.790
  717W        W 4768  10.070   9.606   3.066
  718W        W 4769   0.233   0.586   0.119
  719W        W 4770   4.144   9.520  10.962
  720W        W 4771   5.090   9.393  11.088
  721W        W 4772   9.193   6.577  10.871
  722W        W 4773   8.169  10.044   9.067
  723W        W 4774   7.924   0.357  10.974
  724W        W 4775   8.090   1.449   1.886
  725W        W 4776   1.122   7.978  11.607
  726W        W 4777   7.168   3.661   1.237
  727W        W 4778   0.510   7.702   1.465
  728W        W 4779  10.335   0.228   1.003
  729W        W 4780   6.325   1.675   2.278
  730W        W 4781   2.580   5.572   3.315
  731W        W 4782   3.497   8.362  11.307
  732W        W 4783   0.697  10.381   1.351
  733W        W 4784   3.710   7.893  11.511
  734W        W 4785   5.198   3.063  11.584
  735W        W 4786   6.490   2.805   3.476
  736W        W 4787   0.726   0.668   3.217
  737W        W 4788   7.018   8.407   1.888
  738W        W 4789   5.633   7.798   9.878
  739W        W 4790   5.862  10.532   2.118
  740W        W 4791   0.499  11.037   0.656
  741W        W 4792   8.282   6.354  10.997
  742W        W 4793  11.441   7.627   9.646
  743W        W 4794   1.544   7.939  10.907
  744W        W 4795   2.200   1.273   1.010
  745W        W 4796   5.676   5.526   2.718
  746W        W 4797  10.015   8.169   1.079
  747W        W 4798   3.253  10.808   0.865
  748W        W 4799  10.830   8.679   8.808
  749W        W 4800   6.682   3.201   8.931
  750W        W 4801   2.740   4.208  11.203
  751W        W 4802  10.327   5.579   1.874
  752W        W 4803  11.448   4.540   1.678
  753W        W 4804   5.011   2.053   9.549
  754W        W 4805   8.555   7.212  11.172
  755W        W 4806  10.927   4.680   1.682
  756W        W 4807   4.805   2.674  10.977
  757W        W 4808   0.927   9.024   9.214
  758W        W 4809   7.133   4.260   9.995
  759W        W 4810   9.043  11.496   9.546
  760W        W 4811  11.443   5.683  10.751
  761W        W 4812   5.703   1.123   1.806
  762W        W 4813   0.691   0.312  10.953
  763W        W 4814  10.872   7.026   1.697
  764W        W 4815  10.144   4.485   9.894
  765W        W 4816   6.672   9.099  11.659
  766W        W 4817   2.053   6.849   3.637
  767W        W 4818   7.602   0.718   2.041
  768W        W 4819  10.024   5.691  10.643
  769W        W 4820   2.601   1.805   1.751
  770W        W 4821   4.210   1.752   3.075
  771W        W 4822   6.783   5.156   0.450
  772W        W 4823   1.956   0.685   0.198
  773W        W 4824   8.549   8.929   2.743
  774W        W 4825   5.071   6.693  10.329
  775W        W 4826   7.024   1.026   3.578
  776W        W 4827   9.738   4.982   3.901
  777W        W 4828   6.267   5.729   1.211
  778W        W 4829   0.846   5.069   1.706
  779W        W 4830   7.795   4.638  10.742
  780W        W 4831   0.015   8.560   9.461
  781W        W 4832   5.940  10.098  10.488
  782W        W 4833   4.807   5.668   2.089
  783W        W 4834  10.823   0.882   1.320
  784W        W 4835   6.674   2.605   9.361
  785W        W 4836   6.005   2.069   2.194
  786W        W 4837  10.302   0.220  10.699
  787W        W 4838  10.524   5.648  10.500
  788W        W 4839   9.299   7.601   3.415
  789W        W 4840   2.815   8.676   2.716
  790W        W 4841   1.189   9.642   1.745
  791W        W 4842   5.802  10.057   0.361
  792W        W 4843   6.593   3.183  11.165
  793W        W 4844   7.450   7.628   1.261
  794W        W 4845   5.573   1.808   3.442
  795W        W 4846   6.373  10.604  11.190
  796W        W 4847   7.422   7.712   2.301
  797W        W 4848   7.555   6.729  11.431
  798W        W 4849  10.548   6.583  10.381
  799W        W 4850   8.610   9.886   8.724
  800W        W 4851   9.126   8.970  11.146
  801W        W 4852  11.453   5.587   1.865
  802W        W 4853   0.884  10.063   0.377
  803W        W 4854   2.717   6.603  10.951
  804W        W 4855  10.355   5.090   3.143
  805W        W 4856   9.987   1.703  10.267
  806W        W 4857   6.428   3.775   9.599
  807W        W 4858   1.326   5.495   3.220
  808W        W 4859   0.061  11.347  10.654
  809W        W 4860   9.561   0.221   0.540
  810W        W 4861   5.072   0.463   0.787
  811W        W 4862   3.642   2.338   1.206
  812W        W 4863  10.013   0.254   0.286
  813W        W 4864   4.572   2.200   0.981
  814W        W 4865   2.547   8.330   0.793
  815W        W 4866   0.553   9.202   0.770
  816W        W 4867   5.918   7.823  11.975
  817W        W 4868   6.474   5.084   1.852
  818W        W 4869   4.775   8.320   1.532
  819W        W 4870   3.200   1.397   2.030
  820W        W 4871  10.418   0.602   9.394
  821W        W 4872   3.859   0.381   9.678
  822W        W 4873   6.344   7.215   9.497
  823W        W 4874   2.226   5.254   9.499
  824W        W 4875   5.456   0.799   9.862
  825W        W 4876   0.913   8.342   3.527
  826W        W 4877   5.636   9.927  11.829
  827W        W 4878   2.196   3.358   2.772
  828W        W 4879  11.386   7.024  10.521
  829W        W 4880   2.717   4.503   0.953
  830W        W 4881   1.463   9.908   9.373
  831W        W 4882   7.053   4.830   0.749
  832W        W 4883   1.821   8.154   1.373
  833W        W 4884   7.865   4.199   8.703
  834W        W 4885  10.963   2.086   2.234
  835W        W 4886  11.292   9.918   0.772
  836W        W 4887   1.124   0.524   2.869
  837W        W 4888   7.785  10.668   0.796
  838W        W 4889   0.678   8.876   2.775
  839W        W 4890  10.012   5.648   0.953
  840W        W 4891   8.076  10.751   1.226
  841W        W 4892   6.311   9.177   3.147
  842W        W 4893   1.520   6.248   9.885
  843W        W 4894   6.436   0.293  11.662
  844W        W 4895   0.948   8.408   9.868
  845W        W 4896   6.675   9.410   1.074
  846W        W 4897  10.820   2.152   1.741
  847W        W 4898   4.199  10.789   2.458
  848W        W 4899   2.658   3.683   2.038
  849W        W 4900   7.871   0.354   2.690
  850W        W 4901   6.526   8.111  11.351
  851W        W 4902   0.658   2.157   1.730
  852W        W 4903   0.787   0.824   0.740
  853W        W 4904   1.290   3.130  11.575
  854W        W 4905  11.324   4.038   3.527
  855W        W 4906   2.370   2.462   0.458
  856W        W 4907   8.371   7.498   2.311
  857W        W 4908   1.192   9.410   9.466
  858W        W 4909   4.268  11.271  11.370
  859W        W 4910   1.756   5.083   1.673
  860W        W 4911   3.822   9.268   0.443
  861W        W 4912   3.489  11.382  11.978
  862W        W 4913   7.504   5.007   0.938
  863W        W 4914   2.541   4.633  11.773
  864W        W 4915   7.738   1.424   0.562
  865W        W 4916   7.906   1.931   0.707
  866W        W 4917   0.945   2.704   8.450
  867W        W 4918   3.164   7.500   1.064
  868W        W 4919   2.709   4.096   1.260
  869W        W 4920   6.982   0.318   2.757
  870W        W 4921   2.365   8.112   8.135
  871W        W 4922   4.913   2.849   4.013
  872W        W 4923   4.290   3.363  11.478
  873W        W 4924   2.254   3.794   1.322
  874W        W 4925  11.172   7.701   0.775
  875W        W 4926   1.002   8.906   0.420
  876W        W 4927   8.488   1.769   3.167
  877W        W 4928   1.370  10.029  11.737
  878W        W 4929   9.931   8.975   9.371
  879W        W 4930   0.349   2.732   0.046
  880W        W 4931   9.801   7.455   8.527
  881W        W 4932   3.924   2.155   2.891
  882W        W 4933   6.954   5.847  10.357
  883W        W 4934   4.224   2.173   3.380
  884W        W 4935   4.324   0.847   2.199
  885W        W 4936   7.735  10.181   0.595
  886W        W 4937   0.488   6.267   1.650
  887W        W 4938   0.287   1.900  10.295
  888W        W 4939  11.394   4.660  10.551
  889W        W 4940   3.579   0.469   2.726
  890W        W 4941   5.703   1.325   0.771
  891W        W 4942   1.146  10.465   9.520
  892W        W 4943  10.925  10.401   9.312
  893W        W 4944   6.275  10.231   0.213
  894W        W 4945   4.525  11.152   9.199
  895W        W 4946   4.173   4.717   2.818
  896W        W 4947   6.639   9.490  10.481
  897W        W 4948  11.367   7.592   9.113
  898W        W 4949  10.318   9.559  10.547
  899W        W 4950   3.899   6.161  10.647
  900W        W 4951   4.101   4.138   9.302
  901W        W 4952   1.593   9.500   8.590
  902W        W 4953   1.333   8.702   1.061
  903W        W 4954   0.857   6.345   2.940
  904W        W 4955   3.596  11.451   9.530
  905W        W 4956   4.837   8.394   2.838
  906W        W 4957   8.336  10.220   2.767
  907W        W 4958   5.536  10.610   2.962
  908W        W 4959   7.580   8.447  10.362
  909W        W 4960   0.133   1.522  11.924
  910W        W 4961   5.976   3.156   0.095
  911W        W 4962   0.654   7.044   9.514
  912W        W 4963   3.422   8.883   1.940
  913W        W 4964  11.286   8.035   3.062
  914W        W 4965   1.701   7.349   2.918
  915W        W 4966   3.056   5.298   8.260
  916W        W 4967   8.144   2.811  11.296
  917W        W 4968   9.267   0.467   2.717
  918W        W 4969   8.618   1.058   2.606
  919W        W 4970   9.365   2.155   0.281
  920W        W 4971  10.964  10.586   0.774
  921W        W 4972   2.271   9.094   9.993
  922W        W 4973   6.650   2.014   1.472
  923W        W 4974   5.770   1.641   1.912
  924W        W 4975   4.292   0.721  11.375
  925W        W 4976   6.132   3.820   0.397
  926W        W 4977   4.745   6.278  10.313
  927W        W 4978   0.305   2.257  10.875
  928W        W 4979   8.021   7.993   1.359
  929W        W 4980   6.588  10.446  10.751
  930W        W 4981   2.124   4.301   0.516
  931W        W 4982   3.175   5.530  10.507
  932W        W 4983   4.482   8.852   9.343
  933W        W 4984  10.383   2.416  10.921
  934W        W 4985   9.702   4.132   1.855
  935W        W 4986   1.506   6.330   3.515
  936W        W 4987   5.124   1.993   3.612
  937W        W 4988   3.265  10.187   2.688
  938W        W 4989   8.557   3.353   3.077
  939W        W 4990   6.204   1.386   2.702
  940W        W 4991  11.021   3.641   1.419
  941W        W 4992   8.555   6.121   9.206
  942W        W 4993  11.128   8.089   3.543
  943W        W 4994   8.049  11.450   8.940
  944W        W 4995   5.944  10.418   2.632
  945W        W 4996   3.583   6.389   2.703
  946W        W 4997   3.659   3.715   3.052
  947W        W 4998   9.431  10.539  10.274
  948W        W 4999   0.428   7.019   2.550
  949W        W 5000   2.044   9.939   2.985
  950W        W 5001   9.767   3.271  11.857
  951W        W 5002   7.603   2.228  10.917
  952W        W 5003   9.020  11.071   0.409
  953W        W 5004   9.297   5.099   1.456
  954W        W 5005   6.750   8.909   9.204
  955W        W 5006   8.275   9.165  11.771
  956W        W 5007   5.722   3.774   1.628
  957W        W 5008   1.332   3.752   2.872
  958W        W 5009   5.241   8.026   9.685
  959W        W 5010   0.980   1.668   1.447
  960W        W 5011   0.257   9.504   1.479
  961W        W 5012  10.407   3.256   2.185
  962W        W 5013   2.639  10.895   8.981
  963W        W 5014   5.776   7.197  11.264
  964W        W 5015   1.319   0.447   3.365
  965W        W 5016   8.604   5.903  10.972
  966W        W 5017   5.167   4.636  11.752
  967W        W 5018   1.033   0.636   1.741
  968W        W 5019   5.575   7.549  10.948
  969W        W 5020   2.087   5.966  10.949
  970W        W 5021   9.489   5.201   3.431
  971W        W 5022   3.761   8.014   8.937
  972W        W 5023   4.152   7.654   9.054
  973W        W 5024   7.147   2.313   3.007
  974W        W 5025   8.741   4.954  10.778
  975W        W 5026   0.803   0.199   1.852
  976W        W 5027   4.363   1.321   1.365
  977W        W 5028   6.991   2.756   8.992
  978W        W 5029   7.652   3.855   3.277
  979W        W 5030   0.008   4.263   0.131
  980W        W 5031   2.667   8.511   1.711
  981W        W 5032  10.887  10.377   0.315
  982W        W 5033   3.137   2.909   9.160
  983W        W 5034   1.421   2.771  10.989
  984W        W 5035   3.244   9.770   8.934
  985W        W 5036   5.046   5.874  11.366
  986W        W 5037   5.158   9.583   8.083
  987W        W 5038  10.958   8.116   2.665
  988W        W 5039   6.479   9.118   1.862
  989W        W 5040   5.639  10.144   8.549
  990W        W 5041   7.043   8.407   9.065
  991W        W 5042   6.000   5.526   9.668
  992W        W 5043   8.881   5.517  10.576
  993W        W 5044   7.457   3.601   0.769
  994W        W 5045   6.280   2.639   2.856
  995W        W 5046   8.096   5.527   0.688
  996W        W 5047   1.428   6.254   9.002
  997W        W 5048   6.679   0.060  10.847
  998W        W 5049   8.088   6.436   0.289
  999W        W 5050  10.561   4.488   9.609
 1000W        W 5051   9.596   3.563   2.657
 1001W        W 5052   4.163   2.825  10.039
 1002W        W 5053   0.338   4.533   9.805
 1003W        W 5054  10.001   9.080  11.534
 1004W        W 5055   2.606   6.576   2.939
 1005W        W 5056   3.271  10.520   3.192
 1006W        W 5057   9.886   1.697   3.442
 1007W        W 5058   9.435   5.554  11.756
 1008W        W 5059   8.003   9.970   3.264
 1009W        W 5060   1.235   4.543   9.865
 1010W        W 5061   9.032   9.373  11.476
 1011W        W 5062   3.607   0.405   0.025
 1012W        W 5063   3.063   3.090   8.408
 1013W        W 5064   0.244   9.114   0.052
 1014W        W 5065   8.175   8.966   0.571
 1015W        W 5066   9.723   6.685   0.503
 1016W        W 5067   9.320   9.386   9.928
 1017W        W 5068   5.242   1.933   0.731
 1018W        W 5069   3.146   2.386   2.145
 1019W        W 5070   9.315   5.910   1.938
 1020W        W 5071   0.932   1.533  11.094
 1021W        W 5072   2.878   1.626  10.499
 1022W        W 5073   3.777   0.293   9.175
 1023W        W 5074   0.373   6.476   3.285
 1024W        W 5075   1.844   3.625   9.410
 1025W        W 5076   9.839  10.033   3.209
 1026W        W 5077   5.954   0.505   9.287
 1027W        W 5078  11.380   7.011   1.704
 1028W        W 5079   7.660   2.612  11.942
 1029W        W 5080   8.422   0.264   0.480
 1030W        W 5081   5.771  10.920   9.206
 1031W        W 5082   8.438   8.102   9.098
 1032W        W 5083   0.308   5.171   3.005
 1033W        W 5084   4.805   8.868   0.893
 1034W        W 5085   0.517   4.000  11.889
 1035W        W 5086   0.395   6.270   9.752
 1036W        W 5087   8.742   1.463  11.768
 1037W        W 5088  11.236  11.155  10.294
 1038W        W 5089   2.612   8.116   2.071
 1039W        W 5090   3.627   8.420   9.738
 1040W        W 5091   7.858   6.973   2.582
 1041W        W 5092   9.565   2.394  11.103
 1042W        W 5093   6.922   0.812   1.291
 1043W        W 5094   6.270   6.399   8.569
 1044W        W 5095   2.186   8.324  10.700
 1045W        W 5096   0.923   1.369   9.116
 1046W        W 5097   2.071   6.834   9.534
 1047W        W 5098   9.751  10.276   9.007
 1048W        W 5099  11.072   7.708  10.500
 1049W        W 5100   1.182   1.982   0.709
 1050W        W 5101   8.585   9.935   1.141
 1051W        W 5102   6.061   8.180   3.040
 1052W        W 5103  11.040   9.851   0.341
 1053W        W 5104   4.799   9.824   2.618
 1054W        W 5105   6.140   1.387   1.152
 1055W        W 5106   1.764  11.234  11.096
 1056W        W 5107   9.424   6.651   0.096
 1057W        W 5108   8.278   0.222   2.990
 1058W        W 5109   2.445   0.709   0.317
 1059W        W 5110   2.576   6.113  11.033
 1060W        W 5111   3.776   0.069   0.377
 1061W        W 5112   8.013   8.965   1.579
 1062W        W 5113   6.645   8.893   0.352
 1063W        W 5114   0.900   3.427  11.426
 1064W        W 5115   0.853   6.783  10.909
 1065W        W 5116   8.187   6.683   1.761
 1066W        W 5117   2.432   4.842   1.187
 1067W        W 5118   9.400   2.416  10.631
 1068W        W 5119   5.080   2.632   1.278
 1069W        W 5120   0.889   3.650  10.874
 1070W        W 5121   7.560   7.224   0.315
 1071W        W 5122  10.141   7.924   0.671
 1072W        W 5123   6.714   9.313   9.998
 1073W        W 5124   9.856  10.131   1.781
 1074W        W 5125   2.195   4.669   0.159
 1075W        W 5126   2.209   7.936   2.355
 1076W        W 5127  11.171   6.484  11.259
 1077W        W 5128  10.951  10.036  10.078
 1078W        W 5129   1.588   2.384   1.467
 1079W        W 5130   6.522   1.703   0.997
 1080W        W 5131   1.926   1.339   9.410
 1081W        W 5132  11.386   7.238   0.815
 1082W        W 5133   9.869  10.861   9.923
 1083W        W 5134   1.158   9.583   0.868
 1084W        W 5135   0.741   2.349  11.307
 1085W        W 5136   9.505  10.362   0.034
 1086W        W 5137   9.332   7.632   1.016
 1087W        W 5138  10.870   7.192   3.054
 1088W        W 5139   6.589   1.505   1.474
 1089W        W 5140   5.523   6.694   1.817
 1090W        W 5141   9.423   1.908  11.059
 1091W        W 5142   9.294   1.429  11.831
 1092W        W 5143   4.709   7.750   2.945
 1093W        W 5144   6.548   3.733  10.907
 1094W        W 5145   5.176   8.015   3.004
 1095W        W 5146   9.522   8.878  10.794
 1096W        W 5147   9.499   1.631   1.491
 1097W        W 5148   2.897   9.485   2.193
 1098W        W 5149  11.320   5.098   2.862
 1099W        W 5150   7.620   9.319  10.493
 1100W        W 5151   2.871   0.939  11.427
 1101W        W 5152   2.187   4.389   9.822
 1102W        W 5153   3.774   7.977  11.014
 1103W        W 5154   5.155   6.659  10.847
 1104W        W 5155   9.744   7.009   0.928
 1105W        W 5156   0.174   2.821   8.993
 1106W        W 5157   3.684  10.347   2.911
 1107W        W 5158   3.206  11.363  10.630
 1108W        W 5159  10.961  10.832   2.526
 1109W        W 5160  10.837   6.346   2.739
 1110W        W 5161  11.138  11.118  11.533
 1111W        W 5162   0.378   6.022  10.760
 1112W        W 5163   8.187   2.794   1.247
 1113W        W 5164   7.496   2.653   9.043
 1114W        W 5165   7.086   7.013   2.068
 1115W        W 5166   0.330   9.026   3.113
 1116W        W 5167   9.849   1.839   1.171
 1117W        W 5168   2.905   5.499   0.713
 1118W        W 5169   7.944   8.361  11.332
 1119W        W 5170   7.929   0.657   3.112
 1120W        W 5171   9.008   8.697   2.773
 1121W        W 5172   2.077   0.899   0.661
 1122W        W 5173   8.012   3.850  10.100
 1123W        W 5174   9.374   7.415   9.843
 1124W        W 5175   0.837   0.510   8.854
 1125W        W 5176   4.766   4.353   2.937
 1126W        W 5177   7.034   5.029  11.328
 1127W        W 5178  11.009   4.064   0.613
 1128W        W 5179   4.414   1.282   2.749
 1129W        W 5180   2.477   4.210  10.205
 1130W        W 5181   6.417   2.793   1.681
 1131W        W 5182   3.315   0.444   9.433
 1132W        W 5183   7.030   2.973   9.842
 1133W        W 5184   5.179   4.031   8.376
 1134W        W 5185   0.058   2.876  11.266
 1135W        W 5186   6.833  10.746   0.582
 1136W        W 5187   2.699  10.809   9.935
 1137W        W 5188   4.560   2.209  11.957
 1138W        W 5189   7.092   6.516  11.426
 1139W        W 5190  10.275   4.048  10.436
 1140W        W 5191   7.879   5.016   1.462
 1141W        W 5192   6.340   3.294   3.260
 1142W        W 5193   4.292   4.221   2.657
 1143W        W 5194  11.362   7.513   3.184
 1144W        W 5195   1.238   6.678   9.766
 1145W        W 5196   9.456   4.043   2.821
 1146W        W 5197   4.733   4.098   8.639
 1147W        W 5198  10.026   8.620   1.951
 1148W        W 5199   0.902   7.714  10.677
 1149W        W 5200   8.980   5.637   0.966
 1150W        W 5201   0.923   0.221  10.193
 1151W        W 5202   1.117  10.195   2.751
 1152W        W 5203  10.107   3.055  10.546
 1153W        W 5204  11.012   1.175   0.554
 1154W        W 5205   4.596   2.255   2.382
 1155W        W 5206   7.338   1.479   9.082
 1156W        W 5207   3.819   0.381  10.190
 1157W        W 5208   2.466   1.795   8.815
 1158W        W 5209   6.662  10.914   8.722
 1159W        W 5210   3.823   4.614  11.362
 1160W        W 5211   6.204   2.977  10.315
 1161W        W 5212   3.041   5.540   8.813
 1162W        W 5213   0.272   3.151  10.846
 1163W        W 5214   2.446   4.627  11.267
 1164W        W 5215   0.105   1.800   8.880
 1165W        W 5216   4.228   5.039   9.542
 1166W        W 5217   9.989   1.749   2.696
 1167W        W 5218   9.075   4.285   2.576
 1168W        W 5219  11.265   3.116  10.888
 1169W        W 5220   8.362   1.751   0.864
 1170W        W 5221   1.272   8.454  11.551
 1171W        W 5222   6.933   6.219   9.162
 1172W        W 5223  11.389   3.190   1.353
 1173W        W 5224  10.682   1.859   3.922
 1174W        W 5225   1.170  10.269  10.433
 1175W        W 5226   9.092   9.052   2.004
 1176W        W 5227   8.991   1.891  11.939
 1177W        W 5228   4.281   9.940   2.776
 1178W        W 5229   8.949   6.924   1.205
 1179W        W 5230   6.871   3.097   9.386
 1180W        W 5231   6.225   8.522  11.278
 1181W        W 5232   9.420   3.599   3.137
 1182W        W 5233   8.558   2.053   1.283
 1183W        W 5234   8.512   8.014   2.739
 1184W        W 5235   9.850   9.295  10.645
 1185W        W 5236   7.491   2.780   2.337
 1186W        W 5237   8.956   7.127  10.862
 1187W        W 5238  10.819   9.792   1.883
 1188W        W 5239   4.790   9.506   8.465
 1189W        W 5240   8.169   1.821   2.266
 1190W        W 5241   8.013   6.436  11.442
 1191W        W 5242   7.584   5.309  10.612
 1192W        W 5243   7.035   9.058   0.007
 1193W        W 5244   7.110  10.984   9.025
 1194W        W 5245   8.893   4.584   8.643
 1195W        W 5246   4.167   2.581   3.017
 1196W        W 5247   5.676   3.853   0.725
 1197W        W 5248   1.249   6.538  11.273
 1198W        W 5249   8.517   8.992   3.239
 1199W        W 5250   4.135   0.466   8.824
 1200W        W 5251   8.720  10.919   0.965
 1201W        W 5252   6.554   8.446   9.709
 1202W        W 5253   2.351   8.669  10.348
 1203W        W 5254   0.489   1.161  11.815
 1204W        W 5255   0.440   4.394   1.715
 1205W        W 5256   0.430   0.475   2.071
 1206W        W 5257  11.288  10.782   0.401
 1207W        W 5258  10.531   4.810  10.011
 1208W        W 5259   1.839   1.745  10.112
 1209W        W 5260   6.464   4.753   0.384
 1210W        W 5261   1.214   5.005   3.180
 1211W        W 5262  10.326   6.288  11.240
 1212W        W 5263   6.139   9.636  10.563
 1213W        W 5264  10.967   7.833   1.753
 1214W        W 5265   3.293   8.314   8.948
 1215W        W 5266   2.287   6.173   9.314
 1216W        W 5267   9.824   5.473   8.698
 1217W        W 5268  10.413   2.144   9.584
 1218W        W 5269   1.834   0.147   2.712
 1219W        W 5270   3.377   1.284   8.780
 1220W        W 5271   7.192   7.295  10.069
 1221W        W 5272   8.599  10.786   0.480
 1222W        W 5273   6.417   7.993   9.032
 1223W        W 5274   6.599   5.427   0.065
 1224W        W 5275   7.485   1.531   2.378
 1225W        W 5276   6.748   9.495   3.223
 1226W        W 5277   3.445   8.632  11.764
 1227W        W 5278   5.904   2.945   0.851
 1228W        W 5279  10.881   5.550  10.081
 1229W        W 5280   2.413   1.780  11.403
 1230W        W 5281   7.212  10.626   0.224
 1231W        W 5282   0.034  10.888   0.859
 1232W        W 5283   3.281   7.464   2.034
 1233W        W 5284   8.909   7.575  11.101
 1234W        W 5285   6.238  10.040  10.924
 1235W        W 5286   3.737  10.920  10.018
 1236W        W 5287  10.092   9.098   1.797
 1237W        W 5288   3.809   7.021   0.513
 1238W        W 5289   9.410   7.165   1.862
 1239W        W 5290   3.665   9.394   9.194
 1240W        W 5291   3.841   9.855   1.213
 1241W        W 5292   1.336   5.315   9.465
 1242W        W 5293  11.313   8.526   8.981
 1243W        W 5294   8.269   6.358   8.817
 1244W        W 5295   6.911  11.428   3.320
 1245W        W 5296   2.382   1.336   9.139
 1246W        W 5297   6.357   9.177  11.274
 1247W        W 5298   3.120   1.844   9.524
 1248W        W 5299   6.563   2.469  11.907
 1249W        W 5300   3.721   9.797   2.058
 1250W        W 5301   6.173  11.062  11.294
 1251W        W 5302   7.165   7.037   0.580
 1252W        W 5303   2.328   9.868   1.762
 1253W        W 5304   8.500   9.412  11.061
 1254W        W 5305   5.518   5.650   9.567
 1255W        W 5306   7.648   7.995  10.136
 1256W        W 5307   1.145   0.306  11.205
 1257W        W 5308   1.306   8.152   1.923
 1258W        W 5309   7.546  10.863  11.444
 1259W        W 5310   1.694   4.547   9.584
 1260W        W 5311   8.946   1.634   2.930
 1261W        W 5312   5.146   8.636   0.302
 1262W        W 5313   5.625  10.001   1.463
 1263W        W 5314   9.849  10.257  10.334
 1264W        W 5315   9.032   3.704   8.656
 1265W        W 5316   5.654   8.667   0.457
 1266W        W 5317   2.025  11.300  11.910
 1267W        W 5318   7.441   4.001  11.933
 1268W        W 5319   4.590   6.732   2.909
 1269W        W 5320   5.333   5.054   2.583
 1270W        W 5321   9.494   3.027   2.494
 1271W        W 5322   9.157   1.238  10.040
 1272W        W 5323   0.647   0.541  10.499
 1273W        W 5324   4.526  10.373   8.537
 1274W        W 5325   1.242   3.546   9.857
 1275W        W 5326   0.734   0.056  11.404
 1276W        W 5327   0.644   7.152   1.290
 1277W        W 5328  10.452  10.822  11.025
 1278W        W 5329   1.924   5.041   2.634
 1279W        W 5330   1.475   9.744   1.261
 1280W        W 5331   3.661   2.336   0.698
 1281W        W 5332   6.716   6.851   2.370
 1282W        W 5333   8.451   7.097   0.330
 1283W        W 5334   5.263   3.296   2.245
 1284W        W 5335   0.242   2.300   9.117
 1285W        W 5336   1.740   6.869   2.731
 1286W        W 5337   5.276   0.159   0.401
 1287W        W 5338   0.058  10.296   2.338
 1288W        W 5339   6.740  10.005  11.003
 1289W        W 5340   6.015   8.495  11.792
 1290W        W 5341   8.039   7.246  11.124
 1291W        W 5342   9.829   9.411   0.678
 1292W        W 5343   2.395  11.334   0.270
 1293W        W 5344   2.355   9.442   0.391
 1294W        W 5345   8.532   5.612   3.571
 1295W        W 5346   4.238   3.554   0.923
 1296W        W 5347   6.974   2.355  10.989
 1297W        W 5348   8.429   3.265   9.497
 1298W        W 5349   9.188  10.096   0.400
 1299W        W 5350  10.170   8.599  11.580
 1300W        W 5351  11.390   8.635   9.941
 1301W        W 5352   6.518   0.636   0.059
 1302W        W 5353   6.117  11.038   3.411
 1303W        W 5354   0.159   7.193   9.819
 1304W        W 5355   2.923   7.551   3.002
 1305W        W 5356   0.423   9.015   1.742
 1306W        W 5357  10.527   8.489  11.940
 1307W        W 5358   7.207   5.660   1.079
 1308W        W 5359   3.380   5.291   9.161
 1309W        W 5360   9.896   8.127   2.816
 1310W        W 5361   2.908   5.475   1.749
 1311W        W 5362   2.425   3.290   1.171
 1312W        W 5363   3.889   1.280   8.622
 1313W        W 5364   8.696   6.667  10.837
 1314W        W 5365  10.421   1.496  10.442
 1315W        W 5366   7.132   6.504   3.136
 1316W        W 5367  11.471   6.134   0.009
 1317W        W 5368   0.160   1.081   0.255
 1318W        W 5369  11.449   3.375  10.462
 1319W        W 5370   8.864   3.217   8.605
 1320W        W 5371   0.074   6.090   1.910
 1321W        W 5372   5.983   4.093   9.471
 1322W        W 5373   9.890   3.704   0.660
 1323W        W 5374   4.655   8.532   0.467
 1324W        W 5375  10.830   3.471   2.395
 1325W        W 5376   0.479  10.007   2.212
 1326W        W 5377   5.047  11.453   0.842
 1327W        W 5378   7.276   6.199  10.617
 1328W        W 5379   3.773  11.139  11.422
 1329W        W 5380   2.662   9.291  11.961
 1330W        W 5381  10.618   7.865   0.516
 1331W        W 5382   1.710   4.871  11.051
 1332W        W 5383   6.901  11.366   9.487
 1333W        W 5384   1.884   8.826   0.268
 1334W        W 5385   8.560   2.341   2.346
 1335W        W 5386   3.677   2.852   0.724
 1336W        W 5387  10.677  11.428   0.687
 1337W        W 5388   2.864   4.181   2.654
 1338W        W 5389   3.136   0.323   1.510
 1339W        W 5390   0.266   5.526   9.824
 1340W        W 5391   6.304  10.445  10.315
 1341W        W 5392   4.922   0.658   1.670
 1342W        W 5393   0.252   3.134   0.394
 1343W        W 5394   2.957   0.133  10.172
 1344W        W 5395   0.492   3.098  11.422
 1345W        W 5396   1.991   8.122  11.868
 1346W        W 5397   4.639   7.606  11.568
 1347W        W 5398   7.338   0.541   8.915
 1348W        W 5399   6.582   7.884   2.324
 1349W        W 5400   7.550   2.288   0.775
 1350W        W 5401   3.739   5.177   0.245
 1351W        W 5402   3.717   4.494   1.909
 1352W        W 5403   8.160   4.652   8.679
 1353W        W 5404   7.854   8.460  11.933
 1354W        W 5405   5.514   8.988   8.621
 1355W        W 5406   0.888   9.205   3.140
 1356W        W 5407   2.808   2.113  10.372
 1357W        W 5408   0.512   1.306   2.627
 1358W        W 5409   5.346  11.354   1.777
 1359W        W 5410  10.281   9.468  11.337
 1360W        W 5411  10.740  10.415   1.311
 1361W        W 5412   2.781   2.398   0.785
 1362W        W 5413   8.034   6.004   4.125
 1363W        W 5414   2.318  10.886  11.802
 1364W        W 5415   6.957   1.517   0.718
 1365W        W 5416   0.017   9.919   8.835
 1366W        W 5417   0.502   3.063   9.760
 1367W        W 5418  10.638   3.927   0.278
 1368W        W 5419   2.805   3.773   9.461
 1369W        W 5420   4.581   9.503  10.690
 1370W        W 5421   5.652   1.713   2.933
 1371W        W 5422   3.397   1.420   2.866
 1372W        W 5423   5.299   9.468   8.584
 1373W        W 5424   0.219   0.331  10.751
 1374W        W 5425  10.884  10.126  11.317
 1375W        W 5426   4.606  10.062   2.208
 1376W        W 5427   4.949   0.778   9.776
 1377W        W 5428   4.056   4.635   3.537
 1378W        W 5429  10.543   7.229  11.545
 1379W        W 5430   6.779   3.638   9.206
 1380W        W 5431   4.525   4.466   9.546
 1381W        W 5432   3.851   0.440  11.574
 1382W        W 5433  10.883   4.182   1.126
 1383W        W 5434   5.191   9.918   3.616
 1384W        W 5435   4.352   1.423   9.957
 1385W        W 5436   7.485   0.823   3.370
 1386W        W 5437   9.016   0.788   2.426
 1387W        W 5438   8.543   7.588   9.267
 1388W        W 5439   3.688   2.640   9.270
 1389W        W 5440   8.553   7.511   2.812
 1390W        W 5441   9.051   4.617   1.301
 1391W        W 5442   8.593   2.575   0.534
 1392W        W 5443   6.134   3.279   1.159
 1393W        W 5444   2.726   7.880   2.630
 1394W        W 5445   3.212  10.306   0.105
 1395W        W 5446  10.612   9.833  10.907
 1396W        W 5447   7.592   4.372   1.457
 1397W        W 5448   2.399   7.858  10.699
 1398W        W 5449   8.646   6.355  11.734
 1399W        W 5450   8.967   9.627  11.026
 1400W        W 5451   5.767   0.382   0.511
 1401W        W 5452   6.076   8.126   8.618
 1402W        W 5453   6.041   7.298   3.983
 1403W        W 5454   4.071  10.960   9.057
 1404W        W 5455   0.862   3.934  11.301
 1405W        W 5456   4.323   8.827   0.743
 1406W        W 5457   2.797   2.480  11.845
 1407W        W 5458   7.776   6.654   9.986
 1408W        W 5459   9.552   2.890   9.474
 1409W        W 5460  10.080   8.994   9.856
 1410W        W 5461   3.669   0.795   8.949
 1411W        W 5462   4.756   9.090  11.453
 1412W        W 5463   8.786  10.885   2.372
 1413W        W 5464   3.891   5.274  10.577
 1414W        W 5465   6.683   3.749   0.236
 1415W        W 5466   8.039   9.616   9.867
 1416W        W 5467   9.101   5.732   2.787
 1417W        W 5468   7.662   4.156  11.039
 1418W        W 5469  10.715   9.801  11.774
 1419W        W 5470   3.142   9.088  10.197
 1420W        W 5471   5.820   5.212  11.617
 1421W        W 5472   3.383   6.065  10.682
 1422W        W 5473   6.505   6.670   1.677
 1423W        W 5474   9.545   6.150  10.814
 1424W        W 5475   6.935  10.871  10.661
 1425W        W 5476   8.149   8.993   1.081
 1426W        W 5477   3.326   8.064  10.244
 1427W        W 5478   4.246   2.321  10.441
 1428W        W 5479  10.833   2.765   9.186
 1429W        W 5480   0.516  10.963   1.168
 1430W        W 5481   0.973  11.306   1.382
 1431W        W 5482   8.909   7.335   9.544
 1432W        W 5483   2.185   3.407   1.878
 1433W        W 5484   9.179   7.084  11.947
 1434W        W 5485   2.926   7.864  11.927
 1435W        W 5486   2.383   0.547   1.992
 1436W        W 5487   1.150   9.654   2.905
 1437W        W 5488   8.832   0.744  11.470
 1438W        W 5489   2.935   3.012   3.135
 1439W        W 5490   4.280   2.805   0.355
 1440W        W 5491   4.646   4.265   9.105
 1441W        W 5492   4.716   2.961   1.442
 1442W        W 5493   5.211   5.612  10.955
 1443W        W 5494   5.735  11.087   3.035
 1444W        W 5495  11.054   6.063   9.910
 1445W        W 5496   1.279   4.805   9.416
 1446W        W 5497   2.336   4.355   8.445
 1447W        W 5498   2.394   2.687  11.580
 1448W        W 5499   5.795   7.122  10.412
 1449W        W 5500   1.260   1.105  11.127
 1450W        W 5501   8.730   4.283   9.208
 1451W        W 5502   7.384   5.201   1.837
 1452W        W 5503   5.132   1.703  11.250
 1453W        W 5504   6.610   6.128  10.032
 1454W        W 5505   6.592   4.493   2.531
 1455W        W 5506   1.186   5.665   1.322
 1456W        W 5507  10.298   0.642   0.097
 1457W        W 5508   3.102   8.876   2.337
 1458W        W 5509   3.418  10.765  10.872
 1459W        W 5510   8.113   4.101   3.140
 1460W        W 5511   3.155   3.532   2.753
 1461W        W 5512   4.712  10.942   9.684
 1462W        W 5513   9.862   0.283  10.367
 1463W        W 5514   5.688   3.394   8.956
 1464W        W 5515   9.088   4.594  10.957
 1465W        W 5516  10.646   1.775   0.880
 1466W        W 5517   5.248   3.727   1.358
 1467W        W 5518   9.105   4.181   8.886
 1468W        W 5519   9.736   5.285   1.227
 1469W        W 5520   9.935   8.141   0.273
 1470W        W 5521  10.377  10.926   3.225
 1471W        W 5522  10.136   2.429   2.779
 1472W        W 5523   1.272   2.378   1.061
 1473W        W 5524   7.086   0.304   1.315
 1474W        W 5525   2.168   2.067  10.994
 1475W        W 5526   7.377   7.210   2.453
 1476W        W 5527   0.010   9.580   2.765
 1477W        W 5528   9.143   6.601   9.110
 1478W        W 5529   3.157   8.861   9.097
 1479W        W 5530   4.096   9.552  10.423
 1480W        W 5531   1.915   2.223   0.438
 1481W        W 5532   4.827  10.574   1.298
 1482W        W 5533   6.216   6.226   3.029
 1483W        W 5534   3.709   5.398  11.776
 1484W        W 5535   0.126   8.888   2.143
 1485W        W 5536   6.045   6.239  11.954
 1486W        W 5537   0.895   6.448   1.910
 1487W        W 5538   5.192   3.628  10.990
 1488W        W 5539   9.273   6.304  11.295
 1489W        W 5540   8.963   3.248  10.513
 1490W        W 5541   4.583   0.257  11.972
 1491W        W 5542   1.760   9.207  11.357
 1492W        W 5543   9.684   0.586   9.455
 1493W        W 5544   9.751   0.770  11.444
 1494W        W 5545  10.340  11.382   1.935
 1495W        W 5546  10.805   1.322  11.084
 1496W        W 5547   3.738   3.358  10.921
 1497W        W 5548   0.452   3.798   2.329
 1498W        W 5549   4.591   0.745   0.759
 1499W        W 5550   9.034   8.098  10.172
 1500W        W 5551  10.816   0.319   1.023
 1501W        W 5552  10.154  10.411   9.967
 1502W        W 5553   8.551  11.234   0.179
 1503W        W 5554   0.998  10.551   2.433
 1504W        W 5555   4.969  11.306   2.647
 1505W        W 5556   5.450   4.041   3.573
 1506W        W 5557   1.995   9.864   9.384
 1507W        W 5558   4.911   1.181   2.609
 1508W        W 5559   6.640   2.673  10.388
 1509W        W 5560   5.176   3.965   3.995
 1510W        W 5561   9.134   6.354   8.660
 1511W        W 5562   8.907   7.422   1.228
 1512W        W 5563  10.596   4.306  10.111
 1513W        W 5564   2.178   9.139  11.987
 1514W        W 5565   8.073   5.036   4.039
 1515W        W 5566   7.635   7.142   1.245
 1516W        W 5567   1.653   6.931   3.233
 1517W        W 5568   0.056   5.963   9.948
 1518W        W 5569   4.433  10.410  11.373
 1519W        W 5570   9.506   9.875   1.237
 1520W        W 5571   5.533   9.642  11.344
 1521W        W 5572   2.629   1.078   1.288
 1522W        W 5573   3.364   2.229   9.262
 1523W        W 5574  11.054   9.436  11.729
 1524W        W 5575   2.289   2.248   0.910
 1525W        W 5576   9.050   6.787   1.976
 1526W        W 5577   7.796   5.725   9.860
 1527W        W 5578  11.087   4.476  10.901
 1528W        W 5579   8.007   4.696   2.184
 1529W        W 5580   7.360   4.712  11.033
 1530W        W 5581   4.241  11.385   2.628
 1531W        W 5582   3.686   6.581   0.288
 1532W        W 5583   5.925   0.938   8.523
 1533W        W 5584  10.855   8.204   0.221
 1534W        W 5585  10.787   1.837  10.468
 1535W        W 5586   9.410   2.634   2.019
 1536W        W 5587   1.623   1.347   9.833
 1537W        W 5588   0.487  10.555   2.290
 1538W        W 5589   9.337  11.368  11.215
 1539W        W 5590   9.980  11.433   9.520
 1540W        W 5591   2.909   5.355   0.212
 1541W        W 5592   3.386   2.545  10.664
 1542W        W 5593   4.418   3.849  11.243
 1543W        W 5594   6.565   2.218   0.956
 1544W        W 5595   2.129   1.777   9.204
 1545W        W 5596   2.192  11.424  11.417
 1546W        W 5597   4.364   0.807   0.302
 1547W        W 5598   9.578   8.045  10.079
 1548W        W 5599   4.894   8.601  10.906
 1549W        W 5600   0.585   5.916   0.703
 1550W        W 5601   3.224   4.300  11.303
 1551W        W 5602   2.265   8.627   2.965
 1552W        W 5603   1.839   0.261   9.487
 1553W        W 5604   6.382   4.019  10.466
 1554W        W 5605   4.116  11.249  10.839
 1555W        W 5606   6.039   6.160   0.873
 1556W        W 5607   0.271   1.650   9.858
 1557W        W 5608   1.450  10.242   1.364
 1558W        W 5609   3.750   6.612   9.386
 1559W        W 5610   1.131   1.832   8.984
 1560W        W 5611   7.942   0.440   1.769
 1561W        W 5612   6.276   8.806   9.997
 1562W        W 5613   8.004   4.169  11.423
 1563W        W 5614   8.619   8.411   2.001
 1564W        W 5615   8.208   6.537   3.244
 1565W        W 5616   9.629   6.950   2.285
 1566W        W 5617   0.698  11.396   0.978
 1567W        W 5618   8.772   8.738   3.757
 1568W        W 5619  11.455   9.149  10.759
 1569W        W 5620   1.292   5.969   0.049
 1570W        W 5621   8.896   6.113   0.536
 1571W        W 5622   8.499   3.407   8.923
 1572W        W 5623   4.706   8.118  11.618
 1573W        W 5624  11.283   9.660   1.728
 1574W        W 5625   6.773   8.069   9.418
 1575W        W 5626   7.139  10.468   9.187
 1576W        W 5627  10.969  10.633  11.453
 1577W        W 5628   5.483   6.167   2.306
 1578W        W 5629   6.371   6.155   2.538
 1579W        W 5630   3.283   8.570  10.407
 1580W        W 5631   2.695   5.542   2.816
 1581W        W 5632   0.283   9.461  11.328
 1582W        W 5633   3.175   6.213   3.375
 1583W        W 5634   0.582   1.485   3.662
 1584W        W 5635   0.296   7.076  11.786
 1585W        W 5636   3.687   3.852  11.815
 1586W        W 5637   9.835   0.013   1.811
 1587W        W 5638  10.393   1.283  11.361
 1588W        W 5639   6.257   7.900   0.364
 1589W        W 5640  11.006  10.023   1.474
 1590W        W 5641  10.820   1.351   9.622
 1591W        W 5642  10.445   6.497  11.998
 1592W        W 5643   0.715   1.201   3.123
 1593W        W 5644   0.897   3.774   2.572
 1594W        W 5645   9.734   2.185   2.592
 1595W        W 5646   3.158   2.076  10.754
 1596W        W 5647   4.525   0.962  10.109
 1597W        W 5648   1.330   2.324   1.943
 1598W        W 5649   8.856   4.594   2.219
 1599W        W 5650   5.799   9.020   9.953
 1600W        W 5651  11.021   9.858   2.344
 1601W        W 5652   8.859   1.718   1.019
 1602W        W 5653   8.012   7.482   1.315
 1603W        W 5654   9.030   7.663   2.898
 1604W        W 5655  10.019   6.996   8.996
 1605W        W 5656   3.392   3.396   1.392
 1606W        W 5657   9.172   7.586  11.946
 1607W        W 5658  10.644   3.608   9.664
 1608W        W 5659   8.091  10.311  11.875
 1609W        W 5660  10.110   8.784   8.921
 1610W        W 5661   6.966   4.619  11.740
 1611W        W 5662   6.560   1.129   9.590
 1612W        W 5663   6.244   8.969   2.680
 1613W        W 5664  10.008   8.954  11.017
 1614W        W 5665   8.322   6.828   0.763
 1615W        W 5666   2.816  11.388   8.810
 1616W        W 5667   2.501   0.060  10.386
 1617W        W 5668   6.642  10.923   1.365
 1618W        W 5669   4.582   9.053  11.925
 1619W        W 5670   9.404   2.869   0.889
 1620W        W 5671   5.008   2.821   3.160
 1621W        W 5672   0.180  10.330   1.425
 1622W        W 5673   9.827   4.803   2.298
 1623W        W 5674  10.092   0.373   9.742
 1624W        W 5675   3.311   9.956   1.311
 1625W        W 5676  10.948   6.471   1.319
 1626W        W 5677   6.097   3.654   1.990
 1627W        W 5678   4.119   4.259  11.184
 1628W        W 5679   0.675  10.798   3.376
 1629W        W 5680   9.390   8.054   1.829
 1630W        W 5681   0.429   6.194  11.766
 1631W        W 5682   4.252  10.126   3.295
 1632W        W 5683   9.479   3.928   2.289
 1633W        W 5684   2.897   2.593  10.503
 1634W        W 5685   0.768   4.209   0.704
 1635W        W 5686   1.820   0.937   8.660
 1636W        W 5687   3.839   3.617  11.367
 1637W        W 5688   2.182   5.701   9.119
 1638W        W 5689   8.109   5.848  10.987
 1639W        W 5690   4.962   9.526   8.962
 1640W        W 5691   3.761   7.528   3.267
 1641W        W 5692   5.608   3.656   2.095
 1642W        W 5693   5.057   3.539   2.778
 1643W        W 5694   0.064   6.704   2.395
 1644W        W 5695  10.480   3.232   2.701
 1645W        W 5696   5.657   7.633   1.938
 1646W        W 5697   7.371   0.947   8.474
 1647W        W 5698   7.973   4.998  10.416
 1648W        W 5699   4.437   1.080  11.053
 1649W        W 5700   2.668   3.302   0.218
 1650W        W 5701   0.403   0.278   3.423
 1651W        W 5702   3.164   3.651  10.585
 1652W        W 5703   3.189   6.048   9.811
 1653W        W 5704   9.881   2.837   1.118
 1654W        W 5705   0.395   8.616  10.061
 1655W        W 5706   7.085   2.824   0.477
 1656W        W 5707   8.085  10.062   2.356
 1657W        W 5708   0.838   8.357  11.283
 1658W        W 5709   6.189   5.292   2.404
 1659W        W 5710   1.877   2.297   1.879
 1660W        W 5711   3.224   5.312   2.478
 1661W        W 5712   5.813   5.057   0.400
 1662W        W 5713   5.151   9.750  11.707
 1663W        W 5714   1.374   5.754   1.787
 1664W        W 5715   2.161   9.052   8.916
 1665W        W 5716  10.529   6.970   9.075
 1666W        W 5717   5.542   7.973   8.703
 1667W        W 5718   4.716   0.965   3.632
 1668W        W 5719   6.417   2.120   9.309
 1669W        W 5720   1.257   7.703   9.009
 1670W        W 5721  11.214   2.800   1.713
 1671W        W 5722   3.413   2.243   3.012
 1672W        W 5723  10.874   3.659   0.927
 1673W        W 5724  11.015   6.166   0.544
 1674W        W 5725   0.859   8.649  10.294
 1675W        W 5726   2.660   0.527  11.239
 1676W        W 5727  11.483   8.079   2.584
 1677W        W 5728   7.302  10.784   2.140
 1678W        W 5729  10.400   0.470   8.913
 1679W        W 5730   5.491   6.664   0.378
 1680W        W 5731   2.692   0.247   0.241
 1681W        W 5732   3.516   4.009   2.015
 1682W        W 5733   9.669   2.940  11.081
 1683W        W 5734   4.611   9.378   9.380
 1684W        W 5735   8.710   5.116   0.343
 1685W        W 5736   5.054   4.021   0.077
 1686W        W 5737   1.684   9.486   9.596
 1687W        W 5738   4.778   1.469  11.530
 1688W        W 5739   5.681   9.374  11.753
 1689W        W 5740   1.810   0.479   1.189
 1690W        W 5741   2.702   3.636   3.051
 1691W        W 5742  10.006   4.861   1.301
 1692W        W 5743   9.024   4.815   2.669
 1693W        W 5744   0.085   9.451   3.277
 1694W        W 5745   4.549   4.823   0.464
 1695W        W 5746  10.794   5.732   3.572
 1696W        W 5747   7.071   9.855   2.253
 1697W        W 5748   6.129   4.880  10.394
 1698W        W 5749  10.975   0.768   0.846
 1699W        W 5750   8.467  10.033  10.355
 1700W        W 5751   2.705   3.656   1.534
 1701W        W 5752   3.833  10.257   0.693
 1702W        W 5753  11.143   0.044  11.805
 1703W        W 5754   4.454   9.314   1.276
 1704W        W 5755   4.663  10.797   1.743
 1705W        W 5756   9.069  11.372  10.553
 1706W        W 5757   4.234   7.762  10.942
 1707W        W 5758   5.481  10.761   1.176
 1708W        W 5759   7.912   3.203  11.624
 1709W        W 5760   5.523   6.808  10.052
 1710W        W 5761  10.144   5.185  10.526
 1711W        W 5762   6.245   3.164   2.137
 1712W        W 5763   8.450   5.188   3.325
 1713W        W 5764  10.807   0.760   0.342
 1714W        W 5765  10.103   6.304  11.690
 1715W        W 5766   8.929   3.549   9.967
 1716W        W 5767   4.826   6.971   2.466
 1717W        W 5768   3.365   8.129  11.801
 1718W        W 5769   1.089   7.930  11.103
 1719W        W 5770   2.283   0.916   3.103
 1720W        W 5771   4.201   8.421   9.468
 1721W        W 5772   8.122   7.841   3.045
 1722W        W 5773   7.871  11.480  10.381
 1723W        W 5774   1.465   3.767   1.190
 1724W        W 5775   7.293   4.470   8.226
 1725W        W 5776   6.194  11.212   9.095
 1726W        W 5777   7.859   5.467   1.735
 1727W        W 5778   5.586   1.703   8.969
 1728W        W 5779   2.759   2.682   1.976
 1729W        W 5780   0.424   4.083   0.371
 1730W        W 5781   2.428   8.615   8.829
 1731W        W 5782   3.816  11.097   8.618
 1732W        W 5783   8.407  10.939  11.779
 1733W        W 5784   9.518   0.102   9.360
 1734W        W 5785   5.519   7.995   3.629
 1735W        W 5786   9.001   9.980   3.019
 1736W        W 5787   0.410   0.339   1.029
 1737W        W 5788   6.317   8.029   0.877
 1738W        W 5789   6.217   4.066   8.154
 1739W        W 5790   5.189   2.571  11.781
 1740W        W 5791   3.106   8.313   2.968
 1741W        W 5792   3.057   5.560   1.225
 1742W        W 5793   0.730  10.457  10.623
 1743W        W 5794   5.327   6.944   3.544
 1744W        W 5795   5.997   4.169   3.623
 1745W        W 5796   8.875   5.069   1.130
 1746W        W 5797   6.199   4.325   0.990
 1747W        W 5798   4.705   3.761  10.774
 1748W        W 5799   6.601   7.983   8.552
 1749W        W 5800   0.919   2.947   0.739
 1750W        W 5801   1.704   3.245   1.894
 1751W        W 5802  10.958   5.536   2.180
 1752W        W 5803   9.444   4.251  10.892
 1753W        W 5804   3.663   6.182   9.655
 1754W        W 5805   3.611   3.523   9.881
 1755W        W 5806   6.316   5.372  10.441
 1756W        W 5807   9.899   4.668   8.916
 1757W        W 5808  10.837   7.664   8.994
 1758W        W 5809   4.247   5.593  10.865
 1759W        W 5810   5.676  10.512   8.907
 1760W        W 5811   5.906   3.791   2.859
 1761W        W 5812   7.201  10.133   0.438
 1762W        W 5813   3.415   9.766   3.626
 1763W        W 5814  11.460   8.045   1.873
 1764W        W 5815   5.702   4.111   0.270
 1765W        W 5816   4.199   6.639   0.345
 1766W        W 5817   6.911   0.761  10.311
 1767W        W 5818  10.464  10.536   0.574
 1768W        W 5819   2.921   2.967  11.915
 1769W        W 5820  10.025   2.544  11.288
 1770W        W 5821   4.436   6.681   3.583
 1771W        W 5822   1.384   8.940   2.399
 1772W        W 5823   2.176   3.312  10.491
 1773W        W 5824   7.940   9.163   9.668
 1774W        W 5825   3.281   4.011   2.879
 1775W        W 5826  11.145   9.481   9.534
 1776W        W 5827   2.749   3.741   8.956
 1777W        W 5828   9.098   8.075   2.280
 1778W        W 5829   7.809   2.836   2.798
 1779W        W 5830   7.500   3.149  10.910
 1780W        W 5831   8.499   0.620   1.199
 1781W        W 5832   6.550   0.787  11.555
 1782W        W 5833   6.441   2.236   2.420
 1783W        W 5834   9.662   8.688  11.321
 1784W        W 5835   3.281   9.783   2.361
 1785W        W 5836   4.588   0.354   1.419
 1786W        W 5837   6.711   1.097  11.962
 1787W        W 5838   5.222   1.015   3.494
 1788W        W 5839   4.478   5.381  10.434
 1789W        W 5840   0.995   8.533   9.383
 1790W        W 5841  10.783   8.465  10.890
 1791W        W 5842   7.076   9.734   1.208
 1792W        W 5843   1.953   2.234   9.996
 1793W        W 5844   6.521   8.356   0.242
 1794W        W 5845   3.371   9.112  11.533
 1795W        W 5846   5.983   7.874  11.030
 1796W        W 5847   6.235   6.474   9.835
 1797W        W 5848   1.229   0.979   0.920
 1798W        W 5849   1.443   3.089   9.907
 1799W        W 5850   1.702   4.534   3.324
 1800W        W 5851   4.037   6.741   2.857
 1801W        W 5852   6.023   1.839   9.506
 1802W        W 5853  10.788   9.125   2.964
 1803W        W 5854   9.771   8.419   8.976
 1804W        W 5855   1.496   8.023   0.025
 1805W        W 5856   9.371   6.675   1.022
 1806W        W 5857   9.427   4.718   3.588
 1807W        W 5858   0.660   6.723  11.792
 1808W        W 5859   2.612  10.548  11.458
 1809W        W 5860   3.810   2.157   9.025
 1810W        W 5861  10.864  10.944  10.010
 1811W        W 5862  10.940   6.657   3.156
 1812W        W 5863   8.033  10.069  10.087
 1813W        W 5864   4.719  10.884   3.339
 1814W        W 5865   1.475   9.641   0.061
 1815W        W 5866   9.506   2.658   1.471
 1816W        W 5867   4.292  10.814  10.613
 1817W        W 5868   9.240   5.166  10.718
 1818W        W 5869   3.217   3.843  11.540
 1819W        W 5870   5.717   4.225   9.930
 1820W        W 5871   4.109  10.025  10.195
 1821W        W 5872   1.283   9.134   2.848
 1822W        W 5873   2.541  10.020   2.926
 1823W        W 5874   6.632   9.437   9.249
 1824W        W 5875   1.630   5.538   0.463
 1825W        W 5876   8.874   4.174   9.684
 1826W        W 5877   9.936   7.152   2.645
 1827W        W 5878   2.509   5.344   1.017
 1828W        W 5879   4.185   3.068  11.061
 1829W        W 5880   1.394   5.795   9.643
 1830W        W 5881   1.057   2.928   3.454
 1831W        W 5882   1.715   6.616  10.998
 1832W        W 5883   1.197  10.974   9.402
 1833W        W 5884   4.131   5.226  11.559
 1834W        W 5885   0.592  10.349   8.954
 1835W        W 5886   5.016   5.823   9.590
 1836W        W 5887   1.358   3.831   1.835
 1837W        W 5888   0.222   3.503   9.861
 1838W        W 5889   9.953   0.490   8.674
 1839W        W 5890   9.524   1.947   9.012
 1840W        W 5891   4.624   3.225   0.250
 1841W        W 5892   9.190   0.481   9.534
 1842W        W 5893   3.589   4.219   3.278
 1843W        W 5894   8.525   5.383  10.948
 1844W        W 5895   5.670   8.712   1.856
 1845W        W 5896  10.018   2.717   9.349
 1846W        W 5897  10.224   3.417  10.890
 1847W        W 5898   7.944   9.417   8.809
 1848W        W 5899   0.809   8.269   2.303
 1849W        W 5900   0.715   8.108   9.236
 1850W        W 5901   9.091   6.658   2.905
 1851W        W 5902   8.531  10.371   0.179
 1852W        W 5903   6.578   2.654  11.188
 1853W        W 5904   0.250   5.864   1.464
 1854W        W 5905   1.821   2.804   1.193
 1855W        W 5906   3.471   8.421   1.623
 1856W        W 5907   3.837   4.812  10.885
 1857W        W 5908   8.116   2.672   8.464
 1858W        W 5909   1.537  11.026   0.852
 1859W        W 5910   6.718   9.905   0.362
 1860W        W 5911   5.838   6.233  11.478
 1861W        W 5912   4.613  11.263   2.999
 1862W        W 5913   7.160   9.388   1.963
 1863W        W 5914  10.662  11.403  11.792
 1864W        W 5915   1.999   6.279  11.870
 1865W        W 5916   7.473   3.327   1.573
 1866W        W 5917   5.759   4.133   3.181
 1867W        W 5918   8.076  10.837   1.728
 1868W        W 5919   2.463  10.881  10.899
 1869W        W 5920  11.276   4.271   2.997
 1870W        W 5921   7.167   2.642   9.480
 1871W        W 5922   9.262   0.675   1.772
 1872W        W 5923   7.174   3.246   3.025
 1873W        W 5924   2.203   3.679   3.255
 1874W        W 5925  10.323   3.415   9.990
 1875W        W 5926   1.386   9.213   1.971
 1876W        W 5927   3.739   2.107   8.472
 1877W        W 5928  10.290   3.940   9.911
 1878W        W 5929   6.900   5.341   2.023
 1879W        W 5930   4.556   2.730   0.995
 1880W        W 5931   6.207   3.683   1.484
 1881W        W 5932   8.364  10.831   9.534
 1882W        W 5933   4.737   5.248   0.761
 1883W        W 5934   7.105   4.518   1.703
 1884W        W 5935  11.021  11.356   0.275
 1885W        W 5936   9.735   5.955  11.719
 1886W        W 5937   6.713  10.451   9.472
 1887W        W 5938   5.312  10.953   8.974
 1888W        W 5939   6.303   2.373   1.378
 1889W        W 5940   4.680   0.629   2.506
 1890W        W 5941   0.515   2.788  10.556
 1891W        W 5942  10.901   2.001   2.721
 1892W        W 5943   6.543   6.141   0.961
 1893W        W 5944   1.971  10.165   1.977
 1894W        W 5945   1.150   0.875   9.115
 1895W        W 5946   3.493   9.586   9.638
 1896W        W 5947  10.350   2.808   2.456
 1897W        W 5948   1.206   8.055   9.401
 1898W        W 5949   0.354   0.839   2.424
 1899W        W 5950   1.708   5.557   1.429
 1900W        W 5951   3.178   8.857   3.097
 1901W        W 5952  10.065   4.996  10.054
 1902W        W 5953   2.086   1.844   1.748
 1903W        W 5954   8.441   3.263  10.431
 1904W        W 5955   3.792   3.100  11.376
 1905W        W 5956   9.052   6.090   9.087
 1906W        W 5957  11.176   5.733  11.223
 1907W        W 5958   1.762   4.593   1.490
 1908W        W 5959   8.757   2.502   2.812
 1909W        W 5960  11.348  10.570  11.111
 1910W        W 5961  10.078   2.607  10.323
 1911W        W 5962   8.241   0.913  10.397
 1912W        W 5963   5.472   2.062   2.575
 1913W        W 5964   5.623   0.384   9.638
 1914W        W 5965  10.952   5.202  11.511
 1915W        W 5966  10.133   3.637   9.515
 1916W        W 5967   0.259   7.274   2.964
 1917W        W 5968   3.336  11.357   1.409
 1918W        W 5969   6.717   6.152   8.699
 1919W        W 5970   1.469   7.082   8.480
 1920W        W 5971  11.299   5.726   9.217
 1921W        W 5972  10.125   6.048   2.210
 1922W        W 5973   5.038  10.314   2.306
 1923W        W 5974   0.446   9.856   3.452
 1924W        W 5975   9.158   9.567   0.330
 1925W        W 5976   9.014  10.461   2.205
 1926W        W 5977   1.808   8.952   1.799
 1927W        W 5978   2.239   2.791  10.041
 1928W        W 5979   4.106   4.244   1.538
 1929W        W 5980   2.201   1.941   3.775
 1930W        W 5981   4.096   3.336  10.015
 1931W        W 5982   0.177   1.479   1.689
 1932W        W 5983   8.484  10.723   2.768
 1933W        W 5984   4.642   3.863   2.806
 1934W        W 5985   6.636   8.445  10.249
 1935W        W 5986   3.001  10.441  10.117
 1936W        W 5987   3.194   1.781   9.008
 1937W        W 5988   9.579  10.765   1.017
 1938W        W 5989   3.489   7.996   0.925
 1939W        W 5990   5.414   7.837   9.214
 1940W        W 5991   4.046   2.559   2.525
 1941W        W 5992   7.703  11.041   0.463
 1942W        W 5993   3.614   2.092   0.252
 1943W        W 5994   6.601   1.277   9.063
 1944W        W 5995   8.094   8.325   2.758
 1945W        W 5996   0.891   0.376   2.345
 1946W        W 5997   6.907   3.314   0.578
 1947W        W 5998   4.179   9.064   1.688
 1948W        W 5999   3.474   0.505   3.706
 1949W        W 6000   3.669   3.563   1.784
 1950W        W 6001   9.929   4.767  10.779
 1951W        W 6002   7.231   1.865   2.677
 1952W        W 6003   8.673   3.696  11.307
 1953W        W 6004  11.416   9.884   9.334
 1954W        W 6005   9.812   0.082   0.983
 1955W        W 6006   1.460   5.102   2.115
 1956W        W 6007   2.423   6.125   8.815
 1957W        W 6008   3.369   9.489   0.404
 1958W        W 6009   8.615   5.258  11.853
 1959W        W 6010   5.984   6.063  10.985
 1960W        W 6011  10.492   3.444   0.266
 1961W        W 6012   3.121  11.341  11.134
 1962W        W 6013   8.624   8.800   1.219
 1963W        W 6014   1.779   5.973   2.209
 1964W        W 6015   1.660  10.798   9.240
 1965W        W 6016  11.293   9.761  11.372
 1966W        W 6017   5.283   8.952   0.686
 1967W        W 6018  10.593  11.331  10.951
 1968W        W 6019  11.424   7.544   1.723
 1969W        W 6020   9.910   5.598   0.021
 1970W        W 6021   1.413   1.389   3.107
 1971W        W 6022   4.776   1.705  11.985
 1972W        W 6023   6.527   7.575   0.991
 1973W        W 6024   4.979   6.549   3.599
 1974W        W 6025   3.842   3.168   1.485
 1975W        W 6026   7.130   8.849  11.055
 1976W        W 6027   3.269   2.690   1.748
 1977W        W 6028   2.250   7.931   1.179
 1978W        W 6029   3.682   0.284   3.194
 1979W        W 6030   4.155  11.197  10.290
 1980W        W 6031  10.417   5.176  11.482
 1981W        W 6032   2.849   8.786   0.792
 1982W        W 6033  10.830   3.279   9.300
 1983W        W 6034   3.934   7.121   9.263
 1984W        W 6035   3.850   3.379  11.817
 1985W        W 6036  11.381   3.124  10.009
 1986W        W 6037   2.206   8.916  11.312
 1987W        W 6038   6.210  10.811  10.732
 1988W        W 6039   2.194   2.219  11.487
 1989W        W 6040   3.281   9.049  10.668
 1990W        W 6041   1.295   5.287   1.640
 1991W        W 6042   9.755   4.603  10.208
 1992W        W 6043   3.834   8.118   8.402
 1993W        W 6044   8.095  10.468   2.052
 1994W        W 6045   6.959   8.432   0.550
 1995W        W 6046   5.538   2.360   9.748
 1996W        W 6047   0.698   5.977   1.218
 1997W        W 6048   1.675   6.704  11.982
 1998W        W 6049   6.082   8.925   1.635
 1999W        W 6050   0.621   1.846   9.058
 2000W        W 6051   2.759   1.122  10.437
 2001W        W 6052   6.056   0.421   2.260
 2002W        W 6053   8.569   9.731   1.626
 2003W        W 6054  11.431   0.908  11.848
 2004W        W 6055   7.216   7.828   9.943
 2005W        W 6056   8.636  10.012  11.096
 2006W        W 6057   3.348   2.237   9.780
 2007W        W 6058   1.801   6.442   1.935
 2008W        W 6059   3.667   8.914   9.022
 2009W        W 6060   2.256   3.679  11.277
 2010W        W 6061  10.062   0.203   1.419
 2011W        W 6062   8.266   1.554  11.299
 2012W        W 6063   2.897   1.856  11.228
 2013W        W 6064   8.369   9.605   0.016
 2014W        W 6065   0.328   7.937   9.545
 2015W        W 6066   2.691   3.463   8.529
 2016W        W 6067   1.297   9.357   3.575
 2017W        W 6068  10.834   7.024  10.834
 2018W        W 6069   3.845   7.481   0.244
 2019W        W 6070   1.974   7.713   3.162
 2020W        W 6071   1.828   1.346   2.042
 2021W        W 6072   9.396   9.352  11.876
 2022W        W 6073   1.622  10.515   1.779
 2023W        W 6074   7.990  11.428   0.913
 2024W        W 6075   8.581   0.590   2.262
 2025W        W 6076   4.269   4.589  11.684
 2026W        W 6077   2.351   7.586   4.083
 2027W        W 6078   9.508   9.826   8.995
 2028W        W 6079   8.060   5.319   3.614
 2029W        W 6080   9.652  10.968  11.284
 2030W        W 6081   8.900   3.628  10.847
 2031W        W 6082   6.132   9.486   0.778
 2032W        W 6083   2.623  10.885   0.211
 2033W        W 6084  10.532   0.500   3.159
 2034W        W 6085   1.558   2.426   0.103
 2035W        W 6086  10.881   1.232   8.614
 2036W        W 6087   9.100  11.254   2.188
 2037W        W 6088   8.164   7.540   1.829
 2038W        W 6089   3.119   1.469   3.340
 2039W        W 6090   2.243   4.889   3.777
 2040W        W 6091   0.133   6.782  10.143
 2041W        W 6092  10.357   7.012  11.977
 2042W        W 6093  10.812   6.110  11.202
 2043W        W 6094   1.586   2.831   3.197
 2044W        W 6095  10.087   2.732   8.841
 2045W        W 6096   4.816  10.064   1.366
 2046W        W 6097   5.700  11.353   8.941
 2047W        W 6098   2.776   4.566   1.465
 2048W        W 6099   4.490  11.258  11.951
 2049W        W 6100   8.961   9.490  10.289
 2050W        W 6101   3.033   7.802   0.688
 2051W        W 6102   5.682   8.172   1.821
 2052W        W 6103   6.412   3.326   9.366
 2053W        W 6104   1.111   2.189   1.498
 2054W        W 6105   5.555   5.705   0.456
 2055W        W 6106   8.912   5.928  11.417
 2056W        W 6107  11.491   6.727   0.863
 2057W        W 6108   6.737  10.419   1.495
 2058W        W 6109   4.368   6.544   0.984
 2059W        W 6110  10.766   5.159   1.384
 2060W        W 6111   0.365  10.364   9.909
 2061W        W 6112   6.961   3.746   2.269
 2062W        W 6113   4.021   7.928   0.970
 2063W        W 6114   5.502   3.305   1.707
 2064W        W 6115  11.253   0.405  11.092
 2065W        W 6116   1.844  10.411   2.811
 2066W        W 6117   1.000   9.936   1.341
 2067W        W 6118  10.451   8.954  11.291
 2068W        W 6119   9.658   8.157   9.572
 2069W        W 6120   1.903   2.523  11.755
 2070W        W 6121   5.967   6.180   8.920
 2071W        W 6122   0.636   1.648   1.868
 2072W        W 6123   2.216  11.328  10.907
 2073W        W 6124   4.179  10.282   2.379
 2074W        W 6125   5.193   9.778   4.140
 2075W        W 6126   3.055   8.706   8.201
 2076W        W 6127   2.858   2.936  10.898
 2077W        W 6128   7.384   3.001  11.759
 2078W        W 6129   5.453   4.664   0.361
 2079W        W 6130   1.795   0.194   3.245
 2080W        W 6131  10.901   5.976   2.411
 2081W        W 6132   6.947   9.921  11.480
 2082W        W 6133   5.743   4.768  10.057
 2083W        W 6134  11.469   5.062   1.831
 2084W        W 6135   8.173   2.929   8.946
 2085W        W 6136   4.112   3.027   2.729
 2086W        W 6137   3.598  11.056   0.395
 2087W        W 6138   2.374   9.035   3.268
 2088W        W 6139   1.674   1.880   0.772
 2089W        W 6140   0.289  10.060  10.650
 2090W        W 6141  10.452   5.467   9.368
 2091W        W 6142  10.807   9.684  10.443
 2092W        W 6143   1.382   1.772  11.286
 2093W        W 6144   9.251   3.915   1.791
 2094W        W 6145   2.638   3.189   1.804
 2095W        W 6146   8.615   1.813   9.562
 2096W        W 6147   8.199  11.092  10.454
 2097W        W 6148   8.227   5.065   0.474
 2098W        W 6149   2.409   5.332   0.027
 2099W        W 6150   3.159   7.960   1.313
 2100W        W 6151   3.674   7.571   9.239
 2101W        W 6152   1.290   9.437   2.422
 2102W        W 6153   7.639  10.375   8.991
 2103W        W 6154   0.080   0.514   9.817
 2104W        W 6155  10.384   2.431   0.309
 2105W        W 6156  11.039   5.989  11.649
 2106W        W 6157   1.963   3.180   9.159
 2107W        W 6158  10.024   6.163   9.907
 2108W        W 6159   6.158  10.830   2.870
 2109W        W 6160  11.405   2.740   2.191
 2110W        W 6161   7.151   7.022  11.541
 2111W        W 6162   0.052   3.364  11.384
 2112W        W 6163   5.742   0.820   2.207
 2113W        W 6164   0.200   3.177  11.859
 2114W        W 6165   3.890   1.041  11.386
 2115W        W 6166   1.890   0.238  10.874
 2116W        W 6167   6.022   4.390  10.304
 2117W        W 6168   9.347   7.583   8.814
 2118W        W 6169   3.316   5.120   9.654
 2119W        W 6170   3.397   3.253   3.142
 2120W        W 6171   3.598   9.321  10.259
 2121W        W 6172  10.177   0.292   2.885
 2122W        W 6173   3.986   8.910   9.447
 2123W        W 6174   5.532   8.299   4.045
 2124W        W 6175   2.193   8.412   2.108
 2125W        W 6176  10.413   6.524   2.420
 2126W        W 6177   8.105   9.978   0.262
 2127W        W 6178  11.325   3.910   1.021
 2128W        W 6179   0.841   7.429   1.744
 2129W        W 6180  10.567   6.806   1.313
 2130W        W 6181   1.938   9.689  11.323
 2131W        W 6182   3.298   2.226  10.280
 2132W        W 6183   8.555   2.641   3.616
 2133W        W 6184   4.610   2.403   9.580
 2134W        W 6185   3.166   9.417  11.928
 2135W        W 6186   2.114   5.606   0.338
 2136W        W 6187  10.033   1.220   2.589
 2137W        W 6188   1.043   3.650   1.480
 2138W        W 6189   9.603   9.803  10.803
 2139W        W 6190   0.799   6.128  10.403
 2140W        W 6191  10.037   0.813   9.105
 2141W        W 6192   9.118   1.221   3.242
 2142W        W 6193   9.253   8.346  11.471
 2143W        W 6194   1.886   1.931   1.277
 2144W        W 6195   4.369   4.395   0.171
 2145W        W 6196   8.650   1.750   0.432
 2146W        W 6197   9.756   6.715   1.842
 2147W        W 6198   1.669   9.437   1.618
 2148W        W 6199   4.498   8.376  10.066
 2149W        W 6200   3.754   9.771   8.844
 2150W        W 6201   3.662   0.263   2.263
 2151W        W 6202   0.446   8.851   9.302
 2152W        W 6203   2.451   3.217   3.195
 2153W        W 6204   5.044   2.975  10.024
 2154W        W 6205   5.227   8.615   3.075
 2155W        W 6206   1.441   1.743  11.787
 2156W        W 6207   9.989  10.506  11.814
 2157W        W 6208   4.552   4.189   3.390
 2158W        W 6209   4.124   2.553   0.772
 2159W        W 6210   8.286   3.697   1.854
 2160W        W 6211   0.560  10.340   1.831
 2161W        W 6212   7.872   4.100   9.335
 2162W        W 6213   0.821   3.627   9.042
 2163W        W 6214   7.055   3.370  11.059
 2164W        W 6215   1.610  10.542  10.387
 2165W        W 6216   6.623   4.544   0.833
 2166W        W 6217   5.253   1.159   9.563
 2167W        W 6218   0.129   7.077   1.251
 2168W        W 6219   2.122  11.324   2.330
 2169W        W 6220   7.068   0.393   9.437
 2170W        W 6221   2.756   5.644  11.772
 2171W        W 6222   5.566   9.439   2.331
 2172W        W 6223   0.853   4.829  10.927
 2173W        W 6224   1.753   8.068  10.064
 2174W        W 6225   2.507   9.022   1.557
 2175W        W 6226   9.637   8.455   1.643
 2176W        W 6227   8.429   2.332   3.199
 2177W        W 6228   7.025   9.734   0.719
 2178W        W 6229   9.585   7.462  11.639
 2179W        W 6230  11.260   6.074   1.479
 2180W        W 6231  10.590   6.117   2.041
 2181W        W 6232   7.721   0.673   9.284
 2182W        W 6233   1.518   9.497  11.000
 2183W        W 6234   9.982   1.749   2.172
 2184W        W 6235   3.214   6.056   1.269
 2185W        W 6236   3.789   9.274  11.269
 2186W        W 6237   5.097   5.572   0.255
 2187W        W 6238   8.645   3.741  10.395
 2188W        W 6239   0.925   9.775  11.407
 2189W        W 6240   9.899   8.884   2.390
 2190W        W 6241  11.058   3.160   0.972
 2191W        W 6242   9.811   7.495   9.043
 2192W        W 6243  10.823   7.530  10.909
 2193W        W 6244   5.457   4.074   9.534
 2194W        W 6245   7.111   7.458  11.273
 2195W        W 6246   1.774   0.511   1.720
 2196W        W 6247   9.252   0.777  10.738
 2197W        W 6248   3.731   3.284   1.001
 2198W        W 6249   8.378   6.318   0.771
 2199W        W 6250   1.784   9.028   9.804
 2200W        W 6251   3.134   0.251   0.012
 2201W        W 6252   1.352   7.094   0.080
 2202W        W 6253   2.858   7.917  10.941
 2203W        W 6254  10.455  11.381   3.000
 2204W        W 6255   0.789   9.884  10.040
 2205W        W 6256   6.452   9.976   1.832
 2206W        W 6257   6.554   0.853   3.371
 2207W        W 6258   7.661   6.346   1.173
 2208W        W 6259   7.909   5.577   0.201
 2209W        W 6260   9.397   3.752  10.822
 2210W        W 6261  10.431   6.988   2.684
 2211W        W 6262   2.276   8.448   0.188
 2212W        W 6263   5.106   7.024   1.867
 2213W        W 6264   8.466  11.321  11.207
 2214W        W 6265   5.571  10.256   3.419
 2215W        W 6266  10.455   2.753  11.889
 2216W        W 6267   6.650   0.919  11.050
 2217W        W 6268  11.018   1.308   2.932
 2218W        W 6269   7.602   3.052   3.232
 2219W        W 6270   8.901   4.233  11.643
 2220W        W 6271   1.597  10.248   0.155
 2221W        W 6272  10.650   3.540   1.814
 2222W        W 6273  11.116   9.949  10.902
 2223W        W 6274   7.531   6.249  11.525
 2224W        W 6275   4.585   9.303   0.739
 2225W        W 6276  10.290  11.117   9.247
 2226W        W 6277   5.426   3.762   3.059
 2227W        W 6278   5.620   4.848   0.825
 2228W        W 6279   0.519   0.734  10.029
 2229W        W 6280   1.476   8.678   0.547
 2230W        W 6281   7.390   5.764  11.519
 2231W        W 6282   0.456   3.558  11.648
 2232W        W 6283  10.233   3.678   3.341
 2233W        W 6284   1.391   3.536   8.970
 2234W        W 6285  10.656   7.492  10.310
 2235W        W 6286  10.799   9.093   9.590
 2236W        W 6287   3.529   4.653   0.139
 2237W        W 6288  10.566  10.553   2.311
 2238W        W 6289   6.610   6.328   9.532
 2239W        W 6290   6.218   0.634   0.475
 2240W        W 6291   6.492   7.510  10.527
 2241W        W 6292   5.145   3.537   9.158
 2242W        W 6293   4.629   2.464   1.425
 2243W        W 6294   4.041   4.763   0.293
 2244W        W 6295  10.929   6.905  11.481
 2245W        W 6296   8.087   5.917   1.562
 2246W        W 6297  10.458   4.099  11.417
 2247W        W 6298   6.736   9.808  10.080
 2248W        W 6299   8.409   3.501   9.980
 2249W        W 6300   3.312   9.304   1.320
 2250W        W 6301   8.249   1.181   9.968
 2251W        W 6302   9.750   6.058  10.345
 2252W        W 6303   2.690   1.190   3.244
 2253W        W 6304   4.244   7.170   0.222
 2254W        W 6305   3.725   1.818  10.982
 2255W        W 6306   1.782   3.703   2.603
 2256W        W 6307   7.933   9.793   0.872
 2257W        W 6308  11.283   7.277  10.964
 2258W        W 6309  10.507   7.853   2.691
 2259W        W 6310   9.405   8.498  10.432
 2260W        W 6311   6.686  10.299   9.987
 2261W        W 6312   7.101   5.160  11.803
 2262W        W 6313   2.386   9.466   2.148
 2263W        W 6314   4.355   8.574   2.912
 2264W        W 6315  10.416   7.988   0.058
 2265W        W 6316   5.554   7.125   2.179
 2266W        W 6317   2.904   7.258  10.301
 2267W        W 6318   3.812   4.570   9.070
 2268W        W 6319   0.374   0.988  10.517
 2269W        W 6320  11.220   3.693   9.984
 2270W        W 6321   6.212   3.131   2.747
 2271W        W 6322   1.186   8.770  11.935
 2272W        W 6323   3.554   8.463   2.224
 2273W        W 6324   0.073  10.105  11.109
 2274W        W 6325   0.370   6.393   9.264
 2275W        W 6326   3.738  10.523   2.450
 2276W        W 6327   1.944   4.312  11.917
 2277W        W 6328   7.968   1.460   2.595
 2278W        W 6329   2.220  10.790  10.078
 2279W        W 6330   1.232  10.934  11.855
 2280W        W 6331   7.563   4.509   0.973
 2281W        W 6332   4.580   0.674   8.980
 2282W        W 6333   7.721   8.476  10.859
 2283W        W 6334   3.399   1.746  10.426
 2284W        W 6335   8.540   8.176  10.437
 2285W        W 6336   3.376   0.265   8.358
 2286W        W 6337   6.219   7.000  11.398
 2287W        W 6338   0.465   8.151   1.716
 2288W        W 6339   4.465   0.391   3.314
 2289W        W 6340   6.313   6.964   2.655
 2290W        W 6341   2.450   6.619   0.178
 2291W        W 6342   2.942   5.109  10.015
 2292W        W 6343   5.934  10.919   0.959
 2293W        W 6344   8.986   9.088   0.031
 2294W        W 6345   0.565  11.480   2.299
 2295W        W 6346   8.695   0.392   3.242
 2296W        W 6347   4.577  10.403  10.854
 2297W        W 6348   4.254   7.628   2.709
 2298W        W 6349   1.679   9.010   8.754
 2299W        W 6350   5.495   0.184   0.898
 2300W        W 6351   5.320   6.877  11.283
 2301W        W 6352  10.287   9.879   2.641
 2302W        W 6353   2.574   8.526  11.504
 2303W        W 6354  10.893   4.346  11.351
 2304W        W 6355   1.412   2.847   0.871
 2305W        W 6356   3.128  11.362   9.693
 2306W        W 6357   7.539   7.535   9.380
 2307W        W 6358   6.630   1.970   0.042
 2308W        W 6359   8.380   5.528   1.677
 2309W        W 6360   2.171  10.005  10.374
 2310W        W 6361   2.795   7.037   0.159
 2311W        W 6362   2.307   7.621   2.766
 2312W        W 6363  11.399   7.705   2.227
 2313W        W 6364   2.737   6.033   9.553
 2314W        W 6365   6.137   0.899   2.520
 2315W        W 6366   0.048   2.700   1.313
 2316W        W 6367   7.322   0.349  11.969
 2317W        W 6368   4.530  10.439   9.824
 2318W        W 6369   9.485   5.565   1.592
 2319W        W 6370   5.609   9.918   9.995
 2320W        W 6371  10.841   0.226   8.834
 2321W        W 6372   6.201   8.453   2.627
 2322W        W 6373   6.951   6.023   1.699
 2323W        W 6374   8.423   9.495   9.014
 2324W        W 6375   6.768   8.957   8.303
 2325W        W 6376   8.366  11.204   1.180
 2326W        W 6377   6.509   3.649   0.704
 2327W        W 6378   5.592   6.929   3.097
 2328W        W 6379   8.027   6.604   2.246
 2329W        W 6380   9.450   0.053   2.387
 2330W        W 6381   1.975   4.604  11.457
 2331W        W 6382   6.464   2.811   1.158
 2332W        W 6383   1.939   7.616   1.442
 2333W        W 6384   4.499   8.253  11.150
 2334W        W 6385  10.624   9.234   1.016
 2335W        W 6386   6.427   4.337  11.421
 2336W        W 6387   3.212   1.827   0.425
 2337W        W 6388   9.033   6.714   3.797
 2338W        W 6389   1.751   8.664   1.352
 2339W        W 6390   7.478   4.670   0.501
 2340W        W 6391   3.001   0.459   1.996
 2341W        W 6392   0.722   6.765   3.490
 2342W        W 6393   8.007   5.093   0.951
 2343W        W 6394   3.689   3.056  10.113
 2344W        W 6395   9.709   6.203   0.703
 2345W        W 6396   7.777   3.765   8.962
 2346W        W 6397   2.995   9.702   9.576
 2347W        W 6398   8.154  10.884   0.229
 2348W        W 6399  10.403   5.817   1.248
 2349W        W 6400   6.108   0.409   0.926
 2350W        W 6401   0.044   2.297   0.977
 2351W        W 6402   5.698   0.894   0.011
 2352W        W 6403   9.792   4.262   0.009
 2353W        W 6404   0.214   6.778   2.928
 2354W        W 6405   0.232  11.016   9.383
 2355W        W 6406   5.464   3.222  10.772
 2356W        W 6407   2.144   6.829  11.267
 2357W        W 6408   4.078   0.469   2.936
 2358W        W 6409   2.771   5.558   2.290
 2359W        W 6410  10.887   6.484   2.244
 2360W        W 6411   8.375   2.411  10.599
 2361W        W 6412   6.289   5.219   0.540
 2362W        W 6413   8.973   7.945   1.277
 2363W        W 6414  10.858   7.255  11.965
 2364W        W 6415   5.106   2.250   8.607
 2365W        W 6416   5.877   6.733  11.990
 2366W        W 6417   3.623   5.586   1.180
 2367W        W 6418   2.821  10.007   2.497
 2368W        W 6419   7.658   9.955   1.335
 2369W        W 6420   8.127   5.789   2.074
 2370W        W 6421   7.626   2.905  10.433
 2371W        W 6422   9.096   4.096   1.319
 2372W        W 6423   6.190   4.108  10.978
 2373W        W 6424   7.787   3.455   2.933
 2374W        W 6425   6.056   9.622  11.337
 2375W        W 6426  10.388   1.153  10.829
 2376W        W 6427   7.752   4.391   3.359
 2377W        W 6428   6.254   6.474   1.255
 2378W        W 6429  10.992   2.817   3.033
 2379W        W 6430   7.249   6.593  11.892
 2380W        W 6431   7.962   2.112   3.426
 2381W        W 6432   0.378   3.187  10.257
 2382W        W 6433   0.072  11.328   2.352
 2383W        W 6434   1.623   1.776   8.531
 2384W        W 6435   4.094   3.948   0.130
 2385W        W 6436   8.509   4.681   1.862
 2386W        W 6437   9.795   2.088   3.098
 2387W        W 6438   0.893   5.545   0.930
 2388W        W 6439   7.942   3.254  10.650
 2389W        W 6440   3.244   7.889   2.700
 2390W        W 6441   1.792   5.522   1.955
 2391W        W 6442   2.947  10.469   2.353
 2392W        W 6443   5.440   3.748   9.985
 2393W        W 6444   0.082   6.975   0.410
 2394W        W 6445   1.589   7.580   8.626
 2395W        W 6446   6.658   2.432   3.170
 2396W        W 6447   8.500   1.287   0.210
 2397W        W 6448   1.882   2.781   1.701
 2398W        W 6449   3.609   1.793   0.842
 2399W        W 6450   4.567  11.323   1.918
 2400W        W 6451   0.942   5.511   1.942
 2401W        W 6452   5.298   7.086   2.660
 2402W        W 6453   7.099  10.847  11.695
 2403W        W 6454  10.750   8.517  11.406
 2404W        W 6455   9.822   7.083  11.075
 2405W        W 6456   4.660   1.690  11.075
 2406W        W 6457  10.012   6.559   0.908
 2407W        W 6458   2.928   5.093   9.090
 2408W        W 6459  10.796   4.639  10.458
 2409W        W 6460   0.321   6.280  10.262
 2410W        W 6461   3.278   6.910   0.310
 2411W        W 6462   6.182   1.447   0.645
 2412W        W 6463   1.834   7.149  11.790
 2413W        W 6464   0.733   9.389   1.622
 2414W        W 6465   4.019   1.767   9.753
 2415W        W 6466   7.402  10.803  10.915
 2416W        W 6467   0.667   0.442   0.362
 2417W        W 6468  11.158   6.899   2.167
 2418W        W 6469   5.250   2.631  11.284
 2419W        W 6470   6.540  10.493  11.755
 2420W        W 6471   9.862   6.924   8.471
 2421W        W 6472   3.349   3.629   0.938
 2422W        W 6473   7.902   1.829   9.600
 2423W        W 6474   1.353   9.927   2.392
 2424W        W 6475   9.883   7.103   9.975
 2425W        W 6476   5.383   1.197   0.311
 2426W        W 6477   6.983  10.845  11.182
 2427W        W 6478   5.477   4.333  10.388
 2428W        W 6479   1.825   7.061  10.786
 2429W        W 6480   2.195   8.076   3.463
 2430W        W 6481   5.363   2.257   0.335
 2431W        W 6482   9.018   0.079   0.506
 2432W        W 6483   8.992   5.555  11.075
 2433W        W 6484   1.872   1.160   2.889
 2434W        W 6485   2.800   5.946   0.959
 2435W        W 6486   4.333   3.912   1.862
 2436W        W 6487  10.546   9.313  10.931
 2437W        W 6488  10.100   1.407   3.071
 2438W        W 6489   8.869  10.785   9.976
 2439W        W 6490  10.925   9.951   9.569
 2440W        W 6491  10.083   4.766   1.847
 2441W        W 6492   0.581   0.446   2.760
 2442W        W 6493   8.181   9.734   2.748
 2443W        W 6494   2.225   6.674  10.052
 2444W        W 6495   0.932  10.815   1.453
 2445W        W 6496   2.707   1.449  10.001
 2446W        W 6497   9.961   9.191   8.662
 2447W        W 6498   6.504   7.842   1.435
 2448W        W 6499   0.272   4.751   3.319
 2449W        W 6500   8.362   9.183  10.612
 2450W        W 6501   3.221   3.145   0.889
 2451W        W 6502  10.932  11.477  10.020
 2452W        W 6503   8.590   5.545   9.546
 2453W        W 6504  10.568   9.004  10.017
 2454W        W 6505   1.279   1.492   0.914
 2455W        W 6506   8.509  10.418   2.339
 2456W        W 6507  11.165   5.616   3.206
 2457W        W 6508   6.004   6.703  10.219
 2458W        W 6509   7.318   3.221   1.072
 2459W        W 6510   9.538   4.637   9.281
 2460W        W 6511   3.594   5.058  11.392
 2461W        W 6512   2.933  10.550   0.503
 2462W        W 6513   6.204   1.049  11.284
 2463W        W 6514   5.678   8.796   3.262
 2464W        W 6515   2.745   0.466   0.696
 2465W        W 6516   8.490   7.655   1.422
 2466W        W 6517   3.165   4.267   1.711
 2467W        W 6518   0.105   0.397   2.992
 2468W        W 6519   8.313   5.504   4.030
 2469W        W 6520   1.652   9.491   2.788
 2470W        W 6521  10.692   1.257   0.142
 2471W        W 6522   6.589   5.035   0.911
 2472W        W 6523   2.207   9.483   9.678
 2473W        W 6524   1.316   6.148   2.988
 2474W        W 6525   1.947   4.599   2.885
 2475W        W 6526   8.938   5.889   9.825
 2476W        W 6527   2.198   6.653   2.641
 2477W        W 6528  11.026   8.724   3.197
 2478W        W 6529   8.499   4.172  11.316
 2479W        W 6530   3.150   4.999   3.005
 2480W        W 6531   3.632   9.844  10.265
 2481W        W 6532   7.778   0.275  11.782
 2482W        W 6533   6.195  10.819   9.478
 2483W        W 6534  10.545   8.202   2.323
 2484W        W 6535   5.191  11.497   2.237
 2485W        W 6536   0.530   5.028   0.243
 2486W        W 6537   3.337   4.225  11.855
 2487W        W 6538   3.880   1.694  10.272
 2488W        W 6539   3.669   0.243   0.849
 2489W        W 6540   3.227   9.758   0.844
 2490W        W 6541   7.470   8.924   9.674
 2491W        W 6542   5.248   8.766   1.157
 2492W        W 6543   2.297  11.417   2.824
 2493W        W 6544   9.031   3.135   2.286
 2494W        W 6545   1.407   0.750   1.391
 2495W        W 6546  10.880   0.024  11.333
 2496W        W 6547   8.019   1.791   2.985
 2497W        W 6548  11.270  11.230   9.265
 2498W        W 6549   9.909   5.249   0.383
 2499W        W 6550   5.524   5.371   0.034
 2500W        W 6551   3.145   9.192   9.700
 2501W        W 6552   3.633   4.952   2.254
 2502W        W 6553   1.783   7.667   9.132
 2503W        W 6554   9.324   8.461   9.892
 2504W        W 6555   8.984   6.382   0.120
 2505W        W 6556  10.616   8.955   1.914
 2506W        W 6557   3.268  11.442   0.483
 2507W        W 6558   1.131   9.366   1.324
 2508W        W 6559   5.296   0.495   3.549
 2509W        W 6560   7.139  10.834   2.641
 2510W        W 6561   2.071   7.232   3.292
 2511W        W 6562   1.716   5.034   3.090
 2512W        W 6563   5.691   5.674  10.066
 2513W        W 6564   0.096   3.570   2.045
 2514W        W 6565   0.893   7.185  11.857
 2515W        W 6566   9.685   7.992  10.929
 2516W        W 6567   1.329   3.638  11.197
 2517W        W 6568   8.281  10.927   2.313
 2518W        W 6569   1.765   4.733  10.567
 2519W        W 6570   9.824   5.668   1.982
 2520W        W 6571   3.462   8.030   9.358
 2521W        W 6572   2.604   4.132   3.104
 2522W        W 6573   6.259   1.150   9.992
 2523W        W 6574   5.497   3.741   2.561
 2524W        W 6575   3.066   8.641  11.425
 2525W        W 6576   9.516   5.753   1.118
 2526W        W 6577   8.348   4.179   9.531
 2527W        W 6578   2.256   0.271  11.970
 2528W        W 6579   6.524   4.018   3.655
 2529W        W 6580   4.714   9.725   0.985
 2530W        W 6581   2.758   6.226   1.413
 2531W        W 6582  11.003   6.530  10.716
 2532W        W 6583   1.705   4.079   0.357
 2533W        W 6584   2.919   0.305  10.706
 2534W        W 6585  10.452   9.446   1.872
 2535W        W 6586   2.749   7.573  11.321
 2536W        W 6587   0.404   3.112   1.383
 2537W        W 6588   4.675  10.393   3.157
 2538W        W 6589   0.041   9.638  10.891
 2539W        W 6590   5.637   6.204   1.816
 2540W        W 6591   6.229   8.090   9.499
 2541W        W 6592   2.640   5.114  11.271
 2542W        W 6593   6.057   2.015  11.376
 2543W        W 6594   1.369   4.189  11.999
 2544W        W 6595   6.587   7.604   1.896
 2545W        W 6596   3.742   9.413   3.825
 2546W        W 6597   0.843   7.241   9.068
 2547W        W 6598   7.550   2.279   2.189
 2548W        W 6599  11.325   6.995   3.152
 2549W        W 6600   7.129  10.514   9.879
 2550W        W 6601   8.917   9.210  10.720
 2551W        W 6602  10.330   2.774   0.842
 2552W        W 6603   8.741   6.839  11.954
 2553W        W 6604  11.070   8.979   1.002
 2554W        W 6605  10.469   0.779   9.860
 2555W        W 6606  10.407   3.690   0.715
 2556W        W 6607   1.861   5.860   9.864
 2557W        W 6608   9.785  10.615   2.799
 2558W        W 6609   9.766   0.926  11.935
 2559W        W 6610  10.866   3.497  10.827
 2560W        W 6611   8.856   5.626   9.097
 2561W        W 6612   5.752   3.664   3.425
 2562W        W 6613   3.410   9.982   8.485
 2563W        W 6614   7.483   9.201   0.237
 2564W        W 6615  10.287   5.314   3.913
 2565W        W 6616   0.175   5.656   3.269
 2566W        W 6617   1.693   5.105  11.508
 2567W        W 6618  10.407   8.112  11.467
 2568W        W 6619   6.856   7.210   3.596
 2569W        W 6620   9.666   5.067  10.384
 2570W        W 6621   0.247   1.928   0.343
 2571W        W 6622   7.065   9.489   0.280
 2572W        W 6623   3.020   4.690   9.648
 2573W        W 6624   6.448   4.747  10.029
 2574W        W 6625   4.760   0.484   9.420
 2575W        W 6626   4.901   4.383  10.350
 2576W        W 6627   7.066   1.811   3.155
 2577W        W 6628   8.935   6.317   9.537
 2578W        W 6629   9.845   9.582   2.597
 2579W        W 6630   4.614   8.355  10.565
 2580W        W 6631   4.833   5.704   1.562
 2581W        W 6632   2.212   2.069   9.603
 2582W        W 6633  11.222   5.303   8.927
 2583W        W 6634   6.484   2.701   2.193
 2584W        W 6635   9.360   8.521   0.757
 2585W        W 6636  10.333   3.140   3.709
 2586W        W 6637   2.912   2.454   9.980
 2587W        W 6638  10.592   3.678   2.962
 2588W        W 6639   3.596   7.570  10.260
 2589W        W 6640   1.739   8.423  10.482
 2590W        W 6641   4.986   3.513   0.939
 2591W        W 6642   0.982   2.629   1.712
 2592W        W 6643   3.811  10.940   9.495
 2593W        W 6644  11.392   2.151   3.430
 2594W        W 6645   8.916   5.095   9.805
 2595W        W 6646  11.380   5.497   3.737
 2596W        W 6647   7.343   6.439   0.759
 2597W        W 6648   1.171   0.931   3.217
 2598W        W 6649   3.158   0.185   2.401
 2599W        W 6650   2.730   6.890   9.916
 2600W        W 6651   8.049   3.819  11.043
 2601W        W 6652   9.703   5.224   2.546
 2602W        W 6653   7.256  10.014   8.967
 2603W        W 6654   2.284   5.756   9.606
 2604W        W 6655   3.597   1.768   9.361
 2605W        W 6656  10.984   4.805   9.357
 2606W        W 6657   8.498  11.203   3.696
 2607W        W 6658   3.900   9.320   1.336
 2608W        W 6659   8.044   9.197  10.182
 2609W        W 6660   0.946   5.343   9.101
 2610W        W 6661   0.360   7.686   1.982
 2611W        W 6662   1.614  11.304   2.411
 2612W        W 6663   9.324  10.361   1.357
 2613W        W 6664   0.867   4.830   9.094
 2614W        W 6665   3.272  10.290   0.857
 2615W        W 6666   7.208   2.248   9.164
 2616W        W 6667   9.515   1.495  10.323
 2617W        W 6668   3.792   5.076   1.237
 2618W        W 6669  10.348   7.909  10.301
 2619W        W 6670  10.986   9.321   2.054
 2620W        W 6671   1.812   0.436   0.665
 2621W        W 6672   2.855   9.922  11.964
 2622W        W 6673   0.521   3.312   2.692
 2623W        W 6674   3.900   5.598   1.600
 2624W        W 6675   9.224  10.618  11.701
 2625W        W 6676   2.176   1.754   0.856
 2626W        W 6677   2.230   6.169   2.467
 2627W        W 6678  10.957   7.514   3.478
 2628W        W 6679   7.259   5.666  10.738
 2629W        W 6680   2.762   9.118   2.951
 2630W        W 6681   1.344   5.473  11.142
 2631W        W 6682   5.635   0.725   8.927
 2632W        W 6683   0.369  11.012   2.098
 2633W        W 6684   9.476  10.589   9.359
 2634W        W 6685  10.323   2.284   1.670
 2635W        W 6686   3.128   1.657   0.922
 2636W        W 6687   4.528   3.648   9.899
 2637W        W 6688   7.925   7.115   1.661
 2638W        W 6689   2.050   4.233   8.851
 2639W        W 6690   0.401   4.770  10.259
 2640W        W 6691  10.742   8.602   0.884
 2641W        W 6692   5.406   2.825   1.918
 2642W        W 6693   3.137   7.463  11.014
 2643W        W 6694   5.588   4.097   1.214
 2644W        W 6695   4.571  11.314  10.583
 2645W        W 6696   0.982   9.766  11.941
 2646W        W 6697   3.946  10.625   1.517
 2647W        W 6698   5.071  10.322  10.992
 2648W        W 6699   4.146  10.629   3.444
 2649W        W 6700   4.731   4.295  10.821
 2650W        W 6701  10.809   1.178   2.078
 2651W        W 6702   2.459   7.588   3.275
 2652W        W 6703  10.447  10.437   9.145
 2653W        W 6704   4.699   8.850   1.401
 2654W        W 6705   4.743   3.909   1.525
 2655W        W 6706   7.722   3.981   2.791
 2656W        W 6707   7.000   3.807   0.761
 2657W        W 6708   4.236   3.282   2.292
 2658W        W 6709   5.756   7.142   0.689
 2659W        W 6710   9.499  10.570   0.500
 2660W        W 6711   9.526   1.010   0.807
 2661W        W 6712  10.335   8.361  10.589
 2662W        W 6713   0.436   6.933  11.239
 2663W        W 6714   7.976   1.715  10.087
 2664W        W 6715   8.423   5.073   8.648
 2665W        W 6716   9.847   7.633   9.914
 2666W        W 6717   1.511  10.453   3.253
 2667W        W 6718   0.856   0.998  10.318
 2668W        W 6719  10.303  11.310   3.542
 2669W        W 6720   6.204   9.910  10.063
 2670W        W 6721   9.105   8.905   1.054
 2671W        W 6722   9.819  10.346   1.237
 2672W        W 6723   6.129   2.954  11.222
 2673W        W 6724   8.895   1.027  11.009
 2674W        W 6725  11.216   0.223   2.230
 2675W        W 6726   2.799   5.080   2.674
 2676W        W 6727   8.485  11.249   2.672
 2677W        W 6728   3.227  11.005   1.785
 2678W        W 6729   1.443   3.294   9.452
 2679W        W 6730   9.513   3.677  11.656
 2680W        W 6731   9.819   2.151  10.506
 2681W        W 6732   7.334   8.961   2.167
 2682W        W 6733   7.594  11.212   8.988
 2683W        W 6734   5.798   7.778   3.248
 2684W        W 6735   7.999   0.471  10.473
 2685W        W 6736   6.951   0.467   2.263
 2686W        W 6737   1.008   9.246  11.879
 2687W        W 6738   4.746   0.976  11.467
 2688W        W 6739   7.436   0.051   2.659
 2689W        W 6740   6.947   6.696   0.905
 2690W        W 6741   6.090   7.432   2.699
 2691W        W 6742   6.608   2.660   0.669
 2692W        W 6743   6.685   3.017   2.991
 2693W        W 6744   7.176   8.946   2.647
 2694W        W 6745   6.567   8.350   1.395
 2695W        W 6746   4.770   2.913   8.696
 2696W        W 6747   8.497   6.071   0.207
 2697W        W 6748   3.822   9.876  10.743
 2698W        W 6749  10.433   1.589   1.386
 2699W        W 6750   2.369   6.061  10.494
 2700W        W 6751   0.274   4.501   8.900
 2701W        W 6752   8.441   7.127  11.654
 2702W        W 6753   1.471  10.039   1.890
 2703W        W 6754   5.627   1.462   9.406
 2704W        W 6755   3.726   0.840   9.465
 2705W        W 6756   9.775  11.251   1.366
 2706W        W 6757  10.541   2.667   9.605
 2707W        W 6758   8.114   0.524   0.862
 2708W        W 6759   8.689   3.155   3.523
 2709W        W 6760   9.921   2.359   1.330
 2710W        W 6761   7.625   9.823  10.281
 2711W        W 6762   3.329   0.691   2.318
 2712W        W 6763   6.221   1.838   1.776
 2713W        W 6764   3.344   7.850   3.193
 2714W        W 6765   5.037   9.142  10.269
 2715W        W 6766   2.428   5.169   9.050
 2716W        W 6767   7.772   5.557   3.971
 2717W        W 6768   4.087   5.736  10.414
 2718W        W 6769   2.226   4.661  10.808
 2719W        W 6770   0.657  10.263   9.503
 2720W        W 6771   8.182   6.802   9.065
 2721W        W 6772   6.090   9.598   9.248
 2722W        W 6773   5.866   3.894  10.271
 2723W        W 6774   8.988   8.182   2.775
 2724W        W 6775   0.186   6.042   2.662
 2725W        W 6776  11.136   8.837  10.509
 2726W        W 6777   5.389   0.360   1.837
 2727W        W 6778   0.427   7.853  10.498
 2728W        W 6779  10.925   9.620   3.631
 2729W        W 6780   0.427   3.904   1.821
 2730W        W 6781  11.356   9.836   9.855
 2731W        W 6782   0.719   5.510   1.463
 2732W        W 6783   0.508   8.426   9.594
 2733W        W 6784   0.629   1.913  10.657
 2734W        W 6785   7.195  10.058  10.096
 2735W        W 6786   4.546   5.813  10.154
 2736W        W 6787   7.851  10.887  10.160
 2737W        W 6788  10.070   6.571   3.294
 2738W        W 6789   7.396   0.832   1.110
 2739W        W 6790   5.579   5.155   9.726
 2740W        W 6791   9.916   3.981   2.568
 2741W        W 6792   5.607   8.471  10.473
 2742W        W 6793   8.481  10.184   1.879
 2743W        W 6794   5.210   4.949  11.135
 2744W        W 6795  10.897   8.186   9.105
 2745W        W 6796   7.482   3.479  11.912
 2746W        W 6797   7.140   5.152  10.849
 2747W        W 6798  11.340  10.271  11.533
 2748W        W 6799   0.982   1.153   1.819
 2749W        W 6800   2.215   6.458  10.921
 2750W        W 6801   5.212   4.125  10.783
 2751W        W 6802   8.883   2.325  10.515
 2752W        W 6803   2.894   7.042   2.278
 2753W        W 6804   7.802   3.087   0.097
 2754W        W 6805   8.105  11.359   0.424
 2755W        W 6806   7.525   1.216   9.502
 2756W        W 6807   4.325   8.271   2.030
 2757W        W 6808   2.645   6.729   1.397
 2758W        W 6809   6.504   3.270   1.508
 2759W        W 6810   2.404   4.713   8.830
 2760W        W 6811   7.084   9.917  12.000
 2761W        W 6812  11.124   5.710   0.722
 2762W        W 6813   5.932  10.076   1.865
 2763W        W 6814   9.598   7.958   2.362
 2764W        W 6815   5.242   4.757  10.204
 2765W        W 6816  10.034   1.343   9.019
 2766W        W 6817   5.595   0.387   0.003
 2767W        W 6818   4.826  10.378   0.337
 2768W        W 6819   7.601   8.163   1.105
 2769W        W 6820   2.231   6.121   0.338
 2770W        W 6821   2.820   9.040   1.948
 2771W        W 6822   2.240   0.426   1.506
 2772W        W 6823   2.193   4.683   2.368
 2773W        W 6824   4.027   2.041  11.905
 2774W        W 6825  10.541   1.211   2.712
 2775W        W 6826  10.223   5.079   9.077
 2776W        W 6827   7.741   4.501   2.850
 2777W        W 6828   2.137   5.063  11.228
 2778W        W 6829   3.949  10.684   0.352
 2779W        W 6830   8.652   7.874   3.203
 2780W        W 6831   2.905   9.622   1.243
 2781W        W 6832   5.526   1.239   2.424
 2782W        W 6833   7.695   4.672   8.490
 2783W        W 6834   2.545   4.227   9.455
 2784W        W 6835   7.012   7.579   0.808
 2785W        W 6836  10.263   4.551   0.979
 2786W        W 6837  10.384   8.684   2.301
 2787W        W 6838   4.617   2.763  11.882
 2788W        W 6839   6.491   2.202  10.222
 2789W        W 6840   8.316   3.163  11.959
 2790W        W 6841   8.192  10.525   8.887
 2791W        W 6842   5.787   9.815  10.917
 2792W        W 6843   8.525   9.176   0.255
 2793W        W 6844   5.326   2.256   1.798
 2794W        W 6845   8.527   4.623   1.361
 2795W        W 6846   5.530   8.925   2.344
 2796W        W 6847   5.887   1.198  10.788
 2797W        W 6848   9.762   4.501  11.212
 2798W        W 6849   6.523   0.594   2.764
 2799W        W 6850   2.922   3.257   1.303
 2800W        W 6851   7.231   9.402   3.403
 2801W        W 6852   3.221   6.277  10.262
 2802W        W 6853   5.063   6.492   1.787
 2803W        W 6854   4.467   7.972   9.355
 2804W        W 6855   5.696   7.478   9.459
 2805W        W 6856   9.451   3.370   9.766
 2806W        W 6857   9.522   1.190  11.296
 2807W        W 6858   3.713   4.611   2.615
 2808W        W 6859   5.477   3.691  10.529
 2809W        W 6860  10.118   7.630  11.775
 2810W        W 6861   0.796   6.928   1.757
 2811W        W 6862   0.422   7.917   0.745
 2812W        W 6863   5.671   0.760  11.488
 2813W        W 6864  11.064   8.281  10.181
 2814W        W 6865   9.907   0.232   2.244
 2815W        W 6866   9.841  11.307   9.039
 2816W        W 6867   8.614   9.289   1.911
 2817W        W 6868   7.172   1.881   8.800
 2818W        W 6869   4.698   9.090   8.957
 2819W        W 6870  10.108   4.679   9.397
 2820W        W 6871   1.364   4.198   1.468
 2821W        W 6872   7.177   0.408   3.419
 2822W        W 6873   2.441   0.998   2.209
 2823W        W 6874   1.398  11.433   3.486
 2824W        W 6875   2.979   7.058   8.121
 2825W        W 6876   8.504   0.206   9.028
 2826W        W 6877   0.645   5.778   9.070
 2827W        W 6878   9.980   9.819   8.780
 2828W        W 6879   6.633   1.247   2.428
 2829W        W 6880   4.555   1.810   9.052
 2830W        W 6881   0.286  11.283  11.619
 2831W        W 6882   9.027   6.847   0.392
 2832W        W 6883   6.259   8.990   0.780
 2833W        W 6884  10.659   7.020   2.196
 2834W        W 6885   8.965  10.005   1.954
 2835W        W 6886   3.702   0.628  11.140
 2836W        W 6887   7.872   1.650  11.938
 2837W        W 6888   3.130   1.132   2.509
 2838W        W 6889  11.384   1.285   8.806
 2839W        W 6890  10.219   6.154   2.709
 2840W        W 6891   0.458   3.551  11.135
 2841W        W 6892   8.586  10.146   3.915
 2842W        W 6893   5.207  10.595   1.869
 2843W        W 6894   6.617  10.936  11.519
 2844W        W 6895  10.929   6.843   2.648
 2845W        W 6896   7.496  10.500  11.816
 2846W        W 6897   5.616   6.122   9.365
 2847W        W 6898   1.783   6.006   2.740
 2848W        W 6899   2.382   7.037   2.320
 2849W        W 6900   0.270   9.926  11.568
 2850W        W 6901   2.249   3.871   2.789
 2851W        W 6902  11.449   8.470   3.299
 2852W        W 6903   7.123   6.440   9.639
 2853W        W 6904  10.461  10.568  11.536
 2854W        W 6905   1.071   7.446   2.217
 2855W        W 6906   3.970   3.708   2.175
 2856W        W 6907   8.960   6.350  10.477
 2857W        W 6908   6.567   8.527  11.663
 2858W        W 6909  10.483   1.937   2.374
 2859W        W 6910   1.303   3.344  10.335
 2860W        W 6911   6.061   7.141   2.234
 2861W        W 6912   4.533   3.942   9.491
 2862W        W 6913   0.869  10.728   1.977
 2863W        W 6914   0.384   8.842   0.455
 2864W        W 6915   3.781   2.163  10.083
 2865W        W 6916   7.103   0.423   9.965
 2866W        W 6917  11.068   3.805   1.934
 2867W        W 6918   7.125   0.336  11.005
 2868W        W 6919   7.559   6.673   3.835
 2869W        W 6920   9.625   7.804   0.039
 2870W        W 6921   5.006   8.190  11.186
 2871W        W 6922   4.904   7.985   2.540
 2872W        W 6923   1.574   5.976   8.565
 2873W        W 6924   6.122   9.640   2.056
 2874W        W 6925   1.753   4.166   1.814
 2875W        W 6926   1.054   7.386   8.597
 2876W        W 6927   5.346  10.293   0.413
 2877W        W 6928   0.507   9.940   0.034
 2878W        W 6929   8.346   8.673  11.942
 2879W        W 6930   8.677   5.618   3.083
 2880W        W 6931   5.581   4.714  11.446
 2881W        W 6932   0.758   1.874   0.450
 2882W        W 6933  10.100   4.295   0.424
 2883W        W 6934   6.638   1.914   0.547
 2884W        W 6935   5.333   7.402  11.401
 2885W        W 6936   5.474   9.148   9.481
 2886W        W 6937   5.638   0.834   3.242
 2887W        W 6938  10.364   4.228   2.531
 2888W        W 6939   2.069   8.789  10.836
 2889W        W 6940   6.055   7.097   1.320
 2890W        W 6941   4.800   3.831   3.677
 2891W        W 6942   5.918   2.321   2.660
 2892W        W 6943   9.337   3.774   9.063
 2893W        W 6944   1.722   4.666   1.983
 2894W        W 6945   4.769   2.264   9.109
 2895W        W 6946   2.194   6.633   1.148
 2896W        W 6947   0.043   7.529  10.579
 2897W        W 6948   3.966   9.296   2.891
 2898W        W 6949   2.002   4.159   2.393
 2899W        W 6950   5.121   2.298   4.032
 2900W        W 6951  10.063   2.202  10.044
 2901W        W 6952   3.415  10.246   2.177
 2902W        W 6953   3.729  10.796   3.139
 2903W        W 6954   7.045   9.132  10.563
 2904W        W 6955   8.005   2.813   2.275
 2905W        W 6956   7.075   3.809  10.807
 2906W        W 6957  10.853   2.634   0.239
 2907W        W 6958   7.177   9.574  10.347
 2908W        W 6959   2.336   9.961   2.306
 2909W        W 6960   4.108   6.481   1.998
 2910W        W 6961   7.585   4.720   1.868
 2911W        W 6962   0.382   1.391   9.031
 2912W        W 6963   0.885   3.746   2.017
 2913W        W 6964  11.331   6.263   2.341
 2914W        W 6965   6.796   8.920   2.239
 2915W        W 6966   2.096   0.723  10.843
 2916W        W 6967   2.906   4.676   8.702
 2917W        W 6968  11.016  10.487   9.806
 2918W        W 6969   7.575   3.608   9.943
 2919W        W 6970   0.723   3.107  11.879
 2920W        W 6971   7.644  10.334   3.234
 2921W        W 6972   4.192   3.398   1.774
 2922W        W 6973  10.837   9.509   9.951
 2923W        W 6974   9.559   8.360   3.150
 2924W        W 6975  11.079   4.543   8.879
 2925W        W 6976   8.331   9.493   1.007
 2926W        W 6977   0.982   0.140   9.679
 2927W        W 6978   9.055   4.762   0.277
 2928W        W 6979   6.707   3.795   1.430
 2929W        W 6980   5.168   5.989   1.899
 2930W        W 6981   0.735   3.033   3.043
 2931W        W 6982  10.275   5.586   8.365
 2932W        W 6983   1.008   7.947   0.109
 2933W        W 6984   7.561   3.651  10.961
 2934W        W 6985  11.246   0.265  10.550
 2935W        W 6986   1.941   8.378   2.647
 2936W        W 6987   1.809   3.697   1.581
 2937W        W 6988   8.428   4.779   0.023
 2938W        W 6989   4.758  11.200  11.151
 2939W        W 6990   0.903   3.117   1.533
 2940W        W 6991   7.322  10.013   2.778
 2941W        W 6992   6.918   4.144  11.512
 2942W        W 6993   3.311   2.717   9.612
 2943W        W 6994   1.122   1.929  10.850
 2944W        W 6995   0.640   9.314   9.501
 2945W        W 6996   1.806   8.309   0.347
 2946W        W 6997   7.386   4.849   1.409
 2947W        W 6998   5.415   7.032  11.758
 2948W        W 6999   4.675   3.455   1.335
 2949W        W 7000   0.812   5.090  10.432
 2950W        W 7001   9.961   3.219   3.339
 2951W        W 7002   1.711   8.127   9.410
 2952W        W 7003   3.041   4.755   3.427
 2953W        W 7004   9.653   2.000   0.682
 2954W        W 7005   0.758  10.102   0.893
 2955W        W 7006   2.754   8.351   9.634
 2956W        W 7007   3.744   7.968   9.948
 2957W        W 7008   8.730   3.020   2.719
 2958W        W 7009  10.589   8.222   9.974
 2959W        W 7010   0.471   1.749   3.256
 2960W        W 7011   1.725   9.964   9.807
 2961W        W 7012   2.752   4.774   3.882
 2962W        W 7013   9.952   9.930   9.858
 2963W        W 7014   0.020   0.191   1.348
 2964W        W 7015   6.641   4.534   1.949
 2965W        W 7016   1.711   0.011  11.542
 2966W        W 7017   5.014   4.322   9.475
 2967W        W 7018   5.118   9.000   3.529
 2968W        W 7019   8.210   3.054   3.649
 2969W        W 7020   7.701   6.575   8.960
 2970W        W 7021   7.164   7.591   2.756
 2971W        W 7022  10.255  10.401   2.715
 2972W        W 7023   7.174   4.231  11.050
 2973W        W 7024   9.750   3.698   3.502
 2974W        W 7025   2.757   0.738   1.653
 2975W        W 7026   8.639   9.052   0.790
 2976W        W 7027   5.015   3.152   1.828
 2977W        W 7028   3.097   0.745   1.260
 2978W        W 7029   4.834  10.687  11.226
 2979W        W 7030   2.306   5.198   4.183
 2980W        W 7031   7.123   0.499   0.797
 2981W        W 7032   2.800   6.106  11.493
 2982W        W 7033   2.120   0.742   9.966
 2983W        W 7034   1.829   9.991   8.888
 2984W        W 7035  10.715   8.622  10.355
 2985W        W 7036   0.506   5.012   8.382
 2986W        W 7037   4.152   2.664   9.518
 2987W        W 7038   7.174   6.366   3.981
 2988W        W 7039   7.499   9.077   1.629
 2989W        W 7040   3.217   6.573  10.741
 2990W        W 7041   1.003   4.430  11.206
 2991W        W 7042   2.253   3.746  10.240
 2992W        W 7043  11.288  10.958   3.332
 2993W        W 7044   9.858  10.897   3.275
 2994W        W 7045   5.956   0.928  10.328
 2995W        W 7046   1.264   7.667   0.869
 2996W        W 7047   6.886   7.034   1.567
 2997W        W 7048  10.783   6.076  10.332
 2998W        W 7049   8.674   0.452   9.460
 2999W        W 7050   4.731   4.787  10.997
 3000W        W 7051   9.668   3.618   1.683
 3001W        W 7052   9.400   6.443   2.089
 3002W        W 7053   5.782   9.922   2.368
 3003W        W 7054   8.485   7.827  10.978
 3004W        W 7055   4.680   3.639   0.537
 3005W        W 7056   3.607   3.488  10.401
 3006W        W 7057   9.135   2.746  10.336
 3007W        W 7058   4.255   7.775   0.396
 3008W        W 7059   0.669   1.579   9.510
 3009W        W 7060  10.472   0.395   0.527
 3010W        W 7061   0.268   5.853   9.435
 3011W        W 7062   1.107   8.239   8.927
 3012W        W 7063   9.091   1.726  11.456
 3013W        W 7064   8.925   9.091   1.511
 3014W        W 7065   4.605   0.242   0.897
 3015W        W 7066   1.349   3.701   0.200
 3016W        W 7067   9.276   5.634   3.261
 3017W        W 7068   8.425   9.017   9.867
 3018W        W 7069   4.008   7.448   0.729
 3019W        W 7070   9.031   2.232   1.170
 3020W        W 7071   8.391   4.361   2.235
 3021W        W 7072   6.032  10.489   0.666
 3022W        W 7073  11.270   1.816   1.670
 3023W        W 7074   7.102   4.825   2.108
 3024W        W 7075   2.096   4.198   3.155
 3025W        W 7076   3.282  10.828  10.374
 3026W        W 7077   0.855   5.346  11.363
 3027W        W 7078   5.521   2.792  10.000
 3028W        W 7079   1.818   1.676   3.044
 3029W        W 7080   4.467   7.561   0.911
 3030W        W 7081   1.760   6.040   9.389
 3031W        W 7082   4.203   7.586  11.857
 3032W        W 7083  11.161   9.186   3.398
 3033W        W 7084   4.014   6.662  10.375
 3034W        W 7085   6.181   7.918   2.636
 3035W        W 7086   5.440   1.872   8.517
 3036W        W 7087   0.544   3.406   1.799
 3037W        W 7088   3.574   1.241   3.303
 3038W        W 7089  11.043   1.064   2.496
 3039W        W 7090   4.645   8.065   0.194
 3040W        W 7091   7.450   4.015   9.679
 3041W        W 7092   7.087   6.737   3.601
 3042W        W 7093   8.703   6.459   3.161
 3043W        W 7094   5.979   5.963   0.373
 3044W        W 7095  10.439  10.780   1.869
 3045W        W 7096   4.787   1.986  11.514
 3046W        W 7097   1.473  10.338   9.088
 3047W        W 7098   8.045   3.277   1.591
 3048W        W 7099   6.317  10.713   2.330
 3049W        W 7100   5.510   8.388   9.103
 3050W        W 7101   3.322   9.571   4.103
 3051W        W 7102   2.104   5.560   3.894
 3052W        W 7103   3.989  11.037   1.202
 3053W        W 7104   7.007   3.239   0.070
 3054W        W 7105   7.876   0.757  10.064
 3055W        W 7106  10.146  10.319   8.673
 3056W        W 7107  11.482   4.114   2.008
 3057W        W 7108  10.068   3.481   2.891
 3058W        W 7109   6.747   7.329  11.918
 3059W        W 7110   2.626   0.885   9.039
 3060W        W 7111   2.596   9.572   2.633
 3061W        W 7112   0.848   6.800   2.748
 3062W        W 7113   1.408   1.232  11.933
 3063W        W 7114  11.359   1.324  11.545
 3064W        W 7115   2.037   4.867   9.848
 3065W        W 7116   3.244   5.077   8.690
 3066W        W 7117   5.039   3.902  10.341
 3067W        W 7118   1.229   1.227   1.370
 3068W        W 7119   9.953   2.265   9.047
 3069W        W 7120   7.495   4.974   9.653
 3070W        W 7121   8.975   9.153   3.024
 3071W        W 7122   2.226   9.980   9.852
 3072W        W 7123   4.594  11.097   2.376
 3073W        W 7124   6.685   7.799   0.088
 3074W        W 7125   1.711   8.693  11.397
 3075W        W 7126   8.554  10.722   1.929
 3076W        W 7127   9.977   1.461   1.625
 3077W        W 7128   7.863   3.683   2.399
 3078W        W 7129  10.816   3.113   0.046
 3079W        W 7130   1.580   7.420   3.437
 3080W        W 7131   7.562   6.566   2.457
 3081W        W 7132   9.593   6.593   3.085
 3082W        W 7133   8.423   0.641   1.711
 3083W        W 7134   8.351   0.125  10.362
 3084W        W 7135  11.293   8.028   8.819
 3085W        W 7136   3.032   7.013   2.866
 3086W        W 7137   9.873   0.925   2.976
 3087W        W 7138   2.116   1.279  10.001
 3088W        W 7139   1.693   4.569   2.466
 3089W        W 7140   3.723  10.046   9.790
 3090W        W 7141   0.733  10.558   0.597
 3091W        W 7142   5.209  11.055   3.448
 3092W        W 7143   0.064   8.537   1.780
 3093W        W 7144   7.984   1.949   1.233
 3094W        W 7145   1.193   3.220   0.077
 3095W        W 7146   7.557  11.485   0.659
 3096W        W 7147  11.201   2.252   1.369
 3097W        W 7148   6.784   8.646  10.718
 3098W        W 7149   3.804   3.730   0.729
 3099W        W 7150   8.714   1.389   9.263
 3100W        W 7151  10.956   5.090   3.223
 3101W        W 7152   9.378   8.411  10.968
 3102W        W 7153   4.729   1.661   2.867
 3103W        W 7154   6.322   7.259   3.562
 3104W        W 7155   5.992   6.223   2.215
 3105W        W 7156   0.313   8.822   8.777
 3106W        W 7157   2.956  10.920  10.783
 3107W        W 7158   6.850   2.345   0.333
 3108W        W 7159  11.224   0.783   3.655
 3109W        W 7160   4.069   7.059  11.689
 3110W        W 7161   9.769   1.441  11.980
 3111W        W 7162   1.477   7.796   3.080
 3112W        W 7163   3.868   2.731  10.854
 3113W        W 7164   3.311   4.729   9.072
 3114W        W 7165   2.283  10.442   3.068
 3115W        W 7166   5.542   3.571   3.886
 3116W        W 7167   9.479   3.341   9.263
 3117W        W 7168   6.195  10.707   8.970
 3118W        W 7169   1.315   3.633   2.326
 3119W        W 7170   1.019   3.156   9.160
 3120W        W 7171   6.271   8.779  10.835
 3121W        W 7172   5.484   5.561  11.408
 3122W        W 7173   1.803   2.791   2.253
 3123W        W 7174   1.030   8.467   0.726
 3124W        W 7175   3.820   9.466   2.443
 3125W        W 7176   5.199   2.555  10.296
 3126W        W 7177  10.620   4.429   0.261
 3127W        W 7178   3.991   4.916   8.207
 3128W        W 7179   2.781   4.619   9.198
 3129W        W 7180   1.638   5.169  10.322
 3130W        W 7181   8.888   9.616  11.911
 3131W        W 7182   9.992   0.759  10.561
 3132W        W 7183   2.865  10.891   2.614
 3133W        W 7184   8.899  11.000  10.877
 3134W        W 7185   7.102   8.448   2.850
 3135W        W 7186   4.350   8.048   1.398
 3136W        W 7187   4.192   9.775   2.282
 3137W        W 7188   0.948   9.355   9.929
 3138W        W 7189   1.227   8.789   8.872
 3139W        W 7190   9.852   3.628   9.942
 3140W        W 7191   4.201   3.605   9.231
 3141W        W 7192   9.363  10.018  10.366
 3142W        W 7193   8.846   9.407   8.685
 3143W        W 7194   7.659   8.132   2.521
 3144W        W 7195   1.351   8.390   1.481
 3145W        W 7196   8.645   2.626  11.042
 3146W        W 7197  11.320   9.337   1.278
 3147W        W 7198  10.732   6.120   0.977
 3148W        W 7199   1.908   7.904  10.534
 3149W        W 7200   1.939   0.829   2.124
 3150W        W 7201  10.388   9.377   2.749
 3151W        W 7202   2.755  11.285   9.332
 3152W        W 7203   4.184   0.924  11.829
 3153W        W 7204  10.244   8.606   0.997
 3154W        W 7205   6.640   7.670   2.771
 3155W        W 7206   3.577   0.493   1.314
 3156W        W 7207  10.739   4.829  11.234
 3157W        W 7208   3.182   6.403   0.301
 3158W        W 7209   6.713  11.418  11.344
 3159W        W 7210   1.140   1.613   8.422
 3160W        W 7211   3.809   8.803  11.456
 3161W        W 7212  10.478   4.693   1.425
 3162W        W 7213   5.402   6.519  11.812
 3163W        W 7214   5.166   0.760  11.266
 3164W        W 7215   1.307  11.047   0.371
 3165W        W 7216   3.200   3.880   1.357
 3166W        W 7217  11.288   5.777   8.712
 3167W        W 7218  10.422   3.050   9.056
 3168W        W 7219   1.348   0.079   2.990
 3169W        W 7220   6.294   7.673   3.146
 3170W        W 7221   7.850   4.152   0.702
 3171W        W 7222   6.726   3.666   3.251
 3172W        W 7223   3.858   6.572  11.800
 3173W        W 7224  10.678   5.662  11.441
 3174W        W 7225   4.729   9.928   9.696
 3175W        W 7226   4.052   0.924   1.207
 3176W        W 7227   9.589   4.315   3.285
 3177W        W 7228   8.506   8.690  10.556
 3178W        W 7229   0.066   8.989  10.264
 3179W        W 7230   0.758   6.366   0.876
 3180W        W 7231   4.248   9.005   3.198
 3181W        W 7232   6.275   0.127   0.514
 3182W        W 7233   5.855   3.329   3.059
 3183W        W 7234   2.254   5.295   2.986
 3184W        W 7235   6.450   5.871  10.544
 3185W        W 7236  10.383   7.218   9.971
 3186W        W 7237   9.819   5.765   0.495
 3187W        W 7238   3.523   8.465   0.636
 3188W        W 7239   8.367  10.025   0.700
 3189W        W 7240   9.188   6.484   3.366
 3190W        W 7241   9.222   8.037   8.567
 3191W        W 7242   1.983   2.722   0.205
 3192W        W 7243   1.661  10.007  10.321
 3193W        W 7244   4.482  10.934   1.261
 3194W        W 7245   6.225   5.728  10.089
 3195W        W 7246  10.544   3.691  11.803
 3196W        W 7247  10.011   1.812   8.757
 3197W        W 7248   9.966   6.153   3.574
 3198W        W 7249   6.969   1.307  10.972
 3199W        W 7250   0.307   2.898   3.278
 3200W        W 7251   8.494   5.832   0.678
 3201W        W 7252   8.861   5.461   1.446
 3202W        W 7253   3.312   2.717  10.177
 3203W        W 7254   4.644   6.728   9.125
 3204W        W 7255   8.478   7.457   9.788
 3205W        W 7256   3.565  10.240   8.934
 3206W        W 7257  10.689   9.518   9.320
 3207W        W 7258  11.330   8.371   0.243
 3208W        W 7259  10.908   7.024  10.318
 3209W        W 7260   3.576   1.368  11.172
 3210W        W 7261   2.104   4.416   3.614
 3211W        W 7262   3.142  10.361  11.145
 3212W        W 7263  11.233   9.392   0.206
 3213W        W 7264   8.076   7.968   0.363
 3214W        W 7265   5.796   0.554  10.654
 3215W        W 7266   0.433   8.159   1.189
 3216W        W 7267   1.290   4.356   1.943
 3217W        W 7268   2.058   5.133   8.114
 3218W        W 7269   4.023   7.935   2.340
 3219W        W 7270   7.005  10.820   1.717
 3220W        W 7271   9.428   9.854   1.749
 3221W        W 7272   3.379   4.277   2.448
 3222W        W 7273   1.638   0.545   9.089
 3223W        W 7274   0.331   3.498   8.865
 3224W        W 7275   8.071   7.670   9.995
 3225W        W 7276   9.171   1.460  11.029
 3226W        W 7277   0.801   1.264   1.044
 3227W        W 7278   3.767  11.019   2.578
 3228W        W 7279   7.364   2.436  11.335
 3229W        W 7280   4.093   4.698   2.300
 3230W        W 7281   2.854  10.247   3.378
 3231W        W 7282  10.953   9.650   1.119
 3232W        W 7283   3.095  10.437  10.645
 3233W        W 7284   5.819   1.670   2.457
 3234W        W 7285   2.832  10.082   1.007
 3235W        W 7286   9.766   4.805   3.208
 3236W        W 7287  10.856  11.314   2.669
 3237W        W 7288   6.713   1.257  11.446
 3238W        W 7289  11.060  10.378   2.328
 3239W        W 7290   0.989  11.257  10.432
 3240W        W 7291   9.281  11.305   1.395
 3241W        W 7292   0.927   6.985  11.383
 3242W        W 7293   9.347   1.922  10.541
 3243W        W 7294   5.453   1.419  10.977
 3244W        W 7295   1.761   2.068   2.747
 3245W        W 7296   7.828  10.106   2.799
 3246W        W 7297   3.272   7.271   9.091
 3247W        W 7298   4.849   8.224   2.093
 3248W        W 7299   2.807  10.590   1.015
 3249W        W 7300   8.655   2.123   1.818
 3250W        W 7301   5.700   5.120  11.087
 3251W        W 7302   0.639   3.300   0.976
 3252W        W 7303   6.581   1.250   1.922
 3253W        W 7304   0.829   4.002   9.437
 3254W        W 7305   6.991   9.991  10.563
 3255W        W 7306  10.877   8.576   2.229
 3256W        W 7307   3.605   7.544  10.778
 3257W        W 7308   0.268   2.634   0.538
 3258W        W 7309   8.999   1.840   1.494
 3259W        W 7310   0.450   9.489   9.935
 3260W        W 7311   0.698   5.794  11.584
 3261W        W 7312   1.458   1.964   0.272
 3262W        W 7313   9.495   2.855  11.993
 3263W        W 7314   4.894   9.559   1.437
 3264W        W 7315   2.502   7.568  10.231
 3265W        W 7316   6.541   6.703  10.774
 3266W        W 7317   0.400   4.762   9.337
 3267W        W 7318   8.933  10.006  10.649
 3268W        W 7319   2.895   7.211   1.416
 3269W        W 7320   7.071   3.580   1.763
 3270W        W 7321   0.983   0.965  11.794
 3271W        W 7322   9.944   1.245  11.567
 3272W        W 7323   1.678   5.697  10.826
 3273W        W 7324   5.418  11.310  10.349
 3274W        W 7325  10.560   4.608   9.105
 3275W        W 7326   0.319   7.150  10.800
 3276W        W 7327   5.435  10.399   9.776
 3277W        W 7328   1.405   0.821  11.534
 3278W        W 7329   9.809   9.324  10.122
 3279W        W 7330   2.681   2.647   9.155
 3280W        W 7331   4.970   5.362  11.320
 3281W        W 7332   1.707   4.772  11.903
 3282W        W 7333   8.891   2.914   0.794
 3283W        W 7334   4.520   7.845   2.221
 3284W        W 7335   0.006   0.735   1.398
 3285W        W 7336   6.699   7.973  10.480
 3286W        W 7337  11.267   1.579   9.788
 3287W        W 7338   4.854   9.366   9.851
 3288W        W 7339   1.810   8.963   2.747
 3289W        W 7340   8.219   8.503   1.383
 3290W        W 7341   4.146   4.709   1.296
 3291W        W 7342   0.828   9.782   9.544
 3292W        W 7343   0.933   6.422   2.407
 3293W        W 7344  10.361   8.351   2.787
 3294W        W 7345  10.915   5.693   1.201
 3295W        W 7346  10.089   5.233   2.186
 3296W        W 7347   5.773   1.206   2.898
 3297W        W 7348   9.599   8.872  11.823
 3298W        W 7349   1.207   6.717   9.228
 3299W        W 7350   5.197   5.096   0.988
 3300W        W 7351   1.233   2.467   3.339
 3301W        W 7352   5.293   2.538   2.794
 3302W        W 7353   2.326   4.773   0.659
 3303W        W 7354   1.969  10.875  10.772
 3304W        W 7355   2.206  11.261   0.744
 3305W        W 7356   0.281   9.007   9.757
 3306W        W 7357   1.200  11.254   9.961
 3307W        W 7358  11.248   6.277   8.925
 3308W        W 7359   3.634   1.776   3.176
 3309W        W 7360   3.218   8.471   9.423
 3310W        W 7361   0.060   2.940   9.540
 3311W        W 7362   6.399   3.337   0.307
 3312W        W 7363   5.032  10.808   2.466
 3313W        W 7364   2.799   0.238   9.578
 3314W        W 7365   0.816   5.811   0.080
 3315W        W 7366   2.026   7.992  11.035
 3316W        W 7367   8.828   0.789   9.822
 3317W        W 7368   2.322   1.423   2.967
 3318W        W 7369   9.499   7.131   0.354
 3319W        W 7370   7.433   8.928   8.392
 3320W        W 7371   0.089  10.541   1.895
 3321W        W 7372   1.798  10.306  10.782
 3322W        W 7373   0.785   7.310  10.996
 3323W        W 7374   8.146   4.249   2.657
 3324W        W 7375   0.390   2.674   2.348
 3325W        W 7376   8.265   6.686  11.877
 3326W        W 7377   6.922   2.692   1.758
 3327W        W 7378   5.715   5.616  10.943
 3328W        W 7379  11.262   0.728   8.854
 3329W        W 7380   4.755   7.979   9.788
 3330W        W 7381   4.382  10.853  11.101
 3331W        W 7382   3.230   0.944   9.593
 3332W        W 7383   2.447   2.824   0.053
 3333W        W 7384  10.393   3.159   9.555
 3334W        W 7385   3.400   4.662  11.629
 3335W        W 7386   3.917   8.863  10.960
 3336W        W 7387   2.649   7.272   2.672
 3337W        W 7388   3.552   5.519   8.736
 3338W        W 7389   9.468   8.016   9.082
 3339W        W 7390   8.021   0.842  10.864
 3340W        W 7391   8.234  10.489  10.344
 3341W        W 7392   5.158  11.464   8.969
 3342W        W 7393   9.110  10.896  10.410
 3343W        W 7394  10.812   7.962  11.200
 3344W        W 7395   0.727   2.582   9.800
 3345W        W 7396   1.885  10.522   1.314
 3346W        W 7397  11.000   4.433   3.654
 3347W        W 7398  11.373   3.128   3.164
 3348W        W 7399   2.410   7.150   8.980
 3349W        W 7400   6.500   4.295   9.587
 3350W        W 7401   1.900   3.830   0.854
 3351W        W 7402   9.568   4.597   1.360
 3352W        W 7403   7.927   9.816  11.776
 3353W        W 7404   7.517   7.723   0.461
 3354W        W 7405   5.020   6.492   0.264
 3355W        W 7406   6.417   4.124   8.645
 3356W        W 7407  10.224   9.074  10.374
 3357W        W 7408  11.287   6.546   0.310
 3358W        W 7409   6.516  10.931  10.337
 3359W        W 7410   5.065  11.340  10.759
 3360W        W 7411   4.742   4.126   9.920
 3361W        W 7412   4.653   9.221   1.780
 3362W        W 7413   8.869   6.576   0.811
 3363W        W 7414   2.501   3.226  11.723
 3364W        W 7415   8.767   8.005   9.482
 3365W        W 7416   6.471   2.727   8.889
 3366W        W 7417   3.728   5.690  10.815
 3367W        W 7418   3.186   1.413   9.792
 3368W        W 7419  10.122   7.899   2.368
 3369W        W 7420   9.874   7.017   3.116
 3370W        W 7421   7.414   5.733   1.764
 3371W        W 7422   2.683  10.436  10.944
 3372W        W 7423   2.189  10.487  11.069
 3373W        W 7424   5.184  10.206  11.939
 3374W        W 7425   8.992   6.573   2.421
 3375W        W 7426   1.967   9.014   3.558
 3376W        W 7427   9.534   2.666  11.520
 3377W        W 7428  11.423  10.252  10.138
 3378W        W 7429   3.131   1.825   2.960
 3379W        W 7430   4.909   5.702  10.526
 3380W        W 7431   4.683   3.425   9.464
 3381W        W 7432   8.047   1.078  11.324
 3382W        W 7433   0.820   9.289  11.396
 3383W        W 7434   7.380   3.589   2.665
 3384W        W 7435   1.642   6.728   8.916
 3385W        W 7436   3.777   9.793  11.255
 3386W        W 7437   5.267   0.674   9.382
 3387W        W 7438   5.675   5.044   9.226
 3388W        W 7439   7.522   9.439   9.511
 3389W        W 7440   3.030  10.371   1.859
 3390W        W 7441   9.809   0.399  10.873
 3391W        W 7442   3.691   3.331   2.714
 3392W        W 7443   8.167   5.842   9.440
 3393W        W 7444   6.936   6.415  10.967
 3394W        W 7445   2.556   8.792  11.935
 3395W        W 7446   3.728   5.048   8.853
 3396W        W 7447   2.259   1.377   0.500
 3397W        W 7448  11.108   0.839   1.763
 3398W        W 7449   7.936   0.786   0.465
 3399W        W 7450   9.442   5.513   0.262
 3400W        W 7451   5.764   7.665  11.474
 3401W        W 7452   6.825   9.437   8.034
 3402W        W 7453   4.471   8.114   0.738
 3403W        W 7454   8.855   6.184   2.745
 3404W        W 7455   0.433   4.536   0.137
 3405W        W 7456   6.278  10.246   9.243
 3406W        W 7457   8.409   7.054   2.564
 3407W        W 7458   2.644   9.208  10.415
 3408W        W 7459   1.923   7.075  10.253
 3409W        W 7460   3.591   3.798   2.515
 3410W        W 7461   3.373   5.446   0.458
 3411W        W 7462   6.071   5.410   1.923
 3412W        W 7463   3.853   0.875   1.663
 3413W        W 7464   7.398   2.158   3.451
 3414W        W 7465   5.749  10.927  10.974
 3415W        W 7466  11.426   8.126   9.831
 3416W        W 7467   0.702   6.001   2.604
 3417W        W 7468   5.794   8.492   2.302
 3418W        W 7469   0.770   3.324   2.258
 3419W        W 7470   7.459   3.341  11.387
 3420W        W 7471   5.963   0.022   3.163
 3421W        W 7472   5.213   1.214  10.586
 3422W        W 7473   7.421   8.508   0.274
 3423W        W 7474   1.825  10.075   1.029
 3424W        W 7475   3.786   6.998   3.254
 3425W        W 7476  11.130   8.482   1.185
 3426W        W 7477   4.643   6.225  11.745
 3427W        W 7478   1.650   4.302   0.826
 3428W        W 7479   8.033   4.614   1.175
 3429W        W 7480   6.811   4.019   2.695
 3430W        W 7481   9.058   3.218   1.413
 3431W        W 7482  10.670   7.979  10.697
 3432W        W 7483   0.098   1.029   9.944
 3433W        W 7484   9.222  10.264   9.033
 3434W        W 7485   7.954   8.225   9.274
 3435W        W 7486   8.022   0.933   1.815
 3436W        W 7487   6.154   6.768   3.106
 3437W        W 7488   4.530   1.265   0.868
 3438W        W 7489  11.455  10.736   9.979
 3439W        W 7490  11.312   6.502   2.807
 3440W        W 7491   4.542   1.593   8.562
 3441W        W 7492   2.289   3.868   9.164
 3442W        W 7493   8.963   9.899  11.487
 3443W        W 7494   1.912   5.920   0.691
 3444W        W 7495   2.930   9.053   0.339
 3445W        W 7496   2.319   1.042   9.563
 3446W        W 7497   5.055   0.794   1.179
 3447W        W 7498   9.281   1.327   1.163
 3448W        W 7499   8.347  10.884  10.916
 3449W        W 7500   0.307   5.740   0.073
 3450W        W 7501   6.680   4.217  10.949
 3451W        W 7502   2.341  11.382   1.427
 3452W        W 7503   3.709   1.402  10.665
 3453W        W 7504   3.998   1.501   3.464
 3454W        W 7505   8.910   9.949  10.102
 3455W        W 7506   7.146   2.383   8.650
 3456W        W 7507   0.982   2.659   9.351
 3457W        W 7508   9.412   4.411   8.561
 3458W        W 7509   3.785   1.278   9.137
 3459W        W 7510   4.647   3.347   3.660
 3460W        W 7511   8.454  10.334   9.468
 3461W        W 7512   0.725   7.114   3.133
 3462W        W 7513   4.486   0.122  11.021
 3463W        W 7514   4.368   6.620   2.445
 3464W        W 7515   5.639   8.015   1.167
 3465W        W 7516   4.960   3.919   3.201
 3466W        W 7517   6.219  10.198   2.257
 3467W        W 7518   5.615   3.085   1.248
 3468W        W 7519   0.436   2.188   2.526
 3469W        W 7520  10.871   2.148   0.393
 3470W        W 7521   7.002   6.555   1.740
 3471W        W 7522   4.629   0.939  10.613
 3472W        W 7523   5.202   2.084  10.043
 3473W        W 7524   8.100   7.868  11.313
 3474W        W 7525   6.394   7.677   4.066
 3475W        W 7526   8.142   6.178  11.853
 3476W        W 7527   8.785   4.771   3.491
 3477W        W 7528   1.889   1.696   0.346
 3478W        W 7529  11.199   3.346   1.814
 3479W        W 7530  10.987  10.833   9.026
 3480W        W 7531   3.701   7.922   1.428
 3481W        W 7532   9.117   1.637   2.457
 3482W        W 7533   0.254   1.886   9.415
 3483W        W 7534   0.388  10.889  11.266
 3484W        W 7535   5.548  10.668   0.674
 3485W        W 7536   8.810   4.060   2.170
 3486W        W 7537   2.051   6.127   8.442
 3487W        W 7538   9.588   1.486   8.754
 3488W        W 7539   0.512   5.596   2.842
 3489W        W 7540   2.377  10.861   2.300
 3490W        W 7541   8.776   5.811   1.840
 3491W        W 7542  10.499   4.648   2.792
 3492W        W 7543   1.342   6.103   2.473
 3493W        W 7544  10.374   1.355   9.899
 3494W        W 7545   7.627   8.060   0.117
 3495W        W 7546   6.565   8.972  10.380
 3496W        W 7547   8.017   7.720   9.148
 3497W        W 7548  10.409   9.829   9.618
 3498W        W 7549   6.463   1.934   9.786
 3499W        W 7550   8.875   0.806   2.975
 3500W        W 7551   7.168   2.087  10.020
 3501W        W 7552   8.298   0.210   8.535
 3502W        W 7553   3.241   7.045   9.997
 3503W        W 7554   0.972   3.753  10.353
 3504W        W 7555   5.759   6.537   8.614
 3505W        W 7556   8.950   6.022   3.223
 3506W        W 7557   6.503   6.679   0.673
 3507W        W 7558   9.370   4.384   0.939
 3508W        W 7559   6.699   0.397   0.495
 3509W        W 7560   2.406   3.709   0.826
 3510W        W 7561  11.452   0.425  11.638
 3511W        W 7562   7.627   7.521   1.774
 3512W        W 7563   1.650   1.340  10.355
 3513W        W 7564  11.038   9.448  10.858
 3514W        W 7565   6.406   9.837   8.897
 3515W        W 7566   4.184  10.506   1.038
 3516W        W 7567   2.757  10.467  11.979
 3517W        W 7568   5.602   2.213   3.074
 3518W        W 7569   5.647   0.676   0.999
 3519W        W 7570   5.328   1.335   3.108
 3520W        W 7571   3.324   8.056  10.738
 3521W        W 7572   4.332   5.079  10.807
 3522W        W 7573   2.244   2.484   3.319
 3523W        W 7574   7.284   4.559   3.497
 3524W        W 7575   1.940   9.852   0.258
 3525W        W 7576   6.074   3.682   9.159
 3526W        W 7577   7.230   7.485  11.790
 3527W        W 7578   3.726   2.601   0.271
 3528W        W 7579   5.991   8.249   3.538
 3529W        W 7580   9.541   0.515   0.961
 3530W        W 7581   5.660   3.168   3.533
 3531W        W 7582   9.450   7.017  10.220
 3532W        W 7583   3.758   4.112   9.691
 3533W        W 7584   1.692   3.101   0.419
 3534W        W 7585   3.338   5.994   8.718
 3535W        W 7586  10.725   9.045   2.437
 3536W        W 7587   1.949   1.652  10.619
 3537W        W 7588  11.338  10.369   9.035
 3538W        W 7589   4.381   4.417  10.330
 3539W        W 7590   3.349   2.863  11.564
 3540W        W 7591   4.109   7.449  11.348
 3541W        W 7592   3.839   4.479  10.054
 3542W        W 7593   1.629   0.427  11.272
 3543W        W 7594   4.819  11.351   1.328
 3544W        W 7595   9.308   9.113   8.453
 3545W        W 7596   1.975   2.060   8.794
 3546W        W 7597   3.023   4.101   0.824
 3547W        W 7598   2.857   3.670   1.031
 3548W        W 7599   6.168   9.938   2.705
 3549W        W 7600   2.163  10.828   9.167
 3550W        W 7601  10.876   6.964   9.467
 3551W        W 7602   5.214   8.516   9.520
 3552W        W 7603  11.134   3.779  10.492
 3553W        W 7604  11.206   8.277  11.185
 3554W        W 7605   0.257   7.550  11.993
 3555W        W 7606   0.401   8.114  10.044
 3556W        W 7607   4.311   5.116   2.087
 3557W        W 7608   6.079   3.650  11.921
 3558W        W 7609   6.564   2.075  11.531
 3559W        W 7610   7.163   3.176   2.471
 3560W        W 7611  10.033   4.371   1.523
 3561W        W 7612  10.223   6.596   0.438
 3562W        W 7613   8.501   3.818  11.949
 3563W        W 7614   4.925   8.385   0.888
 3564W        W 7615   9.967   1.333  11.064
 3565W        W 7616   3.532   6.194  11.998
 3566W        W 7617   2.566   7.082   3.139
 3567W        W 7618   1.506   1.238   8.383
 3568W        W 7619   0.402   5.571   1.045
 3569W        W 7620   5.991   8.424   0.787
 3570W        W 7621  10.320   4.755   2.319
 3571W        W 7622   7.721   6.662   1.560
 3572W        W 7623   6.454   8.581   3.593
 3573W        W 7624   1.705   8.367   0.901
 3574W        W 7625   0.634   7.036   8.643
 3575W        W 7626   1.377   1.397   8.847
 3576W        W 7627   9.563   6.123   8.538
 3577W        W 7628  11.372   1.553   9.264
 3578W        W 7629   5.853   5.033   2.684
 3579W        W 7630   7.598  11.459   0.156
 3580W        W 7631   1.424  10.751   1.313
 3581W        W 7632   7.945   1.498   1.005
 3582W        W 7633   2.428  10.521   3.545
 3583W        W 7634   0.410   8.459   3.555
 3584W        W 7635  11.162  11.294   8.785
 3585W        W 7636   6.139   7.641   2.195
 3586W        W 7637  11.036   2.277   0.875
 3587W        W 7638   9.475  11.176   1.844
 3588W        W 7639   9.660   6.656   3.600
 3589W        W 7640   3.364   0.435   0.483
 3590W        W 7641   6.568   5.318   1.340
 3591W        W 7642  10.153   6.928   2.241
 3592W        W 7643   6.759   1.199  10.069
 3593W        W 7644   4.452   9.544   8.862
 3594W        W 7645   3.299   0.053   3.446
 3595W        W 7646   2.854   6.705   0.538
 3596W        W 7647   1.349   1.722   2.275
 3597W        W 7648   0.843   7.093  10.006
 3598W        W 7649   2.962   7.023  10.791
 3599W        W 7650   3.805   2.591  11.357
 3600W        W 7651   8.961  10.467   9.440
 3601W        W 7652   0.311   3.398   3.149
 3602W        W 7653   2.126   8.581   0.646
 3603W        W 7654   5.234   9.850   1.150
 3604W        W 7655   3.754   8.415  10.242
 3605W        W 7656   5.334  11.329   1.264
 3606W        W 7657   3.362  10.009   3.183
 3607W        W 7658   3.843   4.359  11.820
 3608W        W 7659   2.445   7.992  11.326
 3609W        W 7660   5.478   6.992   9.557
 3610W        W 7661   6.271   5.885   8.617
 3611W        W 7662  10.267   9.441   9.014
 3612W        W 7663   4.680   6.443  10.813
 3613W        W 7664   2.918   5.269  10.873
 3614W        W 7665   3.038   2.091   3.362
 3615W        W 7666  10.075   5.660   9.673
 3616W        W 7667   3.607   4.336  10.959
 3617W        W 7668   6.564   1.206   0.896
 3618W        W 7669  10.313   1.084   1.311
 3619W        W 7670   2.085   8.103   9.071
 3620W        W 7671   2.164   7.141   2.789
 3621W        W 7672   0.713   4.666   2.431
 3622W        W 7673   3.191   5.781  11.501
 3623W        W 7674   7.556   1.522   2.897
 3624W        W 7675   3.748   7.750   2.774
 3625W        W 7676   6.234   0.061  11.262
 3626W        W 7677   1.941   6.313  11.353
 3627W        W 7678   5.241   4.237   0.499
 3628W        W 7679   5.450   3.367   0.831
 3629W        W 7680   4.069   0.684   3.415
 3630W        W 7681   7.679   7.007   2.096
 3631W        W 7682   2.662   9.334   9.460
 3632W        W 7683   2.704   3.772  11.482
 3633W        W 7684   8.439   5.334   9.080
 3634W        W 7685   5.749   6.527   9.677
 3635W        W 7686   8.399   4.188   1.771
 3636W        W 7687   8.095   8.147  10.883
 3637W        W 7688   2.352   8.621   9.809
 3638W        W 7689   4.827   1.730   0.959
 3639W        W 7690   5.356   9.870   8.919
 3640W        W 7691   3.704  10.129   1.653
 3641W        W 7692   5.467  10.196   2.051
 3642W        W 7693   9.728   6.098   2.565
 3643W        W 7694   6.907   9.361   1.525
 3644W        W 7695   0.291   4.117   0.877
 3645W        W 7696  10.686   6.627  11.120
 3646W        W 7697   6.502   1.977   8.001
 3647W        W 7698   1.924   1.411   8.871
 3648W        W 7699   7.433   3.986   2.362
 3649W        W 7700   3.178  10.028  10.376
 3650W        W 7701   4.836   2.004   0.415
 3651W        W 7702  10.150   5.706   2.973
 3652W        W 7703   4.133   0.481   0.901
 3653W        W 7704   7.866   6.270   1.876
 3654W        W 7705  10.937   6.728   8.575
 3655W        W 7706   0.652   9.296   0.273
 3656W        W 7707   6.158   3.211   9.851
 3657W        W 7708   0.898   0.160   3.251
 3658W        W 7709   2.100   2.400   1.398
 3659W        W 7710  10.820   0.309  10.822
 3660W        W 7711   8.559   4.116   1.299
 3661W        W 7712  10.558   4.970   0.930
 3662W        W 7713   5.890   8.005   9.081
 3663W        W 7714   1.746   7.377   1.878
 3664W        W 7715   1.176   3.334   1.908
 3665W        W 7716   3.577   1.392   2.384
 3666W        W 7717   8.192   2.192  10.147
 3667W        W 7718   4.604   4.823   1.510
 3668W        W 7719   0.267  10.558  10.382
 3669W        W 7720   1.072   3.288   2.676
 3670W        W 7721   9.909   7.689  11.292
 3671W        W 7722   8.610  10.390   3.150
 3672W        W 7723   6.500   4.830  11.498
 3673W        W 7724   8.135   3.593   3.310
 3674W        W 7725  10.603   2.733   3.484
 3675W        W 7726   5.545   6.164   0.162
 3676W        W 7727   1.923   6.210  10.232
 3677W        W 7728   7.336  11.033   0.858
 3678W        W 7729   1.899   9.817  10.825
 3679W        W 7730   5.193   8.872  11.242
 3680W        W 7731   3.888   9.931  11.744
 3681W        W 7732   7.014   4.331   3.902
 3682W        W 7733   2.542   1.685  10.886
 3683W        W 7734   6.872  11.334  10.441
 3684W        W 7735  11.246  10.339   1.144
 3685W        W 7736   5.471   4.040  11.216
 3686W        W 7737   7.103   9.658   9.338
 3687W        W 7738   4.381   4.317   2.154
 3688W        W 7739  10.274   5.305   2.673
 3689W        W 7740   2.264   0.721  11.716
 3690W        W 7741   8.083   9.633  10.444
 3691W        W 7742   1.754   2.318   3.235
 3692W        W 7743   6.008   3.231   1.669
 3693W        W 7744  10.881   1.738   9.280
 3694W        W 7745   2.247   6.165   1.461
 3695W        W 7746   0.192  11.352   0.992
 3696W        W 7747   9.580   5.389   0.757
 3697W        W 7748   4.224   1.879  11.214
 3698W        W 7749  10.134   3.846   1.632
 3699W        W 7750   3.180  10.447   1.356
 3700W        W 7751   4.905   8.631   9.121
 3701W        W 7752   8.762   8.296   3.500
 3702W        W 7753   3.060   3.119  10.442
 3703W        W 7754   5.366  11.150   0.311
 3704W        W 7755   8.420   6.732  11.318
 3705W        W 7756   6.739   7.148   0.807
 3706W        W 7757   6.089   1.610   9.947
 3707W        W 7758  10.127   8.478   1.478
 3708W        W 7759   7.967   0.991   9.593
 3709W        W 7760   1.155   1.478  10.318
 3710W        W 7761   5.912   9.437   1.630
 3711W        W 7762  11.411   0.004  11.354
 3712W        W 7763   1.166   4.240   2.686
 3713W        W 7764   3.139   1.306   0.539
 3714W        W 7765   9.447   3.882   0.912
 3715W        W 7766   3.100   8.466   1.967
 3716W        W 7767   3.755   4.703   3.122
 3717W        W 7768   6.200   0.804  10.827
 3718W        W 7769   4.415   1.835   2.101
 3719W        W 7770   1.324   6.574   2.692
 3720W        W 7771  10.962  10.766   2.009
 3721W        W 7772   3.021   4.640  11.984
 3722W        W 7773   6.458   9.584  10.982
 3723W        W 7774   4.082   8.656   9.906
 3724W        W 7775  10.282   3.234  11.871
 3725W        W 7776  10.136  11.493  11.832
 3726W        W 7777   4.192   8.315   0.362
 3727W        W 7778   9.928   2.200   0.303
 3728W        W 7779   1.157   4.046   9.837
 3729W        W 7780   9.452   6.764  11.257
 3730W        W 7781   1.278   7.113   1.866
 3731W        W 7782   2.931   2.353   9.483
 3732W        W 7783   3.010   0.568   9.913
 3733W        W 7784   4.251   7.232  10.871
 3734W        W 7785   0.777  11.017   2.925
 3735W        W 7786   5.507   6.583   2.676
 3736W        W 7787   6.059   4.644  11.727
 3737W        W 7788   7.176   3.687   0.292
 3738W        W 7789  10.203   6.693   9.995
 3739W        W 7790   9.037   9.579   2.727
 3740W        W 7791   0.274   2.470   1.912
 3741W        W 7792   3.761   9.994   2.536
 3742W        W 7793   0.007   5.280   9.412
 3743W        W 7794  11.472   5.293   1.007
 3744W        W 7795   4.972   5.216  10.318
 3745W        W 7796   7.129   2.888  10.329
 3746W        W 7797   9.781   0.518   2.649
 3747W        W 7798   3.514   1.328  11.694
 3748W        W 7799  11.040   8.597  11.864
 3749W        W 7800   4.155   2.345   1.276
 3750W        W 7801   9.957   6.556   9.557
 3751W        W 7802   0.257   1.276   3.340
 3752W        W 7803   4.127   3.081   0.745
 3753W        W 7804   9.943   6.693   0.001
 3754W        W 7805   1.690   1.455   1.271
 3755W        W 7806  10.703   4.037   1.619
 3756W        W 7807   0.349   7.496   1.022
 3757W        W 7808  11.464   0.447   1.819
 3758W        W 7809   0.177   3.052   0.915
 3759W        W 7810   3.722  11.130   1.665
 3760W        W 7811   2.025   6.869   0.308
 3761W        W 7812  11.422   3.902   9.480
 3762W        W 7813  10.272   6.093  10.364
 3763W        W 7814   1.451   7.812   1.381
 3764W        W 7815  11.103   1.691  11.275
 3765W        W 7816   2.256   8.128   1.666
 3766W        W 7817   3.680   7.450   2.379
 3767W        W 7818   8.016  10.256   1.046
 3768W        W 7819   1.357   5.595   2.259
 3769W        W 7820   7.359   8.580   0.878
 3770W        W 7821   5.261   9.025   2.777
 3771W        W 7822   6.029   3.088   8.131
 3772W        W 7823   6.762   3.662  10.430
 3773W        W 7824   5.991   4.203   8.964
 3774W        W 7825   9.504   1.888  11.884
 3775W        W 7826   6.418   8.126   3.820
 3776W        W 7827   9.154   3.341   0.929
 3777W        W 7828   4.218   9.280   2.167
 3778W        W 7829   4.786  10.882  10.761
 3779W        W 7830   0.851   4.613   1.456
 3780W        W 7831   4.288   2.290  11.520
 3781W        W 7832  10.021   6.409   8.547
 3782W        W 7833   1.023   7.506  11.404
 3783W        W 7834  10.143   9.719   2.184
 3784W        W 7835   6.776   6.437   1.305
 3785W        W 7836   6.144   6.527  11.189
 3786W        W 7837   2.431   9.380   1.195
 3787W        W 7838   5.531   9.386  10.788
 3788W        W 7839   1.833   0.808   9.533
 3789W        W 7840   5.710   8.853  10.836
 3790W        W 7841   6.199   0.951   9.130
 3791W        W 7842   6.988   9.572  10.849
 3792W        W 7843   5.649   1.823  10.569
 3793W        W 7844   1.821   3.577   9.940
 3794W        W 7845   4.729   1.139   1.685
 3795W        W 7846   7.442  10.214   8.540
 3796W        W 7847   4.715   7.071   1.050
 3797W        W 7848   6.533   2.878   9.907
 3798W        W 7849   9.948   6.666  11.337
 3799W        W 7850  10.808   4.638   2.330
 3800W        W 7851   5.476   4.607   1.408
 3801W        W 7852   0.194   6.030   8.944
 3802W        W 7853   7.534  10.800   9.289
 3803W        W 7854   7.967   9.503   2.346
 3804W        W 7855   2.314  10.954   3.309
 3805W        W 7856   3.656   4.153   0.238
 3806W        W 7857   0.368   8.839  10.650
 3807W        W 7858   8.603   2.707   0.033
 3808W        W 7859   9.787   6.621   1.348
 3809W        W 7860   5.143   0.178   9.515
 3810W        W 7861  11.480   8.197   1.407
 3811W        W 7862  10.002   7.098   1.377
 3812W        W 7863   7.732   5.886  10.639
 3813W        W 7864   6.275   3.564   8.221
 3814W        W 7865   5.111   6.753   3.000
 3815W        W 7866   0.616   1.292   1.503
 3816W        W 7867   4.185  10.470   2.897
 3817W        W 7868  10.940   7.729   0.109
 3818W        W 7869   1.857   1.484  11.889
 3819W        W 7870   7.228   1.238  10.473
 3820W        W 7871  10.063   8.384   3.226
 3821W        W 7872   7.942  11.435   9.499
 3822W        W 7873  10.316   8.484  11.101
 3823W        W 7874   2.405   8.940   0.411
 3824W        W 7875   1.225   4.616   3.486
 3825W        W 7876   5.468   0.832  10.379
 3826W        W 7877   1.955  10.276   0.563
 3827W        W 7878   9.253   7.157   0.812
 3828W        W 7879   2.387   1.953   1.320
 3829W        W 7880   2.714  10.592   1.527
 3830W        W 7881   2.308   7.648   9.040
 3831W        W 7882   4.830   9.021   0.382
 3832W        W 7883   1.673   3.133  10.642
 3833W        W 7884   6.029   9.263  10.893
 3834W        W 7885   8.374   2.946   1.795
 3835W        W 7886   3.453   3.392   2.241
 3836W        W 7887   0.891   0.495  11.916
 3837W        W 7888  10.766   4.525   3.211
 3838W        W 7889   1.753   7.895   1.822
 3839W        W 7890   4.627   9.807   1.775
 3840W        W 7891  11.138   5.104   0.039
 3841W        W 7892   1.633   1.769   9.093
 3842W        W 7893   5.024   2.503   9.838
 3843W        W 7894  10.397   1.013   8.791
 3844W        W 7895   2.726   1.419   2.306
 3845W        W 7896   4.744   3.271  11.751
 3846W        W 7897   5.107   8.170  10.672
 3847W        W 7898   7.734   4.298   0.242
 3848W        W 7899   8.978   8.375   0.365
 3849W        W 7900   9.581   0.289   9.862
 3850W        W 7901   4.246   7.308   1.721
 3851W        W 7902   8.745   8.543   9.044
 3852W        W 7903   3.843   7.069  10.632
 3853W        W 7904   5.122   6.032   0.495
 3854W        W 7905   6.769   8.051   9.945
 3855W        W 7906   9.705   7.659   1.824
 3856W        W 7907   6.531   1.923   3.240
 3857W        W 7908  11.059   9.395   2.596
 3858W        W 7909   2.380   1.466  10.407
 3859W        W 7910   0.895   1.390   0.570
 3860W        W 7911   4.174   0.010   3.131
 3861W        W 7912   0.119   8.927   3.564
 3862W        W 7913   0.467   6.472   2.623
 3863W        W 7914   5.663   1.361  10.350
 3864W        W 7915   3.158   3.715   3.277
 3865W        W 7916   7.127   3.573   9.590
 3866W        W 7917   8.679   1.837   2.282
 3867W        W 7918   1.789   2.581   2.752
 3868W        W 7919   3.236   0.991   1.695
 3869W        W 7920   2.551   2.731   2.923
 3870W        W 7921  10.359   6.988   1.755
 3871W        W 7922  10.031   4.341   2.165
 3872W        W 7923   0.949   5.956   2.170
 3873W        W 7924   0.835   1.051   9.527
 3874W        W 7925   5.626   5.106   1.270
 3875W        W 7926   6.835   2.477   1.308
 3876W        W 7927   7.048   6.686  10.542
 3877W        W 7928   0.080   7.203   2.147
 3878W        W 7929   2.647   9.646   0.792
 3879W        W 7930   4.214   5.207   0.050
 3880W        W 7931  11.056   2.830  11.273
 3881W        W 7932   1.196   5.663  11.606
 3882W        W 7933   5.117   7.726  11.066
 3883W        W 7934   4.404   2.097   1.663
 3884W        W 7935   5.727   8.574   2.804
 3885W        W 7936   9.422   5.655  10.835
 3886W        W 7937   4.092   7.095   9.758
 3887W        W 7938  11.331   3.320   8.648
 3888W        W 7939   8.680   2.819  10.546
 3889W        W 7940   8.500   8.596   8.574
 3890W        W 7941   4.918   2.493   0.210
 3891W        W 7942   3.947   7.980   9.432
 3892W        W 7943   3.222   2.886   2.211
 3893W        W 7944  10.810  10.177  10.543
 3894W        W 7945   2.886  10.067   9.186
 3895W        W 7946   1.206   6.610   3.209
 3896W        W 7947   7.697   0.273   3.397
 3897W        W 7948   3.381   6.638  11.220
 3898W        W 7949  10.938   1.776   3.170
 3899W        W 7950   4.075   1.299   2.343
 3900W        W 7951   6.623   2.190   8.470
 3901W        W 7952   3.789   7.243   1.489
 3902W        W 7953   1.131   6.976   1.368
 3903W        W 7954   3.718  11.458  10.502
 3904W        W 7955   2.195   4.624  10.287
 3905W        W 7956   3.851   1.363   1.421
 3906W        W 7957   7.874   8.582   0.914
 3907W        W 7958   5.425   1.145   1.156
 3908W        W 7959   0.033   3.649   1.556
 3909W        W 7960   0.501   5.366   9.375
 3910W        W 7961   5.229  10.957  11.064
 3911W        W 7962   7.021   9.481  11.733
 3912W        W 7963   1.822   0.294   2.207
 3913W        W 7964  11.286   2.557   9.300
 3914W        W 7965   0.805   1.773   0.969
 3915W        W 7966   7.096   2.132  11.875
 3916W        W 7967   5.315   5.152   0.477
 3917W        W 7968   1.816   3.873  10.975
 3918W        W 7969   0.263   1.282   9.512
 3919W        W 7970   5.820   9.656   1.151
 3920W        W 7971   5.052   3.038   2.701
 3921W        W 7972   1.230   2.304  11.186
 3922W        W 7973   7.970   4.659   0.671
 3923W        W 7974   9.642   2.374  11.916
 3924W        W 7975  11.390   6.615   3.524
 3925W        W 7976   2.766   0.745   9.500
 3926W        W 7977  10.912   3.590   8.850
 3927W        W 7978   8.574   3.856   3.170
 3928W        W 7979   5.267   2.749   0.485
 3929W        W 7980   2.178   1.306  11.539
 3930W        W 7981   2.477   8.325   2.556
 3931W        W 7982   0.311   0.771  11.537
 3932W        W 7983  11.091   1.593  10.765
 3933W        W 7984   1.483   1.847  10.465
 3934W        W 7985   2.888   6.931   9.044
 3935W        W 7986   3.047   8.306   2.447
 3936W        W 7987  10.616   7.889   3.463
 3937W        W 7988   3.495  10.579   1.765
 3938W        W 7989   2.402   9.878   1.213
 3939W        W 7990   0.776   1.150  10.808
 3940W        W 7991  11.223  10.595  11.933
 3941W        W 7992  11.234   7.866  11.486
 3942W        W 7993   5.339  10.022   2.622
 3943W        W 7994   6.121   4.772   0.745
 3944W        W 7995  11.467   4.901   1.319
 3945W        W 7996   6.556   0.851   8.758
 3946W        W 7997   3.563   6.134   0.496
 3947W        W 7998   8.479   4.003   9.979
 3948W        W 7999   2.851   9.104   1.202
 3949W        W 8000   9.933   2.838   8.371
 3950W        W 8001   8.407   4.305  11.809
 3951W        W 8002   8.934   2.641   2.212
 3952W        W 8003   7.587   0.731  11.126
 3953W        W 8004   8.229   6.447  10.091
 3954W        W 8005   9.148   1.287   9.005
 3955W        W 8006   8.309   6.980  10.781
 3956W        W 8007   9.017   6.884   8.136
 3957W        W 8008   2.900   0.488   3.595
 3958W        W 8009   9.531   6.248   9.084
 3959W        W 8010  10.303   9.429   1.393
 3960W        W 8011   8.963   8.093   9.006
 3961W        W 8012   4.995   4.701   1.215
 3962W        W 8013   2.820   5.912  10.192
 3963W        W 8014   6.269   4.293   0.485
 3964W        W 8015   5.604   3.876   9.082
 3965W        W 8016   3.650   2.518   2.068
 3966W        W 8017   2.552   9.537   3.152
 3967W        W 8018   0.526   9.839  11.063
 3968W        W 8019   7.861   2.426  10.499
 3969W        W 8020   4.229  10.015   8.812
 3970W        W 8021   2.678   0.573  10.327
 3971W        W 8022   3.461  10.142  11.490
 3972W        W 8023   9.460   1.630   0.335
 3973W        W 8024   7.738   1.247  10.011
 3974W        W 8025   3.613  10.297  10.975
 3975W        W 8026   7.727  11.083  10.656
 3976W        W 8027   4.184   3.471   0.401
 3977W        W 8028   7.523  10.374   9.569
 3978W        W 8029   1.608  10.498  11.688
 3979W        W 8030   7.629   6.109   3.768
 3980W        W 8031   9.863   2.736   2.300
 3981W        W 8032   6.650   9.919   1.364
 3982W        W 8033   6.674   3.362   9.797
 3983W        W 8034  11.295   8.998   9.588
 3984W        W 8035   2.798  10.061   1.516
 3985W        W 8036   7.198   8.506   2.359
 3986W        W 8037   9.185   5.483  10.080
 3987W        W 8038  10.702   2.344   1.269
 3988W        W 8039   5.627   4.873  11.939
 3989W        W 8040   6.113   2.283   3.190
 3990W        W 8041   0.624   5.871   9.957
 3991W        W 8042   4.648   6.852   0.198
 3992W        W 8043   2.214   3.914   1.837
 3993W        W 8044   4.492  10.779   8.841
 3994W        W 8045   0.982   6.646  10.371
 3995W        W 8046   9.256   9.015  10.336
 3996W        W 8047   0.428   0.055   0.577
 3997W        W 8048   8.584   7.959   2.238
 3998W        W 8049   1.441   9.344  10.058
 3999W        W 8050   4.331  10.394   0.537
 4000W        W 8051   4.564   0.865   1.245
 4001W        W 8052   0.307   0.727   8.693
 4002W        W 8053   7.612   9.022   1.093
 4003W        W 8054   5.448   0.376   3.073
 4004W        W 8055   0.044   5.268   2.313
 4005W        W 8056   0.819   6.265  10.901
 4006W        W 8057   9.688   9.607   0.232
 4007W        W 8058   5.248  11.408  11.287
 4008W        W 8059   0.838   4.622   1.955
 4009W        W 8060   7.649   7.563  10.411
 4010W        W 8061   8.211   0.391   3.481
 4011W        W 8062   4.448   7.149   9.354
 4012W        W 8063   4.182  10.075   1.865
 4013W        W 8064   3.107   3.596  10.078
 4014W        W 8065   9.493   0.709   3.508
 4015W        W 8066   3.360  10.983  11.686
 4016W        W 8067   1.040   5.126   0.300
 4017W        W 8068   7.848   2.409  11.491
 4018W        W 8069  10.859   4.988   0.470
 4019W        W 8070   5.005   0.463   2.150
 4020W        W 8071   6.314  11.263   1.142
 4021W        W 8072   1.910  10.860   9.688
 4022W        W 8073   3.758   4.997   1.751
 4023W        W 8074   8.774  10.549   3.588
 4024W        W 8075   6.044  10.004   0.835
 4025W        W 8076   3.548  10.648  11.350
 4026W        W 8077   5.029   3.420  10.568
 4027W        W 8078  10.867   7.723   3.024
 4028W        W 8079   3.110   7.393   0.360
 4029W        W 8080   9.536   4.913   4.366
 4030W        W 8081   4.806   7.971  10.295
 4031W        W 8082   3.334   2.719   3.250
 4032W        W 8083   0.571   0.847   1.721
 4033W        W 8084   7.511   9.815   3.212
 4034W        W 8085   2.890   4.513  10.328
 4035W        W 8086   5.126   8.959   2.023
 4036W        W 8087   5.220   3.204   8.765
 4037W        W 8088  10.302   6.950   9.546
 4038W        W 8089   9.120   3.686   9.507
 4039W        W 8090   8.790   1.302   1.290
 4040W        W 8091   2.789   1.270   9.493
 4041W        W 8092   2.075   2.896   3.052
 4042W        W 8093   5.817  10.591  10.489
 4043W        W 8094   3.743   2.615   9.841
 4044W        W 8095  10.869   3.283   9.972
 4045W        W 8096  11.085   5.073   2.405
 4046W        W 8097   7.970   1.070   3.450
 4047W        W 8098  11.015   3.106  10.437
 4048W        W 8099  11.375   2.324   0.415
 4049W        W 8100   3.324   9.352  11.073
 4050W        W 8101   5.134   1.595   9.256
 4051W        W 8102   9.546   7.519  10.327
 4052W        W 8103   4.210   2.835  11.543
 4053W        W 8104   6.580   0.435   1.369
 4054W        W 8105   0.138   8.563   1.060
 4055W        W 8106   0.051   2.354  10.394
 4056W        W 8107   0.498   3.858   3.361
 4057W        W 8108   2.627   6.192   3.336
 4058W        W 8109   2.863   2.030   1.187
 4059W        W 8110   2.847   3.353   3.504
 4060W        W 8111   8.840   0.385   1.844
 4061W        W 8112   0.539   9.315   3.481
 4062W        W 8113   8.938   5.122   2.254
 4063W        W 8114   6.145   3.102   3.720
 4064W        W 8115  11.265   5.629   9.715
 4065W        W 8116   9.163   8.087  11.935
 4066W        W 8117   7.651  11.251  11.131
 4067W        W 8118   1.822   2.457  10.880
 4068W        W 8119   2.348  11.471   3.336
 4069W        W 8120   3.307   9.650  11.483
 4070W        W 8121   6.666   7.019   0.314
 4071W        W 8122   1.297   7.644   1.820
 4072W        W 8123   9.521   8.649   8.563
 4073W        W 8124  10.042   4.868   2.766
 4074W        W 8125  10.150  11.407   0.654
 4075W        W 8126   9.623   4.071   1.356
 4076W        W 8127   4.623   2.108   8.637
 4077W        W 8128   6.730   0.393   3.206
 4078W        W 8129   9.680   1.500   0.803
 4079W        W 8130   4.647  11.487   9.564
 4080W        W 8131   6.022   1.274   2.191
 4081W        W 8132   9.829   7.493  10.791
 4082W        W 8133   7.923   5.004  11.533
 4083W        W 8134   7.900   9.478   0.183
 4084W        W 8135   5.631   5.693   1.908
 4085W        W 8136   8.219   2.277   0.916
 4086W        W 8137   2.930   9.736   3.437
 4087W        W 8138   6.764   8.959   0.844
 4088W        W 8139   6.471   9.918   3.143
 4089W        W 8140   5.440   5.890   1.477
 4090W        W 8141   8.484   8.244   0.194
 4091W        W 8142   6.369   2.311   1.885
 4092W        W 8143   0.762   3.302   0.390
 4093W        W 8144   9.585   8.937   8.976
 4094W        W 8145   8.294   3.011   9.938
 4095W        W 8146  11.052   2.919   9.622
 4096W        W 8147   4.654   2.981  11.349
 4097W        W 8148   6.594  11.332  11.839
 4098W        W 8149  10.244   2.288   8.634
 4099W        W 8150  10.440   0.376  11.684
 4100W        W 8151   0.750   4.330  10.010
 4101W        W 8152  11.301   4.842   0.804
 4102W        W 8153   8.427   2.070   2.750
 4103W        W 8154   5.578   9.740   3.323
 4104W        W 8155  10.531  10.880   1.377
 4105W        W 8156   9.001   8.682  10.731
 4106W        W 8157  11.312   8.733  11.371
 4107W        W 8158   7.079  10.093   9.594
 4108W        W 8159   0.163   0.750   3.379
 4109W        W 8160   4.919   1.845   8.291
 4110W        W 8161   7.849   1.153   2.223
 4111W        W 8162   8.045  11.303  11.916
 4112W        W 8163   6.447   6.451   9.045
 4113W        W 8164  10.593   9.546   3.236
 4114W        W 8165  11.033   4.686   2.797
 4115W        W 8166   0.011   9.814   2.242
 4116W        W 8167   8.998   2.180   9.566
 4117W        W 8168   4.592  10.999   0.403
 4118W        W 8169   7.117   2.311   2.484
 4119W        W 8170   5.747   1.248  11.348
 4120W        W 8171  10.463   0.760   3.620
 4121W        W 8172  11.490   6.170   3.170
 4122W        W 8173   5.228   5.501   1.269
 4123W        W 8174   2.666   6.978   1.835
 4124W        W 8175   5.093   7.599  10.066
 4125W        W 8176  10.866   5.478   8.599
 4126W        W 8177   0.791   5.612  10.441
 4127W        W 8178   5.602   9.602   2.807
 4128W        W 8179   3.098   8.473  10.930
 4129W        W 8180   5.558  10.179   0.896
 4130W        W 8181   1.385   1.893   1.201
 4131W        W 8182   4.129   7.590   1.322
 4132W        W 8183   3.816   0.012   1.284
 4133W        W 8184   6.119   0.837   3.012
 4134W        W 8185  11.164  10.529   1.608
 4135W        W 8186   0.879   0.510   3.675
 4136W        W 8187   9.981   3.312   0.327
 4137W        W 8188   4.277   9.089  11.246
 4138W        W 8189  11.125   3.928   0.116
 4139W        W 8190   3.814   3.112   0.298
 4140W        W 8191   0.122   3.084   1.807
 4141W        W 8192   6.496   7.354   2.388
 4142W        W 8193   4.799   6.956   3.350
 4143W        W 8194   4.519  10.318  10.340
 4144W        W 8195   9.595   2.469  10.179
 4145W        W 8196   0.741   8.735   3.265
 4146W        W 8197   9.455   6.239   1.478
 4147W        W 8198   6.959   1.793   9.264
 4148W        W 8199  11.234   3.064  11.687
 4149W        W 8200   8.107   8.131   0.848
 4150W        W 8201   6.647   1.587   2.872
 4151W        W 8202   9.052   2.231   9.057
 4152W        W 8203   8.761   4.615  11.328
 4153W        W 8204   2.324   1.818  10.045
 4154W        W 8205   1.913   5.349   9.919
 4155W        W 8206   1.077   2.335   0.239
 4156W        W 8207  11.211   6.912   9.864
 4157W        W 8208   2.115  10.931  11.308
 4158W        W 8209   7.928   4.050   1.674
 4159W        W 8210   0.934   8.436   2.798
 4160W        W 8211   8.602   1.892  11.491
 4161W        W 8212   6.944   4.678  10.247
 4162W        W 8213   7.006   1.293   9.427
 4163W        W 8214  11.245   1.326   1.897
 4164W        W 8215   4.347   5.596   1.873
 4165W        W 8216   9.130   8.527   1.787
 4166W        W 8217   5.107   9.523   2.877
 4167W        W 8218   6.032   2.889   3.239
 4168W        W 8219   2.191   7.463   0.495
 4169W        W 8220   8.294   2.686   2.704
 4170W        W 8221   9.019  11.222   2.704
 4171W        W 8222   2.553   9.044   8.559
 4172W        W 8223   4.921   2.926  10.528
 4173W        W 8224   8.852   9.508   9.764
 4174W        W 8225   5.221   7.502   9.596
 4175W        W 8226   9.231   6.082  11.773
 4176W        W 8227   8.020   8.722   9.986
 4177W        W 8228   5.493   8.057   0.231
 4178W        W 8229   9.553   1.523   9.801
 4179W        W 8230   6.130   3.822   0.988
 4180W        W 8231   1.128   7.448   3.143
 4181W        W 8232   3.670   8.990   3.213
 4182W        W 8233   4.873   1.003   0.393
 4183W        W 8234   2.478   7.990   9.390
 4184W        W 8235   2.166   8.443   1.134
 4185W        W 8236   2.043   4.267   9.357
 4186W        W 8237   4.673   5.288   0.255
 4187W        W 8238   1.425   8.637   2.823
 4188W        W 8239   4.401   9.455   2.637
 4189W        W 8240  11.291   7.791  10.979
 4190W        W 8241   6.095   5.901   1.828
 4191W        W 8242   0.362   8.047  11.769
 4192W        W 8243  10.883   8.136  11.721
 4193W        W 8244  10.840   1.496  10.110
 4194W        W 8245   8.402   9.406   9.542
 4195W        W 8246  11.425   4.374   0.628
 4196W        W 8247   5.923   4.597   9.276
 4197W        W 8248  10.464   5.084   1.786
 4198W        W 8249   5.196   3.960   0.915
 4199W        W 8250   4.691   6.966  10.863
 4200W        W 8251   1.141  10.667   3.551
 4201W        W 8252   5.408  10.327  10.279
 4202W        W 8253   7.673   2.717   9.534
 4203W        W 8254   6.648   0.923   0.466
 4204W        W 8255   8.148   8.690   1.986
 4205W        W 8256   0.768   1.077  11.325
 4206W        W 8257   1.562   0.855   0.565
 4207W        W 8258   8.559   5.578  11.412
 4208W        W 8259   4.541   7.529  10.563
 4209W        W 8260   1.504   3.039   9.034
 4210W        W 8261   2.546   8.623  11.008
 4211W        W 8262   6.340   2.326   0.368
 4212W        W 8263   9.283   4.187   9.384
 4213W        W 8264  11.225   5.363   1.454
 4214W        W 8265   4.348   6.679   9.974
 4215W        W 8266   9.638   1.035   1.715
 4216W        W 8267   9.128   8.067   0.795
 4217W        W 8268  10.437  10.307  11.044
 4218W        W 8269   9.823   9.559  11.651
 4219W        W 8270  10.481   8.491   9.134
 4220W        W 8271   3.024  10.947   1.319
 4221W        W 8272   0.707   3.833   9.909
 4222W        W 8273  10.198   7.673   1.119
 4223W        W 8274   9.108   1.745   8.763
 4224W        W 8275   9.509   8.436   2.155
 4225W        W 8276   7.412   7.571  10.867
 4226W        W 8277   0.858   9.529   2.136
 4227W        W 8278   1.969   9.595   1.216
 4228W        W 8279   4.165   6.263   9.737
 4229W        W 8280   0.524   2.620   1.498
 4230W        W 8281   5.914   5.735   2.315
 4231W        W 8282   5.060   0.480   8.954
 4232W        W 8283   7.733  10.572   0.256
 4233W        W 8284   7.685   9.038   2.569
 4234W        W 8285   7.422   2.763   0.895
 4235W        W 8286   8.232   1.327  11.751
 4236W        W 8287   2.339   8.483   9.317
 4237W        W 8288   7.977  11.318   2.506
 4238W        W 8289   4.257   7.094   1.248
 4239W        W 8290   8.536   0.175   1.481
 4240W        W 8291   9.291   4.486  11.422
 4241W        W 8292  11.310   1.231  11.029
 4242W        W 8293   3.674   1.329   9.638
 4243W        W 8294   9.119   5.817   8.650
 4244W        W 8295  10.003  10.569  11.296
 4245W        W 8296   2.278   7.254  11.540
 4246W        W 8297   4.839   2.112   1.926
 4247W        W 8298   5.236   1.194  10.075
 4248W        W 8299  11.434  10.462   3.289
 4249W        W 8300   1.764   8.410   1.813
 4250W        W 8301   6.055   3.694   3.829
 4251W        W 8302   4.103   4.748   8.675
 4252W        W 8303   8.123   9.432   1.812
 4253W        W 8304   5.864   8.958   0.033
 4254W        W 8305  11.152   4.262  10.246
 4255W        W 8306   4.052   1.487   0.942
 4256W        W 8307  11.433   7.694   1.232
 4257W        W 8308   5.270   8.449  11.526
 4258W        W 8309   4.728   4.333  11.797
 4259W        W 8310   9.964   1.682   0.366
 4260W        W 8311   8.403  10.332   1.401
 4261W        W 8312  10.491  10.866   8.834
 4262W        W 8313   0.508   9.548   2.986
 4263W        W 8314   7.389   4.067   9.172
 4264W        W 8315   1.689   5.959   3.250
 4265W        W 8316   4.312   0.270   0.446
 4266W        W 8317   6.217   7.493  11.280
 4267W        W 8318   7.175   9.136  10.067
 4268W        W 8319   2.926   0.949   2.097
 4269W        W 8320   9.407   8.942   3.560
 4270W        W 8321   2.217   2.861   2.556
 4271W        W 8322  11.230   0.046   0.899
 4272W        W 8323   6.587   3.624   1.892
 4273W        W 8324   6.137   2.492   0.838
 4274W        W 8325   2.009  10.738   0.843
 4275W        W 8326   7.982   4.034  11.903
 4276W        W 8327   7.433  10.911   9.872
 4277W        W 8328  10.965   1.241   9.134
 4278W        W 8329  10.708   6.549   1.766
 4279W        W 8330  10.370   6.048   9.528
 4280W        W 8331   8.348   2.361  11.460
 4281W        W 8332   8.470   1.556   2.675
 4282W        W 8333   3.107   2.145   2.584
 4283W        W 8334   7.578   2.543   3.170
 4284W        W 8335   7.881  10.467   8.479
 4285W        W 8336   4.958   8.990   9.504
 4286W        W 8337   5.050   8.839  11.831
 4287W        W 8338   2.715   2.208   2.971
 4288W        W 8339   6.453   5.921  11.969
 4289W        W 8340   7.591   6.873   0.824
 4290W        W 8341   5.342   0.353  11.518
 4291W        W 8342   9.179   2.792   2.836
 4292W        W 8343   1.712  11.232   2.975
 4293W        W 8344   4.222   9.533  11.988
 4294W        W 8345   9.008   4.101  11.173
 4295W        W 8346   1.859   9.190   2.280
 4296W        W 8347   6.884   9.408   2.456
 4297W        W 8348   8.352   1.584   1.361
 4298W        W 8349   6.989   6.947  11.025
 4299W        W 8350   9.086   3.101   3.216
 4300W        W 8351   3.559   9.330   0.891
 4301W        W 8352   8.373   1.082   2.153
 4302W        W 8353   6.948   4.655   1.225
 4303W        W 8354   1.810   8.876   0.888
 4304W        W 8355   3.611   1.746   1.725
 4305W        W 8356   5.616   1.734  11.456
 4306W        W 8357   4.243   3.174   9.540
 4307W        W 8358   8.588   2.783   8.656
 4308W        W 8359  10.680   2.310  10.532
 4309W        W 8360   6.414  10.535   8.431
 4310W        W 8361   9.355  10.814   9.810
 4311W        W 8362   1.732  10.887   0.008
 4312W        W 8363   2.761   5.642  11.257
 4313W        W 8364   0.141   2.419   9.629
 4314W        W 8365   4.384   8.681  10.919
 4315W        W 8366   9.085   2.410   1.680
 4316W        W 8367   0.575   2.905   1.916
 4317W        W 8368   2.463   2.517   9.638
 4318W        W 8369   2.828   0.118   3.237
 4319W        W 8370   3.631   0.753   0.839
 4320W        W 8371   1.896  10.022  11.766
 4321W        W 8372   1.929  10.569   8.770
 4322W        W 8373   1.016   0.655   9.877
 4323W        W 8374   8.569   5.338   0.797
 4324W        W 8375   6.743   7.490   8.687
 4325W        W 8376  10.403   5.536  11.877
 4326W        W 8377   5.131   7.375   2.267
 4327W        W 8378   1.231   2.630   9.871
 4328W        W 8379  10.040   6.735   4.376
 4329W        W 8380  10.730   5.130   9.005
 4330W        W 8381   4.144   6.455   4.200
 4331W        W 8382   0.647  11.211   8.575
 4332W        W 8383   5.590   8.009  10.711
 4333W        W 8384   8.694   7.122   2.131
 4334W        W 8385  10.951   0.823  10.939
 4335W        W 8386   6.846   6.122   0.241
 4336W        W 8387  10.371  11.488  11.372
 4337W        W 8388   8.479   1.646  10.041
 4338W        W 8389   3.250   3.035   2.693
 4339W        W 8390   3.536   9.051   0.055
 4340W        W 8391   8.596   9.631  10.624
 4341W        W 8392   9.986  11.318  10.517
 4342W        W 8393  10.909   5.098   9.824
 4343W        W 8394   7.152  11.415   9.927
 4344W        W 8395  10.512   6.570   0.856
 4345W        W 8396   5.484  10.934   2.119
 4346W        W 8397   9.927   9.206   0.036
 4347W        W 8398  10.199   8.000  10.939
 4348W        W 8399   1.016  10.650   9.003
 4349W        W 8400  11.467   2.216   2.336
 4350W        W 8401   5.162   1.745   1.728
 4351W        W 8402   0.379   8.497  11.036
 4352W        W 8403   0.506   8.130   2.691
 4353W        W 8404   8.468   7.209   8.899
 4354W        W 8405   8.395   5.142   1.336
 4355W        W 8406   0.318   7.465   0.500
 4356W        W 8407  10.069   7.023   3.575
 4357W        W 8408   3.049   2.586   2.833
 4358W        W 8409   5.642   7.137   0.200
 4359W        W 8410   2.380  10.887   2.809
 4360W        W 8411  11.325   9.090   2.932
 4361W        W 8412   9.320   9.361   1.270
 4362W        W 8413  11.451   4.141  10.699
 4363W        W 8414   0.991   7.992   1.513
 4364W        W 8415   1.537   9.677   3.262
 4365W        W 8416   6.546   3.428  11.816
 4366W        W 8417   4.267   0.369   9.344
 4367W        W 8418   4.157   0.044   1.718
 4368W        W 8419   8.372   4.203  10.432
 4369W        W 8420   7.601   8.584   2.797
 4370W        W 8421  10.366   1.015  10.296
 4371W        W 8422   7.567   6.709   2.947
 4372W        W 8423   6.030   4.552  10.784
 4373W        W 8424  11.427   2.129   2.865
 4374W        W 8425   9.285   6.435   0.547
 4375W        W 8426   9.879   7.881  10.477
 4376W        W 8427  10.630   1.746  11.415
 4377W        W 8428   6.276   6.585  11.674
 4378W        W 8429   6.188   1.401  10.439
 4379W        W 8430   4.557  10.897  11.589
 4380W        W 8431   9.886   8.128   1.977
 4381W        W 8432   6.076   9.196   1.204
 4382W        W 8433   5.550   7.033  10.851
 4383W        W 8434   0.536   7.378  11.450
 4384W        W 8435   0.634   4.238   2.681
 4385W        W 8436   2.005   5.677   8.655
 4386W        W 8437   3.534   1.769   9.882
 4387W        W 8438   5.436   5.657  10.507
 4388W        W 8439   6.403   9.494   1.517
 4389W        W 8440   0.854   4.633   0.963
 4390W        W 8441  10.458   7.412   3.661
 4391W        W 8442   6.291   4.108   2.732
 4392W        W 8443   2.466   2.644  11.064
 4393W        W 8444   1.701   7.391   0.749
 4394W        W 8445   1.648   3.305   0.980
 4395W        W 8446  11.487  10.864   8.940
 4396W        W 8447   7.381  10.041   0.919
 4397W        W 8448   9.307   1.081   2.129
 4398W        W 8449   1.238   4.259   0.495
 4399W        W 8450   5.605   4.366  11.831
 4400W        W 8451   8.484   2.332   9.579
 4401W        W 8452   1.823   1.035   1.562
 4402W        W 8453   8.694   2.132   0.781
 4403W        W 8454   4.516   2.174  10.913
 4404W        W 8455   1.476  11.232   9.008
 4405W        W 8456   9.916   9.146   2.852
 4406W        W 8457   8.453   4.845   0.905
 4407W        W 8458   0.446   0.288  11.751
 4408W        W 8459   5.166   7.752   1.340
 4409W        W 8460  10.492   1.702   2.839
 4410W        W 8461   7.894   6.474   0.751
 4411W        W 8462   5.974   5.237  10.076
 4412W        W 8463   4.639   5.304  11.734
 4413W        W 8464   8.694   2.111   9.991
 4414W        W 8465   1.702  11.298   9.880
 4415W        W 8466  11.441  10.291   9.623
 4416W        W 8467   2.853  11.144  10.318
 4417W        W 8468   4.517   0.380   1.969
 4418W        W 8469   5.742   9.417  10.315
 4419W        W 8470   5.611   0.271   1.383
 4420W        W 8471   7.844   0.999   0.936
 4421W        W 8472   7.772   9.912   8.790
 4422W        W 8473   1.821  10.966   1.608
 4423W        W 8474   1.269   7.996   9.900
 4424W        W 8475   4.534   9.295   3.560
 4425W        W 8476   6.040   6.699   0.870
 4426W        W 8477   8.183   7.072   2.105
 4427W        W 8478   0.317   4.816   2.140
 4428W        W 8479   4.627   9.809  10.253
 4429W        W 8480   0.411   0.241  10.113
 4430W        W 8481  11.253   0.842  11.371
 4431W        W 8482   7.596   9.894   2.354
 4432W        W 8483   5.175   9.968   8.428
 4433W        W 8484   4.126   9.184   9.009
 4434W        W 8485   5.054   2.979   0.069
 4435W        W 8486   3.468   5.989   3.020
 4436W        W 8487  10.355  10.081   0.767
 4437W        W 8488   3.127   5.270  11.364
 4438W        W 8489   0.429  10.868   9.828
 4439W        W 8490   2.317   5.534  11.067
 4440W        W 8491   6.652   0.543  10.692
 4441W        W 8492   1.180   0.509   0.426
 4442W        W 8493   3.324   7.960   1.805
 4443W        W 8494   1.013   2.897   2.143
 4444W        W 8495   2.719   5.564   9.790
 4445W        W 8496   3.484   0.577   1.847
 4446W        W 8497  10.453   1.788   3.437
 4447W        W 8498   7.630   0.409   0.936
 4448W        W 8499  10.747   3.002  10.907
 4449W        W 8500   8.299   1.452   8.966
 4450W        W 8501   7.945   8.700   9.474
 4451W        W 8502   3.369  10.014   9.371
 4452W        W 8503  10.880  10.913  10.589
 4453W        W 8504   0.209   1.960   1.906
 4454W        W 8505   0.492   9.341  10.864
 4455W        W 8506  10.667   2.586   8.723
 4456W        W 8507   6.952  10.381   2.885
 4457W        W 8508   4.572   4.809   0.982
 4458W        W 8509   8.512   3.960  10.857
 4459W        W 8510   8.334   2.145   0.401
 4460W        W 8511   0.852   7.294   2.653
 4461W        W 8512   8.189   3.775   8.653
 4462W        W 8513   3.508   7.619   0.593
 4463W        W 8514   1.626   1.053   9.127
 4464W        W 8515   6.118  10.254   8.745
 4465W        W 8516  11.299   3.783   2.388
 4466W        W 8517  10.421  11.489  10.223
 4467W        W 8518   8.497   8.102   1.160
 4468W        W 8519   0.049   9.512  11.792
 4469W        W 8520   5.261  10.343   1.392
 4470W        W 8521   5.595  10.443  11.730
 4471W        W 8522   2.868   9.567   0.340
 4472W        W 8523   8.148   2.761   0.317
 4473W        W 8524   1.414   4.647   2.884
 4474W        W 8525   2.837   6.394   9.958
 4475W        W 8526  10.832  10.913  11.884
 4476W        W 8527   8.345   9.490   8.507
 4477W        W 8528   9.455   5.347  11.258
 4478W        W 8529   8.961   5.226   3.290
 4479W        W 8530   3.402   2.215   1.710
 4480W        W 8531  10.493  10.879   2.716
 4481W        W 8532  10.415  11.267   9.745
 4482W        W 8533   1.274   4.778  10.325
 4483W        W 8534   2.678   0.047  11.293
 4484W        W 8535   8.132   2.737  11.788
 4485W        W 8536   1.358   6.996  11.076
 4486W        W 8537   1.482   6.293  11.683
 4487W        W 8538   2.182   5.786  11.885
 4488W        W 8539  11.345   9.019  11.782
 4489W        W 8540  10.053   2.972   2.846
 4490W        W 8541   4.511   2.954   3.068
 4491W        W 8542   9.970   3.216   9.261
 4492W        W 8543  10.890   3.143   1.487
 4493W        W 8544   9.195   3.631  11.267
 4494W        W 8545   3.499   2.279  11.083
 4495W        W 8546   7.993   0.277   9.925
 4496W        W 8547   2.111   0.864   9.109
 4497W        W 8548   1.916   3.132   9.659
 4498W        W 8549  10.259  11.260   1.165
 4499W        W 8550   6.660  11.333   1.989
 4500W        W 8551   4.058   2.957   9.095
 4501W        W 8552   3.967   0.975  10.832
 4502W        W 8553   1.699   2.230  11.367
 4503W        W 8554   3.186   0.717  11.815
 4504W        W 8555   3.336   6.557   9.835
 4505W        W 8556   8.724   9.047  10.272
 4506W        W 8557   5.679   4.041   8.201
 4507W        W 8558   5.875  10.992   0.459
 4508W        W 8559   0.147   0.348   2.481
 4509W        W 8560   5.583   9.700   0.681
 4510W        W 8561   1.192   3.733   3.377
 4511W        W 8562   9.028  10.577   0.248
 4512W        W 8563   2.877   1.359   8.982
 4513W        W 8564   9.526   0.983  10.342
 4514W        W 8565   6.998   1.844   1.128
 4515W        W 8566   1.186   0.205   9.119
 4516W        W 8567   8.950   7.173   1.662
 4517W        W 8568  11.211   9.373  10.382
 4518W        W 8569   9.178   9.548   3.276
 4519W        W 8570   3.899   6.971   2.429
 4520W        W 8571   3.749   7.107  10.124
 4521W        W 8572   4.623   6.386   3.968
 4522W        W 8573   4.714   7.534   9.552
 4523W        W 8574   7.039   8.737  11.583
 4524W        W 8575   1.308  10.483  10.874
 4525W        W 8576   5.675   8.480   8.608
 4526W        W 8577   9.378   1.094   0.247
 4527W        W 8578   2.009   6.986   0.820
 4528W        W 8579   1.148   7.134   9.526
 4529W        W 8580   5.824   5.295  10.570
 4530W        W 8581   6.886   8.519   1.051
 4531W        W 8582   4.037   7.534  10.527
 4532W        W 8583   6.003   2.786   1.356
 4533W        W 8584  11.456   5.144  11.594
 4534W        W 8585   6.686   9.548   1.969
 4535W        W 8586   6.869   8.147  11.768
 4536W        W 8587   4.273   6.973   2.089
 4537W        W 8588   6.071   7.391   1.749
 4538W        W 8589   6.216   0.478  10.337
 4539W        W 8590   9.639   8.001   0.797
 4540W        W 8591   9.910   3.822  10.807
 4541W        W 8592  11.191   1.316   0.075
 4542W        W 8593   5.998   2.648   9.070
 4543W        W 8594  11.377   2.482  11.554
 4544W        W 8595   3.116   6.629   2.023
 4545W        W 8596   6.268   9.050   9.093
 4546W        W 8597   6.827   0.251   0.008
 4547W        W 8598   2.289   0.948  10.396
 4548W        W 8599   7.126   0.292  10.490
 4549W        W 8600   8.082   8.427  10.440
 4550W        W 8601   7.954   3.322  10.155
 4551W        W 8602   9.632  10.444   3.416
 4552W        W 8603   2.571   8.113   8.899
 4553W        W 8604   7.900   3.199   9.650
 4554W        W 8605   9.882   6.122   1.186
 4555W        W 8606   2.479   6.534   9.627
 4556W        W 8607   4.596   9.518  11.215
 4557W        W 8608   5.974   4.383   8.475
 4558W        W 8609   7.754   7.935   9.640
 4559W        W 8610   1.211  11.455   0.953
 4560W        W 8611   6.598  10.824   9.808
 4561W        W 8612   4.619   6.319   8.804
 4562W        W 8613   8.573   9.432   2.878
 4563W        W 8614   5.039  11.050  11.571
 4564W        W 8615   4.590  11.232   0.857
 4565W        W 8616   0.041   9.962   3.143
 4566W        W 8617   4.519   3.369   2.762
 4567W        W 8618   3.366   7.163   0.753
 4568W        W 8619   2.989   9.786   2.923
 4569W        W 8620  10.731  10.323   1.835
 4570W        W 8621   7.499   7.212   2.938
 4571W        W 8622  10.488   6.514   9.359
 4572W        W 8623  11.458   6.801  10.986
 4573W        W 8624   1.280   8.766  10.573
 4574W        W 8625   3.512   9.303   8.705
 4575W        W 8626   8.802   3.049  10.064
 4576W        W 8627   9.638   5.781   9.906
 4577W        W 8628   9.474   6.078   3.429
 4578W        W 8629   2.686   2.297  11.375
 4579W        W 8630   1.474   2.666  11.490
 4580W        W 8631   9.889   8.354  10.335
 4581W        W 8632   9.728   4.768   9.733
 4582W        W 8633   8.118   2.262  11.944
 4583W        W 8634   9.831   4.122  10.065
 4584W        W 8635   2.381  10.167  11.879
 4585W        W 8636   1.303   5.547  10.508
 4586W        W 8637   7.474   1.189  10.936
 4587W        W 8638  10.033   2.658   3.266
 4588W        W 8639   2.145   6.757  11.781
 4589W        W 8640   1.700   3.898   3.297
 4590W        W 8641   5.967   9.137   2.110
 4591W        W 8642  10.499   2.734   2.965
 4592W        W 8643  10.866   8.669   0.379
 4593W        W 8644   6.449  10.651   3.281
 4594W        W 8645   9.389   0.845   1.306
 4595W        W 8646   9.305   3.962   3.538
 4596W        W 8647   4.550  10.812  10.176
 4597W        W 8648   6.423  10.740   0.939
 4598W        W 8649   9.573  11.165   8.470
 4599W        W 8650  10.879   4.023   3.274
 4600W        W 8651   0.746   8.610   8.953
 4601W        W 8652   0.393   5.661   2.352
 4602W        W 8653   4.644   3.195  10.867
 4603W        W 8654  10.290  10.083  10.573
 4604W        W 8655  11.375   4.416   1.140
 4605W        W 8656   7.999   9.938   1.867
 4606W        W 8657   9.924   4.390   2.889
 4607W        W 8658   2.215   4.852   1.683
 4608W        W 8659   6.523   0.705   9.985
 4609W        W 8660   8.622   6.639   9.270
 4610W        W 8661   5.887   3.383  10.282
 4611W        W 8662   7.177   6.158   1.180
 4612W        W 8663   4.243   6.699   9.468
 4613W        W 8664   8.615   2.063   3.584
 4614W        W 8665   7.451   4.268  11.498
 4615W        W 8666   4.241   0.551  10.887
 4616W        W 8667   9.278   3.368   0.008
 4617W        W 8668   0.318   2.693  10.074
 4618W        W 8669   3.816   2.200   9.549
 4619W        W 8670   7.425  11.272   9.480
 4620W        W 8671   0.153   2.256  11.951
 4621W        W 8672   8.013  11.283   1.995
 4622W        W 8673   1.448   8.450   9.723
 4623W        W 8674   2.339   7.651   9.732
 4624W        W 8675   4.961   2.829   2.241
 4625W        W 8676   5.564   7.131   1.170
 4626W        W 8677   5.636   4.223   2.699
 4627W        W 8678   8.832   9.475   1.166
 4628W        W 8679   8.312   0.205   2.468
 4629W        W 8680   2.798   4.742  10.879
 4630W        W 8681   5.219   9.273  11.556
 4631W        W 8682   6.054   0.369   2.777
 4632W        W 8683   4.188   7.547   9.547
 4633W        W 8684   2.347   3.479   9.480
 4634W        W 8685  11.292  11.243   1.323
 4635W        W 8686   8.403  10.821   3.352
 4636W        W 8687   1.223   2.655   8.893
 4637W        W 8688   2.665   8.629   2.207
 4638W        W 8689  10.107   9.788   0.442
 4639W        W 8690   1.863   2.032  11.933
 4640W        W 8691   5.795   1.216   8.974
 4641W        W 8692   1.831   3.685  10.500
 4642W        W 8693   4.568   3.158   9.957
 4643W        W 8694   5.693   3.638  10.993
 4644W        W 8695   6.450   8.279  10.859
 4645W        W 8696   9.395  10.809   3.082
 4646W        W 8697   1.199   3.138   8.652
 4647W        W 8698   7.719   8.583   2.281
 4648W        W 8699  10.954   8.650   9.343
 4649W        W 8700   3.124   0.813   0.744
 4650W        W 8701   4.706   9.080  10.948
 4651W        W 8702   3.156   0.866   9.096
 4652W        W 8703   6.345   8.861  11.946
 4653W        W 8704   5.151  10.538   3.335
 4654W        W 8705  11.325   2.608  10.005
 4655W        W 8706   8.090   0.981   9.079
 4656W        W 8707   6.749   7.697  11.551
 4657W        W 8708   2.163   9.819   0.745
 4658W        W 8709   0.341  10.954   2.617
 4659W        W 8710  11.083   2.602  10.486
 4660W        W 8711   7.545   5.990   0.833
 4661W        W 8712   3.174   4.367   1.216
 4662W        W 8713   2.340   4.145  11.596
 4663W        W 8714  10.071  10.241   2.255
 4664W        W 8715   7.166  10.350   2.415
 4665W        W 8716   8.297   8.528   3.404
 4666W        W 8717   1.300   9.286   8.971
 4667W        W 8718  10.923   0.878  11.863
 4668W        W 8719   6.487   0.096   2.886
 4669W        W 8720  10.384   8.974   0.092
 4670W        W 8721   2.696   1.160   0.339
 4671W        W 8722   7.817   7.728   0.887
 4672W        W 8723   7.517   4.625  10.039
 4673W        W 8724   5.687   3.581   0.270
 4674W        W 8725  10.497   3.617   1.307
 4675W        W 8726   8.253   2.455   1.952
 4676W        W 8727  11.478   9.017   9.122
 4677W        W 8728   3.236   3.362   9.461
 4678W        W 8729   1.671  10.689   0.454
 4679W        W 8730   2.284   4.376   1.457
 4680W        W 8731   0.552   7.056   0.239
 4681W        W 8732  11.015   7.169   9.012
 4682W        W 8733  10.131   9.101   0.948
 4683W        W 8734   1.476   3.182   3.602
 4684W        W 8735   4.815   0.474  11.524
 4685W        W 8736   0.831  10.909   0.226
 4686W        W 8737   9.512   2.379   1.012
 4687W        W 8738   2.833  10.937   8.510
 4688W        W 8739   4.994   9.511   3.369
 4689W        W 8740   8.070   8.492   0.410
 4690W        W 8741   0.566   2.315   0.270
 4691W        W 8742   0.829   7.414   3.565
 4692W        W 8743   8.068   2.050   8.561
 4693W        W 8744   8.571   8.460   2.508
 4694W        W 8745   6.172   6.208  10.270
 4695W        W 8746   0.313   5.264  10.273
 4696W        W 8747   9.833   9.442  11.130
 4697W        W 8748  10.276   0.759   2.712
 4698W        W 8749   2.891   5.048   2.184
 4699W        W 8750   4.978  11.059  10.324
 4700W        W 8751   4.046  10.555  10.253
 4701W        W 8752   9.596  11.021  10.323
 4702W        W 8753   2.961   4.973   1.696
 4703W        W 8754  10.120   3.764  11.263
 4704W        W 8755   5.104  10.953   1.524
 4705W        W 8756   7.533   0.588  10.647
 4706W        W 8757   6.730   6.284  10.522
 4707W        W 8758   6.248   7.155   0.851
 4708W        W 8759   0.128   4.111   2.628
 4709W        W 8760   7.038   1.432   2.129
 4710W        W 8761   2.973   6.897   0.996
 4711W        W 8762  10.606   0.800   1.808
 4712W        W 8763   9.613   1.649  11.462
 4713W        W 8764   2.450   7.023   0.546
 4714W        W 8765   3.202   9.593  10.071
 4715W        W 8766  10.449   9.000   9.237
 4716W        W 8767   5.126  10.556  11.595
 4717W        W 8768   4.764   5.243   1.274
 4718W        W 8769   8.083   0.644   2.241
 4719W        W 8770   0.605   8.707   0.914
 4720W        W 8771   3.525   4.651   3.593
 4721W        W 8772   6.105   5.206   1.046
 4722W        W 8773   2.038   9.073   1.319
 4723W        W 8774   4.842   0.983   9.312
 4724W        W 8775   0.901   2.437   0.709
 4725W        W 8776   8.607   4.644   9.535
 4726W        W 8777   7.254   9.971  11.078
 4727W        W 8778   4.262   7.138  10.275
 4728W        W 8779   7.388   0.826  10.214
 4729W        W 8780   2.593   4.285  10.711
 4730W        W 8781   0.457  10.805   1.646
 4731W        W 8782   9.738   6.615  10.861
 4732W        W 8783   5.878   6.908   3.535
 4733W        W 8784   5.638   4.532   3.481
 4734W        W 8785  10.802   9.565  11.309
 4735W        W 8786   1.562   6.901   0.537
 4736W        W 8787  10.342   3.687   2.490
 4737W        W 8788   8.870  10.866   3.083
 4738W        W 8789   6.369   0.658   9.518
 4739W        W 8790   9.883   0.441  11.821
 4740W        W 8791   6.021   2.670   9.948
 4741W        W 8792   3.157   1.011   3.007
 4742W        W 8793   1.605   0.665   9.963
 4743W        W 8794   4.734   5.234   1.793
 4744W        W 8795   1.821   0.469  11.745
 4745W        W 8796   1.698   3.370  11.943
 4746W        W 8797  11.408   6.161  10.942
 4747W        W 8798   0.698   9.545   1.109
 4748W        W 8799   6.104   7.896   1.754
 4749W        W 8800   1.236   8.274  10.713
 4750W        W 8801   2.704   0.384  11.737
 4751W        W 8802   5.553   6.706   0.895
 4752W        W 8803   0.263   6.184   1.025
 4753W        W 8804   1.740   9.525   9.084
 4754W        W 8805   7.763   6.560  11.890
 4755W        W 8806   9.970   7.988   9.192
 4756W        W 8807   1.882   7.201   8.922
 4757W        W 8808   7.372  11.291  10.366
 4758W        W 8809   4.863  10.836   0.008
 4759W        W 8810   1.398  10.663   2.765
 4760W        W 8811   8.495   9.895   3.112
 4761W        W 8812   8.074  11.386   3.436
 4762W        W 8813   8.040   0.232   1.313
 4763W        W 8814   4.694   2.208  10.072
 4764W        W 8815   2.253   5.692   2.223
 4765W        W 8816   4.322   1.888  10.159
 4766W        W 8817   9.508  10.087   9.438
 4767W        W 8818   1.391   1.475   0.400
 4768W        W 8819  10.390   5.516   8.851
 4769W        W 8820   5.692  11.375   2.262
 4770W        W 8821  10.285   5.311   1.298
 4771W        W 8822   3.660   8.235   2.693
 4772W        W 8823   2.644   9.096   2.433
 4773W        W 8824   5.005   6.165   1.417
 4774W        W 8825  11.432   4.715  10.067
 4775W        W 8826   2.451   7.208   3.659
 4776W        W 8827   0.719   7.575  10.220
 4777W        W 8828   8.052   0.475   8.923
 4778W        W 8829   1.911  11.237   3.457
 4779W        W 8830   1.056  10.518   1.025
 4780W        W 8831   0.165   9.347   0.482
 4781W        W 8832   9.077   3.447   1.865
 4782W        W 8833   9.674   3.702   0.124
 4783W        W 8834   5.969   1.684  11.813
 4784W        W 8835   9.952   5.235   1.690
 4785W        W 8836   6.088   6.406   1.748
 4786W        W 8837  10.419   5.819  10.998
 4787W        W 8838   6.603   4.326   1.441
 4788W        W 8839   8.207   3.722   2.804
 4789W        W 8840   0.939  11.204   3.600
 4790W        W 8841   3.932   9.827   3.567
 4791W        W 8842  11.247   1.218  10.289
 4792W        W 8843   5.343  10.691   0.088
 4793W        W 8844   6.256   1.539  11.412
 4794W        W 8845   3.230   7.192  11.886
 4795W        W 8846   5.894  11.084  10.413
 4796W        W 8847  11.097  11.221   2.199
 4797W        W 8848   6.061   7.597   0.725
 4798W        W 8849   6.530   9.845   0.850
 4799W        W 8850   1.939   3.276   2.340
 4800W        W 8851   2.884   2.259   1.700
 4801W        W 8852  10.042   9.905   1.348
 4802W        W 8853   2.031  10.481   0.072
 4803W        W 8854   6.172   8.673   9.468
 4804W        W 8855   0.800   2.856   2.581
 4805W        W 8856  10.834   2.247   9.252
 4806W        W 8857   4.224   1.100   3.680
 4807W        W 8858   2.280   3.112  11.271
 4808W        W 8859  10.719   0.077   2.247
 4809W        W 8860   2.548  11.370  11.782
 4810W        W 8861   1.027   1.387   2.763
 4811W        W 8862   1.311   1.043  10.099
 4812W        W 8863   3.105   1.183   0.016
 4813W        W 8864   8.547   3.576   0.402
 4814W        W 8865  11.482   3.868   0.490
 4815W        W 8866  10.442   5.318   9.878
 4816W        W 8867   2.231   5.227   8.584
 4817W        W 8868   2.659   5.052   3.199
 4818W        W 8869   6.543   3.959  11.805
 4819W        W 8870   8.447   9.324   2.406
 4820W        W 8871   8.195   2.349   1.455
 4821W        W 8872   0.191   9.522   0.965
 4822W        W 8873   3.221   1.599  10.904
 4823W        W 8874   1.985  11.461  10.449
 4824W        W 8875   7.094   9.307   8.462
 4825W        W 8876   7.271   4.269   2.759
 4826W        W 8877   9.992  11.436  11.026
 4827W        W 8878   8.375   0.829  11.688
 4828W        W 8879   4.669   3.742   9.051
 4829W        W 8880   6.033   9.608   3.072
 4830W        W 8881   9.069   1.733   9.810
 4831W        W 8882   5.748   6.435   3.101
 4832W        W 8883   6.925   2.181  10.483
 4833W        W 8884   5.462   4.509   8.325
 4834W        W 8885   2.710   7.074   8.569
 4835W        W 8886   4.673   4.829  10.488
 4836W        W 8887   7.924   6.212   9.759
 4837W        W 8888   3.541  11.267   2.151
 4838W        W 8889  11.269   2.042   9.466
 4839W        W 8890  10.292   0.490  10.228
 4840W        W 8891  10.401   8.346   0.475
 4841W        W 8892   4.530   2.385   0.514
 4842W        W 8893   7.010   8.912   1.756
 4843W        W 8894   5.127   2.614   8.978
 4844W        W 8895   6.989   2.748   2.256
 4845W        W 8896   2.579   0.932   0.797
 4846W        W 8897  10.557   3.506  11.276
 4847W        W 8898   9.630   4.071   0.459
 4848W        W 8899   6.096   8.162   1.312
 4849W        W 8900   3.113  11.308   0.958
 4850W        W 8901   0.256  10.028   0.901
 4851W        W 8902   5.689  10.481   1.644
 4852W        W 8903   6.927   2.919   0.981
 4853W        W 8904  10.465   4.901  10.805
 4854W        W 8905   3.519  10.845   1.302
 4855W        W 8906   8.040   2.319   2.414
 4856W        W 8907   8.340   0.203   1.960
 4857W        W 8908   2.425   5.130  10.796
 4858W        W 8909   1.892   9.664   2.054
 4859W        W 8910   2.261  10.494   9.642
 4860W        W 8911   3.070   9.363   2.647
 4861W        W 8912   6.755   2.604   2.685
 4862W        W 8913  10.666   5.491   3.118
 4863W        W 8914   6.816   8.008   1.069
 4864W        W 8915   3.902   8.765   0.441
 4865W        W 8916   8.562  10.838   9.070
 4866W        W 8917   9.965  10.943  10.878
 4867W        W 8918   0.196  11.322   8.826
 4868W        W 8919   9.391   7.502   2.559
 4869W        W 8920  11.458   6.548   1.349
 4870W        W 8921  10.486   3.210   3.212
 4871W        W 8922   4.861   1.789   2.351
 4872W        W 8923  10.343   4.654  11.890
 4873W        W 8924   7.576   2.028   3.013
 4874W        W 8925   6.116   8.432   1.744
 4875W        W 8926  10.826   0.633   2.298
 4876W        W 8927   3.900   1.412   2.822
 4877W        W 8928   1.452   6.092   0.558
 4878W        W 8929   6.173   5.048   0.020
 4879W        W 8930   7.039   5.166   1.150
 4880W        W 8931   2.308  10.294   1.475
 4881W        W 8932   8.828   1.315   2.220
 4882W        W 8933   8.574  10.370   9.962
 4883W        W 8934   0.764   0.574  11.412
 4884W        W 8935   1.501   4.103   2.321
 4885W        W 8936   4.074   6.346   8.080
 4886W        W 8937   8.870   2.092   3.127
 4887W        W 8938   2.154   2.396   2.305
 4888W        W 8939  10.594   0.282   9.796
 4889W        W 8940   0.758   9.487  10.400
 4890W        W 8941   3.593   7.455  11.267
 4891W        W 8942   7.733   5.071  11.046
 4892W        W 8943   3.139   6.786   8.531
 4893W        W 8944   0.917   7.970   0.594
 4894W        W 8945   5.988   2.574   3.619
 4895W        W 8946   3.173   7.615  10.537
 4896W        W 8947   8.378  10.860  10.031
 4897W        W 8948   9.572  10.880   8.927
 4898W        W 8949   3.487   8.890   9.499
 4899W        W 8950   7.796   3.612   1.883
 4900W        W 8951   2.952   1.152  10.923
 4901W        W 8952   2.314   7.459  11.070
 4902W        W 8953   7.955   5.506  10.310
 4903W        W 8954   5.199   8.608   1.648
 4904W        W 8955  11.456   2.069   9.940
 4905W        W 8956   6.605   1.434   0.360
 4906W        W 8957   2.607   5.767   0.246
 4907W        W 8958   0.867   3.609  11.954
 4908W        W 8959   3.671   6.304   8.998
 4909W        W 8960   0.877   9.557   9.087
 4910W        W 8961  10.147   6.577   3.834
 4911W        W 8962   4.657   7.469  11.070
 4912W        W 8963   7.125   8.057   0.225
 4913W        W 8964  10.028   5.170   9.559
 4914W        W 8965   0.319   1.659   2.297
 4915W        W 8966   2.866   1.413   2.834
 4916W        W 8967   1.510  10.416   2.294
 4917W        W 8968  11.420   7.010  11.450
 4918W        W 8969   9.513   3.432   2.163
 4919W        W 8970   8.960   0.895   9.334
 4920W        W 8971   3.669  10.349   1.182
 4921W        W 8972  10.917   2.202  11.446
 4922W        W 8973  10.438   0.101   9.331
 4923W        W 8974   9.241   6.092   2.425
 4924W        W 8975   6.872   7.492   3.177
 4925W        W 8976   6.267  11.315   1.656
 4926W        W 8977   6.384   5.874   9.623
 4927W        W 8978   7.283   2.747   1.376
 4928W        W 8979  10.227   6.502   1.916
 4929W        W 8980   0.755   5.762  11.046
 4930W        W 8981   5.448   2.828   2.417
 4931W        W 8982   7.524   0.464   0.434
 4932W        W 8983   1.135   6.022   0.946
 4933W        W 8984   3.556   8.485   3.149
 4934W        W 8985  10.206   1.150   0.031
 4935W        W 8986   2.752   1.906   0.689
 4936W        W 8987   3.206  10.474   9.574
 4937W        W 8988   3.926   6.963  11.168
 4938W        W 8989   7.430   1.960  10.508
 4939W        W 8990   4.235   2.393   8.809
 4940W        W 8991   3.402   9.872  11.939
 4941W        W 8992   8.761   3.834   1.700
 4942W        W 8993   8.023   6.510   2.768
 4943W        W 8994   1.155  10.433  11.970
 4944W        W 8995  10.452   7.485   0.165
 4945W        W 8996  10.858   1.557   2.452
 4946W        W 8997   9.936   8.944   0.479
 4947W        W 8998   9.636   4.201   9.011
 4948W        W 8999   2.616   1.350  11.253
 4949W        W 9000   4.212  11.032   1.691
 4950W        W 9001   7.007   0.810   3.116
 4951W        W 9002   8.537   8.823   1.708
 4952W        W 9003   1.677   3.073   2.745
 4953W        W 9004   0.010   2.873  10.459
 4954W        W 9005   8.882   7.824  10.622
 4955W        W 9006   5.907  10.433   1.182
 4956W        W 9007   2.807  11.409   2.663
 4957W        W 9008   2.596   2.442   1.292
 4958W        W 9009  10.331   7.418   2.405
 4959W        W 9010   9.331   4.804   2.278
 4960W        W 9011   2.915   5.053   1.208
 4961W        W 9012  10.372   1.653  10.957
 4962W        W 9013  10.906   6.124   3.231
 4963W        W 9014   1.267   4.292   9.408
 4964W        W 9015   1.357   0.358   2.005
 4965W        W 9016   7.224   7.912  11.490
 4966W        W 9017   3.825   8.147   1.895
 4967W        W 9018   1.715   8.137   2.264
 4968W        W 9019   5.887   7.248  11.759
 4969W        W 9020   0.644   3.226   3.495
 4970W        W 9021   2.156   5.817   3.283
 4971W        W 9022  10.299  11.412   2.499
 4972W        W 9023   6.456   0.950  10.428
 4973W        W 9024   6.500   6.214   2.021
 4974W        W 9025  10.131   5.112  11.930
 4975W        W 9026  11.008   4.968  10.802
 4976W        W 9027   8.770   6.433   8.301
 4977W        W 9028   1.750   4.971   0.768
 4978W        W 9029   6.467   5.713   0.453
 4979W        W 9030   6.673   4.946  11.972
 4980W        W 9031   6.228  10.420   1.631
 4981W        W 9032  11.065   0.501   9.888
 4982W        W 9033  10.147   3.808   0.251
 4983W        W 9034   5.235   6.713   2.258
 4984W        W 9035   9.342   5.950   9.491
 4985W        W 9036   0.412   9.033  11.594
 4986W        W 9037   2.302   3.751   0.325
 4987W        W 9038   4.946   9.970   9.224
 4988W        W 9039   9.099   5.498   9.553
 4989W        W 9040   1.734   6.738   9.897
 4990W        W 9041   4.761  11.476  11.568
 4991W        W 9042   7.039   5.541  11.205
 4992W        W 9043   2.497   4.138   2.269
 4993W        W 9044   6.646  11.039   3.547
 4994W        W 9045   7.900   5.914  11.447
 4995W        W 9046   6.732   7.971   0.569
 4996W        W 9047   3.521   7.935   2.276
 4997W        W 9048   8.386   6.058  11.410
 4998W        W 9049  11.417   6.439   9.861
 4999W        W 9050   2.002   2.655   9.431
 5000W        W 9051   7.374   9.709   8.555
 5001W        W 9052   5.795   6.668   1.378
 5002W        W 9053  11.246   2.157   8.960
 5003W        W 9054   8.260  10.572  11.434
 5004W        W 9055   0.176   8.059  11.286
 5005W        W 9056   9.997   5.171   3.505
 5006W        W 9057   0.936   9.016   3.662
 5007W        W 9058   2.875   6.541  11.925
 5008W        W 9059   7.294  10.442  11.338
 5009W        W 9060   3.966   0.223   3.592
 5010W        W 9061   8.051   6.848   1.214
 5011W        W 9062   8.622   4.039   2.693
 5012W        W 9063   3.613  11.228   0.889
 5013W        W 9064   0.711   7.742   2.446
 5014W        W 9065   5.369   9.435   3.692
 5015W        W 9066   0.991   9.611  10.881
 5016W        W 9067   7.387   2.600   9.942
 5017W        W 9068   4.162   6.051   1.670
 5018W        W 9069   7.597  11.048   2.708
 5019W        W 9070   8.571   7.413  10.699
 5020W        W 9071   6.543   6.107   8.213
 5021W        W 9072   2.676   6.467   0.956
 5022W        W 9073   3.273   2.622  11.991
 5023W        W 9074   6.533   8.458   9.182
 5024W        W 9075   2.613  11.115   1.076
 5025W        W 9076   6.670  10.300   2.464
 5026W        W 9077   3.075   1.194   1.062
 5027W        W 9078   8.691  10.310   9.018
 5028W        W 9079   5.444   3.124   9.272
 5029W        W 9080   5.939   5.804  10.510
 5030W        W 9081  10.033   3.703  11.754
 5031W        W 9082   9.999   5.581   9.170
 5032W        W 9083   8.518   2.586  10.110
 5033W        W 9084   5.292   2.141  11.489
 5034W        W 9085   0.557   2.321  10.354
 5035W        W 9086   1.364   9.510  11.564
 5036W        W 9087   6.676   8.384   2.283
 5037W        W 9088   8.180   9.482   3.229
 5038W        W 9089   9.870   8.642   2.836
 5039W        W 9090   2.511   6.689   3.461
 5040W        W 9091   1.384   1.455   1.809
 5041W        W 9092   9.803   9.331   2.154
 5042W        W 9093   5.312   5.118  11.606
 5043W        W 9094   6.710  11.440   1.429
 5044W        W 9095   8.889   8.256   8.148
 5045W        W 9096   2.735   7.909   9.881
 5046W        W 9097   1.700   1.525   2.578
 5047W        W 9098   5.784   9.154   0.555
 5048W        W 9099  10.925   5.551  11.882
 5049W        W 9100   1.467   4.533   9.008
 5050W        W 9101   5.590   6.150  10.670
 5051W        W 9102  11.291  10.749   9.445
 5052W        W 9103   9.350   1.839   1.057
 5053W        W 9104   5.252   1.376   8.592
 5054W        W 9105   9.630   3.793   9.494
 5055W        W 9106   2.502   2.926  10.517
 5056W        W 9107   3.727   8.458   9.244
 5057W        W 9108  11.119   1.491   0.965
 5058W        W 9109   8.621  10.811  10.481
 5059W        W 9110   5.408   7.745   8.242
 5060W        W 9111   1.385   5.676   2.752
 5061W        W 9112   7.584  10.929   1.289
 5062W        W 9113   0.473   1.476   0.293
 5063W        W 9114   4.514   1.272  11.991
 5064W        W 9115   0.268   7.512   2.512
 5065W        W 9116   2.469   5.297   0.518
 5066W        W 9117   7.803   5.500  11.710
 5067W        W 9118   7.601   8.910  10.176
 5068W        W 9119   3.064   1.832  10.048
 5069W        W 9120   4.008   0.477   1.945
 5070W        W 9121   7.492   0.674  11.611
 5071W        W 9122   4.081   4.822   0.806
 5072W        W 9123   9.583   1.350   2.925
 5073W        W 9124   6.644   7.543   9.183
 5074W        W 9125   3.282   7.771   8.947
 5075W        W 9126  11.474   0.785  10.815
 5076W        W 9127   1.436   5.085   9.002
 5077W        W 9128   7.164  10.398   3.338
 5078W        W 9129   1.352   2.324   2.877
 5079W        W 9130   8.784   3.132  11.006
 5080W        W 9131   1.784   7.643  11.875
 5081W        W 9132   4.091   2.219   2.169
 5082W        W 9133  10.113   1.717  11.402
 5083W        W 9134   3.374   8.644   2.679
 5084W        W 9135   7.821   7.443   3.263
 5085W        W 9136   4.589   4.397  11.312
 5086W        W 9137  11.292   9.257  11.279
 5087W        W 9138   8.560   7.189  10.232
 5088W        W 9139   3.455   7.062  10.974
 5089W        W 9140   1.930   0.252   9.994
 5090W        W 9141   2.932  10.047   0.500
 5091W        W 9142   0.505  10.883   8.948
 5092W        W 9143   1.771   6.436   2.451
 5093W        W 9144   3.606   8.876   9.998
 5094W        W 9145   8.534   2.834   3.149
 5095W        W 9146   6.999   0.709  11.785
 5096W        W 9147   9.346  11.165  11.694
 5097W        W 9148   9.331  11.111   9.337
 5098W        W 9149   2.664   5.564   9.264
 5099W        W 9150   1.386   7.896  10.409
 5100W        W 9151   4.413   9.125   8.537
 5101W        W 9152  11.120   9.594   3.099
 5102W        W 9153   0.805   6.607   0.271
 5103W        W 9154   3.802   8.027   0.513
 5104W        W 9155   2.467   9.621  11.144
 5105W        W 9156   9.000   6.289   1.800
 5106W        W 9157   4.351   7.113   2.620
 5107W        W 9158  10.795   8.242   3.133
 5108W        W 9159   6.630   9.402   0.560
 5109W        W 9160   1.363   0.469   0.929
 5110W        W 9161   4.535   3.028   1.929
 5111W        W 9162   8.597   3.626   8.391
 5112W        W 9163   4.478   5.996  10.650
 5113W        W 9164   4.497   1.443   3.354
 5114W        W 9165   3.507   9.129   2.744
 5115W        W 9166   0.818   5.310   3.122
 5116W        W 9167   0.250  10.997   3.636
 5117W        W 9168   0.230   9.458  10.422
 5118W        W 9169   1.888  10.904   2.626
 5119W        W 9170   1.981   3.214   3.448
 5120W        W 9171  11.432  10.804   2.318
 5121W        W 9172   0.384   5.409  11.661
 5122W        W 9173   1.727  11.371   1.917
 5123W        W 9174   3.744   7.619   1.877
 5124W        W 9175   7.990   6.939  11.526
 5125W        W 9176   4.592   4.360   1.704
 5126W        W 9177  10.873   0.990  10.046
 5127W        W 9178  10.623   2.245  11.877
 5128W        W 9179   5.475   5.218  10.214
 5129W        W 9180   7.449   8.855  10.666
 5130W        W 9181   4.033   3.101  10.514
 5131W        W 9182   0.737   4.332   9.061
 5132W        W 9183   3.244   6.689   9.346
 5133W        W 9184   4.487   3.753   2.328
 5134W        W 9185  10.861   2.124   3.533
 5135W        W 9186   6.520   9.807   2.355
 5136W        W 9187   0.976   1.600   3.292
 5137W        W 9188   0.944   1.906  11.498
 5138W        W 9189   1.388   9.920  11.248
 5139W        W 9190   2.647   3.793   9.943
 5140W        W 9191   3.390   3.203  11.972
 5141W        W 9192   1.014   7.938   2.862
 5142W        W 9193   8.164   4.630   3.144
 5143W        W 9194   6.002   2.822   8.579
 5144W        W 9195  10.400   6.995   3.204
 5145W        W 9196   6.200   1.791   0.267
 5146W        W 9197  11.460   9.205   1.773
 5147W        W 9198   0.412   9.553   2.466
 5148W        W 9199   5.013   4.307   3.585
 5149W        W 9200   1.566   1.918   1.702
 5150W        W 9201   2.195   0.812   1.192
 5151W        W 9202   5.236   1.246   1.620
 5152W        W 9203   3.042   5.369   3.372
 5153W        W 9204   6.045   7.428  10.777
 5154W        W 9205  10.847   2.778  10.065
 5155W        W 9206   6.171   2.143  11.869
 5156W        W 9207   4.600   4.844  11.962
 5157W        W 9208  10.609   1.383   3.222
 5158W        W 9209   0.887   8.418   1.231
 5159W        W 9210   5.705   0.945   9.405
 5160W        W 9211   6.887   4.065   1.839
 5161W        W 9212   3.584   5.200   8.335
 5162W        W 9213   8.838  11.385   1.165
 5163W        W 9214   3.718   7.449  11.751
 5164W        W 9215   9.064   2.287  11.000
 5165W        W 9216   9.972   9.830   9.312
 5166W        W 9217   4.219   5.166   1.582
 5167W        W 9218   2.466  10.405   2.567
 5168W        W 9219   1.296   4.736   0.689
 5169W        W 9220   1.266   8.141   1.047
 5170W        W 9221   1.907   4.084  10.122
 5171W        W 9222   2.703   4.632   2.451
 5172W        W 9223   7.906   8.808  11.578
 5173W        W 9224   8.558   5.758   2.602
 5174W        W 9225  10.265   7.018   0.936
 5175W        W 9226   0.929   4.167   3.533
 5176W        W 9227   0.913   5.520   2.519
 5177W        W 9228   8.766   6.099   1.017
 5178W        W 9229   1.682   4.164   2.822
 5179W        W 9230   2.049   9.449   3.150
 5180W        W 9231   5.132   7.009   0.220
 5181W        W 9232  10.722   2.671   1.665
 5182W        W 9233   9.486   5.741   9.008
 5183W        W 9234  10.840  10.399   8.781
 5184W        W 9235   3.606   4.206   1.463
 5185W        W 9236   0.414   5.478  10.771
 5186W        W 9237   6.084   7.629   1.241
 5187W        W 9238   9.641   1.191   3.399
 5188W        W 9239   3.354   4.295   9.913
 5189W        W 9240  10.832   0.961   3.345
 5190W        W 9241   8.099   1.911   9.105
 5191W        W 9242   6.070   0.847   3.521
 5192W        W 9243   0.685  10.850  10.293
 5193W        W 9244   6.956   9.609   8.863
 5194W        W 9245  11.129   2.486   2.619
 5195W        W 9246   9.253   5.297   9.113
 5196W        W 9247   0.923   4.156  10.769
 5197W        W 9248   9.542  10.378   2.374
 5198W        W 9249   3.843   6.456  11.301
 5199W        W 9250   1.832   7.545  10.942
 5200W        W 9251   3.720   6.124   2.005
 5201W        W 9252   2.673   1.765   9.287
 5202W        W 9253   8.913   4.154  10.183
 5203W        W 9254   4.947   3.063   9.168
 5204W        W 9255   6.404   6.211   0.482
 5205W        W 9256   8.633   1.884   9.049
 5206W        W 9257   9.419  10.838   2.208
 5207W        W 9258   9.114   5.206   0.025
 5208W        W 9259   4.648   9.491   0.267
 5209W        W 9260   3.392   7.043   2.310
 5210W        W 9261   2.008   6.338   9.722
 5211W        W 9262   6.784  11.127   0.918
 5212W        W 9263   3.995   1.000   9.928
 5213W        W 9264   6.136   0.537   8.811
 5214W        W 9265   9.121   6.612  11.679
 5215W        W 9266   9.565   1.485   1.950
 5216W        W 9267   9.006   8.500   8.582
 5217W        W 9268   6.578   6.807   3.428
 5218W        W 9269  10.407   5.218   0.418
 5219W        W 9270   0.812   7.127  10.523
 5220W        W 9271   2.241   5.578  10.586
 5221W        W 9272   1.524   4.971   9.855
 5222W        W 9273   0.277   2.135  11.468
 5223W        W 9274   9.392   0.024   2.911
 5224W        W 9275   7.979   1.193   0.167
 5225W        W 9276   3.368   7.072   1.261
 5226W        W 9277   3.550   8.455   1.126
 5227W        W 9278   8.937   7.309  11.545
 5228W        W 9279   2.464   4.232   0.097
 5229W        W 9280   0.870   0.304   1.322
 5230W        W 9281   5.300   1.115   9.061
 5231W        W 9282   7.954   9.350  10.887
 5232W        W 9283   1.246   8.655  11.088
 5233W        W 9284   2.642   0.094   2.193
 5234W        W 9285   3.176  10.835   0.143
 5235W        W 9286   0.638   5.484   0.437
 5236W        W 9287   1.108   1.831   9.507
 5237W        W 9288   2.088   2.906  10.826
 5238W        W 9289   8.473   4.927   2.316
 5239W        W 9290   6.641   0.422  11.204
 5240W        W 9291   9.361   9.849  11.952
 5241W        W 9292   9.685   8.542   1.145
 5242W        W 9293  11.143   8.198  10.676
 5243W        W 9294  11.040   3.968  10.982
 5244W        W 9295   9.314   2.182  11.503
 5245W        W 9296   3.203   4.780   2.522
 5246W        W 9297  11.222   0.479   0.081
 5247W        W 9298   1.488   2.732   9.438
 5248W        W 9299   9.812   2.128  11.486
 5249W        W 9300   7.597   4.128  10.171
 5250W        W 9301   0.670   7.605   3.011
 5251W        W 9302   0.954   2.808  11.352
 5252W        W 9303   6.090   2.046  10.842
 5253W        W 9304   7.239   1.498  11.339
 5254W        W 9305   1.799   8.197   3.104
 5255W        W 9306   3.924   2.797   1.154
 5256W        W 9307   8.540  10.026  11.802
 5257W        W 9308  10.407   1.279   1.801
 5258W        W 9309   1.721   0.022   0.937
 5259W        W 9310   9.261   7.614   1.554
 5260W        W 9311   9.539   8.940   9.875
 5261W        W 9312   9.120   5.410   1.888
 5262W        W 9313   3.716   3.087   9.596
 5263W        W 9314   1.704   0.716   3.108
 5264W        W 9315   7.085   6.320  10.151
 5265W        W 9316   5.118   0.746  10.753
 5266W        W 9317   2.859   2.812   1.503
 5267W        W 9318   1.334   8.914   9.517
 5268W        W 9319   4.402   9.966  11.670
 5269W        W 9320   9.360   3.863   9.940
 5270W        W 9321   2.778   0.072   1.225
 5271W        W 9322  10.770   5.371  11.031
 5272W        W 9323   1.329   7.570   0.371
 5273W        W 9324   0.035   4.793  11.013
 5274W        W 9325  11.040   3.521  11.807
 5275W        W 9326   1.216   4.668   2.352
 5276W        W 9327   4.954  10.397   9.543
 5277W        W 9328   4.300   7.070   3.171
 5278W        W 9329   3.419   6.667   0.731
 5279W        W 9330   5.725   8.527  11.338
 5280W        W 9331   9.632   5.124  11.952
 5281W        W 9332   3.401   0.239  10.947
 5282W        W 9333   6.467   3.567   2.377
 5283W        W 9334   9.117   2.436  11.907
 5284W        W 9335   2.745  10.292   9.652
 5285W        W 9336   4.850  10.099  11.443
 5286W        W 9337   8.906   2.942   1.803
 5287W        W 9338   2.870   9.433  10.857
 5288W        W 9339  11.259   1.229   3.378
 5289W        W 9340   3.439   8.833  11.101
 5290W        W 9341   0.360   4.472  10.709
 5291W        W 9342   6.193   8.664   1.198
 5292W        W 9343   2.292   5.658  10.101
 5293W        W 9344   0.474   1.785   1.379
 5294W        W 9345   0.793   6.553   9.536
 5295W        W 9346   0.907   1.390   2.266
 5296W        W 9347  10.779   4.174  11.834
 5297W        W 9348   1.206   9.745  10.328
 5298W        W 9349   4.338   6.542  11.332
 5299W        W 9350   9.149   7.102   2.357
 5300W        W 9351   1.223   6.251   9.469
 5301W        W 9352   3.350  11.289  10.155
 5302W        W 9353   5.127   0.305  11.006
 5303W        W 9354  11.450   1.692   3.196
 5304W        W 9355   1.426   3.145   2.316
 5305W        W 9356  10.844   7.423   0.505
 5306W        W 9357  10.753   6.580   0.412
 5307W        W 9358   5.164   9.935   1.706
 5308W        W 9359   9.483   4.883  11.075
 5309W        W 9360   7.012   0.991   0.805
 5310W        W 9361   2.077   1.533  11.089
 5311W        W 9362   6.191   0.887   1.897
 5312W        W 9363   7.951   1.385  10.908
 5313W        W 9364   1.601   4.197  10.545
 5314W        W 9365  10.809   8.622   2.737
 5315W        W 9366   5.288   0.679   0.290
 5316W        W 9367   3.599   9.625   1.596
 5317W        W 9368   3.354   6.675  11.854
 5318W        W 9369   8.390   1.679  10.833
 5319W        W 9370   1.499   4.509  11.315
 5320W        W 9371  10.399   1.565  11.828
 5321W        W 9372   5.240   0.352   9.998
 5322W        W 9373   9.898   2.690   9.840
 5323W        W 9374   6.633   4.057   0.999
 5324W        W 9375   1.338   6.079  10.362
 5325W        W 9376   7.678   2.165  10.090
 5326W        W 9377  10.600  11.073   2.252
 5327W        W 9378   9.753   5.264  10.845
 5328W        W 9379   0.013   5.560   2.786
 5329W        W 9380   5.823   6.075   2.699
 5330W        W 9381   6.815   9.763   3.655
 5331W        W 9382   3.895   4.207   2.311
 5332W        W 9383   9.837  11.499   2.692
 5333W        W 9384   4.684   7.349   1.987
 5334W        W 9385   3.881   0.577   0.438
 5335W        W 9386   8.695   7.392  11.989
 5336W        W 9387   5.126   3.499   0.012
 5337W        W 9388   1.417   7.562   9.483
 5338W        W 9389  11.367   5.563  10.239
 5339W        W 9390   2.380   2.987   9.412
 5340W        W 9391   8.989   1.457   0.221
 5341W        W 9392   8.027   7.444  11.583
 5342W        W 9393   8.084   8.776   2.998
 5343W        W 9394   7.681   1.524  10.495
 5344W        W 9395   5.699   2.366  11.280
 5345W        W 9396   7.978   1.892  11.066
 5346W        W 9397   1.410   0.049   0.491
 5347W        W 9398   6.643   4.994  10.564
 5348W        W 9399   1.016   1.978  10.348
 5349W        W 9400   1.763   3.459   3.058
 5350W        W 9401   0.051   9.011   0.836
 5351W        W 9402  10.125   4.224  11.020
 5352W        W 9403   2.868   8.223   8.169
 5353W        W 9404   2.036   5.101   0.350
 5354W        W 9405  10.390   1.455   2.281
 5355W        W 9406   1.372   0.247   2.509
 5356W        W 9407   0.088   5.278   8.555
 5357W        W 9408   2.698   0.888  11.897
 5358W        W 9409   2.706   0.580   2.387
 5359W        W 9410   4.701   7.925  10.823
 5360W        W 9411   0.463   4.535  11.213
 5361W        W 9412   0.956   5.803   2.996
 5362W        W 9413   9.049  10.870   1.837
 5363W        W 9414   3.747  11.480   2.792
 5364W        W 9415   6.435   1.512  11.888
 5365W        W 9416   6.635  10.442   8.925
 5366W        W 9417   4.308   4.681   9.145
 5367W        W 9418   7.205   3.363  10.559
 5368W        W 9419   9.423  10.240   0.871
 5369W        W 9420   9.074  10.775   9.041
 5370W        W 9421   1.899  11.251   9.362
 5371W        W 9422  10.241   9.632  11.971
 5372W        W 9423   0.391   4.620   0.691
 5373W        W 9424   6.063   4.561   2.673
 5374W        W 9425   8.050  10.038   9.573
 5375W        W 9426  11.418   0.106  10.103
 5376W        W 9427   4.414   2.780  10.632
 5377W        W 9428   2.836  10.792   9.444
 5378W        W 9429   5.523   4.601   9.621
 5379W        W 9430  10.349   2.910  10.021
 5380W        W 9431   5.080   0.343  11.954
 5381W        W 9432   7.505   4.013   1.069
 5382W        W 9433   6.805   7.116  10.397
 5383W        W 9434   4.585   4.642   2.519
 5384W        W 9435   7.125   5.293  10.354
 5385W        W 9436   6.237   3.863  11.426
 5386W        W 9437   2.924   6.610  11.418
 5387W        W 9438   9.929   9.598   1.731
 5388W        W 9439   9.041   8.938   8.859
 5389W        W 9440   8.968  11.478  11.961
 5390W        W 9441   7.522   9.692   0.499
 5391W        W 9442   2.664   1.431   0.836
 5392W        W 9443   1.201   8.387   0.241
 5393W        W 9444   8.094   2.377  11.016
 5394W        W 9445   1.143   9.147  11.029
 5395W        W 9446   5.712   1.456   1.418
 5396W        W 9447   6.211   3.825   3.295
 5397W        W 9448   4.148   8.240  10.741
 5398W        W 9449   8.089   6.770   9.580
 5399W        W 9450   3.868   8.661   1.837
 5400W        W 9451   8.982  11.412   3.198
 5401W        W 9452   4.165   8.860   1.230
 5402W        W 9453   6.103   1.904  10.364
 5403W        W 9454   8.676   9.503   3.362
 5404W        W 9455   3.634   7.507   9.744
 5405W        W 9456   3.582   0.980   2.674
 5406W        W 9457   1.186  10.797  10.301
 5407W        W 9458   8.865  10.383   1.135
 5408W        W 9459  11.307   4.684   2.152
 5409W        W 9460   5.223   2.742   8.486
 5410W        W 9461   4.271   5.206   1.075
 5411W        W 9462   1.719   6.450   3.037
 5412W        W 9463   0.206   0.007   9.303
 5413W        W 9464   3.244   1.268  10.510
 5414W        W 9465  10.007   8.613   0.077
 5415W        W 9466   3.356  10.948   8.408
 5416W        W 9467   5.423   9.506   1.464
 5417W        W 9468   5.506   8.964  10.363
 5418W        W 9469   6.076   4.526   9.756
 5419W        W 9470   2.927   8.124  11.462
 5420W        W 9471   8.480  11.249   8.752
 5421W        W 9472   0.832   2.361  10.802
 5422W        W 9473   9.470   4.532   0.450
 5423W        W 9474   2.455   3.246   2.298
 5424W        W 9475  10.131   2.287   2.261
 5425W        W 9476   7.303   6.150   8.801
 5426W        W 9477  10.674   0.295   2.715
 5427W        W 9478   7.562   0.451   1.437
 5428W        W 9479   7.633   9.954   9.290
 5429W        W 9480   3.660   2.688   2.857
 5430W        W 9481  10.401   6.007   9.030
 5431W        W 9482   0.389   3.698   9.388
 5432W        W 9483   8.736   6.346  10.016
 5433W        W 9484  10.973   4.598   9.883
 5434W        W 9485   5.024   4.766   0.661
 5435W        W 9486   3.860   9.895   3.051
 5436W        W 9487   9.014   3.792   2.887
 5437W        W 9488   2.184   0.822   2.608
 5438W        W 9489   7.028   5.489   1.548
 5439W        W 9490   0.038   6.144   0.544
 5440W        W 9491   4.676   9.849   3.119
 5441W        W 9492  10.690   3.101  11.552
 5442W        W 9493   9.900   2.251   9.557
 5443W        W 9494   3.148   4.252   8.891
 5444W        W 9495  10.043   0.362  11.342
 5445W        W 9496   8.054   2.643   3.352
 5446W        W 9497   3.948   5.257  11.090
 5447W        W 9498   1.161   4.253  10.310
 5448W        W 9499   0.463   1.218   2.077
 5449W        W 9500   4.325   0.247  11.525
 5450W        W 9501   3.360   0.328  10.417
 5451W        W 9502   5.859   0.544   1.756
 5452W        W 9503   5.278   7.891   2.210
 5453W        W 9504   4.646   8.534  11.941
 5454W        W 9505   8.435   7.191   1.150
 5455W        W 9506   9.479   6.546   2.589
 5456W        W 9507   8.294   3.832   9.152
 5457W        W 9508   3.304   7.903  11.207
 5458W        W 9509   8.289   3.193   8.482
 5459W        W 9510   7.443   6.100   2.133
 5460W        W 9511  10.821   5.670   9.069
 5461W        W 9512   5.985   9.156   9.499
 5462W        W 9513   5.737  11.011  11.962
 5463W        W 9514   8.968   9.983   9.586
 5464W        W 9515   5.250   1.625   9.764
 5465W        W 9516   8.990   6.435   1.315
 5466W        W 9517   4.774   9.927   0.032
 5467W        W 9518   7.715   7.575  11.971
 5468W        W 9519   0.701   2.228   1.202
 5469W        W 9520  10.942   4.295   9.336
 5470W        W 9521  10.703  11.296   8.541
 5471W        W 9522   1.289   5.244   0.751
 5472W        W 9523   7.012   9.843   1.729
 5473W        W 9524   8.093   5.421  11.292
 5474W        W 9525   1.183   5.240  10.104
 5475W        W 9526   2.729   3.282   0.735
 5476W        W 9527   7.469  10.555   1.681
 5477W        W 9528  10.007  10.433  10.808
 5478W        W 9529   6.282   6.661   2.186
 5479W        W 9530  10.272   9.196   2.280
 5480W        W 9531   2.392   2.312   1.824
 5481W        W 9532   8.850   7.638   0.787
 5482W        W 9533  10.967   4.736   1.182
 5483W        W 9534   9.814  10.984  11.785
 5484W        W 9535  11.129   2.253  11.956
 5485W        W 9536   3.901   1.592  11.486
 5486W        W 9537  11.435   4.267   8.521
 5487W        W 9538   7.584   7.072  11.819
 5488W        W 9539   5.943   2.757   1.883
 5489W        W 9540   1.813  10.906   2.116
 5490W        W 9541   6.088  10.505   3.655
 5491W        W 9542   8.713   8.972  11.546
 5492W        W 9543  10.511   4.095   3.626
 5493W        W 9544   4.607   0.452  10.446
 5494W        W 9545   5.235   0.804   2.451
 5495W        W 9546   7.355   7.638   3.220
 5496W        W 9547   9.671   2.642   2.829
 5497W        W 9548   1.783   0.448   8.494
 5498W        W 9549   8.058   6.835  10.377
 5499W        W 9550   9.326   1.096   8.549
 5500W        W 9551   6.901   2.474  11.528
 5501W        W 9552   8.635   0.763  10.667
 5502W        W 9553   0.756   7.722   8.883
 5503W        W 9554   2.202   3.644  11.807
 5504W        W 9555   9.450  10.837  10.809
 5505W        W 9556   8.882   4.343   1.721
 5506W        W 9557   4.844   7.173   8.959
 5507W        W 9558   5.340   8.288   2.598
 5508W        W 9559   0.498   3.191   9.252
 5509W        W 9560  10.526   6.140   0.361
 5510W        W 9561  10.922   6.633   9.090
 5511W        W 9562   0.961   6.151   0.439
 5512W        W 9563   5.860   1.378   0.237
 5513W        W 9564   1.358   8.956   1.513
 5514W        W 9565   7.742   2.479   1.254
 5515W        W 9566   2.715   3.019   8.804
 5516W        W 9567   9.477   9.158   0.358
 5517W        W 9568   3.676   0.868  11.832
 5518W        W 9569  10.087   5.149   0.848
 5519W        W 9570  11.061   7.376   2.049
 5520W        W 9571   1.602   8.085   8.867
 5521W        W 9572   1.573   2.893  11.941
 5522W        W 9573   4.160   1.271   9.501
 5523W        W 9574   6.067   3.257  11.606
 5524W        W 9575   6.172   6.744   9.384
 5525W        W 9576  11.348   8.903   0.313
 5526W        W 9577   4.094   9.280   0.875
 5527W        W 9578   8.047   5.227   2.351
 5528W        W 9579   6.881   1.668  11.698
 5529W        W 9580   5.293   7.156  10.421
 5530W        W 9581   9.149   8.060   3.254
 5531W        W 9582   7.225   3.792  11.326
 5532W        W 9583   7.117   8.954   1.246
 5533W        W 9584   0.380   5.032   9.780
 5534W        W 9585   9.594   8.890   1.960
 5535W        W 9586   8.432   0.299  10.860
 5536W        W 9587   3.676   4.586   1.080
 5537W        W 9588   6.143   0.306   9.834
 5538W        W 9589   1.526   5.657   0.942
 5539W        W 9590   4.432   0.842   9.608
 5540W        W 9591   3.701   3.609   0.253
 5541W        W 9592   8.787  10.317   0.628
 5542W        W 9593   0.699   4.624   8.637
 5543W        W 9594   2.652   6.445   1.873
 5544W        W 9595   0.724   6.563   8.424
 5545W        W 9596   3.168   0.003   1.888
 5546W        W 9597   9.451   9.741   0.711
 5547W        W 9598   4.501   4.340   1.218
 5548W        W 9599   8.217   3.211   2.642
 5549W        W 9600   7.822   9.073   2.067
 5550W        W 9601   8.583   8.690   0.416
 5551W        W 9602   0.811   8.346  11.833
 5552W        W 9603   9.602   5.557  10.375
 5553W        W 9604   1.286   8.288   3.181
 5554W        W 9605   5.561  10.814  10.100
 5555W        W 9606   5.061   7.616  10.572
 5556W        W 9607   2.020   2.512   8.531
 5557W        W 9608   7.709   8.596   1.384
 5558W        W 9609   5.081  10.421   2.817
 5559W        W 9610  11.003   6.651   0.839
 5560W        W 9611   2.323   2.289  11.980
 5561W        W 9612   9.981   7.635   2.781
 5562W        W 9613   3.677   1.697   8.851
 5563W        W 9614  10.354   7.128  11.065
 5564W        W 9615   2.309   0.979   1.704
 5565W        W 9616   2.597  11.064  11.347
 5566W        W 9617   5.566   0.877  10.988
 5567W        W 9618   4.425   9.851   9.272
 5568W        W 9619   6.444   6.581   0.150
 5569W        W 9620  10.837   3.060   2.010
 5570W        W 9621  10.440   1.121   9.324
 5571W        W 9622   5.975   5.769   9.229
 5572W        W 9623   2.233   2.326   2.812
 5573W        W 9624   8.084   7.842   2.534
 5574W        W 9625   7.502  10.983  11.993
 5575W        W 9626  11.346   8.536   2.793
 5576W        W 9627   4.908   3.987  11.206
 5577W        W 9628   5.601   1.934   1.505
 5578W        W 9629   0.392   2.674   2.842
 5579W        W 9630   7.665  11.355   9.937
 5580W        W 9631   7.746   8.929  11.094
 5581W        W 9632   5.952   3.981   2.369
 5582W        W 9633   5.217   7.438   0.492
 5583W        W 9634   8.180   1.927   1.738
 5584W        W 9635   8.666   8.096   8.601
 5585W        W 9636   5.048   9.351   0.018
 5586W        W 9637   7.006   4.097   3.444
 5587W        W 9638   6.486   7.331   1.457
 5588W        W 9639   6.243   0.431   3.276
 5589W        W 9640   0.385   3.586   0.168
 5590W        W 9641   7.778   7.126  10.705
 5591W        W 9642   0.076   9.786   0.263
 5592W        W 9643   9.058   2.777   0.316
 5593W        W 9644   8.152   1.646   0.376
 5594W        W 9645   2.184   3.893   9.717
 5595W        W 9646   9.593   9.531   8.565
 5596W        W 9647   3.333   8.286   8.435
 5597W        W 9648   5.463   4.391   9.145
 5598W        W 9649   0.782  10.575  11.139
 5599W        W 9650   8.947   8.597  10.225
 5600W        W 9651   5.628   7.591   1.436
 5601W        W 9652   4.276   4.063  10.739
 5602W        W 9653   4.806   1.730   9.997
 5603W        W 9654   8.563   6.705  10.355
 5604W        W 9655   4.051   9.100  10.171
 5605W        W 9656   3.809   5.281   0.773
 5606W        W 9657   8.820  10.031   3.482
 5607W        W 9658   3.693   5.893  11.643
 5608W        W 9659  10.955   3.132   3.467
 5609W        W 9660   4.771   2.591   2.753
 5610W        W 9661   4.083   0.891   2.661
 5611W        W 9662  10.317  10.503   1.056
 5612W        W 9663   3.848   4.887  11.816
 5613W        W 9664   8.615   4.461  10.851
 5614W        W 9665  10.848   0.361   1.858
 5615W        W 9666   3.704   9.454  11.763
 5616W        W 9667  10.262  10.750   9.587
 5617W        W 9668   7.880   5.131   8.681
 5618W        W 9669   9.546   1.207  10.794
 5619W        W 9670   0.354  11.384  11.084
 5620W        W 9671   9.551   0.254   1.406
 5621W        W 9672  11.372   8.077   9.321
 5622W        W 9673   6.017   8.964  10.432
 5623W        W 9674   0.411   0.866   1.123
 5624W        W 9675   6.890   1.648   9.803
 5625W        W 9676   1.312   4.077  11.511
 5626W        W 9677   9.819   7.501   0.802
 5627W        W 9678   7.878   2.721  10.010
 5628W        W 9679   2.686   8.305  10.646
 5629W        W 9680   9.414   6.585   8.276
 5630W        W 9681  11.335   0.012   2.747
 5631W        W 9682   3.755  11.289   3.310
 5632W        W 9683   3.018   7.854   2.210
 5633W        W 9684   3.700   2.928   2.404
 5634W        W 9685   3.661   6.212   3.521
 5635W        W 9686  11.448   9.866   1.279
 5636W        W 9687   7.712   5.175   0.484
 5637W        W 9688   3.147   2.435   1.302
 5638W        W 9689   0.786   7.949   9.757
 5639W        W 9690   0.515   5.789   1.879
 5640W        W 9691   9.557   3.173   1.324
 5641W        W 9692   5.947   8.277   0.247
 5642W        W 9693   2.289   8.967   2.015
 5643W        W 9694   4.605  10.319   9.067
 5644W        W 9695   7.841  11.449   2.989
 5645W        W 9696   9.432   8.158   0.364
 5646W        W 9697   4.186   6.118  11.068
 5647W        W 9698   1.349   6.992  10.563
 5648W        W 9699   8.450   6.238  10.532
 5649W        W 9700   9.330   4.977  11.580
 5650W        W 9701   0.931   3.733   0.951
 5651W        W 9702   8.018   9.046   3.433
 5652W        W 9703   0.431   9.291   9.024
 5653W        W 9704   8.625   1.267   3.079
 5654W        W 9705   8.555   4.741   9.024
 5655W        W 9706   6.464   6.214  10.967
 5656W        W 9707   2.930   4.706  11.428
 5657W        W 9708   2.284   0.541   9.520
 5658W        W 9709   6.555  11.216   2.501
 5659W        W 9710   5.626   5.154   1.772
 5660W        W 9711   6.031   6.227   8.151
 5661W        W 9712   9.826  10.604   1.981
 5662W        W 9713   3.224   3.781   9.146
 5663W        W 9714   1.139   3.258   1.091
 5664W        W 9715   9.100  11.241   9.992
 5665W        W 9716   9.604   2.886  10.497
 5666W        W 9717   5.076   3.252   0.491
 5667W        W 9718   3.389   9.289   2.262
 5668W        W 9719   5.079   7.776   0.123
 5669W        W 9720   3.086   4.137  10.805
 5670W        W 9721   3.646   1.262   0.690
 5671W        W 9722   6.589   4.155   3.146
 5672W        W 9723   7.553   0.327  10.188
 5673W        W 9724   3.611  10.534  11.836
 5674W        W 9725   9.055   2.735   1.258
 5675W        W 9726   3.824  10.840   2.067
 5676W        W 9727   6.138   9.944   1.414
 5677W        W 9728   5.223   7.936   0.858
 5678W        W 9729   7.847   1.454   9.205
 5679W        W 9730   3.396   7.682   0.068
 5680W        W 9731   7.699   1.148  11.725
 5681W        W 9732   9.910  10.735   0.265
 5682W        W 9733   7.279   8.016   9.443
 5683W        W 9734   7.601   9.747  10.779
 5684W        W 9735   3.331   5.247   1.963
 5685W        W 9736   8.431   4.712  10.434
 5686W        W 9737   3.071   0.589   2.740
 5687W        W 9738  10.623   2.398   2.561
 5688W        W 9739  10.054   0.882   9.620
 5689W        W 9740  10.229   9.365   9.522
 5690W        W 9741   9.462   2.720   3.313
 5691W        W 9742   7.387   9.079  11.442
 5692W        W 9743   8.040   3.377   9.182
 5693W        W 9744   5.841   5.548   1.451
 5694W        W 9745   2.166   5.304   3.472
 5695W        W 9746   0.711   5.722   3.422
 5696W        W 9747   4.077   1.435  11.026
 5697W        W 9748   2.660   4.148   1.770
 5698W        W 9749   5.584   8.267   3.199
 5699W        W 9750   6.616  10.019   8.148
 5700W        W 9751   3.355   1.918   1.300
 5701W        W 9752   0.999  10.982   0.827
 5702W        W 9753   6.678   6.717   2.923
 5703W        W 9754   3.875   4.373   0.634
 5704W        W 9755   2.312   0.027   9.532
 5705W        W 9756   0.025  11.400   3.223
 5706W        W 9757   9.161   6.631   9.998
 5707W        W 9758   7.913   4.160   2.184
 5708W        W 9759   9.095   4.258   3.120
 5709W        W 9760   3.240   9.893   1.832
 5710W        W 9761   2.673   6.593   2.413
 5711W        W 9762  10.410   7.069  10.508
 5712W        W 9763   6.745   2.089   2.805
 5713W        W 9764   2.694   9.040  11.486
 5714W        W 9765   4.452   6.777   8.625
 5715W        W 9766   2.103   8.641  11.745
 5716W        W 9767   7.699   3.772  11.525
 5717W        W 9768  10.417   7.627  11.239
 5718W        W 9769   4.366   0.768   1.689
 5719W        W 9770   3.900   4.412  10.559
 5720W        W 9771  10.252  10.406   1.559
 5721W        W 9772   0.097   0.963   1.848
 5722W        W 9773   2.160   7.467   1.000
 5723W        W 9774   1.132   0.216  10.673
 5724W        W 9775  11.310   1.211   1.393
 5725W        W 9776   3.485   9.644   2.813
 5726W        W 9777   3.580   2.319   2.517
 5727W        W 9778   7.655   0.192   9.163
 5728W        W 9779   1.856   1.323   3.398
 5729W        W 9780   3.198   5.699  10.990
 5730W        W 9781   6.957   4.625   0.286
 5731W        W 9782  11.011   0.184   3.093
 5732W        W 9783   4.306   8.640  11.527
 5733W        W 9784   1.211   0.618  10.366
 5734W        W 9785  10.015   1.890  11.893
 5735W        W 9786   5.636   3.247   9.830
 5736W        W 9787   2.530   8.584   8.325
 5737W        W 9788   1.288   1.067  10.613
 5738W        W 9789  10.959   3.305   2.889
 5739W        W 9790   3.958   8.371   1.382
 5740W        W 9791   8.683   7.894  11.908
 5741W        W 9792   9.423   1.835   2.814
 5742W        W 9793   9.428   4.932   0.976
 5743W        W 9794   1.908   3.644   8.892
 5744W        W 9795  11.414   8.851   1.410
 5745W        W 9796   4.220   9.972   0.868
 5746W        W 9797   2.762   1.659   0.210
 5747W        W 9798   7.218   3.840  10.302
 5748W        W 9799   7.727   8.001  11.631
 5749W        W 9800   3.145   3.691   1.833
 5750W        W 9801   5.209   9.061   9.047
 5751W        W 9802  10.648   7.693  11.694
 5752W        W 9803   2.726  10.406   8.740
 5753W        W 9804   0.055   7.500  11.344
 5754W        W 9805   0.262   1.173  11.244
 5755W        W 9806  10.787  11.310   3.389
 5756W        W 9807   5.755   1.458   8.534
 5757W        W 9808   3.288   1.356   9.291
 5758W        W 9809   6.037   6.538   2.653
 5759W        W 9810  10.939   6.256   0.057
 5760W        W 9811   3.862   3.873  10.933
 5761W        W 9812  11.350   7.173   9.414
 5762W        W 9813   0.195   1.410  10.299
 5763W        W 9814   0.804   0.850   2.182
 5764W        W 9815   1.046   6.079  11.341
 5765W        W 9816   3.177   4.954   0.392
 5766W        W 9817   0.697   8.415   0.343
 5767W        W 9818   6.708  11.361   0.367
 5768W        W 9819   8.992   0.942   0.949
 5769W        W 9820  11.284   1.119   9.535
 5770W        W 9821   0.910   4.198   2.245
 5771W        W 9822   8.100   9.233   2.786
 5772W        W 9823   9.466   2.139   1.470
 5773W        W 9824   1.264   7.563  11.865
 5774W        W 9825   2.226   6.124   1.959
 5775W        W 9826   9.491   9.331   1.748
 5776W        W 9827  10.565   6.252  10.769
 5777W        W 9828   9.392   7.030   3.311
 5778W        W 9829   8.590   6.140   1.477
 5779W        W 9830   7.083   6.148   8.325
 5780W        W 9831   0.931   5.332  10.856
 5781W        W 9832   8.878   9.580   2.229
 5782W        W 9833  11.328   7.429   0.304
 5783W        W 9834   8.734   0.371   2.730
 5784W        W 9835   6.713   3.171  10.275
 5785W        W 9836   6.021  10.010   3.414
 5786W        W 9837   5.956   4.587   0.226
 5787W        W 9838   5.702   7.396   3.584
 5788W        W 9839   6.344   8.088  11.849
 5789W        W 9840  11.379   5.765   2.341
 5790W        W 9841  10.801  10.890   0.383
 5791W        W 9842   7.013   3.707  11.805
 5792W        W 9843   6.833   2.276   2.073
 5793W        W 9844   8.159  10.455   0.507
 5794W        W 9845   2.761   1.286   1.757
 5795W        W 9846   8.526   6.632   1.182
 5796W        W 9847   8.016  10.557   2.568
 5797W        W 9848   5.618  10.975   1.615
 5798W        W 9849  11.440   4.790   9.582
 5799W        W 9850   2.879   0.398   9.101
 5800W        W 9851  10.774   4.133  10.566
 5801W        W 9852   3.102   7.113  11.387
 5802W        W 9853   4.619  10.300   2.655
 5803W        W 9854   1.276  10.073   0.919
 5804W        W 9855   5.490   3.657   8.577
 5805W        W 9856   2.311   7.198   0.052
 5806W        W 9857   6.134   9.802  11.853
 5807W        W 9858   4.055   7.549  10.031
 5808W        W 9859   5.222   8.740   4.052
 5809W        W 9860   7.413   0.989   2.874
 5810W        W 9861   0.243   1.361   1.167
 5811W        W 9862   7.147   9.611   9.838
 5812W        W 9863  10.547   2.790  10.489
 5813W        W 9864  11.343   0.730   2.226
 5814W        W 9865   1.300  10.983   3.187
 5815W        W 9866   2.487  10.818   0.698
 5816W        W 9867   1.023   9.539   8.600
 5817W        W 9868   6.748   2.279   8.963
 5818W        W 9869   2.632   0.765  10.793
 5819W        W 9870   4.572   6.202   0.286
 5820W        W 9871   3.432   0.912   0.318
 5821W        W 9872   0.559   9.494  11.789
 5822W        W 9873   5.888   2.277   1.724
 5823W        W 9874   2.777   3.344   9.758
 5824W        W 9875   2.857  10.076  11.462
 5825W        W 9876   5.137   3.273   9.630
 5826W        W 9877   0.199   3.992   8.994
 5827W        W 9878   8.205   3.697  11.533
 5828W        W 9879   6.604   0.139   0.934
 5829W        W 9880   1.773   1.376   0.746
 5830W        W 9881  11.355  10.682   3.760
 5831W        W 9882   0.110   3.824  10.299
 5832W        W 9883  10.256   4.605   3.248
 5833W        W 9884  10.430   7.993   8.963
 5834W        W 9885   5.317   8.028  10.235
 5835W        W 9886   6.974   6.604   0.360
 5836W        W 9887  10.396   6.745  11.538
 5837W        W 9888   6.165   4.578   1.704
 5838W        W 9889  10.547   7.859   1.438
 5839W        W 9890   6.293   7.951  10.059
 5840W        W 9891   4.029   6.415   1.329
 5841W        W 9892   6.735   5.525   0.848
 5842W        W 9893   0.370   0.890   2.937
 5843W        W 9894   3.086   6.209  11.085
 5844W        W 9895   7.291   4.165   0.434
 5845W        W 9896  10.132  10.275   0.283
 5846W        W 9897   6.890   2.182   9.584
 5847W        W 9898  11.077   3.807   2.832
 5848W        W 9899   6.679   0.278  10.239
 5849W        W 9900   1.817   4.387  10.958
 5850W        W 9901  10.854   1.899   9.763
 5851W        W 9902   9.119   7.694   9.271
 5852W        W 9903   0.084   0.078   0.045
 5853W        W 9904   8.267   5.687  11.809
 5854W        W 9905   0.364   9.067   1.234
 5855W        W 9906   4.368   1.754  11.687
 5856W        W 9907   4.193   8.646  10.421
 5857W        W 9908   0.798   4.848  11.453
 5858W        W 9909   6.481   7.183  10.952
 5859W        W 9910   1.721   5.263   8.507
 5860W        W 9911   7.571   0.944   1.575
 5861W        W 9912   7.139   0.138   0.399
 5862W        W 9913   3.517  10.469   9.980
 5863W        W 9914   2.355   0.325   9.071
 5864W        W 9915   9.830  10.093   2.694
 5865W        W 9916   8.235   7.665  11.975
 5866W        W 9917   4.727   6.711   0.671
 5867W        W 9918   9.433   9.285   2.792
 5868W        W 9919  11.099   5.020  10.288
 5869W        W 9920   2.855   4.246   9.863
 5870W        W 9921   3.527   3.023  10.596
 5871W        W 9922  10.924   2.659  11.732
 5872W        W 9923   7.561   1.856   0.324
 5873W        W 9924   7.560   6.679  10.474
 5874W        W 9925   1.902   5.248  10.789
 5875W        W 9926   4.668   9.526  11.720
 5876W        W 9927   7.027   4.308   2.271
 5877W        W 9928   7.111   3.411  10.069
 5878W        W 9929   5.664   5.817   1.017
 5879W        W 9930   2.842   2.871   9.588
 5880W        W 9931  10.611   7.448   1.830
 5881W        W 9932  10.523   4.982   9.493
 5882W        W 9933   7.622  10.406  10.076
 5883W        W 9934   6.309   7.562  11.775
 5884W        W 9935   5.568   8.088  11.728
 5885W        W 9936   9.133   4.169   0.506
 5886W        W 9937  11.258   3.072   9.136
 5887W        W 9938   2.812   8.372  10.151
 5888W        W 9939   7.175   9.259   0.815
 5889W        W 9940   4.216   2.311   9.885
 5890W        W 9941   3.842   6.656   9.883
 5891W        W 9942  11.037   2.722   1.227
 5892W        W 9943   0.214   7.790   2.938
 5893W        W 9944   4.013   1.481  11.970
 5894W        W 9945   5.142   4.663  10.705
 5895W        W 9946   0.282  10.707   0.330
 5896W        W 9947   7.036   7.925  10.919
 5897W        W 9948   1.761   1.790   9.599
 5898W        W 9949  10.120   1.230   3.570
 5899W        W 9950  10.838   9.151   0.542
 5900W        W 9951   8.135   1.578   3.471
 5901W        W 9952   3.574   4.685   8.541
 5902W        W 9953   7.936  10.104  10.586
 5903W        W 9954   5.191   8.070   1.741
 5904W        W 9955   1.849  10.026   2.459
 5905W        W 9956   2.338   1.933   0.391
 5906W        W 9957   6.599   8.186   2.791
 5907W        W 9958   9.775   1.212   1.240
 5908W        W 9959   2.708   3.233   2.743
 5909W        W 9960   8.932   6.854  11.281
 5910W        W 9961   6.134   0.555  11.268
 5911W        W 9962   2.857  10.445   2.890
 5912W        W 9963   9.990  10.812   8.564
 5913W        W 9964   4.627   3.891   0.997
 5914W        W 9965   9.422   9.880   9.889
 5915W        W 9966   5.230   3.728   0.468
 5916W        W 9967   3.298   2.902   0.401
 5917W        W 9968   3.249   1.265   3.855
 5918W        W 9969   0.770  11.201   1.848
 5919W        W 9970   3.700   8.397   0.155
 5920W        W 9971   4.794   8.590  11.424
 5921W        W 9972   9.964  11.397  10.022
 5922W        W 9973   3.769   0.134   8.673
 5923W        W 9974   2.171   9.389   1.690
 5924W        W 9975   9.937   3.746   2.124
 5925W        W 9976  10.901   4.054   9.786
 5926W        W 9977   5.202   7.270   3.170
 5927W        W 9978   5.093   9.456   1.891
 5928W        W 9979   9.068   3.651   2.360
 5929W        W 9980   1.095  10.376   1.689
 5930W        W 9981   1.385   1.431   9.373
 5931W        W 9982   3.316   6.620   3.666
 5932W        W 9983  10.576   7.371   9.434
 5933W        W 9984   6.219   5.582  10.897
 5934W        W 9985  11.325   6.981  11.976
 5935W        W 9986   6.061   5.635   0.750
 5936W        W 9987   4.210   7.947  11.433
 5937W        W 9988   1.272  10.879  11.214
 5938W        W 9989   0.825   3.270  10.527
 5939W        W 9990   4.208   7.806   1.820
 5940W        W 9991   2.947   8.965  11.048
 5941W        W 9992  10.896   1.646   0.442
 5942W        W 9993   4.186   0.175  10.514
 5943W        W 9994   6.379   3.614   2.865
 5944W        W 9995   0.814   7.853   1.066
 5945W        W 9996   1.692   8.953  10.328
 5946W        W 9997   7.307   6.042  11.100
 5947W        W 9998   6.846   7.196   2.724
 5948W        W 9999   8.863   2.223   0.308
 5949W        W10000   2.514   7.798   0.729
 5950W        W10001   6.764   5.479  10.679
 5951W        W10002   9.006   8.076  11.062
 5952W        W10003   3.384   1.824  11.372
 5953W        W10004   8.201   5.420   9.872
 5954W        W10005   0.840  10.688  11.639
 5955W        W10006   2.593   7.540   2.238
 5956W        W10007   2.415   2.894   3.575
 5957W        W10008   1.391   1.215   2.296
 5958W        W10009   4.693   1.936   3.303
 5959W        W10010   5.950   4.694   1.227
 5960W        W10011   8.563  10.379  10.742
 5961W        W10012   2.756   7.391  11.790
 5962W        W10013   8.642   2.814   9.630
 5963W        W10014   7.587   9.897   9.787
 5964W        W10015   4.619   4.256   3.919
 5965W        W10016   4.757   8.827   9.969
 5966W        W10017  11.185   4.295   2.473
 5967W        W10018   8.073  10.506   9.840
 5968W        W10019   1.554  10.001   2.876
 5969W        W10020   1.415  11.438   9.492
 5970W        W10021   2.589   4.128   0.581
 5971W        W10022   9.994   2.080  11.007
 5972W        W10023   4.121  11.205   0.306
 5973W        W10024   8.518   7.619  11.497
 5974W        W10025   7.693   9.595   2.788
 5975W        W10026   3.764   2.427   3.339
 5976W        W10027   7.764   1.514  11.387
 5977W        W10028   7.706   3.107   1.974
 5978W        W10029   9.896   5.398  11.551
 5979W        W10030   2.831   5.309   4.144
 5980W        W10031   8.882   0.513  11.025
 5981W        W10032   4.757   9.950   8.735
 5982W        W10033   6.317   7.040  11.918
 5983W        W10034   9.654   3.320   0.858
 5984W        W10035   0.264   6.965   9.165
 5985W        W10036   9.327   0.170   1.881
 5986W        W10037   8.545   4.711   8.297
 5987W        W10038   9.553   8.639   9.426
 5988W        W10039   2.402   0.481   3.417
 5989W        W10040   2.322   1.444   1.986
 5990W        W10041   6.984   5.634   0.330
 5991W        W10042  10.850   1.672   1.945
 5992W        W10043   0.377   4.233   9.406
 5993W        W10044   5.010  11.341  12.000
 5994W        W10045   6.210   5.261  11.310
 5995W        W10046   5.118  10.445   0.888
 5996W        W10047   9.362   7.997  10.549
 5997W        W10048   0.836  11.074  11.308
 5998W        W10049   6.038   6.929  10.903
 5999W        W10050   8.906   1.832  10.794
 6000W        W10051   8.146   9.102   9.192
 6001W        W10052   7.194   2.220   1.713
 6002W        W10053   0.031   3.839   3.092
 6003W        W10054   8.976   2.087   2.632
 6004W        W10055   3.262   6.203   2.299
 6005W        W10056   8.000   1.931  10.559
 6006W        W10057   8.419   0.823   3.259
 6007W        W10058   5.514   8.044  11.221
 6008W        W10059   3.350   4.485  10.542
 6009W        W10060   4.927   0.138   1.758
 6010W        W10061   8.096   4.954   9.098
 6011W        W10062   6.719   1.356  10.551
 6012W        W10063   6.586   8.964   1.367
 6013W        W10064   0.327   6.576   8.788
 6014W        W10065   7.762   7.064   9.205
 6015W        W10066   8.833   8.493   9.723
 6016W        W10067  10.033  10.704   9.069
 6017W        W10068   6.074   4.159  11.896
 6018W        W10069   7.989   6.850   3.594
 6019W        W10070   9.191   4.782   3.148
 6020W        W10071   9.085   2.871   3.681
 6021W        W10072   5.092   9.947   0.677
 6022W        W10073   3.619   6.592   2.233
 6023W        W10074   3.288   7.072   3.313
 6024W        W10075  10.964  10.972  11.072
 6025W        W10076   1.668  10.410   9.575
 6026W        W10077  10.891   0.478   3.485
 6027W        W10078   6.556   7.491   0.482
 6028W        W10079   5.082  10.903   2.971
 6029W        W10080   5.129   2.348   2.299
 6030W        W10081  10.668   4.071   8.958
 6031W        W10082   2.273   2.844   2.033
 6032W        W10083   9.598   6.949  11.692
 6033W        W10084   3.549   6.843   8.959
 6034W        W10085  11.272  11.160   9.774
 6035W        W10086   3.775   8.871   0.916
 6036W        W10087   6.271   6.829   3.859
 6037W        W10088   5.993   3.410   0.666
 6038W        W10089   7.872   0.821   8.579
 6039W        W10090   3.489   6.570   3.176
 6040W        W10091   2.144   9.152  10.479
 6041W        W10092   5.007   2.417   0.779
 6042W        W10093   8.929   6.196   3.698
 6043W        W10094   2.353   9.367   3.664
 6044W        W10095   6.690  11.360   9.019
 6045W        W10096   1.158   7.902   8.533
 6046W        W10097   7.673   8.216   0.600
 6047W        W10098   4.886  10.735   9.170
 6048W        W10099  10.853   4.551   0.727
 6049W        W10100   6.486   9.053   9.604
 6050W        W10101   7.276   6.670   1.301
 6051W        W10102   2.163   8.257   8.586
 6052W        W10103   0.926   4.527   3.060
 6053W        W10104   4.241   9.112  10.660
 6054W        W10105   0.909   8.760   2.339
 6055W        W10106   1.949   4.707   9.071
 6056W        W10107   2.962   4.300   2.164
 6057W        W10108  11.215   8.908   2.456
 6058W        W10109   3.904   1.064   0.248
 6059W        W10110   2.298   2.762   1.012
 6060W        W10111   7.196  11.268  11.391
 6061W        W10112   9.001   4.997   8.317
 6062W        W10113   9.324   5.835   0.630
 6063W        W10114   9.346   6.170   2.931
 6064W        W10115   6.523  10.319   0.644
 6065W        W10116  10.582   4.415  10.944
 6066W        W10117   1.368  10.292   9.971
 6067W        W10118   5.759   0.893   0.512
 6068W        W10119   8.023  10.966   9.149
 6069W        W10120   8.065   9.527  11.368
 6070W        W10121   9.926   2.882   1.630
 6071W        W10122   0.252  10.883   3.119
 6072W        W10123   8.107   3.105   3.131
 6073W        W10124  10.320   7.468   9.004
 6074W        W10125   6.985   8.007   1.553
 6075W        W10126  11.430   8.333  11.668
 6076W        W10127   5.503   6.970   8.784
 6077W        W10128   7.024  10.350  11.769
 6078W        W10129   4.251   7.990   9.837
 6079W        W10130   8.379   6.119   2.933
 6080W        W10131   4.255   8.964   2.585
 6081W        W10132  11.361   4.310   9.762
 6082W        W10133   0.767   1.733   9.990
 6083W        W10134   7.150   8.370   9.896
 6084W        W10135   6.145   7.613   9.260
 6085W        W10136   1.398   0.215   9.989
 6086W        W10137   5.006  11.191   9.363
 6087W        W10138   7.455   5.696  10.256
 6088W        W10139   6.228   1.907   2.770
 6089W        W10140   2.561   2.122   3.486
 6090W        W10141   7.098   8.222   8.557
 6091W        W10142   4.124   1.687   1.699
 6092W        W10143   1.587   9.250   1.143
 6093W        W10144   8.506   5.434   2.183
 6094W        W10145   0.304   8.395   9.082
 6095W        W10146   8.767   0.438  11.858
 6096W        W10147  10.462   3.590   9.128
 6097W        W10148   6.415  11.476   3.410
 6098W        W10149   1.285   3.774   9.407
 6099W        W10150   5.964   3.477   2.466
 6100W        W10151   9.915   9.660   3.561
 6101W        W10152   4.634   5.746   0.014
 6102W        W10153   8.997   3.739  11.717
 6103W        W10154   8.989   7.100   9.982
 6104W        W10155   9.179   9.998   2.459
 6105W        W10156   6.104   2.468  10.450
 6106W        W10157   2.903   8.475   8.647
 6107W        W10158   8.985   9.792   9.066
 6108W        W10159   8.051   5.969   1.012
 6109W        W10160   5.557   2.824   0.028
 6110W        W10161   0.409   2.207   3.042
 6111W        W10162   6.474   9.523   2.791
 6112W        W10163   5.581   3.321  11.817
 6113W        W10164   3.526   1.442   0.205
 6114W        W10165   8.767   6.144   2.238
 6115W        W10166   4.571   8.538   2.418
 6116W        W10167   0.734  10.015   3.035
 6117W        W10168   5.531   9.285   0.990
 6118W        W10169   3.735   6.146   4.027
 6119W        W10170  10.102  10.782   2.380
 6120W        W10171   0.238  11.359   9.788
 6121W        W10172   6.067   7.552   9.777
 6122W        W10173   2.732   5.157   8.629
 6123W        W10174   2.410   5.754   0.717
 6124W        W10175   5.642   1.818  10.026
 6125W        W10176   6.521   0.728   2.253
 6126W        W10177   1.268   9.117   8.452
 6127W        W10178   8.180   8.654  10.960
 6128W        W10179   3.666   4.844  10.407
 6129W        W10180  11.066   6.985   0.440
 6130W        W10181   2.521   5.235   1.502
 6131W        W10182   4.683   2.256   3.707
 6132W        W10183   9.468   3.113   0.425
 6133W        W10184   7.409   9.560   1.531
 6134W        W10185  10.488   4.024   9.436
 6135W        W10186   8.484   5.700   1.188
 6136W        W10187   4.666   9.546   2.200
 6137W        W10188   8.903  11.276  11.478
 6138W        W10189   6.603  10.000  11.867
 6139W        W10190   2.462   5.256   1.992
 6140W        W10191   7.470   1.683  10.068
 6141W        W10192   9.569   5.191   2.029
 6142W        W10193   7.132  11.347  11.906
 6143W        W10194   7.856   2.323   0.369
 6144W        W10195   0.395   2.620  11.564
 6145W        W10196   8.575   6.579   0.369
 6146W        W10197   0.789   1.857   2.840
 6147W        W10198   0.889   8.084  10.290
 6148W        W10199   1.832   0.985  11.786
 6149W        W10200   4.102   9.429   9.466
 6150W        W10201   4.346   9.841   1.349
 6151W        W10202   6.189  11.416   2.176
 6152W        W10203   1.710  10.654  11.165
 6153W        W10204  10.554   9.982   0.276
 6154W        W10205   4.008   6.547   3.331
 6155W        W10206  11.135   3.043   0.442
 6156W        W10207   1.702   6.200  10.707
 6157W        W10208  10.891   8.625   9.850
 6158W        W10209  10.615  10.506   3.070
 6159W        W10210   5.321   2.193   1.165
 6160W        W10211   4.379   4.420   0.717
 6161W        W10212   6.891   2.940  10.788
 6162W        W10213   9.539  11.084   2.661
 6163W        W10214   6.825   3.831   9.942
 6164W        W10215   9.869   3.910   3.065
 6165W        W10216   6.009   2.770   2.397
 6166W        W10217   4.797   0.491   0.367
 6167W        W10218   1.814   1.175   0.278
 6168W        W10219   9.088   4.810   1.819
 6169W        W10220  10.266   0.386   1.858
 6170W        W10221   7.988   7.223   0.863
 6171W        W10222   6.937  10.849   3.154
 6172W        W10223   6.193   7.935  10.578
 6173W        W10224   9.439   9.502  10.423
 6174W        W10225   3.865   9.865   9.334
 6175W        W10226   8.579   8.052   9.938
 6176W        W10227   3.379   0.932  11.389
 6177W        W10228   3.903   5.905   8.779
 6178W        W10229   8.536   9.015   8.872
 6179W        W10230   7.090   4.153   1.355
 6180W        W10231  11.415  11.029   1.824
 6181W        W10232   3.863   8.741   2.816
 6182W        W10233   0.859   0.546   9.378
 6183W        W10234   8.887   0.815   1.447
 6184W        W10235   4.162   1.853  10.681
 6185W        W10236   6.390  10.282   1.132
 6186W        W10237   0.973  10.140   2.128
 6187W        W10238   6.959  10.464  10.368
 6188W        W10239   7.786   2.270   1.745
 6189W        W10240   4.651   1.640   1.684
 6190W        W10241   0.929   8.985   1.878
 6191W        W10242   5.024   3.752   2.322
 6192W        W10243   4.661   0.135   9.065
 6193W        W10244   8.171   3.696  10.545
 6194W        W10245  10.773   6.421  11.595
 6195W        W10246  10.819   6.039   8.718
 6196W        W10247   1.844   9.354   0.332
 6197W        W10248   7.293  10.529   0.738
 6198W        W10249   7.437   6.596   1.973
 6199W        W10250  11.386   3.437   0.170
 6200W        W10251   9.185  10.713   2.639
 6201W        W10252   7.400   9.580  11.393
 6202W        W10253   2.331   8.091  10.222
 6203W        W10254  11.481   4.311  11.202
 6204W        W10255   4.489   3.683   3.265
 6205W        W10256   8.840   4.260   0.909
 6206W        W10257   9.087   1.753   9.278
 6207W        W10258   1.362   2.351  10.682
 6208W        W10259   3.073   0.802   3.981
 6209W        W10260  11.076   5.988   1.942
 6210W        W10261   8.043   4.560   1.683
 6211W        W10262   6.790  10.025   9.165
 6212W        W10263   2.164   0.451  10.410
 6213W        W10264   2.350   2.861   1.513
 6214W        W10265   3.335   9.874  11.008
 6215W        W10266   5.108  10.328   8.825
 6216W        W10267   5.609   7.431   2.918
 6217W        W10268  11.191   4.036   8.935
 6218W        W10269   8.924   7.075   9.085
 6219W        W10270   1.528   7.304   1.419
 6220W        W10271   9.453   0.555   2.235
 6221W        W10272  10.977   5.251   0.918
 6222W        W10273   7.463   4.110   3.698
 6223W        W10274   5.074   9.535  10.589
 6224W        W10275   9.537   7.110   8.837
 6225W        W10276   9.400   8.895   2.457
 6226W        W10277  10.139   7.625   9.494
 6227W        W10278   4.647  10.711   0.817
 6228W        W10279  11.324   1.734   2.180
 6229W        W10280   7.276   6.786  10.047
 6230W        W10281   5.489   1.968  11.021
 6231W        W10282   6.597   9.498   0.038
 6232W        W10283   8.139   8.793   2.482
 6233W        W10284   7.105   7.476   1.798
 6234W        W10285   4.192   6.145   0.663
 6235W        W10286  10.801   3.975   2.363
 6236W        W10287   4.780   3.479  11.271
 6237W        W10288   9.365   5.061   9.541
 6238W        W10289  11.052   8.367   1.706
 6239W        W10290   7.900   8.303   1.775
 6240W        W10291   2.979   6.668   3.268
 6241W        W10292   0.907   9.657   3.370
 6242W        W10293  10.753   9.745   2.794
 6243W        W10294   2.223   5.742   2.751
 6244W        W10295   1.254   3.325   0.587
 6245W        W10296   3.416   2.888   1.288
 6246W        W10297   9.585   6.609   8.752
 6247W        W10298   7.422   6.233   1.616
 6248W        W10299  10.412   9.945  11.387
 6249W        W10300   2.527  10.439   9.210
 6250W        W10301   0.650   7.879  11.365
 6251W        W10302  11.356  10.325  10.661
 6252W        W10303   8.910  10.965  11.908
 6253W        W10304   4.699   6.724   2.034
 6254W        W10305   3.651   0.122   1.754
 6255W        W10306   8.964   3.577   3.373
 6256W        W10307   7.064   1.188   0.326
 6257W        W10308   4.654   9.309   3.055
 6258W        W10309   3.202  10.883   9.875
 6259W        W10310   3.957   5.833   9.936
 6260W        W10311   5.855   4.174   1.912
 6261W        W10312   5.488   9.831  10.483
 6262W        W10313   3.631   8.888   1.436
 6263W        W10314  11.319   0.224   9.054
 6264W        W10315   2.827   7.916  10.381
 6265W        W10316  11.057   1.686   8.814
 6266W        W10317   2.176   4.407   1.953
 6267W        W10318   9.402   7.196   8.334
 6268W        W10319   4.243   4.198   9.843
 6269W        W10320   1.397   9.947  10.753
 6270W        W10321   7.671   3.772   0.338
 6271W        W10322   9.343   6.173  10.001
 6272W        W10323  11.156   8.839   1.917
 6273W        W10324   8.660  10.854  11.325
 6274W        W10325   4.813   1.261   9.799
 6275W        W10326   7.536   4.503   2.354
 6276W        W10327   4.942   4.547   0.212
 6277W        W10328   9.155   1.314   9.530
 6278W        W10329  10.741   9.171  10.471
 6279W        W10330   0.618   7.879   3.654
 6280W        W10331   0.692   3.218   8.612
 6281W        W10332   2.132   8.417  11.269
 6282W        W10333  11.421  10.835  10.648
 6283W        W10334   4.981   3.488  10.059
 6284W        W10335   7.684   5.970  11.944
 6285W        W10336   4.322  11.443   1.248
 6286W        W10337   0.371   7.651  10.974
 6287W        W10338   1.656   7.445  10.486
 6288W        W10339   6.222   7.635   8.734
 6289W        W10340   7.115   8.675  10.320
 6290W        W10341   5.629  11.473   9.921
 6291W        W10342   8.532   1.951  10.447
 6292W        W10343   3.049  11.397  11.637
 6293W        W10344  11.023   2.191  10.173
 6294W        W10345   1.729   6.897   1.712
 6295W        W10346   3.403   0.241   9.907
 6296W        W10347  10.872   3.081   8.780
 6297W        W10348   8.394   1.788  11.961
 6298W        W10349   1.930   8.588   8.987
 6299W        W10350   4.175   7.449   2.225
 6300W        W10351   7.234   1.248   9.920
 6301W        W10352   4.219  11.036   9.802
 6302W        W10353   5.774   6.741  11.494
 6303W        W10354   5.159   5.549   0.754
 6304W        W10355   6.764   3.409   1.079
 6305W        W10356   0.509   5.160   2.517
 6306W        W10357  10.863  11.378   9.538
 6307W        W10358   7.471   9.614  11.938
 6308W        W10359   8.896   6.896   3.333
 6309W        W10360   9.567   0.972   2.552
 6310W        W10361   2.180   7.130   1.866
 6311W        W10362  10.972   5.131   1.890
 6312W        W10363   4.501   0.783   2.962
 6313W        W10364   0.255  10.520   9.297
 6314W        W10365   2.965   6.740  10.341
 6315W        W10366   1.968   4.783   8.544
 6316W        W10367   1.004  10.532   3.096
 6317W        W10368   9.808  10.966   9.434
 6318W        W10369   1.889   9.572  10.069
 6319W        W10370  11.340   2.723   0.064
 6320W        W10371   8.408   6.357   9.628
 6321W        W10372   8.036  10.978   8.638
 6322W        W10373   8.355   8.034   1.765
 6323W        W10374   2.130   6.747   3.131
 6324W        W10375   1.157   5.824   9.183
 6325W        W10376   2.713   5.088   9.541
 6326W        W10377   3.118   0.370  11.437
 6327W        W10378   1.773   5.942   0.183
 6328W        W10379   6.228  11.234   0.176
 6329W        W10380   0.477   9.931   1.336
 6330W        W10381   1.203  10.391  11.392
 6331W        W10382   0.456   5.285   3.482
 6332W        W10383   6.245   1.066   0.203
 6333W        W10384   0.046   1.287   2.882
 6334W        W10385   3.138  10.995   8.922
 6335W        W10386   5.562  11.414  10.832
 6336W        W10387   3.751  10.735   0.846
 6337W        W10388   5.072   5.054   0.043
 6338W        W10389   0.901   6.280   9.051
 6339W        W10390   0.821  10.227   3.532
 6340W        W10391   9.173   2.164  10.120
 6341W        W10392   0.201   5.640  11.226
 6342W        W10393   9.891   2.905   0.622
 6343W        W10394   8.605   8.467   3.013
 6344W        W10395  10.408   1.474   0.515
 6345W        W10396   6.138   6.932   0.399
 6346W        W10397   4.631  10.601   2.236
 6347W        W10398   1.796   7.237   9.784
 6348W        W10399  10.282   9.138   3.214
 6349W        W10400   9.959   1.810   9.272
 6350W        W10401   4.620  11.304  10.050
 6351W        W10402   7.049   1.073   8.883
 6352W        W10403   8.838   5.296   2.722
 6353W        W10404   2.678   1.727   3.190
 6354W        W10405   3.115   3.353   8.870
 6355W        W10406   0.836   4.833   9.997
 6356W        W10407   9.860   5.693  11.120
 6357W        W10408   2.729   9.598   9.020
 6358W        W10409   2.782   7.530   8.319
 6359W        W10410   3.137   6.268   0.793
 6360W        W10411   4.038   5.147   2.535
 6361W        W10412  10.370   7.921   1.914
 6362W        W10413   9.010   4.719   0.778
 6363W        W10414   7.082  10.326   1.915
 6364W        W10415   5.210   1.676   0.268
 6365W        W10416   7.034   2.432   0.820
 6366W        W10417   4.396   9.591   9.852
 6367W        W10418   5.725   3.586   1.176
 6368W        W10419   3.228   2.141   0.863
 6369W        W10420   2.359   8.937   0.928
 6370W        W10421  10.867   1.781  11.907
 6371W        W10422   7.929   8.904   8.725
 6372W        W10423   4.147   6.151  11.609
 6373W        W10424   2.026   9.329  10.953
 6374W        W10425   0.679   8.837   0.021
 6375W        W10426   7.368   5.551  11.984
 6376W        W10427   3.319   5.787   0.839
 6377W        W10428   0.486   6.204   2.187
 6378W        W10429   0.448   6.100  11.261
 6379W        W10430   1.784   6.036   1.168
 6380W        W10431   8.616   3.735   9.563
 6381W        W10432   9.646   5.267   9.918
 6382W        W10433   0.356   7.506   3.396
 6383W        W10434  10.517   0.464  11.183
 6384W        W10435  11.127   6.956   1.244
 6385W        W10436   3.432  10.006   0.450
 6386W        W10437   0.468   2.174   0.749
 6387W        W10438   3.500   5.255  10.189
 6388W        W10439   1.855   1.859   2.214
 6389W        W10440  10.789   7.028   3.534
 6390W        W10441   6.343   3.604  10.139
 6391W        W10442   0.715  10.672   8.514
 6392W        W10443   7.225   8.448   1.414
 6393W        W10444   3.345   4.403   0.552
 6394W        W10445   4.534   6.734  10.434
 6395W        W10446   6.479   4.688  10.990
 6396W        W10447   9.350  11.402   8.906
 6397W        W10448   8.326   7.403   3.258
 6398W        W10449  10.792   0.796   2.848
 6399W        W10450   9.510   9.174  11.408
 6400W        W10451   9.952   5.695   1.465
 6401W        W10452  10.712   7.636   0.987
 6402W        W10453   8.949  10.396  11.316
 6403W        W10454   5.230   1.652  10.294
 6404W        W10455   6.842   3.198   3.454
 6405W        W10456   0.202   5.514   8.988
 6406W        W10457   1.686   5.808  11.704
 6407W        W10458   8.994   0.260   2.306
 6408W        W10459   2.148   5.692   1.184
 6409W        W10460   1.461   2.393   0.596
 6410W        W10461  10.440   8.091   9.475
 6411W        W10462   0.472   0.769  10.993
 6412W        W10463  11.073  11.092   0.763
 6413W        W10464   1.904   2.722   0.693
 6414W        W10465   7.144  11.289  10.883
 6415W        W10466  10.252   9.605   0.922
 6416W        W10467   7.855   2.787  10.867
 6417W        W10468   5.571   6.208   0.677
 6418W        W10469   9.441   3.086   1.801
 6419W        W10470   6.038   8.487   9.007
 6420W        W10471  11.489   6.103  11.464
 6421W        W10472  10.941   0.461  11.570
 6422W        W10473   9.193   9.313   0.775
 6423W        W10474   5.122   9.430   0.541
 6424W        W10475   6.218   8.661   3.116
 6425W        W10476   5.556   4.515  10.980
 6426W        W10477   5.452   0.751   1.492
 6427W        W10478   9.316   2.310   2.988
 6428W        W10479   1.296   8.433   2.362
 6429W        W10480   4.235   3.106  11.959
 6430W        W10481   1.016   2.174   9.871
 6431W        W10482   1.804   7.792   0.395
 6432W        W10483   4.080   2.224   0.377
 6433W        W10484   2.808   8.499   9.141
 6434W        W10485   8.584  10.803   1.431
 6435W        W10486   7.940   8.896  10.582
 6436W        W10487   8.604   8.090   0.661
 6437W        W10488   7.006   7.923   2.050
 6438W        W10489   7.207   1.909   2.131
 6439W        W10490  11.265   3.230   2.308
 6440W        W10491   8.509   2.926   2.279
 6441W        W10492   4.237   9.578   3.221
 6442W        W10493   3.078   4.242   9.397
 6443W        W10494  10.417   1.636   9.460
 6444W        W10495   9.910   2.586  10.789
 6445W        W10496   2.820   9.675  10.420
 6446W        W10497   0.621   8.180   8.694
 6447W        W10498   3.668   8.633   8.236
 6448W        W10499   2.305   5.935  11.423
 6449W        W10500  11.458   7.986  10.326
 6450W        W10501  10.563   2.640  11.358
 6451W        W10502   3.908   9.570   9.932
 6452W        W10503   2.368   4.353   2.720
 6453W        W10504  11.271   6.524  11.753
 6454W        W10505  10.739  10.224   2.678
 6455W        W10506   9.328   5.248   2.910
 6456W        W10507   0.269   6.989   3.434
 6457W        W10508   5.513   0.278   9.155
 6458W        W10509   3.188   7.616   9.489
 6459W        W10510  11.495  10.767  11.551
 6460W        W10511   8.172  10.018   8.495
 6461W        W10512   1.077   1.886   1.898
 6462W        W10513   5.178   4.144  11.608
 6463W        W10514   5.671   5.275   2.258
 6464W        W10515   1.324   2.672   2.479
 6465W        W10516   9.971   1.265  10.531
 6466W        W10517   9.844   0.700  10.054
 6467W        W10518   4.050   8.457   2.431
 6468W        W10519   8.822   0.527   0.348
 6469W        W10520   8.959   4.586  10.473
 6470W        W10521   4.973   2.110   2.742
 6471W        W10522   8.225  10.034  11.413
 6472W        W10523  10.704   9.491   0.176
 6473W        W10524   1.547   0.684  10.843
 6474W        W10525   7.405   6.609  10.957
 6475W        W10526   8.556   6.554   3.639
 6476W        W10527   3.877   3.001   3.195
 6477W        W10528   9.437   0.168  11.794
 6478W        W10529   8.385   8.590  11.433
 6479W        W10530   4.770   5.707   1.052
 6480W        W10531   0.618  10.517   2.777
 6481W        W10532  10.503   6.479   8.822
 6482W        W10533   0.459   3.665   0.670
 6483W        W10534   0.714   2.194   9.435
 6484W        W10535   1.263   0.725   2.355
 6485W        W10536  10.547   9.292  11.721
 6486W        W10537   4.915   8.291   3.349
 6487W        W10538   7.612   7.516   9.893
 6488W        W10539   1.666   1.968  10.925
 6489W        W10540   4.631   7.528   0.132
 6490W        W10541   0.780  10.183  11.658
 6491W        W10542   2.095   3.313   0.731
 6492W        W10543   0.468  11.407   1.443
 6493W        W10544   1.863   5.547  11.293
 6494W        W10545   4.940   4.108   1.962
 6495W        W10546   3.814   7.027   1.013
 6496W        W10547  10.637   5.890   2.833
 6497W        W10548   8.222   4.379   0.290
 6498W        W10549   0.794   8.878   9.734
 6499W        W10550   7.376  11.330   3.135
 6500W        W10551   9.112   1.885   0.613
 6501W        W10552   9.473  11.251   3.318
 6502W        W10553   2.707   7.661   1.179
 6503W        W10554   6.924   4.991   1.626
 6504W        W10555  11.392   3.415   0.686
 6505W        W10556   2.482   7.079   1.071
 6506W        W10557   0.300   0.683   0.636
 6507W        W10558   5.229   9.957   9.657
 6508W        W10559   3.620   3.038   1.911
 6509W        W10560   5.642   5.351   0.820
 6510W        W10561   7.395   9.423   2.413
 6511W        W10562   1.485   2.297  10.197
 6512W        W10563   3.594   6.525   8.545
 6513W        W10564   2.045   7.425   2.347
 6514W        W10565  11.278  10.066   2.721
 6515W        W10566   4.570   1.370   2.239
 6516W        W10567   6.966   4.177   0.025
 6517W        W10568   0.717   5.359   9.985
 6518W        W10569   6.686   1.701  11.185
 6519W        W10570   8.498  11.287   3.177
 6520W        W10571   7.154   1.981   0.628
 6521W        W10572   1.456   0.715   0.042
 6522W        W10573   7.764   9.910  11.231
 6523W        W10574   4.119   0.450   0.002
 6524W        W10575   8.090   8.196   9.967
 6525W        W10576   0.374   6.494   3.787
 6526W        W10577   4.548   5.755  11.502
 6527W        W10578   4.024  10.531   9.748
 6528W        W10579   5.681   2.347  10.748
 6529W        W10580   8.857   9.294   9.261
 6530W        W10581   1.863   6.931   2.226
 6531W        W10582   0.400  10.826  11.840
 6532W        W10583   3.059  10.852  11.276
 6533W        W10584   0.778   9.959  10.556
 6534W        W10585   2.543   5.388   8.200
 6535W        W10586   6.624   6.680  11.298
 6536W        W10587   3.204   3.302  10.937
 6537W        W10588  10.837  10.290  11.810
 6538W        W10589   1.233  11.156   2.713
 6539W        W10590   3.774  10.935  10.534
 6540W        W10591   7.578   1.979  11.388
 6541W        W10592   3.996  11.470  11.827
 6542W        W10593   0.892   0.825   1.291
 6543W        W10594   1.891   8.610   9.510
 6544W        W10595   3.634   6.174   0.988
 6545W        W10596   9.776   1.691  10.746
 6546W        W10597   3.280   5.612  11.970
 6547W        W10598   0.597   7.270   2.157
 6548W        W10599   5.803   7.012   2.650
 6549W        W10600   9.779  11.417  11.494
 6550W        W10601   5.276   6.743   1.366
 6551W        W10602   6.240   4.110   4.089
 6552W        W10603   1.552   5.993  11.235
 6553W        W10604   6.541   6.890   1.195
 6554W        W10605   7.139   7.656  10.435
 6555W        W10606   6.527   7.759  10.968
 6556W        W10607   4.161  10.997   2.962
 6557W        W10608   7.101   0.826  10.793
 6558W        W10609   5.945   0.000   9.464
 6559W        W10610   5.872   9.523   9.830
 6560W        W10611   3.792   8.933   2.326
 6561W        W10612   4.165   6.244   3.726
 6562W        W10613   1.280   2.805   0.368
 6563W        W10614  10.541   2.378  10.042
 6564W        W10615   0.359  11.450   2.804
 6565W        W10616   0.352   7.255   1.698
 6566W        W10617   3.184   2.118  11.971
 6567W        W10618   2.864   2.796  11.417
 6568W        W10619   5.434   9.262   3.198
 6569W        W10620   9.976   8.386   2.402
 6570W        W10621  10.824  11.166   1.706
 6571W        W10622   1.628   9.177   3.213
 6572W        W10623   2.342  11.086  10.459
 6573W        W10624   7.465   0.950   0.576
 6574W        W10625   1.625   1.329  11.439
 6575W        W10626   6.654   3.093   2.479
 6576W        W10627   2.113   6.587   8.668
 6577W        W10628   2.858   6.224  10.611
 6578W        W10629   4.252   3.531  10.905
 6579W        W10630   6.422   3.125   8.498
 6580W        W10631   2.295   2.464  10.608
 6581W        W10632   1.630   7.043   9.358
 6582W        W10633  11.256   7.629   2.703
 6583W        W10634   9.244   0.654   0.582
 6584W        W10635   1.775   8.669   2.256
 6585W        W10636   5.125  11.288   9.872
 6586W        W10637   2.253   9.473   9.176
 6587W        W10638   9.984   3.294   1.904
 6588W        W10639   8.770   3.361  11.974
 6589W        W10640   4.251   0.081   9.858
 6590W        W10641   9.844   2.432   1.847
 6591W        W10642  10.973   8.174   0.723
 6592W        W10643   9.714   0.689   0.376
 6593W        W10644   5.184   5.981   0.993
 6594W        W10645   7.759   4.562   9.039
 6595W        W10646   3.241   2.642   0.853
 6596W        W10647   5.218   6.093  10.328
 6597W        W10648  10.020   8.141  11.785
 6598W        W10649   6.114   0.946   0.883
 6599W        W10650   1.979   3.398  10.955
 6600W        W10651  10.228   6.093   0.781
 6601W        W10652   8.999   7.843  11.530
 6602W        W10653   1.365   1.961   3.266
 6603W        W10654   6.577   8.636   1.811
 6604W        W10655   6.305   7.190   8.977
 6605W        W10656  10.785   0.770   9.041
 6606W        W10657   2.799   8.842   9.530
 6607W        W10658  11.266   8.592   0.707
 6608W        W10659   3.540   4.110   0.952
 6609W        W10660   4.041   6.174   0.136
 6610W        W10661   4.411   1.775   0.697
 6611W        W10662   6.210   0.291  10.812
 6612W        W10663   4.093  11.441   0.792
 6613W        W10664   7.662   8.861   0.561
 6614W        W10665   2.015   3.029  11.711
 6615W        W10666   8.155   2.840  10.411
 6616W        W10667   1.311   3.614  11.705
 6617W        W10668   4.550   3.392  10.401
 6618W        W10669   4.898   7.153  11.396
 6619W        W10670   5.681   6.303  10.178
 6620W        W10671   7.466   3.862   1.579
 6621W        W10672   0.147   5.643   0.599
 6622W        W10673  10.270   8.598  10.120
 6623W        W10674   7.207   3.092   1.949
 6624W        W10675   5.997   2.363   9.489
 6625W        W10676   4.623   1.447   9.381
 6626W        W10677   4.488   4.683   3.230
 6627W        W10678  10.085   7.442  10.317
 6628W        W10679  10.052  10.917   0.817
 6629W        W10680  11.319   5.258  11.110
 6630W        W10681   4.801   1.340  10.317
 6631W        W10682   0.840   3.494   9.533
 6632W        W10683   5.780   4.373   0.694
 6633W        W10684  10.167   7.524   1.623
 6634W        W10685   8.713   1.294   9.769
 6635W        W10686   3.243   8.622   0.236
 6636W        W10687   5.912   1.632  11.041
 6637W        W10688   4.969   1.760   4.047
 6638W        W10689   6.977   1.329   1.198
 6639W        W10690   7.889   5.268   9.490
 6640W        W10691   0.459   3.787   2.844
 6641W        W10692   8.079  11.384  10.873
 6642W        W10693   1.925   5.263   8.997
 6643W        W10694   1.390   2.820  10.338
 6644W        W10695   8.167  11.302   9.970
 6645W        W10696   9.205   0.381   3.238
 6646W        W10697   0.420  11.218   0.174
 6647W        W10698   8.661  11.251  10.225
 6648W        W10699   2.684   6.567   8.734
 6649W        W10700  10.526   0.693  10.662
 6650W        W10701   5.744   7.729   4.019
 6651W        W10702   3.364   3.366  11.421
 6652W        W10703   4.067  10.368  10.758
 6653W        W10704   9.004   3.340   9.087
 6654W        W10705   6.197   5.706   2.741
 6655W        W10706   4.968   8.123   9.263
 6656W        W10707   9.247   5.916  10.429
 6657W        W10708  10.364   4.131   3.081
 6658W        W10709   3.410   7.392   2.912
 6659W        W10710   7.634   2.117  11.885
 6660W        W10711   3.106   1.386  11.374
 6661W        W10712  10.740  11.275   9.065
 6662W        W10713  10.349   0.969   3.160
 6663W        W10714   4.106   1.232  10.380
 6664W        W10715   5.871  10.916   2.464
 6665W        W10716   2.015  10.341   9.217
 6666W        W10717   1.364   3.729  10.687
 6667W        W10718   1.732   4.603   0.401
 6668W        W10719   4.224   1.223   1.857
 6669W        W10720   9.005   8.980   9.842
 6670W        W10721   1.309   4.576  10.804
 6671W        W10722   4.245   2.777   1.570
 6672W        W10723   0.711   4.160   1.214
 6673W        W10724   9.228  10.382   3.780
 6674W        W10725  10.736   6.071   1.542
 6675W        W10726   2.128  10.620   1.822
 6676W        W10727  11.209   0.705   3.141
 6677W        W10728   0.584   1.915  11.141
 6678W        W10729   1.867   9.980   1.529
 6679W        W10730   7.601   6.215  10.207
 6680W        W10731   4.365   6.649  11.832
 6681W        W10732   0.105   1.691  11.270
 6682W        W10733   7.615  10.319  10.968
 6683W        W10734   7.580   8.016  10.643
 6684W        W10735   3.750   4.995   9.357
 6685W        W10736   5.102   0.295   1.289
 6686W        W10737   1.211   5.934  10.848
 6687W        W10738   9.860   8.845   3.323
 6688W        W10739   7.652   5.494   0.903
 6689W        W10740   2.231   8.777   2.478
 6690W        W10741   7.583   1.914   9.225
 6691W        W10742   9.310   4.847  10.059
 6692W        W10743   7.139   7.437   9.057
 6693W        W10744  10.875  10.956   3.039
 6694W        W10745   7.983   2.332   9.701
 6695W        W10746   3.715   6.609  10.817
 6696W        W10747   7.889  10.865   3.423
 6697W        W10748   3.937  10.289  11.357
 6698W        W10749   5.392   8.476  10.955
 6699W        W10750   0.574   9.068  10.190
 6700W        W10751   0.272   3.159   2.287
 6701W        W10752   6.093   2.515  10.996
 6702W        W10753  10.637   8.405   1.360
 6703W        W10754   3.204  11.480   9.187
 6704W        W10755  10.149   4.237   9.119
 6705W        W10756   6.801   1.773   2.423
 6706W        W10757   0.812   4.574  10.480
 6707W        W10758   5.750   2.809   2.833
 6708W        W10759   9.965   2.711   0.162
 6709W        W10760   3.913   7.267   2.840
 6710W        W10761  10.161   0.291   3.424
 6711W        W10762   7.374   1.046   2.370
 6712W        W10763   7.943   3.310  11.142
 6713W        W10764   0.813   7.391   0.817
 6714W        W10765   1.857   3.114  10.171
 6715W        W10766   1.807   6.414   0.377
 6716W        W10767   5.560   1.903  11.986
 6717W        W10768   2.363   9.588  10.659
 6718W        W10769   6.180   2.514  11.510
 6719W        W10770   4.507   6.111   1.282
 6720W        W10771   4.748  11.486   0.417
 6721W        W10772   9.034   7.369  10.411
 6722W        W10773   1.646  11.010  11.538
 6723W        W10774   4.165   9.550  11.485
 6724W        W10775   6.271   8.733   2.202
 6725W        W10776   3.656   0.885  10.412
 6726W        W10777   0.936   6.269  11.826
 6727W        W10778   8.828   7.618   8.838
 6728W        W10779   5.345   4.454   0.943
 6729W        W10780   9.978   3.239   8.744
 6730W        W10781   8.067   1.934  11.566
 6731W        W10782   9.647   9.325   3.264
 6732W        W10783   5.572   4.618   1.908
 6733W        W10784   5.842   7.084   9.187
 6734W        W10785   3.415   1.947   2.162
 6735W        W10786   8.420   5.916   9.892
 6736W        W10787   8.363   8.397   9.552
 6737W        W10788   0.219   4.083   1.374
 6738W        W10789   6.113   1.598   9.070
 6739W        W10790   4.765   7.952   1.122
 6740W        W10791   8.967   9.179   3.594
 6741W        W10792  10.000   7.976   1.525
 6742W        W10793   6.808  10.859   2.223
 6743W        W10794   9.424   3.359   8.751
 6744W        W10795   8.654   0.181   3.696
 6745W        W10796   2.963   0.694   0.278
 6746W        W10797   6.023   2.152   9.939
 6747W        W10798   4.953   2.621   1.782
 6748W        W10799   7.044   8.662   9.510
 6749W        W10800   7.803  10.376  11.438
 6750W        W10801   5.677   0.720   2.720
 6751W        W10802  11.404   5.185   9.911
 6752W        W10803   7.439  10.032  11.618
 6753W        W10804   7.131  11.177   1.326
 6754W        W10805  11.382   3.835  11.359
 6755W        W10806   9.858   9.999  11.930
 6756W        W10807   7.146   8.892   0.476
 6757W        W10808   2.162   4.984  11.749
 6758W        W10809   4.741   8.912   2.757
 6759W        W10810   2.694   9.498   1.698
 6760W        W10811  10.727   7.724   2.244
 6761W        W10812   1.746   2.682   9.892
 6762W        W10813   5.387   9.367   9.930
 6763W        W10814   2.326  10.057  11.381
 6764W        W10815  11.446   8.113   0.913
 6765W        W10816   8.201   1.202   0.630
 6766W        W10817   9.983   7.604   0.323
 6767W        W10818   5.108   7.238  10.927
 6768W        W10819   3.537   6.907   2.794
 6769W        W10820   8.625   3.030   1.238
 6770W        W10821   7.760   3.586   1.245
 6771W        W10822   1.372   7.168  11.564
 6772W        W10823   0.904   3.809   0.427
 6773W        W10824   2.796   2.856   1.000
 6774W        W10825  10.317  11.016  11.866
 6775W        W10826   6.513   2.341  10.758
 6776W        W10827   9.472   6.937   9.707
 6777W        W10828   4.762   9.915  10.955
 6778W        W10829   6.667   0.821   3.876
 6779W        W10830  10.510   7.304   1.327
 6780W        W10831  11.304   0.142   9.592
 6781W        W10832   5.181   9.006  10.752
 6782W        W10833   2.350   1.965  10.518
 6783W        W10834   5.078   9.319   2.402
 6784W        W10835   3.150   5.100   3.783
 6785W        W10836  11.299   5.267   0.505
 6786W        W10837   8.191   6.014   8.442
 6787W        W10838   9.753   0.515   1.796
 6788W        W10839  10.492   3.873  10.908
 6789W        W10840   1.122   6.769   8.720
 6790W        W10841   2.071   7.608   3.651
 6791W        W10842   4.470   1.439  10.679
 6792W        W10843   6.045   7.545  10.273
 6793W        W10844   2.696   7.511   9.346
 6794W        W10845   4.379  10.700   9.387
 6795W        W10846   4.795   7.165  10.337
 6796W        W10847   7.921  10.348   1.564
 6797W        W10848   7.959   1.250   1.433
 6798W        W10849   7.145   6.792   2.674
 6799W        W10850   9.188   8.431   1.264
 6800W        W10851   5.760   2.630   0.463
 6801W        W10852   1.886   2.148  10.489
 6802W        W10853   3.034   2.489  11.040
 6803W        W10854  10.422   7.435   2.954
 6804W        W10855  11.086   0.437   1.424
 6805W        W10856   5.898   4.278  11.385
 6806W        W10857   7.500   5.349   1.364
 6807W        W10858   7.172   9.500   2.890
 6808W        W10859   9.384   8.875   1.485
 6809W        W10860   5.653  10.775   3.443
 6810W        W10861   7.891   2.367   9.205
 6811W        W10862   3.699   7.025   0.029
 6812W        W10863   2.284  11.097   1.853
 6813W        W10864  11.411   0.519   0.949
 6814W        W10865   3.283   8.883   1.038
 6815W        W10866   7.352   6.976   8.860
 6816W        W10867   8.912   7.622   9.987
 6817W        W10868  10.491   9.079   8.727
 6818W        W10869   4.830   6.667  11.267
 6819W        W10870   0.393   4.879   1.622
 6820W        W10871   2.430   6.453  11.464
 6821W        W10872   9.484   9.779   2.927
 6822W        W10873   8.795   5.756  11.896
 6823W        W10874  10.886   0.355   9.349
 6824W        W10875   4.996   7.480   0.953
 6825W        W10876   2.343  10.323   0.924
 6826W        W10877  10.346   6.340   1.284
 6827W        W10878   5.311   9.790   0.219
 6828W        W10879  11.263   4.690   3.292
 6829W        W10880   5.236   0.804  11.777
 6830W        W10881   5.098   2.583   3.614
 6831W        W10882   5.743   4.094  10.745
 6832W        W10883   9.389  10.288   2.866
 6833W        W10884   1.834   7.806   2.682
 6834W        W10885  10.774   7.115   0.910
 6835W        W10886   9.885   4.740   0.211
 6836W        W10887   9.970   1.226   2.087
 6837W        W10888   3.194   4.742   0.894
 6838W        W10889   2.974   3.430  11.748
 6839W        W10890   0.663  10.444   0.088
 6840W        W10891   6.671   8.683   2.682
 6841W        W10892   8.471   9.481  10.133
 6842W        W10893   1.808   5.530   3.002
 6843W        W10894  11.425   2.911   2.693
 6844W        W10895   5.482  11.315   9.409
 6845W        W10896   9.008   9.912   0.870
 6846W        W10897   8.407   3.468  10.923
 6847W        W10898   6.540   1.661  10.189
 6848W        W10899   0.829   5.327  11.886
 6849W        W10900   2.680   8.157   1.311
 6850W        W10901   9.385   4.224  10.366
 6851W        W10902   7.497   6.699   0.329
 6852W        W10903   9.984   3.756   1.148
 6853W        W10904   2.168   7.406  10.583
 6854W        W10905   9.233   7.905   9.732
 6855W        W10906   8.477   9.890   9.828
 6856W        W10907   2.695   3.782  11.993
 6857W        W10908   1.013   0.701  10.871
 6858W        W10909  10.543  10.317   9.642
 6859W        W10910   6.252   1.301   8.672
 6860W        W10911   0.484   6.033   3.084
 6861W        W10912   0.819   4.537   9.541
 6862W        W10913   7.467   1.411   1.392
 6863W        W10914   9.407   5.834  11.322
 6864W        W10915  10.853   1.337  11.630
 6865W        W10916   8.894   4.781  11.788
 6866W        W10917   2.516   3.316  10.860
 6867W        W10918   6.375   1.367  10.927
 6868W        W10919   7.479   7.366   0.810
 6869W        W10920   1.317  10.908   2.278
 6870W        W10921   8.839   7.392   3.275
 6871W        W10922   5.473  10.535   2.460
 6872W        W10923   4.129  10.372  11.827
 6873W        W10924   1.357   1.805   9.962
 6874W        W10925   3.782   4.157   2.808
 6875W        W10926   5.047   6.045  11.997
 6876W        W10927   9.442   8.408   2.652
 6877W        W10928   7.651   5.560   2.193
 6878W        W10929   1.201  10.059   3.248
 6879W        W10930   5.559   7.566   0.907
 6880W        W10931  10.411  10.029   3.111
 6881W        W10932   4.257   5.234   0.552
 6882W        W10933   4.259   2.201   9.279
 6883W        W10934   8.912   7.139   2.815
 6884W        W10935   5.773   3.687  11.490
 6885W        W10936   7.919   2.755   1.680
 6886W        W10937   3.202   2.344  11.511
 6887W        W10938   7.492  10.030   1.825
 6888W        W10939   2.334   6.653   9.128
 6889W        W10940   9.028   9.534   1.727
 6890W        W10941   4.127  10.290   9.245
 6891W        W10942   3.169   6.171   1.776
 6892W        W10943   1.687   8.145  11.438
 6893W        W10944   6.121   0.228   1.401
 6894W        W10945   2.954   3.324   2.282
 6895W        W10946   4.186  11.456   8.911
 6896W        W10947   8.973   8.724   3.288
 6897W        W10948   7.157   8.154  10.353
 6898W        W10949   7.294   2.246   1.215
 6899W        W10950  10.092   8.089   9.873
 6900W        W10951   5.676   1.770   0.493
 6901W        W10952   0.818  11.341  10.898
 6902W        W10953   0.708  10.755   9.393
 6903W        W10954   3.297  11.216   2.608
 6904W        W10955   0.278   7.902   9.029
 6905W        W10956   2.016   7.594  10.129
 6906W        W10957   4.697   1.893  10.501
 6907W        W10958   7.565  10.440   1.184
 6908W        W10959   5.280   8.857   9.902
 6909W        W10960   7.199   5.335   0.694
 6910W        W10961   8.006   7.465   0.419
 6911W        W10962   5.610   3.114   0.439
 6912W        W10963  10.952   8.949  10.992
 6913W        W10964   3.671  10.433   9.403
 6914W        W10965   8.047   6.335   9.272
 6915W        W10966  10.293   1.989  10.575
 6916W        W10967   2.828   5.712   3.748
 6917W        W10968   6.113   0.269   0.059
 6918W        W10969   2.358   0.917  11.252
 6919W        W10970   8.129  10.324  11.001
 6920W        W10971   2.680  10.159  10.490
 6921W        W10972   1.428   1.506  10.840
 6922W        W10973   9.541   0.323  11.308
 6923W        W10974   7.158   9.194   9.109
 6924W        W10975   3.320   5.233   0.922
 6925W        W10976   9.877   7.226   0.009
 6926W        W10977   7.503   1.808   0.994
 6927W        W10978   6.907   7.421  10.815
 6928W        W10979  11.220   4.732  11.397
 6929W        W10980   9.242   7.612   2.069
 6930W        W10981   2.839   9.943  10.930
 6931W        W10982   7.463  10.093   3.652
 6932W        W10983  10.818   5.506   0.375
 6933W        W10984  10.458   8.840  10.763
 6934W        W10985   0.881   0.023   2.734
 6935W        W10986  11.055   3.372  11.291
 6936W        W10987  10.727   5.099   2.768
 6937W        W10988   4.258  10.013   0.170
 6938W        W10989   8.070  11.077  11.411
 6939W        W10990   0.274   6.741   9.637
 6940W        W10991   9.746   9.488   9.641
 6941W        W10992   7.355   2.441  10.411
 6942W        W10993   5.285   4.317   3.153
 6943W        W10994   2.666  11.332   9.875
 6944W        W10995   3.456   0.986  10.872
 6945W        W10996   1.632   5.707   9.009
 6946W        W10997   1.647   4.031   9.139
 6947W        W10998   8.431   9.251   1.435
 6948W        W10999   3.399   4.708   1.515
 6949W        W11000   1.627   6.878   1.160
 6950W        W11001   6.808   8.816   9.935
 6951W        W11002   9.820   9.458   1.197
 6952W        W11003   9.015   9.949   1.418
 6953W        W11004   3.117   3.833   2.326
 6954W        W11005   7.351   2.675  10.855
 6955W        W11006   8.431   5.231  10.461
 6956W        W11007   8.366   8.561   0.857
 6957W        W11008   7.487   5.676   0.453
 6958W        W11009  11.373   0.331   3.457
 6959W        W11010   8.013   0.740   1.342
 6960W        W11011   0.431   4.008  10.901
 6961W        W11012  10.907   2.466  10.966
 6962W        W11013   6.527   7.694   9.652
 6963W        W11014   4.297   1.345   8.971
 6964W        W11015   6.051   5.008   9.606
 6965W        W11016   5.260   1.656   1.225
 6966W        W11017   5.816  10.034   9.103
 6967W        W11018   6.359  11.425  10.443
 6968W        W11019   4.375   5.610   1.368
 6969W        W11020   8.834   0.974  11.933
 6970W        W11021   3.327   2.229   8.749
 6971W        W11022   9.927   5.976   8.852
 6972W        W11023   7.521   1.701  10.952
 6973W        W11024   3.806  11.416   9.984
 6974W        W11025  10.245   5.342  11.011
 6975W        W11026   7.495   1.336   1.901
 6976W        W11027   9.819   7.488   2.287
 6977W        W11028   5.535   8.521  11.991
 6978W        W11029   5.786  11.032   9.700
 6979W        W11030   6.209   4.069   9.949
 6980W        W11031   5.487  11.421  11.770
 6981W        W11032   8.527   0.793   0.709
 6982W        W11033   5.732   8.896   9.098
 6983W        W11034   9.549  11.281   9.768
 6984W        W11035   2.771   0.703   3.153
 6985W        W11036   4.528   9.277  10.238
 6986W        W11037   6.640   5.177  11.058
 6987W        W11038   4.761   3.294   2.324
 6988W        W11039   2.431   5.180   9.957
 6989W        W11040  11.233   6.496   1.828
 6990W        W11041   2.879   1.945   2.159
 6991W        W11042   3.724   6.246  10.167
 6992W        W11043  11.288   7.368  10.147
 6993W        W11044   4.666  11.453   3.477
 6994W        W11045  10.310   2.045   1.204
 6995W        W11046   9.524   0.455   8.983
 6996W        W11047   8.312   0.673   9.813
 6997W        W11048   4.005  10.264   3.831
 6998W        W11049   1.198   4.556  11.689
 6999W        W11050   5.112   7.098   9.935
 7000W        W11051   6.338  11.139   0.654
 7001W        W11052   2.667   1.391  11.761
 7002W        W11053  10.318   9.531   8.497
 7003W        W11054   9.114   2.860   8.909
 7004W        W11055   1.879   0.091   8.973
 7005W        W11056   7.585   1.052   8.950
 7006W        W11057   3.776   2.869  11.838
 7007W        W11058   6.948   4.052   9.483
 7008W        W11059   2.745   2.938  10.078
 7009W        W11060   0.257   4.019   9.852
 7010W        W11061  10.175   1.936   0.728
 7011W        W11062   1.865  10.788   3.168
 7012W        W11063   8.976   4.123  10.682
 7013W        W11064   2.061   6.340   3.464
 7014W        W11065   2.770  11.224   1.669
 7015W        W11066  10.298   5.700   0.369
 7016W        W11067  10.847   1.338   1.551
 7017W        W11068   9.867   1.182   0.424
 7018W        W11069   1.025   7.050   0.470
 7019W        W11070   0.950   4.982   2.744
 7020W        W11071   7.288   7.148  10.581
 7021W        W11072  11.433   1.041   0.900
 7022W        W11073   2.926  11.296   0.125
 7023W        W11074   5.774   6.676   2.244
 7024W        W11075   1.853   0.888  11.278
 7025W        W11076   4.003   8.402  11.192
 7026W        W11077   7.351   2.338   0.288
 7027W        W11078   0.842   4.657   0.450
 7028W        W11079   1.334   9.815   8.896
 7029W        W11080   8.658   2.953   9.143
 7030W        W11081   6.738   9.007   3.412
 7031W        W11082   4.310   5.658   0.847
 7032W        W11083   6.068   3.685  10.676
 7033W        W11084   5.500   6.305   1.196
 7034W        W11085   4.983   3.648   8.673
 7035W        W11086   5.989   9.982   9.602
 7036W        W11087   6.460  10.880   1.835
 7037W        W11088  11.292   1.673   2.683
 7038W        W11089   7.599   2.766   0.425
 7039W        W11090   0.325   8.140   2.212
 7040W        W11091   9.056   4.662   9.111
 7041W        W11092   1.460  10.754   8.775
 7042W        W11093   7.817   0.211   2.208
 7043W        W11094   3.407   8.977   0.552
 7044W        W11095   7.963   3.655   0.782
 7045W        W11096   5.116   9.747  10.116
 7046W        W11097   8.829   0.900   1.941
 7047W        W11098  10.043  11.061   2.823
 7048W        W11099   5.709   1.295   3.472
 7049W        W11100   6.006   8.922  11.519
 7050W        W11101   5.621   4.655   2.409
 7051W        W11102   8.386   0.768   0.202
 7052W        W11103   8.077   5.827   3.656
 7053W        W11104   0.625   0.926   9.077
 7054W        W11105   2.850   4.218  11.712
 7055W        W11106  11.195   5.978   2.815
 7056W        W11107   7.512   8.021   1.589
 7057W        W11108   5.364   0.316  10.521
 7058W        W11109   5.720   6.588   9.152
 7059W        W11110   7.871   7.880   2.066
 7060W        W11111   8.916  10.411  10.343
 7061W        W11112   7.919  10.780  11.787
 7062W        W11113  10.990   0.325   0.536
 7063W        W11114   3.562   4.002  10.544
 7064W        W11115  10.172   1.477   0.970
 7065W        W11116   9.990   6.514  10.422
 7066W        W11117   4.175   2.690   3.518
 7067W        W11118   6.571   1.788   8.912
 7068W        W11119   5.712   8.172   9.528
 7069W        W11120   3.201   9.357   1.800
 7070W        W11121   7.546  11.465   1.200
 7071W        W11122   1.782   8.690   3.199
 7072W        W11123   7.345   8.337  11.779
 7073W        W11124   6.797  10.390  11.319
 7074W        W11125   0.835   8.550  10.791
 7075W        W11126   5.763  11.451   0.244
 7076W        W11127   6.723   6.324  11.776
 7077W        W11128   9.753   8.234   3.644
 7078W        W11129   5.751   8.830   0.957
 7079W        W11130  10.527   5.518   0.838
 7080W        W11131   9.121  10.428   3.263
 7081W        W11132   7.885  10.953   9.649
 7082W        W11133   6.631  10.900   9.239
 7083W        W11134   2.452   7.051  10.333
 7084W        W11135  10.749   0.326   0.074
 7085W        W11136   6.648   9.130  10.862
 7086W        W11137   4.072   2.824   2.056
 7087W        W11138   8.146   9.860   1.373
 7088W        W11139   5.104   4.526   2.231
 7089W        W11140   0.892   4.139   1.695
 7090W        W11141   6.886   2.503   9.987
 7091W        W11142   2.620   4.925  10.388
 7092W        W11143   8.268   0.358  11.849
 7093W        W11144   7.649   9.055   9.198
 7094W        W11145   3.732   5.736   0.182
 7095W        W11146  10.362   6.109   3.221
 7096W        W11147   0.034  10.802   1.359
 7097W        W11148   4.720   0.340   9.933
 7098W        W11149   5.978   3.361   8.565
 7099W        W11150   8.425  10.521   0.924
 7100W        W11151   4.716   4.131   0.437
 7101W        W11152  11.476   1.814   1.195
 7102W        W11153  10.828   7.353   2.575
 7103W        W11154   5.598   9.402   9.012
 7104W        W11155   1.416   9.135   0.175
 7105W        W11156   9.392   0.477  10.355
 7106W        W11157   2.633   7.062  11.205
 7107W        W11158   2.849  10.929  11.757
 7108W        W11159   2.118   7.328   9.390
 7109W        W11160   1.670   9.645   0.775
 7110W        W11161   0.966  10.119  11.007
 7111W        W11162   9.983   2.852  11.678
 7112W        W11163   2.351   1.554   9.619
 7113W        W11164   8.596   3.361   1.613
 7114W        W11165   0.106  10.509   2.793
 7115W        W11166  11.394   8.458   2.257
 7116W        W11167   8.455   7.101   9.413
 7117W        W11168   5.219   1.592   2.668
 7118W        W11169   9.852   6.136   3.071
 7119W        W11170   7.967   6.974   3.097
 7120W        W11171   6.990   6.585   8.799
 7121W        W11172   1.767   6.467   0.880
 7122W        W11173   6.537   1.826  10.676
 7123W        W11174   2.729   5.734  10.735
 7124W        W11175   6.075  11.301  10.850
 7125W        W11176   1.106   5.746  10.055
 7126W        W11177   1.251   8.865  10.026
 7127W        W11178   5.071   2.975   0.913
 7128W        W11179   0.737   6.504  11.351
 7129W        W11180   8.455   1.139   1.631
 7130W        W11181   7.855   7.428   2.321
 7131W        W11182   2.791   2.555   3.337
 7132W        W11183   5.560   1.347  11.831
 7133W        W11184   2.017   7.686  11.429
 7134W        W11185   8.423   0.741  11.149
 7135W        W11186   0.480   6.725  10.522
 7136W        W11187   1.954  11.136   1.159
 7137W        W11188   0.243  11.102  10.249
 7138W        W11189   4.005   4.568   9.558
 7139W        W11190  10.892   9.044   0.034
 7140W        W11191   5.097   5.568  11.764
 7141W        W11192   9.858   5.278   3.028
 7142W        W11193   6.628   9.602   8.478
 7143W        W11194  10.028   1.785   9.772
 7144W        W11195   4.703   5.734   0.535
 7145W        W11196   1.319   8.389  10.218
 7146W        W11197   8.393  11.287   9.289
 7147W        W11198   3.126   1.020  10.092
 7148W        W11199   8.670   5.864   8.247
 7149W        W11200   3.560   4.156   9.230
 7150W        W11201   2.339  10.058  10.862
 7151W        W11202   1.770   5.026   9.420
 7152W        W11203   8.061   5.994  10.241
 7153W        W11204   6.963   0.942   2.112
 7154W        W11205   5.221   0.854   2.947
 7155W        W11206   4.608   3.214   0.821
 7156W        W11207   3.517   0.064  11.441
 7157W        W11208   8.056   0.077  11.399
 7158W        W11209   4.615   0.316   8.584
 7159W        W11210   8.505   7.634   0.406
 7160W        W11211  10.319   2.691   1.354
 7161W        W11212   8.565   1.174  11.373
 7162W        W11213   5.291  11.354   3.025
 7163W        W11214   4.895   0.666   3.279
 7164W        W11215  10.045   8.457   9.404
 7165W        W11216   4.142   1.855   8.756
 7166W        W11217   5.214   8.261   1.275
 7167W        W11218   3.328  10.793   2.238
 7168W        W11219   5.121   9.102   1.523
 7169W        W11220   6.764  10.906   0.079
 7170W        W11221   1.614   9.000  10.883
 7171W        W11222  11.358   1.894  11.673
 7172W        W11223   2.609   5.732   1.375
 7173W        W11224   8.613   4.083   0.478
 7174W        W11225   3.353   5.215   1.452
 7175W        W11226   6.881   4.572  11.254
 7176W        W11227  10.820   2.734   0.745
 7177W        W11228   6.516  11.129   3.056
 7178W        W11229   5.098   3.093  11.082
 7179W        W11230   9.424  10.877   0.109
 7180W        W11231   3.781   7.977  10.498
 7181W        W11232   7.138   7.045   0.076
 7182W        W11233   1.473   8.512   9.203
 7183W        W11234   3.865   1.864   1.292
 7184W        W11235   1.184   6.726  11.753
 7185W        W11236   5.188   1.423   0.752
 7186W        W11237   4.732   8.679   1.910
 7187W        W11238   3.343   8.795   8.621
 7188W        W11239   1.275   4.661   0.177
 7189W        W11240   7.228   8.396  10.802
 7190W        W11241   0.667   1.472  10.426
 7191W        W11242   2.612   8.649   1.232
 7192W        W11243   7.028   1.689  10.321
 7193W        W11244   5.063  10.801   0.518
 7194W        W11245   2.646   2.333   2.447
 7195W        W11246  10.792   4.225   2.804
 7196W        W11247   4.660   6.112   1.828
 7197W        W11248   8.802   3.648   1.225
 7198W        W11249   5.546   3.255   2.663
 7199W        W11250   1.810   5.537   9.453
 7200W        W11251   4.458   2.152   2.868
 7201W        W11252   6.157   3.136   8.974
 7202W        W11253   6.547   5.640   1.731
 7203W        W11254   3.604  11.247  10.957
 7204W        W11255   3.364   7.151  10.485
 7205W        W11256   3.805   2.611  10.359
 7206W        W11257  11.425   4.388   9.250
 7207W        W11258   9.466   5.021   0.422
 7208W        W11259   6.542   5.687  11.265
 7209W        W11260   8.703   6.636   8.777
 7210W        W11261   0.586   1.245   9.942
 7211W        W11262   4.303   4.573  10.815
 7212W        W11263   1.076   7.869   3.413
 7213W        W11264   4.144   2.533  11.954
 7214W        W11265   5.742   7.524   8.929
 7215W        W11266   8.093   3.704   9.616
 7216W        W11267   0.379   4.896  11.752
 7217W        W11268   0.838   9.037  10.629
 7218W        W11269   6.959   0.846   2.614
 7219W        W11270   0.212   7.645  10.074
 7220W        W11271   3.818   2.085  11.429
 7221W        W11272   7.019  11.457   2.337
 7222W        W11273   9.147   3.320   2.758
 7223W        W11274   4.084   1.719   9.247
 7224W        W11275   9.435   2.425   9.708
 7225W        W11276   5.211   6.752   9.155
 7226W        W11277   6.116   6.245   9.391
 7227W        W11278   0.229   6.610   0.048
 7228W        W11279   2.249   0.206   1.029
 7229W        W11280   5.517  10.259  10.766
 7230W        W11281   4.951   0.193   3.137
 7231W        W11282   2.193   1.966   3.191
 7232W        W11283   0.771  11.195  11.793
 7233W        W11284   8.082  11.000   2.923
 7234W        W11285   8.669   1.328   0.759
 7235W        W11286   0.539   9.712   0.583
 7236W        W11287   7.021   7.565   9.556
 7237W        W11288   0.112   5.272   0.087
 7238W        W11289   4.675   6.176  11.233
 7239W        W11290   3.842  10.982  11.927
 7240W        W11291   4.562   7.577  10.053
 7241W        W11292   8.345   9.812   3.608
 7242W        W11293   3.585   1.303  10.134
 7243W        W11294   2.768   9.930   2.007
 7244W        W11295   2.139   5.128  10.355
 7245W        W11296   1.783   3.574  11.451
 7246W        W11297   8.552   8.870   9.398
 7247W        W11298   6.499   7.100   1.943
 7248W        W11299   2.616   0.936   9.965
 7249W        W11300   2.681   1.835   2.629
 7250W        W11301   0.235   0.004   1.889
 7251W        W11302   4.092   3.597  10.449
 7252W        W11303   3.722   6.073   8.344
 7253W        W11304   3.309   4.765  10.065
 7254W        W11305   0.424   6.665   1.136
 7255W        W11306   0.766   3.152  11.008
 7256W        W11307   8.620   8.912  11.008
 7257W        W11308   1.720   8.995  11.809
 7258W        W11309   8.341   1.106   1.113
 7259W        W11310   2.534   5.628   8.720
 7260W        W11311   7.444   0.469   2.984
 7261W        W11312   2.725   8.865  10.040
 7262W        W11313   4.772   2.489  11.463
 7263W        W11314  10.872   2.933   2.525
 7264W        W11315   3.468  10.550   0.460
 7265W        W11316   6.228   5.512  11.748
 7266W        W11317   7.552   8.071  11.139
 7267W        W11318   8.859   8.502   0.859
 7268W        W11319   8.135   6.366   1.354
 7269W        W11320   9.992   0.298   9.169
 7270W        W11321   9.742   7.884   3.271
 7271W        W11322   5.085   8.256  11.948
 7272W        W11323   1.761   2.613   8.971
 7273W        W11324  10.339   8.872   2.761
 7274W        W11325   3.681   4.210   8.729
 7275W        W11326  10.364   2.169  11.385
 7276W        W11327   6.268  10.395   9.739
 7277W        W11328   2.329   3.839   8.629
 7278W        W11329   3.803   9.718   0.208
 7279W        W11330   4.196   0.383   2.430
 7280W        W11331  10.373   1.804   1.854
 7281W        W11332  10.913   2.575   2.136
 7282W        W11333   1.860   7.726   9.654
 7283W        W11334   0.420   0.409   1.553
 7284W        W11335   9.083   2.800  11.326
 7285W        W11336  10.854   6.146   9.248
 7286W        W11337   2.204   6.660   1.653
 7287W        W11338  10.250   7.919   3.126
 7288W        W11339  10.884   4.676  11.787
 7289W        W11340   6.772   5.818   1.267
 7290W        W11341   0.845   2.903  10.171
 7291W        W11342   2.736   9.912   9.985
 7292W        W11343  11.264   9.496   9.029
 7293W        W11344   8.962   2.568   3.289
 7294W        W11345   1.011   2.822  10.690
 7295W        W11346   7.508  11.294   2.221
 7296W        W11347   5.707   4.042   4.031
 7297W        W11348   0.904  11.373   0.507
 7298W        W11349   1.181   4.185   0.998
 7299W        W11350   8.465   0.971   9.443
 7300W        W11351  11.153   1.678   3.649
 7301W        W11352   3.703   1.288   1.910
 7302W        W11353   2.285   9.357  11.532
 7303W        W11354   7.071   1.999  11.354
 7304W        W11355   1.742   7.843   0.969
 7305W        W11356   9.096  10.826   1.314
 7306W        W11357  10.136  11.049  11.378
 7307W        W11358   1.370   4.116  11.012
 7308W        W11359   4.197   4.688   1.806
 7309W        W11360  10.519   8.434   1.856
 7310W        W11361   2.358   3.451   3.690
 7311W        W11362   6.714   1.352   3.319
 7312W        W11363   1.561  10.491   0.901
 7313W        W11364   5.453   8.404   0.839
 7314W        W11365   0.368  10.410  11.420
 7315W        W11366   4.994  11.066   2.029
 7316W        W11367   1.057   7.479   1.297
 7317W        W11368   2.045   5.170   1.253
 7318W        W11369   0.469   2.642   0.994
 7319W        W11370   5.656   4.649   2.977
 7320W        W11371   4.495   3.237   9.016
 7321W        W11372   9.879   4.208   0.905
 7322W        W11373   3.863   8.349  11.677
 7323W        W11374   4.233  10.573   1.941
 7324W        W11375   8.850   2.357  11.448
 7325W        W11376   6.222   9.232   0.296
 7326W        W11377   0.292   5.148   0.664
 7327W        W11378   5.684   2.807  10.487
 7328W        W11379   0.446  10.991  10.738
 7329W        W11380   0.475   2.136   9.881
 7330W        W11381   0.506   6.721   2.134
 7331W        W11382  10.415   1.979   9.066
 7332W        W11383   6.884   6.049  11.380
 7333W        W11384   9.046   0.315   1.377
 7334W        W11385   2.707   6.217   0.487
 7335W        W11386  11.368  10.240   0.258
 7336W        W11387   9.070   2.152   2.130
 7337W        W11388   1.182   7.930   2.360
 7338W        W11389   3.314   5.090  11.905
 7339W        W11390   6.490   4.511  10.516
 7340W        W11391   9.271   0.567   0.080
 7341W        W11392   1.764   9.048   9.266
 7342W        W11393   3.337   1.779   8.480
 7343W        W11394  10.037   0.993   0.871
 7344W        W11395   9.979   2.408   0.789
 7345W        W11396   0.686  11.249   9.511
 7346W        W11397   8.691   6.093   8.703
 7347W        W11398   7.912   4.264   9.811
 7348W        W11399   9.002  10.186  11.924
 7349W        W11400   6.960   0.845   9.731
 7350W        W11401   7.956   4.501  10.276
 7351W        W11402   9.629   2.920   8.972
 7352W        W11403  10.398   0.946   2.257
 7353W        W11404  11.345   6.156   9.457
 7354W        W11405   5.830   2.297   1.205
 7355W        W11406   6.533   0.221   2.387
 7356W        W11407   8.260   7.891   9.568
 7357W        W11408   8.056   7.159   0.003
 7358W        W11409   7.952  11.243   1.451
 7359W        W11410   2.789   4.989   0.729
 7360W        W11411   4.947   7.068   9.455
 7361W        W11412   4.683   4.759   2.026
 7362W        W11413   1.784   2.330   0.986
 7363W        W11414   0.312   5.766  10.341
 7364W        W11415   2.860   3.711   0.489
 7365W        W11416   4.993   1.774   8.785
 7366W        W11417  10.690   6.813   9.913
 7367W        W11418   2.258   0.263   0.512
 7368W        W11419   4.160   4.874  10.387
 7369W        W11420   2.014   5.404   0.791
 7370W        W11421   6.057   6.472  10.682
 7371W        W11422   8.745   9.525   0.645
 7372W        W11423   9.967   5.657   2.487
 7373W        W11424  10.346   7.451   0.678
 7374W        W11425   1.475  11.381  10.396
 7375W        W11426  10.697   9.649   0.671
 7376W        W11427   8.621   2.553   1.049
 7377W        W11428   4.284   9.964  11.166
 7378W        W11429   8.757   5.918  10.295
 7379W        W11430   8.429   3.829   0.882
 7380W        W11431   2.096   8.085   0.717
 7381W        W11432  11.153   3.575   3.286
 7382W        W11433   7.530  10.514   2.734
 7383W        W11434   9.024   8.591   2.282
 7384W        W11435   0.965   6.928   2.261
 7385W        W11436   7.627  11.325  11.638
 7386W        W11437  10.396   8.917   1.396
 7387W        W11438   3.765   7.102   1.967
 7388W        W11439   0.559   3.682   1.360
 7389W        W11440   3.539   0.735   9.938
 7390W        W11441   0.568   9.114   2.235
 7391W        W11442  11.408   8.633  10.881
 7392W        W11443   7.244   2.780   2.790
 7393W        W11444   8.725   8.387   1.499
 7394W        W11445   3.683   3.647   9.375
 7395W        W11446   4.716   5.720  11.008
 7396W        W11447   5.328   7.278   9.152
 7397W        W11448   7.410   0.539   2.483
 7398W        W11449   3.219   3.130   9.911
 7399W        W11450   9.719   0.404   3.133
 7400W        W11451   2.421   9.963   3.430
 7401W        W11452   7.814  10.594  10.592
 7402W        W11453   7.202   1.313   3.196
 7403W        W11454   1.382   0.246   1.408
 7404W        W11455   4.476   8.467   1.119
 7405W        W11456   5.737   2.818  11.550
 7406W        W11457   1.145   1.017   0.330
 7407W        W11458   6.564   8.123   1.857
 7408W        W11459   2.828   2.711   0.371
 7409W        W11460   9.487   1.948   9.527
 7410W        W11461   3.578   7.001  11.528
 7411W        W11462   0.755   6.050   9.485
 7412W        W11463  10.250   2.920  11.026
 7413W        W11464   3.578   3.186   9.107
 7414W        W11465   2.179   0.982   3.595
 7415W        W11466   5.488   7.557  11.898
 7416W        W11467  11.324   2.714   0.790
 7417W        W11468   6.541   6.650  10.227
 7418W        W11469   7.427  10.244  10.514
 7419W        W11470   6.075   5.079   1.540
 7420W        W11471   3.592   1.812  11.836
 7421W        W11472   1.812   3.592   0.398
 7422W        W11473   5.071   4.226   1.331
 7423W        W11474   3.250   4.697   2.016
 7424W        W11475   6.104   7.739   3.646
 7425W        W11476   7.557   4.484   9.511
 7426W        W11477   5.407   9.063   0.194
 7427W        W11478  10.810   5.586   1.693
 7428W        W11479   8.595   8.877   2.217
 7429W        W11480   9.313   3.639   1.332
 7430W        W11481   8.228   8.152  11.752
 7431W        W11482   2.421   7.405   1.505
 7432W        W11483   9.077   2.672   9.391
 7433W        W11484   2.352   9.982   8.993
 7434W        W11485   6.764   4.186   0.494
 7435W        W11486   8.902   1.012   0.438
 7436W        W11487   9.905  11.251   0.218
 7437W        W11488   5.931  10.649  11.426
 7438W        W11489   4.271   1.352   0.433
 7439W        W11490  10.012  10.321   9.460
 7440W        W11491   2.861   4.551   0.478
 7441W        W11492   8.629   2.581   1.552
 7442W        W11493   8.686   7.565   1.894
 7443W        W11494   3.842   8.053   3.171
 7444W        W11495   9.959   3.274   2.426
 7445W        W11496   0.405   5.027   8.897
 7446W        W11497   0.349   8.583   2.498
 7447W        W11498   9.379  10.369   1.867
 7448W        W11499  11.105   4.570   0.267
 7449W        W11500   2.148   3.245   0.178
 7450W        W11501   5.238   1.231  11.448
 7451W        W11502   9.715   2.315   3.561
 7452W        W11503   4.664  10.400  11.832
 7453W        W11504   5.639   4.804  10.557
 7454W        W11505   7.168   3.841   3.037
 7455W        W11506   4.311   4.726   9.934
 7456W        W11507   0.482   2.687   9.373
 7457W        W11508   9.614   5.701   2.871
 7458W        W11509  10.046   7.472   3.319
 7459W        W11510   2.044   8.746   8.500
 7460W        W11511   1.778   6.467   1.424
 7461W        W11512   4.028   5.923   1.174
 7462W        W11513   5.141   7.842  11.588
 7463W        W11514   2.188  11.300  10.003
 7464W        W11515   1.982   2.681  11.289
 7465W        W11516   8.594   1.595   1.828
 7466W        W11517   0.146   9.426   9.449
 7467W        W11518  10.024   6.163   0.198
 7468W        W11519   3.654   8.443  10.789
 7469W        W11520   6.347  10.732   0.331
 7470W        W11521  10.345   9.944   1.765
 7471W        W11522   7.640   0.031   1.718
 7472W        W11523   5.113   8.621  10.413
 7473W        W11524   8.157   3.886   0.369
 7474W        W11525   8.904   3.272  11.480
 7475W        W11526   7.647   5.610  11.079
 7476W        W11527   6.717   3.671  11.379
 7477W        W11528   8.155   0.396   9.416
 7478W        W11529   4.622   2.467   3.238
 7479W        W11530  10.053   6.176  10.818
 7480W        W11531   2.369   3.389   8.944
 7481W        W11532   8.459   4.996  10.012
 7482W        W11533  11.485   4.793   8.611
 7483W        W11534   8.576   8.334  10.918
 7484W        W11535   0.766   4.872   3.442
 7485W        W11536  10.190   5.831  11.484
 7486W        W11537   0.494   4.722   2.870
 7487W        W11538   0.359   8.507   3.007
 7488W        W11539   8.424  11.216   1.699
 7489W        W11540   9.006   5.052  11.191
 7490W        W11541   7.851   4.523  11.760
 7491W        W11542   7.517   6.987   3.403
 7492W        W11543   8.947   9.136   2.495
 7493W        W11544   5.110   4.028   9.035
 7494W        W11545   8.958   5.660   2.302
 7495W        W11546  11.235  10.132   1.927
 7496W        W11547   5.015  10.053  10.533
 7497W        W11548   4.663   6.999   1.579
 7498W        W11549   1.701   3.103  11.263
 7499W        W11550   0.859  10.402  10.043
 7500W        W11551   5.996   4.908   2.077
 7501W        W11552   2.267   1.154   0.030
 7502W        W11553   2.693   5.426  10.335
 7503W        W11554  10.957  10.093   3.151
 7504W        W11555   7.199   8.385   3.358
 7505W        W11556  11.490   0.284   0.499
 7506W        W11557   6.389   0.212   9.261
 7507W        W11558   3.756   2.649   1.600
 7508W        W11559   6.958   7.989   3.092
 7509W        W11560   9.859   1.030   8.640
 7510W        W11561   5.243   3.599  11.500
 7511W        W11562   6.438   0.999   1.361
 7512W        W11563   1.995   5.092   2.132
 7513W        W11564   4.468   6.523   1.596
 7514W        W11565   0.856   2.103   3.307
 7515W        W11566   2.795   6.447   9.241
 7516W        W11567   5.023   1.239  11.944
 7517W        W11568   6.915   5.684  11.747
 7518W        W11569   9.988   1.358   9.523
 7519W        W11570   0.797   2.415   2.165
 7520W        W11571   6.489   8.122   3.312
 7521W        W11572   5.043   3.453   3.969
 7522W        W11573   8.321   2.981  10.866
 7523W        W11574   9.419   7.640   0.491
 7524W        W11575   7.449  10.807   3.151
 7525W        W11576   6.452   6.107   1.526
 7526W        W11577   6.098   0.688  11.773
 7527W        W11578   8.131   3.287   0.449
 7528W        W11579   8.537   6.579   2.692
 7529W        W11580  11.295   2.305   1.867
 7530W        W11581   9.086   5.223   0.680
 7531W        W11582   5.527  10.953  11.499
 7532W        W11583   0.279   8.511   0.043
 7533W        W11584   9.530   8.658   0.299
 7534W        W11585   6.455   5.950   9.113
 7535W        W11586   5.277   7.474   8.680
 7536W        W11587   4.234   6.220  10.248
 7537W        W11588   5.132   3.095   3.591
 7538W        W11589   8.280   3.695   1.358
 7539W        W11590   8.407   9.742   2.124
 7540W        W11591   6.198  10.849  11.829
 7541W        W11592   4.290   9.115   0.327
 7542W        W11593   1.244  11.426   1.779
 7543W        W11594   1.762   3.206   8.630
 7544W        W11595   3.762   9.262   1.913
 7545W        W11596   3.118   4.065  10.286
 7546W        W11597   2.658   9.017   9.066
 7547W        W11598   4.095  11.376   9.412
 7548W        W11599   6.379  10.082  11.409
 7549W        W11600   4.680   0.107   2.357
 7550W        W11601   1.272   7.039   2.900
 7551W        W11602   7.644   9.551   1.967
 7552W        W11603   7.382  10.763  10.387
 7553W        W11604  10.354   0.426   2.351
 7554W        W11605   0.038   4.653   2.633
 7555W        W11606   5.420   6.018  11.667
 7556W        W11607   7.346   1.682   9.588
 7557W        W11608   8.164   3.287   1.086
 7558W        W11609   6.144   1.343   1.669
 7559W        W11610   5.275   0.924   0.730
 7560W        W11611   2.552   7.019   9.451
 7561W        W11612   2.974   5.832   3.135
 7562W        W11613   2.669  10.678  10.443
 7563W        W11614   6.246   2.851   9.474
 7564W        W11615   0.478   6.183   0.267
 7565W        W11616   5.012   8.374   9.989
 7566W        W11617   5.789   9.547   0.217
 7567W        W11618   7.918   7.660  10.861
 7568W        W11619   2.585   4.232   8.914
 7569W        W11620   8.600  11.302   0.673
 7570W        W11621   3.097   5.882   0.401
 7571W        W11622   2.508  10.365   2.032
 7572W        W11623   9.970   4.185  11.538
 7573W        W11624   6.734   8.549   3.172
 7574W        W11625  11.275   1.741  10.291
 7575W        W11626   0.801  11.020   2.406
 7576W        W11627   6.987  10.949  10.123
 7577W        W11628   6.635   4.280  10.084
 7578W        W11629  10.257   4.600  10.407
 7579W        W11630   8.139   4.800   2.674
 7580W        W11631   1.295   7.548   2.677
 7581W        W11632   9.848   4.284  10.585
 7582W        W11633   2.820   3.722  10.976
 7583W        W11634   0.484   5.058   1.145
 7584W        W11635   9.032   6.852  10.448
 7585W        W11636   9.016   3.165   9.579
 7586W        W11637   9.307   4.091  11.993
 7587W        W11638  11.258   4.231  11.683
 7588W        W11639   5.028   3.797   9.614
 7589W        W11640   4.048   2.058   0.868
 7590W        W11641   8.966   7.865   0.343
 7591W        W11642   3.454   5.234  10.878
 7592W        W11643   7.411   3.245   0.397
 7593W        W11644   2.210   7.663   1.905
 7594W        W11645   3.910   1.716   0.444
 7595W        W11646   4.226   6.694  10.851
 7596W        W11647   3.596   6.580   1.729
 7597W        W11648  10.621   9.556   2.336
 7598W        W11649   9.606   6.441  11.668
 7599W        W11650   6.152   4.443   3.172
 7600W        W11651   9.446   7.018   2.784
 7601W        W11652   0.370  10.208   0.445
 7602W        W11653   2.276   7.941   0.270
 7603W        W11654   9.136   6.867   8.641
 7604W        W11655  10.774   1.977  10.970
 7605W        W11656   2.801   3.292  11.287
 7606W        W11657   5.981  10.462   3.165
 7607W        W11658   2.261   8.087   2.939
 7608W        W11659   1.311   1.810   2.785
 7609W        W11660   2.878   5.982   9.026
 7610W        W11661  10.964   3.552   0.431
 7611W        W11662   9.532   4.789   2.761
 7612W        W11663  10.916   4.146   8.500
 7613W        W11664   2.707  11.351  10.807
 7614W        W11665   4.703   8.454   9.582
 7615W        W11666   1.672   6.747  11.486
 7616W        W11667   9.795   5.669   3.370
 7617W        W11668   6.647   2.888   0.190
 7618W        W11669   7.390   4.570   0.006
 7619W        W11670  10.099   3.564  10.406
 7620W        W11671   6.103  10.872   1.440
 7621W        W11672   8.832   5.086   9.317
 7622W        W11673   9.938   0.743   2.223
 7623W        W11674  11.228   9.912  11.872
 7624W        W11675   7.703   3.216   2.478
 7625W        W11676   8.891   8.011   1.798
 7626W        W11677   8.237   8.606   9.051
 7627W        W11678   6.900  10.214   0.980
 7628W        W11679  10.292   4.150  11.926
 7629W        W11680   3.415   2.855  11.072
 7630W        W11681  10.984   9.950   9.049
 7631W        W11682   3.677  11.282   9.071
 7632W        W11683   8.510   5.072  11.373
 7633W        W11684   3.353   7.518   1.532
 7634W        W11685   5.057   8.684   2.440
 7635W        W11686   9.285   9.618   9.443
 7636W        W11687   2.477   9.116  10.898
 7637W        W11688   4.273   4.837  11.250
 7638W        W11689  11.340   7.209   3.616
 7639W        W11690   2.847   2.166   9.006
 7640W        W11691   0.283   0.352  11.258
 7641W        W11692  11.265   3.395   9.568
 7642W        W11693   5.600   2.352   8.720
 7643W        W11694  10.345   7.552  10.732
 7644W        W11695   1.318  10.930   1.776
 7645W        W11696   7.625   3.604   9.425
 7646W        W11697  10.953  10.570   3.439
 7647W        W11698   5.917   0.951   1.371
 7648W        W11699  11.332   9.854  10.437
 7649W        W11700   5.147   4.055   2.735
 7650W        W11701   6.576   0.679   0.915
 7651W        W11702   9.306   0.272  10.845
 7652W        W11703   6.132   1.887   1.283
 7653W        W11704   3.320   4.513   2.940
 7654W        W11705   7.614   7.586  11.337
 7655W        W11706  10.757  10.870   9.494
 7656W        W11707   4.368   9.091   9.770
 7657W        W11708   5.398   3.232  10.273
 7658W        W11709   4.376   1.810   1.234
 7659W        W11710  11.333   1.900   0.700
 7660W        W11711   1.257   8.826   3.293
 7661W        W11712   8.820   4.627  10.004
 7662W        W11713   0.503   7.938   0.244
 7663W        W11714   7.634   5.848   1.318
 7664W        W11715   5.157   7.579   2.732
 7665W        W11716   3.842   7.931   0.005
 7666W        W11717   3.147   4.979  10.512
 7667W        W11718   4.677   3.536   1.879
 7668W        W11719   0.103   3.603   3.565
 7669W        W11720   5.388   4.151   1.713
 7670W        W11721   5.677   7.604   0.384
 7671W        W11722   7.054  10.875   9.530
 7672W        W11723   1.631   8.505  11.910
 7673W        W11724  10.391   8.635   8.475
 7674W        W11725   8.357   5.074   9.522
 7675W        W11726   7.182   6.091  11.856
 7676W        W11727   6.187   4.428   2.200
 7677W        W11728   6.963   3.255  11.560
 7678W        W11729   0.499   0.277   9.618
 7679W        W11730   8.102   4.969   8.250
 7680W        W11731   3.210   7.600  11.588
 7681W        W11732   4.980   0.765  10.268
 7682W        W11733   1.800   5.670  10.333
 7683W        W11734   8.902   5.079   8.815
 7684W        W11735  11.355  11.003   2.807
 7685W        W11736   4.408   8.116   2.658
 7686W        W11737   1.398   3.811   0.692
 7687W        W11738   7.880  10.761  11.072
 7688W        W11739   5.516   5.143   3.068
 7689W        W11740   1.348   7.188   8.972
 7690W        W11741   9.857   6.043   9.409
 7691W        W11742   7.359   4.356   8.741
 7692W        W11743   5.575   3.113   8.411
 7693W        W11744   0.877   2.493   3.730
 7694W        W11745   5.004   1.506   3.484
 7695W        W11746   6.545   4.058   2.261
 7696W        W11747   8.346   2.929   0.786
 7697W        W11748   3.200   9.374   3.153
 7698W        W11749   8.649   4.883   3.000
 7699W        W11750   4.096   3.715   2.689
 7700W        W11751  11.087  10.569  10.310
 7701W        W11752   8.187   9.809  10.927
 7702W        W11753   2.430  10.429   0.385
 7703W        W11754   7.933   8.949   0.112
 7704W        W11755   4.076   3.729   9.703
 7705W        W11756   1.176   7.431  10.356
 7706W        W11757   2.633   0.553   1.187
 7707W        W11758   9.959   4.987  11.254
 7708W        W11759   6.118  11.322   9.995
 7709W        W11760   7.472   2.218   9.611
 7710W        W11761   7.181   0.656   1.730
 7711W        W11762  11.458  11.066  11.102
 7712W        W11763   5.640   0.059   2.730
 7713W        W11764   5.174   5.043   1.531
 7714W        W11765   6.065   2.642   0.001
 7715W        W11766   0.535  11.483  10.517
 7716W        W11767   3.122   0.764  10.534
 7717W        W11768   7.089  10.677   1.197
 7718W        W11769   4.282   4.073  11.673
 7719W        W11770  11.458   9.359   9.936
 7720W        W11771   0.236   8.371   0.576
 7721W        W11772   2.391   2.954   0.543
 7722W        W11773   4.786   2.403  10.548
 7723W        W11774   0.402   4.311   2.221
 7724W        W11775   7.045   8.036   2.548
 7725W        W11776   5.727  10.075   2.954
 7726W        W11777   6.503   1.610   9.419
 7727W        W11778   1.445  10.799   9.858
 7728W        W11779   1.171   2.176   2.425
 7729W        W11780   0.985   6.254   9.937
 7730W        W11781  10.893   3.846  11.454
 7731W        W11782   4.743   8.783   3.244
 7732W        W11783   6.427   2.289   3.606
 7733W        W11784  10.648   1.230   0.931
 7734W        W11785   6.450   3.142   0.779
 7735W        W11786   5.578   7.313   9.970
 7736W        W11787   4.149   8.676   0.008
 7737W        W11788   2.203  10.495  10.523
 7738W        W11789  10.523   3.121   1.159
 7739W        W11790   1.094   2.715  11.866
 7740W        W11791  10.298   5.592   3.457
 7741W        W11792   5.171   5.635  10.059
 7742W        W11793   9.864   3.137  10.100
 7743W        W11794   5.250   2.090   9.067
 7744W        W11795   0.114   0.961   9.138
 7745W        W11796  10.023   6.451   9.064
 7746W        W11797  11.360   6.659   9.360
 7747W        W11798   2.566   4.561   3.417
 7748W        W11799   9.910   0.688   1.283
 7749W        W11800   6.934   7.910   8.955
 7750W        W11801   2.671   3.844   3.522
 7751W        W11802   2.059   9.314   0.801
 7752W        W11803   0.166   4.320  10.254
 7753W        W11804   0.525  11.294   3.299
 7754W        W11805   0.733   2.585   3.239
 7755W        W11806   5.298   0.861   1.959
 7756W        W11807   8.089  10.509   3.088
 7757W        W11808   5.165   7.542   1.797
 7758W        W11809  10.366  10.888  10.079
 7759W        W11810   1.813   0.193   0.204
 7760W        W11811   5.023   7.354  11.841
 7761W        W11812  10.828   9.258   8.396
 7762W        W11813   1.297   4.788   1.689
 7763W        W11814   8.337   4.500   9.946
 7764W        W11815   1.846   5.367  11.948
 7765W        W11816  11.001   5.521   2.695
 7766W        W11817   8.563  11.324  10.707
 7767W        W11818   2.259   0.324   2.461
 7768W        W11819   9.873   8.480  10.831
 7769W        W11820   8.333   7.653   0.906
 7770W        W11821   5.530   9.204   1.875
 7771W        W11822  10.233   6.046   1.686
 7772W        W11823   9.771   8.851  10.328
 7773W        W11824   0.434   3.583  10.607
 7774W        W11825   0.381   6.572   0.579
 7775W        W11826   5.525   0.378   2.338
 7776W        W11827  10.875   7.314   9.854
 7777W        W11828   4.474   2.828   2.407
 7778W        W11829   2.256   6.548   0.643
 7779W        W11830   5.829   8.061  10.254
 7780W        W11831   1.973   3.232   1.429
 7781W        W11832   6.899   2.105   3.547
 7782W        W11833   3.100   1.794   1.726
 7783W        W11834   6.501   3.500   3.695
 7784W        W11835   1.701   8.420  10.977
 7785W        W11836   4.062   5.698  11.332
 7786W        W11837   2.168   1.337   2.470
 7787W        W11838   8.254   1.443   9.521
 7788W        W11839  11.073   9.042  10.045
 7789W        W11840  10.630  10.445  10.130
 7790W        W11841  10.953   3.785   9.319
 7791W        W11842  11.380   3.574   9.097
 7792W        W11843   2.786   7.345   0.752
 7793W        W11844   7.453   8.095   2.988
 7794W        W11845   3.306  11.110   3.117
 7795W        W11846   0.415   7.047   0.791
 7796W        W11847   0.883   0.326   0.805
 7797W        W11848   9.660  10.378   9.838
 7798W        W11849   8.649   3.525   2.617
 7799W        W11850   0.484   8.357  10.492
 7800W        W11851   5.637   9.158  11.240
 7801W        W11852   3.114   1.646  11.811
 7802W        W11853   9.688  10.088   0.422
 7803W        W11854   3.506   6.695  10.320
 7804W        W11855   6.914   4.075   8.934
 7805W        W11856   1.335   5.473   0.053
 7806W        W11857   5.855   0.277  11.585
 7807W        W11858   9.564  10.770   1.553
 7808W        W11859   5.228   2.733   9.468
 7809W        W11860   8.469   8.537  10.072
 7810W        W11861   7.741   4.886   3.575
 7811W        W11862   1.361   2.844   1.403
 7812W        W11863  10.635  11.051  11.437
 7813W        W11864  10.302  11.458   8.848
 7814W        W11865   8.019   7.398   9.545
 7815W        W11866  11.292   1.823   0.184
 7816W        W11867   8.021   5.499   1.255
 7817W        W11868   9.586   7.443   3.032
 7818W        W11869   5.484  11.157   0.808
 7819W        W11870   7.427   4.781  11.545
 7820W        W11871   7.639   2.864  11.327
 7821W        W11872   3.942   8.968   3.643
 7822W        W11873   4.746   2.887   9.590
 7823W        W11874   8.970   3.779   0.219
 7824W        W11875   0.840   4.780  11.950
 7825W        W11876   6.210   1.279   3.242
 7826W        W11877  10.528   2.294   0.782
 7827W        W11878  10.120  10.461   3.217
 7828W        W11879   0.684  11.297  10.022
 7829W        W11880   4.773   4.184   2.434
 7830W        W11881  10.311   9.328   0.474
 7831W        W11882   8.084   6.343   3.710
 7832W        W11883   6.770   9.121   2.892
 7833W        W11884   1.481  11.248   1.343
 7834W        W11885   5.329   5.182  10.701
 7835W        W11886   0.010   1.239   2.353
 7836W        W11887   8.504   7.690  10.281
 7837W        W11888   3.377   3.785  11.055
 7838W        W11889   0.606   5.445   8.658
 7839W        W11890   6.830   9.886   2.741
 7840W        W11891   0.640   8.086  10.898
 7841W        W11892   5.926   6.085   1.380
 7842W        W11893   8.590   4.109   8.741
 7843W        W11894   9.651   9.889   2.219
 7844W        W11895   8.670   5.476  10.065
 7845W        W11896   9.120   2.783  10.830
 7846W        W11897   8.050   5.373  10.787
 7847W        W11898  10.406   2.482   9.146
 7848W        W11899   2.690   2.008   9.763
 7849W        W11900   1.102   1.411  11.557
 7850W        W11901   3.598  10.763   8.999
 7851W        W11902   6.362   0.315   1.860
 7852W        W11903   7.082  10.408  10.871
 7853W        W11904   0.755   2.306  11.807
 7854W        W11905   7.951   6.914   0.435
 7855W        W11906  10.008   0.503   0.743
 7856W        W11907   7.056   7.013   3.153
 7857W        W11908   0.361   6.500  10.965
 7858W        W11909   4.069   6.706   8.979
 7859W        W11910   3.352   0.380   8.887
 7860W        W11911   8.175   5.616   3.186
 7861W        W11912   0.011   7.904   0.447
 7862W        W11913   2.304   3.308   9.969
 7863W        W11914   7.482   0.759   9.733
 7864W        W11915   9.152   1.230   1.661
 7865W        W11916  11.350   2.135  11.158
 7866W        W11917   5.653   6.527  11.032
 7867W        W11918   4.938   6.771  11.770
 7868W        W11919   5.625   9.016   1.418
 7869W        W11920   6.994   8.334  11.266
 7870W        W11921   0.570   4.060  10.404
 7871W        W11922   2.587   4.693   9.922
 7872W        W11923   8.650   1.183   3.576
 7873W        W11924   3.724   8.865  10.494
 7874W        W11925   9.025   0.299  10.011
 7875W        W11926   5.870   2.185   0.268
 7876W        W11927   2.488   6.561  10.479
 7877W        W11928   5.866   0.086  10.442
 7878W        W11929   0.326   9.901   9.658
 7879W        W11930   0.861   2.301   8.956
 7880W        W11931  11.477   3.632  10.900
 7881W        W11932   5.644   2.425   2.184
 7882W        W11933   5.959   3.162  10.762
 7883W        W11934   9.412  10.151  11.562
 7884W        W11935   9.912   8.242  11.301
 7885W        W11936   0.398   0.787   9.531
 7886W        W11937   4.672   9.039   2.273
 7887W        W11938   2.298   3.765  10.765
 7888W        W11939   7.751   1.035  10.494
 7889W        W11940  10.893  10.495  10.918
 7890W        W11941   0.198   9.962   1.773
 7891W        W11942   7.945   5.994   0.499
 7892W        W11943   3.118  10.512   9.076
 7893W        W11944  10.157   3.274   0.842
 7894W        W11945   3.320  10.990   9.388
 7895W        W11946   4.500   1.896   9.622
 7896W        W11947  10.962   5.901  10.772
 7897W        W11948   5.349   8.526   3.582
 7898W        W11949   0.500   2.714  11.055
 7899W        W11950   5.578   2.854   8.871
 7900W        W11951  10.237   0.830  11.603
 7901W        W11952  10.545   1.492   8.944
 7902W        W11953   8.186   5.081   1.872
 7903W        W11954   6.010   8.102  11.471
 7904W        W11955   7.599   9.399   9.998
 7905W        W11956   6.715   3.129   1.961
 7906W        W11957  10.694   3.600   3.514
 7907W        W11958   9.616   1.966  10.037
 7908W        W11959   8.895   0.017  11.023
 7909W        W11960   9.576   3.130   3.000
 7910W        W11961   4.022   9.458   8.556
 7911W        W11962   4.352   1.809   0.208
 7912W        W11963  10.409  11.073  10.555
 7913W        W11964   7.663   7.674   2.777
 7914W        W11965   6.344   6.113  11.474
 7915W        W11966   7.630   7.051   9.696
 7916W        W11967   3.578   6.615   1.219
 7917W        W11968  10.971   7.684   9.482
 7918W        W11969   8.609   2.811  11.534
 7919W        W11970   8.875  11.282   9.098
 7920W        W11971  10.286   4.594  11.367
 7921W        W11972   5.347   3.224   3.126
 7922W        W11973   8.906  11.383   1.724
 7923W        W11974   4.051   6.828   1.632
 7924W        W11975   9.798   6.185  11.263
 7925W        W11976   4.138   1.106   3.153
 7926W        W11977   4.094   9.106  11.743
 7927W        W11978   3.772   9.743   0.718
 7928W        W11979  10.972   2.404   9.708
 7929W        W11980   9.280   8.508   8.994
 7930W        W11981  10.042   7.163  11.528
 7931W        W11982   5.273   9.850  10.957
 7932W        W11983   2.637   4.914   0.218
 7933W        W11984   9.524  10.324  10.730
 7934W        W11985   6.581   7.203   4.027
 7935W        W11986   5.923   8.368  10.880
 7936W        W11987   1.321   4.212   3.186
 7937W        W11988   1.714   0.636   2.592
 7938W        W11989   8.659   1.206  10.290
 7939W        W11990   4.268   6.016   2.174
 7940W        W11991   3.302   9.571  10.591
 7941W        W11992  10.992   4.294   1.990
 7942W        W11993   8.981   0.778   3.493
 7943W        W11994   9.722   5.115   9.145
 7944W        W11995   6.700   1.785   1.931
 7945W        W11996   9.123   1.197   2.715
 7946W        W11997   2.760   8.074   0.357
 7947W        W11998   1.279   7.158   0.912
 7948W        W11999   4.936  10.728   8.559
 7949W        W12000  11.288   5.707   0.223
 7950W        W12001   1.282   2.235  11.714
 7951W        W12002   5.333   8.261   8.229
 7952W        W12003   5.773   9.106   2.822
 7953W        W12004   9.328   7.245  11.218
 7954W        W12005   3.503   4.584   9.530
 7955W        W12006  10.993   5.326   9.394
 7956W        W12007  11.366   6.807   8.864
 7957W        W12008   9.161  10.880  11.278
 7958W        W12009  10.576  10.943   0.865
 7959W        W12010  10.562   6.316   9.926
 7960W        W12011  10.422   8.849   0.587
 7961W        W12012   6.609   7.684   3.573
 7962W        W12013   5.034  10.969   1.015
 7963W        W12014   2.279   4.190   0.985
 7964W        W12015   8.140   3.301   2.143
 7965W        W12016  10.136   2.374  11.804
 7966W        W12017   9.093   1.250  10.563
 7967W        W12018   9.025   0.284   9.095
 7968W        W12019   4.695   7.477   2.494
 7969W        W12020   3.348  10.718   2.740
 7970W        W12021   7.550   1.897   1.505
 7971W        W12022   5.758  11.363  11.296
 7972W        W12023   5.643   2.297  10.249
 7973W        W12024   9.893   7.010  10.524
 7974W        W12025   5.916   3.266   9.406
 7975W        W12026   8.874   7.550   2.412
 7976W        W12027   9.403   7.171   1.311
 7977W        W12028   2.147   0.444   2.969
 7978W        W12029   2.813   1.558   1.333
 7979W        W12030   2.328   4.732   9.430
 7980W        W12031   9.181   8.290   9.423
 7981W        W12032   4.122   4.309   3.144
 7982W        W12033   9.549  11.334  10.755
 7983W        W12034   7.966   4.890   9.892
 7984W        W12035   1.270   6.480  10.763
 7985W        W12036   7.902   4.780   0.189
 7986W        W12037   2.042   7.095   1.356
 7987W        W12038   1.025   2.469  10.314
 7988W        W12039   0.840   0.906   2.696
 7989W        W12040   6.129   1.974   0.749
 7990W        W12041   2.732   6.094   2.310
 7991W        W12042  10.475   5.687   2.372
 7992W        W12043   9.931  10.431   0.730
 7993W        W12044   7.470   8.562  11.333
 7994W        W12045   4.478   2.513   1.956
 7995W        W12046  11.213   0.007   1.756
 7996W        W12047   9.557   0.990   9.080
 7997W        W12048   8.889   0.425   0.886
 7998W        W12049   1.370   6.132   1.445
 7999W        W12050   2.260   8.997   9.447
 8000W        W12051  10.516   8.118   0.962
 8001W        W12052   9.402  11.369   0.212
 8002W        W12053   6.600  10.432   1.991
 8003W        W12054   0.364   3.999  11.399
 8004W        W12055  10.309   5.500   7.853
 8005W        W12056  11.323   0.625   9.387
 8006W        W12057   1.805   7.204  11.291
 8007W        W12058   8.693   5.139   1.796
 8008W        W12059  10.060   5.532  10.159
 8009W        W12060   2.223   5.648   1.701
 8010W        W12061   3.892   4.598   4.036
 8011W        W12062   0.718   9.867   1.774
 8012W        W12063   9.319   6.733   1.558
 8013W        W12064   8.148   4.338  10.962
 8014W        W12065   6.008   5.347   3.074
 8015W        W12066   9.870   8.961   1.366
 8016W        W12067  10.122   0.804  11.079
 8017W        W12068   2.397   6.136   9.968
 8018W        W12069   6.072  10.298  11.762
 8019W        W12070   7.659   7.107  10.205
 8020W        W12071   9.384   0.847   3.031
 8021W        W12072   6.427   2.422   9.754
 8022W        W12073   7.624  10.378   2.198
 8023W        W12074   9.059   8.797   9.361
 8024W        W12075   8.627   3.352   0.842
 8025W        W12076   3.583   6.047  11.157
 8026W        W12077   7.061   2.757   3.271
 8027W        W12078   7.905   9.407   1.322
 8028W        W12079   0.324  10.023   2.708
 8029W        W12080   8.256  10.342   3.560
 8030W        W12081   1.810   1.160  10.831
 8031W        W12082   1.782   0.850  10.407
 8032W        W12083   5.129   4.446   8.734
 8033W        W12084   8.855  10.345   2.704
 8034W        W12085   0.819   6.252   3.435
 8035W        W12086   7.479   8.827  11.874
 8036W        W12087   5.980   2.042   3.682
 8037W        W12088   4.219  10.045   9.695
 8038W        W12089  11.321   0.773   0.471
 8039W        W12090   1.813   5.992   1.686
 8040W        W12091   6.379   2.860  10.777
 8041W        W12092   1.727   0.973   1.051
 8042W        W12093   0.361   7.207  10.292
 8043W        W12094   0.825   9.841   2.549
 8044W        W12095   8.417   5.527   0.272
 8045W        W12096   0.792   5.081   0.735
 8046W        W12097   6.399  10.350   2.881
 8047W        W12098   1.754   5.002   3.591
 8048W        W12099  11.127   2.629   3.525
 8049W        W12100   7.881   4.105  10.590
 8050W        W12101   9.312   5.332   8.622
 8051W        W12102   1.152   4.032   8.978
 8052W        W12103   9.461   5.629   2.361
 8053W        W12104   6.071  11.344  11.715
 8054W        W12105   0.869   6.856   0.937
 8055W        W12106   6.053   1.188  11.753
 8056W        W12107   8.191   1.420  10.439
 8057W        W12108   4.764   1.494   0.452
 8058W        W12109   3.704   2.138  10.584
 8059W        W12110   6.991   3.151   1.476
 8060W        W12111  11.005   2.319   3.100
 8061W        W12112   1.327   0.322  11.706
 8062W        W12113   0.879   4.263   0.130
 8063W        W12114   7.512   3.097   9.976
 8064W        W12115   9.853   7.194   9.465
 8065W        W12116  10.550   3.316  10.452
 8066W        W12117   0.812   7.507   0.304
 8067W        W12118   6.870   0.261   1.797
 8068W        W12119  11.052   8.100   2.172
 8069W        W12120   4.834   4.641   9.913
 8070W        W12121   4.313   1.287  11.498
 8071W        W12122  10.451   1.859  10.070
 8072W        W12123   1.178   7.054   3.446
 8073W        W12124   9.853   4.709  11.685
 8074W        W12125   3.129  10.505  11.640
 8075W        W12126   0.044   3.814  11.842
 8076W        W12127   3.817   6.623   3.812
 8077W        W12128   8.609   4.618   0.488
 8078W        W12129   1.893   1.781  11.482
 8079W        W12130   0.002  11.257   0.491
 8080W        W12131   1.241   3.254  10.870
 8081W        W12132   7.919   0.738  11.940
 8082W        W12133   9.606   7.670   9.461
 8083W        W12134   9.260   4.335   2.073
 8084W        W12135   6.092   1.295   9.505
 8085W        W12136   8.748   7.112   0.759
 8086W        W12137   4.936   1.217  11.025
 8087W        W12138   8.234   4.333   9.057
 8088W        W12139   8.890   0.336  10.540
 8089W        W12140   1.933  10.372  10.036
 8090W        W12141   5.489  10.542  11.197
 8091W        W12142   9.007   7.352   0.384
 8092W        W12143   8.261   9.549   0.517
 8093W        W12144   8.950   1.676  10.296
 8094W        W12145   0.386   5.112  11.232
 8095W        W12146   6.647  10.764   2.723
 8096W        W12147   6.012   5.490   0.223
 8097W        W12148   2.307   1.455   1.472
 8098W        W12149   0.782   2.779   0.287
 8099W        W12150   5.935   3.673   9.784
 8100W        W12151   3.588   5.071   2.775
 8101W        W12152   9.509   2.446   9.205
 8102W        W12153  11.376   7.125   2.637
 8103W        W12154   7.542   0.090  10.762
 8104W        W12155   0.284   1.755   2.790
 8105W        W12156   8.892   1.636   3.443
 8106W        W12157   7.052   1.162   1.666
 8107W        W12158   8.295   6.194   2.426
 8108W        W12159   6.953   8.562   0.058
 8109W        W12160  10.471  10.568  10.587
 8110W        W12161   9.153  10.344   9.893
 8111W        W12162   1.526   5.124   1.205
 8112W        W12163   6.856   5.923  10.881
 8113W        W12164   6.907   4.188  10.495
 8114W        W12165   1.866   2.654  10.399
 8115W        W12166   4.639   2.695  10.152
 8116W        W12167   6.493  10.002  10.488
 8117W        W12168   2.450   0.318   9.950
 8118W        W12169   3.751  10.281   3.397
 8119W        W12170   3.044   9.290   0.777
 8120W        W12171  11.096   0.748  10.450
 8121W        W12172   0.452   5.287   1.973
 8122W        W12173   3.583   5.766  10.301
 8123W        W12174   1.723   5.544   3.538
 8124W        W12175   5.227   2.122  10.569
 8125W        W12176   0.202   8.972  11.147
 8126W        W12177   8.122   7.371  10.429
 8127W        W12178   5.828   0.027   1.796
 8128W        W12179   5.968   0.782   9.810
 8129W        W12180   2.362   1.197  10.832
 8130W        W12181   1.736   3.860  11.881
 8131W        W12182   4.612   9.935   0.522
 8132W        W12183   9.405   3.318  10.269
 8133W        W12184   3.663   6.101   1.501
 8134W        W12185   2.928  11.053   0.570
 8135W        W12186   2.693   7.449  10.725
 8136W        W12187   6.048   1.764   3.246
 8137W        W12188   6.135   1.822   8.589
 8138W        W12189   2.026  10.497   2.337
 8139W        W12190   9.358  10.000   3.427
 8140W        W12191  10.447   9.923   9.089
 8141W        W12192   5.679   2.359  11.799
 8142W        W12193   6.768  10.387   0.205
 8143W        W12194   3.058   4.248   3.305
 8144W        W12195   9.996  11.031   1.778
 8145W        W12196   7.340   0.263   2.038
 8146W        W12197   7.767   6.233  11.042
 8147W        W12198   4.275   8.169  11.882
 8148W        W12199   6.403  11.280   9.553
 8149W        W12200   3.179   5.577   9.987
 8150W        W12201   5.376  10.277   9.267
 8151W        W12202   5.754   8.004   0.671
 8152W        W12203   0.617   6.638  10.019
 8153W        W12204   2.807   7.510   8.850
 8154W        W12205   2.102  10.486  11.569
 8155W        W12206   1.530   2.238   9.705
 8156W        W12207   1.460   3.848  10.192
 8157W        W12208   3.775   4.941   9.869
 8158W        W12209   7.998   3.550   0.001
 8159W        W12210   5.429  11.081   2.618
 8160W        W12211   7.913   6.738  11.025
 8161W        W12212   6.641  11.317   9.992
 8162W        W12213   8.375   6.222   1.915
 8163W        W12214  10.417   3.001   8.544
 8164W        W12215  10.793   5.763   9.592
 8165W        W12216  10.415   3.106   1.673
 8166W        W12217   7.757   3.162   0.776
 8167W        W12218   5.160   7.007   0.787
 8168W        W12219   0.449   9.854   9.167
 8169W        W12220   5.102   0.326   2.656
 8170W        W12221   1.781   1.849   3.532
 8171W        W12222   6.044   4.768  11.244
 8172W        W12223   3.734   9.318  10.750
 8173W        W12224   1.244   4.964  11.247
 8174W        W12225   9.839  11.210   2.247
 8175W        W12226   5.332  10.802   9.482
 8176W        W12227   9.873   9.945   0.880
 8177W        W12228   7.593  11.033   1.786
 8178W        W12229   3.798   0.870   2.206
 8179W        W12230   4.138   9.579   1.748
 8180W        W12231   4.027  10.510   8.781
 8181W        W12232   5.837  11.309   1.302
 8182W        W12233  10.113   0.868   1.734
 8183W        W12234   1.050   0.033   0.053
 8184W        W12235  11.468  10.412   0.706
 8185W        W12236   2.332   5.427  11.548
 8186W        W12237  10.440   9.956  10.112
 8187W        W12238   0.971  10.878  10.778
 8188W        W12239  10.446   8.658   9.631
 8189W        W12240   4.283   3.157   1.233
 8190W        W12241   9.067   6.050  10.900
 8191W        W12242   9.404   4.867   8.811
 8192W        W12243  11.026   7.801   9.988
 8193W        W12244   8.966   4.140   8.382
 8194W        W12245   1.316   6.606   1.654
 8195W        W12246   6.036   8.374   9.885
 8196W        W12247   9.110   4.639   9.599
 8197W        W12248   8.172   2.780   9.454
 8198W        W12249   7.732   3.006   1.266
 8199W        W12250   3.318   1.428   1.450
 8200W        W12251   6.997   9.185   9.584
 8201W        W12252   0.811   9.071   8.709
 8202W        W12253   6.155   8.712   0.383
 8203W        W12254   1.473  10.961  10.717
 8204W        W12255   1.782   3.722   2.092
 8205W        W12256   4.854   3.327   3.193
 8206W        W12257  11.451   9.332   2.277
 8207W        W12258   2.675  11.472   0.701
 8208W        W12259   1.419   8.067   0.570
 8209W        W12260   6.857   3.508   2.733
 8210W        W12261   5.665   2.223   0.742
 8211W        W12262   9.813   4.270   9.538
 8212W        W12263   3.311   6.268  11.550
 8213W        W12264   4.003   2.259  10.969
 8214W        W12265   9.371   3.609   0.505
 8215W        W12266   7.486   7.122  11.121
 8216W        W12267   2.089   9.588   2.562
 8217W        W12268   2.947   7.950   8.600
 8218W        W12269   6.663   5.295  11.566
 8219W        W12270  10.904   8.997  11.513
 8220W        W12271   2.679   3.705   2.549
 8221W        W12272   5.031   9.300   1.033
 8222W        W12273   4.553   6.405   8.288
 8223W        W12274  10.100   3.263  11.393
 8224W        W12275   7.918   2.666   0.804
 8225W        W12276   9.426   9.685  11.336
 8226W        W12277  10.428   1.911   0.240
 8227W        W12278   9.643   3.779  10.380
 8228W        W12279   8.398   3.247  11.390
 8229W        W12280  10.889   1.833   1.327
 8230W        W12281   2.519   6.168  11.913
 8231W        W12282   4.266   8.783   2.102
 8232W        W12283   0.373   4.555   1.210
 8233W        W12284   0.726   7.667  11.818
 8234W        W12285   4.546   0.255   2.828
 8235W        W12286   9.075   5.916   1.415
 8236W        W12287   0.422  10.367   3.220
 8237W        W12288   0.713   2.806   8.925
 8238W        W12289   9.114   0.756   8.873
 8239W        W12290   5.326   8.418   2.104
 8240W        W12291  10.290   2.706   1.963
 8241W        W12292  10.477  10.583   0.067
 8242W        W12293   4.966   6.729   8.694
 8243W        W12294   1.263   9.286  10.547
 8244W        W12295   2.632   6.059   2.813
 8245W        W12296   6.355   4.078   1.805
 8246W        W12297   1.646   0.360  10.429
 8247W        W12298   9.592   4.659   1.861
 8248W        W12299   5.731   0.461  10.138
 8249W        W12300   7.112   0.003   0.902
 8250W        W12301   1.492   6.566  10.301
 8251W        W12302   5.934   2.094   9.047
 8252W        W12303   9.026   2.934  11.827
 8253W        W12304   4.335   8.572   1.624
 8254W        W12305  10.369   0.967   0.489
 8255W        W12306   3.142   0.942   3.496
 8256W        W12307   4.391   3.594  11.938
 8257W        W12308   3.679   4.106  11.395
 8258W        W12309   0.199  10.347  11.899
 8259W        W12310   8.494  11.434  11.714
 8260W        W12311   6.476   4.814   1.361
 8261W        W12312   2.414   0.297  10.847
 8262W        W12313  10.553   6.565   3.478
 8263W        W12314   1.539   5.071   0.297
 8264W        W12315  11.005   7.991   1.234
 8265W        W12316   2.665   0.968   2.720
 8266W        W12317   6.586   1.076   2.906
 8267W        W12318   5.557   7.600  10.406
 8268W        W12319   8.365   5.721  10.553
 8269W        W12320   9.423   9.141   9.423
 8270W        W12321   5.218   4.267   9.952
 8271W        W12322   4.100   0.972   0.716
 8272W        W12323  10.622   5.158  10.367
 8273W        W12324  10.440  11.460   0.237
 8274W        W12325   9.002   0.810  10.302
 8275W        W12326   2.267   6.159   0.964
 8276W        W12327   1.834   4.105  11.430
 8277W        W12328   6.962   7.482   2.296
 8278W        W12329   1.066   7.523   9.853
 8279W        W12330   2.618   6.908  11.695
 8280W        W12331   3.074   6.307   2.885
 8281W        W12332  11.025  10.830   1.212
 8282W        W12333   9.849   3.679   9.033
 8283W        W12334   8.769   6.362  11.222
 8284W        W12335   6.034   4.163   1.428
 8285W        W12336   0.337   6.022   3.601
 8286W        W12337   5.013   2.190  11.047
 8287W        W12338  10.777   0.381  10.303
 8288W        W12339   8.317   5.797   8.895
 8289W        W12340   4.799   4.877  11.486
 8290W        W12341   4.650   7.485   1.387
 8291W        W12342   2.246   4.169  11.090
 8292W        W12343   7.246   5.061   0.275
 8293W        W12344   9.363   7.241   9.303
 8294W        W12345   6.863  10.061   8.625
 8295W        W12346   7.111   2.881  11.259
 8296W        W12347   1.870   0.055   1.463
 8297W        W12348   9.643  11.199   0.662
 8298W        W12349   4.421   7.035  11.308
 8299W        W12350   8.912   5.609   0.393
 8300W        W12351  11.255   6.232   0.982
 8301W        W12352   5.523   8.886  11.655
 8302W        W12353   7.460   5.272  11.427
 8303W        W12354   7.399   9.290  10.959
 8304W        W12355   1.016   9.069   0.914
 8305W        W12356   0.174   3.541   1.081
 8306W        W12357   8.126   5.189  11.969
 8307W        W12358  10.319   4.745   0.512
 8308W        W12359   5.922  11.419   0.798
 8309W        W12360   5.687   4.674   8.790
 8310W        W12361   5.502   3.850  11.879
 8311W        W12362   2.840   8.777  10.567
 8312W        W12363   5.203   4.570   2.722
 8313W        W12364  10.378   2.950   0.356
 8314W        W12365   3.864   5.390   2.075
 8315W        W12366  10.342  10.142  11.838
 8316W        W12367   3.350   3.891   0.515
 8317W        W12368   6.652   0.262   9.718
 8318W        W12369  10.951   8.178   9.615
 8319W        W12370   2.381  11.017   9.583
 8320W        W12371   6.487   8.515   0.737
 8321W        W12372   5.070   6.104  10.853
 8322W        W12373   8.235   4.882  10.945
 8323W        W12374   9.271   6.177   0.990
 8324W        W12375   7.536  10.785   8.710
 8325W        W12376   3.315   5.485   2.955
 8326W        W12377   9.893   1.214  10.025
 8327W        W12378   2.767   2.832   2.455
 8328W        W12379   4.398  10.362   1.484
 8329W        W12380   9.521   8.037   1.311
 8330W        W12381   3.909   6.567   0.775
 8331W        W12382   3.373   5.691   8.292
 8332W        W12383   7.007   5.991   0.720
 8333W        W12384   0.868   5.071   9.556
 8334W        W12385   9.776   6.181   1.866
 8335W        W12386   1.366   0.468   9.531
 8336W        W12387   5.058   8.176   0.456
 8337W        W12388  10.495   4.457   1.907
 8338W        W12389   9.463  11.491  10.253
 8339W        W12390   8.887  10.420   1.649
 8340W        W12391   1.962   6.639  10.517
 8341W        W12392   8.983   2.572   9.895
 8342W        W12393   8.553   9.854   9.330
 8343W        W12394  10.699   3.760  10.185
 8344W        W12395   3.246   0.529   3.218
 8345W        W12396   0.846   2.379   2.780
 8346W        W12397   9.287   8.446   3.572
 8347W        W12398   6.193   9.314  11.770
 8348W        W12399   1.095  11.402   2.257
 8349W        W12400   5.218   3.584   3.490
 8350W        W12401   0.229   9.085   2.620
 8351W        W12402   5.717   1.245   9.860
 8352W        W12403   1.698   4.543  10.102
 8353W        W12404   5.784   0.405   3.489
 8354W        W12405   4.529   2.719   9.145
 8355W        W12406   1.732   9.449  10.528
 8356W        W12407   7.681   6.484   3.383
 8357W        W12408   9.283   9.368   8.966
 8358W        W12409   5.064   4.576   1.722
 8359W        W12410   3.263   6.171   9.319
 8360W        W12411   7.800   4.600  11.247
 8361W        W12412   3.830   5.771   0.707
 8362W        W12413   1.205   5.915   3.479
 8363W        W12414   7.075   2.660  11.980
 8364W        W12415   1.790   7.239   3.875
 8365W        W12416   4.665   8.856  10.492
 8366W        W12417   9.095   1.669   1.954
 8367W        W12418   8.334   4.338   0.843
 8368W        W12419   2.664   0.222   1.696
 8369W        W12420  10.505   8.663   3.200
 8370W        W12421   1.429   7.134   2.409
 8371W        W12422   2.382   4.845   2.813
 8372W        W12423  10.459   5.819   9.986
 8373W        W12424   4.214   4.262   8.816
 8374W        W12425   1.998   4.615   1.041
 8375W        W12426   5.107   7.228   1.387
 8376W        W12427   2.368   1.924   2.201
 8377W        W12428   8.909   5.072  10.309
 8378W        W12429   4.063   5.313  10.093
 8379W        W12430   8.343   3.848   2.322
 8380W        W12431   9.380   9.352  10.917
 8381W        W12432   4.801   7.753   0.573
 8382W        W12433   1.331   4.642   1.193
 8383W        W12434   8.547   9.581  11.531
 8384W        W12435   2.342   1.505   3.524
 8385W        W12436   3.240   0.113   2.921
 8386W        W12437   7.496   8.482   9.348
 8387W        W12438   1.374   7.087  10.041
 8388W        W12439   8.537   0.312  11.383
 8389W        W12440   7.155  11.316   1.828
 8390W        W12441  11.443   4.879   9.095
 8391W        W12442   0.293   9.908  10.171
 8392W        W12443   5.064   1.673  10.762
 8393W        W12444   1.927   6.159   8.931
 8394W        W12445   7.180   0.023   9.082
 8395W        W12446   7.395   4.336  10.596
 8396W        W12447   2.774   3.284   9.247
 8397W        W12448   6.202   2.861   0.442
 8398W        W12449   8.450   0.167   0.981
 8399W        W12450   2.150   0.428  11.298
 8400W        W12451   3.285   3.854   9.658
 8401W        W12452   6.420   3.336  10.637
 8402W        W12453   0.352   9.508   1.970
 8403W        W12454   0.934   5.991   1.663
 8404W        W12455   1.344   0.971   9.590
 8405W        W12456   1.362   5.087  10.744
 8406W        W12457   7.523   0.258   9.658
 8407W        W12458   3.734   8.490   8.733
 8408W        W12459   4.197  10.932   0.737
 8409W        W12460   9.179   1.377   0.682
 8410W        W12461   2.360   5.268   2.490
 8411W        W12462   2.724   8.022   3.144
 8412W        W12463   6.155   3.459  11.134
 8413W        W12464   4.142   0.871   9.166
 8414W        W12465   5.992   7.254   3.174
 8415W        W12466  10.539   6.020  11.823
 8416W        W12467   3.343  11.383   8.697
 8417W        W12468   7.485   8.616   1.832
 8418W        W12469   1.223  10.441   0.502
 8419W        W12470   6.551   9.597  11.515
 8420W        W12471   9.102   2.444   0.707
 8421W        W12472   3.105   0.665  11.032
 8422W        W12473   8.573   0.715   9.010
 8423W        W12474   1.579   7.635   2.267
 8424W        W12475  11.493   6.515  10.564
 8425W        W12476   7.712   1.811   1.999
 8426W        W12477   7.170   1.208  11.767
 8427W        W12478   4.667   2.855   3.556
 8428W        W12479   6.806   0.382   8.976
 8429W        W12480   2.758   7.387   9.830
 8430W        W12481   0.412   4.976  10.726
 8431W        W12482  10.834  11.409  10.507
 8432W        W12483   1.288   3.269   3.133
 8433W        W12484  10.858   0.840   9.540
 8434W        W12485   8.413   2.473   9.081
 8435W        W12486   1.351   6.209   1.974
 8436W        W12487   7.843   6.064   8.865
 8437W        W12488   9.909   7.191   1.887
 8438W        W12489   9.524   3.884   8.603
 8439W        W12490   6.360   2.054   4.062
 8440W        W12491   2.936   8.412  11.891
 8441W        W12492   9.394   1.655   3.307
 8442W        W12493  10.841  10.109   0.894
 8443W        W12494   3.167   6.652   2.532
 8444W        W12495   4.799  10.307   1.813
 8445W        W12496   3.219  10.055   9.863
 8446W        W12497   5.981  11.006   1.964
 8447W        W12498   3.172   0.325   0.971
 8448ION    NA+12499   2.189   0.094   1.892
 8449ION    NA+12500   3.663   7.525   1.089
 8450ION    NA+12501   9.636   3.936  11.241
 8451ION    NA+12502   3.093   8.839   1.565
 8452ION    NA+12503   9.442   4.681  10.602
 8453ION    NA+12504   2.236   6.589   2.147
 8454ION    NA+12505   4.782   3.806  11.680
 8455ION    NA+12506   7.472   1.273   3.622
 8456ION    NA+12507   0.006   8.487  10.407
 8457ION    NA+12508   6.176   8.186   2.187
 8458ION    NA+12509   9.575   8.361  11.877
 8459ION    NA+12510   9.505   6.095   0.209
 8460ION    NA+12511   3.372   5.696   1.642
 8461ION    NA+12512   9.306   0.924  11.714
 8462ION    NA+12513   5.218   4.993   2.054
 8463ION    NA+12514  11.456   5.179  10.621
 8464ION    NA+12515   7.402   3.509   2.160
 8465ION    NA+12516   7.975  10.498   9.348
 8466ION    NA+12517   0.326   7.422   8.897
 8467ION    NA+12518   9.436   6.444   9.563
 8468ION    NA+12519   2.135   8.167   9.725
 8469ION    NA+12520   7.608   2.173   8.803
 8470ION    NA+12521   8.090   2.585   3.874
 8471ION    NA+12522   8.870  10.956   9.496
 8472ION    NA+12523   5.241   6.359  11.309
 8473ION    NA+12524   0.567   7.485   9.759
 8474ION    NA+12525   9.117  10.684   0.791
 8475ION    NA+12526   4.027   4.035  10.251
 8476ION    NA+12527   9.386   7.750  11.247
 8477ION    NA+12528   3.904   2.173   1.702
 8478ION    NA+12529   4.836   0.951   2.137
 8479ION    NA+12530   1.258   5.050  11.787
 8480ION    NA+12531   0.924  11.206   9.019
 8481ION    NA+12532   8.788   8.387  11.732
 8482ION    NA+12533   0.885   3.987   3.042
 8483ION    NA+12534   7.076   1.368   2.709
 8484ION    NA+12535   5.076   2.103  11.947
 8485ION    NA+12536   4.158   0.721  10.406
 8486ION    NA+12537  10.568   0.095   1.503
 8487ION    NA+12538   5.613   7.572   2.437
 8488ION    NA+12539  11.157   0.480   2.671
 8489ION    NA+12540   4.251   3.953   0.612
 8490ION    NA+12541   6.039   9.458   2.536
 8491ION    NA+12542   3.218   2.373   0.421
 8492ION    NA+12543   1.471   2.205   8.892
 8493ION    NA+12544   3.037   8.923  11.863
 8494ION    NA+12545   4.215   1.772   2.569
 8495ION    NA+12546   8.553   6.822   9.842
 8496ION    NA+12547   7.513   9.556   1.026
 8497ION    NA+12548   7.422   0.855   0.081
 8498ION    NA+12549   1.848   4.129   1.284
 8499ION    NA+12550   7.954   6.371  10.582
 8500ION    NA+12551   3.087   5.834   2.627
 8501ION    NA+12552   5.352   1.704   2.195
 8502ION    NA+12553   0.237   4.398  11.672
 8503ION    NA+12554   3.042   8.280   0.879
 8504ION    NA+12555   7.096   1.684   1.634
 8505ION    NA+12556   2.990  11.003   8.019
 8506ION    NA+12557   8.177   1.084   2.890
 8507ION    NA+12558   4.031   8.423   0.847
 8508ION    NA+12559   9.284   0.066   0.955
 8509ION    NA+12560   3.463   2.045   3.615
 8510ION    NA+12561   5.361  10.111  11.410
 8511ION    NA+12562   7.959   5.113   3.155
 8512ION    NA+12563  11.387   7.927  11.966
 8513ION    NA+12564   9.342   0.755   9.923
 8514ION    NA+12565  11.428  11.080  11.983
 8515ION    NA+12566  11.036   6.518  10.190
 8516ION    NA+12567   5.740   2.807   9.537
 8517ION    NA+12568   6.694   9.168   8.785
 8518ION    NA+12569   1.010   5.095   1.214
 8519ION    NA+12570   7.544   0.232  11.309
 8520ION    NA+12571   0.396   0.450   9.136
 8521ION    NA+12572   2.381   7.771   8.554
 8522ION    NA+12573   8.982   3.294   0.444
 8523ION    NA+12574   9.608   1.500   2.444
 8524ION    NA+12575  10.520   7.714   9.841
 8525ION    NA+12576  10.507   4.181   0.721
 8526ION    NA+12577   7.452   8.701   8.885
 8527ION    NA+12578   0.556   1.535  11.454
 8528ION    NA+12579   9.761  10.134  11.159
 8529ION    NA+12580  10.320  10.996   0.391
 8530ION    NA+12581   9.558   1.487   9.269
 8531ION    NA+12582   0.040   1.796  10.733
 8532ION    NA+12583   8.599   4.532   2.651
 8533ION    NA+12584   1.809  11.212   0.419
 8534ION    NA+12585   2.663   3.417  10.329
 8535ION    NA+12586   8.509   0.176   9.868
 8536ION    NA+12587   5.145   3.382   8.272
 8537ION    CL-12588   2.813   4.601   2.959
 8538ION    CL-12589   4.703   3.263   8.295
 8539ION    CL-12590   0.369   2.378   3.524
 8540ION    CL-12591   1.215  11.345  11.530
 8541ION    CL-12592  10.031   4.141   3.487
 8542ION    CL-12593  11.138  11.418  10.914
 8543ION    CL-12594   5.805  10.112  11.351
 8544ION    CL-12595   9.141   3.745  10.390
 8545ION    CL-12596   9.483  10.493  11.208
 8546ION    CL-12597   0.093   0.596  10.322
 8547ION    CL-12598   2.804   5.104  11.761
 8548ION    CL-12599   5.091   1.332   2.135
 8549ION    CL-12600   3.527  10.695   3.602
 8550ION    CL-12601  11.235   4.097   1.527
 8551ION    CL-12602   1.508   7.654  11.367
 8552ION    CL-12603   0.387   1.521  10.900
 8553ION    CL-12604   6.403   9.296   2.332
 8554ION    CL-12605   0.306  10.521  10.902
 8555ION    CL-12606   4.461   3.924  10.302
 8556ION    CL-12607   6.231   9.329  10.150
 8557ION    CL-12608   0.676   0.087   9.124
 8558ION    CL-12609   2.661   2.192  10.865
 8559ION    CL-12610   7.716   1.727   8.785
 8560ION    CL-12611   9.499   1.892   2.255
 8561ION    CL-12612   9.055   1.195  11.464
 8562ION    CL-12613   0.859   8.786  11.552
 8563ION    CL-12614   8.301   0.681   2.738
 8564ION    CL-12615   9.376  10.833   3.595
 8565ION    CL-12616  11.433   0.825   2.711
 8566ION    CL-12617   8.265   4.625  11.437
 8567ION    CL-12618   2.517   9.843   9.463
 8568ION    CL-12619   8.605   3.070   0.379
 8569ION    CL-12620   9.409   2.889   9.948
 8570ION    CL-12621   4.766   7.224   2.919
 8571ION    CL-12622   9.166   8.590  11.930
 8572ION    CL-12623   8.600   8.124  11.401
 8573ION    CL-12624   6.117   7.407   0.227
 8574ION    CL-12625  10.508   2.178   3.038
 8575ION    CL-12626  11.221   9.414   0.742
 8576ION    CL-12627   1.802   4.922   4.091
 8577ION    CL-12628   0.548   1.802  11.823
 8578ION    CL-12629   8.632  11.262   9.727
 8579ION    CL-12630   1.958  10.205   3.433
 8580ION    CL-12631   8.549   2.127  11.023
 8581ION    CL-12632  11.452   1.438   0.539
 8582ION    CL-12633   2.785  11.111   3.076
 8583ION    CL-12634   8.064   7.912  10.436
 8584ION    CL-12635  10.089   9.864  10.991
 8585ION    CL-12636   4.162   0.148   8.354
 8586ION    CL-12637   0.329   6.751   1.639
 8587ION    CL-12638   5.789   7.973   2.302
 8588ION    CL-12639   7.390   7.044   1.667
 8589ION    CL-12640   1.268   2.255   9.286
 8590ION    CL-12641   9.690   3.495  11.187
 8591ION    CL-12642   5.869  10.352  10.034
 8592ION    CL-12643   1.992  11.106   8.714
 8593ION    CL-12644   4.088   4.080   1.009
 8594ION    CL-12645   0.388  10.516   0.970
 8595ION    CL-12646   3.076   8.486   1.282
 8596ION    CL-12647   9.194  11.123   0.892
 8597ION    CL-12648  10.397   3.962   2.056
 8598ION    CL-12649  10.829   1.193  10.570
 8599ION    CL-12650   4.725   7.844   1.741
 8600ION    CL-12651   5.599   3.240  11.291
 8601ION    CL-12652  10.530   7.024   0.458
 8602ION    CL-12653   2.708   3.836  10.473
 8603ION    CL-12654   4.834   1.312   8.916
 8604ION    CL-12655   0.099   7.696   8.582
 8605ION    CL-12656   6.931   9.287  11.265
 8606ION    CL-12657   9.835   8.537   9.864
 8607ION    CL-12658   5.953   7.008   9.783
 8608ION    CL-12659   4.254   0.556  10.003
 8609ION    CL-12660   9.573   7.991  11.585
 8610ION    CL-12661   0.388   7.445   9.350
 8611ION    CL-12662   8.071   7.378   2.796
 8612ION    CL-12663   1.649   6.536   9.417
 8613ION    CL-12664   7.035   8.857   8.761
 8614ION    CL-12665   2.125  10.906   0.343
 8615ION    CL-12666   9.590   4.387   2.466
 8616ION    CL-12667   5.493   6.024  11.155
 8617ION    CL-12668   4.830   5.254  10.818
 8618ION    CL-12669   7.073   0.675   0.295
 8619ION    CL-12670   0.617   8.084   3.177
 8620ION    CL-12671  11.209   2.112  10.670
 8621ION    CL-12672   4.216   9.608   0.503
 8622ION    CL-12673   1.003  10.097   9.164
 8623ION    CL-12674   6.507   4.454  11.959
 8624ION    CL-12675   0.458   8.596   1.460
 8625ION    CL-12676   6.754   7.566  10.094
  11.50000  11.50000  12.00000
