Protein in INSANE! Membrane UpperLeaflet>POPC=1.0 LowerLeaflet>POPC=1.0
12676
    1AU     AUC    1   4.269   9.643   6.908 -0.1181 -0.0388  0.0966
    1AU     AUC    2   4.104   9.403   6.913  0.0469 -0.0609  0.0108
    1AU     AUC    3   4.297   9.451   7.131  0.0329 -0.0060 -0.0036
    1AU     AUC    4   4.263   9.839   6.711 -0.0141 -0.0059  0.1111
    1AU     AUC    5   4.452   9.884   6.931  0.0375 -0.0647  0.0369
    1AU     AUC    6   4.511   9.656   6.733 -0.1091  0.0262 -0.0740
    1AU     AUC    7   4.411   9.405   6.856  0.0105  0.0652 -0.0439
    1AU     AUC    8   4.157   9.888   6.978  0.0096  0.0401 -0.0131
    1AU     AUC    9   4.055   9.610   7.103  0.0851 -0.0143 -0.0249
    1AU     AUC   10   4.317   9.743   7.183  0.0719 -0.0185 -0.0779
    1AU     AUC   11   4.543   9.597   7.031 -0.0680 -0.0224 -0.0067
    1AU     AUC   12   4.008   9.668   6.801 -0.0490  0.1267  0.0065
    1AU     AUC   13   4.230   9.524   6.653 -0.0717  0.1361 -0.0372
    1AU     AUC   14   3.972   9.173   6.905  0.0893 -0.1010 -0.0371
    1AU     AUC   15   4.145   9.211   7.121 -0.0787 -0.0088  0.0839
    1AU     AUC   16   4.283   9.269   7.361 -0.0080 -0.0198  0.0122
    1AU     AUC   17   4.246  10.000   6.496 -0.0191  0.1172 -0.0343
    1AU     AUC   18   4.436  10.054   6.747  0.0164 -0.0863  0.0464
    1AU     AUC   19   4.606  10.091   6.964  0.0201  0.0651  0.0150
    1AU     AUC   20   4.692   9.642   6.560  0.1938 -0.0743 -0.0388
    1AU     AUC   21   4.636   9.423   6.671  0.0030  0.0117  0.0467
    1AU     AUC   22   4.524   9.142   6.802 -0.0376  0.0483  0.0340
    1AU     AUC   23   4.024  10.127   7.028 -0.0140 -0.0170  0.0538
    1AU     AUC   24   3.928   9.886   7.149 -0.0570  0.0396  0.0426
    1AU     AUC   25   3.838   9.610   7.272  0.0017  0.0974  0.0134
    1AU     AUC   26   4.371   9.844   7.424  0.0602 -0.0287  0.0282
    1AU     AUC   27   4.577   9.734   7.303  0.0261 -0.0504  0.0018
    1AU     AUC   28   4.795   9.584   7.135 -0.1160  0.0857 -0.0095
    1AU     AUC   29   3.764   9.702   6.681 -0.0746 -0.0102  0.0795
    1AU     AUC   30   3.972   9.560   6.549  0.0480  0.1107  0.0679
    1AU     AUC   31   4.178   9.427   6.432  0.0363  0.1450 -0.0629
    1AU     AUC   32   4.382   9.561   7.392  0.0181  0.0618 -0.0406
    1AU     AUC   33   4.555   9.435   7.229  0.0065 -0.0226  0.0052
    1AU     AUC   34   3.849   9.442   6.774 -0.0146 -0.0631 -0.0227
    1AU     AUC   35   4.061   9.300   6.647  0.0480 -0.0296 -0.0076
    1AU     AUC   36   4.483   9.978   7.205 -0.1196  0.0818 -0.0224
    1AU     AUC   37   4.689   9.859   7.066  0.0737  0.0395 -0.0639
    1AU     AUC   38   4.012   9.884   6.581 -0.0383  0.0436 -0.1079
    1AU     AUC   39   4.225   9.730   6.451 -0.0132  0.0435 -0.0360
    1AU     AUC   40   4.252   9.171   6.842 -0.0242 -0.0315 -0.1162
    1AU     AUC   41   4.454   9.186   7.071  0.0393  0.0852 -0.0024
    1AU     AUC   42   4.512   9.875   6.533 -0.1211  0.0602  0.0217
    1AU     AUC   43   4.688   9.875   6.754 -0.1149  0.0132 -0.0989
    1AU     AUC   44   3.893   9.402   7.076 -0.0416  0.0209 -0.0890
    1AU     AUC   45   4.064   9.440   7.313 -0.0548  0.0470 -0.0164
    1AU     AUC   46   4.123  10.066   6.745 -0.0020  0.0812 -0.0742
    1AU     AUC   47   4.315  10.113   6.974  0.0212  0.0381 -0.0041
    1AU     AUC   48   4.761   9.607   6.837 -0.1074 -0.1624 -0.0715
    1AU     AUC   49   4.663   9.352   6.987 -0.0003 -0.0519  0.0196
    1AU     AUC   50   4.186   9.995   7.242 -0.0805 -0.0750  0.0077
    1AU     AUC   51   4.087   9.733   7.347  0.0020  0.0081 -0.0529
    1AU     AUC   52   4.449   9.549   6.489  0.0038 -0.0843 -0.0499
    1AU     AUC   53   4.366   9.297   6.596 -0.0024 -0.0296 -0.0267
    1AU     AUC   54   3.878   9.906   6.852 -0.0443 -0.1383  0.0754
    1AU     AUC   55   3.789   9.670   6.958 -0.0274  0.0821 -0.0430
    1AU    AUSL   56   4.509   9.342   7.521 -0.0701  0.0329 -0.0494
    1AU    AUSL   57   4.229   9.738   7.635 -0.0179  0.0051  0.1138
    1AU     AUL   58   4.055   9.296   7.565  0.0234  0.1247 -0.0107
    1AU       S   59   4.170   9.804   8.097  0.1116  0.0579 -0.1687
    1AU     LIG   60   3.718   9.959   8.256 -0.2424 -0.1549 -0.1051
    1AU     LIG   61   3.314  10.238   8.254  0.0765 -0.1821  0.2695
    1AU     LIG   62   2.885  10.395   8.196  0.0274 -0.1170  0.3710
    1AU     LIG   63   2.594  10.412   7.860 -0.0615 -0.0643  0.2478
    1AU     LIG   64   2.625  10.330   7.414  0.2594  0.2988 -0.7217
    1AU     LIG   65   2.460  10.138   7.027  0.3589  0.2385  0.1387
    1AU       S   66   4.845   9.331   7.905  0.6905 -0.0242  0.1542
    1AU     LIG   67   5.054   8.960   8.045 -0.0619 -0.3202  0.1597
    1AU     LIG   68   5.319   8.783   7.845 -0.0748  0.1269  0.0800
    1AU     LIG   69   5.520   8.582   7.555  0.1927  0.1015 -0.0549
    1AU     LIG   70   5.866   8.239   7.376 -0.1594 -0.0917  0.1894
    1AU     LIG   71   6.176   7.897   7.388 -0.1440 -0.3826 -0.3124
    1AU     LIG   72   6.373   7.498   7.497  0.0004 -0.2009  0.1439
    1AU    AUSL   73   4.506   9.656   7.583 -0.0317  0.0738 -0.0148
    1AU    AUSL   74   4.832   9.847   7.255  0.0818  0.0728  0.0402
    1AU     AUL   75   4.524   9.942   7.640 -0.1027  0.0092  0.0062
    1AU       S   76   4.722   9.621   7.989 -0.2079  0.0973 -0.0732
    1AU     LIG   77   5.135   9.839   8.029 -0.1940 -0.2569 -0.0603
    1AU     LIG   78   5.538   9.785   8.135 -0.0212 -0.0976 -0.1650
    1AU     LIG   79   5.915  10.061   8.079 -0.2310  0.4024 -0.2620
    1AU     LIG   80   6.172  10.302   7.760 -0.3044 -0.1138 -0.4938
    1AU     LIG   81   6.541  10.464   7.595  0.0003  0.0710 -0.0257
    1AU     LIG   82   6.872  10.719   7.832  0.1163  0.0197  0.2603
    1AU       S   83   5.169  10.124   7.488 -0.1584 -0.1080 -0.5501
    1AU     LIG   84   5.596  10.061   7.648 -0.0706  0.0937  0.2501
    1AU     LIG   85   5.861   9.808   7.483 -0.2835  0.0384 -0.0183
    1AU     LIG   86   6.207   9.974   7.290  0.3700  0.0239 -0.0901
    1AU     LIG   87   6.633  10.018   7.324  0.0950 -0.2220  0.0086
    1AU     LIG   88   7.029   9.886   7.045  0.4120 -0.2462 -0.0126
    1AU     LIG   89   7.208   9.396   6.872 -0.0814 -0.1224  0.2572
    1AU    AUSL   90   4.879   9.576   7.326  0.0055 -0.0227 -0.0274
    1AU    AUSL   91   4.559   9.132   7.323 -0.1475 -0.0306  0.0402
    1AU     AUL   92   4.705   9.530   7.444  0.0323 -0.1095  0.0600
    1AU       S   93   5.113   9.448   7.744 -0.1964 -0.1720  0.6909
    1AU     LIG   94   5.507   9.536   7.667  0.2935 -0.0010 -0.2194
    1AU     LIG   95   5.976   9.509   7.825 -0.3250  0.0564 -0.1679
    1AU     LIG   96   6.378   9.632   7.630 -0.0276  0.1931  0.1434
    1AU     LIG   97   6.785   9.987   7.798  0.1061 -0.0762 -0.1098
    1AU     LIG   98   7.018  10.303   8.055 -0.0584  0.0572  0.0498
    1AU     LIG   99   6.900  10.400   8.530 -0.3818  0.0225 -0.2468
    1AU       S  100   4.709   8.829   7.551  0.2226 -0.1584 -0.1579
    1AU     LIG  101   4.841   8.462   7.715  0.0585  0.1192 -0.2654
    1AU     LIG  102   5.137   8.110   7.593  0.1005 -0.2912  0.0503
    1AU     LIG  103   5.272   7.603   7.428 -0.0241 -0.0780  0.1069
    1AU     LIG  104   5.432   7.233   7.576  0.0895 -0.0850  0.1626
    1AU     LIG  105   5.367   6.855   7.582  0.3231 -0.0565 -0.0947
    1AU     LIG  106   5.178   6.513   7.306  0.0643  0.0939 -0.0208
    1AU    AUSL  107   3.883   9.148   6.614 -0.0690  0.0332  0.0273
    1AU    AUSL  108   4.150   9.126   6.460 -0.0028  0.0491  0.0095
    1AU     AUL  109   4.152   9.271   6.195 -0.0412 -0.0087 -0.0884
    1AU       S  110   3.545   8.961   6.354  0.0947 -0.0092  0.1321
    1AU     LIG  111   3.553   8.504   6.509  0.0547  0.1357 -0.2723
    1AU     LIG  112   3.080   8.307   6.576 -0.2657  0.0155 -0.1336
    1AU     LIG  113   2.693   7.988   6.838  0.1919 -0.0177  0.2628
    1AU     LIG  114   2.389   7.869   7.057 -0.1860  0.2333  0.0295
    1AU     LIG  115   1.926   7.852   6.966 -0.4428 -0.2433  0.1937
    1AU     LIG  116   1.630   8.138   6.756  0.5359  0.3756 -0.4194
    1AU       S  117   4.098   8.721   6.210  0.1030 -0.0397  0.0313
    1AU     LIG  118   3.694   8.654   5.988  0.2649 -0.1801  0.3315
    1AU     LIG  119   3.404   8.282   5.886  0.2432 -0.0952 -0.4151
    1AU     LIG  120   3.092   8.063   6.096 -0.1386  0.0096 -0.1683
    1AU     LIG  121   2.870   7.793   6.308  0.2389  0.4172  0.0774
    1AU     LIG  122   2.469   7.679   6.538 -0.3766 -0.0177  0.2246
    1AU     LIG  123   2.180   7.471   6.745 -0.1577  0.0127  0.6697
    1AU    AUSL  124   3.742   9.486   6.460  0.0085  0.0039  0.0178
    1AU    AUSL  125   3.683   9.265   7.022 -0.0004  0.0429 -0.0046
    1AU     AUL  126   3.553   9.347   6.674  0.0666 -0.0090 -0.0094
    1AU       S  127   3.213   9.061   7.100 -0.2351  0.2911  0.2857
    1AU     LIG  128   3.004   8.893   7.423 -0.2177  0.5255  0.2927
    1AU     LIG  129   2.745   8.695   7.494 -0.0643 -0.1156 -0.0654
    1AU     LIG  130   2.455   8.413   7.671 -0.1298 -0.2613  0.0616
    1AU     LIG  131   1.992   8.348   7.775 -0.0233  0.1884  0.1483
    1AU     LIG  132   1.546   8.157   7.659 -0.1668 -0.3501 -0.0898
    1AU     LIG  133   1.502   7.832   7.272 -0.2118  0.0084 -0.1340
    1AU       S  134   3.411   9.341   6.159 -0.0738  0.3333  0.0384
    1AU     LIG  135   3.047   9.139   6.358 -0.0113 -0.2726 -0.2147
    1AU     LIG  136   2.905   8.870   6.714 -0.2402 -0.1540 -0.3637
    1AU     LIG  137   2.460   8.752   6.679 -0.5806  0.3864 -0.4308
    1AU     LIG  138   2.048   8.734   6.862  0.2820 -0.2860 -0.2615
    1AU     LIG  139   1.627   8.654   6.760 -0.4049  0.0998 -0.0523
    1AU     LIG  140   1.211   8.477   6.623 -0.0576  0.0757  0.2742
    1AU    AUSL  141   3.935   9.310   6.382  0.0439  0.0347 -0.1127
    1AU    AUSL  142   3.789   9.756   6.391 -0.0133  0.0758  0.0950
    1AU     AUL  143   3.919   9.440   6.086  0.0443  0.0155 -0.0219
    1AU       S  144   3.479   9.977   6.089  0.6084  0.0410 -0.1483
    1AU     LIG  145   3.043  10.233   6.155  0.3260 -0.0123 -0.4850
    1AU     LIG  146   2.624  10.231   6.424 -0.3449  0.2739 -0.0005
    1AU     LIG  147   2.244  10.401   6.547  0.3383 -0.1066  0.0373
    1AU     LIG  148   1.973  10.206   6.878  0.2174 -0.0757 -0.2631
    1AU     LIG  149   2.081  10.058   7.345 -0.1672  0.0088  0.0714
    1AU     LIG  150   1.824   9.902   7.678 -0.3713 -0.0034  0.1973
    1AU       S  151   3.565   9.136   6.147  0.3070 -0.3185 -0.0377
    1AU     LIG  152   3.226   8.966   5.937 -0.2215 -0.2240 -0.2308
    1AU     LIG  153   2.885   8.567   5.753 -0.1130  0.5224  0.5230
    1AU     LIG  154   2.571   8.141   5.762  0.0464 -0.2750  0.1955
    1AU     LIG  155   2.513   7.749   5.993  0.0808 -0.0103  0.3130
    1AU     LIG  156   2.064   7.644   6.231  0.0450 -0.0079  0.2337
    1AU     LIG  157   1.678   7.513   6.472 -0.1262  0.0884  0.1389
    1AU    AUSL  158   4.766  10.100   7.157  0.0930  0.0787  0.0619
    1AU    AUSL  159   4.995   9.713   7.072  0.0210  0.0192 -0.0062
    1AU     AUL  160   4.759   9.818   7.494  0.0431  0.0300  0.0305
    1AU       S  161   5.073  10.342   7.348 -0.0604  0.0434 -0.0889
    1AU     LIG  162   5.091  10.817   7.399  0.0545 -0.0481 -0.0066
    1AU     LIG  163   4.729  11.037   7.210 -0.1262 -0.1380 -0.0499
    1AU     LIG  164   4.460  11.363   7.345  0.0986  0.1197 -0.1178
    1AU     LIG  165   4.129  11.441   7.144  0.1277 -0.0338 -0.3015
    1AU     LIG  166   3.976  11.888   7.050 -0.3588 -0.4254 -0.0141
    1AU     LIG  167   3.584  11.993   6.991  0.2859 -0.0584 -0.0956
    1AU       S  168   5.440   9.788   7.186 -0.0903 -0.4547  0.1025
    1AU     LIG  169   5.884   9.482   7.046  0.1388  0.0011 -0.5013
    1AU     LIG  170   6.348   9.389   6.768 -0.0161  0.3584  0.3168
    1AU     LIG  171   6.709   9.233   6.870 -0.0407  0.0942  0.1010
    1AU     LIG  172   7.025   9.175   7.276  0.0198  0.2065 -0.3555
    1AU     LIG  173   7.437   9.077   7.404 -0.1546 -0.1275 -0.2417
    1AU     LIG  174   7.781   9.056   7.762  0.0875 -0.0560  0.1420
    1AU    AUSL  175   4.624  10.038   7.379 -0.0063 -0.1030  0.0564
    1AU    AUSL  176   4.470  10.230   7.200 -0.0796 -0.0411 -0.0007
    1AU     AUL  177   4.703  10.352   7.001 -0.0055 -0.0070  0.0302
    1AU       S  178   4.442  10.603   7.491 -0.5469  0.1926  0.0748
    1AU     LIG  179   4.602  10.884   7.697 -0.3783 -0.0482 -0.1489
    1AU     LIG  180   4.906  11.168   7.782 -0.0959  0.1105 -0.0441
    1AU     LIG  181   4.998  11.530   7.928  0.0533 -0.0472  0.0742
    1AU     LIG  182   4.709  11.989   7.896  0.1460  0.1584 -0.2428
    1AU     LIG  183   4.458  12.373   7.756 -0.1694 -0.0764 -0.0540
    1AU     LIG  184   4.508  12.748   7.476  0.0900 -0.1231 -0.1068
    1AU       S  185   4.995  10.382   7.578 -0.0442 -0.1527 -0.4817
    1AU     LIG  186   5.415  10.521   7.661 -0.0973  0.0009  0.0261
    1AU     LIG  187   5.727  10.548   7.821  0.1793  0.0769 -0.1463
    1AU     LIG  188   6.019  10.809   7.834  0.1319 -0.2675  0.1252
    1AU     LIG  189   6.377  11.034   7.631 -0.2436  0.1105  0.1726
    1AU     LIG  190   6.580  11.334   7.355  0.2024  0.0987  0.1631
    1AU     LIG  191   6.821  11.707   7.263  0.3035  0.0280 -0.3383
    1AU    AUSL  192   4.087   9.845   6.289 -0.0012  0.0009  0.0719
    1AU    AUSL  193   3.765   9.987   6.594  0.0141 -0.0569 -0.0867
    1AU     AUL  194   3.989  10.075   6.338  0.0004 -0.0699  0.0051
    1AU       S  195   3.781  10.017   5.891 -0.0538 -0.0006  0.0332
    1AU     LIG  196   3.509   9.967   5.576  0.1011  0.0021  0.1372
    1AU     LIG  197   3.233   9.927   5.608 -0.0551  0.2302  0.0330
    1AU     LIG  198   2.807   9.983   5.756  0.1042  0.2703 -0.0615
    1AU     LIG  199   2.447  10.069   5.940  0.1415  0.2653 -0.1245
    1AU     LIG  200   2.094   9.856   6.163  0.4155  0.0268  0.2534
    1AU     LIG  201   2.234   9.887   6.521  0.2370  0.1889 -0.1172
    1AU       S  202   3.503  10.366   6.489  0.1030 -0.0595 -0.2088
    1AU     LIG  203   3.064  10.482   6.576  0.1433 -0.2190  0.0453
    1AU     LIG  204   2.686  10.517   6.813 -0.3685  0.1428  0.1536
    1AU     LIG  205   2.393  10.747   7.086  0.2452 -0.2882 -0.1888
    1AU     LIG  206   2.177  11.068   7.171 -0.4168  0.0276 -0.2165
    1AU     LIG  207   1.822  11.160   6.888 -0.2724 -0.3160 -0.2651
    1AU     LIG  208   1.505  10.953   6.887  0.1846  0.1147 -0.0576
    1AU    AUSL  209   3.993   9.584   6.313 -0.0316  0.0286 -0.0973
    1AU    AUSL  210   4.390   9.940   6.281 -0.0629 -0.0070  0.0447
    1AU     AUL  211   4.201   9.517   6.055 -0.0112 -0.0271 -0.0641
    1AU       S  212   4.572  10.199   5.898 -0.1406 -0.0762  0.1560
    1AU     LIG  213   4.550  10.685   5.885 -0.3531 -0.0646  0.0005
    1AU     LIG  214   4.673  10.994   6.123 -0.2373  0.1649 -0.4883
    1AU     LIG  215   4.372  11.199   6.359  0.3121  0.0995  0.2552
    1AU     LIG  216   4.225  11.519   6.621 -0.1770 -0.1456  0.4045
    1AU     LIG  217   4.470  11.835   6.901  0.1364 -0.0961 -0.1810
    1AU     LIG  218   4.838  12.142   7.072  0.2148  0.2173  0.0736
    1AU       S  219   3.541   9.758   6.101  0.3581 -0.0611  0.0016
    1AU     LIG  220   3.029   9.672   6.213  0.1735  0.0662 -0.1157
    1AU     LIG  221   2.574   9.577   6.141  0.0173  0.0887  0.1438
    1AU     LIG  222   2.306   9.542   5.742 -0.1467  0.0564 -0.1667
    1AU     LIG  223   2.021   9.519   5.411  0.1598  0.0598  0.0345
    1AU     LIG  224   1.767   9.593   5.033  0.0053  0.2696 -0.0268
    1AU     LIG  225   1.986   9.697   4.644 -0.1686 -0.1412 -0.3599
    1AU    AUSL  226   4.360   8.931   6.899  0.0061 -0.0421  0.0549
    1AU    AUSL  227   4.129   8.981   6.721  0.0619  0.0238 -0.0501
    1AU     AUL  228   4.636   8.930   6.690  0.0092  0.0211  0.0281
    1AU       S  229   4.032   8.614   6.527 -0.4292  0.1655 -0.1072
    1AU     LIG  230   4.166   8.107   6.532  0.0511  0.0158 -0.2688
    1AU     LIG  231   4.204   7.656   6.393  0.2807 -0.2542  0.2302
    1AU     LIG  232   4.148   7.289   6.515  0.1703 -0.0166  0.5004
    1AU     LIG  233   4.242   6.988   6.728 -0.4327 -0.2441 -0.0585
    1AU     LIG  234   4.433   6.690   6.786 -0.3148  0.1005 -0.0546
    1AU     LIG  235   4.845   6.429   6.864  0.2106  0.0059 -0.2926
    1AU       S  236   4.285   8.490   6.971  0.1862  0.1875 -0.1625
    1AU     LIG  237   4.430   7.910   6.968  0.1825 -0.0893  0.3684
    1AU     LIG  238   4.227   7.544   6.909 -0.1126  0.1463  0.1157
    1AU     LIG  239   3.892   7.316   6.944  0.4475 -0.0495  0.2919
    1AU     LIG  240   3.767   6.899   7.049  0.0093  0.0103  0.0027
    1AU     LIG  241   3.517   6.574   6.850  0.2281 -0.1170 -0.0078
    1AU     LIG  242   3.577   6.130   6.901  0.5308 -0.3648 -0.1348
    1AU    AUSL  243   4.102   8.973   7.012  0.1043  0.0318  0.0618
    1AU    AUSL  244   4.061   9.126   7.335 -0.0509 -0.0253 -0.0153
    1AU     AUL  245   3.833   8.931   6.880 -0.0686 -0.0192  0.1208
    1AU       S  246   4.010   8.541   7.106  0.0607  0.0889 -0.4818
    1AU     LIG  247   3.788   8.226   6.878  0.1037  0.0262  0.1584
    1AU     LIG  248   3.864   7.841   6.810  0.1560  0.2752  0.3417
    1AU     LIG  249   3.644   7.535   6.553  0.0614 -0.0418  0.1945
    1AU     LIG  250   3.380   7.666   6.133 -0.3816 -0.1399 -0.1419
    1AU     LIG  251   3.016   7.574   5.862  0.1993  0.0067 -0.2145
    1AU     LIG  252   2.906   7.209   5.623 -0.0644 -0.1838  0.1513
    1AU       S  253   3.852   8.792   7.588  0.1211 -0.0774 -0.0196
    1AU     LIG  254   3.733   8.328   7.514  0.1589 -0.2003 -0.2419
    1AU     LIG  255   3.539   7.932   7.721  0.2550  0.1345  0.1449
    1AU     LIG  256   3.771   7.665   8.003 -0.1217  0.1212 -0.1913
    1AU     LIG  257   3.720   7.690   8.483  0.2651  0.2397  0.4096
    1AU     LIG  258   3.570   7.684   8.968 -0.1292  0.1636  0.2297
    1AU     LIG  259   3.231   7.935   9.164 -0.0028  0.1463 -0.1418
    1AU    AUSL  260   4.310   8.997   7.218 -0.0898 -0.0145  0.0508
    1AU    AUSL  261   4.712   9.116   7.068 -0.0856 -0.0607  0.0794
    1AU     AUL  262   4.603   8.930   6.969  0.0414 -0.0491 -0.0601
    1AU       S  263   4.841   8.828   7.371 -0.1186  0.3838 -0.0352
    1AU     LIG  264   4.795   8.389   7.207  0.2424  0.0778 -0.1859
    1AU     LIG  265   4.862   7.954   7.172  0.0016 -0.1893 -0.0266
    1AU     LIG  266   5.136   7.649   6.935 -0.6571 -0.1181 -0.1132
    1AU     LIG  267   5.508   7.517   6.708  0.5539 -0.0086  0.2887
    1AU     LIG  268   5.867   7.698   6.595 -0.1295 -0.1908  0.0925
    1AU     LIG  269   6.334   7.911   6.665 -0.3203 -0.2063  0.0688
    1AU       S  270   4.278   8.541   7.271 -0.1855 -0.0983 -0.4689
    1AU     LIG  271   4.187   8.098   7.337  0.2893  0.0261 -0.1795
    1AU     LIG  272   4.123   7.883   7.648 -0.0712  0.3141 -0.3361
    1AU     LIG  273   4.364   7.605   7.809 -0.3504  0.0523 -0.1712
    1AU     LIG  274   4.820   7.582   7.658 -0.4375  0.2285 -0.2390
    1AU     LIG  275   5.152   7.665   7.860  0.2890  0.1093 -0.1001
    1AU     LIG  276   5.137   7.929   8.288 -0.1006  0.1208  0.0017
    1AU    AUSL  277   4.655   9.932   6.389 -0.0161 -0.0249  0.0324
    1AU    AUSL  278   4.903   9.962   6.954 -0.0694 -0.0431 -0.0592
    1AU     AUL  279   4.980   9.998   6.656  0.0541 -0.0134  0.0508
    1AU       S  280   5.391  10.058   7.036 -0.2909 -0.3327  0.0211
    1AU     LIG  281   5.791  10.345   7.265  0.0911 -0.3437 -0.2547
    1AU     LIG  282   6.116  10.646   7.372  0.0984  0.0348 -0.0361
    1AU     LIG  283   6.021  11.067   7.294 -0.2535 -0.3573 -0.2788
    1AU     LIG  284   6.174  11.453   7.053 -0.2871  0.1595 -0.0206
    1AU     LIG  285   6.372  11.732   6.810 -0.3021 -0.2661 -0.4786
    1AU     LIG  286   6.418  12.124   6.587  0.0996  0.4176  0.2708
    1AU       S  287   4.966  10.351   6.182 -0.0216  0.0869 -0.2611
    1AU     LIG  288   5.278  10.818   6.249  0.1461 -0.0679 -0.0833
    1AU     LIG  289   5.494  11.066   6.424 -0.2269 -0.0208 -0.3217
    1AU     LIG  290   5.707  11.262   6.787  0.0850  0.1366  0.0550
    1AU     LIG  291   5.594  11.427   7.182  0.0846  0.7143  0.2002
    1AU     LIG  292   5.788  11.782   7.130 -0.1776 -0.2284 -0.1388
    1AU     LIG  293   5.882  11.848   6.763  0.5360 -0.0755 -0.2284
    1AU    AUSL  294   4.471  10.153   6.463  0.0806  0.0237 -0.0424
    1AU    AUSL  295   4.596   9.694   6.276  0.0223 -0.1351 -0.0516
    1AU     AUL  296   4.798   9.886   6.492  0.0257  0.0533  0.0724
    1AU       S  297   4.726  10.548   6.296  0.4316  0.3428 -0.3125
    1AU     LIG  298   4.901  10.959   6.576  0.2832  0.0632  0.2159
    1AU     LIG  299   5.176  11.240   6.916  0.1846 -0.0418  0.2125
    1AU     LIG  300   5.097  11.378   7.281  0.2941  0.5641 -0.2159
    1AU     LIG  301   4.838  11.681   7.438 -0.0253  0.0350 -0.2264
    1AU     LIG  302   4.545  11.948   7.417 -0.1106  0.1232  0.1058
    1AU     LIG  303   4.252  12.273   7.244  0.0638  0.0557  0.0950
    1AU       S  304   4.767   9.861   5.869  0.2794 -0.1962  0.1466
    1AU     LIG  305   5.038   9.567   5.607 -0.1990  0.1627 -0.0624
    1AU     LIG  306   5.065   9.195   5.279  0.2588 -0.0451  0.0334
    1AU     LIG  307   5.298   8.832   5.268 -0.1254 -0.1118  0.0509
    1AU     LIG  308   5.340   8.421   5.103  0.1524  0.3596  0.0779
    1AU     LIG  309   5.430   8.336   4.660 -0.3247 -0.2826 -0.0071
    1AU     LIG  310   5.188   8.438   4.371  0.3187  0.1669  0.2372
    1AU    AUSL  311   4.769  10.155   6.787  0.1044 -0.0451  0.0326
    1AU    AUSL  312   4.295  10.295   6.631 -0.0201 -0.0157 -0.0878
    1AU     AUL  313   4.668  10.121   6.598 -0.0377  0.0362  0.0173
    1AU       S  314   4.234  10.732   6.493  0.0958 -0.1573  0.3271
    1AU     LIG  315   3.931  10.937   6.268 -0.1619  0.0409 -0.0660
    1AU     LIG  316   3.416  11.020   6.295 -0.0972 -0.0789 -0.0481
    1AU     LIG  317   3.037  10.969   6.408 -0.2337 -0.1457 -0.2918
    1AU     LIG  318   2.721  10.888   6.444 -0.0393 -0.0178  0.0682
    1AU     LIG  319   2.354  10.882   6.632 -0.0334 -0.0857  0.0684
    1AU     LIG  320   1.974  10.801   6.571  0.1887 -0.0516  0.1067
    1AU       S  321   5.087  10.464   6.507 -0.0636  0.1178 -0.1145
    1AU     LIG  322   5.235  10.727   6.866 -0.4213 -0.0281  0.1805
    1AU     LIG  323   5.558  10.892   7.249  0.1134  0.3165 -0.0076
    1AU     LIG  324   5.628  11.058   7.643 -0.0804 -0.0032 -0.1134
    1AU     LIG  325   5.310  10.949   7.950  0.2570  0.0390 -0.2106
    1AU     LIG  326   5.027  10.607   8.048 -0.0231  0.0661 -0.0032
    1AU     LIG  327   4.846  10.257   8.214 -0.3401  0.0868 -0.3802
    1AU    AUSL  328   3.794   9.299   7.277 -0.1123  0.0521  0.0588
    1AU    AUSL  329   4.264   9.481   7.560  0.0695  0.0105  0.0559
    1AU     AUL  330   3.806   9.419   7.492  0.0283 -0.0669  0.0669
    1AU       S  331   3.571   8.999   7.564  0.4822  0.1458  0.0058
    1AU     LIG  332   3.372   8.630   7.777 -0.2092 -0.1564  0.0084
    1AU     LIG  333   3.036   8.287   7.549  0.1154 -0.0245 -0.0083
    1AU     LIG  334   2.797   8.046   7.466 -0.1691  0.0227 -0.3359
    1AU     LIG  335   2.449   7.921   7.571 -0.2799  0.0712  0.1004
    1AU     LIG  336   2.032   7.888   7.510  0.4288 -0.1682  0.1927
    1AU     LIG  337   1.816   7.602   7.785 -0.1927 -0.2672 -0.0978
    1AU       S  338   4.203   9.484   8.028 -0.3001 -0.2280 -0.0540
    1AU     LIG  339   4.449   9.551   8.462  0.1473 -0.3660  0.3220
    1AU     LIG  340   4.807   9.175   8.527  0.0936 -0.0340 -0.1026
    1AU     LIG  341   5.126   8.852   8.610 -0.1054 -0.1690  0.2975
    1AU     LIG  342   5.455   8.757   8.325 -0.2417 -0.1231  0.1577
    1AU     LIG  343   5.773   8.577   8.044 -0.1526 -0.0124  0.2369
    1AU     LIG  344   6.190   8.629   7.941  0.3188  0.2697  0.0184
    1AU    AUSL  345   3.871   9.073   7.119  0.0475 -0.0672 -0.0406
    1AU    AUSL  346   3.627   9.501   7.181  0.0168 -0.1632  0.0034
    1AU     AUL  347   3.700   9.198   6.855 -0.0683 -0.0204  0.0200
    1AU       S  348   3.636   8.807   7.382 -0.2957 -0.0334  0.0056
    1AU     LIG  349   3.321   8.567   7.181 -0.2534  0.0446 -0.1363
    1AU     LIG  350   2.959   8.467   7.070  0.2301 -0.3865  0.1945
    1AU     LIG  351   2.592   8.437   7.105 -0.1604 -0.0970  0.2427
    1AU     LIG  352   2.129   8.244   7.224 -0.0600 -0.0710  0.2619
    1AU     LIG  353   1.724   8.322   7.217  0.1267  0.1698 -0.2732
    1AU     LIG  354   1.294   8.375   7.135 -0.1233 -0.5644 -0.1040
    1AU       S  355   3.235   9.287   7.334  0.3784 -0.0861  0.0474
    1AU     LIG  356   2.967   9.368   7.662 -0.0586  0.1463  0.1436
    1AU     LIG  357   2.526   9.318   7.612  0.1696  0.2974 -0.1287
    1AU     LIG  358   2.097   9.194   7.448 -0.1107 -0.3220 -0.0482
    1AU     LIG  359   1.870   9.136   7.096 -0.2533  0.0923  0.1267
    1AU     LIG  360   1.959   9.143   6.646 -0.0993  0.1638 -0.2008
    1AU     LIG  361   1.629   9.099   6.339  0.1084 -0.3558  0.1803
    1AU    AUSL  362   4.114  10.306   6.838  0.0293  0.0530 -0.0828
    1AU    AUSL  363   4.041  10.185   6.594  0.1010 -0.0062  0.0028
    1AU     AUL  364   4.233  10.258   6.330  0.0317  0.0409  0.0155
    1AU       S  365   3.724  10.536   6.480  0.1222 -0.0318  0.1989
    1AU     LIG  366   3.686  10.578   6.032  0.2249  0.3631 -0.0516
    1AU     LIG  367   3.300  10.706   5.910  0.1108  0.0712  0.0002
    1AU     LIG  368   2.958  10.726   5.963 -0.1312  0.1134 -0.0319
    1AU     LIG  369   2.551  10.540   6.059 -0.0686  0.2064  0.0338
    1AU     LIG  370   2.097  10.556   6.060 -0.2100  0.0867 -0.0562
    1AU     LIG  371   1.649  10.745   6.206 -0.1141 -0.0718  0.4390
    1AU       S  372   4.122  10.705   6.746  0.0420 -0.1447  0.0324
    1AU     LIG  373   3.858  11.107   6.763 -0.0013  0.2245  0.1005
    1AU     LIG  374   3.652  11.487   6.742 -0.1147 -0.2156 -0.2517
    1AU     LIG  375   3.294  11.637   6.674  0.1426  0.1812  0.0269
    1AU     LIG  376   2.885  11.485   6.526 -0.0145  0.1320 -0.2249
    1AU     LIG  377   2.376  11.467   6.658 -0.2055 -0.3675 -0.1894
    1AU     LIG  378   2.009  11.669   6.900  0.0943  0.0424 -0.2538
    1AU    AUSL  379   4.402  10.311   6.913 -0.0103 -0.0474  0.0356
    1AU    AUSL  380   4.198  10.305   7.114  0.0254 -0.0269 -0.0453
    1AU     AUL  381   4.535  10.316   6.782  0.0354 -0.0543  0.0293
    1AU       S  382   4.243  10.715   7.242  0.1201 -0.0646 -0.3899
    1AU     LIG  383   4.129  11.099   7.547 -0.0314 -0.0150  0.0908
    1AU     LIG  384   4.051  11.516   7.664  0.1638  0.0889 -0.1198
    1AU     LIG  385   4.215  11.917   7.764  0.2741 -0.1686  0.0470
    1AU     LIG  386   4.101  12.207   8.085  0.0980  0.0442  0.1359
    1AU     LIG  387   4.119  12.545   8.187 -0.0323  0.3913 -0.1557
    1AU     LIG  388   3.852  12.894   8.162 -0.0292  0.0350  0.0451
    1AU       S  389   4.341  10.743   6.680 -0.1194 -0.1856  0.0552
    1AU     LIG  390   4.402  11.098   6.873  0.0392 -0.1460 -0.4104
    1AU     LIG  391   4.758  11.438   6.747 -0.0828 -0.2284 -0.1335
    1AU     LIG  392   5.103  11.779   6.849 -0.0577 -0.0563  0.0994
    1AU     LIG  393   5.340  11.890   7.213  0.0308  0.0011 -0.1768
    1AU     LIG  394   5.689  11.955   7.628  0.3369  0.4167  0.0053
    1AU     LIG  395   5.626  12.055   8.065  0.1204 -0.0607  0.2110
    1AU    AUSL  396   4.937   9.456   6.901 -0.0448  0.0214 -0.0132
    1AU    AUSL  397   4.927   9.734   6.789  0.0468 -0.0885 -0.0138
    1AU     AUL  398   4.994   9.700   6.606  0.0117  0.1272  0.0051
    1AU       S  399   5.392   9.765   6.928  0.4571  0.2356  0.0139
    1AU     LIG  400   5.856   9.973   6.920 -0.1963 -0.0710 -0.2468
    1AU     LIG  401   6.079  10.249   6.771 -0.2349 -0.1822  0.6858
    1AU     LIG  402   6.370  10.702   6.854  0.0951  0.2074 -0.1101
    1AU     LIG  403   6.588  10.824   7.153 -0.0724  0.2226 -0.3469
    1AU     LIG  404   6.927  11.019   7.479 -0.0787  0.0126 -0.4194
    1AU     LIG  405   6.842  11.223   7.850  0.0204 -0.1626 -0.2467
    1AU       S  406   5.396   9.264   6.791 -0.0281  0.1504  0.0983
    1AU     LIG  407   5.723   8.887   6.779 -0.1822 -0.0555  0.2406
    1AU     LIG  408   6.214   8.770   6.708  0.1514  0.1260 -0.0431
    1AU     LIG  409   6.499   8.641   7.038  0.1703  0.1441 -0.3652
    1AU     LIG  410   6.834   8.740   7.229  0.1794 -0.2758  0.0045
    1AU     LIG  411   7.168   8.797   6.961  0.1672  0.1854  0.0893
    1AU     LIG  412   7.248   8.778   6.540  0.2019  0.0084  0.1766
    1AU    AUSL  413   4.882   9.407   6.620 -0.0490 -0.0024 -0.0063
    1AU    AUSL  414   4.649   9.208   6.541 -0.0475 -0.0121  0.0682
    1AU     AUL  415   4.875   9.633   6.348  0.0494  0.0396 -0.0002
    1AU       S  416   5.249   9.211   6.496 -0.0003  0.3515  0.0877
    1AU     LIG  417   5.382   8.768   6.299 -0.0760 -0.1426 -0.1105
    1AU     LIG  418   5.561   8.434   6.535 -0.1281  0.0485  0.1371
    1AU     LIG  419   5.826   8.360   6.869  0.3136  0.2571 -0.3001
    1AU     LIG  420   6.145   8.317   7.001  0.2468 -0.0265  0.0242
    1AU     LIG  421   6.642   8.169   7.008  0.3752 -0.2238 -0.0635
    1AU     LIG  422   6.917   8.342   6.856 -0.0960 -0.0236  0.0412
    1AU       S  423   4.854   8.872   6.212 -0.3974  0.4424  0.3732
    1AU     LIG  424   4.994   8.495   6.427  0.1477  0.0307  0.1192
    1AU     LIG  425   5.158   8.220   6.286 -0.0206  0.1914 -0.0026
    1AU     LIG  426   5.184   7.695   6.380  0.1009  0.0091 -0.1081
    1AU     LIG  427   5.117   7.251   6.621 -0.4627  0.1912  0.0421
    1AU     LIG  428   5.258   6.805   6.576  0.0611 -0.0525  0.1053
    1AU     LIG  429   5.410   6.603   6.846 -0.2185  0.1099 -0.2480
    1AU    AUSL  430   4.814   9.184   6.792 -0.0406  0.0234  0.0512
    1AU    AUSL  431   4.776   9.312   7.283 -0.0274  0.0894 -0.0491
    1AU     AUL  432   5.021   9.401   7.137  0.0597  0.0589  0.0312
    1AU       S  433   4.943   9.005   7.537 -0.2711  0.3519 -0.2979
    1AU     LIG  434   5.367   9.048   7.396 -0.0728 -0.3096  0.0911
    1AU     LIG  435   5.753   9.026   7.258 -0.0284 -0.0872 -0.0164
    1AU     LIG  436   6.193   9.001   7.112  0.2583 -0.4709  0.3576
    1AU     LIG  437   6.478   9.033   7.388  0.0426 -0.0372  0.4200
    1AU     LIG  438   6.642   8.713   7.735 -0.1840 -0.0497  0.0346
    1AU     LIG  439   6.951   8.375   7.906  0.2395  0.1593 -0.0215
    1AU       S  440   5.259   9.033   6.846  0.3765 -0.1688  0.2400
    1AU     LIG  441   5.382   8.596   7.030 -0.2014 -0.1280  0.1896
    1AU     LIG  442   5.414   8.173   7.160  0.2773 -0.0435  0.0022
    1AU     LIG  443   5.719   7.882   7.062 -0.4725  0.2126 -0.0217
    1AU     LIG  444   5.922   7.476   7.143 -0.3330  0.0227 -0.0185
    1AU     LIG  445   6.241   7.184   6.991 -0.2482 -0.3126 -0.0295
    1AU     LIG  446   6.449   6.777   7.006  0.0987  0.2279 -0.0713
    1AU    AUSL  447   4.074   9.943   7.493  0.0215 -0.0202 -0.0732
    1AU    AUSL  448   4.013   9.594   7.543  0.0094 -0.0758 -0.0961
    1AU     AUL  449   3.772   9.700   7.565 -0.0293  0.0330  0.0295
    1AU       S  450   3.930  10.164   7.878 -0.2062  0.3687 -0.2503
    1AU     LIG  451   3.727  10.523   8.092  0.4167  0.0834  0.0100
    1AU     LIG  452   3.755  10.949   8.243  0.3381  0.0820 -0.0334
    1AU     LIG  453   3.629  11.285   8.283 -0.0047 -0.0555  0.0715
    1AU     LIG  454   3.562  11.568   8.449 -0.2032 -0.1452  0.4248
    1AU     LIG  455   3.833  11.701   8.870  0.5393 -0.2717  0.0021
    1AU     LIG  456   3.911  11.743   9.303  0.2490 -0.0814  0.0325
    1AU       S  457   3.906   9.550   8.052 -0.0394  0.1127  0.0461
    1AU     LIG  458   3.927   9.047   8.058  0.5114  0.0876  0.0635
    1AU     LIG  459   4.129   8.550   7.937 -0.0047 -0.1065 -0.0644
    1AU     LIG  460   4.381   8.363   7.784 -0.1729  0.0690  0.0471
    1AU     LIG  461   4.619   8.020   7.653  0.0273  0.2186  0.1888
    1AU     LIG  462   4.476   7.651   7.366 -0.1576 -0.1569 -0.2237
    1AU     LIG  463   4.558   7.260   7.125 -0.0396 -0.0518  0.3462
    1AU    AUSL  464   3.946  10.118   7.308 -0.0487 -0.0433  0.0072
    1AU    AUSL  465   4.213  10.154   7.356 -0.0124 -0.0669 -0.0505
    1AU     AUL  466   4.386  10.127   7.474  0.0615  0.1241 -0.1138
    1AU       S  467   3.767  10.344   7.621 -0.4622  0.2918  0.4477
    1AU     LIG  468   3.637  10.713   7.643 -0.2385  0.0333  0.1236
    1AU     LIG  469   3.676  11.173   7.759  0.4428 -0.4160 -0.1120
    1AU     LIG  470   3.502  11.613   7.922  0.1861 -0.0108  0.0542
    1AU     LIG  471   3.647  12.007   7.879  0.0497  0.6813 -0.0306
    1AU     LIG  472   3.855  12.131   7.502  0.0598 -0.0029 -0.0776
    1AU     LIG  473   3.756  12.399   7.196  0.1577 -0.0983  0.1165
    1AU       S  474   4.167  10.599   7.412  0.1033  0.0982 -0.1151
    1AU     LIG  475   4.115  10.788   7.897  0.2999  0.1599 -0.1437
    1AU     LIG  476   4.499  11.018   8.221 -0.1678  0.1626  0.1101
    1AU     LIG  477   4.899  11.133   8.333 -0.0525 -0.3276  0.1248
    1AU     LIG  478   5.345  11.312   8.376  0.0614  0.1906 -0.0799
    1AU     LIG  479   5.772  11.577   8.316 -0.1759  0.2582  0.0407
    1AU     LIG  480   6.072  11.498   8.597  0.1490 -0.1959  0.1913
    1AU    AUSL  481   3.809   9.894   7.373 -0.0000 -0.0457 -0.0101
    1AU    AUSL  482   3.750  10.078   7.099  0.0455  0.0254  0.0103
    1AU     AUL  483   3.562   9.729   7.375 -0.0555  0.0569 -0.0011
    1AU       S  484   3.518  10.480   7.142  0.0386  0.5636 -0.0377
    1AU     LIG  485   3.725  10.815   7.162 -0.3522 -0.0518  0.0666
    1AU     LIG  486   3.631  11.245   7.229  0.1973 -0.1781 -0.5245
    1AU     LIG  487   3.639  11.678   7.400 -0.3428  0.1343  0.2772
    1AU     LIG  488   3.349  12.142   7.377 -0.0443 -0.0771 -0.2204
    1AU     LIG  489   3.118  12.424   7.269 -0.3972  0.3756 -0.2890
    1AU     LIG  490   2.974  12.888   7.300 -0.1001 -0.6520 -0.0533
    1AU       S  491   3.640  10.200   7.641  0.0855  0.2941  0.0957
    1AU     LIG  492   3.321  10.416   7.790 -0.2443 -0.1301 -0.4496
    1AU     LIG  493   3.108  10.667   7.635 -0.1906 -0.1469 -0.0982
    1AU     LIG  494   3.139  11.117   7.546  0.2098 -0.3217  0.1500
    1AU     LIG  495   3.173  11.551   7.247  0.0598  0.1270  0.2357
    1AU     LIG  496   2.885  11.793   6.944 -0.3018 -0.1179  0.0570
    1AU     LIG  497   2.592  11.939   6.539 -0.1786 -0.0305  0.1134
    1AU    AUSL  498   4.413   9.211   6.366  0.0278  0.0008 -0.0361
    1AU    AUSL  499   4.394   9.028   6.594 -0.0179  0.0919 -0.0100
    1AU     AUL  500   4.401   9.396   6.273 -0.0234 -0.0549  0.0123
    1AU       S  501   4.590   8.892   6.093  0.2738  0.0130  0.1094
    1AU     LIG  502   4.595   8.447   6.063  0.1190 -0.0331 -0.0686
    1AU     LIG  503   4.322   8.144   6.076  0.0840  0.3123  0.2994
    1AU     LIG  504   3.873   8.238   6.124 -0.2232 -0.3627 -0.2386
    1AU     LIG  505   3.605   8.057   6.379  0.0582  0.0933 -0.0833
    1AU     LIG  506   3.371   7.927   6.698  0.0064  0.1569 -0.2589
    1AU     LIG  507   3.262   8.031   7.161 -0.0366  0.0512  0.0042
    1AU       S  508   4.305   8.599   6.469  0.0764 -0.3954  0.3534
    1AU     LIG  509   4.565   8.342   6.650 -0.0255 -0.0442 -0.0132
    1AU     LIG  510   4.697   7.908   6.503  0.2192 -0.2288  0.0230
    1AU     LIG  511   4.627   7.388   6.656  0.2635 -0.0394 -0.1232
    1AU     LIG  512   4.840   6.931   6.804  0.2119  0.3838 -0.1116
    1AU     LIG  513   5.191   6.940   7.116  0.0384  0.1074  0.4137
    1AU     LIG  514   5.472   7.241   7.069 -0.4859  0.1689  0.1815
    1AU    AUSL  515   4.684   9.420   6.363  0.0172 -0.0354 -0.0244
    1AU    AUSL  516   4.318   9.673   6.260 -0.0523  0.0494 -0.0194
    1AU     AUL  517   4.472   9.425   5.993 -0.0156  0.0518 -0.0048
    1AU       S  518   4.914   9.090   6.191  0.2185 -0.4286  0.0517
    1AU     LIG  519   5.296   8.940   5.830  0.1273 -0.1186 -0.1145
    1AU     LIG  520   5.628   8.657   5.916  0.0170  0.2444 -0.0468
    1AU     LIG  521   5.623   8.267   6.110 -0.2594 -0.1879 -0.1740
    1AU     LIG  522   5.630   7.937   6.275 -0.0831 -0.0761 -0.0116
    1AU     LIG  523   5.413   7.986   6.690 -0.2445  0.1210  0.0781
    1AU     LIG  524   5.093   8.165   6.793 -0.0636 -0.3512 -0.0746
    1AU       S  525   4.388   9.931   5.800 -0.2463  0.2403  0.3963
    1AU     LIG  526   4.138   9.698   5.490 -0.1718 -0.5568 -0.0563
    1AU     LIG  527   3.739   9.488   5.454 -0.0948 -0.0133  0.1986
    1AU     LIG  528   3.391   9.427   5.650  0.3939  0.4705  0.0458
    1AU     LIG  529   2.960   9.503   5.739 -0.0977  0.0221  0.0127
    1AU     LIG  530   2.583   9.114   5.794 -0.1846 -0.2762  0.2173
    1AU     LIG  531   2.348   8.687   5.693 -0.1098 -0.0681 -0.0572
    1AU    AUSL  532   3.628   9.932   6.851  0.0219 -0.0659  0.0198
    1AU    AUSL  533   3.842  10.155   6.823  0.0167 -0.0378 -0.0380
    1AU     AUL  534   3.534   9.776   6.882  0.0204  0.0502 -0.0401
    1AU       S  535   3.608  10.550   6.671 -0.0508  0.2193 -0.2998
    1AU     LIG  536   3.315  10.929   6.852 -0.2981  0.0535 -0.1539
    1AU     LIG  537   2.937  11.191   6.985  0.1077 -0.1763 -0.0845
    1AU     LIG  538   2.715  11.406   7.335 -0.1126  0.1060  0.3370
    1AU     LIG  539   2.439  11.690   7.208  0.3030 -0.0526 -0.2040
    1AU     LIG  540   2.376  12.016   7.015  0.3872  0.1355  0.4106
    1AU     LIG  541   2.738  12.410   6.948 -0.1372 -0.3503  0.0276
    1AU       S  542   3.342  10.269   6.952 -0.2358  0.2575 -0.2041
    1AU     LIG  543   2.951  10.085   6.946  0.0726  0.1244 -0.2267
    1AU     LIG  544   2.707   9.756   6.842  0.1027  0.3117  0.1217
    1AU     LIG  545   2.521   9.346   6.635 -0.0688 -0.0011  0.0982
    1AU     LIG  546   2.532   9.044   6.299 -0.1235 -0.3444 -0.3012
    1AU     LIG  547   2.763   8.683   6.271 -0.0192 -0.4492  0.2450
    1AU     LIG  548   3.140   8.560   6.182 -0.1336 -0.3881 -0.2475
    1AU    AUSL  549   3.689   9.794   7.138  0.0160 -0.0756 -0.0748
    1AU    AUSL  550   3.577   9.504   6.905  0.0316 -0.0237 -0.0844
    1AU     AUL  551   3.376   9.740   7.128  0.0626  0.0057 -0.0589
    1AU       S  552   3.367  10.271   7.190 -0.0265 -0.4808  0.2308
    1AU     LIG  553   3.098  10.161   7.412 -0.0940  0.1308  0.1746
    1AU     LIG  554   2.704   9.761   7.359  0.1206  0.3240 -0.1224
    1AU     LIG  555   2.302   9.606   7.125 -0.1097 -0.0271 -0.0627
    1AU     LIG  556   1.935   9.579   6.892 -0.0233  0.1804  0.3372
    1AU     LIG  557   1.524   9.386   6.886  0.3089 -0.1658 -0.2525
    1AU     LIG  558   1.341   9.015   6.947  0.3127 -0.0023 -0.0471
    1AU       S  559   3.099   9.309   7.026 -0.0482 -0.0309 -0.3078
    1AU     LIG  560   2.721   9.151   7.148 -0.0504  0.0121 -0.0399
    1AU     LIG  561   2.382   8.936   7.133  0.0496 -0.0827  0.0861
    1AU     LIG  562   2.227   8.718   7.309  0.1496  0.0969  0.1612
    1AU     LIG  563   2.305   8.871   7.752 -0.3503  0.0437 -0.1729
    1AU     LIG  564   2.508   8.998   8.019  0.0058 -0.4957 -0.0411
    1AU     LIG  565   2.637   8.998   8.454  0.1708  0.2271 -0.0324
    2POPC   NC3  566   5.820   8.285  10.170  0.0235  0.0077  0.1013
    2POPC   PO4  567   5.598   8.199   9.713  0.2790 -0.3009 -0.1700
    2POPC   GL1  568   5.420   8.395   9.366 -0.0912  0.0803 -0.1812
    2POPC   GL2  569   5.231   8.174   9.359  0.0774 -0.0426  0.4178
    2POPC   C1A  570   5.309   8.728   9.115  0.0077 -0.1000  0.1146
    2POPC   D2A  571   5.624   8.892   8.784  0.1031 -0.1024 -0.2754
    2POPC   C3A  572   5.746   9.211   8.605 -0.4080 -0.2232 -0.0219
    2POPC   C4A  573   5.936   9.526   8.361  0.0500  0.1345 -0.1228
    2POPC   C1B  574   5.429   8.236   8.885 -0.2087 -0.1601 -0.0129
    2POPC   C2B  575   5.594   8.292   8.414 -0.2190  0.0728  0.3847
    2POPC   C3B  576   5.634   7.970   8.049 -0.0959 -0.0833  0.0769
    2POPC   C4B  577   5.624   7.463   7.992  0.0084  0.0182  0.1125
    3POPC   NC3  578   3.656   0.835  10.157 -0.0584 -0.1838  0.0583
    3POPC   PO4  579   4.014   1.279  10.098  0.0159  0.1740 -0.1892
    3POPC   GL1  580   4.215   1.247   9.639  0.0734 -0.6136  0.2410
    3POPC   GL2  581   4.296   0.907   9.472  0.0900 -0.5374 -0.0780
    3POPC   C1A  582   4.390   1.403   9.233  0.2733 -0.0710  0.0800
    3POPC   D2A  583   4.365   1.561   8.758  0.3363  0.0547 -0.3608
    3POPC   C3A  584   4.756   1.700   8.677 -0.1893 -0.0865 -0.1152
    3POPC   C4A  585   5.035   1.744   8.272 -0.2179  0.0176 -0.0461
    3POPC   C1B  586   4.434   0.743   9.092 -0.0611  0.0304 -0.0757
    3POPC   C2B  587   4.171   0.684   8.639 -0.0514  0.3813  0.1781
    3POPC   C3B  588   4.287   0.349   8.429  0.0580 -0.1539  0.2566
    3POPC   C4B  589   4.494   0.313   8.067 -0.1218 -0.3305  0.0053
    4POPC   NC3  590   2.437   3.497   9.547  0.0228  0.2212 -0.0330
    4POPC   PO4  591   2.503   3.050   9.563  0.1365 -0.0592 -0.0606
    4POPC   GL1  592   2.624   2.905   9.178 -0.1737  0.0432 -0.1720
    4POPC   GL2  593   2.483   2.793   8.866 -0.0890  0.1934  0.0061
    4POPC   C1A  594   2.881   3.029   8.754  0.1920 -0.2153  0.0883
    4POPC   D2A  595   3.028   3.147   8.435 -0.0515 -0.1709  0.1686
    4POPC   C3A  596   2.745   3.190   8.070  0.1976  0.3387  0.2055
    4POPC   C4A  597   2.813   3.320   7.552  0.2767  0.0245  0.0074
    4POPC   C1B  598   2.767   2.556   8.658  0.0965  0.1128  0.0762
    4POPC   C2B  599   3.096   2.606   8.544 -0.3168 -0.0398  0.3251
    4POPC   C3B  600   3.272   2.641   8.121 -0.0800  0.1446  0.0338
    4POPC   C4B  601   3.081   2.912   7.774 -0.0759  0.0446  0.0188
    5POPC   NC3  602   7.176   7.547   9.015 -0.1081 -0.0457  0.0054
    5POPC   PO4  603   6.889   7.276   9.159  0.1676  0.0731 -0.0527
    5POPC   GL1  604   6.786   7.412   8.737 -0.2832  0.1114  0.1071
    5POPC   GL2  605   6.808   7.739   8.617 -0.3329 -0.3330  0.1867
    5POPC   C1A  606   6.630   7.281   8.365  0.4070 -0.1917  0.1532
    5POPC   D2A  607   6.925   6.980   8.103 -0.0153  0.1164 -0.2585
    5POPC   C3A  608   6.717   6.915   7.679  0.0825  0.2723  0.1864
    5POPC   C4A  609   6.423   7.003   7.529 -0.3105  0.0552  0.0994
    5POPC   C1B  610   6.679   7.798   8.225 -0.2905  0.2345  0.1724
    5POPC   C2B  611   6.702   7.941   7.808  0.0609 -0.0398  0.2141
    5POPC   C3B  612   6.888   7.825   7.552 -0.0223  0.0999 -0.0596
    5POPC   C4B  613   7.225   7.951   7.130  0.1575  0.1174  0.0833
    6POPC   NC3  614   5.777   9.101   9.925  0.0414 -0.3700  0.2710
    6POPC   PO4  615   5.372   9.178  10.123  0.0173  0.0037  0.1904
    6POPC   GL1  616   5.393   9.376   9.714  0.0079 -0.0866  0.0234
    6POPC   GL2  617   5.691   9.439   9.547 -0.0515 -0.0991 -0.0918
    6POPC   C1A  618   5.332   9.360   9.206  0.0861  0.2123  0.0024
    6POPC   D2A  619   5.259   9.258   8.811 -0.1525 -0.1798 -0.3270
    6POPC   C3A  620   5.279   9.372   8.333  0.1485 -0.2132  0.0070
    6POPC   C4A  621   5.576   9.186   8.046 -0.0769 -0.1287  0.1314
    6POPC   C1B  622   5.436   9.825   9.350 -0.0757  0.1886 -0.1910
    6POPC   C2B  623   5.248   9.952   8.915  0.1960 -0.2099 -0.2708
    6POPC   C3B  624   5.260  10.054   8.534  0.2464  0.1710  0.0859
    6POPC   C4B  625   5.438  10.239   8.096  0.3971 -0.1684 -0.0110
    7POPC   NC3  626   7.466   3.101   9.047 -0.1453 -0.0247 -0.0129
    7POPC   PO4  627   7.618   2.703   9.269  0.1615  0.1703 -0.0802
    7POPC   GL1  628   7.456   2.494   8.965 -0.0210 -0.2818  0.0291
    7POPC   GL2  629   7.181   2.659   8.834 -0.1738  0.2413 -0.3229
    7POPC   C1A  630   7.581   2.399   8.708  0.2608 -0.0629 -0.1175
    7POPC   D2A  631   7.920   2.439   8.307  0.0870  0.0926  0.3113
    7POPC   C3A  632   7.933   2.393   7.951  0.0403 -0.1213 -0.1470
    7POPC   C4A  633   7.858   2.376   7.464  0.1814 -0.1042  0.0629
    7POPC   C1B  634   7.265   2.871   8.470 -0.0647 -0.1229 -0.0136
    7POPC   C2B  635   7.378   2.962   8.027 -0.0200 -0.0332 -0.1005
    7POPC   C3B  636   7.100   2.915   7.640  0.4119 -0.0967  0.3513
    7POPC   C4B  637   6.900   3.272   7.381  0.3345 -0.1728 -0.3314
    8POPC   NC3  638   3.198   4.627   9.150  0.2552 -0.1224 -0.3350
    8POPC   PO4  639   2.755   4.759   9.375 -0.2132 -0.1786  0.2502
    8POPC   GL1  640   2.689   4.716   8.901 -0.0650 -0.0231  0.1505
    8POPC   GL2  641   2.475   4.892   8.648  0.1290 -0.1848  0.2620
    8POPC   C1A  642   2.554   4.383   8.707  0.1840 -0.0509  0.0664
    8POPC   D2A  643   2.431   3.939   8.604 -0.1983  0.0113 -0.0061
    8POPC   C3A  644   2.255   3.774   8.297 -0.0449  0.0335 -0.0408
    8POPC   C4A  645   2.226   3.280   8.175 -0.0625  0.0227 -0.1892
    8POPC   C1B  646   2.731   4.767   8.398  0.1202  0.0438  0.2530
    8POPC   C2B  647   3.027   4.632   8.138  0.0243  0.0802 -0.0685
    8POPC   C3B  648   3.494   4.551   7.891 -0.0029  0.1525  0.0864
    8POPC   C4B  649   3.664   4.095   7.865 -0.0319  0.3575  0.2989
    9POPC   NC3  650   5.088   5.181   8.677  0.0134 -0.0771  0.1681
    9POPC   PO4  651   5.021   4.815   8.965  0.2108 -0.0660  0.2839
    9POPC   GL1  652   4.816   4.775   8.588 -0.1293  0.2341  0.2537
    9POPC   GL2  653   4.964   4.885   8.329 -0.2582  0.2684  0.0539
    9POPC   C1A  654   4.803   4.405   8.379 -0.2470 -0.1647 -0.2218
    9POPC   D2A  655   4.631   4.237   8.009  0.0589  0.0757 -0.0493
    9POPC   C3A  656   4.548   4.562   7.692  0.2144 -0.0111 -0.4496
    9POPC   C4A  657   4.468   4.926   7.417 -0.0477  0.0901 -0.3103
    9POPC   C1B  658   5.229   5.055   7.998 -0.1212  0.0148  0.0799
    9POPC   C2B  659   5.443   5.075   7.590  0.0992 -0.1174 -0.3180
    9POPC   C3B  660   5.718   5.268   7.270  0.0667 -0.1356 -0.1197
    9POPC   C4B  661   6.101   5.494   7.139  0.0152 -0.2287 -0.1638
   10POPC   NC3  662   9.565   3.676   9.145  0.0677 -0.2779  0.1501
   10POPC   PO4  663   9.318   3.292   9.075  0.2620  0.2235  0.4091
   10POPC   GL1  664   9.449   3.147   8.638 -0.0106  0.4615 -0.1271
   10POPC   GL2  665   9.771   3.029   8.479  0.0663  0.2682  0.1160
   10POPC   C1A  666   9.101   3.030   8.369 -0.3386  0.2803  0.0933
   10POPC   D2A  667   9.165   3.015   7.849  0.0275  0.5265 -0.1673
   10POPC   C3A  668   8.930   2.930   7.470 -0.3362 -0.0983  0.0581
   10POPC   C4A  669   9.059   2.693   7.167 -0.1960 -0.2897 -0.1022
   10POPC   C1B  670   9.644   2.877   8.085  0.1508 -0.0324 -0.3249
   10POPC   C2B  671   9.734   3.152   7.762 -0.2974  0.1808 -0.3316
   10POPC   C3B  672   9.692   3.342   7.466 -0.3975  0.0301 -0.0244
   10POPC   C4B  673   9.366   3.822   7.448  0.1306 -0.2961  0.1541
   11POPC   NC3  674   9.639   3.614   8.644 -0.3102 -0.1589  0.0373
   11POPC   PO4  675   9.692   4.074   8.803 -0.1339 -0.0178  0.0329
   11POPC   GL1  676   9.760   4.277   8.564  0.1250  0.0888  0.2568
   11POPC   GL2  677   9.454   4.411   8.400 -0.3023  0.0306  0.3672
   11POPC   C1A  678   9.887   4.237   8.087 -0.1534  0.1623  0.3330
   11POPC   D2A  679  10.141   4.416   7.634  0.2278  0.1220 -0.4058
   11POPC   C3A  680  10.142   4.331   7.168 -0.1580  0.1295  0.2306
   11POPC   C4A  681   9.987   4.478   6.698  0.3034  0.2826  0.1401
   11POPC   C1B  682   9.674   4.696   8.246 -0.0052 -0.3954  0.3300
   11POPC   C2B  683   9.759   5.118   8.135  0.0129 -0.2868 -0.2093
   11POPC   C3B  684   9.792   5.441   7.922  0.0412  0.0667  0.0042
   11POPC   C4B  685   9.523   5.885   7.858 -0.3300 -0.1503  0.1291
   12POPC   NC3  686   0.294   7.167   8.995  0.0381  0.1306  0.1938
   12POPC   PO4  687   0.705   7.082   8.969 -0.0191  0.1254 -0.0110
   12POPC   GL1  688   0.838   7.193   8.577 -0.1387  0.1248 -0.0250
   12POPC   GL2  689   0.853   6.886   8.282 -0.0773 -0.1731 -0.1648
   12POPC   C1A  690   0.776   7.307   8.071 -0.1582 -0.2227 -0.2282
   12POPC   D2A  691   0.836   7.421   7.642 -0.0799  0.0816 -0.1572
   12POPC   C3A  692   0.903   7.702   7.461  0.1609 -0.0321  0.1903
   12POPC   C4A  693   1.058   7.952   7.103  0.2266  0.1656 -0.0732
   12POPC   C1B  694   1.113   6.931   7.901 -0.1997 -0.0781  0.1820
   12POPC   C2B  695   1.468   6.899   7.681  0.1975 -0.0753 -0.0188
   12POPC   C3B  696   1.847   7.105   7.467  0.3516 -0.2757 -0.1982
   12POPC   C4B  697   1.723   7.414   7.152  0.0001  0.1143  0.0186
   13POPC   NC3  698   8.818   7.684   8.929 -0.1090  0.2275  0.0527
   13POPC   PO4  699   8.425   7.347   8.910 -0.3492 -0.4538  0.3715
   13POPC   GL1  700   8.432   7.525   8.527 -0.0734 -0.0295  0.0901
   13POPC   GL2  701   8.367   7.187   8.427 -0.5124 -0.2302  0.2127
   13POPC   C1A  702   8.581   7.580   8.150  0.0323 -0.0708 -0.4191
   13POPC   D2A  703   8.497   7.284   7.825  0.1792  0.1111  0.3087
   13POPC   C3A  704   8.596   7.198   7.422  0.1800  0.1218 -0.1894
   13POPC   C4A  705   8.680   6.967   7.085 -0.0331 -0.1580  0.5394
   13POPC   C1B  706   8.098   7.403   8.042  0.1559 -0.2523 -0.1536
   13POPC   C2B  707   8.195   7.527   7.539  0.1058  0.0044 -0.0812
   13POPC   C3B  708   7.991   7.603   7.128 -0.0201  0.2269  0.1538
   13POPC   C4B  709   7.635   7.633   6.881 -0.1012 -0.2545  0.0717
   14POPC   NC3  710   6.503   8.542   9.490  0.0135  0.1633  0.0089
   14POPC   PO4  711   6.397   8.782   9.678  0.2598 -0.0027  0.1073
   14POPC   GL1  712   6.115   8.899   9.385 -0.2604  0.2367  0.1303
   14POPC   GL2  713   6.201   9.170   9.487  0.2300 -0.0952  0.0347
   14POPC   C1A  714   5.837   8.649   9.150 -0.0220 -0.0690 -0.0708
   14POPC   D2A  715   5.848   8.457   8.798  0.2407  0.2546 -0.2968
   14POPC   C3A  716   5.989   8.026   8.811  0.0061 -0.0619  0.0483
   14POPC   C4A  717   6.340   7.707   8.670  0.1514 -0.0371  0.1329
   14POPC   C1B  718   6.385   9.408   9.103 -0.2762 -0.1028 -0.1880
   14POPC   C2B  719   6.376   9.428   8.646  0.3155 -0.1541 -0.0547
   14POPC   C3B  720   6.487   9.297   8.321  0.0178  0.0867 -0.0070
   14POPC   C4B  721   6.478   9.138   7.922 -0.0110 -0.0761  0.0111
   15POPC   NC3  722   0.547   8.511   9.113 -0.2493 -0.0161  0.0565
   15POPC   PO4  723   0.208   8.788   9.118  0.2528 -0.1774  0.1359
   15POPC   GL1  724   0.158   8.568   8.748  0.4100  0.2146 -0.0671
   15POPC   GL2  725  -0.124   8.360   8.662  0.0008 -0.3161 -0.1568
   15POPC   C1A  726   0.287   8.477   8.300  0.0548  0.3016 -0.0609
   15POPC   D2A  727   0.585   8.356   7.972  0.1227  0.0140 -0.1225
   15POPC   C3A  728   0.822   8.670   7.686  0.0105 -0.1116 -0.2461
   15POPC   C4A  729   0.992   9.032   7.552  0.0171 -0.0636  0.0198
   15POPC   C1B  730  -0.155   8.263   8.238  0.0268  0.1871  0.0156
   15POPC   C2B  731  -0.547   8.261   8.051  0.2331 -0.0058 -0.0105
   15POPC   C3B  732  -0.787   8.154   7.649 -0.0074  0.3263  0.5307
   15POPC   C4B  733  -1.173   8.096   7.444  0.1964  0.1806  0.2172
   16POPC   NC3  734   4.483   6.487   9.397  0.0087 -0.0285 -0.1227
   16POPC   PO4  735   4.458   6.732   9.860 -0.0311 -0.2446  0.0663
   16POPC   GL1  736   4.481   6.984   9.320  0.1435  0.1112  0.0549
   16POPC   GL2  737   4.298   7.230   9.378  0.0728 -0.2260 -0.1782
   16POPC   C1A  738   4.448   7.009   8.873 -0.0325  0.1423  0.0516
   16POPC   D2A  739   4.788   7.070   8.594 -0.1685  0.2842  0.0426
   16POPC   C3A  740   4.798   6.731   8.390 -0.1322 -0.1884  0.0361
   16POPC   C4A  741   5.141   6.568   8.162 -0.0309 -0.1250  0.0782
   16POPC   C1B  742   4.045   7.504   9.145  0.0231  0.3401 -0.0870
   16POPC   C2B  743   4.064   7.921   8.832  0.7403  0.1100  0.1130
   16POPC   C3B  744   3.693   8.181   8.652 -0.0202  0.0972 -0.0068
   16POPC   C4B  745   3.205   8.304   8.663  0.1143  0.0747 -0.0070
   17POPC   NC3  746   1.454   1.274   8.911 -0.0289  0.0620  0.0094
   17POPC   PO4  747   1.373   1.677   8.940  0.0203 -0.0229  0.1236
   17POPC   GL1  748   1.293   1.571   8.555  0.2236  0.1165  0.3443
   17POPC   GL2  749   1.189   1.815   8.289  0.0523  0.1433 -0.1844
   17POPC   C1A  750   1.462   1.426   8.128 -0.2313 -0.3230 -0.4177
   17POPC   D2A  751   1.414   1.384   7.631  0.4862 -0.0610  0.2091
   17POPC   C3A  752   1.786   1.179   7.378 -0.0745 -0.2386 -0.0315
   17POPC   C4A  753   2.244   1.139   7.552  0.0522  0.1002 -0.0534
   17POPC   C1B  754   1.111   1.707   7.851 -0.0856  0.2255  0.1735
   17POPC   C2B  755   1.090   1.613   7.313 -0.0378  0.0772 -0.0567
   17POPC   C3B  756   1.422   1.646   6.959  0.0795  0.2028 -0.1216
   17POPC   C4B  757   1.821   1.871   6.741 -0.0684  0.0501 -0.1999
   18POPC   NC3  758   0.512   0.459   9.015 -0.2161  0.0388 -0.2773
   18POPC   PO4  759   0.938   0.408   8.881  0.0021 -0.1392  0.1161
   18POPC   GL1  760   1.068   0.520   8.515  0.2027  0.2316  0.1496
   18POPC   GL2  761   1.151   0.392   8.324 -0.2206  0.1165 -0.1344
   18POPC   C1A  762   0.766   0.822   8.245 -0.2369  0.3217 -0.0835
   18POPC   D2A  763   0.537   0.813   7.886  0.3617  0.0212  0.0977
   18POPC   C3A  764   0.202   1.130   7.817 -0.0674  0.0745 -0.0044
   18POPC   C4A  765  -0.118   1.331   7.584 -0.0244  0.0670  0.1259
   18POPC   C1B  766   1.075   0.512   7.880 -0.0159  0.0953  0.1569
   18POPC   C2B  767   1.033   0.187   7.674  0.0036  0.0220 -0.0145
   18POPC   C3B  768   0.955   0.176   7.263 -0.0287  0.1710  0.0816
   18POPC   C4B  769   0.838   0.127   6.709  0.4699 -0.2405 -0.1028
   19POPC   NC3  770   5.354   3.675   9.181 -0.0387 -0.1620  0.1931
   19POPC   PO4  771   5.149   3.524   8.865  0.3134 -0.1272 -0.0882
   19POPC   GL1  772   5.311   3.493   8.543  0.2743  0.0345 -0.4383
   19POPC   GL2  773   5.658   3.369   8.464  0.0507 -0.0499  0.1861
   19POPC   C1A  774   5.210   3.365   8.189  0.1900  0.1355  0.2154
   19POPC   D2A  775   5.142   3.211   7.830  0.0924  0.0797 -0.0617
   19POPC   C3A  776   4.897   2.970   7.559  0.1069  0.1399  0.0697
   19POPC   C4A  777   4.975   2.692   7.131  0.1250  0.0186  0.0745
   19POPC   C1B  778   5.707   3.067   8.093  0.3637  0.1263 -0.3166
   19POPC   C2B  779   5.426   2.741   7.833  0.1141  0.2405  0.0080
   19POPC   C3B  780   5.097   2.504   7.657 -0.1781  0.0294  0.0407
   19POPC   C4B  781   4.944   2.178   7.456  0.2110 -0.3128 -0.1029
   20POPC   NC3  782   3.438   5.943   8.677  0.1102 -0.1085  0.1265
   20POPC   PO4  783   3.536   6.356   8.991 -0.2643  0.1342 -0.0041
   20POPC   GL1  784   3.704   6.446   8.620  0.0886 -0.0777 -0.1175
   20POPC   GL2  785   3.987   6.507   8.678  0.2085 -0.0587  0.1995
   20POPC   C1A  786   3.609   6.439   8.170  0.0661  0.3924  0.0807
   20POPC   D2A  787   3.677   6.551   7.660  0.2093  0.0356 -0.5303
   20POPC   C3A  788   3.757   6.380   7.289  0.0681  0.0390 -0.2711
   20POPC   C4A  789   4.002   6.445   6.948 -0.1942  0.1902 -0.0099
   20POPC   C1B  790   4.302   6.789   8.442 -0.1786  0.0065  0.0376
   20POPC   C2B  791   4.484   6.912   8.001 -0.2099  0.0237 -0.1266
   20POPC   C3B  792   4.447   7.169   7.622 -0.0834 -0.1906  0.0363
   20POPC   C4B  793   4.117   7.333   7.422 -0.1038  0.0536  0.0398
   21POPC   NC3  794   9.282   8.517   9.108  0.1709  0.1672  0.0596
   21POPC   PO4  795   9.476   8.230   9.359 -0.0811  0.0111  0.0174
   21POPC   GL1  796   9.580   8.055   9.015 -0.0061 -0.2315  0.0106
   21POPC   GL2  797   9.928   8.002   8.958 -0.1524  0.2380 -0.2547
   21POPC   C1A  798   9.551   8.197   8.530  0.0069 -0.0717 -0.0337
   21POPC   D2A  799   9.617   8.646   8.366 -0.0554  0.2038 -0.1609
   21POPC   C3A  800   9.925   8.656   8.006 -0.3282 -0.0318  0.0674
   21POPC   C4A  801   9.891   8.507   7.609  0.1792 -0.2370  0.1220
   21POPC   C1B  802   9.931   7.859   8.513 -0.3197 -0.0067  0.3964
   21POPC   C2B  803  10.088   7.656   8.138 -0.0617  0.2679 -0.0336
   21POPC   C3B  804  10.011   7.519   7.599 -0.0849  0.0788 -0.0812
   21POPC   C4B  805  10.087   7.516   7.065  0.2165 -0.2006 -0.2004
   22POPC   NC3  806   2.328   8.427   9.613  0.1685  0.0331  0.1473
   22POPC   PO4  807   1.889   8.560   9.440  0.0755  0.0287  0.0187
   22POPC   GL1  808   1.917   8.435   9.009  0.2777  0.2713  0.1245
   22POPC   GL2  809   2.105   8.273   8.728  0.1755  0.0350  0.1864
   22POPC   C1A  810   1.705   8.629   8.611  0.0623  0.2974 -0.1269
   22POPC   D2A  811   1.606   8.898   8.314  0.0283 -0.1490 -0.3329
   22POPC   C3A  812   1.601   9.304   8.362 -0.0494  0.0831 -0.1735
   22POPC   C4A  813   1.776   9.715   8.242 -0.1806 -0.4456  0.0274
   22POPC   C1B  814   2.574   8.414   8.673 -0.3619  0.1526 -0.1713
   22POPC   C2B  815   2.880   8.722   8.789  0.0405  0.1177  0.4527
   22POPC   C3B  816   3.263   8.907   8.749  0.2586  0.0357 -0.0501
   22POPC   C4B  817   3.574   9.245   8.515 -0.0188 -0.1044 -0.0868
   23POPC   NC3  818   6.931   9.996   9.256 -0.0964  0.0486  0.2148
   23POPC   PO4  819   6.608  10.323   9.472  0.2152  0.3895  0.4708
   23POPC   GL1  820   6.552  10.276   9.014 -0.0780  0.2997  0.0772
   23POPC   GL2  821   6.453   9.959   9.006 -0.1730  0.0483  0.1187
   23POPC   C1A  822   6.267  10.312   8.645 -0.0737 -0.0989  0.2299
   23POPC   D2A  823   5.968  10.512   8.283 -0.2572 -0.1635 -0.1384
   23POPC   C3A  824   5.672  10.672   8.283 -0.1475  0.0805  0.3185
   23POPC   C4A  825   5.278  10.730   8.473  0.2768  0.1022 -0.0136
   23POPC   C1B  826   6.670   9.902   8.669  0.2703  0.1295 -0.0225
   23POPC   C2B  827   6.906   9.746   8.305  0.4322 -0.1696 -0.2781
   23POPC   C3B  828   6.865   9.526   7.919 -0.0084 -0.0034  0.0514
   23POPC   C4B  829   6.886   9.587   7.501  0.0071 -0.2889  0.1511
   24POPC   NC3  830   6.842   9.277   9.656  0.0295  0.3070 -0.2211
   24POPC   PO4  831   7.095   9.094   9.336  0.0827  0.0245  0.0953
   24POPC   GL1  832   7.393   9.205   8.912  0.0361  0.2414 -0.0907
   24POPC   GL2  833   7.698   9.369   8.848 -0.1606 -0.0336  0.0309
   24POPC   C1A  834   7.220   9.314   8.456 -0.0773  0.1529 -0.1977
   24POPC   D2A  835   6.938   9.076   8.237  0.0465  0.0865 -0.0951
   24POPC   C3A  836   6.966   9.052   7.730 -0.3450  0.0832 -0.0797
   24POPC   C4A  837   7.175   8.697   7.638  0.0257  0.2417  0.0527
   24POPC   C1B  838   7.743   9.651   8.509 -0.2365 -0.4900 -0.2305
   24POPC   C2B  839   7.867   9.938   8.152  0.3005 -0.0442  0.0560
   24POPC   C3B  840   7.472  10.169   7.879  0.2386 -0.1678  0.0634
   24POPC   C4B  841   7.171  10.092   7.489  0.1876  0.0176  0.0904
   25POPC   NC3  842   9.178   5.758   9.256  0.2915  0.1491 -0.0916
   25POPC   PO4  843   9.274   5.806   8.802  0.2239 -0.0058 -0.1379
   25POPC   GL1  844   9.252   5.956   8.431 -0.0243 -0.0324  0.0243
   25POPC   GL2  845   9.428   5.759   8.307 -0.1023  0.2882 -0.2555
   25POPC   C1A  846   8.948   6.101   8.071  0.2577  0.0023  0.0406
   25POPC   D2A  847   8.648   6.318   7.749 -0.1061 -0.0315 -0.1761
   25POPC   C3A  848   8.554   6.215   7.349 -0.1327 -0.0704 -0.0595
   25POPC   C4A  849   8.442   6.057   6.987 -0.1546  0.0275 -0.3234
   25POPC   C1B  850   9.701   6.148   8.206 -0.1597  0.3862  0.1083
   25POPC   C2B  851   9.710   6.335   7.726 -0.0840 -0.1121 -0.0586
   25POPC   C3B  852  10.040   6.347   7.455 -0.2614 -0.0802 -0.1112
   25POPC   C4B  853  10.213   6.190   7.041 -0.0620 -0.1683  0.0389
   26POPC   NC3  854   8.212   1.935   9.403 -0.0779 -0.0166  0.0119
   26POPC   PO4  855   7.817   1.912   9.326 -0.1057  0.1122 -0.0513
   26POPC   GL1  856   7.820   1.706   8.861 -0.1537  0.0117 -0.1789
   26POPC   GL2  857   7.545   1.886   8.785 -0.1088 -0.1109  0.2251
   26POPC   C1A  858   7.927   1.578   8.419 -0.2276  0.1967 -0.2342
   26POPC   D2A  859   7.755   1.471   8.088  0.0726 -0.0862 -0.1408
   26POPC   C3A  860   7.801   1.180   7.868 -0.1218 -0.2628  0.0745
   26POPC   C4A  861   8.071   1.089   7.490 -0.0987 -0.0097 -0.3146
   26POPC   C1B  862   7.661   1.971   8.511  0.0411  0.1033  0.0666
   26POPC   C2B  863   7.645   2.007   8.135 -0.0958  0.1439  0.0999
   26POPC   C3B  864   7.498   2.013   7.696  0.1754  0.0998  0.4346
   26POPC   C4B  865   7.763   1.968   7.283  0.0377 -0.1420  0.0680
   27POPC   NC3  866   3.021   5.570   9.353  0.0174  0.0394  0.0145
   27POPC   PO4  867   3.083   5.592   8.872  0.3128 -0.0460 -0.0832
   27POPC   GL1  868   3.027   5.612   8.372  0.0816  0.1454 -0.5513
   27POPC   GL2  869   3.192   5.827   8.178  0.1690 -0.0913  0.2876
   27POPC   C1A  870   2.952   5.343   7.972 -0.1406  0.1716  0.0912
   27POPC   D2A  871   2.984   5.357   7.565 -0.2524 -0.2910  0.0129
   27POPC   C3A  872   3.419   5.306   7.471 -0.0143  0.0615  0.2218
   27POPC   C4A  873   3.691   5.027   7.722  0.2722 -0.0205  0.3190
   27POPC   C1B  874   3.370   5.805   7.700 -0.2269  0.0584  0.0602
   27POPC   C2B  875   3.251   5.795   7.329  0.0950  0.2240 -0.0097
   27POPC   C3B  876   3.069   6.038   7.059  0.1563  0.1576  0.1431
   27POPC   C4B  877   2.874   6.406   6.884 -0.0395 -0.2829 -0.2285
   28POPC   NC3  878   5.305   3.127   9.111 -0.0042 -0.1941  0.1000
   28POPC   PO4  879   5.734   2.898   9.245  0.0655 -0.0547  0.1790
   28POPC   GL1  880   5.688   2.881   8.826 -0.1452 -0.0318  0.2481
   28POPC   GL2  881   5.968   2.953   8.604  0.0314  0.0735  0.1283
   28POPC   C1A  882   5.377   2.987   8.498 -0.1094 -0.0289  0.4142
   28POPC   D2A  883   5.061   2.765   8.187 -0.2301  0.3711 -0.2874
   28POPC   C3A  884   4.729   2.724   7.954 -0.1719 -0.1665 -0.1638
   28POPC   C4A  885   4.354   2.660   7.910 -0.0763 -0.0811 -0.1414
   28POPC   C1B  886   5.857   2.644   8.320  0.1603 -0.0531 -0.0514
   28POPC   C2B  887   5.896   2.251   8.084 -0.0220  0.0330  0.0862
   28POPC   C3B  888   6.193   1.992   7.573  0.1068 -0.0533  0.1277
   28POPC   C4B  889   6.409   1.753   7.291 -0.0443 -0.0902  0.1550
   29POPC   NC3  890   1.300   7.847   9.529  0.1080  0.1690 -0.0115
   29POPC   PO4  891   1.418   7.641   9.010 -0.0239  0.1075 -0.4185
   29POPC   GL1  892   1.524   7.640   8.682 -0.1249 -0.1593  0.3414
   29POPC   GL2  893   1.690   7.952   8.704 -0.2285  0.0145 -0.0034
   29POPC   C1A  894   1.936   7.640   8.411  0.1727 -0.0298  0.2378
   29POPC   D2A  895   2.184   7.801   8.103 -0.2754 -0.0218 -0.0445
   29POPC   C3A  896   2.298   8.237   8.202 -0.2357  0.1629  0.2252
   29POPC   C4A  897   2.594   8.500   8.129  0.2445 -0.1654 -0.0092
   29POPC   C1B  898   1.836   8.162   8.296  0.0868 -0.4091 -0.0540
   29POPC   C2B  899   1.601   8.445   8.030  0.1328 -0.0871  0.2371
   29POPC   C3B  900   1.141   8.361   8.029 -0.0258 -0.0874  0.0966
   29POPC   C4B  901   1.048   8.660   8.256  0.3582 -0.2766  0.1425
   30POPC   NC3  902   4.534   7.906  10.119 -0.2216 -0.1991  0.3385
   30POPC   PO4  903   4.671   7.709   9.796  0.1430 -0.0587  0.3135
   30POPC   GL1  904   4.532   7.636   9.356 -0.0755 -0.1952  0.1984
   30POPC   GL2  905   4.890   7.702   9.251 -0.0584  0.1492  0.4132
   30POPC   C1A  906   4.454   7.638   8.954 -0.0313 -0.2815 -0.2088
   30POPC   D2A  907   4.327   7.365   8.575 -0.0882  0.2100  0.0047
   30POPC   C3A  908   3.880   7.233   8.655  0.2037  0.2036  0.2596
   30POPC   C4A  909   3.875   6.951   8.821 -0.0208 -0.0200  0.1510
   30POPC   C1B  910   4.942   8.040   8.950 -0.1278  0.0851 -0.1149
   30POPC   C2B  911   4.929   8.403   8.730 -0.0336  0.2894  0.0160
   30POPC   C3B  912   5.086   8.393   8.319 -0.0610  0.2404 -0.1731
   30POPC   C4B  913   5.320   8.342   7.993  0.1033 -0.1397 -0.1135
   31POPC   NC3  914   7.506   0.089   9.678 -0.1616  0.1433  0.0014
   31POPC   PO4  915   7.485  -0.134   9.253 -0.0936 -0.3664 -0.2058
   31POPC   GL1  916   7.581  -0.029   8.839 -0.0433  0.1092 -0.0482
   31POPC   GL2  917   7.762  -0.209   8.865 -0.0704 -0.1975  0.1274
   31POPC   C1A  918   7.464   0.081   8.412  0.1468  0.2222 -0.1710
   31POPC   D2A  919   7.419   0.392   8.128  0.2489 -0.1876  0.1078
   31POPC   C3A  920   7.351   0.407   7.665 -0.1070 -0.0020 -0.4891
   31POPC   C4A  921   7.508   0.252   7.284  0.0514 -0.0063  0.1073
   31POPC   C1B  922   8.229  -0.163   8.805 -0.1412  0.0632  0.0850
   31POPC   C2B  923   8.530  -0.007   8.449  0.0350  0.1791 -0.3197
   31POPC   C3B  924   8.363  -0.116   8.018 -0.2019  0.3413 -0.0449
   31POPC   C4B  925   8.403  -0.190   7.603 -0.1613 -0.2118 -0.2308
   32POPC   NC3  926   0.452   7.559   9.386 -0.0078  0.1377  0.0221
   32POPC   PO4  927   0.471   7.981   9.219  0.1328  0.2007 -0.0829
   32POPC   GL1  928   0.591   7.609   8.856  0.0723  0.0474  0.4359
   32POPC   GL2  929   0.959   7.692   8.682 -0.2045  0.0933  0.0093
   32POPC   C1A  930   0.534   7.629   8.397  0.0006  0.0064 -0.5607
   32POPC   D2A  931   0.274   7.988   8.153  0.1386  0.1044  0.0027
   32POPC   C3A  932   0.062   7.996   7.828 -0.1271 -0.0514  0.2109
   32POPC   C4A  933  -0.312   8.029   7.540 -0.0764 -0.0319  0.0049
   32POPC   C1B  934   1.203   7.428   8.367  0.0077  0.1738 -0.3376
   32POPC   C2B  935   1.338   7.399   7.981 -0.3565  0.0309 -0.0969
   32POPC   C3B  936   1.343   7.384   7.607 -0.2409  0.1890  0.0775
   32POPC   C4B  937   1.109   7.473   7.130 -0.2580  0.1845 -0.3280
   33POPC   NC3  938   3.010   0.678   9.706 -0.0700 -0.0450  0.0399
   33POPC   PO4  939   3.344   0.705   9.817 -0.0911  0.1923 -0.1213
   33POPC   GL1  940   3.478   0.644   9.530  0.0388 -0.2242  0.3335
   33POPC   GL2  941   3.860   0.524   9.427  0.2317 -0.0091 -0.1499
   33POPC   C1A  942   3.741   1.036   9.214  0.0193 -0.2111  0.3747
   33POPC   D2A  943   4.115   1.116   8.961  0.0918 -0.1461  0.3231
   33POPC   C3A  944   4.123   1.184   8.479  0.0406  0.3976 -0.0727
   33POPC   C4A  945   4.124   1.020   8.147  0.1254 -0.1564  0.0831
   33POPC   C1B  946   3.905   0.094   9.250 -0.4271 -0.1730  0.2067
   33POPC   C2B  947   3.932  -0.196   9.104  0.2160  0.0479  0.1600
   33POPC   C3B  948   4.323  -0.469   8.918  0.0107 -0.0007 -0.0292
   33POPC   C4B  949   4.418  -0.849   8.916  0.1399 -0.1855  0.2612
   34POPC   NC3  950   8.164   3.522   9.420 -0.1227  0.0012 -0.2088
   34POPC   PO4  951   8.427   3.688   8.993 -0.2445 -0.2410 -0.1492
   34POPC   GL1  952   8.414   3.522   8.562  0.2320 -0.1136 -0.4811
   34POPC   GL2  953   8.166   3.336   8.331 -0.1280  0.0161  0.0043
   34POPC   C1A  954   8.688   3.579   8.187 -0.2352 -0.0168 -0.4388
   34POPC   D2A  955   8.946   3.753   8.032 -0.3092 -0.6286 -0.1339
   34POPC   C3A  956   9.282   3.515   7.791 -0.0576 -0.1934 -0.0023
   34POPC   C4A  957   9.209   3.320   7.408  0.2384 -0.2224 -0.2954
   34POPC   C1B  958   8.245   3.445   7.939 -0.1910 -0.0520  0.3691
   34POPC   C2B  959   8.275   3.567   7.457  0.2957 -0.1768 -0.1698
   34POPC   C3B  960   8.362   3.865   7.242 -0.0662 -0.0283 -0.0484
   34POPC   C4B  961   8.286   4.286   7.166 -0.1120  0.0806  0.2382
   35POPC   NC3  962   7.575   9.386   9.349  0.2549 -0.1909  0.2332
   35POPC   PO4  963   7.236   9.664   9.595  0.2188 -0.0154 -0.0551
   35POPC   GL1  964   7.157   9.590   9.169  0.3312  0.6115  0.1410
   35POPC   GL2  965   7.258   9.730   8.975 -0.0664 -0.1337 -0.0328
   35POPC   C1A  966   6.849   9.435   8.806 -0.0310 -0.0604  0.0258
   35POPC   D2A  967   6.630   8.981   8.673  0.0668 -0.1273 -0.3616
   35POPC   C3A  968   6.556   8.748   8.266 -0.1593  0.0768  0.0694
   35POPC   C4A  969   6.487   8.282   8.113  0.2596  0.0013  0.0294
   35POPC   C1B  970   7.289   9.758   8.643  0.0609 -0.1547 -0.2052
   35POPC   C2B  971   7.387   9.752   8.188 -0.0412  0.0188 -0.3151
   35POPC   C3B  972   7.334   9.705   7.766 -0.1807  0.1895  0.3402
   35POPC   C4B  973   7.365   9.555   7.336 -0.1887 -0.2958 -0.0310
   36POPC   NC3  974   5.422   7.779   9.568 -0.2045 -0.2692  0.0002
   36POPC   PO4  975   5.445   7.445   9.305  0.0598  0.0669  0.3096
   36POPC   GL1  976   5.336   7.684   9.024 -0.0183 -0.0490 -0.2324
   36POPC   GL2  977   5.152   7.392   8.805  0.2423 -0.1052  0.2478
   36POPC   C1A  978   5.499   7.780   8.628 -0.1060 -0.2284 -0.0413
   36POPC   D2A  979   5.919   7.701   8.413 -0.0360  0.2779 -0.0203
   36POPC   C3A  980   6.086   8.044   8.356  0.1558  0.3373 -0.3577
   36POPC   C4A  981   6.155   8.444   8.462 -0.1229  0.0721  0.2691
   36POPC   C1B  982   4.871   7.686   8.626 -0.2077  0.0140 -0.2630
   36POPC   C2B  983   4.651   7.852   8.151 -0.0050  0.1665  0.0258
   36POPC   C3B  984   4.607   8.160   8.134 -0.2071 -0.1975 -0.1334
   36POPC   C4B  985   4.629   8.622   8.370  0.1301  0.1602  0.0450
   37POPC   NC3  986   7.579   4.142   8.960  0.2534 -0.0674 -0.0303
   37POPC   PO4  987   7.387   4.538   8.993 -0.2478  0.1438  0.2649
   37POPC   GL1  988   7.564   4.374   8.521  0.1732  0.1503  0.0941
   37POPC   GL2  989   7.603   4.059   8.443 -0.2537  0.1305 -0.2659
   37POPC   C1A  990   7.743   4.385   8.054  0.1342 -0.0414  0.0367
   37POPC   D2A  991   7.522   4.274   7.624 -0.0071  0.2048  0.1593
   37POPC   C3A  992   7.040   4.428   7.696 -0.0039 -0.0203  0.2442
   37POPC   C4A  993   6.701   4.480   7.896  0.3815 -0.2844 -0.0034
   37POPC   C1B  994   7.788   3.775   8.165  0.1744 -0.0798  0.4854
   37POPC   C2B  995   7.717   3.319   7.987  0.0238  0.0462  0.4328
   37POPC   C3B  996   7.737   2.960   7.710 -0.2428 -0.0496  0.0323
   37POPC   C4B  997   7.451   2.841   7.309  0.0667  0.0003 -0.0789
   38POPC   NC3  998   9.636   6.702   9.081 -0.0480  0.0996 -0.1698
   38POPC   PO4  999   9.282   6.984   8.989 -0.2804 -0.0962  0.3046
   38POPC   GL1 1000   9.136   7.084   8.597 -0.1758  0.0725  0.1013
   38POPC   GL2 1001   8.986   7.400   8.511  0.2844 -0.2495 -0.2637
   38POPC   C1A 1002   9.321   6.992   8.200  0.1851  0.1827  0.1598
   38POPC   D2A 1003   9.594   6.904   7.815  0.1555 -0.2611 -0.0160
   38POPC   C3A 1004   9.500   7.319   7.728  0.0246 -0.0559  0.0538
   38POPC   C4A 1005   9.477   7.633   7.429  0.0251  0.2765  0.0980
   38POPC   C1B 1006   9.099   7.438   8.080 -0.0225 -0.4042  0.2325
   38POPC   C2B 1007   8.907   7.628   7.733  0.0752 -0.1800 -0.0782
   38POPC   C3B 1008   8.966   7.544   7.294  0.0339 -0.1615 -0.0007
   38POPC   C4B 1009   8.908   7.822   6.992  0.2488 -0.0011  0.1311
   39POPC   NC3 1010   9.848   0.095   9.107  0.1906  0.0298 -0.0950
   39POPC   PO4 1011   9.944   0.539   9.077 -0.1765  0.1788 -0.1788
   39POPC   GL1 1012   9.750   0.528   8.670 -0.1022 -0.4022  0.0644
   39POPC   GL2 1013   9.718   0.857   8.597  0.0535  0.1677  0.1245
   39POPC   C1A 1014   9.803   0.375   8.191  0.0246 -0.2657 -0.1084
   39POPC   D2A 1015  10.127   0.178   8.305 -0.2434 -0.2295 -0.2610
   39POPC   C3A 1016  10.241  -0.024   7.940 -0.1153 -0.1481 -0.1439
   39POPC   C4A 1017  10.250  -0.110   7.583  0.1867  0.3174  0.1239
   39POPC   C1B 1018   9.721   0.921   8.146  0.1559 -0.0653 -0.1188
   39POPC   C2B 1019  10.018   0.783   7.859  0.0495 -0.0889  0.0389
   39POPC   C3B 1020  10.359   0.596   7.643  0.1808 -0.2000  0.2725
   39POPC   C4B 1021  10.492   0.639   7.338 -0.0010 -0.3265  0.0628
   40POPC   NC3 1022   0.172   9.208   8.884 -0.0350  0.0858 -0.2239
   40POPC   PO4 1023   0.377   9.585   8.841  0.3366  0.1626  0.3072
   40POPC   GL1 1024   0.115   9.425   8.439 -0.1044 -0.0823  0.1055
   40POPC   GL2 1025  -0.071   9.133   8.253  0.0277  0.0090 -0.1147
   40POPC   C1A 1026   0.242   9.407   8.013 -0.1256 -0.1951  0.1954
   40POPC   D2A 1027   0.368   9.414   7.597  0.2323 -0.4694 -0.1367
   40POPC   C3A 1028   0.658   9.390   7.342 -0.0447 -0.1611 -0.2391
   40POPC   C4A 1029   1.094   9.425   7.150  0.0265 -0.0677  0.0748
   40POPC   C1B 1030  -0.095   9.147   7.811 -0.2211  0.0260 -0.0485
   40POPC   C2B 1031   0.101   8.953   7.534  0.2011 -0.0201 -0.2298
   40POPC   C3B 1032   0.515   8.892   7.436  0.2497  0.2085  0.2230
   40POPC   C4B 1033   0.903   8.765   7.105 -0.0117  0.1457 -0.2868
   41POPC   NC3 1034   3.134   7.091   9.287 -0.1639 -0.0428 -0.1096
   41POPC   PO4 1035   2.985   6.697   9.250  0.0576 -0.1010  0.1196
   41POPC   GL1 1036   2.783   6.956   8.861  0.3439  0.1427  0.0986
   41POPC   GL2 1037   3.006   6.973   8.591 -0.2942  0.0802  0.1765
   41POPC   C1A 1038   2.583   6.843   8.631 -0.2408  0.0341  0.1595
   41POPC   D2A 1039   2.438   6.394   8.553  0.0537  0.0293 -0.0198
   41POPC   C3A 1040   2.605   6.329   8.221 -0.2009 -0.2602 -0.1566
   41POPC   C4A 1041   2.763   6.130   7.953 -0.1358 -0.1806 -0.0185
   41POPC   C1B 1042   2.923   7.055   8.208 -0.0077 -0.0189  0.0199
   41POPC   C2B 1043   2.872   7.159   7.770  0.1112 -0.0537 -0.1832
   41POPC   C3B 1044   2.763   7.253   7.335  0.3177  0.0694  0.0499
   41POPC   C4B 1045   2.688   7.522   7.052  0.0618  0.2841 -0.0793
   42POPC   NC3 1046   8.905   1.932   8.944 -0.0677 -0.3600 -0.2453
   42POPC   PO4 1047   8.566   1.736   9.191 -0.0330  0.3263 -0.2124
   42POPC   GL1 1048   8.464   1.683   8.871  0.0992  0.0943  0.2821
   42POPC   GL2 1049   8.281   1.372   8.703 -0.0332 -0.0289  0.1523
   42POPC   C1A 1050   8.523   1.714   8.389  0.1063 -0.0951 -0.1908
   42POPC   D2A 1051   8.298   1.504   8.087 -0.1584  0.1325  0.1032
   42POPC   C3A 1052   8.354   1.092   7.883  0.0279  0.4658  0.0087
   42POPC   C4A 1053   8.279   0.600   7.638 -0.1113  0.0674  0.1019
   42POPC   C1B 1054   8.615   1.178   8.428 -0.0726 -0.3626 -0.2096
   42POPC   C2B 1055   8.822   0.872   8.185 -0.4849 -0.3577  0.0137
   42POPC   C3B 1056   8.821   0.730   7.751 -0.2610  0.0476 -0.0399
   42POPC   C4B 1057   8.671   0.932   7.499  0.0482  0.1645 -0.0367
   43POPC   NC3 1058   6.802   1.830   9.203  0.1518 -0.2890 -0.0692
   43POPC   PO4 1059   6.980   2.280   9.153 -0.2110 -0.0418 -0.0068
   43POPC   GL1 1060   7.114   2.082   8.840 -0.0794  0.4565  0.2084
   43POPC   GL2 1061   6.793   2.094   8.723 -0.0309 -0.2715 -0.0319
   43POPC   C1A 1062   7.216   2.271   8.420  0.0661  0.0107 -0.1853
   43POPC   D2A 1063   7.435   2.485   8.227  0.0721  0.2108  0.0593
   43POPC   C3A 1064   7.475   2.559   7.773 -0.2814  0.2409 -0.1044
   43POPC   C4A 1065   7.362   2.381   7.445  0.1618 -0.1327 -0.2659
   43POPC   C1B 1066   6.773   1.961   8.278  0.0297 -0.0575 -0.5363
   43POPC   C2B 1067   6.541   2.070   7.894  0.2843 -0.2666  0.0010
   43POPC   C3B 1068   6.540   2.290   7.599 -0.1663 -0.3220 -0.4550
   43POPC   C4B 1069   6.799   2.466   7.363 -0.1372  0.0296 -0.0816
   44POPC   NC3 1070   7.572   1.374   9.178 -0.1706  0.0307  0.0545
   44POPC   PO4 1071   7.366   1.079   9.062  0.2129 -0.0926 -0.0853
   44POPC   GL1 1072   7.667   0.971   8.769 -0.3363  0.0783  0.1263
   44POPC   GL2 1073   7.725   1.126   8.731  0.3605 -0.1338 -0.0242
   44POPC   C1A 1074   7.788   0.621   8.464 -0.1357  0.0649 -0.0279
   44POPC   D2A 1075   7.811   0.669   7.943  0.1792  0.0091  0.1143
   44POPC   C3A 1076   7.843   0.376   7.721 -0.1398  0.2257  0.1700
   44POPC   C4A 1077   7.911  -0.076   7.655  0.0448 -0.2108 -0.0827
   44POPC   C1B 1078   7.477   1.411   8.539  0.3086 -0.1400 -0.2223
   44POPC   C2B 1079   7.286   1.262   8.081  0.0369  0.1521  0.0122
   44POPC   C3B 1080   7.368   1.365   7.697  0.0933 -0.0978  0.0656
   44POPC   C4B 1081   7.397   1.588   7.320 -0.2435 -0.0565  0.1281
   45POPC   NC3 1082   0.633  10.163   8.988 -0.1056 -0.1606 -0.1432
   45POPC   PO4 1083   0.193  10.328   8.770  0.0314  0.1760 -0.0456
   45POPC   GL1 1084   0.262  10.044   8.569 -0.0562  0.1816 -0.0157
   45POPC   GL2 1085   0.022   9.912   8.406  0.0268  0.0161  0.2167
   45POPC   C1A 1086   0.506   9.905   8.216 -0.2355  0.0420  0.1048
   45POPC   D2A 1087   0.712   9.940   7.836 -0.3042 -0.3754 -0.2065
   45POPC   C3A 1088   0.513   9.877   7.520  0.0533 -0.2280  0.2007
   45POPC   C4A 1089   0.263   9.853   7.245  0.2697  0.1099  0.1266
   45POPC   C1B 1090  -0.262   9.565   8.094  0.1918  0.0748 -0.0025
   45POPC   C2B 1091  -0.132   9.586   7.629  0.1207  0.1758  0.3443
   45POPC   C3B 1092   0.079   9.347   7.199 -0.1615  0.0331 -0.0364
   45POPC   C4B 1093  -0.081   9.235   6.810 -0.4163 -0.1154  0.2222
   46POPC   NC3 1094   5.234   6.204   9.073 -0.1919  0.2505 -0.1242
   46POPC   PO4 1095   4.783   6.208   8.947 -0.0678  0.1543  0.0704
   46POPC   GL1 1096   4.592   6.004   8.621  0.0604  0.0305  0.2426
   46POPC   GL2 1097   4.424   6.223   8.432  0.1572  0.0483 -0.3067
   46POPC   C1A 1098   4.387   5.730   8.396 -0.1552  0.3313  0.1735
   46POPC   D2A 1099   4.087   5.385   8.257  0.1073  0.3583 -0.0695
   46POPC   C3A 1100   3.806   5.029   8.153  0.0495  0.2021  0.0477
   46POPC   C4A 1101   3.508   4.691   8.351  0.1079 -0.1004  0.1187
   46POPC   C1B 1102   4.664   6.406   8.072  0.0248 -0.3528  0.1713
   46POPC   C2B 1103   4.883   6.619   7.678  0.0894  0.0709  0.1206
   46POPC   C3B 1104   4.720   6.713   7.313 -0.0180 -0.3014  0.2623
   46POPC   C4B 1105   4.275   6.841   7.269  0.0349 -0.2583  0.1839
   47POPC   NC3 1106   3.049   6.422   8.786  0.0984 -0.1301 -0.1988
   47POPC   PO4 1107   2.882   6.041   8.679 -0.1894 -0.3069  0.0366
   47POPC   GL1 1108   3.090   6.324   8.317 -0.2071  0.0058 -0.1028
   47POPC   GL2 1109   3.047   6.624   8.128 -0.3607 -0.2712 -0.0285
   47POPC   C1A 1110   3.242   6.234   7.870  0.0429  0.0500 -0.1213
   47POPC   D2A 1111   3.283   6.348   7.488  0.4349 -0.1014 -0.2876
   47POPC   C3A 1112   3.143   6.677   7.250 -0.2950 -0.0089  0.0734
   47POPC   C4A 1113   3.096   6.936   7.022 -0.3024  0.3968 -0.2855
   47POPC   C1B 1114   3.221   6.749   7.808  0.0768  0.0135  0.2557
   47POPC   C2B 1115   3.301   7.035   7.542 -0.3050 -0.1816 -0.1211
   47POPC   C3B 1116   3.403   7.238   7.221 -0.0529 -0.3228  0.0813
   47POPC   C4B 1117   3.401   7.544   6.978  0.1888  0.2628 -0.2155
   48POPC   NC3 1118   8.669   2.812   9.191  0.0120 -0.2200  0.1968
   48POPC   PO4 1119   8.432   3.157   9.107 -0.1376  0.1530 -0.1900
   48POPC   GL1 1120   8.464   2.987   8.734 -0.0076 -0.3526  0.1290
   48POPC   GL2 1121   8.334   2.713   8.748 -0.1296  0.0814  0.1463
   48POPC   C1A 1122   8.599   3.069   8.357  0.1114 -0.0064 -0.0085
   48POPC   D2A 1123   8.658   3.029   7.899 -0.0920 -0.2847 -0.2353
   48POPC   C3A 1124   8.752   3.446   7.607 -0.2081 -0.2554  0.3970
   48POPC   C4A 1125   8.864   3.755   7.447  0.0294  0.3025 -0.2052
   48POPC   C1B 1126   8.448   2.617   8.280  0.2350 -0.1105  0.0480
   48POPC   C2B 1127   8.417   2.599   7.771  0.0806 -0.2135  0.0006
   48POPC   C3B 1128   8.411   2.637   7.342 -0.0806  0.1318 -0.3469
   48POPC   C4B 1129   8.632   2.554   6.913  0.0387 -0.1516 -0.0183
   49POPC   NC3 1130   3.772   3.443   9.265 -0.0034  0.2951  0.0700
   49POPC   PO4 1131   4.033   3.160   9.644 -0.0486  0.1008 -0.0281
   49POPC   GL1 1132   4.164   3.055   9.229 -0.1330  0.3214  0.3702
   49POPC   GL2 1133   4.045   3.311   8.895  0.1365  0.0830 -0.0985
   49POPC   C1A 1134   4.355   2.865   8.962 -0.0878  0.1597  0.2470
   49POPC   D2A 1135   4.343   2.401   8.998 -0.2167  0.2515  0.3433
   49POPC   C3A 1136   4.406   2.139   8.663 -0.3308 -0.2301 -0.0291
   49POPC   C4A 1137   4.503   1.867   8.306 -0.0141 -0.0225  0.1261
   49POPC   C1B 1138   3.740   3.350   8.590 -0.0960 -0.0114 -0.0235
   49POPC   C2B 1139   3.738   3.202   8.132  0.2191  0.1048  0.0144
   49POPC   C3B 1140   3.604   2.878   7.753  0.2886 -0.0882  0.1266
   49POPC   C4B 1141   3.439   2.498   7.623 -0.0283 -0.1313  0.3831
   50POPC   NC3 1142   0.501   5.773   9.136  0.0449 -0.0491 -0.0702
   50POPC   PO4 1143   0.103   5.817   8.872  0.2545 -0.1362  0.3256
   50POPC   GL1 1144   0.146   5.825   8.396  0.0366  0.3906  0.0443
   50POPC   GL2 1145   0.050   6.113   8.315  0.1263 -0.2980 -0.1964
   50POPC   C1A 1146   0.326   5.579   8.070  0.0904 -0.1005  0.0278
   50POPC   D2A 1147   0.391   5.608   7.641  0.1925 -0.1260 -0.1219
   50POPC   C3A 1148   0.829   5.617   7.485 -0.1939 -0.4075  0.0293
   50POPC   C4A 1149   1.114   5.456   7.281 -0.1132 -0.3793 -0.1087
   50POPC   C1B 1150  -0.113   5.832   8.016 -0.2663 -0.0841 -0.0001
   50POPC   C2B 1151  -0.116   5.788   7.554 -0.1903 -0.1575  0.0514
   50POPC   C3B 1152   0.117   5.711   7.172 -0.0573  0.1725  0.2366
   50POPC   C4B 1153   0.129   5.832   6.737  0.1672  0.2810 -0.0903
   51POPC   NC3 1154   5.189   2.525   9.906 -0.2222  0.0354  0.0021
   51POPC   PO4 1155   5.520   2.502   9.488  0.1020  0.0989  0.0066
   51POPC   GL1 1156   5.427   2.475   9.082  0.2263  0.0027  0.0209
   51POPC   GL2 1157   5.119   2.664   9.002  0.0951  0.1631  0.0708
   51POPC   C1A 1158   5.355   2.478   8.607  0.2167  0.0080 -0.2076
   51POPC   D2A 1159   5.383   2.306   8.150 -0.1202  0.1246  0.0125
   51POPC   C3A 1160   5.051   2.140   7.969 -0.1054  0.0479 -0.2355
   51POPC   C4A 1161   5.185   1.746   7.714  0.1450 -0.1500 -0.0737
   51POPC   C1B 1162   4.787   2.657   8.778  0.0228 -0.0829  0.1215
   51POPC   C2B 1163   4.385   2.743   8.486  0.1581  0.2862  0.1864
   51POPC   C3B 1164   4.033   2.968   8.524 -0.0245 -0.0072 -0.0923
   51POPC   C4B 1165   3.550   2.870   8.520  0.1759  0.0377  0.0444
   52POPC   NC3 1166   1.031   9.184   9.099 -0.0969  0.0987 -0.1604
   52POPC   PO4 1167   0.991   8.733   9.170 -0.0224  0.1954  0.1440
   52POPC   GL1 1168   0.991   8.489   8.711  0.1646  0.1600  0.1945
   52POPC   GL2 1169   0.663   8.422   8.609 -0.1767  0.0282 -0.0188
   52POPC   C1A 1170   1.265   8.225   8.527  0.0194  0.2303 -0.2842
   52POPC   D2A 1171   1.404   7.941   8.146  0.0910 -0.4684 -0.2594
   52POPC   C3A 1172   1.208   7.837   7.797  0.3194 -0.0788 -0.1432
   52POPC   C4A 1173   1.049   8.165   7.538  0.0568  0.1647 -0.1753
   52POPC   C1B 1174   0.786   8.120   8.386 -0.0005  0.3407  0.3209
   52POPC   C2B 1175   0.777   7.815   7.914 -0.1001 -0.0273  0.3451
   52POPC   C3B 1176   0.563   8.030   7.566 -0.0073 -0.2385  0.0118
   52POPC   C4B 1177   0.716   8.331   7.218 -0.1731  0.1276 -0.1366
   53POPC   NC3 1178   1.037   1.999   8.775  0.1106 -0.0377  0.1741
   53POPC   PO4 1179   0.787   2.448   8.889  0.0380 -0.0599 -0.1547
   53POPC   GL1 1180   0.826   2.303   8.407 -0.2049 -0.1456 -0.0894
   53POPC   GL2 1181   0.546   2.530   8.285 -0.2412  0.1374  0.2485
   53POPC   C1A 1182   0.738   2.081   8.005 -0.2666  0.0556  0.0799
   53POPC   D2A 1183   0.537   2.158   7.624  0.2574  0.0167  0.2874
   53POPC   C3A 1184   0.846   2.019   7.319 -0.1660  0.2042 -0.0644
   53POPC   C4A 1185   0.926   1.871   6.907 -0.2376  0.0585 -0.0140
   53POPC   C1B 1186   0.476   2.570   7.870 -0.2224 -0.1005 -0.5088
   53POPC   C2B 1187   0.825   2.541   7.513 -0.0866  0.2495  0.1366
   53POPC   C3B 1188   0.838   2.518   7.096 -0.2988 -0.0105  0.1881
   53POPC   C4B 1189   1.011   2.563   6.763  0.1750  0.4359 -0.3978
   54POPC   NC3 1190   9.070   9.793   9.655 -0.2618 -0.1297 -0.1454
   54POPC   PO4 1191   9.438   9.943   9.388  0.2022 -0.0496  0.2188
   54POPC   GL1 1192   9.490   9.936   8.871  0.2375  0.1439  0.1425
   54POPC   GL2 1193   9.690  10.129   8.662  0.1050  0.0395  0.2622
   54POPC   C1A 1194   9.191   9.915   8.644  0.2619 -0.0828  0.1761
   54POPC   D2A 1195   8.967   9.895   8.278  0.0725  0.0760 -0.1671
   54POPC   C3A 1196   8.798   9.737   7.827 -0.0824  0.0358 -0.0949
   54POPC   C4A 1197   8.637   9.509   7.492 -0.1190  0.1862  0.1236
   54POPC   C1B 1198   9.747  10.014   8.248 -0.1306 -0.0027 -0.1779
   54POPC   C2B 1199   9.806  10.030   7.846  0.1494  0.1675 -0.1420
   54POPC   C3B 1200   9.688   9.971   7.445  0.0292 -0.1105 -0.1557
   54POPC   C4B 1201   9.732   9.661   7.110  0.4292  0.0630 -0.3953
   55POPC   NC3 1202   1.486   6.807   9.412 -0.0481 -0.1368 -0.1017
   55POPC   PO4 1203   1.629   6.665   9.009  0.2796 -0.3094  0.0937
   55POPC   GL1 1204   1.548   6.906   8.631  0.1363 -0.1864  0.5780
   55POPC   GL2 1205   1.367   6.838   8.360  0.0767 -0.1916  0.1948
   55POPC   C1A 1206   1.739   7.218   8.304  0.1088 -0.0352  0.1820
   55POPC   D2A 1207   2.016   7.153   7.941 -0.1617 -0.4135  0.0347
   55POPC   C3A 1208   2.236   6.996   7.775 -0.0656  0.1690  0.3478
   55POPC   C4A 1209   2.377   6.990   7.448 -0.0918  0.0406 -0.0162
   55POPC   C1B 1210   1.776   6.737   8.066  0.1897  0.2161  0.0922
   55POPC   C2B 1211   1.838   6.605   7.565  0.0928 -0.3352  0.3346
   55POPC   C3B 1212   1.960   6.711   7.110  0.0277 -0.2041  0.0192
   55POPC   C4B 1213   1.957   6.617   6.677  0.0746  0.0164  0.2413
   56POPC   NC3 1214   1.180   0.805   8.934 -0.2239  0.0283  0.0886
   56POPC   PO4 1215   0.955   1.201   9.018 -0.0343  0.1789  0.0151
   56POPC   GL1 1216   1.002   1.104   8.555 -0.2236  0.4694 -0.0746
   56POPC   GL2 1217   1.313   1.013   8.448 -0.3253  0.0372  0.1967
   56POPC   C1A 1218   0.905   1.311   8.307 -0.0843 -0.2119  0.1896
   56POPC   D2A 1219   0.967   1.215   7.754  0.0147 -0.0865 -0.0596
   56POPC   C3A 1220   0.695   1.075   7.445  0.0352  0.0554 -0.0651
   56POPC   C4A 1221   0.809   0.625   7.487  0.0580 -0.0292 -0.0295
   56POPC   C1B 1222   1.363   0.892   8.074 -0.1060 -0.2411  0.0307
   56POPC   C2B 1223   1.424   0.837   7.659  0.0973  0.0882  0.3243
   56POPC   C3B 1224   1.248   0.565   7.297 -0.1669  0.0689  0.0250
   56POPC   C4B 1225   1.025   0.568   6.966  0.1297  0.1508  0.0972
   57POPC   NC3 1226   2.215   9.912   9.987 -0.0760  0.6247  0.0207
   57POPC   PO4 1227   2.340   9.510   9.758 -0.0444  0.0103  0.0787
   57POPC   GL1 1228   2.515   9.591   9.313  0.2029 -0.0535 -0.0287
   57POPC   GL2 1229   2.546   9.899   9.234  0.0525  0.1764 -0.0398
   57POPC   C1A 1230   2.514   9.466   8.886  0.2582  0.1600  0.0787
   57POPC   D2A 1231   2.679   9.466   8.504  0.2134 -0.0719  0.2401
   57POPC   C3A 1232   2.585   9.544   8.041 -0.4896  0.0201 -0.1438
   57POPC   C4A 1233   2.374   9.900   7.735 -0.2110 -0.0601 -0.0182
   57POPC   C1B 1234   2.898  10.195   9.270 -0.3776  0.0951  0.1053
   57POPC   C2B 1235   3.377  10.370   9.288 -0.2945 -0.0418 -0.0289
   57POPC   C3B 1236   3.620  10.600   8.966 -0.0734  0.0918  0.0317
   57POPC   C4B 1237   3.769  10.444   8.560 -0.1207 -0.3446 -0.0297
   58POPC   NC3 1238   0.785   3.511   9.132 -0.0536 -0.0871  0.0609
   58POPC   PO4 1239   1.297   3.444   9.130  0.5790  0.1750 -0.1355
   58POPC   GL1 1240   1.236   3.413   8.653  0.0954  0.2777 -0.1774
   58POPC   GL2 1241   1.465   3.482   8.600 -0.0318 -0.0334  0.5391
   58POPC   C1A 1242   1.223   3.155   8.262  0.0347  0.2326  0.0329
   58POPC   D2A 1243   1.392   3.090   7.878  0.2303 -0.1432 -0.0049
   58POPC   C3A 1244   1.250   2.917   7.549 -0.2654  0.4576  0.2313
   58POPC   C4A 1245   0.888   3.016   7.353  0.0525 -0.3584 -0.0285
   58POPC   C1B 1246   1.756   3.473   8.275 -0.0337  0.0195 -0.1928
   58POPC   C2B 1247   1.837   3.340   7.774 -0.1511  0.0269 -0.0056
   58POPC   C3B 1248   1.734   3.007   7.385  0.0002 -0.5902  0.1328
   58POPC   C4B 1249   1.901   2.930   7.063 -0.0003  0.0347  0.1335
   59POPC   NC3 1250   3.385   8.412  10.012  0.0599  0.4151  0.0359
   59POPC   PO4 1251   3.760   8.118   9.764  0.0418 -0.1295 -0.0286
   59POPC   GL1 1252   3.657   8.413   9.402 -0.0108  0.1612 -0.2292
   59POPC   GL2 1253   3.482   8.724   9.563 -0.0683  0.2035  0.2639
   59POPC   C1A 1254   3.615   8.567   8.966  0.1527 -0.0620 -0.0393
   59POPC   D2A 1255   3.668   8.772   8.512  0.1321 -0.0775 -0.0311
   59POPC   C3A 1256   3.198   8.785   8.281  0.2739 -0.0257 -0.0444
   59POPC   C4A 1257   2.956   8.899   8.004 -0.2923  0.0852 -0.0161
   59POPC   C1B 1258   3.763   8.930   9.299  0.0086  0.0650 -0.3566
   59POPC   C2B 1259   3.994   9.080   8.834  0.4435  0.2027  0.1166
   59POPC   C3B 1260   4.212   9.057   8.491 -0.0478 -0.2196 -0.0161
   59POPC   C4B 1261   4.419   9.020   8.126  0.1591  0.0357 -0.1052
   60POPC   NC3 1262   8.310   4.984   9.189  0.2047 -0.4634 -0.1822
   60POPC   PO4 1263   8.023   5.207   8.986 -0.5855  0.2364 -0.2591
   60POPC   GL1 1264   8.118   5.452   8.507 -0.0578  0.3499  0.0732
   60POPC   GL2 1265   8.038   5.092   8.494  0.1469  0.1707 -0.0100
   60POPC   C1A 1266   7.943   5.541   8.110 -0.1479 -0.1062 -0.2640
   60POPC   D2A 1267   7.914   5.529   7.634  0.3394 -0.4939 -0.1406
   60POPC   C3A 1268   8.138   5.674   7.340 -0.3716  0.1692 -0.2270
   60POPC   C4A 1269   8.375   5.487   7.035 -0.3690  0.2751  0.3732
   60POPC   C1B 1270   8.041   4.886   8.074  0.2985 -0.0054  0.0362
   60POPC   C2B 1271   7.837   4.727   7.702 -0.1333 -0.3033 -0.1493
   60POPC   C3B 1272   7.906   4.622   7.184 -0.0202 -0.2269 -0.3867
   60POPC   C4B 1273   7.696   4.771   6.985 -0.1401 -0.0057  0.1946
   61POPC   NC3 1274   6.693   3.532   8.822  0.3398  0.3202 -0.4389
   61POPC   PO4 1275   7.173   3.576   8.963  0.1804  0.1209 -0.0472
   61POPC   GL1 1276   7.322   3.345   8.639 -0.0850 -0.2138  0.1814
   61POPC   GL2 1277   7.560   3.293   8.528  0.1516 -0.0160  0.1539
   61POPC   C1A 1278   7.250   3.507   8.149  0.2124 -0.0569 -0.2879
   61POPC   D2A 1279   7.028   3.409   7.897 -0.0850  0.1926  0.0743
   61POPC   C3A 1280   7.342   3.361   7.586 -0.3316  0.2011  0.3246
   61POPC   C4A 1281   7.679   3.670   7.504 -0.3557  0.1231  0.1053
   61POPC   C1B 1282   7.759   2.938   8.355  0.0481  0.4909 -0.3245
   61POPC   C2B 1283   8.095   2.871   8.106  0.1149  0.1390  0.0052
   61POPC   C3B 1284   8.220   3.058   7.651  0.1825 -0.1783  0.3503
   61POPC   C4B 1285   7.913   3.266   7.330  0.1115 -0.1447 -0.0677
   62POPC   NC3 1286   1.624   3.797   8.993  0.2409 -0.0765  0.1563
   62POPC   PO4 1287   1.223   3.893   8.802 -0.0929 -0.2567 -0.1149
   62POPC   GL1 1288   1.188   3.882   8.398 -0.0069 -0.2956  0.0732
   62POPC   GL2 1289   1.304   4.136   8.228  0.1236  0.0793 -0.1055
   62POPC   C1A 1290   1.290   3.581   8.035 -0.1595 -0.2068 -0.1253
   62POPC   D2A 1291   1.291   3.498   7.522  0.3869  0.0397 -0.3870
   62POPC   C3A 1292   1.706   3.517   7.294 -0.0534  0.2403 -0.0138
   62POPC   C4A 1293   2.027   3.751   7.595 -0.0282 -0.0051 -0.1482
   62POPC   C1B 1294   1.451   3.970   7.771  0.0896 -0.2121 -0.0462
   62POPC   C2B 1295   1.312   3.985   7.308  0.0453  0.2302 -0.0613
   62POPC   C3B 1296   1.091   3.675   7.098  0.2606 -0.1287  0.2203
   62POPC   C4B 1297   1.214   3.534   6.647  0.0062 -0.4547  0.2495
   63POPC   NC3 1298   4.498   8.659   9.916 -0.0311  0.1284 -0.0278
   63POPC   PO4 1299   4.736   8.365  10.067 -0.0342 -0.0406 -0.2102
   63POPC   GL1 1300   4.587   8.293   9.598  0.4493 -0.0334 -0.0709
   63POPC   GL2 1301   4.745   8.117   9.445 -0.0086 -0.1420  0.0697
   63POPC   C1A 1302   4.807   8.537   9.231  0.2333  0.1962  0.2127
   63POPC   D2A 1303   4.692   8.767   8.887  0.0318 -0.1260  0.1119
   63POPC   C3A 1304   4.294   8.573   8.720 -0.2286  0.0286 -0.0890
   63POPC   C4A 1305   4.098   8.477   8.438  0.0245 -0.0356  0.0765
   63POPC   C1B 1306   4.506   8.140   9.069 -0.3204 -0.0444 -0.3300
   63POPC   C2B 1307   4.493   8.065   8.595  0.1361 -0.0748  0.1311
   63POPC   C3B 1308   4.174   7.874   8.277 -0.0568 -0.0513  0.1508
   63POPC   C4B 1309   3.911   8.143   8.031  0.3167  0.2847 -0.2061
   64POPC   NC3 1310   7.987   7.000   8.838  0.0848  0.0515 -0.0525
   64POPC   PO4 1311   7.511   6.764   8.769 -0.0441 -0.1849  0.1889
   64POPC   GL1 1312   7.587   7.046   8.454  0.1928  0.0018  0.0191
   64POPC   GL2 1313   7.858   7.139   8.350  0.1749  0.3300  0.1717
   64POPC   C1A 1314   7.428   7.130   8.162 -0.1558 -0.2960 -0.0963
   64POPC   D2A 1315   7.153   7.304   7.731 -0.0687 -0.0127 -0.0029
   64POPC   C3A 1316   7.348   7.618   7.558  0.1151 -0.2783  0.3350
   64POPC   C4A 1317   7.696   7.877   7.478 -0.2138 -0.3153 -0.0908
   64POPC   C1B 1318   8.039   6.841   8.068 -0.0936  0.1794 -0.0836
   64POPC   C2B 1319   8.389   6.829   7.831  0.2413 -0.0085  0.0274
   64POPC   C3B 1320   8.732   6.768   7.609 -0.1709 -0.0768 -0.0358
   64POPC   C4B 1321   9.008   6.539   7.286  0.2686 -0.2503  0.1616
   65POPC   NC3 1322   5.828   5.654   8.862 -0.2885  0.3983  0.0588
   65POPC   PO4 1323   5.760   6.075   8.760  0.0506  0.0805 -0.1752
   65POPC   GL1 1324   5.913   6.208   8.403  0.1854 -0.0490  0.0277
   65POPC   GL2 1325   5.922   5.827   8.218  0.1517  0.0268 -0.1026
   65POPC   C1A 1326   5.658   6.412   7.989  0.1743  0.1148 -0.0345
   65POPC   D2A 1327   5.788   6.509   7.608 -0.1033  0.3502  0.0485
   65POPC   C3A 1328   5.658   6.410   7.215  0.4784 -0.2135  0.2883
   65POPC   C4A 1329   5.860   6.277   6.784 -0.2293 -0.3055  0.2920
   65POPC   C1B 1330   5.517   5.874   8.169 -0.1261 -0.1429  0.2975
   65POPC   C2B 1331   5.209   5.641   8.134  0.0475 -0.2919  0.0834
   65POPC   C3B 1332   4.876   5.386   8.109  0.0314  0.3031  0.1423
   65POPC   C4B 1333   4.565   5.207   8.304 -0.0298  0.1688  0.2053
   66POPC   NC3 1334   6.764   8.113   9.557 -0.2189 -0.1594 -0.2173
   66POPC   PO4 1335   6.359   7.963   9.351  0.0715 -0.0296  0.0263
   66POPC   GL1 1336   6.433   8.208   9.040  0.1965  0.3161 -0.0612
   66POPC   GL2 1337   6.357   8.565   9.009 -0.1115 -0.2217  0.0718
   66POPC   C1A 1338   6.536   8.161   8.716 -0.0841 -0.2184 -0.1944
   66POPC   D2A 1339   6.910   8.192   8.461  0.2248 -0.0234 -0.1219
   66POPC   C3A 1340   6.992   8.585   8.344 -0.1040  0.0105 -0.0702
   66POPC   C4A 1341   7.135   8.841   8.591  0.0175 -0.2598  0.3424
   66POPC   C1B 1342   6.145   8.943   8.734  0.0984  0.0527 -0.0588
   66POPC   C2B 1343   6.060   9.056   8.275 -0.0293 -0.1835  0.0487
   66POPC   C3B 1344   5.956   9.016   7.764  0.1096 -0.4336 -0.0697
   66POPC   C4B 1345   6.147   8.681   7.480  0.3760  0.1257 -0.0488
   67POPC   NC3 1346   1.344   5.790   8.830  0.0095 -0.1943  0.1364
   67POPC   PO4 1347   0.950   5.875   8.899  0.1752  0.1229  0.0365
   67POPC   GL1 1348   0.824   6.100   8.514 -0.1930 -0.1679 -0.0996
   67POPC   GL2 1349   0.795   6.399   8.403 -0.4327  0.1595  0.0936
   67POPC   C1A 1350   0.573   6.002   8.197 -0.2724 -0.1637  0.3425
   67POPC   D2A 1351   0.292   6.111   7.861  0.0607 -0.1934  0.4347
   67POPC   C3A 1352   0.289   6.543   7.558 -0.1748  0.3887 -0.1499
   67POPC   C4A 1353   0.168   6.660   7.236  0.0875  0.1285  0.1053
   67POPC   C1B 1354   1.202   6.400   8.080  0.3722 -0.1983 -0.3403
   67POPC   C2B 1355   1.378   6.382   7.659 -0.1867  0.0654 -0.4872
   67POPC   C3B 1356   1.411   6.417   7.218  0.2844 -0.0693  0.2100
   67POPC   C4B 1357   1.667   6.178   6.897 -0.2050 -0.1714 -0.0602
   68POPC   NC3 1358   0.490   4.412   9.185 -0.1897  0.2555  0.0605
   68POPC   PO4 1359   0.380   4.751   8.887 -0.0660 -0.2519  0.0804
   68POPC   GL1 1360   0.296   4.638   8.474 -0.1642 -0.1958  0.1035
   68POPC   GL2 1361   0.497   4.575   8.205 -0.0798 -0.0361 -0.5825
   68POPC   C1A 1362   0.026   4.665   8.105  0.1178  0.2682  0.2094
   68POPC   D2A 1363  -0.285   4.830   7.752  0.1949  0.1503  0.3695
   68POPC   C3A 1364  -0.315   4.733   7.314 -0.1432 -0.0496  0.0888
   68POPC   C4A 1365   0.011   4.879   6.919  0.0736  0.0020 -0.1621
   68POPC   C1B 1366   0.688   4.738   7.912  0.1347 -0.1277 -0.1499
   68POPC   C2B 1367   0.740   5.068   7.497 -0.0250  0.2179  0.2080
   68POPC   C3B 1368   0.456   5.292   7.271 -0.4760 -0.1218  0.1787
   68POPC   C4B 1369  -0.041   5.192   7.274  0.1831  0.0800  0.1510
   69POPC   NC3 1370   7.481   5.292   9.123 -0.0546 -0.1123  0.0848
   69POPC   PO4 1371   7.202   5.572   8.869 -0.2098  0.1290 -0.0122
   69POPC   GL1 1372   7.217   5.523   8.515  0.0266 -0.4561  0.0978
   69POPC   GL2 1373   7.504   5.696   8.389  0.0153  0.2196 -0.0911
   69POPC   C1A 1374   7.165   5.470   8.089  0.0699  0.2650 -0.1023
   69POPC   D2A 1375   6.757   5.441   7.823  0.0883 -0.2189 -0.0653
   69POPC   C3A 1376   6.846   5.412   7.422  0.1782  0.2565 -0.0410
   69POPC   C4A 1377   6.553   5.467   7.055 -0.2282  0.2456 -0.4950
   69POPC   C1B 1378   7.235   5.964   8.176 -0.1668 -0.0689  0.0300
   69POPC   C2B 1379   6.892   5.921   7.874  0.1517  0.2822  0.1303
   69POPC   C3B 1380   6.604   5.943   7.532 -0.3276 -0.2701 -0.0606
   69POPC   C4B 1381   6.332   5.993   7.218 -0.1787  0.1457 -0.0796
   70POPC   NC3 1382   2.460   2.571   9.790 -0.1470 -0.1187  0.1271
   70POPC   PO4 1383   2.539   2.091   9.884 -0.0855 -0.0645  0.0173
   70POPC   GL1 1384   2.712   2.345   9.441 -0.2144  0.1612  0.0186
   70POPC   GL2 1385   2.628   2.282   9.157  0.2361 -0.1898 -0.1006
   70POPC   C1A 1386   3.120   2.287   9.151  0.2253  0.1583 -0.0338
   70POPC   D2A 1387   3.105   2.136   8.666  0.3534  0.4913 -0.0853
   70POPC   C3A 1388   2.995   2.144   8.267 -0.2972  0.1265 -0.0044
   70POPC   C4A 1389   2.646   1.987   7.984 -0.1958 -0.1158  0.3362
   70POPC   C1B 1390   2.613   2.070   8.803  0.2011 -0.0343  0.0597
   70POPC   C2B 1391   2.574   1.783   8.440 -0.0500 -0.3092 -0.4684
   70POPC   C3B 1392   2.491   1.509   8.052  0.4069 -0.1981 -0.0232
   70POPC   C4B 1393   2.358   1.606   7.682 -0.1118  0.0323 -0.1811
   71POPC   NC3 1394   6.358   6.568   9.361 -0.2261 -0.1092  0.2456
   71POPC   PO4 1395   6.683   6.189   9.105 -0.0349  0.1918  0.1714
   71POPC   GL1 1396   6.543   6.335   8.627 -0.2901  0.1187  0.1570
   71POPC   GL2 1397   6.715   6.611   8.469  0.0157 -0.0122 -0.0483
   71POPC   C1A 1398   6.445   6.248   8.252  0.1262  0.2465 -0.0000
   71POPC   D2A 1399   6.682   6.425   7.866  0.1547  0.0856 -0.1241
   71POPC   C3A 1400   6.503   6.453   7.450 -0.0678 -0.2262 -0.1415
   71POPC   C4A 1401   6.127   6.440   7.272 -0.2214  0.2860  0.1664
   71POPC   C1B 1402   7.107   6.481   8.222  0.1378 -0.0810 -0.0613
   71POPC   C2B 1403   7.226   6.346   7.804  0.2759 -0.2110 -0.0247
   71POPC   C3B 1404   7.011   6.454   7.484 -0.0195 -0.3033  0.1886
   71POPC   C4B 1405   6.961   6.776   7.250 -0.0258  0.0589 -0.2878
   72POPC   NC3 1406   3.877   9.525  10.225 -0.4116  0.0746  0.1163
   72POPC   PO4 1407   3.530   9.625   9.872 -0.0268 -0.3179  0.1524
   72POPC   GL1 1408   3.216   9.852   9.520  0.0549  0.1349 -0.4908
   72POPC   GL2 1409   2.965   9.617   9.454 -0.0235  0.1510  0.0601
   72POPC   C1A 1410   3.422   9.943   9.109 -0.0146 -0.1606 -0.1398
   72POPC   D2A 1411   3.326  10.222   8.816  0.0276  0.0780  0.3155
   72POPC   C3A 1412   2.865  10.444   8.652  0.1853  0.2835  0.0134
   72POPC   C4A 1413   2.371  10.417   8.439 -0.0870 -0.1632  0.0149
   72POPC   C1B 1414   2.998   9.740   8.981  0.0876  0.3316  0.2229
   72POPC   C2B 1415   3.083   9.407   8.708  0.0232 -0.1786 -0.3062
   72POPC   C3B 1416   3.133   9.309   8.239 -0.1201 -0.5185  0.0102
   72POPC   C4B 1417   3.428   9.165   8.046  0.3473  0.0963 -0.2431
   73POPC   NC3 1418   0.050   4.165   8.712  0.3017  0.1301  0.2238
   73POPC   PO4 1419  -0.158   3.745   8.850  0.1921 -0.3102 -0.1151
   73POPC   GL1 1420  -0.105   3.812   8.397  0.1352  0.1910 -0.3357
   73POPC   GL2 1421  -0.309   3.661   8.143  0.1228  0.1422  0.2856
   73POPC   C1A 1422   0.240   3.703   8.143  0.1527 -0.2092 -0.3429
   73POPC   D2A 1423   0.476   3.757   7.774  0.0097  0.2736 -0.0361
   73POPC   C3A 1424   0.452   3.437   7.389 -0.0666 -0.2016  0.0156
   73POPC   C4A 1425   0.670   3.284   6.999  0.0519  0.0929 -0.0744
   73POPC   C1B 1426  -0.510   3.846   7.787  0.2293 -0.2827 -0.2516
   73POPC   C2B 1427  -0.354   3.794   7.377  0.0098 -0.0351  0.1363
   73POPC   C3B 1428  -0.073   3.653   7.055 -0.4080  0.0991  0.1038
   73POPC   C4B 1429   0.223   3.256   6.920  0.1500  0.1240 -0.3617
   74POPC   NC3 1430   6.532   1.607  10.180  0.0155 -0.2279  0.0454
   74POPC   PO4 1431   6.414   1.264   9.944 -0.0380 -0.2932 -0.0364
   74POPC   GL1 1432   6.247   1.336   9.516 -0.0256  0.0173  0.0703
   74POPC   GL2 1433   6.285   1.007   9.319  0.1245 -0.0125 -0.2213
   74POPC   C1A 1434   6.166   1.419   9.049  0.0629 -0.0039 -0.2307
   74POPC   D2A 1435   6.398   1.680   8.730 -0.0136  0.0473 -0.0944
   74POPC   C3A 1436   6.510   1.564   8.283  0.2623  0.1391  0.2284
   74POPC   C4A 1437   6.799   1.451   8.185  0.1403  0.1367  0.0346
   74POPC   C1B 1438   6.346   0.931   8.787 -0.1394  0.1068  0.1961
   74POPC   C2B 1439   6.050   0.830   8.438 -0.2912 -0.0544 -0.0121
   74POPC   C3B 1440   5.823   0.964   8.084  0.2846  0.0856 -0.4303
   74POPC   C4B 1441   5.512   1.289   7.817  0.2576  0.2015  0.2469
   75POPC   NC3 1442   7.947   9.155   9.682 -0.2075 -0.0093 -0.0152
   75POPC   PO4 1443   8.237   9.107   9.426  0.1424  0.3236  0.3027
   75POPC   GL1 1444   8.124   9.096   8.981  0.0935 -0.1979 -0.1116
   75POPC   GL2 1445   7.788   8.835   8.773  0.0642 -0.3025  0.0958
   75POPC   C1A 1446   8.171   9.038   8.546  0.1100 -0.1678  0.3674
   75POPC   D2A 1447   8.393   8.999   8.221  0.1790 -0.4240 -0.1842
   75POPC   C3A 1448   8.780   8.878   8.285 -0.5445  0.1473  0.3240
   75POPC   C4A 1449   9.205   9.015   8.167 -0.3077  0.0116 -0.0954
   75POPC   C1B 1450   7.660   9.118   8.363 -0.0071 -0.1240 -0.4425
   75POPC   C2B 1451   7.890   9.402   8.133  0.2668  0.0800  0.2466
   75POPC   C3B 1452   7.846   9.593   7.673  0.1129  0.0684  0.1543
   75POPC   C4B 1453   7.890   9.363   7.276 -0.6699  0.0017 -0.2475
   76POPC   NC3 1454   7.415   2.190   9.334  0.3344  0.4702 -0.3013
   76POPC   PO4 1455   7.269   1.745   9.171 -0.0899  0.0530  0.0756
   76POPC   GL1 1456   7.081   1.550   8.788 -0.2929  0.2424 -0.1579
   76POPC   GL2 1457   7.168   1.766   8.489  0.0188 -0.0523 -0.3169
   76POPC   C1A 1458   6.926   1.188   8.596 -0.0740  0.4023 -0.0833
   76POPC   D2A 1459   6.494   1.014   8.316 -0.1853 -0.2712  0.1268
   76POPC   C3A 1460   6.238   1.222   8.007 -0.0300 -0.0085 -0.2291
   76POPC   C4A 1461   6.098   1.628   7.975 -0.0183 -0.0100 -0.0095
   76POPC   C1B 1462   7.206   1.781   8.071  0.1436  0.1108  0.0484
   76POPC   C2B 1463   6.957   1.677   7.783  0.0798  0.2442 -0.0081
   76POPC   C3B 1464   6.506   1.516   7.722  0.2069 -0.0409 -0.0855
   76POPC   C4B 1465   6.084   1.378   7.512 -0.4703  0.0128 -0.0452
   77POPC   NC3 1466   7.447   8.340   9.581 -0.0750  0.1509 -0.4312
   77POPC   PO4 1467   7.790   8.255   9.407 -0.1495  0.1181  0.1042
   77POPC   GL1 1468   7.884   8.328   8.935  0.1281 -0.0609 -0.3046
   77POPC   GL2 1469   7.804   8.036   8.790  0.0912 -0.0039  0.0851
   77POPC   C1A 1470   8.008   8.447   8.497 -0.1424  0.3484 -0.0913
   77POPC   D2A 1471   8.045   8.700   8.130 -0.0009 -0.0751 -0.1623
   77POPC   C3A 1472   8.276   8.634   7.732 -0.2112  0.1015  0.2300
   77POPC   C4A 1473   8.445   8.898   7.403  0.1491 -0.1078 -0.0374
   77POPC   C1B 1474   7.720   8.121   8.368  0.2521 -0.0839  0.1464
   77POPC   C2B 1475   7.781   8.201   7.923 -0.0277  0.2879 -0.0995
   77POPC   C3B 1476   7.733   8.448   7.600 -0.0486 -0.1828 -0.1065
   77POPC   C4B 1477   7.861   8.744   7.344 -0.3385 -0.0701 -0.0930
   78POPC   NC3 1478   8.717   6.973   8.971  0.1013  0.0747 -0.2660
   78POPC   PO4 1479   8.434   6.795   8.744 -0.1830  0.0093 -0.0788
   78POPC   GL1 1480   8.479   6.702   8.344 -0.0154 -0.2640 -0.2201
   78POPC   GL2 1481   8.813   6.718   8.398  0.1970  0.0117 -0.0382
   78POPC   C1A 1482   8.251   6.352   8.056  0.0780 -0.2771 -0.0484
   78POPC   D2A 1483   8.134   6.109   7.666  0.2741  0.3630  0.4000
   78POPC   C3A 1484   7.963   6.240   7.239 -0.1025  0.2326 -0.3511
   78POPC   C4A 1485   8.228   6.450   6.918  0.0651 -0.0640 -0.0279
   78POPC   C1B 1486   8.808   7.031   8.124 -0.4832  0.0979 -0.0045
   78POPC   C2B 1487   9.097   7.072   7.672 -0.0507 -0.1693  0.0506
   78POPC   C3B 1488   9.131   7.033   7.250  0.0469 -0.0734 -0.1087
   78POPC   C4B 1489   9.103   6.802   6.852  0.2642 -0.2701 -0.5011
   79POPC   NC3 1490   2.708   9.131   9.752 -0.1079 -0.0194 -0.3516
   79POPC   PO4 1491   2.956   8.690   9.563  0.0208 -0.4861 -0.0609
   79POPC   GL1 1492   2.791   8.894   9.290 -0.0509  0.3286  0.0874
   79POPC   GL2 1493   2.553   9.086   9.235  0.2537  0.1981 -0.0622
   79POPC   C1A 1494   3.050   9.227   9.159  0.1392  0.0415 -0.1181
   79POPC   D2A 1495   3.452   9.404   9.029 -0.1360 -0.0141  0.1442
   79POPC   C3A 1496   3.871   9.496   9.137  0.0579  0.1747 -0.1799
   79POPC   C4A 1497   4.196   9.278   9.339  0.1594 -0.3981  0.0140
   79POPC   C1B 1498   2.358   8.900   8.855 -0.0361 -0.2573  0.2819
   79POPC   C2B 1499   2.164   8.752   8.556 -0.1282 -0.1910  0.0782
   79POPC   C3B 1500   2.049   8.664   8.130 -0.1434 -0.5378 -0.0288
   79POPC   C4B 1501   1.831   8.831   7.774 -0.0582  0.2231  0.0700
   80POPC   NC3 1502   8.885   0.006   9.205 -0.2732 -0.1092 -0.1906
   80POPC   PO4 1503   8.672  -0.211   9.472 -0.0760 -0.1849  0.1239
   80POPC   GL1 1504   8.536  -0.411   9.101  0.1354 -0.1334 -0.0451
   80POPC   GL2 1505   8.687  -0.290   8.821 -0.2700  0.3169  0.0521
   80POPC   C1A 1506   8.301  -0.650   8.758 -0.1413  0.0888  0.0623
   80POPC   D2A 1507   8.206  -0.464   8.393 -0.3886  0.0745  0.0261
   80POPC   C3A 1508   8.315  -0.627   7.983 -0.0891 -0.3474 -0.2283
   80POPC   C4A 1509   8.234  -0.944   7.679 -0.4019 -0.0081 -0.1233
   80POPC   C1B 1510   8.777  -0.618   8.615  0.0040 -0.2578 -0.0677
   80POPC   C2B 1511   8.812  -0.854   8.167  0.4800  0.3264  0.1388
   80POPC   C3B 1512   8.663  -1.066   7.814  0.0651 -0.0856 -0.0110
   80POPC   C4B 1513   8.766  -1.483   7.736  0.0784  0.1990  0.0059
   81POPC   NC3 1514   1.360   4.338   8.675 -0.0184  0.0493  0.0995
   81POPC   PO4 1515   1.280   4.780   8.860  0.0849  0.0705  0.2815
   81POPC   GL1 1516   1.450   5.053   8.718  0.3198 -0.2466  0.0816
   81POPC   GL2 1517   1.618   5.362   8.646 -0.2018  0.0115  0.0480
   81POPC   C1A 1518   1.566   5.063   8.186 -0.0557  0.5261 -0.1867
   81POPC   D2A 1519   1.859   5.176   7.920 -0.0010 -0.3392 -0.0646
   81POPC   C3A 1520   1.695   5.141   7.456 -0.1687 -0.3356 -0.2808
   81POPC   C4A 1521   1.623   5.542   7.298 -0.0704  0.3887  0.3520
   81POPC   C1B 1522   1.885   5.370   8.362 -0.2034 -0.2740 -0.1882
   81POPC   C2B 1523   1.992   5.720   8.058  0.2287  0.2512  0.0377
   81POPC   C3B 1524   1.993   5.573   7.605 -0.1454 -0.0560  0.0683
   81POPC   C4B 1525   2.024   5.931   7.245 -0.1424 -0.1918  0.0425
   82POPC   NC3 1526   3.032   2.830   9.428  0.1103 -0.0777 -0.1459
   82POPC   PO4 1527   3.277   3.131   9.320 -0.1689 -0.1768 -0.0125
   82POPC   GL1 1528   3.368   2.864   8.988  0.1138 -0.1668  0.0454
   82POPC   GL2 1529   3.695   3.021   8.988  0.3730 -0.1962  0.0482
   82POPC   C1A 1530   3.499   2.450   8.877 -0.0090 -0.1281 -0.3141
   82POPC   D2A 1531   3.565   2.359   8.497  0.2764  0.2469  0.1364
   82POPC   C3A 1532   3.589   2.251   8.110 -0.1404 -0.1472  0.1574
   82POPC   C4A 1533   3.846   2.343   7.785 -0.0798 -0.1739 -0.0760
   82POPC   C1B 1534   3.918   2.694   8.890 -0.1247  0.2331 -0.0560
   82POPC   C2B 1535   3.985   2.424   8.660  0.1427 -0.0713 -0.2302
   82POPC   C3B 1536   3.964   1.895   8.559 -0.0600  0.0148  0.2187
   82POPC   C4B 1537   4.131   1.582   8.227  0.4300  0.0962  0.1286
   83POPC   NC3 1538  10.141   2.177   9.017 -0.0157 -0.3416 -0.1226
   83POPC   PO4 1539   9.704   2.084   8.950  0.2149 -0.2954  0.1470
   83POPC   GL1 1540   9.496   2.114   8.634 -0.2996 -0.0940  0.2153
   83POPC   GL2 1541   9.350   1.829   8.717  0.2381  0.2609  0.1102
   83POPC   C1A 1542   9.349   2.141   8.289 -0.0592 -0.0417  0.1210
   83POPC   D2A 1543   9.183   2.501   7.967 -0.3840  0.2764  0.0915
   83POPC   C3A 1544   8.901   2.408   7.624  0.2112  0.0770 -0.4506
   83POPC   C4A 1545   8.692   2.214   7.317  0.2478 -0.0569  0.0642
   83POPC   C1B 1546   9.016   1.556   8.368  0.0498  0.2269 -0.0109
   83POPC   C2B 1547   8.774   1.336   7.990  0.1973  0.2156  0.0646
   83POPC   C3B 1548   8.890   1.356   7.537 -0.1794  0.0352  0.0752
   83POPC   C4B 1549   8.824   1.709   7.284  0.3784 -0.0676 -0.0709
   84POPC   NC3 1550   6.325   4.917   8.784 -0.0187  0.2935 -0.2427
   84POPC   PO4 1551   6.434   5.230   9.095 -0.1269 -0.1972  0.1252
   84POPC   GL1 1552   6.786   5.379   8.720  0.2511  0.1755  0.1046
   84POPC   GL2 1553   6.766   5.147   8.513  0.3942 -0.2204  0.0302
   84POPC   C1A 1554   6.744   5.625   8.337 -0.2189 -0.1958  0.2316
   84POPC   D2A 1555   6.418   5.719   8.080 -0.1587 -0.1598 -0.0680
   84POPC   C3A 1556   6.236   5.379   7.954 -0.1267 -0.1894 -0.3566
   84POPC   C4A 1557   6.002   5.123   7.726  0.1050  0.0266 -0.3066
   84POPC   C1B 1558   6.566   5.166   8.192 -0.0919  0.0734  0.1835
   84POPC   C2B 1559   6.557   4.948   7.824  0.0543  0.0376 -0.2870
   84POPC   C3B 1560   6.364   5.014   7.443  0.0403 -0.1501  0.1376
   84POPC   C4B 1561   6.125   4.996   7.109  0.0829  0.0266  0.4154
   85POPC   NC3 1562   2.584   7.366   9.662 -0.4334  0.1791 -0.2022
   85POPC   PO4 1563   2.726   7.352   9.218  0.4290  0.1767  0.2033
   85POPC   GL1 1564   2.973   7.447   8.884 -0.1131  0.3479 -0.0127
   85POPC   GL2 1565   2.764   7.441   8.592  0.0178  0.1061  0.2232
   85POPC   C1A 1566   3.318   7.349   8.580 -0.1126  0.1863 -0.0123
   85POPC   D2A 1567   3.485   6.906   8.401  0.0143  0.0357 -0.0015
   85POPC   C3A 1568   3.860   6.878   8.194 -0.2567  0.2011 -0.0335
   85POPC   C4A 1569   4.082   6.489   8.024  0.0148  0.0714 -0.0208
   85POPC   C1B 1570   2.967   7.499   8.269 -0.0210  0.0227  0.0672
   85POPC   C2B 1571   3.427   7.350   8.040  0.2690  0.0847 -0.0121
   85POPC   C3B 1572   3.659   7.363   7.636  0.3474  0.0039 -0.0516
   85POPC   C4B 1573   3.754   7.653   7.268 -0.2158 -0.0305 -0.2508
   86POPC   NC3 1574   9.908   8.907   8.691 -0.1816  0.0534 -0.0621
   86POPC   PO4 1575   9.502   8.904   8.812 -0.0514  0.1824  0.0659
   86POPC   GL1 1576   9.589   9.170   8.409 -0.2212 -0.1625 -0.1019
   86POPC   GL2 1577   9.381   9.516   8.295 -0.0477 -0.0389 -0.0323
   86POPC   C1A 1578   9.666   9.155   8.023 -0.1643 -0.1583 -0.0565
   86POPC   D2A 1579   9.615   9.408   7.615 -0.2987  0.0409  0.2790
   86POPC   C3A 1580   9.851   9.075   7.333 -0.1514 -0.1513 -0.1389
   86POPC   C4A 1581  10.154   8.827   7.105  0.2767  0.2432 -0.0658
   86POPC   C1B 1582   9.211   9.480   7.898  0.1936  0.1781 -0.0675
   86POPC   C2B 1583   9.144   9.195   7.533 -0.0406 -0.0894  0.2204
   86POPC   C3B 1584   8.873   9.153   7.221  0.2086  0.1276 -0.1957
   86POPC   C4B 1585   8.896   9.420   6.872  0.1059 -0.0204  0.0494
   87POPC   NC3 1586   9.672   7.133   9.279  0.2175  0.1849 -0.1625
   87POPC   PO4 1587  10.052   7.350   9.246 -0.1258  0.1652  0.3148
   87POPC   GL1 1588   9.826   7.523   8.934  0.1328 -0.1214  0.1760
   87POPC   GL2 1589   9.666   7.242   8.773  0.0134  0.0657  0.0799
   87POPC   C1A 1590   9.449   7.685   8.640  0.0095  0.5217  0.1110
   87POPC   D2A 1591   9.448   7.799   8.305 -0.2593  0.2137  0.2944
   87POPC   C3A 1592   8.973   7.921   8.095  0.1204 -0.1503 -0.2955
   87POPC   C4A 1593   8.727   8.075   7.822  0.0491 -0.1898  0.0744
   87POPC   C1B 1594   9.769   7.349   8.376  0.0640  0.0946 -0.0196
   87POPC   C2B 1595  10.002   7.162   8.034  0.1154  0.2304 -0.0997
   87POPC   C3B 1596  10.425   6.978   7.852 -0.1928 -0.1625  0.1131
   87POPC   C4B 1597  10.775   7.047   7.486 -0.0283  0.0483  0.0715
   88POPC   NC3 1598   1.998   6.768   9.257 -0.1542 -0.2211 -0.0032
   88POPC   PO4 1599   2.133   6.436   9.002 -0.1872 -0.1931 -0.0464
   88POPC   GL1 1600   2.106   6.739   8.763  0.0440  0.0897 -0.0059
   88POPC   GL2 1601   2.237   7.111   8.833  0.0047  0.0581  0.0522
   88POPC   C1A 1602   2.164   6.850   8.289  0.1389  0.0094 -0.1209
   88POPC   D2A 1603   2.529   6.807   8.088  0.2167  0.2457  0.0391
   88POPC   C3A 1604   2.736   6.661   7.668 -0.0255  0.0631  0.1477
   88POPC   C4A 1605   2.812   6.348   7.380  0.0844 -0.0570 -0.0831
   88POPC   C1B 1606   2.295   7.277   8.589  0.1954  0.1722  0.0329
   88POPC   C2B 1607   2.493   7.349   8.194  0.0128  0.1905  0.1066
   88POPC   C3B 1608   2.507   7.479   7.715  0.0664 -0.2067 -0.1720
   88POPC   C4B 1609   2.213   7.496   7.353  0.0312  0.1576 -0.0927
   89POPC   NC3 1610   6.703   1.041   9.572 -0.1399  0.1146 -0.2007
   89POPC   PO4 1611   7.187   0.827   9.471  0.1468  0.2065 -0.0151
   89POPC   GL1 1612   6.950   0.868   9.128 -0.3275  0.1130 -0.5278
   89POPC   GL2 1613   6.672   0.638   9.274 -0.0339 -0.2891 -0.3247
   89POPC   C1A 1614   6.812   0.676   8.661  0.1098  0.1414 -0.0217
   89POPC   D2A 1615   6.576   0.501   8.275 -0.0869  0.0092  0.1752
   89POPC   C3A 1616   6.536  -0.000   8.146  0.1111 -0.0807 -0.3120
   89POPC   C4A 1617   6.340  -0.373   8.192 -0.2334 -0.1288 -0.1762
   89POPC   C1B 1618   6.249   0.470   8.948 -0.2975 -0.2656 -0.0180
   89POPC   C2B 1619   5.872   0.439   8.837 -0.0294  0.1307 -0.0110
   89POPC   C3B 1620   5.476   0.235   8.897  0.1156  0.1340 -0.1277
   89POPC   C4B 1621   5.025   0.274   9.006 -0.0938  0.1441  0.2055
   90POPC   NC3 1622   5.964   4.980   9.200 -0.0414  0.1078 -0.0894
   90POPC   PO4 1623   5.872   5.153   8.827 -0.0935  0.1583  0.5443
   90POPC   GL1 1624   5.871   5.090   8.431 -0.0757  0.3182  0.0554
   90POPC   GL2 1625   6.101   4.867   8.364  0.1112 -0.0219  0.0351
   90POPC   C1A 1626   5.728   5.347   8.056 -0.3022  0.0491 -0.0931
   90POPC   D2A 1627   5.549   5.612   7.664  0.0116 -0.0061  0.3379
   90POPC   C3A 1628   5.517   5.996   7.615 -0.2417 -0.3023  0.2615
   90POPC   C4A 1629   5.207   6.237   7.780  0.0827  0.1568 -0.1338
   90POPC   C1B 1630   6.243   4.571   8.044  0.3670  0.1215  0.0943
   90POPC   C2B 1631   6.241   4.470   7.595 -0.1991 -0.1609  0.1613
   90POPC   C3B 1632   6.380   4.561   7.169  0.0453  0.1073 -0.1049
   90POPC   C4B 1633   6.345   4.677   6.730 -0.0207 -0.2093 -0.0548
   91POPC   NC3 1634   1.925   0.406   8.997  0.2092  0.0500  0.1402
   91POPC   PO4 1635   2.020   0.056   9.256  0.0488 -0.0572 -0.0398
   91POPC   GL1 1636   2.179   0.031   8.888  0.2506  0.0143 -0.1291
   91POPC   GL2 1637   1.866   0.023   8.625 -0.2988  0.2702 -0.0249
   91POPC   C1A 1638   2.623  -0.191   8.729  0.0792  0.1645 -0.1889
   91POPC   D2A 1639   2.984  -0.201   8.513 -0.1068  0.3592 -0.0667
   91POPC   C3A 1640   3.370  -0.425   8.601 -0.2430 -0.3791 -0.1915
   91POPC   C4A 1641   3.879  -0.552   8.598  0.0539 -0.1228  0.0255
   91POPC   C1B 1642   2.078  -0.047   8.126 -0.2740  0.0516  0.1746
   91POPC   C2B 1643   2.097   0.119   7.802 -0.0999  0.0371  0.3325
   91POPC   C3B 1644   1.991   0.343   7.463  0.0565  0.2243 -0.3386
   91POPC   C4B 1645   1.822   0.431   7.159 -0.2121  0.1484 -0.1156
   92POPC   NC3 1646   1.761   2.377   9.203  0.0112 -0.1567  0.4575
   92POPC   PO4 1647   2.004   2.657   8.891 -0.0605  0.0660 -0.0390
   92POPC   GL1 1648   1.845   2.485   8.523 -0.0500  0.0675 -0.0570
   92POPC   GL2 1649   2.151   2.211   8.562  0.1666 -0.4137 -0.2075
   92POPC   C1A 1650   1.976   2.363   8.134  0.3289  0.2487 -0.0062
   92POPC   D2A 1651   1.710   2.510   7.689 -0.0007 -0.0616 -0.2506
   92POPC   C3A 1652   1.870   2.525   7.327  0.2019 -0.0531  0.2050
   92POPC   C4A 1653   1.841   2.521   6.894 -0.2900  0.0354  0.1863
   92POPC   C1B 1654   2.504   2.372   8.266  0.0583 -0.1225  0.0473
   92POPC   C2B 1655   2.491   2.454   7.846 -0.1228 -0.2340 -0.2419
   92POPC   C3B 1656   2.645   2.212   7.463  0.1534  0.1355 -0.1214
   92POPC   C4B 1657   2.831   1.848   7.355  0.0358  0.1711  0.0909
   93POPC   NC3 1658   1.938   4.543   9.456 -0.0943  0.0210  0.0945
   93POPC   PO4 1659   1.995   4.120   9.093 -0.1311 -0.3286 -0.1056
   93POPC   GL1 1660   1.908   4.185   8.685  0.0004  0.0692 -0.0569
   93POPC   GL2 1661   1.687   3.946   8.568 -0.0044 -0.2495 -0.0481
   93POPC   C1A 1662   2.088   4.344   8.334  0.0039  0.0789 -0.0539
   93POPC   D2A 1663   2.441   4.454   8.074  0.1155 -0.3819 -0.0941
   93POPC   C3A 1664   2.709   4.502   7.671  0.0422  0.1211  0.3335
   93POPC   C4A 1665   2.817   4.483   7.256  0.1450 -0.0278  0.1327
   93POPC   C1B 1666   1.832   3.971   8.103  0.0585 -0.0976 -0.0896
   93POPC   C2B 1667   1.920   4.189   7.869  0.2686  0.0628 -0.0965
   93POPC   C3B 1668   2.254   4.192   7.652  0.0477  0.1014 -0.0591
   93POPC   C4B 1669   2.680   4.002   7.512 -0.1004 -0.1329  0.0496
   94POPC   NC3 1670   4.931   7.214   9.194 -0.1467  0.2358  0.3519
   94POPC   PO4 1671   4.911   6.765   9.186 -0.1802  0.1394  0.1336
   94POPC   GL1 1672   5.042   6.690   8.788 -0.2784  0.1805  0.0914
   94POPC   GL2 1673   5.130   6.397   8.620  0.1393  0.0969 -0.0632
   94POPC   C1A 1674   5.254   6.927   8.550 -0.3427  0.0089 -0.5185
   94POPC   D2A 1675   5.382   6.968   8.078 -0.0985  0.1107 -0.0746
   94POPC   C3A 1676   5.017   7.149   7.852 -0.4841 -0.0540  0.1305
   94POPC   C4A 1677   4.887   7.116   7.484 -0.0767 -0.1834 -0.3094
   94POPC   C1B 1678   4.989   6.113   8.317  0.1198 -0.2567  0.0026
   94POPC   C2B 1679   4.745   5.837   8.016  0.0695 -0.0909 -0.1016
   94POPC   C3B 1680   4.485   5.559   7.800  0.0221  0.0954 -0.2213
   94POPC   C4B 1681   4.272   5.132   7.864  0.1301  0.1395 -0.3661
   95POPC   NC3 1682   8.543   5.235   8.765 -0.3061 -0.1474 -0.1497
   95POPC   PO4 1683   8.918   5.437   8.945  0.1651  0.0603 -0.0940
   95POPC   GL1 1684   8.958   5.487   8.503  0.3114 -0.1594  0.3350
   95POPC   GL2 1685   8.595   5.628   8.485 -0.1188  0.0879  0.1305
   95POPC   C1A 1686   9.001   5.629   8.021  0.1407  0.0125  0.1015
   95POPC   D2A 1687   9.318   5.514   7.653 -0.0858 -0.1215 -0.2601
   95POPC   C3A 1688   9.136   5.283   7.265 -0.1588  0.0049  0.1190
   95POPC   C4A 1689   8.729   5.076   7.110 -0.1529  0.0356 -0.1017
   95POPC   C1B 1690   8.522   5.836   8.075 -0.1161 -0.1414 -0.0971
   95POPC   C2B 1691   8.633   5.780   7.631 -0.0478 -0.4455  0.0499
   95POPC   C3B 1692   8.828   5.704   7.191 -0.1954 -0.1154 -0.0766
   95POPC   C4B 1693   8.761   5.673   6.736  0.2955 -0.2433  0.0001
   96POPC   NC3 1694   3.320   1.574   9.589 -0.1668 -0.0853  0.1000
   96POPC   PO4 1695   2.888   1.586   9.409  0.5588  0.2169  0.0044
   96POPC   GL1 1696   2.655   1.544   9.011 -0.2419 -0.2480 -0.0082
   96POPC   GL2 1697   2.296   1.632   8.960 -0.2040  0.3742  0.0087
   96POPC   C1A 1698   2.730   1.229   8.586  0.3550  0.0791  0.0011
   96POPC   D2A 1699   2.658   0.982   8.409  0.0261  0.1865 -0.4473
   96POPC   C3A 1700   2.815   0.738   8.074 -0.1109  0.3427  0.1235
   96POPC   C4A 1701   3.283   0.698   8.053 -0.2219 -0.1427 -0.2958
   96POPC   C1B 1702   2.050   1.791   8.661  0.4152  0.0712 -0.1030
   96POPC   C2B 1703   1.682   1.939   8.378 -0.0860  0.2027 -0.1663
   96POPC   C3B 1704   1.625   1.931   7.926 -0.1075 -0.0534  0.0192
   96POPC   C4B 1705   1.509   1.861   7.498  0.1664  0.1231  0.1835
   97POPC   NC3 1706   2.120   9.336   9.367 -0.1521 -0.2162  0.2528
   97POPC   PO4 1707   1.926   9.077   9.205 -0.2689 -0.1423  0.4748
   97POPC   GL1 1708   1.984   9.202   8.748 -0.1731  0.0568 -0.2221
   97POPC   GL2 1709   1.890   9.533   8.730  0.3137  0.4575 -0.0327
   97POPC   C1A 1710   2.154   9.206   8.313 -0.1844  0.3542  0.4141
   97POPC   D2A 1711   2.138   9.327   7.963 -0.0496  0.0078 -0.1362
   97POPC   C3A 1712   1.701   9.344   7.707  0.0165  0.2516 -0.1008
   97POPC   C4A 1713   1.489   9.087   7.433 -0.0428  0.0545 -0.0837
   97POPC   C1B 1714   2.242   9.808   8.511 -0.1988  0.1091  0.2572
   97POPC   C2B 1715   2.544   9.994   8.192 -0.0701  0.3607 -0.3913
   97POPC   C3B 1716   2.929   9.921   8.045  0.0918  0.2298  0.0123
   97POPC   C4B 1717   3.208   9.935   7.828  0.2224  0.1336  0.0000
   98POPC   NC3 1718   6.711   7.716   9.204  0.0919  0.3044  0.2486
   98POPC   PO4 1719   7.179   8.019   9.244  0.0802 -0.0213 -0.1125
   98POPC   GL1 1720   7.166   8.078   8.851 -0.0317  0.1507  0.0154
   98POPC   GL2 1721   7.318   7.937   8.585 -0.2846 -0.1508 -0.2520
   98POPC   C1A 1722   7.440   8.379   8.649 -0.0053  0.1024  0.0007
   98POPC   D2A 1723   7.551   8.629   8.295 -0.2476  0.0336  0.0596
   98POPC   C3A 1724   7.347   8.843   8.067  0.0530  0.0818  0.2228
   98POPC   C4A 1725   7.426   9.298   7.946  0.1424 -0.2472 -0.4967
   98POPC   C1B 1726   7.320   7.916   8.098 -0.2356 -0.2239 -0.1894
   98POPC   C2B 1727   7.351   8.178   7.693  0.1222 -0.1065  0.0699
   98POPC   C3B 1728   6.981   8.293   7.375  0.3539 -0.3583  0.0589
   98POPC   C4B 1729   6.458   8.301   7.481 -0.1046 -0.0641  0.1640
   99POPC   NC3 1730   0.336   2.536   9.126 -0.0802 -0.0347  0.2885
   99POPC   PO4 1731   0.003   2.814   8.904 -0.0634  0.1575 -0.1950
   99POPC   GL1 1732  -0.179   2.571   8.632 -0.0746  0.3398 -0.0238
   99POPC   GL2 1733  -0.004   2.725   8.404  0.2798  0.1593  0.2632
   99POPC   C1A 1734  -0.352   2.381   8.333 -0.0266  0.2896  0.3599
   99POPC   D2A 1735  -0.480   2.430   7.948  0.5255  0.4873  0.2722
   99POPC   C3A 1736  -0.381   2.225   7.498  0.0084 -0.0242  0.3281
   99POPC   C4A 1737  -0.399   1.760   7.385 -0.1151 -0.1133 -0.4123
   99POPC   C1B 1738  -0.069   2.739   7.989 -0.2017  0.4121  0.1329
   99POPC   C2B 1739  -0.031   2.871   7.577 -0.0130  0.0141 -0.3677
   99POPC   C3B 1740  -0.041   3.131   7.315  0.2178 -0.0193 -0.1991
   99POPC   C4B 1741  -0.347   3.271   6.980  0.2417 -0.0019  0.0515
  100POPC   NC3 1742   1.553   9.392   9.092  0.0418 -0.1256  0.2216
  100POPC   PO4 1743   1.315   9.641   8.932  0.1238 -0.1375  0.1607
  100POPC   GL1 1744   1.346   9.901   8.573 -0.2205  0.1957  0.2427
  100POPC   GL2 1745   1.358  10.172   8.583 -0.1941  0.1535 -0.1299
  100POPC   C1A 1746   1.203   9.667   8.188 -0.1386 -0.0102  0.0892
  100POPC   D2A 1747   1.100   9.246   8.157 -0.0673 -0.3826 -0.0321
  100POPC   C3A 1748   1.342   8.960   7.908 -0.1319  0.1542 -0.1175
  100POPC   C4A 1749   1.333   8.661   7.571 -0.0476  0.2206 -0.1112
  100POPC   C1B 1750   1.463  10.136   8.169 -0.0523  0.0451 -0.1218
  100POPC   C2B 1751   1.382   9.921   7.695  0.2274  0.1092  0.0986
  100POPC   C3B 1752   1.025   9.873   7.343  0.3492  0.0497 -0.2192
  100POPC   C4B 1753   0.696   9.960   7.035 -0.5824  0.4323  0.0466
  101POPC   NC3 1754   1.637   5.308   9.154 -0.1910 -0.0958  0.1902
  101POPC   PO4 1755   1.774   4.896   9.081  0.0701  0.2632 -0.0314
  101POPC   GL1 1756   1.893   4.959   8.618 -0.2775  0.0065 -0.1402
  101POPC   GL2 1757   1.743   4.630   8.501  0.1995 -0.2182  0.1001
  101POPC   C1A 1758   2.098   4.850   8.261  0.3571  0.0194  0.0463
  101POPC   D2A 1759   2.106   4.729   7.803 -0.0956 -0.2140  0.1517
  101POPC   C3A 1760   1.733   4.539   7.501  0.0907 -0.2689 -0.0288
  101POPC   C4A 1761   1.772   4.163   7.155 -0.0341  0.0497 -0.0758
  101POPC   C1B 1762   1.603   4.553   8.100 -0.0263 -0.4592 -0.2153
  101POPC   C2B 1763   1.218   4.463   7.873  0.0430  0.2467  0.0921
  101POPC   C3B 1764   0.936   4.419   7.632 -0.0048  0.2336 -0.5087
  101POPC   C4B 1765   0.469   4.366   7.593 -0.0764 -0.1414 -0.1105
  102POPC   NC3 1766   9.009   0.961   9.094 -0.0947  0.0767 -0.4118
  102POPC   PO4 1767   8.961   0.538   9.109 -0.3888 -0.3535 -0.0914
  102POPC   GL1 1768   9.016   0.593   8.650  0.1425  0.0806  0.2328
  102POPC   GL2 1769   9.249   0.690   8.625 -0.2617 -0.1968 -0.0939
  102POPC   C1A 1770   8.746   0.403   8.343  0.4310 -0.0854 -0.0450
  102POPC   D2A 1771   8.686   0.306   7.935 -0.1227  0.2059  0.0626
  102POPC   C3A 1772   9.028   0.280   7.728 -0.1634  0.1144  0.0021
  102POPC   C4A 1773   9.389   0.278   7.450  0.0317 -0.2413  0.4719
  102POPC   C1B 1774   9.275   0.571   8.227  0.1778  0.1059 -0.1790
  102POPC   C2B 1775   9.486   0.568   7.864  0.0646  0.0022 -0.0852
  102POPC   C3B 1776   9.864   0.294   7.632 -0.2720  0.0039  0.1933
  102POPC   C4B 1777  10.037   0.236   7.300 -0.1166 -0.0266 -0.0287
  103POPC   NC3 1778   4.542   3.624   9.179 -0.1858  0.0747  0.1815
  103POPC   PO4 1779   4.758   3.807   8.851 -0.0444 -0.2596 -0.2155
  103POPC   GL1 1780   4.587   3.772   8.511  0.0530 -0.0981  0.0503
  103POPC   GL2 1781   4.810   3.645   8.333 -0.1296 -0.3278  0.4421
  103POPC   C1A 1782   4.458   3.711   8.024  0.4109 -0.1589  0.0654
  103POPC   D2A 1783   4.442   3.663   7.574  0.3863 -0.0695 -0.2346
  103POPC   C3A 1784   4.377   3.361   7.254 -0.0162  0.1323  0.1770
  103POPC   C4A 1785   4.500   2.980   7.200 -0.0324  0.2151  0.2779
  103POPC   C1B 1786   4.985   3.844   8.032  0.0531  0.2382  0.1883
  103POPC   C2B 1787   4.899   4.194   7.632  0.1334  0.0292  0.2002
  103POPC   C3B 1788   4.896   4.552   7.326 -0.2687  0.2137 -0.3004
  103POPC   C4B 1789   4.582   4.676   6.937  0.0213 -0.0404  0.1681
  104POPC   NC3 1790   8.494   4.526   9.305  0.1789  0.0438 -0.1697
  104POPC   PO4 1791   8.292   4.278   8.981  0.1197 -0.0377  0.1684
  104POPC   GL1 1792   8.376   4.200   8.536  0.1813  0.1848 -0.0016
  104POPC   GL2 1793   8.274   4.492   8.311  0.0910  0.2572  0.1800
  104POPC   C1A 1794   8.288   4.001   8.148  0.1268  0.0846 -0.4014
  104POPC   D2A 1795   8.460   3.966   7.764  0.0386  0.1008  0.0919
  104POPC   C3A 1796   8.676   4.213   7.456 -0.0693 -0.3526  0.0108
  104POPC   C4A 1797   8.756   4.495   7.159  0.1177  0.3778 -0.0306
  104POPC   C1B 1798   8.730   4.658   8.359  0.1039  0.4243  0.2360
  104POPC   C2B 1799   9.187   4.742   8.059  0.0010 -0.1204 -0.3162
  104POPC   C3B 1800   9.451   4.881   7.617  0.2185 -0.0686 -0.2148
  104POPC   C4B 1801   9.700   5.180   7.491 -0.0168  0.3159  0.0391
  105POPC   NC3 1802   8.761   5.094   9.398 -0.3143 -0.0819 -0.0499
  105POPC   PO4 1803   8.898   4.894   9.013  0.0417  0.0522  0.1173
  105POPC   GL1 1804   8.952   4.979   8.567 -0.0463 -0.3851  0.0522
  105POPC   GL2 1805   9.332   4.955   8.476  0.1181  0.0172  0.1520
  105POPC   C1A 1806   8.804   5.138   8.189  0.0006 -0.4310 -0.1670
  105POPC   D2A 1807   8.564   4.847   7.927  0.1077 -0.1206 -0.1034
  105POPC   C3A 1808   8.272   4.444   7.851  0.1268 -0.1974 -0.1894
  105POPC   C4A 1809   7.985   4.107   7.684  0.2776  0.1336 -0.0735
  105POPC   C1B 1810   9.275   5.213   8.047 -0.0196  0.0301  0.3362
  105POPC   C2B 1811   8.971   5.120   7.773 -0.0958 -0.0416 -0.0394
  105POPC   C3B 1812   8.619   5.310   7.543 -0.1523 -0.4452 -0.1877
  105POPC   C4B 1813   8.272   5.205   7.730 -0.4009 -0.3134  0.0342
  106POPC   NC3 1814   4.321   2.906  10.048  0.0174 -0.0818  0.0016
  106POPC   PO4 1815   4.794   2.801  10.076 -0.0276  0.3605 -0.0737
  106POPC   GL1 1816   4.567   2.635   9.707  0.2079 -0.1316 -0.5477
  106POPC   GL2 1817   4.622   2.871   9.388 -0.0509  0.0911 -0.0934
  106POPC   C1A 1818   4.287   2.482   9.506 -0.1426  0.0284  0.1314
  106POPC   D2A 1819   3.934   2.371   9.352 -0.3180  0.2739 -0.0808
  106POPC   C3A 1820   4.004   2.036   9.061 -0.0236 -0.1581  0.0954
  106POPC   C4A 1821   4.469   1.858   9.104 -0.2858 -0.2783 -0.2200
  106POPC   C1B 1822   4.776   2.463   9.277  0.0142  0.0192  0.1104
  106POPC   C2B 1823   4.893   2.207   8.973  0.1710 -0.1361 -0.0303
  106POPC   C3B 1824   4.946   2.239   8.514 -0.1098 -0.0068 -0.3202
  106POPC   C4B 1825   4.645   2.366   8.199 -0.0075  0.3173 -0.5395
  107POPC   NC3 1826   0.280   1.163   9.466  0.1891 -0.0887 -0.0439
  107POPC   PO4 1827   0.355   1.034   9.032 -0.2180  0.1148 -0.0812
  107POPC   GL1 1828   0.472   1.308   8.662 -0.2909 -0.0816 -0.2133
  107POPC   GL2 1829   0.695   1.555   8.645  0.0658  0.1669 -0.2871
  107POPC   C1A 1830   0.433   1.213   8.180 -0.0096 -0.0383 -0.3081
  107POPC   D2A 1831   0.584   1.513   7.923 -0.1820 -0.0686 -0.0105
  107POPC   C3A 1832   0.645   1.618   7.516  0.2427  0.1534  0.1952
  107POPC   C4A 1833   0.540   1.651   7.173  0.3406  0.0126  0.2732
  107POPC   C1B 1834   0.618   1.773   8.353  0.1516 -0.0129  0.0140
  107POPC   C2B 1835   0.275   2.116   8.232  0.2466  0.0481  0.0049
  107POPC   C3B 1836  -0.031   2.270   7.930 -0.4133  0.1710 -0.1045
  107POPC   C4B 1837   0.077   2.405   7.578  0.4715 -0.1061  0.0331
  108POPC   NC3 1838   3.880   4.192   8.849  0.1388 -0.0398 -0.2387
  108POPC   PO4 1839   4.156   3.837   8.926  0.1233  0.0145 -0.1021
  108POPC   GL1 1840   3.968   3.816   8.523 -0.2479 -0.2933 -0.1752
  108POPC   GL2 1841   3.566   3.789   8.616 -0.3449  0.0372  0.2136
  108POPC   C1A 1842   3.908   3.714   8.237 -0.1525 -0.0720  0.2226
  108POPC   D2A 1843   3.648   3.620   7.852 -0.1025 -0.1685 -0.1473
  108POPC   C3A 1844   3.861   3.925   7.434 -0.1865 -0.1594  0.1885
  108POPC   C4A 1845   4.089   3.954   7.021 -0.1084  0.0275 -0.3065
  108POPC   C1B 1846   3.405   3.637   8.248 -0.1705  0.2553  0.0950
  108POPC   C2B 1847   3.274   3.300   8.056  0.0685 -0.1410  0.2817
  108POPC   C3B 1848   3.326   3.299   7.585  0.3654 -0.1054  0.1917
  108POPC   C4B 1849   3.136   3.254   7.245 -0.0425  0.2028 -0.2797
  109POPC   NC3 1850   6.628   4.072   8.726 -0.1010  0.0647 -0.3106
  109POPC   PO4 1851   6.340   4.408   8.720 -0.1212  0.0457  0.2718
  109POPC   GL1 1852   6.265   4.243   8.402 -0.1752 -0.2477  0.2136
  109POPC   GL2 1853   6.723   4.136   8.282 -0.3464  0.2202  0.0592
  109POPC   C1A 1854   6.340   3.978   8.029  0.1018  0.2232 -0.0870
  109POPC   D2A 1855   6.160   3.951   7.673  0.1970  0.5845 -0.2632
  109POPC   C3A 1856   6.117   3.716   7.293 -0.2685  0.1830  0.0138
  109POPC   C4A 1857   5.912   3.323   7.200 -0.3679  0.2474 -0.1495
  109POPC   C1B 1858   6.787   3.781   8.168  0.0594 -0.2710 -0.1150
  109POPC   C2B 1859   6.762   3.946   7.805 -0.0073 -0.0752  0.1311
  109POPC   C3B 1860   6.613   4.197   7.469 -0.4531  0.1887 -0.0377
  109POPC   C4B 1861   6.757   4.738   7.417 -0.0536 -0.3414 -0.0014
  110POPC   NC3 1862   1.070   4.310   9.061 -0.2645 -0.0621 -0.1292
  110POPC   PO4 1863   0.727   4.035   9.010 -0.3736 -0.0715 -0.0275
  110POPC   GL1 1864   0.722   3.989   8.575 -0.2851 -0.0441 -0.0240
  110POPC   GL2 1865   0.439   4.070   8.408 -0.4390 -0.1570 -0.0153
  110POPC   C1A 1866   0.760   3.632   8.198  0.2248 -0.0595 -0.1454
  110POPC   D2A 1867   0.858   3.362   7.827 -0.0479 -0.3304 -0.1171
  110POPC   C3A 1868   0.875   2.987   7.872 -0.0199 -0.3930  0.0188
  110POPC   C4A 1869   1.042   2.593   8.033 -0.2031 -0.2501 -0.1332
  110POPC   C1B 1870   0.771   4.200   8.155 -0.0291  0.1604  0.1221
  110POPC   C2B 1871   0.934   3.932   7.771  0.2271 -0.0848 -0.1052
  110POPC   C3B 1872   0.789   3.969   7.414 -0.1022 -0.0857  0.0221
  110POPC   C4B 1873   0.875   4.220   7.141 -0.1931 -0.2500 -0.1233
  111POPC   NC3 1874   8.308   0.512   9.323  0.0308  0.0508  0.5553
  111POPC   PO4 1875   8.618   0.305   9.467  0.1216  0.2683  0.1436
  111POPC   GL1 1876   8.523   0.220   8.982 -0.0886  0.2998 -0.0829
  111POPC   GL2 1877   8.809   0.179   8.786  0.2409 -0.1868  0.0021
  111POPC   C1A 1878   8.306   0.438   8.619 -0.0097  0.0256 -0.0517
  111POPC   D2A 1879   8.270   0.900   8.601 -0.0188  0.2907 -0.2634
  111POPC   C3A 1880   8.053   1.080   8.364  0.2759 -0.2513  0.0011
  111POPC   C4A 1881   7.590   0.963   8.288 -0.1772  0.3190 -0.1045
  111POPC   C1B 1882   9.156   0.143   8.484  0.0660 -0.4207 -0.1132
  111POPC   C2B 1883   9.365   0.134   8.093 -0.0303 -0.0331 -0.0764
  111POPC   C3B 1884   9.298  -0.241   7.771  0.0095 -0.0696  0.1253
  111POPC   C4B 1885   9.258  -0.527   7.416 -0.2166  0.1788 -0.2108
  112POPC   NC3 1886   4.654   1.396  10.015 -0.0329  0.2768  0.1063
  112POPC   PO4 1887   4.924   0.942  10.214  0.2155  0.2139 -0.1624
  112POPC   GL1 1888   5.008   0.951   9.719  0.0833 -0.1360 -0.2870
  112POPC   GL2 1889   4.730   1.149   9.577  0.2954  0.1337 -0.0096
  112POPC   C1A 1890   5.102   0.825   9.333  0.3093 -0.1175  0.0389
  112POPC   D2A 1891   5.369   0.671   9.110  0.0268  0.2048  0.3268
  112POPC   C3A 1892   5.538   0.876   8.734 -0.1371  0.1727  0.2024
  112POPC   C4A 1893   5.914   1.006   8.937 -0.1153 -0.1741 -0.0056
  112POPC   C1B 1894   4.792   1.171   9.197 -0.2951 -0.2292 -0.0879
  112POPC   C2B 1895   4.614   1.120   8.727  0.0924 -0.3999 -0.1843
  112POPC   C3B 1896   4.638   1.356   8.348  0.0105  0.0447  0.2991
  112POPC   C4B 1897   4.504   1.332   7.804 -0.1571 -0.1151 -0.0483
  113POPC   NC3 1898  10.083   0.996   9.042 -0.0919 -0.0781  0.0839
  113POPC   PO4 1899  10.229   1.368   8.958 -0.1317  0.0439  0.4036
  113POPC   GL1 1900  10.141   1.234   8.600 -0.2082 -0.1954  0.2600
  113POPC   GL2 1901  10.238   1.010   8.382 -0.0949 -0.1169 -0.1686
  113POPC   C1A 1902  10.019   1.314   8.106 -0.1032  0.1424  0.2266
  113POPC   D2A 1903   9.645   1.363   7.804 -0.0685 -0.1958  0.0059
  113POPC   C3A 1904   9.667   1.177   7.324  0.1809  0.1965  0.3266
  113POPC   C4A 1905   9.423   1.047   7.011 -0.0946  0.3223 -0.1586
  113POPC   C1B 1906  10.274   0.680   8.271  0.1280  0.2772  0.0960
  113POPC   C2B 1907  10.568   0.303   8.130  0.0953 -0.2903  0.0590
  113POPC   C3B 1908  10.953   0.202   8.068  0.3142 -0.3072 -0.0198
  113POPC   C4B 1909  11.175  -0.084   8.226  0.0333  0.0133  0.0024
  114POPC   NC3 1910   6.290   1.232  10.508 -0.0504 -0.3696 -0.0784
  114POPC   PO4 1911   5.859   1.232  10.353 -0.0380  0.0798 -0.0862
  114POPC   GL1 1912   5.919   1.244   9.954  0.2418  0.0741 -0.6258
  114POPC   GL2 1913   5.992   0.967   9.757 -0.0255 -0.1592  0.1082
  114POPC   C1A 1914   5.798   1.476   9.623 -0.2903 -0.2029  0.0922
  114POPC   D2A 1915   5.769   1.666   9.185  0.2082  0.1583 -0.0644
  114POPC   C3A 1916   5.950   1.997   8.930  0.2318  0.0122  0.2068
  114POPC   C4A 1917   5.871   2.372   8.754  0.0243  0.1772  0.0830
  114POPC   C1B 1918   5.865   0.636   9.370  0.2474 -0.0303  0.2101
  114POPC   C2B 1919   5.754   0.221   9.285 -0.0227 -0.0098 -0.1409
  114POPC   C3B 1920   5.814  -0.151   9.025  0.1764  0.0795  0.0655
  114POPC   C4B 1921   6.082  -0.353   8.688  0.0872 -0.1406  0.0711
  115POPC   NC3 1922   1.574   0.236   9.453  0.2149  0.2543 -0.1621
  115POPC   PO4 1923   1.426   0.395   8.968  0.3761  0.2298  0.2931
  115POPC   GL1 1924   1.588   0.585   8.618  0.3001  0.2172  0.1893
  115POPC   GL2 1925   1.683   0.830   8.757 -0.0165 -0.2735  0.1500
  115POPC   C1A 1926   1.640   0.439   8.250  0.1083  0.0946 -0.1886
  115POPC   D2A 1927   1.729   0.443   7.937 -0.1228  0.0594 -0.0260
  115POPC   C3A 1928   1.510   0.170   7.660  0.0914  0.1523 -0.0776
  115POPC   C4A 1929   1.546  -0.030   7.276  0.1790 -0.0506  0.0578
  115POPC   C1B 1930   1.773   0.937   8.274 -0.2412 -0.2944 -0.1512
  115POPC   C2B 1931   1.833   1.066   7.897  0.2407  0.0127  0.1917
  115POPC   C3B 1932   1.881   1.503   7.762 -0.0888 -0.2084 -0.1009
  115POPC   C4B 1933   1.981   1.643   7.374  0.1610 -0.0360  0.1993
  116POPC   NC3 1934   5.292   1.342   9.941 -0.0511  0.1358 -0.1582
  116POPC   PO4 1935   5.055   1.546   9.743 -0.0479 -0.2149  0.1167
  116POPC   GL1 1936   5.259   1.702   9.395 -0.2029  0.2583 -0.3680
  116POPC   GL2 1937   5.389   1.988   9.369 -0.0512 -0.1058  0.3212
  116POPC   C1A 1938   5.040   1.649   9.086  0.3094 -0.0472  0.2011
  116POPC   D2A 1939   5.151   1.337   8.783 -0.0681 -0.2923 -0.1897
  116POPC   C3A 1940   5.029   0.900   8.845 -0.0767  0.0647  0.2690
  116POPC   C4A 1941   4.722   0.523   8.681  0.1727 -0.2973  0.0416
  116POPC   C1B 1942   5.416   2.008   8.901 -0.0028 -0.3632  0.0563
  116POPC   C2B 1943   5.610   1.974   8.532 -0.2375  0.0078  0.1212
  116POPC   C3B 1944   6.015   1.820   8.412 -0.1774 -0.6142  0.1888
  116POPC   C4B 1945   6.356   2.125   8.493  0.1025 -0.1667  0.0675
  117POPC   NC3 1946   2.257   1.379   9.404  0.3942  0.0872 -0.1363
  117POPC   PO4 1947   2.181   0.960   9.177  0.1806  0.1541  0.0905
  117POPC   GL1 1948   2.283   0.681   8.821 -0.0523  0.1184  0.3459
  117POPC   GL2 1949   2.077   0.631   8.488  0.1851 -0.2931 -0.4737
  117POPC   C1A 1950   2.691   0.650   8.807 -0.1507  0.3254 -0.1708
  117POPC   D2A 1951   3.003   0.498   9.074  0.1041 -0.2126 -0.3689
  117POPC   C3A 1952   3.364   0.798   8.991 -0.1398 -0.0094 -0.1921
  117POPC   C4A 1953   3.655   0.872   8.725  0.0649 -0.1973 -0.0247
  117POPC   C1B 1954   2.300   0.585   8.100  0.1717  0.0776 -0.1410
  117POPC   C2B 1955   2.409   0.735   7.738  0.1924 -0.1437 -0.1347
  117POPC   C3B 1956   2.727   0.705   7.522 -0.0547 -0.2095 -0.0224
  117POPC   C4B 1957   2.984   0.511   7.183 -0.2431  0.0899 -0.2829
  118POPC   NC3 1958   8.394   0.446   9.930 -0.1522 -0.0478 -0.0259
  118POPC   PO4 1959   7.975   0.581   9.726 -0.0469  0.2874 -0.0605
  118POPC   GL1 1960   7.798   0.388   9.321  0.2247  0.1109 -0.1246
  118POPC   GL2 1961   7.500   0.561   9.111  0.0157 -0.0398 -0.3095
  118POPC   C1A 1962   7.876   0.328   8.857 -0.1807  0.2022 -0.2027
  118POPC   D2A 1963   8.042   0.077   8.453 -0.0028  0.0433  0.0414
  118POPC   C3A 1964   8.149   0.299   8.174 -0.0705  0.1595 -0.1386
  118POPC   C4A 1965   8.260   0.632   8.175 -0.1343 -0.0616  0.1376
  118POPC   C1B 1966   7.311   0.536   8.637  0.2347  0.0432  0.0266
  118POPC   C2B 1967   7.105   0.780   8.233 -0.0896  0.0595 -0.0647
  118POPC   C3B 1968   7.388   0.890   7.788 -0.2122 -0.1343  0.0817
  118POPC   C4B 1969   7.573   1.084   7.350 -0.1159 -0.1371 -0.0749
  119POPC   NC3 1970   7.046   6.938   8.712 -0.1629 -0.2443 -0.0946
  119POPC   PO4 1971   6.683   6.775   9.047  0.0532  0.2488  0.3546
  119POPC   GL1 1972   6.474   6.941   8.688  0.2654 -0.0012  0.0453
  119POPC   GL2 1973   6.164   6.754   8.656 -0.3431  0.0370 -0.0887
  119POPC   C1A 1974   6.428   6.843   8.217 -0.0761 -0.1063 -0.3743
  119POPC   D2A 1975   6.198   6.527   7.965  0.1954 -0.1789 -0.0932
  119POPC   C3A 1976   6.188   6.132   7.762 -0.0756 -0.0767 -0.0398
  119POPC   C4A 1977   6.038   5.807   7.561 -0.1961 -0.0676  0.0991
  119POPC   C1B 1978   5.845   6.790   8.316 -0.1570  0.3225  0.0639
  119POPC   C2B 1979   5.892   6.934   7.851 -0.0629 -0.5773  0.1466
  119POPC   C3B 1980   5.977   7.293   7.610 -0.0093 -0.0527 -0.0350
  119POPC   C4B 1981   5.753   7.752   7.635  0.2474 -0.1387 -0.0379
  120POPC   NC3 1982   6.165   2.802   9.087 -0.2653 -0.1489 -0.0323
  120POPC   PO4 1983   6.351   3.093   8.893 -0.0309  0.1037  0.1827
  120POPC   GL1 1984   6.578   3.012   8.516  0.2187 -0.3715 -0.1121
  120POPC   GL2 1985   6.814   3.276   8.402  0.1164  0.2118  0.0585
  120POPC   C1A 1986   6.699   2.974   7.988  0.0764 -0.0710  0.0844
  120POPC   D2A 1987   6.571   2.852   7.573 -0.4416  0.4461  0.0577
  120POPC   C3A 1988   6.262   2.748   7.367 -0.2960 -0.0566  0.1095
  120POPC   C4A 1989   6.092   2.792   7.071  0.2565 -0.0138  0.3693
  120POPC   C1B 1990   6.535   3.440   7.972  0.1029 -0.1283 -0.1426
  120POPC   C2B 1991   6.558   3.501   7.647 -0.4010 -0.0102 -0.0166
  120POPC   C3B 1992   6.648   3.754   7.322  0.2204  0.1302 -0.3179
  120POPC   C4B 1993   6.858   3.898   7.026 -0.2183 -0.1911 -0.0504
  121POPC   NC3 1994   4.283   4.715   9.382  0.1088 -0.0522 -0.3098
  121POPC   PO4 1995   4.163   4.567   8.993  0.0559  0.0775 -0.0081
  121POPC   GL1 1996   3.984   4.529   8.491 -0.1648  0.0522  0.1735
  121POPC   GL2 1997   3.696   4.267   8.419  0.0039  0.3275  0.0526
  121POPC   C1A 1998   4.173   4.713   8.071  0.0708 -0.0041  0.0118
  121POPC   D2A 1999   4.049   4.630   7.603  0.0560  0.1816  0.1306
  121POPC   C3A 2000   4.045   4.904   7.218  0.0155 -0.0432 -0.1664
  121POPC   C4A 2001   3.624   5.034   7.097 -0.0966 -0.0163  0.0354
  121POPC   C1B 2002   4.090   4.143   8.160  0.2510 -0.3907 -0.0887
  121POPC   C2B 2003   4.224   4.077   7.727  0.1325  0.3130 -0.2228
  121POPC   C3B 2004   4.304   4.293   7.265 -0.0986  0.1089  0.0979
  121POPC   C4B 2005   4.673   4.188   7.105 -0.0591  0.1153 -0.0084
  122POPC   NC3 2006   8.251   6.105   9.247  0.1545 -0.0847 -0.0873
  122POPC   PO4 2007   7.834   6.054   9.017 -0.0246 -0.0490  0.1758
  122POPC   GL1 2008   7.783   6.084   8.641  0.0661 -0.0328 -0.1477
  122POPC   GL2 2009   7.503   6.276   8.460 -0.2189  0.0110 -0.1541
  122POPC   C1A 2010   7.838   5.985   8.182 -0.2210 -0.1123 -0.2136
  122POPC   D2A 2011   7.652   5.996   7.872 -0.0552 -0.0405 -0.0373
  122POPC   C3A 2012   7.591   6.364   7.526 -0.1413  0.0144 -0.3244
  122POPC   C4A 2013   7.702   6.633   7.115 -0.0542  0.0442 -0.3750
  122POPC   C1B 2014   7.604   6.545   8.112 -0.0396 -0.0785 -0.1266
  122POPC   C2B 2015   7.398   6.755   7.848  0.0471 -0.0866  0.2345
  122POPC   C3B 2016   7.379   6.939   7.518 -0.0673 -0.0132  0.2932
  122POPC   C4B 2017   7.300   7.277   7.199  0.0809  0.0326  0.0458
  123POPC   NC3 2018   5.397   4.472   8.703  0.1363 -0.0826  0.2835
  123POPC   PO4 2019   5.448   4.873   8.545  0.2554  0.3878 -0.1297
  123POPC   GL1 2020   5.554   4.631   8.224 -0.1285  0.2653 -0.1462
  123POPC   GL2 2021   5.319   4.336   8.180  0.1915 -0.2123 -0.0885
  123POPC   C1A 2022   5.743   4.744   7.940 -0.0243  0.1306 -0.0395
  123POPC   D2A 2023   5.855   4.760   7.433 -0.1064 -0.3004 -0.0302
  123POPC   C3A 2024   5.841   4.592   7.109 -0.1289  0.2889 -0.0224
  123POPC   C4A 2025   5.704   4.506   6.643 -0.0769 -0.0911  0.0537
  123POPC   C1B 2026   4.979   4.623   7.952  0.4212 -0.0571  0.0785
  123POPC   C2B 2027   4.845   5.012   7.740  0.1738  0.0025 -0.1518
  123POPC   C3B 2028   4.915   5.356   7.572 -0.0675  0.0442  0.0369
  123POPC   C4B 2029   5.006   5.660   7.632  0.0363 -0.0570 -0.0484
  124POPC   NC3 2030   9.799   1.605   9.085  0.3131 -0.1189  0.0672
  124POPC   PO4 2031   9.468   1.373   9.218 -0.0123  0.0743 -0.0252
  124POPC   GL1 2032   9.443   1.285   8.786 -0.0088 -0.3132 -0.0243
  124POPC   GL2 2033   9.697   1.458   8.552  0.0017  0.0054 -0.2940
  124POPC   C1A 2034   9.277   1.130   8.382 -0.0802 -0.0669 -0.0525
  124POPC   D2A 2035   9.209   1.123   7.944 -0.2460 -0.3769 -0.0648
  124POPC   C3A 2036   9.228   0.967   7.598  0.0286 -0.0045 -0.1467
  124POPC   C4A 2037   9.027   0.585   7.261 -0.3125  0.0845  0.0744
  124POPC   C1B 2038   9.510   1.548   8.213 -0.0519 -0.0640  0.0087
  124POPC   C2B 2039   9.224   1.648   7.910 -0.0540 -0.0892 -0.4493
  124POPC   C3B 2040   8.865   1.844   7.795  0.3519 -0.1919 -0.1028
  124POPC   C4B 2041   8.429   1.532   7.649 -0.1752  0.0573  0.1218
  125POPC   NC3 2042   6.045   4.019   8.799  0.0037  0.0907  0.1753
  125POPC   PO4 2043   6.255   3.707   8.959  0.0923 -0.0295 -0.0346
  125POPC   GL1 2044   6.145   3.456   8.548 -0.0635  0.3052  0.0874
  125POPC   GL2 2045   6.378   3.664   8.384 -0.0018  0.1191 -0.1429
  125POPC   C1A 2046   6.207   3.118   8.197  0.0183  0.0354 -0.2450
  125POPC   D2A 2047   6.181   3.145   7.703 -0.0948  0.0015  0.4761
  125POPC   C3A 2048   5.743   2.981   7.540  0.1942 -0.1068  0.1948
  125POPC   C4A 2049   5.475   2.634   7.256 -0.1678 -0.4233 -0.1211
  125POPC   C1B 2050   6.001   3.533   7.998  0.0383 -0.1425  0.0943
  125POPC   C2B 2051   5.747   3.603   7.640 -0.0498 -0.1268  0.1248
  125POPC   C3B 2052   5.478   3.543   7.305 -0.1069 -0.1233 -0.3090
  125POPC   C4B 2053   5.299   3.150   7.143  0.0746 -0.0011 -0.0771
  126POPC   NC3 2054   9.157   6.329   9.132 -0.4270 -0.1376 -0.0303
  126POPC   PO4 2055   9.609   6.246   9.044  0.0571 -0.0254  0.1805
  126POPC   GL1 2056   9.524   6.384   8.673 -0.0226  0.0661 -0.1361
  126POPC   GL2 2057   9.585   6.711   8.582 -0.1666  0.2135  0.0487
  126POPC   C1A 2058   9.347   6.456   8.246  0.0134 -0.0081  0.0608
  126POPC   D2A 2059   9.074   6.585   7.857  0.1314 -0.0754 -0.0969
  126POPC   C3A 2060   9.199   6.261   7.638  0.0070  0.2067  0.0245
  126POPC   C4A 2061   9.162   5.960   7.407  0.3189  0.1400 -0.1573
  126POPC   C1B 2062   9.840   6.727   8.235 -0.0787 -0.0035  0.1476
  126POPC   C2B 2063  10.062   6.615   7.944 -0.0487 -0.1516  0.1261
  126POPC   C3B 2064   9.954   6.874   7.515  0.1388  0.1196 -0.1293
  126POPC   C4B 2065   9.769   7.190   7.283 -0.2425 -0.1411  0.1203
  127POPC   NC3 2066   1.604   1.200   9.746 -0.1822 -0.1896 -0.4845
  127POPC   PO4 2067   1.754   1.193   9.322 -0.0759  0.2278  0.2165
  127POPC   GL1 2068   1.918   1.260   8.835  0.0346 -0.2881 -0.1302
  127POPC   GL2 2069   1.775   1.377   8.508 -0.1454 -0.0344  0.0717
  127POPC   C1A 2070   2.227   1.181   8.562 -0.0118 -0.1821  0.0645
  127POPC   D2A 2071   2.293   1.090   8.071  0.2056  0.3034  0.1612
  127POPC   C3A 2072   2.705   1.148   7.806  0.0081  0.2038 -0.2508
  127POPC   C4A 2073   2.923   1.501   7.699 -0.0950  0.1558 -0.2915
  127POPC   C1B 2074   2.054   1.466   8.246  0.1844 -0.3289  0.1301
  127POPC   C2B 2075   2.166   1.871   8.118 -0.3056  0.2096  0.0657
  127POPC   C3B 2076   2.092   2.122   7.726 -0.1232 -0.1036 -0.0732
  127POPC   C4B 2077   2.119   2.110   7.289  0.0344  0.2620  0.0179
  128POPC   NC3 2078   5.860   3.297   8.996 -0.1196  0.0420  0.0493
  128POPC   PO4 2079   5.681   3.692   8.850 -0.1205  0.2245  0.0201
  128POPC   GL1 2080   5.668   3.899   8.412  0.3237  0.1794 -0.0193
  128POPC   GL2 2081   5.720   4.154   8.436 -0.1213 -0.0299 -0.1375
  128POPC   C1A 2082   5.485   3.827   8.028  0.0897 -0.2147 -0.3050
  128POPC   D2A 2083   5.242   3.868   7.621  0.2697 -0.2533 -0.3415
  128POPC   C3A 2084   5.347   4.232   7.361 -0.2789  0.2359 -0.1354
  128POPC   C4A 2085   5.353   4.539   7.594  0.1210 -0.0076 -0.2018
  128POPC   C1B 2086   5.875   4.210   8.070 -0.0591  0.1444 -0.4513
  128POPC   C2B 2087   5.799   4.306   7.697 -0.2027 -0.0762  0.1510
  128POPC   C3B 2088   5.806   4.111   7.358  0.2686  0.0198 -0.1452
  128POPC   C4B 2089   5.989   4.109   6.980 -0.1769 -0.1031  0.1449
  129POPC   NC3 2090   3.610   5.511   8.872 -0.1121 -0.1238  0.1590
  129POPC   PO4 2091   3.483   5.129   8.851  0.2069  0.0557  0.3185
  129POPC   GL1 2092   3.403   5.266   8.433  0.0923 -0.1133  0.1003
  129POPC   GL2 2093   3.184   5.102   8.335 -0.2242 -0.0525 -0.1129
  129POPC   C1A 2094   3.617   5.471   8.065  0.4418  0.2021 -0.1984
  129POPC   D2A 2095   3.956   5.486   7.789  0.4527  0.1091 -0.0090
  129POPC   C3A 2096   4.143   5.380   7.418  0.0464  0.0776  0.2435
  129POPC   C4A 2097   4.404   5.332   6.993  0.1298  0.1176 -0.0278
  129POPC   C1B 2098   3.302   5.012   8.011  0.4673 -0.0647 -0.0366
  129POPC   C2B 2099   3.152   4.878   7.709  0.5088 -0.1574  0.0857
  129POPC   C3B 2100   3.217   4.797   7.280 -0.0140 -0.0255 -0.0911
  129POPC   C4B 2101   3.341   4.495   6.943  0.1139 -0.0627 -0.0344
  130POPC   NC3 2102   9.769   5.739   8.998  0.1627  0.2549  0.3214
  130POPC   PO4 2103   9.996   5.355   9.084 -0.1762  0.1641 -0.1668
  130POPC   GL1 2104  10.300   5.350   8.696 -0.0980  0.1574  0.5727
  130POPC   GL2 2105  10.500   5.259   8.639 -0.0043  0.1637 -0.0551
  130POPC   C1A 2106  10.149   5.379   8.287 -0.1775  0.2527 -0.1237
  130POPC   D2A 2107  10.243   5.235   7.830 -0.0177 -0.1634 -0.2254
  130POPC   C3A 2108  10.450   4.882   7.745  0.3851  0.1773  0.1356
  130POPC   C4A 2109  10.456   4.801   7.348 -0.0346 -0.0109  0.2618
  130POPC   C1B 2110  10.612   5.080   8.180 -0.1764  0.0258 -0.0536
  130POPC   C2B 2111  10.825   5.187   7.949 -0.2539  0.0128 -0.0833
  130POPC   C3B 2112  11.122   5.575   7.967  0.0567  0.0001  0.1875
  130POPC   C4B 2113  11.260   5.894   8.010  0.4031 -0.2102 -0.1721
  131POPC   NC3 2114   3.133   3.844   8.939  0.1566  0.3911  0.1725
  131POPC   PO4 2115   3.315   4.240   8.836 -0.1580  0.1910 -0.1810
  131POPC   GL1 2116   3.174   4.162   8.386 -0.1262  0.0946  0.0149
  131POPC   GL2 2117   2.875   4.154   8.398  0.3801  0.1489 -0.2477
  131POPC   C1A 2118   3.179   4.192   7.919 -0.0394  0.1854  0.0802
  131POPC   D2A 2119   3.169   4.356   7.584  0.1513  0.2160 -0.2173
  131POPC   C3A 2120   3.606   4.389   7.410  0.1131 -0.0138  0.1866
  131POPC   C4A 2121   3.853   4.439   7.038 -0.3241 -0.0369  0.0572
  131POPC   C1B 2122   2.655   3.995   8.010  0.1106 -0.3071 -0.0527
  131POPC   C2B 2123   2.524   3.638   7.890 -0.0065  0.0283 -0.0844
  131POPC   C3B 2124   2.345   3.323   7.719 -0.0765  0.4130 -0.0745
  131POPC   C4B 2125   2.174   3.282   7.324 -0.0966 -0.1864  0.1711
  132POPC   NC3 2126   5.208   8.991  10.556  0.1955  0.2782 -0.0257
  132POPC   PO4 2127   5.601   8.710  10.201 -0.0648 -0.1461 -0.4449
  132POPC   GL1 2128   5.431   8.799   9.692  0.0323 -0.1070  0.2252
  132POPC   GL2 2129   5.657   8.969   9.507  0.1480 -0.1240  0.2124
  132POPC   C1A 2130   5.106   8.991   9.446  0.2879 -0.1196  0.0583
  132POPC   D2A 2131   4.809   9.205   9.143  0.3862  0.0471 -0.2275
  132POPC   C3A 2132   4.871   9.543   8.923  0.0614 -0.1527  0.2927
  132POPC   C4A 2133   4.925   9.669   8.487  0.0416 -0.3818  0.0148
  132POPC   C1B 2134   5.848   9.274   9.123  0.1433 -0.0205  0.0976
  132POPC   C2B 2135   5.833   9.551   8.957 -0.2852  0.2899  0.1311
  132POPC   C3B 2136   5.579   9.683   8.650  0.1150  0.0818 -0.0035
  132POPC   C4B 2137   5.712  10.148   8.544 -0.0188 -0.0020 -0.1446
  133POPC   NC3 2138   2.194   6.034   8.761  0.0083  0.3768  0.1906
  133POPC   PO4 2139   1.905   5.644   8.879  0.0000 -0.1743 -0.1776
  133POPC   GL1 2140   2.252   5.576   8.571 -0.1237  0.4152  0.0763
  133POPC   GL2 2141   2.487   5.815   8.466 -0.2114  0.1030  0.3586
  133POPC   C1A 2142   2.363   5.271   8.184 -0.1787  0.0323 -0.0724
  133POPC   D2A 2143   2.576   4.922   7.944  0.3463  0.6319  0.2316
  133POPC   C3A 2144   2.628   4.992   7.578 -0.1467  0.0060 -0.1098
  133POPC   C4A 2145   2.722   4.993   7.125  0.2172 -0.1561  0.2815
  133POPC   C1B 2146   2.656   5.714   8.095  0.1873 -0.3820 -0.1765
  133POPC   C2B 2147   2.458   5.470   7.729 -0.1400 -0.0596 -0.1396
  133POPC   C3B 2148   2.567   5.437   7.277 -0.0974  0.2774 -0.1645
  133POPC   C4B 2149   2.608   5.830   7.068 -0.1804  0.2602  0.2370
  134POPC   NC3 2150   5.822   9.876  10.537  0.0695  0.4451 -0.1017
  134POPC   PO4 2151   5.937  10.054  10.183  0.0643  0.1527  0.1534
  134POPC   GL1 2152   5.841  10.419   9.949 -0.1347 -0.0885  0.0986
  134POPC   GL2 2153   5.530  10.363   9.968 -0.1048 -0.1646  0.1355
  134POPC   C1A 2154   5.668  10.806   9.818  0.4800  0.1531  0.0257
  134POPC   D2A 2155   5.530  11.187   9.537 -0.1718 -0.0825 -0.3145
  134POPC   C3A 2156   5.472  11.389   9.165  0.1076 -0.2564  0.3034
  134POPC   C4A 2157   5.609  11.736   8.771 -0.0339  0.0858  0.0164
  134POPC   C1B 2158   5.158  10.036   9.752 -0.0237 -0.1542  0.4817
  134POPC   C2B 2159   4.977  10.112   9.323 -0.2410  0.3110 -0.2482
  134POPC   C3B 2160   4.763  10.069   8.998 -0.1200 -0.0381  0.2960
  134POPC   C4B 2161   4.675  10.235   8.697 -0.0903 -0.0879 -0.0719
  135POPC   NC3 2162   2.126   8.044   9.246  0.1873  0.1552  0.1053
  135POPC   PO4 2163   2.383   7.748   9.414  0.1271 -0.0369 -0.0500
  135POPC   GL1 2164   2.563   7.786   8.977 -0.1132  0.0933 -0.2047
  135POPC   GL2 2165   2.837   7.986   8.917 -0.0268  0.0532  0.1649
  135POPC   C1A 2166   2.481   7.895   8.533 -0.1501  0.0695  0.0159
  135POPC   D2A 2167   2.707   7.992   8.119  0.2060  0.2594 -0.1776
  135POPC   C3A 2168   3.031   8.372   8.014 -0.0687  0.1096 -0.2648
  135POPC   C4A 2169   3.491   8.348   8.218  0.0235 -0.2842 -0.1007
  135POPC   C1B 2170   3.133   7.807   8.643  0.1389 -0.0783  0.0969
  135POPC   C2B 2171   3.222   7.942   8.150 -0.0880  0.3220  0.1807
  135POPC   C3B 2172   3.089   7.672   7.829 -0.0197 -0.3125 -0.0336
  135POPC   C4B 2173   3.087   7.645   7.355 -0.0147  0.0502  0.3151
  136POPC   NC3 2174   0.467   1.509   9.117  0.2929 -0.5129 -0.2198
  136POPC   PO4 2175   0.127   1.763   9.264  0.2468  0.2415  0.0055
  136POPC   GL1 2176  -0.090   1.778   8.708  0.1172 -0.0781 -0.0669
  136POPC   GL2 2177   0.189   1.797   8.686  0.2997  0.0708  0.0939
  136POPC   C1A 2178  -0.300   1.858   8.330 -0.2615 -0.1293 -0.0283
  136POPC   D2A 2179  -0.443   1.920   7.919  0.0057  0.1626 -0.0717
  136POPC   C3A 2180  -0.862   2.079   7.712  0.0262 -0.0953 -0.0355
  136POPC   C4A 2181  -1.019   2.092   7.271 -0.2944 -0.2177  0.0060
  136POPC   C1B 2182   0.128   1.645   8.263 -0.1299 -0.0929 -0.2568
  136POPC   C2B 2183   0.167   1.738   7.864  0.0361  0.1521 -0.0296
  136POPC   C3B 2184   0.076   1.902   7.550  0.0479  0.2800  0.5082
  136POPC   C4B 2185  -0.037   2.120   7.136 -0.1070  0.0387  0.1753
  137POPC   NC3 2186   7.707   5.602   8.831 -0.2649 -0.1276  0.0369
  137POPC   PO4 2187   7.643   5.318   8.665 -0.2313  0.3549  0.0419
  137POPC   GL1 2188   7.608   5.185   8.289  0.3021 -0.1910 -0.0282
  137POPC   GL2 2189   7.503   4.901   8.278  0.2850  0.1325  0.1145
  137POPC   C1A 2190   7.598   5.213   7.902 -0.0655 -0.0135 -0.1952
  137POPC   D2A 2191   7.686   5.132   7.434  0.1820  0.0276  0.4425
  137POPC   C3A 2192   8.106   5.110   7.292 -0.0856  0.0873  0.0274
  137POPC   C4A 2193   8.430   4.779   7.461  0.0484 -0.0541 -0.0190
  137POPC   C1B 2194   7.396   4.755   7.888  0.3376 -0.0110  0.0380
  137POPC   C2B 2195   7.361   4.727   7.420 -0.2884 -0.1900  0.0220
  137POPC   C3B 2196   7.229   5.075   7.105 -0.0249  0.0383 -0.2087
  137POPC   C4B 2197   7.234   5.509   7.078  0.2460  0.0125  0.1268
  138POPC   NC3 2198   1.283   2.940   9.306 -0.0400  0.1748 -0.3463
  138POPC   PO4 2199   1.313   2.544   9.085  0.3124  0.2468  0.3087
  138POPC   GL1 2200   1.276   2.497   8.640 -0.1926 -0.2607  0.2159
  138POPC   GL2 2201   1.106   2.747   8.479 -0.2585  0.3121 -0.1016
  138POPC   C1A 2202   1.414   2.391   8.233  0.1012  0.2167  0.3261
  138POPC   D2A 2203   1.302   2.252   7.835  0.4486  0.3969  0.3219
  138POPC   C3A 2204   1.295   2.404   7.371 -0.0281  0.1736  0.1025
  138POPC   C4A 2205   1.421   2.657   7.125  0.1632 -0.3349 -0.1221
  138POPC   C1B 2206   1.578   2.820   8.313 -0.2929 -0.1122 -0.3826
  138POPC   C2B 2207   1.907   2.919   8.019 -0.1860 -0.1686 -0.0560
  138POPC   C3B 2208   2.153   2.848   7.633 -0.1760  0.0339  0.1857
  138POPC   C4B 2209   2.582   2.862   7.652  0.0899  0.1380  0.0418
  139POPC   NC3 2210   5.861   7.167   9.370  0.1002 -0.1516  0.1928
  139POPC   PO4 2211   5.988   6.870   9.133  0.0854 -0.1670  0.2585
  139POPC   GL1 2212   5.994   7.192   8.790  0.0546 -0.3921 -0.0066
  139POPC   GL2 2213   5.874   7.412   8.927 -0.2147  0.0463  0.3786
  139POPC   C1A 2214   6.138   7.270   8.425  0.4191 -0.0122  0.4919
  139POPC   D2A 2215   6.201   7.473   8.012  0.0188  0.2029  0.1681
  139POPC   C3A 2216   6.210   7.829   7.896 -0.0527  0.1899  0.2463
  139POPC   C4A 2217   6.048   8.171   7.834  0.2438 -0.2518 -0.2848
  139POPC   C1B 2218   5.609   7.351   8.525  0.0908 -0.0404  0.1762
  139POPC   C2B 2219   5.138   7.366   8.329  0.0785 -0.1712 -0.4280
  139POPC   C3B 2220   4.660   7.376   8.193 -0.2965  0.0835  0.0279
  139POPC   C4B 2221   4.105   7.288   8.067  0.3085  0.2276  0.1338
  140POPC   NC3 2222   4.142   6.274   9.053  0.0252  0.2046 -0.6153
  140POPC   PO4 2223   3.908   5.977   8.946  0.0698  0.0177  0.1302
  140POPC   GL1 2224   3.978   5.980   8.542 -0.2931 -0.2474 -0.0969
  140POPC   GL2 2225   3.795   5.770   8.405 -0.1119  0.0377 -0.2242
  140POPC   C1A 2226   4.128   5.958   8.082 -0.0562  0.2272  0.0841
  140POPC   D2A 2227   4.346   6.109   7.795 -0.0711  0.2292  0.2564
  140POPC   C3A 2228   4.150   6.455   7.549  0.0037 -0.1745  0.1164
  140POPC   C4A 2229   4.011   6.917   7.674  0.0259 -0.0525  0.0398
  140POPC   C1B 2230   3.647   5.966   8.017  0.1555  0.0469 -0.0613
  140POPC   C2B 2231   3.863   6.031   7.595 -0.2525  0.2626  0.0076
  140POPC   C3B 2232   4.213   5.936   7.354  0.1888  0.0982  0.0540
  140POPC   C4B 2233   4.566   5.693   7.312 -0.1892 -0.1666  0.0810
  141POPC   NC3 2234   5.071   3.303   9.971 -0.1384  0.0320  0.1944
  141POPC   PO4 2235   4.976   3.396   9.440  0.0597  0.1047  0.1735
  141POPC   GL1 2236   4.771   3.174   9.008 -0.2382 -0.0096 -0.3501
  141POPC   GL2 2237   4.582   3.311   8.814 -0.0023 -0.1895 -0.2282
  141POPC   C1A 2238   4.819   3.049   8.508 -0.1127 -0.2330  0.0702
  141POPC   D2A 2239   4.705   3.242   8.049 -0.0690  0.0184 -0.1035
  141POPC   C3A 2240   4.446   3.109   7.711  0.1243  0.5059 -0.2137
  141POPC   C4A 2241   4.073   2.808   7.554  0.0463  0.5313  0.2199
  141POPC   C1B 2242   4.342   3.360   8.504  0.1603 -0.2738 -0.1733
  141POPC   C2B 2243   4.217   3.265   8.144  0.1395 -0.0016  0.1550
  141POPC   C3B 2244   3.997   3.278   7.709 -0.0792  0.0488  0.0238
  141POPC   C4B 2245   3.840   3.374   7.415  0.2961 -0.0469 -0.3057
  142POPC   NC3 2246   9.598   2.387   9.346  0.2753 -0.3062  0.1394
  142POPC   PO4 2247   9.212   2.377   9.022  0.1417  0.0103 -0.1746
  142POPC   GL1 2248   8.890   2.344   8.718 -0.0615  0.0208  0.0491
  142POPC   GL2 2249   8.866   2.586   8.502 -0.3175 -0.0878 -0.0450
  142POPC   C1A 2250   8.442   2.232   8.571 -0.0639  0.4795  0.1340
  142POPC   D2A 2251   8.145   2.012   8.333 -0.2325  0.1758 -0.3364
  142POPC   C3A 2252   8.032   1.832   7.885  0.1513 -0.1920  0.0178
  142POPC   C4A 2253   7.874   1.545   7.567 -0.1916  0.1776  0.1664
  142POPC   C1B 2254   8.843   2.166   8.165  0.2805  0.2991  0.0187
  142POPC   C2B 2255   8.476   2.109   7.934  0.2117 -0.0744 -0.0693
  142POPC   C3B 2256   8.281   2.152   7.629  0.0890  0.0486  0.3152
  142POPC   C4B 2257   8.235   1.931   7.241 -0.1687 -0.4656 -0.1169
  143POPC   NC3 2258   0.357   3.261   8.980 -0.1973  0.0340  0.3322
  143POPC   PO4 2259   0.469   2.885   8.758 -0.3391 -0.0041 -0.1110
  143POPC   GL1 2260   0.071   3.174   8.545 -0.0566 -0.2322  0.0250
  143POPC   GL2 2261   0.133   3.371   8.501 -0.2969 -0.0208 -0.0216
  143POPC   C1A 2262  -0.130   3.214   8.109  0.0858  0.1359 -0.1850
  143POPC   D2A 2263  -0.022   3.500   7.730  0.0114  0.2060 -0.2535
  143POPC   C3A 2264   0.027   3.953   7.786 -0.2579 -0.1560 -0.1417
  143POPC   C4A 2265   0.229   4.214   8.011 -0.1667 -0.0822  0.0419
  143POPC   C1B 2266   0.387   3.188   8.142 -0.1817 -0.2042  0.3437
  143POPC   C2B 2267   0.364   3.088   7.758 -0.0747  0.0238 -0.1673
  143POPC   C3B 2268   0.441   2.894   7.373  0.0136  0.0607 -0.0820
  143POPC   C4B 2269   0.444   2.846   6.958 -0.0367  0.0262  0.1190
  144POPC   NC3 2270   0.750   6.359   8.923 -0.5663  0.0123  0.0306
  144POPC   PO4 2271   0.373   6.657   8.930 -0.2443  0.0749 -0.2967
  144POPC   GL1 2272   0.371   6.940   8.556  0.0053  0.2836  0.0931
  144POPC   GL2 2273   0.282   6.661   8.306 -0.0692  0.0101  0.0824
  144POPC   C1A 2274   0.261   7.212   8.271 -0.6418  0.0275 -0.1421
  144POPC   D2A 2275   0.287   7.465   7.859 -0.3605  0.2199  0.1309
  144POPC   C3A 2276   0.393   7.530   7.451  0.2895 -0.0229  0.0726
  144POPC   C4A 2277   0.578   7.633   7.002 -0.1485 -0.1195  0.1954
  144POPC   C1B 2278   0.631   6.539   7.997  0.0833 -0.0383 -0.0262
  144POPC   C2B 2279   0.849   6.558   7.540 -0.0250 -0.1504 -0.0331
  144POPC   C3B 2280   1.044   6.953   7.329 -0.3562 -0.0511 -0.0151
  144POPC   C4B 2281   1.460   6.945   7.134 -0.0645  0.0807  0.0193
  145POPC   NC3 2282   1.050   6.740   8.718  0.1367 -0.2193  0.1751
  145POPC   PO4 2283   1.301   6.366   8.715  0.2080 -0.2521 -0.0928
  145POPC   GL1 2284   1.471   6.050   8.383  0.2759  0.1041 -0.0179
  145POPC   GL2 2285   1.825   5.899   8.482  0.0087 -0.1797 -0.3340
  145POPC   C1A 2286   1.579   6.039   8.013  0.0266 -0.1428  0.1646
  145POPC   D2A 2287   1.777   6.054   7.718 -0.1060 -0.1805  0.1167
  145POPC   C3A 2288   2.325   5.994   7.734 -0.0134 -0.0980  0.1827
  145POPC   C4A 2289   2.791   5.850   7.546  0.2241  0.1919 -0.1683
  145POPC   C1B 2290   2.122   6.242   8.160 -0.0679  0.0688 -0.0725
  145POPC   C2B 2291   2.280   6.443   7.860  0.4586 -0.0531 -0.0224
  145POPC   C3B 2292   2.292   6.429   7.388  0.1299 -0.0653 -0.0570
  145POPC   C4B 2293   2.295   6.306   6.989  0.1775  0.2452 -0.1088
  146POPC   NC3 2294   6.351   2.863   9.538 -0.0584 -0.0388 -0.0748
  146POPC   PO4 2295   6.618   2.660   9.266 -0.0090  0.0605 -0.1845
  146POPC   GL1 2296   6.699   2.614   8.786 -0.1242 -0.0242 -0.4108
  146POPC   GL2 2297   6.320   2.586   8.628  0.2802  0.0080 -0.2471
  146POPC   C1A 2298   6.831   2.574   8.387 -0.1225  0.4686  0.1570
  146POPC   D2A 2299   6.897   2.570   7.956 -0.0201  0.2164  0.1793
  146POPC   C3A 2300   7.052   2.194   7.748 -0.0097 -0.4464 -0.1089
  146POPC   C4A 2301   7.060   1.993   7.355 -0.3195  0.0985  0.0215
  146POPC   C1B 2302   6.349   2.639   8.195 -0.1595 -0.0447 -0.0661
  146POPC   C2B 2303   6.125   2.659   7.830 -0.5166 -0.1291  0.1783
  146POPC   C3B 2304   5.924   2.400   7.604  0.0960 -0.0251 -0.0434
  146POPC   C4B 2305   5.547   2.256   7.672 -0.0658  0.0037 -0.1576
  147POPC   NC3 2306   4.788   9.239  10.539  0.2771 -0.0900  0.1779
  147POPC   PO4 2307   4.397   9.379  10.468 -0.1245  0.2719  0.5303
  147POPC   GL1 2308   4.517   9.568  10.013  0.0817  0.0456 -0.1292
  147POPC   GL2 2309   4.632   9.842   9.859  0.1560 -0.2027 -0.2679
  147POPC   C1A 2310   4.585   9.343   9.627 -0.1701 -0.0030 -0.3803
  147POPC   D2A 2311   4.544   8.919   9.442 -0.0118  0.1044 -0.1466
  147POPC   C3A 2312   4.253   8.796   9.206  0.1035  0.3414 -0.0473
  147POPC   C4A 2313   4.082   8.393   9.106 -0.5194 -0.2930  0.2681
  147POPC   C1B 2314   4.603  10.293   9.677 -0.1326 -0.1673 -0.0424
  147POPC   C2B 2315   4.556  10.408   9.223  0.1638 -0.4100 -0.0676
  147POPC   C3B 2316   4.209  10.303   8.882 -0.0316 -0.0365 -0.1663
  147POPC   C4B 2317   4.211  10.028   8.569 -0.0671 -0.0476  0.1200
  148POPC   NC3 2318   1.810   3.292   9.034  0.1295  0.2020 -0.1331
  148POPC   PO4 2319   2.181   3.227   9.139 -0.3944  0.1578  0.2712
  148POPC   GL1 2320   2.283   3.213   8.726  0.1642  0.0206  0.1863
  148POPC   GL2 2321   2.086   2.995   8.580  0.1655 -0.0025  0.2181
  148POPC   C1A 2322   2.589   3.375   8.513 -0.0409 -0.2160  0.0351
  148POPC   D2A 2323   2.871   3.636   8.324  0.0122  0.1035 -0.4432
  148POPC   C3A 2324   3.021   3.686   7.866  0.1306  0.0344  0.0233
  148POPC   C4A 2325   3.353   3.842   7.575 -0.0242 -0.3478 -0.0919
  148POPC   C1B 2326   2.489   2.883   8.393  0.0577  0.1535  0.1273
  148POPC   C2B 2327   2.803   2.720   8.122  0.2337  0.0681 -0.0764
  148POPC   C3B 2328   2.990   2.388   7.823  0.1254  0.1122 -0.5134
  148POPC   C4B 2329   3.156   2.075   7.818 -0.2521 -0.1128 -0.0260
  149POPC   NC3 2330   6.980   4.507   9.225 -0.3049 -0.2877  0.2887
  149POPC   PO4 2331   6.837   4.650   8.822 -0.2029  0.0437  0.2381
  149POPC   GL1 2332   7.040   4.369   8.624  0.6932 -0.0177  0.2343
  149POPC   GL2 2333   7.014   4.638   8.308 -0.1524  0.0083  0.1522
  149POPC   C1A 2334   7.203   4.223   8.118 -0.1289 -0.0949 -0.1850
  149POPC   D2A 2335   7.394   3.859   7.883  0.2830  0.2891 -0.0892
  149POPC   C3A 2336   7.224   3.836   7.462  0.2722  0.0274  0.1268
  149POPC   C4A 2337   7.344   3.811   7.043  0.2795 -0.1187  0.0127
  149POPC   C1B 2338   6.991   5.003   7.969  0.0135  0.0034 -0.0595
  149POPC   C2B 2339   7.197   5.130   7.680  0.1958  0.2252 -0.1377
  149POPC   C3B 2340   7.365   5.563   7.548  0.1221  0.0550  0.0684
  149POPC   C4B 2341   7.324   5.967   7.558 -0.1584  0.1967 -0.0474
  150POPC   NC3 2342   4.025   0.712  10.669 -0.0342 -0.1297  0.1628
  150POPC   PO4 2343   4.121   0.729  10.338 -0.0033  0.0806  0.1752
  150POPC   GL1 2344   4.027   0.557   9.987 -0.0037  0.1463  0.5065
  150POPC   GL2 2345   3.829   0.250   9.841 -0.2994 -0.0748  0.1967
  150POPC   C1A 2346   4.269   0.453   9.672 -0.1422  0.1218  0.0070
  150POPC   D2A 2347   4.712   0.622   9.473 -0.0772 -0.1029 -0.2803
  150POPC   C3A 2348   4.971   0.389   9.616 -0.2577 -0.1015 -0.0297
  150POPC   C4A 2349   5.353   0.328   9.498  0.0319  0.2504 -0.2719
  150POPC   C1B 2350   4.129   0.002   9.842  0.0514  0.0178 -0.1865
  150POPC   C2B 2351   4.279  -0.180   9.462 -0.0099  0.0654 -0.0902
  150POPC   C3B 2352   4.547  -0.435   9.379  0.2990 -0.2175 -0.1155
  150POPC   C4B 2353   4.940  -0.591   9.493  0.0100 -0.0519 -0.1256
  151POPC   NC3 2354   0.744   9.341   8.627  0.1029  0.0316 -0.0746
  151POPC   PO4 2355   0.678   8.921   8.830 -0.1445  0.0224  0.0718
  151POPC   GL1 2356   0.401   8.912   8.483  0.0956  0.0014  0.0361
  151POPC   GL2 2357   0.670   9.004   8.287  0.3918  0.0000  0.0758
  151POPC   C1A 2358   0.279   8.853   8.000 -0.2728  0.1185  0.1969
  151POPC   D2A 2359   0.158   8.484   7.675  0.0280 -0.1401  0.3044
  151POPC   C3A 2360   0.290   8.462   7.292  0.2391  0.0646 -0.2489
  151POPC   C4A 2361   0.405   8.795   6.947 -0.3066 -0.1181  0.2849
  151POPC   C1B 2362   0.665   9.147   7.902  0.1366 -0.0536 -0.1133
  151POPC   C2B 2363   0.835   9.462   7.816 -0.3048 -0.5555  0.3089
  151POPC   C3B 2364   1.258   9.454   7.632  0.2218  0.0353  0.3495
  151POPC   C4B 2365   1.585   9.632   7.272 -0.1080 -0.1005 -0.5021
  152POPC   NC3 2366   3.391   1.927   9.997  0.2799  0.3013  0.1963
  152POPC   PO4 2367   3.606   2.056   9.574  0.1119  0.2884  0.1648
  152POPC   GL1 2368   3.465   1.920   9.198  0.3211  0.3058  0.0735
  152POPC   GL2 2369   3.223   1.800   9.112  0.1203  0.1829 -0.0572
  152POPC   C1A 2370   3.535   1.965   8.781 -0.2960  0.0670  0.1342
  152POPC   D2A 2371   3.468   1.818   8.376  0.2573 -0.0460 -0.0357
  152POPC   C3A 2372   3.113   1.635   8.229  0.0708 -0.2417  0.1805
  152POPC   C4A 2373   3.090   1.186   8.106  0.0665 -0.3106 -0.1587
  152POPC   C1B 2374   3.156   1.569   8.736  0.0364  0.0743  0.0653
  152POPC   C2B 2375   3.167   1.138   8.667 -0.2022 -0.1748  0.3183
  152POPC   C3B 2376   3.090   0.791   8.530 -0.1974  0.2251  0.2692
  152POPC   C4B 2377   3.325   0.529   8.525 -0.1823  0.3445 -0.0721
  153POPC   NC3 2378   7.922   7.521   8.859 -0.0952 -0.0180 -0.0298
  153POPC   PO4 2379   7.576   7.262   8.930  0.2880 -0.0709 -0.2684
  153POPC   GL1 2380   7.372   7.479   8.593  0.2028  0.0858  0.0396
  153POPC   GL2 2381   7.636   7.608   8.438  0.0664  0.0616  0.0042
  153POPC   C1A 2382   7.081   7.508   8.208 -0.1048 -0.0014 -0.1986
  153POPC   D2A 2383   6.735   7.405   7.933  0.0647 -0.2055  0.0664
  153POPC   C3A 2384   6.823   7.289   7.394 -0.0945 -0.3946 -0.1988
  153POPC   C4A 2385   6.688   7.580   7.061 -0.1716 -0.4600  0.1261
  153POPC   C1B 2386   7.637   7.549   8.042 -0.2242  0.2023 -0.0765
  153POPC   C2B 2387   7.724   7.168   7.772  0.2672 -0.2857 -0.0164
  153POPC   C3B 2388   7.927   6.751   7.605  0.1158 -0.2926 -0.0935
  153POPC   C4B 2389   8.285   6.701   7.346  0.0609  0.0223  0.2353
  154POPC   NC3 2390   8.142   7.949   9.171  0.2219  0.0141  0.2947
  154POPC   PO4 2391   8.330   7.869   8.841 -0.1863  0.0873 -0.0914
  154POPC   GL1 2392   8.255   8.025   8.474  0.0598  0.1347  0.1727
  154POPC   GL2 2393   8.052   7.806   8.347 -0.3685 -0.0904 -0.2675
  154POPC   C1A 2394   8.481   8.360   8.245  0.1813  0.0048  0.0048
  154POPC   D2A 2395   8.933   8.402   8.203  0.3168  0.1189  0.0686
  154POPC   C3A 2396   9.218   8.622   7.874  0.1926 -0.1988 -0.1218
  154POPC   C4A 2397   9.493   8.878   7.661  0.0030  0.1705  0.0096
  154POPC   C1B 2398   8.272   7.979   7.892  0.1594  0.2950 -0.1590
  154POPC   C2B 2399   8.165   8.111   7.444  0.0597 -0.1181  0.0837
  154POPC   C3B 2400   7.799   8.171   7.113  0.0830 -0.3525  0.0380
  154POPC   C4B 2401   7.419   8.420   7.201  0.0394  0.0402 -0.2330
  155POPC   NC3 2402   0.644   5.140   8.960 -0.0153 -0.0200 -0.0816
  155POPC   PO4 2403   1.054   5.289   8.901 -0.0777  0.1112  0.3215
  155POPC   GL1 2404   1.133   5.383   8.474  0.0455 -0.0856  0.2244
  155POPC   GL2 2405   1.132   5.698   8.406 -0.1674  0.0071  0.0342
  155POPC   C1A 2406   1.098   5.108   8.105 -0.1805  0.0114  0.0617
  155POPC   D2A 2407   1.326   4.872   7.642 -0.2070 -0.0771 -0.1643
  155POPC   C3A 2408   1.177   4.994   7.231  0.1285  0.0036  0.0002
  155POPC   C4A 2409   0.928   5.132   6.865 -0.3060 -0.0471 -0.0840
  155POPC   C1B 2410   1.465   5.539   8.186 -0.2769  0.1323  0.1097
  155POPC   C2B 2411   1.482   5.630   7.779  0.1089 -0.2742  0.1216
  155POPC   C3B 2412   1.255   5.897   7.527  0.0624 -0.0876  0.0635
  155POPC   C4B 2413   0.953   6.136   7.221 -0.0519  0.0054  0.0970
  156POPC   NC3 2414   8.774   3.918   8.691  0.0027  0.2867 -0.2561
  156POPC   PO4 2415   9.207   4.100   8.744  0.2567  0.1741  0.1934
  156POPC   GL1 2416   9.068   4.150   8.300 -0.2535  0.1327 -0.0218
  156POPC   GL2 2417   8.798   4.158   8.210  0.3237 -0.2209  0.0187
  156POPC   C1A 2418   9.234   4.166   7.904 -0.3183  0.0503  0.0480
  156POPC   D2A 2419   9.491   4.408   7.835 -0.2073 -0.1370 -0.2842
  156POPC   C3A 2420   9.704   4.290   7.437  0.3049 -0.2263 -0.4708
  156POPC   C4A 2421   9.531   4.036   7.056  0.0142 -0.1398 -0.1304
  156POPC   C1B 2422   8.799   4.399   7.907 -0.0465  0.0141 -0.4694
  156POPC   C2B 2423   9.041   4.605   7.605  0.0391 -0.5869  0.5093
  156POPC   C3B 2424   9.219   4.487   7.249 -0.3665  0.0293  0.0419
  156POPC   C4B 2425   9.556   4.637   6.938  0.0218  0.0240 -0.0755
  157POPC   NC3 2426   7.436   1.293   5.117 -0.0377  0.1836 -0.0894
  157POPC   PO4 2427   7.793   1.350   5.341 -0.0470  0.0500  0.0276
  157POPC   GL1 2428   7.866   1.277   5.711 -0.1279  0.0515 -0.1500
  157POPC   GL2 2429   8.149   1.302   5.766  0.0941  0.0156 -0.1693
  157POPC   C1A 2430   7.638   1.211   6.121 -0.3224 -0.2295  0.2476
  157POPC   D2A 2431   7.772   1.050   6.565  0.0108 -0.1793  0.1000
  157POPC   C3A 2432   7.483   0.901   6.894 -0.0318  0.2883 -0.3180
  157POPC   C4A 2433   7.262   0.678   7.161  0.2362 -0.1091  0.1812
  157POPC   C1B 2434   8.160   1.033   6.086 -0.0505 -0.0201 -0.0040
  157POPC   C2B 2435   8.046   0.656   6.240 -0.3453  0.2753  0.0108
  157POPC   C3B 2436   7.790   0.519   6.518 -0.2140 -0.0471 -0.0441
  157POPC   C4B 2437   7.823   0.243   6.825 -0.3284 -0.2552 -0.2433
  158POPC   NC3 2438   1.744   7.735   4.615 -0.1146 -0.0691 -0.0088
  158POPC   PO4 2439   2.070   8.060   4.414  0.0751  0.1206  0.0930
  158POPC   GL1 2440   2.443   8.015   4.642 -0.3620 -0.0543 -0.0043
  158POPC   GL2 2441   2.532   7.777   4.868  0.0969 -0.0619 -0.0739
  158POPC   C1A 2442   2.663   8.252   4.781 -0.0272  0.1407 -0.3269
  158POPC   D2A 2443   3.032   8.413   4.584  0.1722 -0.1800 -0.0414
  158POPC   C3A 2444   3.336   8.604   4.832  0.0664  0.1005  0.1143
  158POPC   C4A 2445   3.749   8.597   5.052 -0.0169 -0.1360  0.1274
  158POPC   C1B 2446   2.328   8.050   5.080 -0.1600  0.0777 -0.4663
  158POPC   C2B 2447   2.083   8.214   5.495 -0.2333  0.1213  0.3155
  158POPC   C3B 2448   2.173   8.308   5.928 -0.1756  0.0752  0.1325
  158POPC   C4B 2449   2.485   8.219   6.299 -0.0536  0.0606 -0.1328
  159POPC   NC3 2450   1.044   4.966   5.336  0.2337  0.2671  0.0755
  159POPC   PO4 2451   0.956   4.594   5.160 -0.5676 -0.1364 -0.1557
  159POPC   GL1 2452   1.005   4.528   5.545 -0.0414  0.2168  0.0057
  159POPC   GL2 2453   0.773   4.366   5.580 -0.2734  0.3914 -0.1784
  159POPC   C1A 2454   1.095   4.555   5.998  0.1749  0.1899 -0.2031
  159POPC   D2A 2455   1.180   4.586   6.409 -0.5072 -0.1269 -0.3379
  159POPC   C3A 2456   1.388   4.824   6.741 -0.2384  0.1254  0.2266
  159POPC   C4A 2457   1.562   5.201   6.921 -0.3049  0.2498  0.4397
  159POPC   C1B 2458   0.572   4.362   5.985  0.2260  0.0135 -0.1372
  159POPC   C2B 2459   0.311   4.315   6.300 -0.1407 -0.0594  0.2168
  159POPC   C3B 2460   0.302   4.653   6.614  0.1494  0.0700 -0.1468
  159POPC   C4B 2461   0.456   4.912   6.798  0.3253  0.1433  0.2468
  160POPC   NC3 2462   9.831   7.838   5.177 -0.0695 -0.4421 -0.0174
  160POPC   PO4 2463   9.939   8.251   5.148  0.0770 -0.2409  0.1912
  160POPC   GL1 2464  10.190   8.208   5.452  0.0823  0.0001 -0.0630
  160POPC   GL2 2465  10.157   8.385   5.670  0.0216  0.2857  0.0014
  160POPC   C1A 2466  10.026   7.919   5.794 -0.0730  0.1659 -0.0285
  160POPC   D2A 2467   9.850   7.546   5.876 -0.0233  0.1602 -0.0776
  160POPC   C3A 2468  10.008   7.123   5.840  0.0897 -0.3547  0.3706
  160POPC   C4A 2469  10.083   6.717   6.045  0.0576  0.0029 -0.2142
  160POPC   C1B 2470   9.924   8.360   5.999 -0.3220 -0.1085  0.1698
  160POPC   C2B 2471   9.794   8.580   6.328 -0.0140  0.1314 -0.1334
  160POPC   C3B 2472   9.735   8.800   6.806 -0.0877  0.1357 -0.2593
  160POPC   C4B 2473   9.597   8.592   7.169  0.1750  0.0657  0.4916
  161POPC   NC3 2474   0.508   0.060   4.947  0.0573  0.1641  0.0956
  161POPC   PO4 2475   0.414  -0.393   4.940  0.1287 -0.3322  0.1083
  161POPC   GL1 2476   0.492  -0.469   5.349 -0.0647 -0.3628  0.0290
  161POPC   GL2 2477   0.540  -0.127   5.555 -0.0671  0.0401 -0.1692
  161POPC   C1A 2478   0.704  -0.758   5.662 -0.0475  0.2760  0.0913
  161POPC   D2A 2479   1.076  -0.878   5.698  0.0602 -0.0760  0.0603
  161POPC   C3A 2480   1.383  -0.854   5.961  0.1725 -0.0792  0.1219
  161POPC   C4A 2481   1.784  -0.665   5.847 -0.0371  0.0217 -0.1115
  161POPC   C1B 2482   0.228  -0.345   5.823 -0.0860  0.0196  0.0590
  161POPC   C2B 2483  -0.090  -0.175   6.116  0.2264 -0.0425 -0.0332
  161POPC   C3B 2484  -0.177   0.006   6.522 -0.0614  0.2367  0.0067
  161POPC   C4B 2485  -0.102  -0.100   6.974 -0.0228  0.1455  0.3535
  162POPC   NC3 2486   8.918   6.167   5.652  0.2486 -0.0391  0.1161
  162POPC   PO4 2487   9.021   5.944   5.411 -0.3461  0.1159 -0.1509
  162POPC   GL1 2488   9.309   5.755   5.641  0.1175 -0.2756  0.0393
  162POPC   GL2 2489   9.382   5.960   5.807  0.0296 -0.0596  0.0967
  162POPC   C1A 2490   9.642   5.444   5.874 -0.0671 -0.0080  0.0517
  162POPC   D2A 2491   9.953   5.259   6.167 -0.2393  0.3222 -0.1196
  162POPC   C3A 2492  10.165   5.604   6.251 -0.0638 -0.0522 -0.1184
  162POPC   C4A 2493  10.570   5.892   6.284 -0.0434  0.1930  0.0540
  162POPC   C1B 2494   9.395   6.048   6.253 -0.0746 -0.0352 -0.1102
  162POPC   C2B 2495   9.314   6.216   6.599  0.2341  0.0816 -0.1780
  162POPC   C3B 2496   9.403   6.417   6.984 -0.1151  0.1289  0.0544
  162POPC   C4B 2497   9.437   6.695   7.403  0.1254 -0.1730  0.1062
  163POPC   NC3 2498   4.260   0.765   3.574 -0.1174 -0.4846 -0.3401
  163POPC   PO4 2499   4.431   1.023   3.850 -0.5457 -0.3667 -0.0036
  163POPC   GL1 2500   4.308   0.820   4.126 -0.1284  0.2196  0.0123
  163POPC   GL2 2501   4.216   0.734   4.516  0.1757  0.1571  0.1082
  163POPC   C1A 2502   4.333   0.350   4.238 -0.2113 -0.1489  0.1805
  163POPC   D2A 2503   4.654   0.362   4.594 -0.0740  0.1046  0.1242
  163POPC   C3A 2504   4.610   0.194   4.983  0.1823  0.2740 -0.2264
  163POPC   C4A 2505   4.467   0.203   5.452 -0.1103  0.0231  0.0163
  163POPC   C1B 2506   4.202   0.507   4.831  0.2348  0.1060  0.1616
  163POPC   C2B 2507   4.184   0.713   5.169  0.0892  0.1333 -0.0977
  163POPC   C3B 2508   4.194   0.982   5.519  0.2881 -0.1971  0.1129
  163POPC   C4B 2509   4.257   0.895   5.893  0.0829  0.0858 -0.1322
  164POPC   NC3 2510   3.453   2.023   4.358  0.2383  0.0747  0.3964
  164POPC   PO4 2511   3.492   2.086   4.790 -0.1026 -0.0104 -0.0869
  164POPC   GL1 2512   3.572   2.289   5.162 -0.1984  0.5876 -0.0271
  164POPC   GL2 2513   3.827   2.124   5.238  0.3285 -0.3296 -0.2919
  164POPC   C1A 2514   3.424   2.277   5.592 -0.0882 -0.0249  0.0075
  164POPC   D2A 2515   3.250   2.453   5.912 -0.3456 -0.2236  0.3742
  164POPC   C3A 2516   3.185   2.437   6.252  0.2143 -0.0201  0.3060
  164POPC   C4A 2517   3.083   2.587   6.668  0.0555 -0.1302  0.0836
  164POPC   C1B 2518   3.803   2.003   5.541 -0.1561 -0.2899 -0.1290
  164POPC   C2B 2519   3.665   1.967   5.971 -0.1171  0.1797 -0.1372
  164POPC   C3B 2520   3.291   1.893   6.174 -0.1651  0.2827  0.1300
  164POPC   C4B 2521   3.042   1.833   6.461  0.1353  0.2554  0.0475
  165POPC   NC3 2522   7.929   9.715   5.066 -0.1565 -0.1315  0.0001
  165POPC   PO4 2523   8.013  10.151   5.265 -0.3126 -0.0025  0.5246
  165POPC   GL1 2524   7.789  10.213   5.657  0.2353 -0.3623 -0.0927
  165POPC   GL2 2525   7.617  10.481   5.685  0.0677  0.1989 -0.0209
  165POPC   C1A 2526   7.838   9.977   6.077 -0.0452 -0.3215  0.3927
  165POPC   D2A 2527   7.551  10.025   6.438 -0.0866  0.4079  0.2444
  165POPC   C3A 2528   7.438   9.970   6.813 -0.4320 -0.0442  0.0056
  165POPC   C4A 2529   7.575   9.995   7.247 -0.0508  0.1429 -0.4123
  165POPC   C1B 2530   7.666  10.467   6.081  0.1312  0.0409 -0.4594
  165POPC   C2B 2531   7.376  10.486   6.470 -0.0340  0.0894 -0.3380
  165POPC   C3B 2532   7.260  10.423   6.846  0.2316  0.0180 -0.0337
  165POPC   C4B 2533   6.935  10.521   7.274  0.2717  0.0277 -0.0465
  166POPC   NC3 2534   8.905   4.577   4.994  0.1519  0.1741 -0.1748
  166POPC   PO4 2535   9.269   4.888   5.121  0.0895  0.1974 -0.0115
  166POPC   GL1 2536   8.803   5.036   5.344 -0.1523 -0.0487 -0.4719
  166POPC   GL2 2537   8.723   5.250   5.590  0.0724 -0.1665 -0.2917
  166POPC   C1A 2538   8.590   4.839   5.772  0.2634  0.0258  0.0586
  166POPC   D2A 2539   8.502   4.485   5.906 -0.2394  0.0386 -0.0236
  166POPC   C3A 2540   8.785   4.316   6.233  0.1892  0.0334  0.1013
  166POPC   C4A 2541   8.621   4.202   6.701  0.0730  0.2624  0.1674
  166POPC   C1B 2542   9.056   5.314   5.774 -0.1555  0.3151 -0.1198
  166POPC   C2B 2543   9.199   5.304   6.191  0.3130 -0.0119 -0.2144
  166POPC   C3B 2544   9.553   5.386   6.529  0.0917 -0.1148 -0.0268
  166POPC   C4B 2545   9.643   5.127   6.958  0.0568 -0.2174 -0.2012
  167POPC   NC3 2546   3.545   5.330   4.223 -0.1790  0.2172  0.1564
  167POPC   PO4 2547   3.604   5.627   4.696 -0.1700 -0.1852  0.1044
  167POPC   GL1 2548   3.668   5.738   5.067 -0.2154  0.1794 -0.3773
  167POPC   GL2 2549   3.358   5.885   5.116  0.5418  0.0810 -0.2708
  167POPC   C1A 2550   4.020   5.566   5.419 -0.2568  0.0474 -0.0279
  167POPC   D2A 2551   3.953   5.400   5.763  0.4083 -0.1201 -0.0215
  167POPC   C3A 2552   3.674   5.586   6.073 -0.0852 -0.2245 -0.0817
  167POPC   C4A 2553   3.658   5.934   6.408 -0.1578 -0.3857 -0.3543
  167POPC   C1B 2554   3.434   5.585   5.459  0.1605  0.2583  0.1742
  167POPC   C2B 2555   3.525   5.156   5.630  0.1821 -0.0664  0.4054
  167POPC   C3B 2556   3.355   4.815   5.827 -0.0252 -0.2053  0.6510
  167POPC   C4B 2557   3.027   4.948   6.216 -0.0542  0.0787 -0.0162
  168POPC   NC3 2558   5.766   1.006   4.512  0.0454  0.0415  0.1473
  168POPC   PO4 2559   6.096   0.813   4.383 -0.2636  0.2302 -0.1138
  168POPC   GL1 2560   5.912   0.597   4.809 -0.0122 -0.0222  0.0873
  168POPC   GL2 2561   5.692   0.322   4.779 -0.0307 -0.4113 -0.0069
  168POPC   C1A 2562   5.845   0.733   5.256 -0.3846 -0.0440  0.0094
  168POPC   D2A 2563   5.804   0.658   5.737  0.3412  0.1364  0.1861
  168POPC   C3A 2564   5.941   0.772   6.130 -0.1803  0.0586 -0.0532
  168POPC   C4A 2565   5.904   0.619   6.528 -0.1997 -0.0524  0.2466
  168POPC   C1B 2566   5.594   0.283   5.057  0.2295  0.3672  0.1117
  168POPC   C2B 2567   5.539   0.277   5.564 -0.0643  0.4382  0.1122
  168POPC   C3B 2568   5.429   0.254   6.009 -0.4067  0.2115 -0.4071
  168POPC   C4B 2569   5.586   0.226   6.492  0.1082  0.1119  0.1890
  169POPC   NC3 2570   8.993   3.876   4.628 -0.1543 -0.0612  0.2924
  169POPC   PO4 2571   9.085   4.103   4.855 -0.0930  0.0506 -0.1120
  169POPC   GL1 2572   8.953   4.185   5.400 -0.2325  0.1875 -0.2206
  169POPC   GL2 2573   8.976   4.563   5.496  0.0342 -0.1624 -0.0474
  169POPC   C1A 2574   9.084   4.224   5.875 -0.1089  0.0069  0.4350
  169POPC   D2A 2575   9.317   4.514   6.229 -0.1836 -0.2885 -0.1192
  169POPC   C3A 2576   9.833   4.576   6.180 -0.0484  0.1934 -0.1601
  169POPC   C4A 2577  10.060   4.350   5.913  0.3292  0.2783 -0.2293
  169POPC   C1B 2578   9.114   4.848   5.920  0.4262 -0.0578  0.2071
  169POPC   C2B 2579   9.546   4.952   6.125  0.1102 -0.3678  0.2217
  169POPC   C3B 2580   9.919   4.972   6.528 -0.1198 -0.1739 -0.0569
  169POPC   C4B 2581  10.018   5.390   6.704 -0.0130  0.1202 -0.4016
  170POPC   NC3 2582   4.125   3.568   4.794 -0.3797 -0.3958 -0.3372
  170POPC   PO4 2583   4.319   3.295   5.170 -0.2322 -0.0209  0.0775
  170POPC   GL1 2584   4.294   3.480   5.557 -0.2556 -0.1072 -0.0225
  170POPC   GL2 2585   3.970   3.485   5.704 -0.0216 -0.0647 -0.0372
  170POPC   C1A 2586   4.491   3.249   5.938  0.4362 -0.1190  0.3415
  170POPC   D2A 2587   4.765   2.949   6.183 -0.1489  0.3193 -0.0631
  170POPC   C3A 2588   4.705   2.816   6.647 -0.0214  0.1104 -0.4892
  170POPC   C4A 2589   4.526   2.421   7.006 -0.1815 -0.4939  0.1050
  170POPC   C1B 2590   3.960   3.297   6.061  0.1431  0.0371  0.1588
  170POPC   C2B 2591   3.871   3.239   6.521  0.0941 -0.2823 -0.1617
  170POPC   C3B 2592   3.996   3.130   6.960  0.0381 -0.2069  0.1791
  170POPC   C4B 2593   3.652   2.995   7.226  0.0091 -0.2305 -0.2644
  171POPC   NC3 2594   9.257   9.043   5.129  0.0098  0.0645 -0.1463
  171POPC   PO4 2595   8.983   8.725   5.416 -0.0197  0.1611 -0.0536
  171POPC   GL1 2596   8.615   8.798   5.671 -0.1835 -0.0132 -0.1058
  171POPC   GL2 2597   8.387   8.668   5.523 -0.1445  0.0943 -0.3568
  171POPC   C1A 2598   8.402   8.998   5.988 -0.2916 -0.1943 -0.4147
  171POPC   D2A 2599   8.315   9.172   6.287 -0.2693 -0.2126 -0.2432
  171POPC   C3A 2600   8.172   8.838   6.630 -0.1174  0.1665  0.0055
  171POPC   C4A 2601   7.847   8.819   6.358  0.0932 -0.1831 -0.3310
  171POPC   C1B 2602   8.004   8.758   5.833  0.2305 -0.2213  0.3845
  171POPC   C2B 2603   7.710   9.009   5.918  0.0531  0.0234 -0.0441
  171POPC   C3B 2604   7.520   9.109   6.111  0.2130  0.1754 -0.3501
  171POPC   C4B 2605   7.483   9.228   6.472  0.3246 -0.1554  0.1745
  172POPC   NC3 2606   3.028   1.682   4.690  0.1635 -0.0703  0.2871
  172POPC   PO4 2607   2.998   2.066   4.588 -0.0297  0.0588 -0.0700
  172POPC   GL1 2608   3.019   2.122   5.018 -0.0721  0.2199 -0.1393
  172POPC   GL2 2609   2.794   2.280   5.136  0.0950 -0.0033 -0.1496
  172POPC   C1A 2610   3.239   1.872   5.304  0.2550 -0.1476  0.1972
  172POPC   D2A 2611   3.366   1.710   5.643  0.0402  0.0333  0.0407
  172POPC   C3A 2612   3.428   1.274   5.655 -0.0058 -0.0522 -0.1507
  172POPC   C4A 2613   3.572   0.943   5.847 -0.0771  0.1230  0.0241
  172POPC   C1B 2614   2.539   2.239   5.582  0.0205  0.4294  0.0971
  172POPC   C2B 2615   2.378   2.192   6.004 -0.2385 -0.0507 -0.2610
  172POPC   C3B 2616   2.149   1.868   6.189 -0.1371 -0.3048  0.2159
  172POPC   C4B 2617   2.109   1.545   6.431 -0.1553  0.0387 -0.1616
  173POPC   NC3 2618   7.862   2.809   5.193 -0.2531 -0.1189  0.1836
  173POPC   PO4 2619   7.682   2.411   5.321  0.1997 -0.3948 -0.1632
  173POPC   GL1 2620   7.633   2.331   5.853 -0.3530 -0.0903  0.0569
  173POPC   GL2 2621   7.370   2.142   5.845 -0.2343  0.2129 -0.2151
  173POPC   C1A 2622   7.976   2.194   6.210  0.1457  0.1279 -0.2906
  173POPC   D2A 2623   8.026   2.006   6.691 -0.0933 -0.0963  0.0909
  173POPC   C3A 2624   8.179   1.631   6.831  0.1029 -0.0176 -0.0084
  173POPC   C4A 2625   8.196   1.200   6.735  0.1862  0.2003  0.2352
  173POPC   C1B 2626   7.040   2.301   6.066 -0.1068 -0.4889  0.0060
  173POPC   C2B 2627   6.691   2.242   6.217  0.0357 -0.0375  0.3216
  173POPC   C3B 2628   6.281   2.135   6.103  0.2341 -0.0977 -0.1931
  173POPC   C4B 2629   6.023   1.970   5.681 -0.5055 -0.0534 -0.0783
  174POPC   NC3 2630   3.513   4.466   4.761  0.0209  0.3967 -0.2543
  174POPC   PO4 2631   3.450   4.645   5.130 -0.0406 -0.2718  0.3221
  174POPC   GL1 2632   3.356   4.373   5.443  0.2766  0.2791 -0.1550
  174POPC   GL2 2633   3.112   4.482   5.565 -0.2171  0.0351 -0.2085
  174POPC   C1A 2634   3.282   4.063   5.856 -0.0294  0.0135 -0.3165
  174POPC   D2A 2635   3.083   4.036   6.290 -0.0341 -0.2220 -0.1643
  174POPC   C3A 2636   3.291   4.026   6.686 -0.0320 -0.0098  0.2860
  174POPC   C4A 2637   3.588   3.985   7.010 -0.0076 -0.1929  0.0182
  174POPC   C1B 2638   2.915   4.426   5.933 -0.3266  0.0336 -0.3741
  174POPC   C2B 2639   2.703   4.275   6.330 -0.0695 -0.3604  0.0459
  174POPC   C3B 2640   2.821   4.351   6.741 -0.1233  0.0288 -0.0562
  174POPC   C4B 2641   3.044   4.082   7.130 -0.0528  0.2772  0.1639
  175POPC   NC3 2642   4.793   4.790   4.862  0.1422  0.0576  0.2006
  175POPC   PO4 2643   4.473   4.933   5.090 -0.1447  0.4323  0.2495
  175POPC   GL1 2644   4.397   5.272   5.359  0.0186  0.2056 -0.1354
  175POPC   GL2 2645   4.297   5.055   5.654  0.1916  0.1444  0.0986
  175POPC   C1A 2646   4.512   5.527   5.731 -0.0818 -0.2167  0.0736
  175POPC   D2A 2647   4.545   5.618   6.119  0.1703 -0.0039  0.0521
  175POPC   C3A 2648   4.424   5.555   6.472  0.1073 -0.3095 -0.2901
  175POPC   C4A 2649   4.499   5.758   6.811 -0.2285  0.0694 -0.1569
  175POPC   C1B 2650   4.284   5.188   6.061 -0.2781  0.3396  0.4027
  175POPC   C2B 2651   3.980   5.289   6.447  0.1992  0.0196 -0.1150
  175POPC   C3B 2652   3.925   5.411   6.911  0.3115 -0.5683  0.0407
  175POPC   C4B 2653   3.777   5.715   7.179 -0.1658 -0.3589 -0.1420
  176POPC   NC3 2654   8.277   3.863   4.766  0.0206  0.2023 -0.2661
  176POPC   PO4 2655   8.620   4.012   5.024  0.2522 -0.3772 -0.2131
  176POPC   GL1 2656   8.643   3.832   5.471 -0.1799  0.1509  0.0900
  176POPC   GL2 2657   8.562   4.058   5.703  0.0467 -0.3156 -0.0433
  176POPC   C1A 2658   9.016   3.742   5.688 -0.1607  0.2808  0.1559
  176POPC   D2A 2659   9.164   3.550   6.018  0.1200  0.2351  0.1642
  176POPC   C3A 2660   9.253   3.255   6.172 -0.0427 -0.0428  0.2849
  176POPC   C4A 2661   9.190   3.409   6.590 -0.1567 -0.0685 -0.0245
  176POPC   C1B 2662   8.241   4.077   5.970 -0.0752 -0.0398 -0.1243
  176POPC   C2B 2663   8.161   4.059   6.381  0.0859  0.0233  0.0359
  176POPC   C3B 2664   8.088   4.001   6.840  0.1287  0.1321 -0.3614
  176POPC   C4B 2665   7.836   4.089   7.205  0.1583 -0.2507 -0.1637
  177POPC   NC3 2666   1.181   6.043   5.259  0.2171  0.0139  0.1210
  177POPC   PO4 2667   1.172   6.456   5.235  0.0996  0.1693 -0.1051
  177POPC   GL1 2668   1.550   6.293   5.465 -0.0317  0.3411  0.0082
  177POPC   GL2 2669   1.932   6.422   5.482 -0.0938  0.2119 -0.0441
  177POPC   C1A 2670   1.750   6.449   5.948  0.1138 -0.0960 -0.2037
  177POPC   D2A 2671   1.823   6.172   6.296  0.0439  0.0024  0.0966
  177POPC   C3A 2672   1.896   5.744   6.138 -0.1947 -0.2739 -0.1482
  177POPC   C4A 2673   1.626   5.464   6.107  0.0771 -0.0974 -0.0423
  177POPC   C1B 2674   2.159   6.233   5.851  0.0570  0.1022 -0.2000
  177POPC   C2B 2675   2.366   6.234   6.246 -0.0494 -0.0046  0.0506
  177POPC   C3B 2676   2.689   6.095   6.521  0.1412  0.0597 -0.0774
  177POPC   C4B 2677   2.824   5.684   6.660 -0.0400  0.0582  0.0181
  178POPC   NC3 2678   1.432   4.561   4.988  0.1225 -0.3728  0.1976
  178POPC   PO4 2679   1.711   4.323   5.158  0.2466 -0.3052  0.0004
  178POPC   GL1 2680   1.783   4.008   5.478  0.2779 -0.1568 -0.2179
  178POPC   GL2 2681   1.529   3.972   5.655  0.1218  0.1471  0.1582
  178POPC   C1A 2682   1.819   3.603   5.775 -0.0481  0.1616  0.1000
  178POPC   D2A 2683   1.592   3.223   5.746 -0.1894  0.3063  0.2470
  178POPC   C3A 2684   1.680   2.907   5.638  0.1029  0.0986 -0.2390
  178POPC   C4A 2685   1.787   2.513   5.595 -0.3835 -0.2498 -0.1240
  178POPC   C1B 2686   1.153   4.056   5.885  0.0473  0.0620 -0.0827
  178POPC   C2B 2687   0.907   4.121   6.273  0.1371  0.3943 -0.6086
  178POPC   C3B 2688   0.620   4.198   6.668  0.3810  0.1509  0.2654
  178POPC   C4B 2689   0.460   4.375   6.984 -0.0448  0.1233  0.0638
  179POPC   NC3 2690   5.431   3.793   4.771 -0.0132  0.2387  0.1442
  179POPC   PO4 2691   5.043   3.994   4.955  0.0575  0.1674  0.0426
  179POPC   GL1 2692   5.192   4.019   5.294 -0.0187  0.2027  0.1107
  179POPC   GL2 2693   4.990   4.227   5.558 -0.3816  0.0729  0.1336
  179POPC   C1A 2694   5.450   4.036   5.689  0.0942 -0.2695 -0.1417
  179POPC   D2A 2695   5.741   4.302   6.092  0.1014  0.1011 -0.2747
  179POPC   C3A 2696   5.956   4.028   6.489 -0.2509  0.1064  0.0405
  179POPC   C4A 2697   5.885   3.651   6.841  0.0355 -0.1791  0.1962
  179POPC   C1B 2698   5.076   4.247   5.895  0.3661  0.3315 -0.0722
  179POPC   C2B 2699   4.809   4.060   6.228 -0.0066  0.0236 -0.0545
  179POPC   C3B 2700   4.332   4.190   6.269  0.1086 -0.1467 -0.0685
  179POPC   C4B 2701   4.061   4.534   6.337 -0.1711  0.3302  0.0860
  180POPC   NC3 2702   2.893   2.540   4.786 -0.5545 -0.1206 -0.3258
  180POPC   PO4 2703   3.173   2.706   5.111  0.1586  0.0914  0.2002
  180POPC   GL1 2704   3.378   2.765   5.351 -0.0789 -0.0803 -0.2492
  180POPC   GL2 2705   3.149   2.985   5.541  0.1898  0.0981 -0.2288
  180POPC   C1A 2706   3.603   2.814   5.747  0.0005  0.0757 -0.0174
  180POPC   D2A 2707   3.725   2.852   6.190  0.3437 -0.2793  0.0728
  180POPC   C3A 2708   3.644   2.429   6.526 -0.1942 -0.3201  0.2887
  180POPC   C4A 2709   3.345   2.165   6.762 -0.0909  0.0875  0.1253
  180POPC   C1B 2710   3.051   3.033   5.886  0.0917 -0.1036  0.1070
  180POPC   C2B 2711   3.236   2.958   6.349 -0.2268  0.0088 -0.1625
  180POPC   C3B 2712   3.507   2.872   6.741 -0.0504 -0.1911  0.0405
  180POPC   C4B 2713   3.400   2.582   7.053  0.2254 -0.1255  0.2747
  181POPC   NC3 2714   9.236   8.270   5.290  0.3794  0.1583  0.0729
  181POPC   PO4 2715   9.304   7.821   5.174  0.0835  0.0183  0.0283
  181POPC   GL1 2716   9.324   7.741   5.564 -0.0912 -0.0558  0.3186
  181POPC   GL2 2717   9.065   7.585   5.662 -0.3146  0.0140 -0.2489
  181POPC   C1A 2718   9.391   7.650   6.011  0.0454  0.0312 -0.0211
  181POPC   D2A 2719   9.327   7.924   6.522 -0.0133  0.1241 -0.0189
  181POPC   C3A 2720   9.406   7.661   6.899 -0.1116 -0.2065  0.1044
  181POPC   C4A 2721   9.506   8.076   7.145  0.3312 -0.2876  0.0223
  181POPC   C1B 2722   8.998   7.929   6.056  0.3992 -0.2921  0.0962
  181POPC   C2B 2723   8.865   8.154   6.568  0.1053  0.2526  0.0147
  181POPC   C3B 2724   9.074   8.307   6.976 -0.0496  0.0009 -0.2562
  181POPC   C4B 2725   9.129   8.643   7.338  0.0718 -0.0016 -0.2960
  182POPC   NC3 2726   0.634   2.326   4.860 -0.1312 -0.0473 -0.1223
  182POPC   PO4 2727   0.715   2.030   5.226  0.2459 -0.1577  0.1702
  182POPC   GL1 2728   0.935   1.713   5.514 -0.2548  0.4761 -0.0220
  182POPC   GL2 2729   0.884   1.436   5.771  0.0798 -0.0128 -0.0712
  182POPC   C1A 2730   1.145   1.767   5.998  0.1133 -0.0555  0.2515
  182POPC   D2A 2731   1.229   1.780   6.488  0.0781 -0.4615 -0.0840
  182POPC   C3A 2732   1.378   2.140   6.733 -0.0869  0.0734 -0.0547
  182POPC   C4A 2733   1.612   2.135   7.116 -0.3214 -0.4136 -0.4480
  182POPC   C1B 2734   1.029   1.350   6.190  0.0605  0.2605 -0.0555
  182POPC   C2B 2735   1.173   1.235   6.553 -0.0216  0.1074  0.1962
  182POPC   C3B 2736   1.264   1.175   6.901  0.3364 -0.0192  0.0571
  182POPC   C4B 2737   1.206   1.056   7.284  0.0797 -0.0358  0.1331
  183POPC   NC3 2738   4.601   5.411   4.964 -0.1696 -0.0346 -0.0944
  183POPC   PO4 2739   4.917   5.238   5.116  0.2038 -0.0240  0.0369
  183POPC   GL1 2740   4.961   5.348   5.576 -0.2305 -0.1450  0.2346
  183POPC   GL2 2741   4.772   5.143   5.841  0.1359  0.1384  0.1083
  183POPC   C1A 2742   5.093   5.600   5.994  0.1558  0.0693 -0.1472
  183POPC   D2A 2743   4.919   5.660   6.409 -0.0919 -0.1769  0.2111
  183POPC   C3A 2744   4.838   5.264   6.705 -0.2526  0.0156  0.0061
  183POPC   C4A 2745   4.974   5.052   7.193 -0.1974  0.0167  0.4504
  183POPC   C1B 2746   4.799   5.095   6.237 -0.1900  0.0432 -0.0330
  183POPC   C2B 2747   4.422   5.013   6.534 -0.0833  0.1818  0.0810
  183POPC   C3B 2748   4.154   4.934   6.742 -0.0848  0.0753 -0.0539
  183POPC   C4B 2749   3.712   4.684   6.661 -0.2678  0.2728  0.0758
  184POPC   NC3 2750   9.636   1.392   5.457 -0.1193 -0.0958  0.1669
  184POPC   PO4 2751   9.766   0.862   5.628  0.0107  0.2375 -0.0549
  184POPC   GL1 2752  10.028   0.659   5.922 -0.0344 -0.1474  0.0135
  184POPC   GL2 2753   9.968   0.348   5.807 -0.0410  0.3575 -0.1382
  184POPC   C1A 2754  10.138   0.505   6.273 -0.2749 -0.0524 -0.0642
  184POPC   D2A 2755  10.320   0.407   6.637  0.1786  0.0868  0.2061
  184POPC   C3A 2756  10.153   0.578   6.921  0.0891 -0.0173 -0.3292
  184POPC   C4A 2757  10.077   0.900   7.287  0.0154 -0.1137 -0.0875
  184POPC   C1B 2758   9.677   0.209   6.140  0.1256  0.1010 -0.1840
  184POPC   C2B 2759   9.550   0.096   6.490  0.3102  0.3138  0.0955
  184POPC   C3B 2760   9.083   0.138   6.701  0.0253  0.0386 -0.1719
  184POPC   C4B 2761   8.805   0.324   6.938  0.2695 -0.3629  0.0267
  185POPC   NC3 2762   2.492   2.219   4.753  0.1319  0.0194  0.0312
  185POPC   PO4 2763   1.969   2.180   4.764 -0.1471  0.0550 -0.1418
  185POPC   GL1 2764   1.756   2.023   5.181  0.0363 -0.0299  0.2460
  185POPC   GL2 2765   1.637   1.723   5.188 -0.0050  0.2535  0.1763
  185POPC   C1A 2766   1.419   2.007   5.546 -0.0374  0.1608  0.2837
  185POPC   D2A 2767   1.027   2.236   5.606  0.4005 -0.1003 -0.1573
  185POPC   C3A 2768   0.743   2.039   5.893 -0.4173 -0.2241 -0.2261
  185POPC   C4A 2769   0.318   2.078   6.278 -0.1396 -0.0592  0.0080
  185POPC   C1B 2770   1.904   1.342   5.198  0.0603  0.4858 -0.3761
  185POPC   C2B 2771   2.021   0.943   5.118  0.0215  0.0712 -0.0748
  185POPC   C3B 2772   2.305   0.587   5.069 -0.1761  0.0278 -0.2399
  185POPC   C4B 2773   2.429   0.191   4.964 -0.0330  0.0878 -0.2103
  186POPC   NC3 2774   7.755   6.786   5.234 -0.1109 -0.2220 -0.0101
  186POPC   PO4 2775   7.499   7.216   5.352 -0.2719  0.3049 -0.1804
  186POPC   GL1 2776   7.233   7.329   5.723 -0.1565 -0.2288 -0.2324
  186POPC   GL2 2777   7.482   7.431   5.934 -0.0163  0.0147 -0.3160
  186POPC   C1A 2778   7.078   7.061   5.960 -0.4640 -0.0810  0.1600
  186POPC   D2A 2779   6.800   7.163   6.307 -0.1048 -0.1310  0.1830
  186POPC   C3A 2780   6.524   6.928   6.531  0.0641 -0.1778  0.0966
  186POPC   C4A 2781   6.165   6.654   6.411 -0.1471 -0.0100 -0.0025
  186POPC   C1B 2782   7.759   7.382   6.279  0.1909  0.0673 -0.0253
  186POPC   C2B 2783   7.581   7.179   6.723 -0.0507 -0.0770  0.1721
  186POPC   C3B 2784   7.304   6.811   6.950  0.0685 -0.3071 -0.0544
  186POPC   C4B 2785   7.258   6.448   6.947 -0.0094 -0.0597 -0.2049
  187POPC   NC3 2786   4.132   6.942   4.238 -0.1515 -0.2618  0.2122
  187POPC   PO4 2787   4.019   7.410   4.176 -0.3249 -0.0948  0.0058
  187POPC   GL1 2788   3.854   7.319   4.519  0.0983 -0.2389 -0.3650
  187POPC   GL2 2789   3.810   6.986   4.654  0.3090 -0.1704  0.1652
  187POPC   C1A 2790   4.084   7.271   4.964 -0.2242  0.1104 -0.0703
  187POPC   D2A 2791   4.343   7.454   5.206  0.0449  0.0154  0.0510
  187POPC   C3A 2792   4.212   7.643   5.569  0.2501 -0.3300 -0.1487
  187POPC   C4A 2793   4.009   8.060   5.650  0.0061  0.0195  0.0103
  187POPC   C1B 2794   3.603   6.998   5.082 -0.1383  0.2481  0.0336
  187POPC   C2B 2795   3.322   7.134   5.376 -0.1151 -0.0506 -0.0828
  187POPC   C3B 2796   3.452   7.242   5.852  0.2769 -0.1295  0.0735
  187POPC   C4B 2797   3.817   7.226   6.159 -0.3585  0.0806  0.0844
  188POPC   NC3 2798   3.466   9.274   3.000 -0.2656  0.0262 -0.2367
  188POPC   PO4 2799   3.759   9.236   3.410 -0.1017  0.2044  0.3882
  188POPC   GL1 2800   3.776   9.272   3.825 -0.2591 -0.2130 -0.1463
  188POPC   GL2 2801   3.794   9.545   3.884  0.2346 -0.0946 -0.0248
  188POPC   C1A 2802   3.824   9.005   4.198  0.2186  0.0701  0.4829
  188POPC   D2A 2803   4.120   8.654   4.401 -0.2364  0.1047  0.1004
  188POPC   C3A 2804   4.236   8.475   4.757 -0.2890 -0.2716  0.0526
  188POPC   C4A 2805   3.991   8.189   4.951 -0.1047 -0.1611 -0.1992
  188POPC   C1B 2806   3.870   9.523   4.270  0.1651  0.1030  0.2565
  188POPC   C2B 2807   3.819   9.402   4.700 -0.0191 -0.1830 -0.3008
  188POPC   C3B 2808   3.651   9.710   5.013  0.0647  0.0011  0.1173
  188POPC   C4B 2809   3.842   9.970   5.257 -0.2841 -0.0277 -0.1046
  189POPC   NC3 2810   7.082   3.075   5.144 -0.1253 -0.1178 -0.0308
  189POPC   PO4 2811   7.548   3.203   5.142 -0.1146 -0.1652 -0.1302
  189POPC   GL1 2812   7.562   3.391   5.502 -0.0565 -0.0112  0.0907
  189POPC   GL2 2813   7.258   3.291   5.682 -0.0814  0.2184 -0.1022
  189POPC   C1A 2814   7.655   3.539   5.881  0.0673  0.0094 -0.0669
  189POPC   D2A 2815   7.940   3.601   6.267  0.2721 -0.3119  0.1348
  189POPC   C3A 2816   7.860   3.560   6.624 -0.0899 -0.2543  0.7108
  189POPC   C4A 2817   7.775   3.646   7.013 -0.0331  0.1067  0.2735
  189POPC   C1B 2818   7.336   3.230   6.098  0.2071 -0.0445  0.0785
  189POPC   C2B 2819   7.534   3.013   6.501  0.2049  0.0820  0.1811
  189POPC   C3B 2820   7.758   3.050   6.902  0.1993  0.2299  0.1284
  189POPC   C4B 2821   7.977   2.833   7.217  0.2849 -0.1479  0.2656
  190POPC   NC3 2822   3.515   2.967   4.840  0.0990 -0.2283  0.1696
  190POPC   PO4 2823   3.378   3.306   5.212  0.0915  0.3252 -0.2412
  190POPC   GL1 2824   3.514   3.318   5.601 -0.0841 -0.2504 -0.1531
  190POPC   GL2 2825   3.488   3.713   5.598 -0.1345  0.1578 -0.2093
  190POPC   C1A 2826   3.464   3.356   6.028 -0.0279 -0.0119 -0.3453
  190POPC   D2A 2827   3.428   3.511   6.349  0.1624  0.0116 -0.2200
  190POPC   C3A 2828   3.674   3.683   6.660  0.1561 -0.1417 -0.2547
  190POPC   C4A 2829   3.570   3.375   6.993 -0.1883 -0.3011 -0.3018
  190POPC   C1B 2830   3.618   3.779   5.965 -0.0055 -0.0939  0.1001
  190POPC   C2B 2831   3.740   4.035   6.275 -0.0295 -0.0071  0.1747
  190POPC   C3B 2832   3.887   4.127   6.597  0.0334  0.2533 -0.1734
  190POPC   C4B 2833   4.244   4.293   6.721 -0.3586 -0.0550 -0.0398
  191POPC   NC3 2834   9.511   2.084   5.024 -0.1739  0.2054 -0.0503
  191POPC   PO4 2835   9.564   1.903   5.396  0.1123 -0.0580  0.0427
  191POPC   GL1 2836   9.801   1.744   5.856  0.0812  0.1173  0.0814
  191POPC   GL2 2837  10.150   1.868   6.001  0.3199  0.2202  0.3987
  191POPC   C1A 2838   9.783   1.628   6.355 -0.0640  0.0904 -0.0569
  191POPC   D2A 2839   9.803   1.286   6.750  0.1437 -0.0264 -0.3365
  191POPC   C3A 2840  10.199   1.078   6.765 -0.2407  0.0006 -0.2890
  191POPC   C4A 2841  10.411   0.885   6.531  0.0660 -0.1767  0.2947
  191POPC   C1B 2842  10.625   1.667   5.952  0.0868  0.0664 -0.3108
  191POPC   C2B 2843  10.831   1.667   6.375  0.1724  0.0814 -0.3224
  191POPC   C3B 2844  11.003   2.053   6.420 -0.1677 -0.0414 -0.2081
  191POPC   C4B 2845  11.330   2.237   6.172  0.0095 -0.0397 -0.1794
  192POPC   NC3 2846   9.613   6.526   5.189  0.1052 -0.1219  0.0684
  192POPC   PO4 2847   9.502   6.232   5.451  0.0151  0.0226 -0.1668
  192POPC   GL1 2848   9.377   6.429   5.815 -0.3039 -0.4230  0.2368
  192POPC   GL2 2849   9.584   6.739   5.885 -0.1551 -0.0314  0.3624
  192POPC   C1A 2850   9.194   6.567   6.175 -0.2351 -0.1109 -0.0207
  192POPC   D2A 2851   9.439   6.758   6.485  0.0771 -0.0309  0.1057
  192POPC   C3A 2852   9.808   6.951   6.531 -0.1171 -0.1458 -0.2538
  192POPC   C4A 2853  10.179   7.210   6.307 -0.0274  0.0778 -0.0214
  192POPC   C1B 2854   9.703   6.405   6.255  0.0664  0.0023 -0.0954
  192POPC   C2B 2855   9.843   6.430   6.657  0.2132 -0.4084 -0.0721
  192POPC   C3B 2856   9.799   6.770   6.955  0.4172 -0.0754  0.1029
  192POPC   C4B 2857   9.497   7.155   6.865 -0.1212 -0.1539  0.0134
  193POPC   NC3 2858   9.604   7.418   4.864  0.4617 -0.2008 -0.2464
  193POPC   PO4 2859   9.953   7.181   4.966 -0.0747 -0.1684  0.1018
  193POPC   GL1 2860   9.868   7.347   5.376  0.1723 -0.1294  0.0199
  193POPC   GL2 2861   9.692   7.024   5.410  0.0197 -0.1088 -0.1763
  193POPC   C1A 2862  10.257   7.508   5.659  0.2077  0.2538 -0.2943
  193POPC   D2A 2863  10.357   7.613   6.031 -0.2353  0.0718  0.0491
  193POPC   C3A 2864  10.730   7.482   6.079  0.2067  0.0051 -0.0819
  193POPC   C4A 2865  11.073   7.327   6.032 -0.2276 -0.1609  0.1142
  193POPC   C1B 2866   9.485   7.232   5.713 -0.0947 -0.1006 -0.1468
  193POPC   C2B 2867   9.360   7.121   6.112  0.0059  0.2667 -0.2255
  193POPC   C3B 2868   9.015   7.060   6.465 -0.0719  0.3721 -0.1097
  193POPC   C4B 2869   8.997   7.345   6.876  0.1089  0.0048  0.2695
  194POPC   NC3 2870   5.848   5.127   5.213 -0.4811 -0.0870  0.1647
  194POPC   PO4 2871   5.712   4.626   5.271  0.0412  0.0845  0.2535
  194POPC   GL1 2872   5.834   4.674   5.688 -0.0305 -0.2767 -0.4192
  194POPC   GL2 2873   6.001   4.969   5.687 -0.0370  0.0273  0.1557
  194POPC   C1A 2874   5.561   4.781   6.063  0.1231  0.1459  0.1373
  194POPC   D2A 2875   5.297   5.153   6.107 -0.0601  0.2685 -0.4828
  194POPC   C3A 2876   5.317   5.313   6.419 -0.1385 -0.2417 -0.3818
  194POPC   C4A 2877   5.333   5.222   6.828  0.0684 -0.1121 -0.1182
  194POPC   C1B 2878   5.834   5.268   6.057  0.1946  0.4807 -0.0659
  194POPC   C2B 2879   5.768   5.407   6.421 -0.1532 -0.1480 -0.3452
  194POPC   C3B 2880   5.672   5.544   6.796  0.0776 -0.0727 -0.0646
  194POPC   C4B 2881   5.806   5.905   7.125  0.1782 -0.2298 -0.0260
  195POPC   NC3 2882   4.236   6.230   4.918 -0.1837 -0.1767 -0.1339
  195POPC   PO4 2883   4.570   6.061   4.835 -0.1346 -0.1078 -0.1885
  195POPC   GL1 2884   4.786   6.041   5.240 -0.1583 -0.1104  0.0606
  195POPC   GL2 2885   4.596   5.794   5.303  0.0386 -0.0531  0.0146
  195POPC   C1A 2886   4.960   6.046   5.662 -0.0599 -0.1410 -0.2369
  195POPC   D2A 2887   4.786   6.047   6.106  0.2357 -0.1815  0.4527
  195POPC   C3A 2888   4.518   6.020   6.421  0.0831  0.2056  0.2521
  195POPC   C4A 2889   4.419   6.191   6.914 -0.0149 -0.6661  0.1186
  195POPC   C1B 2890   4.273   5.963   5.546  0.0578  0.1702  0.1592
  195POPC   C2B 2891   4.139   5.829   5.930  0.0207 -0.3546  0.0797
  195POPC   C3B 2892   4.073   5.762   6.249  0.2275  0.0357 -0.2668
  195POPC   C4B 2893   4.044   5.955   6.730 -0.0879 -0.0310  0.1501
  196POPC   NC3 2894   7.645   1.956   5.322 -0.0937  0.0663 -0.2133
  196POPC   PO4 2895   7.449   1.659   5.526  0.0697 -0.2468  0.2308
  196POPC   GL1 2896   7.617   1.672   5.904  0.4137  0.1254  0.2013
  196POPC   GL2 2897   7.872   1.885   5.827  0.1952  0.2866  0.0309
  196POPC   C1A 2898   7.531   1.898   6.301 -0.0106  0.3502  0.0475
  196POPC   D2A 2899   7.515   1.904   6.741 -0.0280 -0.1665  0.1255
  196POPC   C3A 2900   7.166   1.802   6.942  0.2033  0.1203  0.0162
  196POPC   C4A 2901   6.733   1.879   6.924 -0.1215  0.2024  0.2132
  196POPC   C1B 2902   8.195   1.770   5.978 -0.3374 -0.1037  0.1673
  196POPC   C2B 2903   8.405   1.869   6.331  0.1745  0.3176  0.1050
  196POPC   C3B 2904   8.582   2.067   6.724 -0.0931  0.0918  0.3187
  196POPC   C4B 2905   8.963   2.121   6.830  0.0160 -0.1474  0.3353
  197POPC   NC3 2906   6.550   6.503   4.993 -0.1226 -0.0694  0.1144
  197POPC   PO4 2907   6.317   6.792   4.840 -0.2881  0.2103  0.0885
  197POPC   GL1 2908   6.032   6.967   5.004 -0.2131 -0.0764 -0.0196
  197POPC   GL2 2909   6.082   7.291   4.982  0.2753 -0.0234  0.2479
  197POPC   C1A 2910   5.676   7.024   5.324 -0.1449  0.0643  0.2795
  197POPC   D2A 2911   5.635   7.204   5.731 -0.1501  0.4070 -0.0494
  197POPC   C3A 2912   5.311   7.485   5.911 -0.1044 -0.1737 -0.0348
  197POPC   C4A 2913   5.316   7.880   5.850  0.1800  0.0738 -0.0761
  197POPC   C1B 2914   6.096   7.271   5.389 -0.3368 -0.2231 -0.0968
  197POPC   C2B 2915   6.144   7.386   5.814  0.0863 -0.1137  0.1564
  197POPC   C3B 2916   6.311   7.324   6.168  0.0068  0.2328  0.1245
  197POPC   C4B 2917   6.480   7.404   6.619 -0.1053  0.1177  0.1050
  198POPC   NC3 2918   4.853   7.262   3.752 -0.0963  0.1067 -0.1457
  198POPC   PO4 2919   5.076   7.174   4.131  0.2329 -0.1035  0.2692
  198POPC   GL1 2920   4.934   7.462   4.385 -0.1461  0.1457  0.1581
  198POPC   GL2 2921   5.181   7.557   4.567  0.2925 -0.1990 -0.0109
  198POPC   C1A 2922   4.794   7.504   4.872 -0.0076 -0.2268 -0.1385
  198POPC   D2A 2923   4.812   7.747   5.234  0.3361 -0.0794  0.0572
  198POPC   C3A 2924   4.768   7.390   5.578 -0.0192  0.2138 -0.3330
  198POPC   C4A 2925   5.077   7.095   5.776  0.0429  0.0202  0.1819
  198POPC   C1B 2926   5.330   7.346   4.910  0.1008  0.0971  0.0496
  198POPC   C2B 2927   5.694   7.506   5.172  0.3603 -0.1247  0.0757
  198POPC   C3B 2928   5.756   7.653   5.638 -0.3277 -0.0666 -0.1999
  198POPC   C4B 2929   5.850   7.522   6.134  0.0432 -0.1549 -0.2204
  199POPC   NC3 2930   5.021   9.675   3.275  0.0326  0.1186  0.1723
  199POPC   PO4 2931   4.776   9.301   3.209 -0.1191 -0.1962  0.2235
  199POPC   GL1 2932   4.626   9.498   3.587 -0.0671 -0.0750  0.1952
  199POPC   GL2 2933   4.370   9.396   3.706  0.0565 -0.1699 -0.0456
  199POPC   C1A 2934   4.836   9.430   4.022  0.1943  0.2015  0.0068
  199POPC   D2A 2935   4.857   9.760   4.293 -0.1959 -0.1610  0.1590
  199POPC   C3A 2936   4.790   9.798   4.677  0.2914  0.3297  0.0315
  199POPC   C4A 2937   4.698   9.507   5.048  0.0065  0.2006 -0.0639
  199POPC   C1B 2938   4.344   9.441   4.167 -0.1089  0.4088 -0.0052
  199POPC   C2B 2939   4.335   9.552   4.554 -0.1912  0.2552 -0.3126
  199POPC   C3B 2940   4.179   9.470   5.060 -0.2568 -0.0664  0.1622
  199POPC   C4B 2941   4.440   9.313   5.450 -0.2235 -0.1516 -0.0954
  200POPC   NC3 2942   2.940   0.228   3.553  0.0515  0.0925  0.1061
  200POPC   PO4 2943   2.469   0.161   3.598  0.1648 -0.0108 -0.2291
  200POPC   GL1 2944   2.587   0.043   3.916  0.6259  0.0092 -0.3071
  200POPC   GL2 2945   2.748   0.173   4.206 -0.0875  0.2063 -0.1034
  200POPC   C1A 2946   2.612  -0.335   4.163 -0.2232  0.0166 -0.0679
  200POPC   D2A 2947   2.424  -0.609   4.361  0.0825 -0.1030  0.0716
  200POPC   C3A 2948   2.576  -0.864   4.552 -0.1224 -0.4058 -0.0658
  200POPC   C4A 2949   2.849  -0.791   4.823 -0.1865 -0.1422  0.4585
  200POPC   C1B 2950   2.874   0.043   4.608 -0.2992  0.2564 -0.3930
  200POPC   C2B 2951   2.540  -0.307   4.833  0.0131  0.0143 -0.1479
  200POPC   C3B 2952   2.340  -0.703   4.952 -0.3715  0.1706  0.1585
  200POPC   C4B 2953   2.177  -0.963   4.880 -0.1400  0.1869  0.1620
  201POPC   NC3 2954  10.116   8.747   5.270  0.2921  0.3741  0.2715
  201POPC   PO4 2955   9.626   8.652   5.377 -0.0492  0.0168  0.3438
  201POPC   GL1 2956   9.447   8.650   5.760  0.0572 -0.1897  0.3089
  201POPC   GL2 2957   9.208   8.389   5.781  0.2085  0.0813 -0.1211
  201POPC   C1A 2958   9.304   8.661   6.228 -0.3068 -0.1627 -0.2476
  201POPC   D2A 2959   9.375   8.457   6.618  0.3101  0.2174 -0.2002
  201POPC   C3A 2960   9.738   8.193   6.640  0.1050  0.1027  0.2581
  201POPC   C4A 2961   9.860   7.900   6.856  0.0151  0.1473 -0.1997
  201POPC   C1B 2962   9.503   8.084   6.081 -0.0763  0.0237  0.1466
  201POPC   C2B 2963   9.812   7.823   6.279 -0.0087 -0.0374  0.1265
  201POPC   C3B 2964  10.206   7.732   6.532  0.0131  0.1229  0.0225
  201POPC   C4B 2965  10.722   7.769   6.520  0.1744 -0.1555  0.0734
  202POPC   NC3 2966   1.376   6.945   5.147  0.0445 -0.3944  0.0933
  202POPC   PO4 2967   1.237   7.213   4.950 -0.1301  0.2223  0.1205
  202POPC   GL1 2968   1.221   7.422   5.344 -0.0047 -0.2117 -0.0348
  202POPC   GL2 2969   1.166   7.206   5.629  0.0674  0.1233 -0.0519
  202POPC   C1A 2970   1.324   7.608   5.839 -0.2941  0.0887  0.0300
  202POPC   D2A 2971   1.671   7.864   6.109 -0.1332 -0.0636 -0.2960
  202POPC   C3A 2972   1.962   8.084   6.344  0.0531  0.1193  0.0367
  202POPC   C4A 2973   2.225   8.236   6.732 -0.1502 -0.1792  0.0462
  202POPC   C1B 2974   1.299   7.116   6.072 -0.1985 -0.2369  0.1288
  202POPC   C2B 2975   1.625   7.029   6.263 -0.1708 -0.0803 -0.0157
  202POPC   C3B 2976   1.819   7.142   6.802  0.0750 -0.1236  0.1897
  202POPC   C4B 2977   2.229   7.098   7.028 -0.0159  0.1489  0.1677
  203POPC   NC3 2978   6.511   1.438   4.975 -0.0170  0.1100 -0.0547
  203POPC   PO4 2979   6.563   0.911   5.054  0.1510  0.1745 -0.1680
  203POPC   GL1 2980   6.463   0.746   5.334 -0.1798 -0.0686 -0.0812
  203POPC   GL2 2981   6.673   0.522   5.350  0.4158  0.0516  0.0401
  203POPC   C1A 2982   6.272   0.681   5.759  0.3895  0.2074 -0.1368
  203POPC   D2A 2983   6.403   0.516   6.087  0.2162 -0.0051 -0.4185
  203POPC   C3A 2984   6.376   0.839   6.502 -0.0892 -0.0190  0.0944
  203POPC   C4A 2985   6.596   1.050   6.865  0.0384  0.3521 -0.1335
  203POPC   C1B 2986   6.632   0.196   5.615  0.2931 -0.3378  0.0254
  203POPC   C2B 2987   6.694   0.032   6.057  0.2061  0.1846 -0.0615
  203POPC   C3B 2988   6.353   0.062   6.334 -0.0150  0.2658  0.3843
  203POPC   C4B 2989   6.034   0.167   6.247 -0.0242 -0.0655  0.0473
  204POPC   NC3 2990   7.960   0.443   5.298  0.0590 -0.0073 -0.1712
  204POPC   PO4 2991   8.332   0.340   5.401  0.0493 -0.0598  0.1756
  204POPC   GL1 2992   8.326  -0.010   5.656 -0.2009  0.1999 -0.0243
  204POPC   GL2 2993   8.607   0.080   5.736 -0.2559  0.0572  0.1486
  204POPC   C1A 2994   8.218   0.133   6.097  0.1336 -0.2167 -0.3209
  204POPC   D2A 2995   8.039   0.032   6.456  0.0631 -0.0008  0.0535
  204POPC   C3A 2996   8.063  -0.300   6.800 -0.1608 -0.2787 -0.0691
  204POPC   C4A 2997   8.152  -0.429   7.211  0.1345 -0.0342  0.0038
  204POPC   C1B 2998   8.689   0.042   6.217 -0.1114 -0.0989  0.0937
  204POPC   C2B 2999   8.542   0.077   6.572 -0.0298 -0.4646  0.3035
  204POPC   C3B 3000   8.395   0.064   6.937 -0.1783  0.0027  0.2659
  204POPC   C4B 3001   8.176   0.183   7.260  0.2734 -0.0909 -0.3471
  205POPC   NC3 3002   7.086   8.696   4.789 -0.0482 -0.1397 -0.0668
  205POPC   PO4 3003   6.967   9.011   4.515 -0.0745  0.0910 -0.1522
  205POPC   GL1 3004   6.873   9.108   5.019 -0.3408  0.0976 -0.1052
  205POPC   GL2 3005   7.067   9.192   5.273 -0.1204  0.2710  0.0388
  205POPC   C1A 3006   6.576   9.220   5.298 -0.0748  0.0287 -0.0986
  205POPC   D2A 3007   6.526   9.443   5.663 -0.0559  0.1169 -0.0864
  205POPC   C3A 3008   6.299   9.391   6.086  0.0359  0.1239  0.1175
  205POPC   C4A 3009   6.185   9.139   6.350 -0.0124 -0.0219 -0.0758
  205POPC   C1B 3010   7.325   9.040   5.618  0.0716  0.2057  0.0405
  205POPC   C2B 3011   7.189   8.793   5.984 -0.2068 -0.2431 -0.2360
  205POPC   C3B 3012   6.879   8.601   6.159 -0.0821  0.0516 -0.1459
  205POPC   C4B 3013   6.512   8.826   6.244  0.1311  0.0618 -0.2388
  206POPC   NC3 3014   2.691   4.331   5.336 -0.2460 -0.0255 -0.0135
  206POPC   PO4 3015   2.727   4.674   5.145  0.1419  0.2573 -0.1783
  206POPC   GL1 3016   2.704   4.856   5.438 -0.0178 -0.4129 -0.0820
  206POPC   GL2 3017   2.568   4.739   5.598 -0.2285 -0.4283 -0.0050
  206POPC   C1A 3018   2.935   5.118   5.764  0.1864 -0.1326  0.0945
  206POPC   D2A 3019   3.259   5.407   5.991  0.2666 -0.0021 -0.2151
  206POPC   C3A 3020   3.286   5.823   5.872  0.0155  0.0998  0.0999
  206POPC   C4A 3021   3.630   6.019   5.894 -0.1645  0.1623  0.0779
  206POPC   C1B 3022   2.577   4.823   5.977  0.0401  0.3592  0.0447
  206POPC   C2B 3023   2.582   4.739   6.532 -0.1060  0.1062  0.0317
  206POPC   C3B 3024   2.398   4.691   6.972 -0.1282  0.1323  0.0931
  206POPC   C4B 3025   2.280   4.561   7.357  0.0450  0.3632 -0.0855
  207POPC   NC3 3026   1.883   8.494   4.341  0.2039 -0.0258  0.3024
  207POPC   PO4 3027   1.648   8.856   4.542  0.1511 -0.0551 -0.1557
  207POPC   GL1 3028   1.791   8.606   4.885 -0.2413 -0.0044 -0.3118
  207POPC   GL2 3029   2.134   8.419   4.849  0.0432 -0.1850 -0.2760
  207POPC   C1A 3030   1.735   8.172   5.111 -0.1677 -0.2524  0.1328
  207POPC   D2A 3031   1.942   7.774   5.206  0.0687  0.0527  0.1881
  207POPC   C3A 3032   1.770   7.439   5.526  0.0242  0.1261  0.0277
  207POPC   C4A 3033   1.750   7.343   5.935  0.1683  0.1148  0.0255
  207POPC   C1B 3034   2.168   8.695   5.237  0.1435 -0.0400  0.0121
  207POPC   C2B 3035   1.996   9.004   5.510 -0.0851 -0.2625  0.3266
  207POPC   C3B 3036   2.101   9.134   6.009 -0.0509 -0.0547  0.2394
  207POPC   C4B 3037   2.110   9.403   6.282  0.2386  0.1287 -0.0421
  208POPC   NC3 3038  10.083   2.109   5.491 -0.2688 -0.3110 -0.3023
  208POPC   PO4 3039  10.423   2.241   5.214 -0.2409  0.0317  0.0355
  208POPC   GL1 3040  10.667   2.419   5.513  0.1341 -0.0328 -0.0525
  208POPC   GL2 3041  10.433   2.328   5.763 -0.0607  0.2081 -0.2261
  208POPC   C1A 3042  10.891   2.553   5.849  0.1871 -0.1406  0.1910
  208POPC   D2A 3043  11.135   2.715   6.224 -0.2056 -0.0333 -0.0202
  208POPC   C3A 3044  11.561   2.675   6.360 -0.0333  0.0190  0.0512
  208POPC   C4A 3045  11.753   2.851   6.671 -0.0061  0.1044  0.3077
  208POPC   C1B 3046  10.138   2.484   6.101 -0.0511  0.0365  0.2912
  208POPC   C2B 3047   9.769   2.669   6.298 -0.1477 -0.0747 -0.1232
  208POPC   C3B 3048   9.446   2.877   6.531  0.2143  0.1134  0.0676
  208POPC   C4B 3049   9.298   3.024   6.941 -0.1414  0.0827 -0.3472
  209POPC   NC3 3050   1.369   2.984   5.133  0.1422 -0.0203 -0.3334
  209POPC   PO4 3051   1.125   3.205   5.053  0.2741  0.0109  0.0968
  209POPC   GL1 3052   1.171   3.205   5.541  0.3329  0.0478  0.2620
  209POPC   GL2 3053   0.926   2.978   5.738  0.2196  0.0806  0.1099
  209POPC   C1A 3054   1.297   3.525   5.861  0.1942 -0.0194  0.0327
  209POPC   D2A 3055   1.532   3.641   6.175  0.0545  0.0361 -0.1998
  209POPC   C3A 3056   1.396   4.084   6.323 -0.2545  0.1351  0.0399
  209POPC   C4A 3057   1.157   4.051   6.717  0.0168 -0.0295  0.2163
  209POPC   C1B 3058   1.308   2.692   5.858  0.2533 -0.1449 -0.3978
  209POPC   C2B 3059   1.788   2.681   6.087  0.3118  0.0761 -0.3037
  209POPC   C3B 3060   1.913   2.389   6.388  0.0448 -0.1776  0.1864
  209POPC   C4B 3061   2.250   2.312   6.706 -0.0647  0.1794  0.1498
  210POPC   NC3 3062   8.519   9.453   4.673  0.0866 -0.3046 -0.0540
  210POPC   PO4 3063   8.362   9.410   5.072 -0.1411 -0.0930 -0.0483
  210POPC   GL1 3064   8.165   9.439   5.444  0.0658  0.2015 -0.1144
  210POPC   GL2 3065   7.974   9.723   5.601 -0.0257  0.0377 -0.0988
  210POPC   C1A 3066   8.063   9.342   5.902 -0.1330 -0.0626  0.0762
  210POPC   D2A 3067   7.887   9.463   6.294 -0.0756  0.0953 -0.1980
  210POPC   C3A 3068   7.999   9.304   6.660 -0.1100  0.0788  0.3074
  210POPC   C4A 3069   7.726   9.547   6.873  0.0771 -0.0402  0.1778
  210POPC   C1B 3070   8.323   9.771   5.924  0.2144 -0.2392 -0.1277
  210POPC   C2B 3071   8.293   9.711   6.403 -0.2917 -0.0152  0.2692
  210POPC   C3B 3072   8.453   9.511   6.704 -0.0057 -0.0020 -0.0682
  210POPC   C4B 3073   8.334   9.210   7.059 -0.1214 -0.2753 -0.0233
  211POPC   NC3 3074  10.195   0.560   5.431  0.1107 -0.3917  0.2840
  211POPC   PO4 3075  10.398   0.149   5.314 -0.0198 -0.2913 -0.1996
  211POPC   GL1 3076  10.454   0.201   5.753  0.0049 -0.0232 -0.2926
  211POPC   GL2 3077  10.495   0.440   5.796 -0.2124 -0.1713 -0.0634
  211POPC   C1A 3078  10.526   0.059   6.189  0.0569 -0.0376 -0.2694
  211POPC   D2A 3079  10.535  -0.013   6.621  0.0969 -0.1457 -0.1885
  211POPC   C3A 3080  10.668   0.274   7.024  0.0401 -0.2852  0.3389
  211POPC   C4A 3081  10.680   0.215   7.530 -0.1775 -0.0376  0.0223
  211POPC   C1B 3082  10.529   0.671   6.090 -0.2733 -0.0327 -0.3472
  211POPC   C2B 3083  10.720   1.109   6.148  0.0318  0.0920 -0.1026
  211POPC   C3B 3084  10.832   1.177   6.514 -0.0196 -0.3037 -0.2839
  211POPC   C4B 3085  10.940   1.270   6.940 -0.0647 -0.0150 -0.2134
  212POPC   NC3 3086   6.644   5.359   4.988  0.0520 -0.2955 -0.0688
  212POPC   PO4 3087   6.736   5.763   5.094 -0.2900  0.0047  0.2440
  212POPC   GL1 3088   6.640   5.853   5.413 -0.0794 -0.0079 -0.1932
  212POPC   GL2 3089   6.576   5.621   5.636 -0.1884  0.0421 -0.1591
  212POPC   C1A 3090   6.276   5.975   5.772  0.1903  0.0891 -0.2254
  212POPC   D2A 3091   6.141   5.730   6.034  0.1367  0.2794  0.0453
  212POPC   C3A 3092   5.993   5.826   6.406  0.1754 -0.1585 -0.0450
  212POPC   C4A 3093   6.225   5.788   6.778 -0.2020 -0.0675 -0.0703
  212POPC   C1B 3094   6.621   5.712   6.005  0.0094  0.0078 -0.0981
  212POPC   C2B 3095   6.555   5.864   6.451  0.1618 -0.1700 -0.2652
  212POPC   C3B 3096   6.698   5.888   6.865  0.1680  0.0601 -0.1729
  212POPC   C4B 3097   6.971   6.015   7.163  0.1557 -0.0329 -0.2625
  213POPC   NC3 3098   2.420   1.044   4.363  0.3689 -0.2190  0.0802
  213POPC   PO4 3099   2.498   0.669   4.277 -0.2483 -0.1435 -0.2676
  213POPC   GL1 3100   2.638   0.475   4.630 -0.0769 -0.0102 -0.0200
  213POPC   GL2 3101   2.947   0.531   4.527  0.3573 -0.0822 -0.2480
  213POPC   C1A 3102   2.966   0.361   5.002  0.0904  0.0674  0.2904
  213POPC   D2A 3103   3.280   0.098   5.246 -0.0201  0.0653 -0.2588
  213POPC   C3A 3104   3.508   0.346   5.506  0.4437 -0.2525 -0.1478
  213POPC   C4A 3105   3.877   0.605   5.647 -0.1309 -0.0459  0.0130
  213POPC   C1B 3106   3.338   0.253   4.735  0.1080  0.1799 -0.1308
  213POPC   C2B 3107   3.670   0.166   4.953 -0.3360 -0.1978 -0.2675
  213POPC   C3B 3108   3.985   0.284   5.315  0.0463 -0.2587 -0.0440
  213POPC   C4B 3109   4.126   0.215   5.775  0.5523  0.3429  0.1656
  214POPC   NC3 3110   1.242   9.054   4.720  0.2471  0.2669 -0.0438
  214POPC   PO4 3111   1.283   8.736   4.878 -0.1960  0.1542  0.1652
  214POPC   GL1 3112   1.469   8.811   5.209  0.2120 -0.2772 -0.1502
  214POPC   GL2 3113   1.644   9.093   5.033  0.1508  0.0675 -0.1143
  214POPC   C1A 3114   1.756   8.573   5.543 -0.2600 -0.1740 -0.2145
  214POPC   D2A 3115   1.705   8.242   5.772 -0.3938 -0.0524 -0.0783
  214POPC   C3A 3116   1.553   8.003   5.690 -0.0115 -0.2379  0.1492
  214POPC   C4A 3117   1.147   7.918   5.489 -0.0997 -0.2807  0.0519
  214POPC   C1B 3118   1.540   9.233   5.407 -0.2271 -0.1242  0.2069
  214POPC   C2B 3119   1.560   8.972   5.727  0.1662 -0.3192  0.1878
  214POPC   C3B 3120   1.839   8.725   6.057 -0.1564 -0.0862  0.2029
  214POPC   C4B 3121   2.093   8.679   6.342 -0.3846  0.0688 -0.0835
  215POPC   NC3 3122   8.756   3.047   4.989 -0.0356 -0.2322 -0.0208
  215POPC   PO4 3123   9.244   3.173   5.137  0.1191 -0.0070 -0.0206
  215POPC   GL1 3124   8.882   3.125   5.464 -0.1820 -0.3229 -0.2903
  215POPC   GL2 3125   9.111   2.821   5.626  0.0793 -0.2150 -0.4377
  215POPC   C1A 3126   8.731   3.305   5.828 -0.3798 -0.1418 -0.0376
  215POPC   D2A 3127   8.656   3.360   6.304 -0.0109  0.0427  0.1548
  215POPC   C3A 3128   8.341   3.571   6.534  0.1642 -0.2216 -0.3765
  215POPC   C4A 3129   8.229   3.406   6.910 -0.0843 -0.0594  0.2365
  215POPC   C1B 3130   9.039   2.796   6.070 -0.0900 -0.2380 -0.0184
  215POPC   C2B 3131   8.929   2.782   6.519  0.1621  0.2286 -0.0741
  215POPC   C3B 3132   8.803   3.031   6.897  0.0697 -0.1049 -0.3207
  215POPC   C4B 3133   8.522   3.088   7.201  0.1980 -0.5463 -0.0749
  216POPC   NC3 3134   6.362   7.195   4.590  0.0783  0.0286 -0.1136
  216POPC   PO4 3135   6.681   7.066   4.456  0.1020  0.2320 -0.0225
  216POPC   GL1 3136   6.787   6.961   4.943  0.1271 -0.1436  0.1354
  216POPC   GL2 3137   6.622   7.169   5.043 -0.0536 -0.1516  0.0896
  216POPC   C1A 3138   6.836   6.934   5.476  0.1911 -0.1302  0.1023
  216POPC   D2A 3139   6.778   6.522   5.771 -0.0788  0.3108 -0.1905
  216POPC   C3A 3140   6.732   6.702   6.170  0.0224  0.3059 -0.0258
  216POPC   C4A 3141   6.937   6.606   6.499  0.5203  0.0743  0.1078
  216POPC   C1B 3142   6.590   7.397   5.484 -0.1877 -0.3644  0.0726
  216POPC   C2B 3143   6.706   7.387   5.860  0.0920  0.0160  0.1144
  216POPC   C3B 3144   6.781   7.703   6.228  0.0461 -0.0997 -0.3304
  216POPC   C4B 3145   6.884   7.880   6.660  0.1155 -0.2547  0.3203
  217POPC   NC3 3146   7.938   3.607   5.253  0.2820  0.2143  0.1704
  217POPC   PO4 3147   8.293   3.597   5.220 -0.1285 -0.2183  0.0808
  217POPC   GL1 3148   8.169   3.638   5.686  0.0589  0.0220 -0.0944
  217POPC   GL2 3149   7.902   3.913   5.610 -0.0970 -0.0815 -0.0397
  217POPC   C1A 3150   8.370   3.605   6.000 -0.1570 -0.0444  0.0171
  217POPC   D2A 3151   8.661   3.848   6.157 -0.2614 -0.0891 -0.0374
  217POPC   C3A 3152   8.801   3.725   6.592 -0.0033 -0.0584  0.0704
  217POPC   C4A 3153   8.763   3.511   7.056  0.0631 -0.2479  0.1310
  217POPC   C1B 3154   7.803   4.011   6.049  0.2695  0.1006 -0.2236
  217POPC   C2B 3155   7.698   4.086   6.433  0.3304  0.0323 -0.4068
  217POPC   C3B 3156   7.549   4.231   6.762 -0.0904  0.0259 -0.0380
  217POPC   C4B 3157   7.412   4.310   7.132 -0.0488 -0.1053 -0.0650
  218POPC   NC3 3158   8.117   1.708   5.302  0.1829  0.1581 -0.0549
  218POPC   PO4 3159   8.093   2.093   5.157 -0.1000 -0.0923 -0.0968
  218POPC   GL1 3160   8.174   2.147   5.558  0.1288  0.2826  0.3593
  218POPC   GL2 3161   8.108   2.518   5.603 -0.0500  0.3513 -0.2562
  218POPC   C1A 3162   8.449   2.256   5.918  0.1366 -0.4336  0.0398
  218POPC   D2A 3163   8.756   2.343   6.073 -0.0199 -0.4529  0.1264
  218POPC   C3A 3164   8.858   2.094   6.271 -0.0181  0.1196  0.0627
  218POPC   C4A 3165   8.926   1.678   6.523 -0.2524 -0.1134 -0.0997
  218POPC   C1B 3166   8.044   2.659   6.027  0.1685 -0.0093  0.2237
  218POPC   C2B 3167   7.836   2.641   6.579 -0.1398 -0.1711  0.2714
  218POPC   C3B 3168   7.631   2.505   6.938 -0.0135  0.2691 -0.1955
  218POPC   C4B 3169   7.235   2.288   6.959  0.1757  0.1344 -0.2906
  219POPC   NC3 3170   7.560   5.740   4.955 -0.0368  0.0747 -0.2280
  219POPC   PO4 3171   8.017   5.621   5.078  0.1714 -0.0560 -0.0844
  219POPC   GL1 3172   8.095   5.472   5.493  0.1724 -0.1478  0.0698
  219POPC   GL2 3173   7.871   5.280   5.642 -0.0064 -0.1076  0.1173
  219POPC   C1A 3174   8.297   5.238   5.918  0.3580  0.0102 -0.0590
  219POPC   D2A 3175   8.712   5.300   6.170  0.0734 -0.0733  0.1858
  219POPC   C3A 3176   8.871   4.902   6.323  0.1209 -0.0531 -0.3013
  219POPC   C4A 3177   8.770   4.659   6.670  0.2814  0.2123 -0.0573
  219POPC   C1B 3178   7.925   5.615   5.935 -0.4326  0.0760 -0.0403
  219POPC   C2B 3179   8.044   5.934   6.112  0.2556  0.0718 -0.1948
  219POPC   C3B 3180   7.988   6.242   6.502  0.0240  0.1750 -0.0820
  219POPC   C4B 3181   7.736   6.253   6.814  0.1547  0.3053 -0.1700
  220POPC   NC3 3182   5.462   7.840   4.133 -0.1063 -0.0032  0.0053
  220POPC   PO4 3183   5.644   8.257   3.891  0.0509  0.0547 -0.1284
  220POPC   GL1 3184   5.752   8.302   4.284  0.2455  0.1372 -0.0881
  220POPC   GL2 3185   5.947   8.083   4.410  0.0443  0.0365  0.0408
  220POPC   C1A 3186   5.956   8.593   4.633  0.2443  0.0616 -0.1448
  220POPC   D2A 3187   6.037   9.024   4.528 -0.0044  0.1153  0.1703
  220POPC   C3A 3188   5.615   9.365   4.546  0.1312  0.1581 -0.2990
  220POPC   C4A 3189   5.320   9.343   4.882  0.0635 -0.2231 -0.2409
  220POPC   C1B 3190   5.879   8.152   4.912  0.0208  0.0728  0.1925
  220POPC   C2B 3191   5.778   8.091   5.268 -0.0057  0.1698 -0.2582
  220POPC   C3B 3192   5.536   8.280   5.580  0.0773 -0.1272  0.0024
  220POPC   C4B 3193   5.133   8.430   5.835 -0.0966 -0.0361 -0.0899
  221POPC   NC3 3194   0.268   2.747   5.204  0.2540  0.3008  0.0397
  221POPC   PO4 3195  -0.060   3.011   5.295  0.0738  0.0086 -0.1767
  221POPC   GL1 3196   0.011   2.805   5.661  0.0190 -0.1450 -0.0464
  221POPC   GL2 3197   0.249   2.843   5.802 -0.2109  0.4735 -0.0313
  221POPC   C1A 3198  -0.105   2.970   6.098  0.0014 -0.0563 -0.0413
  221POPC   D2A 3199   0.065   2.765   6.523 -0.0086 -0.1045 -0.0810
  221POPC   C3A 3200   0.097   2.448   6.799  0.0808 -0.2764  0.2143
  221POPC   C4A 3201   0.367   2.417   7.168 -0.1984 -0.0633 -0.1816
  221POPC   C1B 3202   0.515   2.981   6.072  0.0093  0.3160  0.1697
  221POPC   C2B 3203   0.636   3.017   6.477 -0.1821  0.0583  0.0800
  221POPC   C3B 3204   1.083   3.003   6.678 -0.1866 -0.0344 -0.2788
  221POPC   C4B 3205   1.275   3.209   7.042 -0.0611 -0.0732 -0.0579
  222POPC   NC3 3206   0.417   0.846   5.428  0.1440  0.1559  0.0028
  222POPC   PO4 3207   0.040   1.101   5.601 -0.1076 -0.1361  0.0120
  222POPC   GL1 3208   0.051   1.055   6.025 -0.2232  0.1501  0.1234
  222POPC   GL2 3209  -0.100   1.342   6.079 -0.0309  0.0393  0.1871
  222POPC   C1A 3210  -0.301   1.013   6.355 -0.1487  0.0479  0.0497
  222POPC   D2A 3211  -0.415   0.727   6.635  0.3203  0.1179 -0.0024
  222POPC   C3A 3212  -0.634   0.576   7.081  0.3573  0.1671  0.1222
  222POPC   C4A 3213  -0.562   0.707   7.479 -0.0325 -0.5627  0.0290
  222POPC   C1B 3214   0.133   1.493   6.491  0.1012 -0.0061  0.2348
  222POPC   C2B 3215   0.298   1.782   6.720  0.1938 -0.1883  0.1254
  222POPC   C3B 3216   0.524   2.126   6.820  0.1676 -0.1367  0.3310
  222POPC   C4B 3217   0.566   2.531   6.460  0.2610  0.2677 -0.0601
  223POPC   NC3 3218   9.636   2.890   5.384 -0.0077 -0.0381  0.0063
  223POPC   PO4 3219   9.501   2.410   5.438  0.5220  0.2616 -0.0801
  223POPC   GL1 3220   9.518   2.159   5.833  0.0554 -0.0578 -0.3095
  223POPC   GL2 3221   9.199   2.208   5.892  0.3908  0.2308 -0.0568
  223POPC   C1A 3222   9.747   2.157   6.179  0.0631  0.1751 -0.0832
  223POPC   D2A 3223  10.022   2.084   6.474 -0.1086 -0.2437  0.1101
  223POPC   C3A 3224   9.949   1.768   6.821  0.0014 -0.4236  0.0088
  223POPC   C4A 3225  10.054   1.471   7.122  0.0723 -0.0621  0.2801
  223POPC   C1B 3226   9.293   2.425   6.288  0.0435  0.3583 -0.4114
  223POPC   C2B 3227   9.333   2.430   6.748  0.0212  0.3497 -0.1694
  223POPC   C3B 3228   9.538   2.519   7.161  0.0877 -0.0346  0.2622
  223POPC   C4B 3229   9.447   2.697   7.515 -0.0390 -0.0620 -0.1044
  224POPC   NC3 3230   0.519   6.029   5.647  0.0574  0.3262  0.1572
  224POPC   PO4 3231   0.884   5.806   5.730  0.0876 -0.1733  0.2656
  224POPC   GL1 3232   1.181   5.921   5.866 -0.1435 -0.1008  0.1676
  224POPC   GL2 3233   1.297   6.204   5.946 -0.0659  0.2399  0.0300
  224POPC   C1A 3234   1.277   5.838   6.265  0.2106 -0.0780 -0.1267
  224POPC   D2A 3235   1.323   6.098   6.602 -0.3600  0.4280  0.1985
  224POPC   C3A 3236   1.110   6.351   6.824  0.2741 -0.5966  0.1282
  224POPC   C4A 3237   0.721   6.553   7.087  0.0185 -0.4571  0.3835
  224POPC   C1B 3238   1.245   6.506   6.301  0.0318 -0.0314  0.3279
  224POPC   C2B 3239   1.308   6.778   6.651  0.2644 -0.1326  0.3669
  224POPC   C3B 3240   1.310   7.230   6.743  0.1764 -0.0831 -0.2945
  224POPC   C4B 3241   1.355   7.697   6.773 -0.1027 -0.1928  0.0945
  225POPC   NC3 3242   2.206   2.645   4.846  0.0797  0.0046 -0.0282
  225POPC   PO4 3243   2.597   2.852   5.080 -0.0970  0.2759  0.3697
  225POPC   GL1 3244   2.700   2.710   5.469 -0.1577 -0.0966 -0.0222
  225POPC   GL2 3245   2.603   3.125   5.587  0.0549  0.0072  0.1733
  225POPC   C1A 3246   2.713   2.638   5.985  0.0475 -0.2629  0.0469
  225POPC   D2A 3247   2.774   2.880   6.348  0.1243  0.1982  0.0808
  225POPC   C3A 3248   2.556   2.718   6.704  0.2192  0.3217 -0.0859
  225POPC   C4A 3249   2.366   2.628   7.160  0.2950 -0.1060 -0.0109
  225POPC   C1B 3250   2.563   3.146   5.932  0.0805 -0.3023 -0.1415
  225POPC   C2B 3251   2.466   3.253   6.374  0.3053  0.0940  0.0474
  225POPC   C3B 3252   2.385   3.236   6.799 -0.1654  0.0037  0.5566
  225POPC   C4B 3253   2.585   3.031   7.111 -0.0718  0.1975  0.3097
  226POPC   NC3 3254   2.770   1.692   3.966 -0.1961  0.1345 -0.0154
  226POPC   PO4 3255   2.832   1.468   4.300  0.3070  0.0091 -0.0026
  226POPC   GL1 3256   2.594   1.454   4.752  0.0576  0.0800  0.0044
  226POPC   GL2 3257   2.645   1.711   5.009 -0.0285  0.2490 -0.3707
  226POPC   C1A 3258   2.427   1.238   5.070 -0.2339 -0.2390 -0.0011
  226POPC   D2A 3259   2.296   1.173   5.556  0.0999 -0.0628 -0.3746
  226POPC   C3A 3260   2.206   1.316   5.963 -0.2744 -0.0923  0.4233
  226POPC   C4A 3261   1.886   1.175   6.165 -0.2450 -0.0168 -0.0326
  226POPC   C1B 3262   2.763   1.827   5.435 -0.2431 -0.1929 -0.0693
  226POPC   C2B 3263   2.945   2.036   5.747 -0.0413  0.4055  0.0440
  226POPC   C3B 3264   2.863   2.113   6.075 -0.1016  0.0937  0.0885
  226POPC   C4B 3265   2.776   2.257   6.474 -0.0598  0.3298 -0.0418
  227POPC   NC3 3266   9.119   1.430   4.659 -0.3105  0.2019 -0.2295
  227POPC   PO4 3267   8.779   1.571   4.872  0.2962  0.2203 -0.2644
  227POPC   GL1 3268   8.643   1.853   5.195  0.0378  0.0780  0.1140
  227POPC   GL2 3269   8.587   2.220   5.178 -0.1401 -0.1532 -0.1019
  227POPC   C1A 3270   8.723   1.936   5.661  0.2748  0.3621 -0.0427
  227POPC   D2A 3271   8.684   1.690   5.950 -0.0846  0.1237  0.0900
  227POPC   C3A 3272   8.375   1.401   6.235 -0.2657  0.1284 -0.2877
  227POPC   C4A 3273   7.951   1.507   6.362  0.1935  0.1025  0.0386
  227POPC   C1B 3274   8.797   2.449   5.566  0.1673  0.0214 -0.1202
  227POPC   C2B 3275   8.614   2.744   5.807 -0.1148 -0.1065  0.0443
  227POPC   C3B 3276   8.502   2.765   6.253  0.0250 -0.2861 -0.3345
  227POPC   C4B 3277   8.441   2.440   6.419 -0.0261  0.2506  0.1731
  228POPC   NC3 3278   2.972   6.387   4.562  0.0297 -0.0486  0.1686
  228POPC   PO4 3279   3.063   6.454   4.927 -0.0393 -0.0084 -0.2999
  228POPC   GL1 3280   3.488   6.452   5.021  0.2767  0.2665  0.1622
  228POPC   GL2 3281   3.744   6.549   4.953  0.1160 -0.1231 -0.2760
  228POPC   C1A 3282   3.660   6.161   5.361  0.1850 -0.3426 -0.1138
  228POPC   D2A 3283   3.983   6.332   5.709  0.1271  0.4131  0.1961
  228POPC   C3A 3284   3.916   6.340   6.162 -0.1493  0.1807  0.0107
  228POPC   C4A 3285   4.171   6.392   6.474 -0.0357  0.2068 -0.0782
  228POPC   C1B 3286   3.707   6.723   5.466  0.4024  0.1208 -0.2123
  228POPC   C2B 3287   3.644   6.742   5.970  0.0747 -0.3246 -0.1057
  228POPC   C3B 3288   3.387   6.805   6.382  0.0246  0.2051 -0.1360
  228POPC   C4B 3289   3.501   7.061   6.696  0.1897 -0.3131  0.2727
  229POPC   NC3 3290   6.712   1.197   5.396 -0.0397  0.1487  0.2442
  229POPC   PO4 3291   6.958   1.542   5.223 -0.3475  0.3637  0.2193
  229POPC   GL1 3292   6.993   1.471   5.681 -0.1018  0.0899  0.0652
  229POPC   GL2 3293   7.302   1.190   5.587  0.1929 -0.0882  0.1843
  229POPC   C1A 3294   7.151   1.685   6.105  0.0385 -0.3888 -0.0924
  229POPC   D2A 3295   6.838   1.613   6.313 -0.0596  0.0421 -0.1076
  229POPC   C3A 3296   6.881   1.439   6.692  0.1944  0.0779 -0.2947
  229POPC   C4A 3297   7.024   1.106   7.020  0.1345  0.0676  0.1220
  229POPC   C1B 3298   7.180   1.215   6.060  0.1899  0.2913 -0.2377
  229POPC   C2B 3299   7.333   1.426   6.476 -0.2284  0.0996  0.1613
  229POPC   C3B 3300   7.489   1.375   6.849 -0.0236  0.0998  0.1674
  229POPC   C4B 3301   7.804   1.419   7.091 -0.2179  0.1056  0.0441
  230POPC   NC3 3302   7.733   0.247   4.766 -0.0398 -0.3573 -0.2229
  230POPC   PO4 3303   7.317   0.465   4.831 -0.2472 -0.1350 -0.1279
  230POPC   GL1 3304   7.086   0.229   5.249  0.0186 -0.1835  0.2346
  230POPC   GL2 3305   7.005  -0.149   5.237  0.0479  0.0496 -0.1619
  230POPC   C1A 3306   7.138   0.208   5.635 -0.2942 -0.2392  0.1129
  230POPC   D2A 3307   7.013   0.423   6.014 -0.0418  0.1384  0.0160
  230POPC   C3A 3308   6.868   0.464   6.412 -0.0109  0.1718  0.2636
  230POPC   C4A 3309   6.912   0.634   6.756 -0.1025 -0.1342 -0.1121
  230POPC   C1B 3310   6.852  -0.286   5.637  0.4091  0.1431  0.1721
  230POPC   C2B 3311   6.791  -0.482   6.057  0.1908 -0.2187 -0.0204
  230POPC   C3B 3312   6.603  -0.451   6.481 -0.0550 -0.3344 -0.0192
  230POPC   C4B 3313   6.465  -0.315   6.853  0.1918  0.0673 -0.1069
  231POPC   NC3 3314   4.802   4.824   5.489  0.1043  0.0128  0.0167
  231POPC   PO4 3315   4.425   4.581   5.509 -0.5182 -0.0075  0.0728
  231POPC   GL1 3316   4.644   4.606   5.873 -0.1819 -0.0958 -0.2530
  231POPC   GL2 3317   4.534   4.709   6.106 -0.1668 -0.0629  0.0113
  231POPC   C1A 3318   5.064   4.694   6.084 -0.1423  0.0950 -0.4096
  231POPC   D2A 3319   5.226   4.811   6.493  0.4653  0.1009 -0.1510
  231POPC   C3A 3320   5.109   4.744   6.845 -0.0452  0.2297 -0.1669
  231POPC   C4A 3321   5.402   4.771   7.088  0.0338 -0.0516 -0.1988
  231POPC   C1B 3322   4.695   4.488   6.516  0.0103 -0.0125  0.2278
  231POPC   C2B 3323   5.021   4.259   6.785  0.2432 -0.2063  0.4475
  231POPC   C3B 3324   5.163   3.887   7.111  0.0856 -0.1149  0.0977
  231POPC   C4B 3325   4.921   3.544   7.322 -0.0322  0.0839 -0.1628
  232POPC   NC3 3326   6.128   0.349   4.375  0.3359  0.1087 -0.0339
  232POPC   PO4 3327   5.904   0.311   3.914  0.0480  0.3272  0.1407
  232POPC   GL1 3328   5.687   0.046   4.284 -0.0767 -0.0093 -0.0206
  232POPC   GL2 3329   5.709  -0.311   4.394 -0.1636  0.4103 -0.2144
  232POPC   C1A 3330   5.360   0.039   4.584  0.0284 -0.1478 -0.1688
  232POPC   D2A 3331   5.076   0.283   4.817  0.3114  0.0825  0.3368
  232POPC   C3A 3332   5.086   0.182   5.193  0.1162 -0.2696  0.0071
  232POPC   C4A 3333   5.065   0.086   5.685  0.1271 -0.3419 -0.1055
  232POPC   C1B 3334   5.631  -0.405   4.880 -0.0670 -0.2800  0.1543
  232POPC   C2B 3335   5.623  -0.644   5.229  0.1483  0.0003  0.0251
  232POPC   C3B 3336   5.583  -0.914   5.612  0.0644  0.1746 -0.1766
  232POPC   C4B 3337   5.662  -1.039   6.122  0.0808  0.2778  0.1005
  233POPC   NC3 3338   6.249   3.454   4.850  0.2127 -0.1315  0.0529
  233POPC   PO4 3339   6.578   3.335   5.100 -0.0193 -0.1107 -0.1116
  233POPC   GL1 3340   6.636   3.283   5.499 -0.2750 -0.0108 -0.0212
  233POPC   GL2 3341   6.725   2.917   5.506  0.1811  0.0778  0.1278
  233POPC   C1A 3342   6.785   3.270   5.852 -0.2296  0.0634  0.1052
  233POPC   D2A 3343   6.874   3.361   6.252 -0.1505 -0.0865 -0.0162
  233POPC   C3A 3344   6.626   3.104   6.475 -0.3283 -0.0611 -0.3450
  233POPC   C4A 3345   6.537   2.853   6.899  0.1472 -0.1614 -0.0142
  233POPC   C1B 3346   6.985   2.773   5.838 -0.1015 -0.1107  0.0244
  233POPC   C2B 3347   6.950   2.764   6.275  0.3136 -0.1438 -0.0949
  233POPC   C3B 3348   7.068   2.906   6.657  0.0889 -0.0634  0.3038
  233POPC   C4B 3349   7.017   2.825   7.130 -0.2961  0.1936 -0.1727
  234POPC   NC3 3350   7.369   9.205   4.857 -0.0921  0.0075  0.1206
  234POPC   PO4 3351   7.540   9.529   4.847  0.2390 -0.1294 -0.2445
  234POPC   GL1 3352   7.383   9.552   5.228 -0.0054  0.1172  0.0701
  234POPC   GL2 3353   7.474   9.812   5.414 -0.0132  0.0949 -0.0585
  234POPC   C1A 3354   7.093   9.502   5.610  0.0543 -0.1252 -0.3021
  234POPC   D2A 3355   6.920   9.233   5.924 -0.1127 -0.0549  0.2812
  234POPC   C3A 3356   6.925   9.187   6.347  0.1519  0.0422 -0.2021
  234POPC   C4A 3357   6.713   8.816   6.671 -0.0092 -0.0505 -0.0921
  234POPC   C1B 3358   7.338   9.992   5.756 -0.1102 -0.3985 -0.2884
  234POPC   C2B 3359   7.242  10.108   6.092  0.2036 -0.0230 -0.2881
  234POPC   C3B 3360   6.953  10.168   6.538  0.3554 -0.2960 -0.1473
  234POPC   C4B 3361   6.693  10.331   6.853  0.0285  0.0337  0.2410
  235POPC   NC3 3362   5.216   8.210   3.633  0.2957 -0.0534 -0.0529
  235POPC   PO4 3363   4.956   7.863   4.029  0.0281 -0.1385  0.0573
  235POPC   GL1 3364   4.711   7.985   4.391  0.0127  0.0339 -0.0020
  235POPC   GL2 3365   4.662   8.288   4.430  0.0287  0.3001  0.2678
  235POPC   C1A 3366   4.435   7.863   4.852  0.1283 -0.1199  0.1313
  235POPC   D2A 3367   4.341   7.944   5.231 -0.2935 -0.2062 -0.2087
  235POPC   C3A 3368   4.524   8.091   5.593  0.0707  0.1804 -0.2107
  235POPC   C4A 3369   4.802   8.038   5.972  0.2305 -0.2110 -0.0274
  235POPC   C1B 3370   4.759   8.663   4.570 -0.2467  0.0805 -0.1874
  235POPC   C2B 3371   5.032   8.661   4.843 -0.3188 -0.1770  0.2091
  235POPC   C3B 3372   4.849   8.667   5.284 -0.2843  0.0480 -0.1403
  235POPC   C4B 3373   4.739   8.765   5.688 -0.1463  0.1834  0.0201
  236POPC   NC3 3374   8.172   4.093   5.193 -0.2981  0.4171 -0.2632
  236POPC   PO4 3375   7.708   4.119   5.222  0.3136  0.2875  0.2130
  236POPC   GL1 3376   7.345   3.995   5.514  0.4554  0.1025 -0.0628
  236POPC   GL2 3377   7.012   4.099   5.498 -0.1841  0.0834  0.4673
  236POPC   C1A 3378   7.352   4.125   5.916 -0.0562 -0.0763 -0.0750
  236POPC   D2A 3379   7.263   4.288   6.276  0.0922  0.0228 -0.2075
  236POPC   C3A 3380   7.091   4.258   6.745  0.0835 -0.4265 -0.0861
  236POPC   C4A 3381   6.819   4.460   6.989 -0.1255  0.1707 -0.2136
  236POPC   C1B 3382   6.857   4.240   5.857  0.0206  0.0292 -0.1215
  236POPC   C2B 3383   6.772   4.048   6.218  0.0235 -0.0918  0.2800
  236POPC   C3B 3384   6.925   3.824   6.521  0.0557 -0.0277  0.0004
  236POPC   C4B 3385   6.865   3.449   6.808  0.2676 -0.1239 -0.1553
  237POPC   NC3 3386   4.371   8.671   3.237  0.0159  0.3137 -0.0564
  237POPC   PO4 3387   4.394   8.390   3.580 -0.0023 -0.2581  0.0203
  237POPC   GL1 3388   4.527   8.621   3.910 -0.0788 -0.0105  0.1595
  237POPC   GL2 3389   4.817   8.396   3.944 -0.0342 -0.1273 -0.0177
  237POPC   C1A 3390   4.492   8.920   4.232  0.0973  0.0540  0.1049
  237POPC   D2A 3391   4.155   9.106   4.507  0.0552  0.3632  0.1421
  237POPC   C3A 3392   4.074   8.945   4.905 -0.1678 -0.0495  0.2651
  237POPC   C4A 3393   4.164   8.891   5.319  0.1052 -0.0982 -0.0031
  237POPC   C1B 3394   4.997   8.835   3.972 -0.3061  0.2625 -0.0443
  237POPC   C2B 3395   5.023   9.124   4.373  0.0155 -0.2217 -0.2105
  237POPC   C3B 3396   4.862   9.266   4.616  0.1336 -0.0478 -0.1227
  237POPC   C4B 3397   4.561   9.005   4.879 -0.1347  0.0634  0.1874
  238POPC   NC3 3398   7.840   7.592   5.429 -0.2396 -0.2469  0.0291
  238POPC   PO4 3399   8.279   7.391   5.318 -0.3110 -0.1545  0.1742
  238POPC   GL1 3400   8.198   7.505   5.829 -0.2230  0.1563  0.0241
  238POPC   GL2 3401   8.094   7.798   5.951 -0.0729 -0.1532 -0.1533
  238POPC   C1A 3402   8.254   7.398   6.262 -0.1658 -0.5048  0.0926
  238POPC   D2A 3403   8.081   7.466   6.675 -0.4500 -0.1869 -0.0171
  238POPC   C3A 3404   8.132   7.169   6.972 -0.1439  0.0307 -0.1516
  238POPC   C4A 3405   7.736   7.179   7.266  0.1001  0.1072 -0.0168
  238POPC   C1B 3406   7.917   7.912   6.348 -0.1637  0.0994 -0.0975
  238POPC   C2B 3407   8.112   7.934   6.738  0.1788 -0.3941 -0.0388
  238POPC   C3B 3408   8.433   8.082   7.010 -0.3109 -0.1009  0.1102
  238POPC   C4B 3409   8.575   8.338   7.425  0.3236 -0.3043 -0.1353
  239POPC   NC3 3410   8.281   8.228   5.266  0.0514 -0.3492 -0.3456
  239POPC   PO4 3411   8.228   7.870   5.429 -0.3192  0.0702  0.1721
  239POPC   GL1 3412   7.908   8.119   5.558  0.1880 -0.2942  0.1316
  239POPC   GL2 3413   7.625   8.047   5.533 -0.0759 -0.1087  0.0860
  239POPC   C1A 3414   7.986   8.301   6.069 -0.1867  0.2969  0.1375
  239POPC   D2A 3415   7.954   8.382   6.544  0.0145  0.2376  0.1127
  239POPC   C3A 3416   7.719   8.650   6.804  0.1009  0.1307  0.0500
  239POPC   C4A 3417   7.643   9.014   6.902 -0.0555 -0.3042  0.1515
  239POPC   C1B 3418   7.562   7.901   5.968  0.0852  0.2856 -0.1266
  239POPC   C2B 3419   7.445   7.796   6.404 -0.0643 -0.3221 -0.0771
  239POPC   C3B 3420   7.170   7.424   6.637 -0.2668  0.0988 -0.0319
  239POPC   C4B 3421   6.959   7.103   6.786  0.1266 -0.0064  0.1851
  240POPC   NC3 3422   6.073   2.653   4.917 -0.0251 -0.0765  0.3568
  240POPC   PO4 3423   6.096   2.992   4.805  0.1804 -0.1612  0.0511
  240POPC   GL1 3424   6.173   3.024   5.326  0.1785 -0.0116  0.0586
  240POPC   GL2 3425   5.766   3.108   5.546  0.0936 -0.2001 -0.3370
  240POPC   C1A 3426   6.295   2.998   5.729 -0.1517  0.0720 -0.1267
  240POPC   D2A 3427   6.081   3.017   6.092  0.1758  0.0043  0.1220
  240POPC   C3A 3428   5.678   2.927   6.347  0.1123  0.2759 -0.0038
  240POPC   C4A 3429   5.324   2.895   6.699  0.1781 -0.4512  0.1728
  240POPC   C1B 3430   5.546   3.210   5.940 -0.0471 -0.0107 -0.1332
  240POPC   C2B 3431   5.343   3.628   6.103  0.0315  0.0715 -0.0251
  240POPC   C3B 3432   5.535   3.885   6.259 -0.1298 -0.0320 -0.0611
  240POPC   C4B 3433   5.280   4.280   6.345  0.4235  0.1619  0.2830
  241POPC   NC3 3434   6.927  10.023   4.294  0.1163  0.0535  0.1735
  241POPC   PO4 3435   6.721  10.100   4.727  0.4769 -0.0190 -0.2143
  241POPC   GL1 3436   6.298   9.926   4.786 -0.2953  0.2723 -0.2578
  241POPC   GL2 3437   6.115  10.186   4.755 -0.0751  0.1528  0.1588
  241POPC   C1A 3438   6.092   9.567   5.090 -0.1310 -0.2968  0.2347
  241POPC   D2A 3439   6.101   9.231   5.494  0.3206 -0.1170  0.1435
  241POPC   C3A 3440   5.820   8.857   5.505 -0.1276 -0.2072 -0.2461
  241POPC   C4A 3441   5.791   8.603   5.131 -0.2673 -0.0948  0.1105
  241POPC   C1B 3442   5.874  10.135   5.246 -0.2130  0.0061  0.3287
  241POPC   C2B 3443   5.945   9.768   5.622  0.0920 -0.0579  0.1028
  241POPC   C3B 3444   5.804   9.579   6.012  0.1422  0.0616 -0.1378
  241POPC   C4B 3445   5.336   9.507   6.086 -0.0779  0.3378  0.1693
  242POPC   NC3 3446   9.393   0.286   5.420  0.1516  0.4602 -0.0657
  242POPC   PO4 3447   8.952   0.441   5.408  0.1304  0.1774 -0.2479
  242POPC   GL1 3448   9.107   0.387   5.846 -0.0029 -0.1639  0.3115
  242POPC   GL2 3449   9.488   0.563   5.839  0.2701 -0.0399  0.4812
  242POPC   C1A 3450   9.180   0.288   6.214 -0.0179 -0.1028 -0.3574
  242POPC   D2A 3451   9.292   0.555   6.542  0.2630  0.0308  0.0442
  242POPC   C3A 3452   9.020   0.725   6.773 -0.0733  0.1320 -0.0909
  242POPC   C4A 3453   8.937   1.094   7.145 -0.3439  0.1322 -0.1273
  242POPC   C1B 3454   9.475   0.756   6.178  0.1232  0.1252  0.4597
  242POPC   C2B 3455   9.387   1.015   6.451  0.2178 -0.0996  0.3356
  242POPC   C3B 3456   9.344   1.445   6.695 -0.0197 -0.1701 -0.0137
  242POPC   C4B 3457   9.162   1.581   7.001 -0.0095  0.0420  0.0079
  243POPC   NC3 3458   3.167   7.292   4.215 -0.0371 -0.4765  0.1470
  243POPC   PO4 3459   3.551   7.352   4.154  0.3857  0.3608 -0.1164
  243POPC   GL1 3460   3.477   7.656   4.413  0.2680  0.3037  0.1239
  243POPC   GL2 3461   3.270   7.522   4.661  0.1085 -0.0835 -0.0011
  243POPC   C1A 3462   2.937   7.903   4.407 -0.1026  0.1329 -0.2533
  243POPC   D2A 3463   2.991   7.906   4.849 -0.0331 -0.0867 -0.0807
  243POPC   C3A 3464   3.080   8.202   5.058  0.2752 -0.0392 -0.0615
  243POPC   C4A 3465   3.215   8.552   5.342  0.0707  0.5091 -0.0225
  243POPC   C1B 3466   3.449   7.539   4.999 -0.1533  0.0408 -0.2859
  243POPC   C2B 3467   3.321   7.682   5.392  0.0353  0.2573  0.2105
  243POPC   C3B 3468   3.514   7.892   5.673 -0.2380 -0.0092 -0.0414
  243POPC   C4B 3469   3.880   7.769   6.017 -0.1731  0.3407  0.4772
  244POPC   NC3 3470   0.712   8.267   4.289  0.0950 -0.0454  0.1522
  244POPC   PO4 3471   0.635   8.469   4.600  0.0994  0.3094  0.0537
  244POPC   GL1 3472   0.892   8.422   4.989 -0.1447 -0.1675 -0.0234
  244POPC   GL2 3473   1.149   8.277   4.973  0.1739  0.2526  0.1214
  244POPC   C1A 3474   0.856   8.732   5.349  0.1977  0.3356 -0.0196
  244POPC   D2A 3475   1.130   8.850   5.595  0.1047 -0.1088 -0.2625
  244POPC   C3A 3476   1.253   8.782   6.150 -0.3270 -0.0282  0.0905
  244POPC   C4A 3477   1.186   8.911   6.482 -0.0131 -0.0019 -0.0436
  244POPC   C1B 3478   1.334   8.350   5.360  0.0058 -0.0593 -0.2178
  244POPC   C2B 3479   1.194   8.345   5.782  0.4377 -0.3853  0.0146
  244POPC   C3B 3480   1.289   8.133   6.159  0.1922  0.0008 -0.0734
  244POPC   C4B 3481   1.588   8.418   6.304 -0.0684 -0.2158 -0.2116
  245POPC   NC3 3482   3.071   5.403   4.986  0.1761  0.0674  0.0344
  245POPC   PO4 3483   2.620   5.431   5.085  0.1328  0.1489  0.1222
  245POPC   GL1 3484   2.687   5.369   5.392  0.1963 -0.1173 -0.2628
  245POPC   GL2 3485   2.351   5.206   5.588 -0.2229  0.3503 -0.0615
  245POPC   C1A 3486   2.845   5.604   5.703  0.0992 -0.2257  0.4021
  245POPC   D2A 3487   2.868   5.651   6.157  0.0696 -0.2791 -0.0380
  245POPC   C3A 3488   3.175   5.767   6.378 -0.1166 -0.1572  0.1891
  245POPC   C4A 3489   3.364   5.689   6.822 -0.1559 -0.2535  0.0088
  245POPC   C1B 3490   2.480   5.346   5.917 -0.2626 -0.1097 -0.1737
  245POPC   C2B 3491   2.555   5.238   6.359 -0.0916 -0.1592  0.5315
  245POPC   C3B 3492   2.427   5.186   6.750  0.4606 -0.0867  0.0775
  245POPC   C4B 3493   2.188   5.134   7.109 -0.0932 -0.1323  0.1633
  246POPC   NC3 3494   7.130   4.049   4.951  0.0388  0.0644  0.1259
  246POPC   PO4 3495   7.280   4.409   5.179  0.1737  0.0199 -0.0153
  246POPC   GL1 3496   7.235   4.532   5.557 -0.1189  0.1063 -0.0432
  246POPC   GL2 3497   6.937   4.675   5.541 -0.2339 -0.2132  0.0502
  246POPC   C1A 3498   7.093   4.728   6.018  0.0425  0.0229  0.0983
  246POPC   D2A 3499   7.196   5.107   6.267 -0.0788 -0.2171  0.0159
  246POPC   C3A 3500   7.538   5.198   6.682  0.0705 -0.1849 -0.3145
  246POPC   C4A 3501   7.934   5.367   6.887  0.0171 -0.0605 -0.2053
  246POPC   C1B 3502   6.526   4.862   5.718  0.2448  0.2344 -0.0359
  246POPC   C2B 3503   6.396   5.269   5.875  0.0464  0.0729 -0.0728
  246POPC   C3B 3504   6.319   5.365   6.245 -0.1095 -0.1442 -0.2363
  246POPC   C4B 3505   6.212   5.313   6.700  0.1108  0.2890  0.2711
  247POPC   NC3 3506   6.720   4.340   5.126  0.0253 -0.0390 -0.0558
  247POPC   PO4 3507   6.733   3.864   5.106 -0.0333 -0.0197 -0.0524
  247POPC   GL1 3508   6.515   3.935   5.578  0.2398  0.1407 -0.3011
  247POPC   GL2 3509   6.764   3.724   5.721  0.0317  0.1625  0.0037
  247POPC   C1A 3510   6.312   3.706   5.917 -0.0662 -0.0226  0.0353
  247POPC   D2A 3511   6.384   3.602   6.285 -0.2429  0.0066  0.2525
  247POPC   C3A 3512   6.181   3.330   6.598  0.1782 -0.0313  0.0783
  247POPC   C4A 3513   6.162   2.943   6.612 -0.0546  0.2063 -0.0319
  247POPC   C1B 3514   7.158   3.681   5.894  0.1873 -0.3175 -0.2535
  247POPC   C2B 3515   7.388   3.681   6.288 -0.0576  0.4967 -0.3453
  247POPC   C3B 3516   7.345   3.450   6.659 -0.0444  0.0527  0.1733
  247POPC   C4B 3517   7.283   3.306   6.995 -0.0722 -0.1352 -0.2584
  248POPC   NC3 3518   1.948   6.798   4.147 -0.2828  0.1489 -0.3380
  248POPC   PO4 3519   2.013   7.020   4.595  0.0166 -0.0344 -0.1965
  248POPC   GL1 3520   2.156   6.847   5.027 -0.0258 -0.2288  0.1976
  248POPC   GL2 3521   1.894   6.919   5.370  0.1866 -0.1084  0.2004
  248POPC   C1A 3522   2.401   6.947   5.462 -0.1868 -0.1150 -0.1055
  248POPC   D2A 3523   2.289   7.326   5.791  0.0079 -0.0178 -0.1391
  248POPC   C3A 3524   2.130   7.177   6.245 -0.1271 -0.0575 -0.0384
  248POPC   C4A 3525   2.310   7.062   6.498  0.4049 -0.1794 -0.3549
  248POPC   C1B 3526   2.024   6.888   5.771 -0.0701  0.1727  0.1739
  248POPC   C2B 3527   2.164   6.683   6.172 -0.0299  0.0766  0.0473
  248POPC   C3B 3528   2.483   6.614   6.597 -0.1058 -0.1707  0.1979
  248POPC   C4B 3529   2.545   6.711   7.098 -0.3067 -0.1188  0.1313
  249POPC   NC3 3530   7.641   4.833   5.370 -0.0716  0.1619 -0.1112
  249POPC   PO4 3531   7.525   5.285   5.214  0.1454 -0.3222 -0.0626
  249POPC   GL1 3532   7.396   5.302   5.613  0.2309  0.0413 -0.0290
  249POPC   GL2 3533   7.272   5.027   5.678 -0.0784  0.1361  0.5257
  249POPC   C1A 3534   7.415   5.560   5.997 -0.1754  0.0553 -0.3198
  249POPC   D2A 3535   7.151   5.700   6.288 -0.0352  0.1334 -0.0447
  249POPC   C3A 3536   6.868   5.487   6.346  0.1364 -0.0641  0.0679
  249POPC   C4A 3537   7.025   5.324   6.710 -0.2559  0.1950 -0.4894
  249POPC   C1B 3538   7.600   4.967   5.959  0.3206  0.0802 -0.0178
  249POPC   C2B 3539   7.762   5.204   6.242 -0.1341 -0.1545  0.1843
  249POPC   C3B 3540   8.004   4.961   6.608 -0.6470 -0.1269 -0.1308
  249POPC   C4B 3541   8.328   4.769   6.916 -0.0131  0.0449  0.0186
  250POPC   NC3 3542   0.304   3.685   5.310 -0.0588 -0.1329 -0.0493
  250POPC   PO4 3543   0.000   3.479   5.213  0.2269 -0.2877 -0.0183
  250POPC   GL1 3544   0.035   3.422   5.633 -0.0744 -0.0820 -0.0020
  250POPC   GL2 3545  -0.291   3.289   5.715 -0.1295 -0.2634 -0.0292
  250POPC   C1A 3546   0.274   3.372   5.905  0.1617 -0.0508  0.2422
  250POPC   D2A 3547   0.438   3.461   6.322  0.1681  0.2918 -0.0314
  250POPC   C3A 3548   0.176   3.655   6.515  0.3054 -0.1185  0.3319
  250POPC   C4A 3549   0.100   4.081   6.705 -0.3544 -0.0335 -0.1045
  250POPC   C1B 3550  -0.180   3.482   6.138 -0.1978  0.0625  0.3078
  250POPC   C2B 3551  -0.286   3.254   6.491  0.0221  0.0359 -0.0104
  250POPC   C3B 3552  -0.388   2.802   6.817 -0.1144  0.1629 -0.3865
  250POPC   C4B 3553  -0.395   2.328   6.824 -0.2304 -0.0332  0.3005
  251POPC   NC3 3554   6.134   8.263   3.979  0.0865  0.2049  0.0956
  251POPC   PO4 3555   6.385   7.950   4.186  0.4390 -0.0119  0.0071
  251POPC   GL1 3556   6.272   7.663   4.597 -0.0117  0.2670 -0.0534
  251POPC   GL2 3557   5.835   7.672   4.617  0.0158  0.1341  0.1879
  251POPC   C1A 3558   6.186   7.764   5.053  0.0431 -0.1389 -0.1322
  251POPC   D2A 3559   6.229   7.795   5.514 -0.4029 -0.1035  0.2984
  251POPC   C3A 3560   6.585   7.872   5.660  0.1102 -0.1443  0.1582
  251POPC   C4A 3561   6.957   7.775   5.660 -0.0885 -0.1354 -0.0657
  251POPC   C1B 3562   5.468   7.863   4.826  0.2346 -0.3348 -0.3357
  251POPC   C2B 3563   5.000   8.063   4.812 -0.3339  0.2118  0.1871
  251POPC   C3B 3564   4.708   8.284   5.004  0.1130 -0.1142 -0.1723
  251POPC   C4B 3565   4.349   8.424   5.283  0.0572  0.0937 -0.1175
  252POPC   NC3 3566   5.166   0.717   3.951 -0.0139 -0.0112 -0.3237
  252POPC   PO4 3567   5.244   0.962   4.441  0.1822  0.0448  0.2324
  252POPC   GL1 3568   5.335   0.908   4.790 -0.1210 -0.1725 -0.2123
  252POPC   GL2 3569   5.383   0.685   4.817 -0.2555  0.0809  0.0039
  252POPC   C1A 3570   4.966   1.087   5.162 -0.0043  0.1481  0.1428
  252POPC   D2A 3571   4.776   1.024   5.546  0.1568  0.1300 -0.0732
  252POPC   C3A 3572   5.053   1.087   5.964 -0.2609 -0.2382 -0.0283
  252POPC   C4A 3573   5.097   1.271   6.357  0.3378  0.1015 -0.0238
  252POPC   C1B 3574   5.264   0.618   5.267  0.2717 -0.2839 -0.0084
  252POPC   C2B 3575   5.363   0.927   5.543 -0.1473  0.1624 -0.2193
  252POPC   C3B 3576   5.726   1.215   5.619  0.2089  0.3049  0.0239
  252POPC   C4B 3577   6.116   1.117   5.880 -0.4443 -0.1011 -0.1044
  253POPC   NC3 3578   6.242   6.028   4.979 -0.0132 -0.0652 -0.3919
  253POPC   PO4 3579   6.052   6.390   5.082 -0.1203 -0.1817 -0.4187
  253POPC   GL1 3580   5.929   6.483   5.564  0.0590 -0.0915  0.0088
  253POPC   GL2 3581   5.719   6.209   5.732  0.1657 -0.1823 -0.0716
  253POPC   C1A 3582   6.214   6.416   5.941  0.2785  0.2727  0.2043
  253POPC   D2A 3583   6.494   6.292   6.192 -0.0294  0.0229 -0.0476
  253POPC   C3A 3584   6.417   6.318   6.655 -0.0792 -0.0680 -0.1677
  253POPC   C4A 3585   6.771   6.402   6.968 -0.0023  0.0478 -0.1416
  253POPC   C1B 3586   5.784   6.290   6.169 -0.0288  0.1513 -0.3235
  253POPC   C2B 3587   5.699   6.637   6.456  0.2674  0.2262  0.1642
  253POPC   C3B 3588   5.890   6.816   6.841  0.0529  0.0252  0.0465
  253POPC   C4B 3589   5.917   6.875   7.311  0.3913 -0.0873  0.0470
  254POPC   NC3 3590   4.506   4.041   4.787  0.0343 -0.0509  0.0105
  254POPC   PO4 3591   4.291   3.886   5.153 -0.0849 -0.1544 -0.1002
  254POPC   GL1 3592   4.255   4.123   5.426  0.2190 -0.1075 -0.0096
  254POPC   GL2 3593   4.569   4.133   5.685 -0.1850  0.1562  0.1386
  254POPC   C1A 3594   4.072   3.930   5.893  0.1823  0.0975  0.0826
  254POPC   D2A 3595   4.149   3.711   6.294 -0.0858  0.1208 -0.0819
  254POPC   C3A 3596   4.471   3.838   6.540 -0.0854  0.2737 -0.2926
  254POPC   C4A 3597   4.799   3.725   6.803 -0.0569 -0.1637 -0.0856
  254POPC   C1B 3598   4.538   3.771   5.859  0.0571 -0.1363 -0.4609
  254POPC   C2B 3599   4.722   3.593   6.205  0.0548  0.3616  0.1903
  254POPC   C3B 3600   4.621   3.334   6.519 -0.0205  0.1152  0.0878
  254POPC   C4B 3601   4.797   3.223   6.979 -0.1417  0.1577 -0.0412
  255POPC   NC3 3602   6.832   0.415   4.902  0.1255 -0.2053  0.1639
  255POPC   PO4 3603   6.471   0.562   4.689 -0.1471 -0.0240  0.2320
  255POPC   GL1 3604   6.316   0.352   5.032  0.3076  0.0766 -0.1788
  255POPC   GL2 3605   6.443   0.109   5.197  0.1242  0.0505  0.1415
  255POPC   C1A 3606   6.116   0.381   5.398  0.1143  0.1021 -0.0265
  255POPC   D2A 3607   6.152   0.196   5.767  0.1116 -0.1336  0.0205
  255POPC   C3A 3608   5.849  -0.015   5.808  0.1784  0.1085 -0.1779
  255POPC   C4A 3609   5.651  -0.189   6.203  0.1655 -0.3695  0.2472
  255POPC   C1B 3610   6.302  -0.167   5.517 -0.1557  0.1038 -0.1160
  255POPC   C2B 3611   6.256  -0.276   5.955  0.4375  0.1693  0.0696
  255POPC   C3B 3612   6.093  -0.394   6.352  0.2421  0.0794 -0.0843
  255POPC   C4B 3613   5.840  -0.662   6.519 -0.2144 -0.0509  0.0728
  256POPC   NC3 3614   4.759   3.727   5.305 -0.1197  0.3320  0.0373
  256POPC   PO4 3615   5.232   3.568   5.126  0.1457  0.0304 -0.0230
  256POPC   GL1 3616   5.328   3.568   5.535 -0.0774 -0.1038  0.0294
  256POPC   GL2 3617   5.059   3.658   5.712 -0.2182  0.0256  0.2151
  256POPC   C1A 3618   5.714   3.604   5.762  0.0470 -0.2420  0.3116
  256POPC   D2A 3619   5.902   3.562   6.191 -0.0103  0.0646  0.1121
  256POPC   C3A 3620   5.627   3.367   6.459  0.0900 -0.4205 -0.1364
  256POPC   C4A 3621   5.725   3.102   6.805 -0.0555  0.0777  0.1995
  256POPC   C1B 3622   5.037   3.281   5.972 -0.3257 -0.0448 -0.2043
  256POPC   C2B 3623   5.127   3.367   6.502 -0.0268 -0.0827  0.2612
  256POPC   C3B 3624   5.310   3.693   6.702  0.0681 -0.1584  0.1235
  256POPC   C4B 3625   5.538   4.005   6.763  0.3036  0.0798  0.0578
  257POPC   NC3 3626   2.910   3.184   5.196 -0.1967 -0.1241  0.3637
  257POPC   PO4 3627   2.895   3.611   5.132  0.2996 -0.1827 -0.1970
  257POPC   GL1 3628   3.014   3.532   5.588 -0.1215 -0.2990  0.0239
  257POPC   GL2 3629   2.962   3.953   5.525 -0.1608  0.1061  0.2401
  257POPC   C1A 3630   3.060   3.609   5.975  0.2045  0.3081  0.1991
  257POPC   D2A 3631   2.966   3.343   6.346  0.0713  0.0858  0.0711
  257POPC   C3A 3632   2.910   3.188   6.699  0.1382 -0.3244 -0.0859
  257POPC   C4A 3633   3.137   3.583   6.875 -0.2090 -0.2013  0.2227
  257POPC   C1B 3634   2.703   3.964   5.886  0.1096  0.0805 -0.0544
  257POPC   C2B 3635   2.585   3.736   6.237 -0.0915  0.3920  0.1487
  257POPC   C3B 3636   2.723   3.830   6.791  0.2059 -0.1264 -0.1555
  257POPC   C4B 3637   2.586   3.615   7.142 -0.2781  0.2303 -0.2872
  258POPC   NC3 3638   1.962   9.168   3.720  0.1440  0.2254  0.1013
  258POPC   PO4 3639   2.324   9.168   3.944 -0.0481  0.0584 -0.0737
  258POPC   GL1 3640   2.610   9.007   4.224  0.1660 -0.1289  0.0802
  258POPC   GL2 3641   2.934   9.029   4.114 -0.1853 -0.2514 -0.2590
  258POPC   C1A 3642   2.647   8.787   4.597  0.1826 -0.4162  0.4518
  258POPC   D2A 3643   2.609   8.664   5.056 -0.1400  0.0842  0.1271
  258POPC   C3A 3644   2.706   8.337   5.289  0.1301 -0.1115 -0.2891
  258POPC   C4A 3645   3.048   8.150   5.580 -0.0082  0.1034 -0.0755
  258POPC   C1B 3646   2.941   9.425   4.127  0.2192  0.2442  0.0046
  258POPC   C2B 3647   3.008   9.713   4.477 -0.1202 -0.2676  0.1789
  258POPC   C3B 3648   3.149   9.928   4.923 -0.2135 -0.0780 -0.1332
  258POPC   C4B 3649   2.832  10.093   5.277 -0.0927 -0.1898 -0.0267
  259POPC   NC3 3650   5.356   6.485   4.585  0.0741 -0.2693  0.0275
  259POPC   PO4 3651   4.842   6.549   4.702  0.0632 -0.2321  0.0498
  259POPC   GL1 3652   4.731   6.547   5.132  0.1257 -0.3250 -0.0839
  259POPC   GL2 3653   5.025   6.449   5.379 -0.3215 -0.1427  0.0858
  259POPC   C1A 3654   4.515   6.443   5.522  0.1181  0.0842 -0.3042
  259POPC   D2A 3655   4.409   6.328   5.944 -0.0640 -0.2556  0.0165
  259POPC   C3A 3656   4.663   6.491   6.230  0.0712 -0.3100 -0.1506
  259POPC   C4A 3657   4.725   6.952   6.354 -0.4027 -0.3622  0.2167
  259POPC   C1B 3658   4.964   6.572   5.800 -0.3132 -0.0048  0.1331
  259POPC   C2B 3659   5.185   6.747   6.135  0.0412  0.2297 -0.1514
  259POPC   C3B 3660   5.499   7.086   6.222 -0.3412 -0.1802  0.0473
  259POPC   C4B 3661   5.842   7.150   6.472  0.1859  0.0158 -0.2754
  260POPC   NC3 3662   8.983   0.850   5.732  0.0940  0.0410  0.2323
  260POPC   PO4 3663   9.323   0.996   5.485  0.0182  0.0533  0.0126
  260POPC   GL1 3664   9.143   1.285   5.693 -0.3321 -0.0732 -0.1452
  260POPC   GL2 3665   9.164   1.680   5.747 -0.0722 -0.1326 -0.0639
  260POPC   C1A 3666   9.155   1.354   6.150 -0.0477 -0.1436 -0.0761
  260POPC   D2A 3667   8.897   1.188   6.578 -0.0699 -0.1507 -0.3062
  260POPC   C3A 3668   8.670   1.434   6.857  0.1000  0.0221 -0.1025
  260POPC   C4A 3669   8.422   1.322   7.156 -0.0685  0.0994  0.0064
  260POPC   C1B 3670   9.353   1.816   6.124 -0.2121  0.0354  0.3878
  260POPC   C2B 3671   9.443   1.996   6.568 -0.2726 -0.3257  0.2486
  260POPC   C3B 3672   9.520   1.886   6.994  0.1527 -0.4535  0.1310
  260POPC   C4B 3673   9.338   1.555   7.455 -0.0686 -0.2641  0.0180
  261POPC   NC3 3674   9.928   6.163   5.266  0.0668 -0.2256  0.3149
  261POPC   PO4 3675  10.351   6.350   5.320  0.2180  0.1261  0.0553
  261POPC   GL1 3676  10.213   6.190   5.708 -0.1643 -0.0630 -0.1395
  261POPC   GL2 3677   9.899   6.304   5.746  0.0996  0.4005  0.0347
  261POPC   C1A 3678  10.261   6.256   6.174 -0.0077 -0.1693  0.0594
  261POPC   D2A 3679  10.382   6.383   6.636  0.4359  0.0502  0.2910
  261POPC   C3A 3680  10.281   6.751   6.736 -0.1240  0.3710  0.4277
  261POPC   C4A 3681  10.198   7.074   6.869  0.0197 -0.1643 -0.0668
  261POPC   C1B 3682   9.885   5.969   6.049  0.1517  0.0391 -0.0710
  261POPC   C2B 3683   9.798   5.950   6.510  0.0140  0.1405 -0.0888
  261POPC   C3B 3684   9.725   5.998   6.926 -0.0815  0.1476  0.2231
  261POPC   C4B 3685   9.677   6.027   7.377  0.1366  0.1541  0.0217
  262POPC   NC3 3686   0.024   9.572   5.228 -0.0406 -0.0122  0.4886
  262POPC   PO4 3687  -0.288   9.860   5.088  0.1146  0.1066 -0.2525
  262POPC   GL1 3688  -0.437   9.601   5.514 -0.1202  0.2789  0.0382
  262POPC   GL2 3689  -0.770   9.694   5.654 -0.1741 -0.0970  0.0022
  262POPC   C1A 3690  -0.306   9.524   5.884 -0.2652 -0.3531  0.0351
  262POPC   D2A 3691  -0.095   9.415   6.269 -0.1161  0.0788 -0.1741
  262POPC   C3A 3692   0.338   9.645   6.252 -0.0905 -0.0426  0.0091
  262POPC   C4A 3693   0.691   9.799   6.538  0.1006  0.5036 -0.1141
  262POPC   C1B 3694  -0.849   9.483   6.039 -0.0136  0.0955 -0.0121
  262POPC   C2B 3695  -0.911   9.541   6.457 -0.1170  0.4134  0.0688
  262POPC   C3B 3696  -0.788   9.822   6.830 -0.3017 -0.3852 -0.1024
  262POPC   C4B 3697  -0.660  10.206   6.994  0.0388 -0.1736  0.0496
  263POPC   NC3 3698   1.737   1.697   4.621  0.4339 -0.1146 -0.3633
  263POPC   PO4 3699   2.171   1.732   4.713  0.0938  0.0373 -0.2265
  263POPC   GL1 3700   2.193   1.823   5.182 -0.0054 -0.1842 -0.0551
  263POPC   GL2 3701   2.225   2.163   5.171 -0.1939  0.1488 -0.1980
  263POPC   C1A 3702   2.312   1.669   5.586  0.0548 -0.0783 -0.1488
  263POPC   D2A 3703   2.552   1.703   5.947  0.0036  0.0066 -0.1358
  263POPC   C3A 3704   2.943   1.600   6.052  0.2126 -0.2687 -0.1023
  263POPC   C4A 3705   3.173   1.222   6.152 -0.1097 -0.0724  0.2589
  263POPC   C1B 3706   2.015   2.058   5.622 -0.1761  0.0999 -0.2686
  263POPC   C2B 3707   1.858   1.702   5.782  0.0798 -0.0813 -0.0656
  263POPC   C3B 3708   1.731   1.162   5.679 -0.0466  0.3289  0.2138
  263POPC   C4B 3709   1.898   0.758   5.772 -0.0353 -0.2737 -0.1117
  264POPC   NC3 3710   7.203   5.730   5.305 -0.0926 -0.1070 -0.1499
  264POPC   PO4 3711   7.310   6.080   5.272 -0.1250  0.1658 -0.0991
  264POPC   GL1 3712   6.987   6.051   5.761  0.1715 -0.0683  0.1358
  264POPC   GL2 3713   7.035   5.699   5.764 -0.3780 -0.0544 -0.1024
  264POPC   C1A 3714   7.008   6.155   6.186 -0.3831  0.1777  0.1387
  264POPC   D2A 3715   7.070   6.059   6.592 -0.1825  0.0169  0.1126
  264POPC   C3A 3716   7.470   5.786   6.650  0.0224  0.0943  0.1142
  264POPC   C4A 3717   7.810   5.645   6.457  0.0669 -0.3303  0.2145
  264POPC   C1B 3718   6.918   5.328   5.859 -0.0757  0.1647 -0.2955
  264POPC   C2B 3719   6.755   5.014   6.208  0.0421  0.0424  0.3045
  264POPC   C3B 3720   6.656   5.051   6.548  0.0075  0.0295 -0.3426
  264POPC   C4B 3721   6.773   4.950   6.960  0.2735  0.3740 -0.1017
  265POPC   NC3 3722   9.944   3.840   4.983 -0.0811 -0.1269  0.0975
  265POPC   PO4 3723  10.081   4.020   5.315 -0.4049 -0.0564 -0.3868
  265POPC   GL1 3724   9.772   3.905   5.559 -0.0734  0.0091 -0.2189
  265POPC   GL2 3725   9.656   4.201   5.603 -0.0740 -0.1108  0.3048
  265POPC   C1A 3726   9.676   3.716   5.843 -0.0642  0.2713 -0.0846
  265POPC   D2A 3727   9.596   3.640   6.275 -0.0967  0.2980 -0.2634
  265POPC   C3A 3728   9.765   3.702   6.685 -0.0417 -0.0138 -0.4266
  265POPC   C4A 3729   9.403   3.576   6.975  0.3305 -0.2903  0.0311
  265POPC   C1B 3730   9.579   4.167   6.047  0.1268  0.2883  0.0130
  265POPC   C2B 3731   9.194   4.022   6.279  0.0650  0.1450 -0.2001
  265POPC   C3B 3732   9.169   4.155   6.698 -0.0128 -0.2553  0.0710
  265POPC   C4B 3733   8.970   4.005   7.051  0.4759 -0.2275  0.0642
  266POPC   NC3 3734   4.519   2.867   5.133 -0.3749  0.0746 -0.1811
  266POPC   PO4 3735   4.940   2.727   5.254 -0.0351 -0.0861 -0.4995
  266POPC   GL1 3736   5.128   2.576   5.583 -0.0931 -0.0220 -0.1518
  266POPC   GL2 3737   4.997   2.520   5.790  0.0976 -0.1867  0.0301
  266POPC   C1A 3738   5.409   2.237   5.853 -0.1406  0.0790 -0.0112
  266POPC   D2A 3739   5.537   2.090   6.177 -0.3440  0.1431 -0.2589
  266POPC   C3A 3740   5.462   2.447   6.432 -0.1045  0.0221  0.1117
  266POPC   C4A 3741   5.711   2.570   6.687 -0.2510  0.0544  0.0863
  266POPC   C1B 3742   4.994   2.150   6.119 -0.0281 -0.2938 -0.4198
  266POPC   C2B 3743   5.186   1.989   6.520 -0.1754 -0.1488  0.0986
  266POPC   C3B 3744   5.504   2.012   6.798 -0.1082 -0.1432  0.3049
  266POPC   C4B 3745   5.642   2.113   7.227 -0.0232  0.1575 -0.0873
  267POPC   NC3 3746   2.247   5.879   4.948  0.1741 -0.1619 -0.0598
  267POPC   PO4 3747   1.904   5.994   5.211 -0.2594  0.2018 -0.0649
  267POPC   GL1 3748   2.228   6.012   5.433 -0.0729  0.0581 -0.2109
  267POPC   GL2 3749   2.390   5.808   5.477  0.1742  0.1948 -0.0097
  267POPC   C1A 3750   2.649   6.064   5.764 -0.0844 -0.2902  0.0312
  267POPC   D2A 3751   2.967   6.176   6.044  0.1191 -0.1372  0.4002
  267POPC   C3A 3752   2.942   6.578   6.266  0.0161 -0.2660 -0.0387
  267POPC   C4A 3753   2.816   6.938   6.518  0.3360  0.1498 -0.0791
  267POPC   C1B 3754   2.331   5.755   6.007  0.0190  0.1864 -0.1639
  267POPC   C2B 3755   2.397   5.712   6.416 -0.0506 -0.1872 -0.0443
  267POPC   C3B 3756   2.133   5.881   6.705 -0.0083 -0.4052  0.1034
  267POPC   C4B 3757   2.013   5.522   6.957  0.0984  0.1358 -0.0344
  268POPC   NC3 3758   6.056   4.364   4.863 -0.0037 -0.4796  0.5310
  268POPC   PO4 3759   6.143   4.004   5.075 -0.0350  0.0704  0.1535
  268POPC   GL1 3760   6.097   4.275   5.468  0.0629  0.0474 -0.2406
  268POPC   GL2 3761   5.975   4.085   5.730 -0.2102  0.2573  0.1223
  268POPC   C1A 3762   6.357   4.409   5.708 -0.1169  0.3933  0.1084
  268POPC   D2A 3763   6.452   4.597   6.148  0.4269  0.1649 -0.0088
  268POPC   C3A 3764   6.040   4.848   6.375 -0.2056 -0.3407  0.0678
  268POPC   C4A 3765   5.754   5.020   6.722 -0.0640  0.1839 -0.0999
  268POPC   C1B 3766   6.229   4.155   6.119  0.1288  0.0135 -0.1326
  268POPC   C2B 3767   6.435   4.108   6.628  0.0719 -0.1715 -0.0635
  268POPC   C3B 3768   6.419   3.748   6.805 -0.2439  0.3043 -0.0037
  268POPC   C4B 3769   6.406   3.340   7.093  0.2090 -0.1150 -0.1540
  269POPC   NC3 3770   5.663   9.241   3.507  0.0636 -0.3239 -0.0869
  269POPC   PO4 3771   5.371   9.477   3.553  0.1990 -0.0827  0.1068
  269POPC   GL1 3772   5.358   9.260   3.953 -0.0544  0.0341 -0.4681
  269POPC   GL2 3773   5.287   9.563   4.169 -0.1103 -0.0209  0.0740
  269POPC   C1A 3774   5.504   8.936   4.324 -0.0626 -0.0061 -0.2565
  269POPC   D2A 3775   5.513   8.917   4.748 -0.1224  0.1483  0.1418
  269POPC   C3A 3776   5.830   9.073   4.953  0.0314  0.0314 -0.2589
  269POPC   C4A 3777   6.242   9.002   4.990 -0.2786  0.1009 -0.0641
  269POPC   C1B 3778   5.272   9.711   4.561  0.0763 -0.0309  0.0891
  269POPC   C2B 3779   5.153   9.905   4.970  0.0122 -0.1010  0.3471
  269POPC   C3B 3780   5.390  10.000   5.285  0.1571  0.0065 -0.0599
  269POPC   C4B 3781   5.456   9.923   5.709  0.1675 -0.1357 -0.3150
  270POPC   NC3 3782   7.475   0.840   4.457 -0.1172 -0.0080 -0.3662
  270POPC   PO4 3783   7.450   0.977   4.769  0.1853  0.2441 -0.0581
  270POPC   GL1 3784   7.677   0.838   5.234  0.2231  0.2849  0.1951
  270POPC   GL2 3785   7.441   0.573   5.333 -0.0600 -0.0006  0.3913
  270POPC   C1A 3786   7.552   0.796   5.771  0.0639  0.2813 -0.0181
  270POPC   D2A 3787   7.565   0.747   6.169 -0.4398  0.2190 -0.0370
  270POPC   C3A 3788   7.260   0.803   6.441 -0.1142 -0.0630  0.1476
  270POPC   C4A 3789   6.929   1.036   6.436  0.1277  0.1560  0.1255
  270POPC   C1B 3790   7.115   0.755   5.625 -0.0861  0.6619 -0.0449
  270POPC   C2B 3791   6.743   0.822   5.839  0.2389  0.0397 -0.0311
  270POPC   C3B 3792   6.566   1.025   6.032 -0.0276 -0.1468  0.3709
  270POPC   C4B 3793   6.429   1.366   6.364  0.3942 -0.0566 -0.0831
  271POPC   NC3 3794   0.712   1.515   5.120 -0.1118  0.0739  0.0288
  271POPC   PO4 3795   0.836   1.191   4.984 -0.1523 -0.1093 -0.2389
  271POPC   GL1 3796   1.190   1.267   5.293  0.2829 -0.1032  0.0270
  271POPC   GL2 3797   1.290   0.942   5.232  0.2135  0.1118 -0.2217
  271POPC   C1A 3798   1.407   1.501   5.664  0.3115 -0.1879  0.1345
  271POPC   D2A 3799   1.497   1.427   6.103 -0.2531  0.2631  0.0002
  271POPC   C3A 3800   1.673   1.829   6.261 -0.0910 -0.0296  0.0685
  271POPC   C4A 3801   1.691   2.199   5.983 -0.0766  0.3660  0.2281
  271POPC   C1B 3802   1.284   0.981   5.657 -0.1484  0.2361 -0.0058
  271POPC   C2B 3803   1.381   0.952   6.063 -0.2489 -0.1734  0.3315
  271POPC   C3B 3804   1.539   0.961   6.445  0.2143 -0.0065 -0.1552
  271POPC   C4B 3805   1.659   1.362   6.579  0.1567  0.1380 -0.1441
  272POPC   NC3 3806   0.537   9.348   4.994 -0.1523 -0.0139  0.1492
  272POPC   PO4 3807   0.309   8.960   5.072 -0.3663 -0.1170  0.2865
  272POPC   GL1 3808   0.267   9.122   5.456  0.0785 -0.2372 -0.0676
  272POPC   GL2 3809   0.198   8.892   5.639 -0.0401  0.2946 -0.3730
  272POPC   C1A 3810   0.173   9.333   5.849 -0.4886 -0.0765 -0.2020
  272POPC   D2A 3811   0.328   9.098   6.095  0.1376 -0.0932  0.1138
  272POPC   C3A 3812   0.472   9.132   6.452  0.3489 -0.2578 -0.1431
  272POPC   C4A 3813   0.747   9.169   6.721  0.1906 -0.3924  0.1063
  272POPC   C1B 3814   0.257   8.613   6.076 -0.1107  0.1236  0.0565
  272POPC   C2B 3815   0.452   8.633   6.463  0.1613 -0.1951 -0.0135
  272POPC   C3B 3816   0.684   8.391   6.740  0.1169 -0.0598  0.4392
  272POPC   C4B 3817   0.968   8.006   6.576 -0.1344  0.1633 -0.2459
  273POPC   NC3 3818   0.242   8.464   4.875  0.3350 -0.0710 -0.1785
  273POPC   PO4 3819   0.193   8.030   5.005  0.3343  0.1671 -0.2681
  273POPC   GL1 3820   0.304   7.802   5.389  0.0308  0.0004  0.3450
  273POPC   GL2 3821   0.552   8.017   5.311  0.0663 -0.1135 -0.0352
  273POPC   C1A 3822   0.313   7.981   5.814 -0.0436 -0.1777  0.2727
  273POPC   D2A 3823   0.061   8.202   6.290 -0.0981 -0.0627  0.3476
  273POPC   C3A 3824   0.267   8.143   6.728  0.0632  0.3136  0.3397
  273POPC   C4A 3825   0.181   7.939   7.163  0.3219  0.0651 -0.0388
  273POPC   C1B 3826   0.731   8.238   5.592  0.2238 -0.0749  0.3149
  273POPC   C2B 3827   0.612   8.598   5.777  0.1382 -0.0547  0.1157
  273POPC   C3B 3828   0.745   8.879   5.863  0.2694 -0.1929  0.1148
  273POPC   C4B 3829   0.873   9.172   6.140 -0.0055  0.1336  0.0978
  274POPC   NC3 3830   9.683   9.329   4.743 -0.2855  0.2251  0.1178
  274POPC   PO4 3831   9.832   9.178   5.142 -0.1949 -0.3095 -0.0454
  274POPC   GL1 3832   9.885   9.102   5.552  0.0835  0.0633 -0.0099
  274POPC   GL2 3833   9.590   9.129   5.590  0.1375 -0.2432  0.2649
  274POPC   C1A 3834  10.071   8.893   5.974  0.1577  0.1913  0.0476
  274POPC   D2A 3835  10.146   8.895   6.415  0.1708 -0.1204 -0.2944
  274POPC   C3A 3836  10.174   8.495   6.694 -0.1567  0.3607  0.0599
  274POPC   C4A 3837  10.056   8.320   7.040  0.0532  0.2840  0.0170
  274POPC   C1B 3838   9.594   9.052   6.015 -0.1925  0.0804 -0.0249
  274POPC   C2B 3839   9.713   9.189   6.413  0.2440 -0.2231 -0.1935
  274POPC   C3B 3840   9.576   9.304   6.746 -0.0729 -0.3529 -0.0433
  274POPC   C4B 3841   9.420   9.165   7.120 -0.4100 -0.1132 -0.0403
  275POPC   NC3 3842   7.968   7.134   5.569  0.2227 -0.2352  0.1299
  275POPC   PO4 3843   8.268   6.673   5.400  0.1401  0.1225 -0.0546
  275POPC   GL1 3844   8.071   6.502   5.714  0.3097  0.3132 -0.0859
  275POPC   GL2 3845   7.929   6.247   5.756  0.2663  0.1659  0.2308
  275POPC   C1A 3846   7.781   6.492   6.166  0.1270 -0.2874  0.1727
  275POPC   D2A 3847   7.864   6.728   6.598  0.0026  0.1705  0.1037
  275POPC   C3A 3848   8.176   6.958   6.509 -0.0764  0.1137 -0.1829
  275POPC   C4A 3849   8.555   7.079   6.605  0.1903 -0.0648  0.0913
  275POPC   C1B 3850   7.607   6.016   5.854 -0.3740 -0.0428 -0.4009
  275POPC   C2B 3851   7.501   6.068   6.269 -0.1730  0.2760  0.0096
  275POPC   C3B 3852   7.398   6.489   6.470 -0.4165  0.4777 -0.2135
  275POPC   C4B 3853   7.359   6.888   6.373  0.0851 -0.4162  0.0217
  276POPC   NC3 3854   4.058   9.627   3.403 -0.1423 -0.2939  0.0919
  276POPC   PO4 3855   4.114   9.928   3.737 -0.0836 -0.0034  0.1332
  276POPC   GL1 3856   3.812  10.045   3.986  0.2040 -0.3176 -0.0711
  276POPC   GL2 3857   3.820  10.403   4.122  0.0815 -0.0223 -0.0375
  276POPC   C1A 3858   3.433   9.746   4.092 -0.3105  0.1057  0.1923
  276POPC   D2A 3859   3.386   9.450   4.256  0.2680  0.1076  0.1723
  276POPC   C3A 3860   3.339   9.415   4.749  0.0618 -0.0454  0.0475
  276POPC   C4A 3861   3.166   9.537   5.190 -0.4015 -0.1251 -0.0479
  276POPC   C1B 3862   3.904  10.378   4.508 -0.3447 -0.1750 -0.0898
  276POPC   C2B 3863   4.177  10.240   4.830  0.2122  0.0696  0.2962
  276POPC   C3B 3864   4.419   9.906   5.056 -0.1827  0.0764  0.0004
  276POPC   C4B 3865   4.787   9.945   5.404  0.0851  0.2366  0.0881
  277POPC   NC3 3866   1.198   3.791   4.974  0.1174  0.0494  0.1177
  277POPC   PO4 3867   0.995   3.663   5.307  0.0138 -0.0899  0.3319
  277POPC   GL1 3868   0.765   3.703   5.621 -0.1319  0.2143 -0.0051
  277POPC   GL2 3869   0.800   3.440   5.878  0.3454  0.4345 -0.0056
  277POPC   C1A 3870   0.513   3.889   6.040 -0.1055  0.1330 -0.1046
  277POPC   D2A 3871   0.158   3.837   6.040 -0.0453 -0.3684 -0.1269
  277POPC   C3A 3872  -0.205   4.020   6.316  0.0837  0.0882 -0.1506
  277POPC   C4A 3873  -0.578   4.159   6.505  0.2541 -0.0804 -0.2726
  277POPC   C1B 3874   0.910   3.632   6.254  0.0331  0.0448  0.0388
  277POPC   C2B 3875   0.735   3.722   6.608  0.3302  0.0033 -0.1296
  277POPC   C3B 3876   0.515   3.866   7.004 -0.1758  0.3543  0.1172
  277POPC   C4B 3877   0.246   3.928   7.335 -0.2412  0.0356 -0.1155
  278POPC   NC3 3878   1.428   0.386   4.587 -0.0468  0.0393  0.1820
  278POPC   PO4 3879   1.222   0.352   4.885 -0.0566  0.0763  0.1412
  278POPC   GL1 3880   1.181   0.455   5.333  0.3456  0.0386 -0.1241
  278POPC   GL2 3881   1.503   0.516   5.432  0.1518 -0.3684 -0.2865
  278POPC   C1A 3882   1.237  -0.025   5.565 -0.0330  0.0596 -0.1930
  278POPC   D2A 3883   1.353  -0.355   5.824  0.1896 -0.0016  0.1528
  278POPC   C3A 3884   1.509  -0.358   6.119 -0.3009  0.1789  0.2575
  278POPC   C4A 3885   1.680  -0.562   6.406  0.0542  0.1836 -0.0519
  278POPC   C1B 3886   1.366   0.522   5.823  0.1851  0.0530 -0.1995
  278POPC   C2B 3887   1.187   0.266   6.117  0.5922  0.0732 -0.0349
  278POPC   C3B 3888   1.201  -0.103   6.388 -0.1700  0.1614 -0.3369
  278POPC   C4B 3889   1.154  -0.334   6.775 -0.3165  0.0773 -0.1211
  279POPC   NC3 3890   9.706   5.351   5.144 -0.2873  0.1921 -0.1441
  279POPC   PO4 3891  10.127   5.377   5.284  0.1203  0.0615 -0.1886
  279POPC   GL1 3892  10.318   5.224   5.598 -0.1044 -0.0723 -0.0332
  279POPC   GL2 3893  10.047   5.012   5.749 -0.0595 -0.1622 -0.0237
  279POPC   C1A 3894  10.562   5.374   5.997  0.0330  0.2197 -0.0635
  279POPC   D2A 3895  10.946   5.388   6.292  0.1471 -0.1357  0.2239
  279POPC   C3A 3896  10.994   5.796   6.551 -0.1290  0.3233  0.0310
  279POPC   C4A 3897  11.038   6.131   6.363  0.0655  0.0656 -0.2213
  279POPC   C1B 3898  10.258   4.840   6.163  0.0300  0.3124  0.0422
  279POPC   C2B 3899  10.441   5.166   6.461 -0.0791  0.0551  0.0422
  279POPC   C3B 3900  10.680   5.410   6.801  0.0610  0.1454  0.1304
  279POPC   C4B 3901  10.895   5.696   7.027  0.1360 -0.1020  0.0448
  280POPC   NC3 3902   3.208   8.484   3.691  0.0038 -0.0139 -0.0766
  280POPC   PO4 3903   3.520   8.148   3.700 -0.1397 -0.2458 -0.1768
  280POPC   GL1 3904   3.524   8.370   4.086 -0.0472  0.1335  0.1252
  280POPC   GL2 3905   3.370   8.152   4.333 -0.2080  0.2007  0.0451
  280POPC   C1A 3906   3.328   8.709   4.326 -0.0413  0.1835 -0.0468
  280POPC   D2A 3907   3.110   8.969   4.542 -0.0466  0.0347  0.0266
  280POPC   C3A 3908   3.128   8.969   5.019  0.1451 -0.0641 -0.0325
  280POPC   C4A 3909   2.998   9.068   5.448 -0.2936 -0.1545 -0.2046
  280POPC   C1B 3910   3.459   8.041   4.771 -0.2389 -0.0717  0.4109
  280POPC   C2B 3911   3.570   8.148   5.227 -0.3550 -0.1731  0.2519
  280POPC   C3B 3912   3.745   8.420   5.482  0.1728 -0.2334 -0.2575
  280POPC   C4B 3913   4.136   8.536   5.723  0.0076  0.1845  0.0374
  281POPC   NC3 3914   5.378   2.671   5.110  0.1703  0.0841 -0.2493
  281POPC   PO4 3915   5.729   2.702   5.280 -0.1019  0.0504  0.1003
  281POPC   GL1 3916   5.610   2.671   5.727 -0.5159  0.0893 -0.3053
  281POPC   GL2 3917   5.900   2.558   5.927  0.1375 -0.3195 -0.0411
  281POPC   C1A 3918   5.321   2.811   6.039  0.2397  0.0059 -0.1730
  281POPC   D2A 3919   5.019   2.567   6.331  0.1266 -0.3278  0.2526
  281POPC   C3A 3920   5.036   2.455   6.696  0.5957 -0.0008  0.1730
  281POPC   C4A 3921   5.212   2.283   7.082  0.0898 -0.1220  0.0931
  281POPC   C1B 3922   5.942   2.487   6.242  0.0871 -0.0206 -0.1304
  281POPC   C2B 3923   5.967   2.140   6.554  0.1276 -0.1737 -0.1414
  281POPC   C3B 3924   6.064   2.173   6.986  0.4624 -0.2361 -0.1217
  281POPC   C4B 3925   6.365   2.259   7.136 -0.0271 -0.0325  0.1573
  282POPC   NC3 3926   8.148   5.981   5.313  0.1099  0.0866 -0.1310
  282POPC   PO4 3927   8.433   6.196   5.494 -0.0709 -0.3301  0.2548
  282POPC   GL1 3928   8.420   6.186   5.926 -0.0303  0.2013  0.2311
  282POPC   GL2 3929   8.798   6.255   6.124 -0.1327  0.2276  0.0243
  282POPC   C1A 3930   8.306   6.510   6.194  0.0226  0.1981  0.1002
  282POPC   D2A 3931   8.033   6.920   5.992 -0.1870 -0.0274 -0.1322
  282POPC   C3A 3932   7.542   6.849   5.895  0.3834 -0.2501 -0.0027
  282POPC   C4A 3933   7.221   6.545   5.987  0.0929  0.4244  0.1032
  282POPC   C1B 3934   8.504   6.117   6.446  0.2695 -0.1454 -0.1153
  282POPC   C2B 3935   8.288   5.843   6.587 -0.1164 -0.3037 -0.0271
  282POPC   C3B 3936   7.972   5.839   6.866 -0.0616 -0.1183  0.0444
  282POPC   C4B 3937   7.653   5.750   7.141  0.2490 -0.0012 -0.1759
  283POPC   NC3 3938   0.883   6.371   5.695 -0.0344  0.2177 -0.0805
  283POPC   PO4 3939   0.517   6.561   5.707 -0.0069  0.1984  0.3187
  283POPC   GL1 3940   0.383   6.968   5.802 -0.0730  0.0477 -0.0241
  283POPC   GL2 3941   0.502   7.220   5.676 -0.1358  0.1422  0.4546
  283POPC   C1A 3942   0.440   7.014   6.230  0.0347  0.2869 -0.2610
  283POPC   D2A 3943   0.474   7.264   6.555 -0.0526  0.1977  0.1751
  283POPC   C3A 3944   0.935   7.467   6.588  0.2067  0.0102  0.1084
  283POPC   C4A 3945   1.221   7.524   6.350  0.0515 -0.0225 -0.0525
  283POPC   C1B 3946   0.769   7.585   5.631  0.0007  0.1200 -0.0439
  283POPC   C2B 3947   0.841   7.859   5.979 -0.0963  0.2560 -0.3264
  283POPC   C3B 3948   0.601   8.103   6.163  0.0215 -0.2935  0.0210
  283POPC   C4B 3949   0.845   8.435   6.237 -0.2821  0.2358  0.0336
  284POPC   NC3 3950   0.824  10.081   4.598 -0.1815 -0.1769  0.2449
  284POPC   PO4 3951   1.166  10.045   4.648  0.1146 -0.0439 -0.0993
  284POPC   GL1 3952   1.420   9.908   4.968 -0.0368 -0.0045 -0.0003
  284POPC   GL2 3953   1.280   9.633   5.189  0.0176  0.4074 -0.4190
  284POPC   C1A 3954   1.595   9.978   5.281  0.2627  0.2427 -0.1656
  284POPC   D2A 3955   1.909   9.950   5.643  0.0607 -0.3725  0.1312
  284POPC   C3A 3956   1.746  10.229   5.961 -0.0464 -0.0668  0.0644
  284POPC   C4A 3957   1.717  10.331   6.433 -0.2358 -0.0482  0.0800
  284POPC   C1B 3958   0.972   9.789   5.400  0.0329 -0.3904 -0.3327
  284POPC   C2B 3959   0.780   9.899   5.934 -0.1988 -0.1063 -0.0321
  284POPC   C3B 3960   0.931   9.659   6.087  0.2983  0.1891 -0.2070
  284POPC   C4B 3961   1.201   9.471   6.477 -0.0831 -0.0220  0.1054
  285POPC   NC3 3962   5.197   5.638   5.227  0.0114 -0.0404 -0.4236
  285POPC   PO4 3963   5.567   5.551   5.273  0.1534 -0.2041 -0.1077
  285POPC   GL1 3964   5.423   5.802   5.721 -0.2561  0.0506 -0.0521
  285POPC   GL2 3965   5.593   5.772   5.976 -0.0909  0.1518 -0.1825
  285POPC   C1A 3966   5.343   6.248   5.982  0.1050 -0.0572 -0.0636
  285POPC   D2A 3967   5.169   6.278   6.457 -0.1253 -0.2439  0.0835
  285POPC   C3A 3968   4.928   5.939   6.784 -0.0509  0.0007  0.0845
  285POPC   C4A 3969   5.046   5.534   7.116 -0.1730  0.0034  0.1235
  285POPC   C1B 3970   5.487   5.810   6.340 -0.0764  0.2209 -0.1139
  285POPC   C2B 3971   5.440   5.989   6.852  0.2852  0.1220  0.0317
  285POPC   C3B 3972   5.100   5.986   7.237 -0.0164 -0.0232  0.2804
  285POPC   C4B 3973   4.754   6.175   7.384 -0.2873  0.0066 -0.0164
  286POPC   NC3 3974   4.360   8.077   4.038 -0.1511  0.0106  0.4593
  286POPC   PO4 3975   4.033   8.347   3.914 -0.0670 -0.1574  0.2325
  286POPC   GL1 3976   3.952   8.174   4.328  0.0418 -0.0381 -0.1189
  286POPC   GL2 3977   4.127   7.827   4.391  0.0499  0.1483  0.1006
  286POPC   C1A 3978   3.750   8.415   4.563  0.2714 -0.1281 -0.3856
  286POPC   D2A 3979   3.660   8.916   4.657  0.0846  0.1437  0.1124
  286POPC   C3A 3980   3.628   9.110   5.103  0.1226 -0.0954 -0.0094
  286POPC   C4A 3981   3.643   8.936   5.568  0.0019  0.1477  0.0736
  286POPC   C1B 3982   3.938   7.732   4.766 -0.0076  0.0155  0.0713
  286POPC   C2B 3983   3.886   7.716   5.226 -0.4809 -0.1609 -0.0730
  286POPC   C3B 3984   3.740   7.472   5.536 -0.3630 -0.1726 -0.1633
  286POPC   C4B 3985   3.879   7.212   5.477 -0.3724 -0.1285  0.0947
  287POPC   NC3 3986   0.317   4.458   5.222  0.1466 -0.4308  0.3063
  287POPC   PO4 3987   0.537   4.768   5.317 -0.0122  0.2736 -0.1374
  287POPC   GL1 3988   0.641   4.984   5.652 -0.0734  0.1491 -0.1087
  287POPC   GL2 3989   0.778   5.233   5.685 -0.2320 -0.0010  0.3913
  287POPC   C1A 3990   0.691   4.963   6.062 -0.1260 -0.1095 -0.0357
  287POPC   D2A 3991   0.745   4.630   6.402  0.3573  0.0876 -0.1501
  287POPC   C3A 3992   0.955   4.621   6.825  0.3165  0.0562 -0.2444
  287POPC   C4A 3993   0.736   4.714   7.180  0.2140 -0.2892 -0.4423
  287POPC   C1B 3994   1.090   5.237   5.984 -0.4034  0.5865 -0.0085
  287POPC   C2B 3995   1.239   5.360   6.454  0.2491  0.1073 -0.2858
  287POPC   C3B 3996   1.198   5.611   6.833  0.2002  0.1520  0.4620
  287POPC   C4B 3997   1.371   5.811   6.993  0.0956  0.0657 -0.1914
  288POPC   NC3 3998   8.728   0.045   5.247  0.0560  0.1251 -0.1510
  288POPC   PO4 3999   9.064  -0.096   5.477 -0.1690 -0.1119 -0.0417
  288POPC   GL1 4000   9.226  -0.117   5.820  0.1029 -0.2831  0.1196
  288POPC   GL2 4001   9.640  -0.087   5.745 -0.4146 -0.0670  0.2401
  288POPC   C1A 4002   9.161  -0.185   6.251  0.0621  0.3712  0.6409
  288POPC   D2A 4003   8.802  -0.375   6.502  0.3444 -0.1854 -0.0649
  288POPC   C3A 4004   8.771  -0.300   6.996  0.0904 -0.0300 -0.0656
  288POPC   C4A 4005   9.035   0.006   7.250  0.0271  0.1639  0.2035
  288POPC   C1B 4006   9.659  -0.363   6.193 -0.0421 -0.1009 -0.2114
  288POPC   C2B 4007   9.884  -0.463   6.593  0.2969  0.1050 -0.1437
  288POPC   C3B 4008  10.273  -0.494   6.685 -0.2367  0.1111 -0.4124
  288POPC   C4B 4009  10.579  -0.665   6.861  0.4124 -0.2274  0.2571
  289POPC   NC3 4010   3.872   2.539   4.801  0.3665 -0.3486 -0.0283
  289POPC   PO4 4011   3.969   3.121   4.857 -0.0442  0.0963  0.2164
  289POPC   GL1 4012   3.825   2.916   5.200  0.0589  0.2963  0.0999
  289POPC   GL2 4013   3.905   3.090   5.376  0.0019 -0.2407 -0.0603
  289POPC   C1A 4014   3.911   2.592   5.431  0.2531  0.0183 -0.0283
  289POPC   D2A 4015   3.891   2.412   5.858  0.1167 -0.0577  0.1506
  289POPC   C3A 4016   4.103   2.322   6.232  0.1561 -0.0989  0.0851
  289POPC   C4A 4017   4.130   2.193   6.729  0.4016  0.2052  0.2628
  289POPC   C1B 4018   4.106   2.883   5.834  0.2051  0.1943  0.0454
  289POPC   C2B 4019   4.261   2.776   6.221 -0.4890 -0.4894 -0.1055
  289POPC   C3B 4020   4.048   2.748   6.634 -0.0746  0.2829 -0.1744
  289POPC   C4B 4021   4.058   2.631   7.050 -0.0392 -0.0407 -0.0390
  290POPC   NC3 4022   2.173   0.284   4.114  0.0916  0.4748  0.0370
  290POPC   PO4 4023   1.852   0.574   4.328  0.0060  0.1981  0.1236
  290POPC   GL1 4024   1.879   0.305   4.707 -0.0148 -0.2747  0.0836
  290POPC   GL2 4025   1.793  -0.046   4.716  0.1960  0.2121 -0.1948
  290POPC   C1A 4026   1.805   0.238   5.151  0.0667 -0.0441  0.0862
  290POPC   D2A 4027   2.046   0.267   5.489  0.0841 -0.1751 -0.2290
  290POPC   C3A 4028   2.412   0.162   5.443 -0.2396 -0.1621 -0.1704
  290POPC   C4A 4029   2.897   0.313   5.525  0.1303 -0.0983 -0.1229
  290POPC   C1B 4030   2.063  -0.183   5.120  0.1001 -0.0894  0.0619
  290POPC   C2B 4031   2.370  -0.318   5.346 -0.2280  0.0149  0.1059
  290POPC   C3B 4032   2.599  -0.755   5.362  0.0966  0.1375 -0.2067
  290POPC   C4B 4033   2.503  -1.145   5.335 -0.4849 -0.0784  0.0730
  291POPC   NC3 4034   6.775   8.655   4.072  0.0996 -0.2606  0.1704
  291POPC   PO4 4035   6.885   8.470   4.441 -0.0971  0.0880 -0.1860
  291POPC   GL1 4036   6.755   8.269   4.874  0.2227 -0.4993 -0.0041
  291POPC   GL2 4037   6.415   8.144   4.805  0.1930 -0.1223 -0.0453
  291POPC   C1A 4038   6.664   8.307   5.364  0.4203  0.1048  0.0530
  291POPC   D2A 4039   6.639   8.427   5.753 -0.1364 -0.1601  0.0444
  291POPC   C3A 4040   6.207   8.386   6.049  0.3877 -0.0785  0.0422
  291POPC   C4A 4041   6.035   8.251   6.469  0.0072  0.1171  0.0135
  291POPC   C1B 4042   6.280   8.390   5.031 -0.2591 -0.0372 -0.3947
  291POPC   C2B 4043   6.134   8.447   5.506 -0.0385  0.0904  0.0866
  291POPC   C3B 4044   5.959   8.103   5.739 -0.0446  0.2061 -0.1683
  291POPC   C4B 4045   6.219   7.868   6.100 -0.0925 -0.0102  0.3050
  292POPC   NC3 4046   8.361   8.851   4.652 -0.0318 -0.2277  0.3546
  292POPC   PO4 4047   8.157   8.656   5.001 -0.0164 -0.1372 -0.2924
  292POPC   GL1 4048   7.957   8.996   5.277 -0.1471  0.0015 -0.0039
  292POPC   GL2 4049   7.667   8.913   5.084  0.0282  0.2344 -0.0972
  292POPC   C1A 4050   7.714   9.264   5.530 -0.2737 -0.1816  0.0505
  292POPC   D2A 4051   7.559   9.548   5.885  0.1070  0.2503  0.0173
  292POPC   C3A 4052   7.255   9.534   6.131 -0.1733 -0.1356 -0.0201
  292POPC   C4A 4053   7.077   9.700   6.480 -0.4122  0.0437 -0.0575
  292POPC   C1B 4054   7.556   8.667   5.468  0.1291 -0.0005  0.3040
  292POPC   C2B 4055   7.585   8.533   5.828  0.0886 -0.0273  0.2978
  292POPC   C3B 4056   7.458   8.392   6.256  0.1120 -0.6571  0.0637
  292POPC   C4B 4057   7.441   8.282   6.650  0.0809  0.2889 -0.0201
  293POPC   NC3 4058   4.610   2.056   4.947  0.3527  0.2433  0.2169
  293POPC   PO4 4059   4.294   2.366   4.975  0.1181  0.2081 -0.2799
  293POPC   GL1 4060   4.380   2.371   5.425  0.0550 -0.0634 -0.0043
  293POPC   GL2 4061   4.533   2.586   5.568  0.2574 -0.0081 -0.2049
  293POPC   C1A 4062   4.269   2.078   5.699 -0.0071 -0.3252  0.3031
  293POPC   D2A 4063   4.257   1.588   5.728  0.0691 -0.1932 -0.1277
  293POPC   C3A 4064   3.936   1.464   6.001  0.1038  0.1509 -0.0655
  293POPC   C4A 4065   3.613   1.467   6.201  0.0957 -0.0916  0.0451
  293POPC   C1B 4066   4.522   2.442   6.003 -0.1331  0.1350  0.2094
  293POPC   C2B 4067   4.626   2.346   6.465  0.2303 -0.0313 -0.2825
  293POPC   C3B 4068   4.598   1.983   6.568  0.0204 -0.0792  0.2504
  293POPC   C4B 4069   4.687   1.583   6.339 -0.0027 -0.1123  0.0669
  294POPC   NC3 4070   4.914   1.760   4.648  0.1760 -0.0628  0.0432
  294POPC   PO4 4071   5.144   2.096   4.800  0.0509 -0.1261  0.1110
  294POPC   GL1 4072   5.111   2.099   5.252 -0.2102  0.0378 -0.1509
  294POPC   GL2 4073   4.833   2.273   5.277  0.1937 -0.1016  0.1374
  294POPC   C1A 4074   5.225   1.833   5.584  0.1288 -0.1805  0.1671
  294POPC   D2A 4075   5.330   1.425   5.684 -0.0343 -0.1381  0.4048
  294POPC   C3A 4076   5.532   1.171   6.090  0.0348 -0.3826  0.0337
  294POPC   C4A 4077   5.934   1.237   6.366 -0.0083 -0.1997 -0.1318
  294POPC   C1B 4078   4.756   2.037   5.703  0.3458 -0.3169  0.1580
  294POPC   C2B 4079   4.534   1.947   6.056 -0.0924  0.1154 -0.5645
  294POPC   C3B 4080   4.134   1.827   6.301 -0.3023 -0.1200  0.0186
  294POPC   C4B 4081   3.778   1.889   6.478 -0.2646  0.0604  0.1270
  295POPC   NC3 4082   8.940   9.669   5.356  0.2218 -0.0091 -0.1378
  295POPC   PO4 4083   8.889   9.422   5.004 -0.1269 -0.3359  0.2552
  295POPC   GL1 4084   8.800   9.238   5.385 -0.2330  0.0419  0.1034
  295POPC   GL2 4085   9.078   9.219   5.633 -0.4086 -0.1396 -0.2434
  295POPC   C1A 4086   8.616   9.352   5.825  0.1940 -0.3772  0.1580
  295POPC   D2A 4087   8.795   9.398   6.224 -0.0962 -0.2555  0.1534
  295POPC   C3A 4088   8.730   9.050   6.581 -0.1799 -0.0584  0.3079
  295POPC   C4A 4089   8.919   8.646   6.521  0.3608 -0.0013 -0.1860
  295POPC   C1B 4090   8.961   9.027   5.980  0.2193 -0.3318 -0.1605
  295POPC   C2B 4091   9.183   9.080   6.409 -0.0061  0.2315 -0.2552
  295POPC   C3B 4092   9.099   8.863   6.868 -0.0833 -0.1644  0.0387
  295POPC   C4B 4093   8.686   8.646   6.982 -0.1592  0.1181  0.2591
  296POPC   NC3 4094   3.859   4.476   5.324  0.2421 -0.0886  0.0673
  296POPC   PO4 4095   3.750   4.093   5.368 -0.0625 -0.0470  0.1856
  296POPC   GL1 4096   3.745   4.291   5.753  0.1216  0.0125  0.2110
  296POPC   GL2 4097   4.090   4.396   5.853 -0.0039 -0.0268 -0.1181
  296POPC   C1A 4098   3.558   4.459   6.151 -0.1317 -0.0660 -0.1638
  296POPC   D2A 4099   3.286   4.583   6.429  0.2061  0.0257 -0.0850
  296POPC   C3A 4100   3.038   4.799   6.688  0.0481 -0.1355 -0.1303
  296POPC   C4A 4101   2.898   5.160   6.685 -0.0446 -0.1219  0.2100
  296POPC   C1B 4102   3.834   4.858   6.001 -0.0506  0.0684 -0.0986
  296POPC   C2B 4103   3.571   5.052   6.204 -0.0985 -0.1659 -0.2555
  296POPC   C3B 4104   3.386   5.214   6.604 -0.0866 -0.1982 -0.0068
  296POPC   C4B 4105   3.107   5.330   7.104 -0.1551 -0.1432  0.3556
  297POPC   NC3 4106   8.793   7.556   5.258  0.0585  0.3003 -0.0872
  297POPC   PO4 4107   8.869   7.987   5.374 -0.1824  0.1958  0.2794
  297POPC   GL1 4108   8.748   8.244   5.630  0.2224 -0.2921  0.0232
  297POPC   GL2 4109   8.485   8.176   5.833  0.0640  0.2341  0.1096
  297POPC   C1A 4110   8.805   8.479   6.039  0.2690  0.2965 -0.4165
  297POPC   D2A 4111   8.452   8.540   6.268 -0.0296 -0.2346  0.0466
  297POPC   C3A 4112   8.438   8.411   6.659  0.0800  0.0026 -0.1851
  297POPC   C4A 4113   8.198   8.491   7.111 -0.0338 -0.2999  0.0802
  297POPC   C1B 4114   8.446   8.049   6.260  0.0587  0.1448 -0.1020
  297POPC   C2B 4115   8.536   7.700   6.640 -0.1593  0.0341 -0.1255
  297POPC   C3B 4116   8.516   7.596   7.030 -0.1176  0.2293  0.0489
  297POPC   C4B 4117   8.594   7.852   7.417  0.2798 -0.1178  0.0802
  298POPC   NC3 4118   5.412   1.973   4.386 -0.2312 -0.1714 -0.0853
  298POPC   PO4 4119   5.783   1.883   4.693  0.0019  0.0233  0.0457
  298POPC   GL1 4120   5.562   1.734   5.006  0.0951  0.1037 -0.0421
  298POPC   GL2 4121   5.173   1.607   5.092 -0.0980  0.2305 -0.0896
  298POPC   C1A 4122   5.673   1.677   5.446 -0.0728 -0.1751  0.1451
  298POPC   D2A 4123   5.663   1.682   5.913 -0.3922 -0.0091  0.1507
  298POPC   C3A 4124   5.119   1.686   6.029  0.2586 -0.0057  0.2883
  298POPC   C4A 4125   4.766   1.477   5.717 -0.2694  0.2620  0.0019
  298POPC   C1B 4126   4.831   1.592   5.265 -0.2481 -0.0516  0.1154
  298POPC   C2B 4127   4.486   1.321   5.144  0.2788  0.2234  0.2234
  298POPC   C3B 4128   4.111   1.299   4.966  0.1661 -0.3998  0.1481
  298POPC   C4B 4129   3.759   1.166   4.773  0.0144 -0.1408 -0.1002
  299POPC   NC3 4130   0.821   0.681   5.018 -0.0885  0.2233  0.1765
  299POPC   PO4 4131   0.657   0.402   5.316  0.0800 -0.0187 -0.1498
  299POPC   GL1 4132   0.778   0.512   5.700 -0.1518  0.3319 -0.0041
  299POPC   GL2 4133   0.818   0.234   5.793  0.0542 -0.0035 -0.0799
  299POPC   C1A 4134   0.938   0.750   6.001  0.2181 -0.2633 -0.5210
  299POPC   D2A 4135   1.111   0.698   6.353 -0.2620  0.0245 -0.0663
  299POPC   C3A 4136   1.285   0.381   6.557  0.1992 -0.0408 -0.1169
  299POPC   C4A 4137   1.333   0.195   6.893  0.0706 -0.1541  0.0285
  299POPC   C1B 4138   0.717   0.372   6.266 -0.0637 -0.0338  0.3341
  299POPC   C2B 4139   0.702   0.654   6.622 -0.0880 -0.1086  0.1068
  299POPC   C3B 4140   0.485   0.846   6.976  0.6351 -0.0618 -0.0584
  299POPC   C4B 4141   0.279   1.212   7.173  0.2780  0.0134  0.4239
  300POPC   NC3 4142   6.124   6.290   4.589 -0.1692  0.0515 -0.0296
  300POPC   PO4 4143   5.868   6.642   4.703 -0.4121  0.2420  0.0678
  300POPC   GL1 4144   5.618   6.591   5.090  0.2644  0.0990 -0.2714
  300POPC   GL2 4145   5.397   6.609   5.087 -0.0488 -0.0799 -0.2485
  300POPC   C1A 4146   5.430   6.741   5.576  0.1581  0.0987 -0.2282
  300POPC   D2A 4147   5.642   6.689   5.927  0.0030  0.1671 -0.2590
  300POPC   C3A 4148   6.066   6.893   5.942  0.0962  0.2681 -0.1203
  300POPC   C4A 4149   6.444   6.961   5.821 -0.0704  0.0838 -0.2752
  300POPC   C1B 4150   5.168   7.002   5.220  0.1055  0.1164 -0.0706
  300POPC   C2B 4151   5.262   7.391   5.400  0.0124 -0.1260 -0.0378
  300POPC   C3B 4152   5.366   7.824   5.355  0.3478  0.1381 -0.0168
  300POPC   C4B 4153   5.010   8.174   5.366  0.2197  0.2178 -0.1984
  301POPC   NC3 4154   2.398   4.432   4.877 -0.2028 -0.0583 -0.0670
  301POPC   PO4 4155   2.184   4.023   5.073 -0.2809  0.1400 -0.0109
  301POPC   GL1 4156   2.269   4.030   5.445  0.0849 -0.1472 -0.3148
  301POPC   GL2 4157   2.472   3.813   5.413 -0.2359 -0.0551 -0.3148
  301POPC   C1A 4158   2.134   4.056   5.859 -0.0372 -0.1080 -0.0263
  301POPC   D2A 4159   1.857   4.017   6.133  0.0491  0.0841 -0.3413
  301POPC   C3A 4160   1.792   3.996   6.525  0.1209 -0.5059  0.1638
  301POPC   C4A 4161   1.568   3.760   6.859  0.3332 -0.1645 -0.1613
  301POPC   C1B 4162   2.317   3.582   5.781  0.3299 -0.0290 -0.3134
  301POPC   C2B 4163   2.056   3.592   6.200  0.1018  0.0185  0.1275
  301POPC   C3B 4164   2.187   3.670   6.550 -0.0704  0.0881  0.5318
  301POPC   C4B 4165   2.084   3.711   6.979  0.1051  0.1474 -0.2030
  302POPC   NC3 4166   7.645   4.736   4.900  0.0845 -0.2056 -0.1066
  302POPC   PO4 4167   8.045   4.577   5.111 -0.3258  0.0930 -0.1685
  302POPC   GL1 4168   8.050   4.472   5.495 -0.2143  0.0633 -0.1230
  302POPC   GL2 4169   7.759   4.371   5.690 -0.3004 -0.3246 -0.0441
  302POPC   C1A 4170   8.111   4.752   5.912  0.0123 -0.2316  0.2331
  302POPC   D2A 4171   8.346   4.820   6.285 -0.0799 -0.0318 -0.1554
  302POPC   C3A 4172   8.287   4.545   6.439  0.0387  0.2290  0.1794
  302POPC   C4A 4173   8.010   4.480   6.698 -0.0438  0.3013  0.3043
  302POPC   C1B 4174   7.782   4.485   6.147 -0.0301  0.0140  0.0151
  302POPC   C2B 4175   7.561   4.667   6.486  0.4338 -0.0643 -0.2774
  302POPC   C3B 4176   7.113   4.748   6.631 -0.2509 -0.0168  0.1241
  302POPC   C4B 4177   6.737   4.480   6.528  0.0583 -0.0596 -0.0257
  303POPC   NC3 4178   6.790   7.548   4.715 -0.0106  0.2691 -0.0555
  303POPC   PO4 4179   7.074   7.826   4.842 -0.1319 -0.2427  0.4625
  303POPC   GL1 4180   7.137   8.144   5.232 -0.0762 -0.5144 -0.0124
  303POPC   GL2 4181   7.130   8.480   5.210 -0.0892 -0.0568  0.0696
  303POPC   C1A 4182   7.204   8.262   5.688 -0.3057 -0.1099 -0.0445
  303POPC   D2A 4183   7.092   8.027   6.067 -0.0083  0.0721 -0.2835
  303POPC   C3A 4184   6.657   8.132   6.244  0.0622 -0.1797  0.0247
  303POPC   C4A 4185   6.515   8.357   6.540  0.0118 -0.0742 -0.0109
  303POPC   C1B 4186   6.986   8.728   5.509  0.0547 -0.0876 -0.0986
  303POPC   C2B 4187   6.465   8.906   5.710 -0.1609 -0.0588  0.2112
  303POPC   C3B 4188   6.122   8.931   5.949  0.1455  0.1722 -0.1676
  303POPC   C4B 4189   5.881   8.707   6.324 -0.1948 -0.1751  0.1285
  304POPC   NC3 4190   0.832   6.847   4.993  0.1403  0.2060  0.1249
  304POPC   PO4 4191   0.901   6.808   5.425 -0.0151 -0.1131  0.2208
  304POPC   GL1 4192   0.904   6.853   5.923  0.3868 -0.1470 -0.0594
  304POPC   GL2 4193   0.751   6.649   6.128 -0.2578  0.0770 -0.2241
  304POPC   C1A 4194   0.904   7.044   6.399 -0.1130  0.0443 -0.0186
  304POPC   D2A 4195   0.835   6.933   6.809  0.1308 -0.1926 -0.0144
  304POPC   C3A 4196   0.510   7.078   7.017 -0.0288 -0.3054  0.0105
  304POPC   C4A 4197   0.118   7.146   7.355  0.1817 -0.2079 -0.1772
  304POPC   C1B 4198   0.618   6.570   6.490  0.0070 -0.2546 -0.1969
  304POPC   C2B 4199   0.549   6.148   6.863  0.0484  0.0595 -0.1822
  304POPC   C3B 4200   0.387   6.071   7.319 -0.0453  0.0605 -0.2333
  304POPC   C4B 4201   0.757   6.085   7.633 -0.0248 -0.2354 -0.0072
  305POPC   NC3 4202   1.814   4.850   5.209 -0.0001  0.1332  0.0137
  305POPC   PO4 4203   1.412   5.064   5.061  0.0294 -0.1317 -0.0635
  305POPC   GL1 4204   1.455   4.835   5.627  0.2887 -0.0007  0.2926
  305POPC   GL2 4205   1.494   4.551   5.632 -0.1907  0.0656  0.1630
  305POPC   C1A 4206   1.456   4.920   6.067  0.1391 -0.0402 -0.1010
  305POPC   D2A 4207   1.666   5.049   6.389  0.1404 -0.2762  0.1460
  305POPC   C3A 4208   1.891   5.373   6.508 -0.1628  0.3354  0.1321
  305POPC   C4A 4209   1.659   5.685   6.554  0.0039 -0.3005 -0.2218
  305POPC   C1B 4210   1.678   4.405   5.918 -0.3009 -0.1565 -0.0844
  305POPC   C2B 4211   1.763   4.478   6.312  0.0083 -0.1639  0.1111
  305POPC   C3B 4212   1.571   4.356   6.769  0.2711 -0.1316 -0.0306
  305POPC   C4B 4213   1.356   4.510   7.153  0.2044 -0.1940 -0.1894
  306POPC   NC3 4214   8.445   5.390   5.146  0.0533 -0.5213 -0.0449
  306POPC   PO4 4215   8.585   5.725   5.154 -0.1011  0.0588 -0.4266
  306POPC   GL1 4216   8.501   5.728   5.637 -0.0247 -0.1963  0.0639
  306POPC   GL2 4217   8.857   5.718   5.883  0.1637 -0.0575 -0.0282
  306POPC   C1A 4218   8.457   5.726   6.094 -0.2604 -0.0317 -0.0496
  306POPC   D2A 4219   8.246   5.385   6.370  0.2114 -0.2440 -0.1003
  306POPC   C3A 4220   8.573   5.202   6.630 -0.3228 -0.3645 -0.1094
  306POPC   C4A 4221   9.031   5.281   6.734  0.3299  0.2397 -0.0250
  306POPC   C1B 4222   8.985   5.696   6.285 -0.1651  0.0907 -0.3366
  306POPC   C2B 4223   9.257   5.722   6.645 -0.0215  0.2882 -0.1494
  306POPC   C3B 4224   9.385   5.643   7.079 -0.0848  0.1618  0.1633
  306POPC   C4B 4225   9.823   5.585   7.217  0.0860  0.1097  0.3221
  307POPC   NC3 4226   2.230   3.136   4.719  0.0321 -0.2429  0.0265
  307POPC   PO4 4227   1.862   2.989   4.848 -0.1817 -0.1490 -0.2824
  307POPC   GL1 4228   2.070   3.008   5.277 -0.2476 -0.1623 -0.1651
  307POPC   GL2 4229   2.149   2.749   5.367  0.1658 -0.1927  0.0560
  307POPC   C1A 4230   2.135   3.141   5.639  0.3213 -0.1862 -0.0055
  307POPC   D2A 4231   2.001   3.098   6.032 -0.3242 -0.0074 -0.2351
  307POPC   C3A 4232   1.658   3.174   6.287 -0.0220  0.2096 -0.1232
  307POPC   C4A 4233   1.218   3.148   6.173 -0.0750 -0.1414 -0.0013
  307POPC   C1B 4234   2.213   2.662   5.852 -0.1925 -0.0443  0.0602
  307POPC   C2B 4235   2.287   2.747   6.280 -0.1660 -0.0969  0.2966
  307POPC   C3B 4236   2.082   2.931   6.582  0.2786  0.0008  0.2711
  307POPC   C4B 4237   1.849   3.319   6.785 -0.1805 -0.1415  0.1907
  308POPC   NC3 4238   2.518   6.410   4.214  0.1414  0.1666  0.1857
  308POPC   PO4 4239   2.476   6.117   4.557 -0.0651 -0.1362  0.2081
  308POPC   GL1 4240   2.684   6.146   4.970 -0.1958 -0.2983 -0.0181
  308POPC   GL2 4241   2.838   5.868   5.145 -0.2312  0.0537 -0.0696
  308POPC   C1A 4242   2.513   6.430   5.415 -0.1538 -0.1505 -0.1781
  308POPC   D2A 4243   2.573   6.537   5.896  0.4306 -0.1286 -0.0282
  308POPC   C3A 4244   2.662   6.959   5.972  0.0802 -0.2625 -0.1279
  308POPC   C4A 4245   2.631   7.336   6.191  0.1339  0.1351 -0.0353
  308POPC   C1B 4246   3.068   6.124   5.471 -0.1949 -0.1276  0.2627
  308POPC   C2B 4247   3.366   6.379   5.712  0.1676 -0.0544 -0.1011
  308POPC   C3B 4248   3.377   6.358   6.189  0.1490  0.3031  0.0448
  308POPC   C4B 4249   3.185   6.240   6.541  0.0197  0.2798  0.0799
  309POPC   NC3 4250   8.971   6.424   5.231  0.1877  0.2598  0.0274
  309POPC   PO4 4251   9.154   6.756   5.307 -0.2057  0.0332  0.0896
  309POPC   GL1 4252   9.020   6.996   5.705 -0.3618  0.2036  0.1159
  309POPC   GL2 4253   8.638   7.164   5.701 -0.1258  0.3812 -0.1317
  309POPC   C1A 4254   8.943   7.350   6.070  0.0240 -0.0372 -0.1696
  309POPC   D2A 4255   9.081   7.544   6.420  0.0307 -0.1078  0.0146
  309POPC   C3A 4256   9.465   7.452   6.463  0.0625  0.0035  0.1643
  309POPC   C4A 4257   9.837   7.437   6.568  0.0878  0.0511 -0.0699
  309POPC   C1B 4258   8.636   6.890   6.123  0.4142 -0.0252  0.1506
  309POPC   C2B 4259   8.716   6.647   6.472 -0.0169  0.0179  0.0690
  309POPC   C3B 4260   8.731   6.470   6.832  0.0608 -0.2087 -0.1734
  309POPC   C4B 4261   8.956   6.096   6.969  0.2151  0.0935 -0.5123
  310POPC   NC3 4262   8.054   2.516   4.862  0.1308  0.2642  0.0970
  310POPC   PO4 4263   8.405   2.752   5.167 -0.1772  0.2000 -0.1653
  310POPC   GL1 4264   8.271   2.995   5.501  0.1615  0.0978  0.1459
  310POPC   GL2 4265   7.982   3.201   5.474 -0.0444 -0.0910 -0.2057
  310POPC   C1A 4266   8.265   3.123   5.914  0.1098 -0.0933 -0.1603
  310POPC   D2A 4267   8.062   3.123   6.322 -0.2216  0.0169  0.0307
  310POPC   C3A 4268   8.277   2.868   6.741 -0.3905  0.1251  0.0517
  310POPC   C4A 4269   8.168   2.371   6.966  0.0105  0.2700 -0.2370
  310POPC   C1B 4270   7.760   3.010   5.836  0.4303  0.0644  0.0058
  310POPC   C2B 4271   7.425   2.712   6.040 -0.2592 -0.2502 -0.2885
  310POPC   C3B 4272   7.403   2.438   6.362 -0.1004 -0.0964 -0.1911
  310POPC   C4B 4273   7.062   2.115   6.539 -0.0699 -0.0204 -0.0268
  311POPC   NC3 4274   2.664   0.568   3.811 -0.1369 -0.2488  0.1003
  311POPC   PO4 4275   3.063   0.524   3.944 -0.0878  0.0814 -0.0261
  311POPC   GL1 4276   3.298   0.394   4.173 -0.1898 -0.0184  0.1722
  311POPC   GL2 4277   3.412   0.597   4.327 -0.3216 -0.1536 -0.1163
  311POPC   C1A 4278   3.364  -0.053   4.332 -0.0544 -0.2526 -0.1747
  311POPC   D2A 4279   3.525  -0.371   4.544 -0.0331 -0.1111 -0.1883
  311POPC   C3A 4280   3.911  -0.313   4.556 -0.0393 -0.1595  0.2726
  311POPC   C4A 4281   4.309  -0.189   4.380 -0.0179 -0.0208  0.1145
  311POPC   C1B 4282   3.716   0.680   4.692 -0.0076 -0.3267 -0.0290
  311POPC   C2B 4283   3.717   0.651   5.169 -0.2920  0.3871  0.1041
  311POPC   C3B 4284   3.689   1.032   5.376 -0.3597  0.0916  0.1922
  311POPC   C4B 4285   3.910   1.366   5.513 -0.0465  0.1373  0.0122
  312POPC   NC3 4286   4.442   6.435   4.409 -0.5014 -0.0178  0.0266
  312POPC   PO4 4287   3.964   6.544   4.470 -0.1413  0.0113 -0.0698
  312POPC   GL1 4288   4.273   6.784   4.799 -0.3490  0.0310 -0.1586
  312POPC   GL2 4289   4.632   7.028   4.888  0.0509 -0.2842 -0.1462
  312POPC   C1A 4290   4.156   6.803   5.289  0.1759  0.0570  0.0382
  312POPC   D2A 4291   4.032   6.862   5.729  0.0212 -0.0711 -0.1289
  312POPC   C3A 4292   4.233   7.239   5.874 -0.0831 -0.0869 -0.1391
  312POPC   C4A 4293   4.691   7.383   6.090  0.0172  0.0636  0.2211
  312POPC   C1B 4294   4.708   6.954   5.402 -0.1422 -0.1916 -0.0805
  312POPC   C2B 4295   4.576   6.896   5.861  0.3449  0.0653 -0.1040
  312POPC   C3B 4296   4.253   6.812   6.191 -0.0006 -0.2709  0.1859
  312POPC   C4B 4297   3.866   6.784   6.426 -0.0268  0.0058  0.4300
  313POPC   NC3 4298   2.630   6.673   4.770 -0.1045  0.0217  0.0156
  313POPC   PO4 4299   2.874   6.975   4.451  0.0522 -0.2517  0.0562
  313POPC   GL1 4300   3.006   7.143   4.891 -0.0304  0.0267 -0.1342
  313POPC   GL2 4301   2.975   6.881   5.122 -0.0341  0.1421  0.0481
  313POPC   C1A 4302   3.000   7.446   5.147 -0.1465 -0.3110  0.3576
  313POPC   D2A 4303   2.744   7.836   5.344 -0.1894  0.1652 -0.0097
  313POPC   C3A 4304   2.367   7.736   5.479 -0.2369  0.0498 -0.0150
  313POPC   C4A 4305   2.130   7.818   5.712  0.2633  0.1619  0.2393
  313POPC   C1B 4306   2.927   6.740   5.511 -0.1228 -0.0595 -0.3426
  313POPC   C2B 4307   3.129   6.875   5.883 -0.0733  0.1535 -0.3850
  313POPC   C3B 4308   3.172   7.238   6.248 -0.2007 -0.0864 -0.1850
  313POPC   C4B 4309   2.993   7.375   6.682 -0.0024  0.0367  0.3057
  314POPC   NC3 4310   2.138   5.475   5.216  0.1931 -0.2341  0.1447
  314POPC   PO4 4311   1.774   5.319   5.264 -0.1173 -0.1020 -0.0896
  314POPC   GL1 4312   1.827   5.156   5.673 -0.0550  0.0427  0.0547
  314POPC   GL2 4313   1.963   4.812   5.689 -0.0356 -0.2622 -0.2327
  314POPC   C1A 4314   2.031   5.182   6.014  0.0595 -0.1269 -0.1678
  314POPC   D2A 4315   2.159   4.967   6.311 -0.0655 -0.0930  0.3703
  314POPC   C3A 4316   2.067   4.824   6.614 -0.1787 -0.1299 -0.1170
  314POPC   C4A 4317   1.834   4.760   6.999 -0.0674  0.0292  0.2033
  314POPC   C1B 4318   2.131   4.591   5.998 -0.0705  0.2400 -0.0578
  314POPC   C2B 4319   2.254   4.321   6.286  0.1763 -0.1627 -0.2584
  314POPC   C3B 4320   2.306   4.245   6.743 -0.2489  0.1640  0.1190
  314POPC   C4B 4321   2.474   4.222   7.081  0.3175  0.4317  0.1351
  315POPC   NC3 4322   3.434   0.820   3.866  0.0920 -0.1025 -0.1592
  315POPC   PO4 4323   3.473   1.166   4.185  0.1048  0.1081 -0.1641
  315POPC   GL1 4324   3.327   1.009   4.593  0.1939  0.1043 -0.0033
  315POPC   GL2 4325   2.994   1.131   4.612  0.1861  0.2055 -0.1053
  315POPC   C1A 4326   3.325   0.882   5.002  0.0813  0.1260 -0.1131
  315POPC   D2A 4327   3.238   0.748   5.411 -0.0034 -0.1303  0.0276
  315POPC   C3A 4328   3.054   0.950   5.740 -0.0721 -0.2213  0.2360
  315POPC   C4A 4329   2.735   0.985   6.053 -0.0386 -0.2055 -0.0028
  315POPC   C1B 4330   2.721   0.904   4.882 -0.0642 -0.0694  0.2568
  315POPC   C2B 4331   2.686   0.882   5.351  0.0284 -0.0844 -0.4307
  315POPC   C3B 4332   2.420   0.640   5.659  0.0261  0.1986  0.1241
  315POPC   C4B 4333   2.255   0.854   6.138 -0.1023 -0.1982  0.2847
  316POPC   NC3 4334   4.295   1.464   4.019  0.1761  0.1128 -0.3288
  316POPC   PO4 4335   4.740   1.709   4.181  0.0691 -0.0498 -0.0338
  316POPC   GL1 4336   4.463   1.629   4.482 -0.0723 -0.1034 -0.1905
  316POPC   GL2 4337   4.410   1.211   4.520  0.1027  0.0884 -0.0980
  316POPC   C1A 4338   4.069   1.561   4.580 -0.0003  0.0467 -0.0112
  316POPC   D2A 4339   3.754   1.645   4.967  0.2748 -0.2761 -0.0274
  316POPC   C3A 4340   3.396   1.349   5.135 -0.0777 -0.1040  0.2993
  316POPC   C4A 4341   3.039   1.287   5.286  0.0658 -0.0958  0.2283
  316POPC   C1B 4342   4.587   0.952   4.832  0.1883 -0.1609  0.2464
  316POPC   C2B 4343   4.687   0.673   5.182 -0.1770 -0.0258  0.1116
  316POPC   C3B 4344   4.828   0.500   5.475  0.2224 -0.3392 -0.1216
  316POPC   C4B 4345   5.031   0.596   5.824  0.1633 -0.1430 -0.0412
  317POPC   NC3 4346   8.492   1.398   5.299  0.0092  0.3575 -0.1103
  317POPC   PO4 4347   8.659   1.261   5.672 -0.1472  0.0014  0.0997
  317POPC   GL1 4348   8.642   1.003   6.103 -0.0702 -0.1093  0.0216
  317POPC   GL2 4349   8.978   0.801   6.240 -0.2936 -0.0380  0.0141
  317POPC   C1A 4350   8.465   0.873   6.485  0.1552  0.0486 -0.0387
  317POPC   D2A 4351   8.587   0.857   6.880 -0.0328 -0.0641 -0.2527
  317POPC   C3A 4352   8.454   0.595   7.148  0.1110  0.2994 -0.4685
  317POPC   C4A 4353   8.605   0.245   7.432  0.1805  0.3309 -0.0881
  317POPC   C1B 4354   8.749   0.504   6.429 -0.2416 -0.1909  0.1855
  317POPC   C2B 4355   8.255   0.468   6.676 -0.2046  0.0775 -0.1420
  317POPC   C3B 4356   8.007   0.747   6.955  0.1748 -0.1023  0.0677
  317POPC   C4B 4357   7.855   0.648   7.295  0.2322 -0.1585  0.1166
  318POPC   NC3 4358   7.109   2.264   4.666 -0.2830  0.0859  0.1483
  318POPC   PO4 4359   7.167   2.401   5.120  0.0739 -0.2127 -0.3296
  318POPC   GL1 4360   6.715   2.436   5.347 -0.1319  0.0721 -0.1507
  318POPC   GL2 4361   6.487   2.158   5.378 -0.0822  0.4194  0.0505
  318POPC   C1A 4362   6.539   2.467   5.758 -0.1019  0.0402  0.0610
  318POPC   D2A 4363   6.437   2.695   6.218  0.1023  0.1285  0.2337
  318POPC   C3A 4364   6.372   2.482   6.680 -0.0676  0.2259  0.1533
  318POPC   C4A 4365   6.758   2.350   6.816  0.5184  0.0897  0.2057
  318POPC   C1B 4366   6.694   1.959   5.763 -0.0882 -0.2250  0.1511
  318POPC   C2B 4367   6.397   1.692   6.020  0.0308  0.0725  0.0556
  318POPC   C3B 4368   6.017   1.725   6.301  0.0089  0.0707 -0.1062
  318POPC   C4B 4369   5.551   1.660   6.375  0.2120 -0.0670 -0.1402
  319W        W 4370   4.540   2.077   3.825  0.2288 -0.0326 -0.1776
  320W        W 4371   4.839   0.602   2.203 -0.3340  0.1922 -0.0168
  321W        W 4372   9.635   9.774  10.917  0.1330 -0.4018 -0.0035
  322W        W 4373   2.143   9.846  12.280  0.1590 -0.2804 -0.0621
  323W        W 4374   7.189   0.942  10.449 -0.0593  0.1193  0.0165
  324W        W 4375   7.204   2.953  10.462  0.1708  0.0308 -0.2622
  325W        W 4376   3.970   4.184   3.445 -0.0680  0.2536  0.0930
  326W        W 4377   9.463   7.152  11.953 -0.0696 -0.0076 -0.0595
  327W        W 4378   4.924   2.079  13.225  0.0360  0.2888  0.1094
  328W        W 4379   6.598   9.765   9.534 -0.1554 -0.0093 -0.1187
  329W        W 4380  10.173   0.872   0.776  0.0732 -0.2227 -0.2944
  330W        W 4381   4.653   2.918  11.810 -0.0877 -0.2748 -0.1358
  331W        W 4382   7.043   9.777  12.590  0.0206  0.0818  0.2723
  332W        W 4383   8.892   3.625   2.766 -0.1104 -0.1339 -0.1484
  333W        W 4384   0.813   0.996   3.399 -0.0858 -0.1837  0.0083
  334W        W 4385  10.097   1.572   5.411  0.0579  0.1731 -0.1076
  335W        W 4386   6.972   5.055  12.184  0.1999  0.1055  0.3023
  336W        W 4387   1.254   5.601  13.034 -0.2098 -0.0931  0.2771
  337W        W 4388   4.162   2.083   2.981 -0.1609  0.1955 -0.1618
  338W        W 4389   5.921   9.112   1.875  0.0505 -0.1286 -0.1652
  339W        W 4390   0.531   5.257  11.992  0.0073 -0.2906 -0.2774
  340W        W 4391   7.923   3.511   2.477 -0.0046 -0.2620  0.3118
  341W        W 4392   7.770   8.285   2.446 -0.1918 -0.1033 -0.1748
  342W        W 4393   1.591   5.012   0.499  0.1000 -0.3356 -0.0614
  343W        W 4394   0.378   1.631  11.956  0.1097 -0.3801  0.0030
  344W        W 4395   8.735   3.068   2.028  0.0154 -0.0235 -0.1587
  345W        W 4396   0.884   2.287  13.380  0.1575 -0.2417 -0.0847
  346W        W 4397   1.532   2.519   9.574  0.0615 -0.0723 -0.0643
  347W        W 4398   3.873   9.136  10.540  0.1071 -0.0247  0.0868
  348W        W 4399   6.981   2.130   0.532 -0.5975 -0.3399 -0.2635
  349W        W 4400   1.024   5.472  11.656 -0.2456  0.0499 -0.0923
  350W        W 4401   9.712   4.536   4.383  0.1612  0.2620 -0.0381
  351W        W 4402   9.975   7.005   0.512 -0.3534 -0.1914 -0.0240
  352W        W 4403   6.665   2.899   3.886 -0.0042  0.0641 -0.3183
  353W        W 4404   2.836   1.626   1.681 -0.1449  0.0783  0.3429
  354W        W 4405   9.377   3.822  11.938 -0.0125  0.1761 -0.2468
  355W        W 4406   7.409   9.149   4.288  0.1513 -0.0712  0.0462
  356W        W 4407   5.700   5.902   4.025 -0.1111  0.0410 -0.0386
  357W        W 4408   9.055   0.005   2.093 -0.2036 -0.2282  0.0961
  358W        W 4409   6.492   4.663   9.202 -0.0916 -0.2794  0.0497
  359W        W 4410   2.307   3.646   4.726  0.2727 -0.0885  0.0172
  360W        W 4411   3.095   5.945   3.489  0.0429  0.0274 -0.2924
  361W        W 4412   5.280   5.547   9.399  0.2228 -0.4086 -0.1212
  362W        W 4413   3.294   8.180  10.562  0.1498  0.2338 -0.1120
  363W        W 4414   4.737   2.091   1.620 -0.0334 -0.3172  0.1108
  364W        W 4415   1.487   6.942   4.517 -0.0674 -0.1876  0.1167
  365W        W 4416   8.455   3.374  12.676  0.2226  0.0950 -0.4905
  366W        W 4417   7.933   7.537  10.199  0.5043 -0.0940 -0.1115
  367W        W 4418   0.055  10.122   3.330 -0.1225  0.0924 -0.0302
  368W        W 4419   5.511   4.192   1.355  0.3302 -0.2472 -0.1653
  369W        W 4420   1.632   1.991  10.407 -0.2511  0.0797  0.4422
  370W        W 4421   1.930   0.309  13.511  0.1019  0.2669  0.3547
  371W        W 4422   9.576   6.462  10.108 -0.1752 -0.0102 -0.1193
  372W        W 4423   2.922   3.429  10.722  0.3284  0.1140  0.2613
  373W        W 4424   9.724   7.540   0.085 -0.0728  0.0882 -0.1607
  374W        W 4425   9.072   6.364  12.448  0.3346 -0.1889  0.2579
  375W        W 4426   5.005   3.428  13.267  0.1137 -0.1734 -0.0341
  376W        W 4427   7.989   4.395  13.578 -0.1076 -0.5305 -0.3438
  377W        W 4428   9.748   1.812   0.367 -0.0066  0.0717  0.1090
  378W        W 4429   2.623   6.812   1.987  0.0459  0.0724 -0.0157
  379W        W 4430   1.482   0.871   1.718  0.1533 -0.0490  0.2306
  380W        W 4431   2.429   9.857   1.501 -0.0368  0.0964  0.1459
  381W        W 4432   9.705   2.638   9.779 -0.1228 -0.2747  0.0690
  382W        W 4433   4.660   5.818  11.750 -0.2568  0.0786 -0.1434
  383W        W 4434   1.145   9.520   2.777  0.1109 -0.1216 -0.3047
  384W        W 4435  10.164   3.667  12.563  0.1813  0.0630 -0.3388
  385W        W 4436   8.517   8.363  11.637 -0.0085  0.4183 -0.2397
  386W        W 4437   8.944   9.685   3.739  0.2073 -0.0169  0.0022
  387W        W 4438   6.587   2.186   9.482  0.0479 -0.0513 -0.0697
  388W        W 4439   4.946   3.158   3.522 -0.0236 -0.1015  0.0343
  389W        W 4440   9.035   7.955   9.367 -0.1649  0.0003  0.4588
  390W        W 4441   4.073   6.020  12.314  0.0566 -0.0101  0.3693
  391W        W 4442   5.748   1.078  13.045  0.1496 -0.2292  0.5748
  392W        W 4443   0.229   6.393   0.858  0.0335  0.0363 -0.3056
  393W        W 4444   0.964   2.909   9.725 -0.0600 -0.0038 -0.0707
  394W        W 4445   6.927   5.229   2.831  0.0187 -0.4282  0.1097
  395W        W 4446   2.023   5.827   3.881 -0.2928  0.3293  0.2367
  396W        W 4447   9.296   2.302   0.741 -0.0672 -0.2221  0.0760
  397W        W 4448   2.907   8.213   0.413 -0.0688  0.0464  0.3063
  398W        W 4449   7.480   0.085  13.187  0.0412 -0.0006 -0.1901
  399W        W 4450   1.063   4.863   4.702 -0.2366  0.1593 -0.1128
  400W        W 4451   5.666   9.667  10.115  0.1460  0.3360 -0.1821
  401W        W 4452   6.375   7.270  11.806 -0.1651 -0.1398  0.1281
  402W        W 4453   2.333   3.503   2.968  0.1121  0.1468  0.3124
  403W        W 4454   7.218   9.713   4.499 -0.3526 -0.0311 -0.0982
  404W        W 4455   3.148   1.788  11.861  0.2117  0.0777 -0.1590
  405W        W 4456   1.205   0.449   1.409  0.2361  0.1711 -0.0469
  406W        W 4457   6.539  10.153   3.897 -0.1386  0.2949  0.1753
  407W        W 4458   6.692   2.489   0.906  0.1319 -0.2269 -0.2280
  408W        W 4459   5.784   3.985   1.776  0.0107 -0.2630 -0.0590
  409W        W 4460   7.597   2.525  13.369 -0.2627  0.2401 -0.0411
  410W        W 4461   0.030   5.500   0.514 -0.0680 -0.2059  0.4234
  411W        W 4462   4.604   5.868   0.328 -0.0338  0.0844 -0.0657
  412W        W 4463   5.423   0.186  13.546  0.1612 -0.2516 -0.2006
  413W        W 4464   8.322   5.324  12.658  0.2157 -0.2241 -0.2403
  414W        W 4465   4.352   5.596   3.618 -0.0488  0.1435 -0.4064
  415W        W 4466   9.952   5.426  13.548 -0.1801 -0.0732  0.0834
  416W        W 4467   6.814   5.350  13.486  0.1640 -0.1834 -0.0323
  417W        W 4468   7.175   0.109  12.373 -0.1391 -0.2894 -0.0650
  418W        W 4469   6.299   9.940  11.751  0.3183 -0.0038 -0.2032
  419W        W 4470   5.829   0.860   0.945  0.1216  0.0962  0.1614
  420W        W 4471   6.893   8.234  12.678  0.0544  0.2522  0.0223
  421W        W 4472   0.207   3.091   0.372 -0.0955  0.0429  0.1996
  422W        W 4473   0.131   8.556   4.338  0.2310  0.0438  0.0529
  423W        W 4474   7.965   6.911   4.213 -0.0575 -0.2580 -0.0296
  424W        W 4475  10.052   4.522   5.449  0.1297  0.2771  0.0986
  425W        W 4476   6.530   2.642   1.636 -0.2721 -0.4401 -0.0413
  426W        W 4477   4.700   9.131  10.036 -0.0538 -0.1375 -0.0236
  427W        W 4478   3.677   4.505  10.177 -0.1893  0.4032 -0.0115
  428W        W 4479   8.292   9.192  13.763  0.0565 -0.2541  0.0113
  429W        W 4480   9.962   0.483   4.943 -0.0777  0.3689 -0.1165
  430W        W 4481   5.868   4.989   2.985 -0.0378 -0.1625 -0.0641
  431W        W 4482   1.441   7.163  10.894  0.2524 -0.1637  0.0002
  432W        W 4483   3.610   7.408  13.548 -0.2001  0.3857  0.1449
  433W        W 4484   8.415   7.539  13.493  0.1139 -0.0523 -0.0367
  434W        W 4485   1.917   1.299  12.925  0.0794 -0.3315  0.0993
  435W        W 4486   2.016   2.060   3.666  0.0147 -0.0840 -0.3023
  436W        W 4487   0.571   9.602  13.187 -0.1133 -0.2237 -0.2269
  437W        W 4488   7.223   1.613   2.557  0.0269 -0.1882 -0.1653
  438W        W 4489   5.474   5.410  12.950 -0.4061  0.3021 -0.0861
  439W        W 4490   8.099   7.347  13.046  0.0650  0.1387  0.1381
  440W        W 4491   2.397   8.879   3.543  0.0741 -0.1738  0.0883
  441W        W 4492   1.099   1.863   0.429 -0.0953 -0.2366 -0.0650
  442W        W 4493   8.167   0.394   3.710 -0.0014  0.0149  0.0769
  443W        W 4494   9.876   0.596   3.992 -0.2476  0.0584  0.3648
  444W        W 4495   0.979   0.800   2.891 -0.2474 -0.1435  0.0341
  445W        W 4496   9.763   8.843   2.888  0.2828 -0.0928 -0.1895
  446W        W 4497   2.794   9.466  12.371 -0.1964  0.1312  0.1271
  447W        W 4498   0.977   9.640   3.618  0.2713 -0.3867  0.0819
  448W        W 4499   0.436   2.726  11.106 -0.2400  0.2150 -0.3924
  449W        W 4500   9.812   3.597  11.797 -0.3132 -0.3414  0.2966
  450W        W 4501   2.895   5.338   1.814 -0.1905  0.3172  0.3004
  451W        W 4502   4.373   5.986   0.787 -0.0225 -0.3038  0.0853
  452W        W 4503   7.158   3.093  12.338 -0.0779 -0.2711 -0.2098
  453W        W 4504   7.533   6.512   2.860 -0.0200 -0.1909  0.2524
  454W        W 4505   8.100   2.904   2.009 -0.0950  0.1316 -0.1131
  455W        W 4506   9.597   0.666   5.221  0.2683  0.0011  0.1468
  456W        W 4507   4.617   3.238  12.196  0.1183  0.0064 -0.3330
  457W        W 4508   4.362   1.327  13.192  0.1985 -0.0197  0.1013
  458W        W 4509   0.555  10.168  12.492  0.0072 -0.3159  0.1969
  459W        W 4510   4.615   4.353  10.586 -0.0654  0.0430 -0.0872
  460W        W 4511   9.897   5.718   4.871 -0.0172 -0.0896 -0.1253
  461W        W 4512   1.981   9.854   1.689 -0.0288  0.3429  0.1472
  462W        W 4513   8.505   5.320   9.860 -0.0880  0.0015  0.2868
  463W        W 4514   9.659   0.532  10.440  0.1437 -0.2043  0.4398
  464W        W 4515   3.786   8.813  12.514 -0.1015  0.2517 -0.1246
  465W        W 4516   9.422   6.062  13.368  0.4371  0.2250 -0.2304
  466W        W 4517   4.737   7.588   0.001 -0.1315  0.0985 -0.0708
  467W        W 4518   1.882   0.291   2.811 -0.0947 -0.0597  0.1513
  468W        W 4519   3.458   3.841   3.732  0.2246 -0.1592  0.1081
  469W        W 4520   2.326   1.021  12.989 -0.1979  0.2679 -0.4081
  470W        W 4521   7.711   4.865   9.203 -0.1412  0.0348  0.4912
  471W        W 4522   7.794   3.988   2.246  0.3481  0.2877 -0.7245
  472W        W 4523   1.697   2.894  11.941 -0.3303 -0.0554  0.0368
  473W        W 4524   2.460   8.435   1.977 -0.0834 -0.0542  0.0761
  474W        W 4525   6.037   2.193   2.732  0.0601  0.1608 -0.1509
  475W        W 4526   2.262   0.738   1.452 -0.1877  0.1302  0.3963
  476W        W 4527   0.727   2.806   3.084 -0.2178  0.0033  0.6007
  477W        W 4528   5.179   5.690   3.236  0.1132  0.2803  0.1761
  478W        W 4529   6.138   0.546   2.846 -0.3724  0.0066  0.1523
  479W        W 4530   9.746   7.756  13.498  0.3037 -0.0478  0.0442
  480W        W 4531   2.004   6.659   1.948 -0.1517 -0.1070 -0.0779
  481W        W 4532   7.253   9.022   3.746 -0.3331  0.0277 -0.0533
  482W        W 4533   0.333   1.241  11.225 -0.0965  0.1664  0.1610
  483W        W 4534   6.251   5.333   1.255  0.2406 -0.0660 -0.0549
  484W        W 4535   1.823   6.111   3.463 -0.2804 -0.0335 -0.0018
  485W        W 4536   4.441   9.342   2.770  0.1450 -0.2666  0.0970
  486W        W 4537   1.585   6.484   3.232 -0.3867 -0.3397  0.1358
  487W        W 4538   5.365   9.451  13.328  0.1115  0.1261  0.0711
  488W        W 4539   5.348   6.923  13.461  0.1305  0.0108  0.1037
  489W        W 4540   1.848   8.945  12.218 -0.0812 -0.1959  0.3012
  490W        W 4541   9.038   2.738  13.847  0.1277 -0.1985  0.0000
  491W        W 4542   7.336   6.589   1.701  0.2539  0.0364  0.1288
  492W        W 4543   7.544   6.696  12.318 -0.1917 -0.1594  0.0689
  493W        W 4544   5.864   2.670   4.395  0.0208  0.0500  0.1243
  494W        W 4545   8.234   9.544   0.324  0.3931 -0.5031 -0.1848
  495W        W 4546   2.732   9.965   3.212 -0.4556 -0.1516 -0.0548
  496W        W 4547   0.184   5.867   2.398 -0.1394  0.1646  0.0867
  497W        W 4548   4.039   6.024   3.912  0.1867  0.0867  0.0310
  498W        W 4549   1.763   7.692   1.780 -0.1028  0.1401 -0.5377
  499W        W 4550   0.448   5.272   5.269  0.0678  0.0518  0.0855
  500W        W 4551   1.811   7.617   9.358 -0.1870  0.1487 -0.2759
  501W        W 4552   6.788   4.458  12.317 -0.1763  0.1399 -0.0575
  502W        W 4553   8.669   0.443   3.191 -0.3026 -0.1501 -0.3421
  503W        W 4554   5.986   4.706   9.627  0.1871  0.0648  0.0465
  504W        W 4555   1.934   0.636   1.797  0.0544  0.1108  0.2105
  505W        W 4556   2.222   4.937   9.303 -0.1944 -0.1169 -0.0024
  506W        W 4557   8.169   1.035  10.442 -0.1800  0.2318  0.0722
  507W        W 4558   2.014   3.639   9.314 -0.0098  0.3570  0.2229
  508W        W 4559   4.652   9.502   2.277 -0.0403  0.0250 -0.1185
  509W        W 4560   7.264   6.899   2.496  0.0954  0.3207  0.2003
  510W        W 4561   9.948   9.924  10.134  0.2757  0.0326  0.0301
  511W        W 4562   5.484   5.494   8.548  0.1077 -0.0436  0.0108
  512W        W 4563   4.153   5.486  10.360 -0.0961 -0.2592  0.1101
  513W        W 4564   2.103   9.770   9.085  0.3499 -0.3401  0.1489
  514W        W 4565   1.290   4.219  12.160 -0.0613  0.3199  0.1095
  515W        W 4566   8.380   9.890   4.891  0.1817  0.2253  0.2311
  516W        W 4567   9.546   0.868  13.603  0.0899 -0.1159 -0.1313
  517W        W 4568   2.455   2.328   1.913 -0.2107  0.1821 -0.2714
  518W        W 4569   2.834   4.218   9.053 -0.3325 -0.2973 -0.0068
  519W        W 4570   7.730   3.426   4.264  0.1474  0.1208 -0.2733
  520W        W 4571   1.666   5.795   9.278 -0.1187 -0.0160  0.3728
  521W        W 4572   0.183   7.236   5.221  0.2614 -0.0623  0.0828
  522W        W 4573   0.736   4.749   0.376  0.1351 -0.1486  0.0286
  523W        W 4574   8.186   6.592  11.587 -0.3594  0.1895  0.2599
  524W        W 4575   2.721   8.205   9.412 -0.0490 -0.0623 -0.1936
  525W        W 4576   2.566   3.324   3.355  0.1899 -0.2067 -0.3446
  526W        W 4577   4.568  10.078   0.290 -0.0099  0.0257  0.0171
  527W        W 4578   9.634   3.490  12.300 -0.1977  0.1483 -0.0553
  528W        W 4579   3.404   4.267   3.446  0.0057 -0.1311  0.1046
  529W        W 4580   8.071   7.261   9.817  0.0429 -0.0303  0.0416
  530W        W 4581   4.368   4.540   4.588 -0.0701 -0.0308 -0.2101
  531W        W 4582   8.012   9.758   3.936  0.0623 -0.0444 -0.1122
  532W        W 4583   6.948   1.219   2.214  0.4119 -0.1086 -0.0330
  533W        W 4584   6.853   2.245   3.079  0.0190  0.2381  0.2324
  534W        W 4585   2.781   0.111  10.702 -0.3146 -0.1604  0.3737
  535W        W 4586   8.789   4.190   3.111  0.2122 -0.0976 -0.3409
  536W        W 4587   8.650   7.263  10.166 -0.1400 -0.0841  0.0077
  537W        W 4588  10.184   3.382  12.165  0.0768 -0.0875  0.0559
  538W        W 4589   9.406   2.461   4.529  0.2927 -0.0252  0.3398
  539W        W 4590   6.967   6.935   1.433 -0.1261  0.0069 -0.0008
  540W        W 4591   3.167   6.168  11.827 -0.3158 -0.0557 -0.2316
  541W        W 4592   7.652   7.128  11.431  0.0881  0.5680  0.1456
  542W        W 4593   6.828   9.128  12.311 -0.0386  0.0960 -0.3750
  543W        W 4594   3.807   0.576   3.459 -0.0041  0.0678  0.3956
  544W        W 4595   8.789   4.086  10.286 -0.2546  0.3235  0.2567
  545W        W 4596   5.972   8.310   9.381  0.0671  0.2004  0.3106
  546W        W 4597   7.267   6.910   5.000  0.1189  0.0042 -0.1052
  547W        W 4598   1.683   2.643   4.496 -0.3314  0.0864 -0.1105
  548W        W 4599   8.251   2.376  11.076 -0.1682 -0.1216  0.2035
  549W        W 4600   1.115   6.215   4.417  0.0330  0.0050  0.0880
  550W        W 4601   6.963   7.395  12.303 -0.1388  0.3519  0.1095
  551W        W 4602   7.688   0.094   2.435 -0.1932  0.0289 -0.0043
  552W        W 4603   5.865   4.495   1.594  0.4931  0.0430 -0.2014
  553W        W 4604   3.610   7.712  11.592  0.1408 -0.1042  0.0355
  554W        W 4605   0.027   3.533   0.451  0.0095  0.0316 -0.2501
  555W        W 4606   9.437   2.003  11.587  0.3238 -0.1440 -0.0558
  556W        W 4607   6.303   5.213   5.400  0.1486 -0.1247  0.0954
  557W        W 4608   3.809   3.258   2.075  0.1797  0.2086 -0.1653
  558W        W 4609   5.239   7.402  10.826  0.1590  0.0119  0.1918
  559W        W 4610   6.383   7.249   0.263 -0.2091 -0.0094 -0.0755
  560W        W 4611   7.764   9.839   9.639  0.2643  0.0827  0.0612
  561W        W 4612   7.062   8.539  10.312  0.1724 -0.2042  0.0569
  562W        W 4613   5.043   6.395   1.383  0.1314  0.1984 -0.0065
  563W        W 4614   4.176   5.064  13.788 -0.2026 -0.3196 -0.0879
  564W        W 4615   0.444   1.517   0.295 -0.0794 -0.0126 -0.0221
  565W        W 4616   2.978   0.191   3.033 -0.0070 -0.1763 -0.0822
  566W        W 4617   5.546   9.504   0.682  0.0372  0.1527  0.1112
  567W        W 4618   6.106   4.027  13.244  0.0777 -0.0083 -0.2187
  568W        W 4619   5.849   8.107  10.749  0.0276 -0.0624  0.1621
  569W        W 4620   4.534   3.864  13.291  0.1459  0.1126 -0.0592
  570W        W 4621   8.998   3.682   5.134  0.0157  0.0578  0.0208
  571W        W 4622   0.710   7.714  11.691 -0.0073  0.0481  0.0941
  572W        W 4623   9.181   5.745   2.291 -0.1629 -0.1611 -0.1218
  573W        W 4624   4.147   2.207  13.071  0.0543  0.2720 -0.0240
  574W        W 4625   3.895   4.681   9.713  0.1306  0.1702  0.3179
  575W        W 4626   1.481   2.217   4.744  0.0041  0.1993 -0.1865
  576W        W 4627   1.265   1.447  13.452 -0.0877  0.0762  0.2917
  577W        W 4628   7.608   3.841  12.331 -0.1658  0.1251 -0.0740
  578W        W 4629   2.764   5.441   9.754 -0.1117 -0.0149  0.0603
  579W        W 4630   0.273   1.140   1.573  0.1977  0.1574  0.2907
  580W        W 4631   1.739   8.541   1.774  0.2683 -0.1873 -0.0836
  581W        W 4632   1.029   4.789   2.741 -0.0491 -0.2879  0.2705
  582W        W 4633   1.589   8.887  11.122 -0.0461  0.0394  0.1632
  583W        W 4634   3.835   5.561   3.798  0.2096 -0.0858 -0.0495
  584W        W 4635   9.477   8.548  13.738  0.1828  0.1819 -0.3392
  585W        W 4636   0.038   6.248  11.274 -0.1608  0.1025 -0.0242
  586W        W 4637   9.687   7.937  12.914  0.1692 -0.0686  0.0602
  587W        W 4638   7.433   7.358   9.453  0.0707 -0.0444  0.2174
  588W        W 4639   5.466   9.118   2.246  0.2914 -0.0212  0.3280
  589W        W 4640   9.845   6.164   3.308 -0.1267  0.4603  0.0889
  590W        W 4641   4.290   2.927   0.912  0.0362 -0.3687 -0.2863
  591W        W 4642   0.999   1.332   3.016  0.3204  0.3485  0.1444
  592W        W 4643   9.863   1.218   3.961  0.4597 -0.1530  0.0476
  593W        W 4644   7.881   5.510   0.576  0.1778  0.1370 -0.1805
  594W        W 4645   3.027   4.742   0.532 -0.0701  0.0281 -0.2086
  595W        W 4646   2.422   0.338   2.630 -0.0679 -0.1882  0.1670
  596W        W 4647   4.289   9.236  12.675 -0.0509  0.0296  0.0654
  597W        W 4648   5.887   7.525   0.199 -0.1897 -0.0620 -0.0698
  598W        W 4649   9.714   0.699   1.171 -0.1315 -0.1257 -0.0629
  599W        W 4650   8.785   5.679   0.526  0.0764 -0.2566 -0.4275
  600W        W 4651   2.508   5.307  13.117 -0.0620  0.2049  0.0175
  601W        W 4652   4.191   4.726  13.401 -0.3072  0.1686 -0.2343
  602W        W 4653   9.048   5.688  13.206  0.0151 -0.0479 -0.0559
  603W        W 4654   7.026   8.809  12.009  0.1405  0.1408  0.0349
  604W        W 4655   0.646   0.213   8.545  0.4109  0.2079 -0.2029
  605W        W 4656   1.688   5.175  10.922  0.0953  0.2181  0.1552
  606W        W 4657   6.087   7.159  13.753  0.0608  0.0648  0.1015
  607W        W 4658   7.251   2.432  13.766  0.0540 -0.0585 -0.0781
  608W        W 4659   5.109   5.205  12.567 -0.0497  0.1860  0.3017
  609W        W 4660   4.973   8.125  11.530  0.1048  0.1094 -0.0517
  610W        W 4661   4.043   9.734   9.816 -0.1467  0.0713  0.0554
  611W        W 4662   1.922   6.156   4.563  0.1061  0.0239 -0.3572
  612W        W 4663   2.641   8.696   1.507 -0.0178  0.1774  0.0373
  613W        W 4664   1.199   2.989   0.197 -0.3232 -0.3315  0.2841
  614W        W 4665   6.433   2.515  12.182  0.1790  0.1416  0.0905
  615W        W 4666   8.221   1.593   1.146  0.0795  0.1637 -0.0643
  616W        W 4667   7.173   0.868  11.272 -0.2735  0.1114  0.3049
  617W        W 4668   5.862   2.524  10.423 -0.0485  0.3002  0.1159
  618W        W 4669  10.188   4.903   9.205 -0.1120 -0.2540  0.0550
  619W        W 4670   2.400   3.026   1.075 -0.1264 -0.0971 -0.2644
  620W        W 4671   9.623   6.082  10.502  0.2978 -0.0547 -0.0078
  621W        W 4672   0.759   2.736   5.246  0.0871  0.2941  0.2743
  622W        W 4673   3.338   7.481   3.552  0.1614  0.0349  0.1367
  623W        W 4674   7.273   2.863  13.416  0.0026 -0.1236 -0.0948
  624W        W 4675   5.709   5.253   1.036  0.0268 -0.2526 -0.1371
  625W        W 4676   4.799   4.380   0.097 -0.0898  0.0059  0.2403
  626W        W 4677   3.740   9.026  12.071 -0.0901  0.0750 -0.0043
  627W        W 4678   1.226   0.502  13.646  0.1462  0.0611 -0.1276
  628W        W 4679   1.464   9.593  10.375 -0.2290  0.0700  0.2830
  629W        W 4680   0.599   9.295   0.831 -0.3773  0.0887  0.0090
  630W        W 4681   2.279   3.523  13.375  0.1825 -0.1726 -0.2191
  631W        W 4682   8.914   8.605   0.055  0.1435  0.2928 -0.2761
  632W        W 4683   7.515   7.319  13.662  0.1406 -0.2499  0.1899
  633W        W 4684   8.057   8.297  11.414 -0.1578  0.0020 -0.0340
  634W        W 4685   6.782   6.550  11.151 -0.0683 -0.0653  0.0526
  635W        W 4686   9.622   7.732   0.968 -0.2306  0.2685 -0.1627
  636W        W 4687   3.480   9.792   3.607 -0.1327  0.2234  0.1536
  637W        W 4688   4.461   0.887  10.024  0.0879 -0.0747  0.2197
  638W        W 4689   0.811   7.594  12.142  0.2077  0.1416  0.1165
  639W        W 4690   9.270   4.241   0.994 -0.1684  0.1124 -0.0286
  640W        W 4691   5.983   2.167   5.084 -0.0232 -0.1234 -0.0126
  641W        W 4692   9.120   3.812   1.819  0.0937  0.0688 -0.0814
  642W        W 4693   1.021   1.185  12.018  0.0748 -0.2130  0.2214
  643W        W 4694   5.002   4.576   9.429 -0.5449  0.2954  0.2546
  644W        W 4695   9.778   3.134   9.901 -0.0679 -0.1370  0.0453
  645W        W 4696   9.923   8.307  11.997 -0.3544  0.0848  0.1054
  646W        W 4697   1.407   1.359   0.227  0.0414 -0.0216  0.0343
  647W        W 4698   3.019   9.513   9.969  0.0163 -0.1351 -0.2022
  648W        W 4699   0.738   1.487  11.691 -0.1384 -0.0865 -0.0584
  649W        W 4700   7.369   3.271   3.877  0.0733  0.2327 -0.3300
  650W        W 4701   5.511   7.423  13.657  0.1462  0.4842 -0.1719
  651W        W 4702   6.179  10.135   9.687  0.2418 -0.2822  0.0184
  652W        W 4703   4.613  10.150   3.969  0.1173 -0.3088 -0.0919
  653W        W 4704   9.032   1.576  11.553  0.0657  0.5342 -0.0191
  654W        W 4705   1.379   9.677   3.255 -0.2300 -0.1727 -0.0101
  655W        W 4706   8.561   0.926   2.922 -0.0451 -0.0077 -0.2425
  656W        W 4707   7.954   6.471   9.542 -0.0400 -0.0823 -0.1445
  657W        W 4708   8.629   6.781  10.404 -0.0238 -0.1049 -0.0654
  658W        W 4709   3.639   2.611  12.671  0.3096 -0.4840  0.4073
  659W        W 4710   2.000   4.532  13.536  0.0645 -0.2670 -0.1104
  660W        W 4711   2.472   3.635  12.278 -0.3667  0.0052 -0.1310
  661W        W 4712   9.920   7.325  12.121  0.2470  0.0015 -0.0787
  662W        W 4713   4.307   7.407  13.704 -0.1191  0.1511 -0.0542
  663W        W 4714   9.108   4.695  10.907 -0.1182  0.1585  0.1241
  664W        W 4715   8.552   7.713   9.450 -0.0191 -0.0973  0.2092
  665W        W 4716   8.775   5.541  11.513 -0.1100  0.1311 -0.0620
  666W        W 4717   2.403   9.399   3.472 -0.2193  0.0028 -0.1743
  667W        W 4718   6.689   9.603  11.507  0.1175 -0.1100  0.0180
  668W        W 4719   0.665   7.354   3.463 -0.2439 -0.2168  0.1154
  669W        W 4720   7.893   6.413  12.073 -0.0370  0.3069  0.1542
  670W        W 4721   6.059  10.037   3.985  0.0771 -0.3996  0.1031
  671W        W 4722  10.137   4.583  10.431  0.1155 -0.1696  0.1465
  672W        W 4723   0.504   9.637   9.583  0.0331 -0.0307  0.4122
  673W        W 4724   6.709  10.036  13.398  0.2758  0.1017 -0.2431
  674W        W 4725   9.744   0.656   2.232 -0.0219  0.0967 -0.1293
  675W        W 4726   8.540   5.987  11.605 -0.2027  0.0577  0.1161
  676W        W 4727   0.153   3.588   4.743 -0.3412 -0.0212 -0.0690
  677W        W 4728   1.781   4.842   0.005 -0.1707  0.1994  0.1722
  678W        W 4729   7.036   7.315   5.243  0.0763 -0.0268  0.2727
  679W        W 4730   9.179   0.859   1.035  0.1449  0.1546 -0.0571
  680W        W 4731   8.184   4.650   3.098  0.2595  0.1899  0.3215
  681W        W 4732  10.154   0.135   2.105  0.1528  0.0885 -0.3565
  682W        W 4733   6.566   4.047  13.030  0.0049 -0.3620  0.0089
  683W        W 4734   1.486   0.990   0.547 -0.0005  0.2488 -0.2323
  684W        W 4735   6.351   5.060   2.156  0.0995 -0.0801 -0.1839
  685W        W 4736   9.395   9.928   1.033  0.1060  0.2224 -0.0034
  686W        W 4737   6.473   8.204   0.470 -0.1112  0.1924  0.2240
  687W        W 4738   4.360   3.976   0.726 -0.0493  0.0943 -0.1447
  688W        W 4739   6.387   8.429   4.391 -0.0351  0.1723  0.0695
  689W        W 4740   4.310   8.124   3.147  0.0893 -0.3817  0.2655
  690W        W 4741   7.142   4.178   3.401 -0.1886 -0.2595  0.1966
  691W        W 4742   0.062   2.225   4.641 -0.0752 -0.4287 -0.1315
  692W        W 4743   2.193   1.838  11.091  0.2416 -0.0485  0.2988
  693W        W 4744   4.593   5.587  13.207  0.1502 -0.0403  0.1396
  694W        W 4745   8.377   3.260  10.040 -0.3561 -0.0020  0.0269
  695W        W 4746   3.395   2.351   1.999  0.0287 -0.2604  0.2004
  696W        W 4747   2.771   4.328   3.295  0.4244  0.1243 -0.1228
  697W        W 4748   0.900   5.204   4.329 -0.2027  0.0194 -0.0774
  698W        W 4749   1.845   5.063   9.607 -0.3749 -0.1323 -0.1843
  699W        W 4750   5.334   1.782  13.376  0.1177 -0.1133  0.3523
  700W        W 4751   9.324   3.565   1.372  0.1174 -0.0512  0.3653
  701W        W 4752   0.737   5.154   1.860 -0.0544  0.2278 -0.3582
  702W        W 4753   8.840   9.794   2.361  0.1134 -0.2287 -0.0571
  703W        W 4754   6.738   4.809  10.423  0.2760  0.2244  0.0856
  704W        W 4755   5.537   4.931   4.349  0.0093 -0.2816  0.1883
  705W        W 4756   9.553   5.929   1.226 -0.2561  0.0754  0.0585
  706W        W 4757   9.963   3.624   2.838  0.0351 -0.1216  0.0889
  707W        W 4758   3.466   6.471   3.725 -0.1546 -0.0785 -0.1300
  708W        W 4759   5.545   5.688   0.788  0.1796 -0.1560  0.0445
  709W        W 4760   9.860   1.636   3.113 -0.0773 -0.2590 -0.2498
  710W        W 4761   4.740   4.067   2.035  0.1018 -0.0135 -0.1003
  711W        W 4762   4.368   7.356   4.508 -0.2265  0.0686  0.0068
  712W        W 4763   2.685   2.428   4.318  0.3608  0.2829 -0.1576
  713W        W 4764   8.962   0.854   3.351  0.0356  0.1500 -0.1978
  714W        W 4765   9.119   2.869   8.856  0.3345  0.0940  0.0025
  715W        W 4766   7.806   8.039  13.228  0.1677  0.1463 -0.0186
  716W        W 4767   1.291   6.370  11.639  0.1857  0.1757  0.0276
  717W        W 4768   8.617   5.894   2.326  0.1172 -0.0938 -0.2679
  718W        W 4769   8.775   5.922  10.493  0.2203  0.5494  0.1150
  719W        W 4770   7.125   0.186  10.002  0.0931  0.5570  0.2354
  720W        W 4771   2.426   1.163  11.569  0.1834  0.1064  0.1717
  721W        W 4772   5.197   4.289   2.386 -0.1584  0.0191  0.1141
  722W        W 4773   1.981   2.665   9.807 -0.1987 -0.1206 -0.0747
  723W        W 4774   9.330   3.373  12.810  0.1863  0.0649  0.3074
  724W        W 4775   2.309   3.829  10.015  0.0365  0.2008 -0.0774
  725W        W 4776   3.104   9.892   0.727 -0.0572 -0.2655 -0.0320
  726W        W 4777   7.750   7.587   2.771 -0.1192 -0.0180 -0.1624
  727W        W 4778   1.888   2.688  12.467  0.2263  0.0127  0.0258
  728W        W 4779   2.073   1.939   4.232 -0.0331 -0.1826  0.2725
  729W        W 4780   4.100   3.497   0.887 -0.0940 -0.1345 -0.1735
  730W        W 4781   9.171   7.394   3.748  0.0269  0.1818  0.2333
  731W        W 4782   5.575   2.891   4.716 -0.1288 -0.2161 -0.0151
  732W        W 4783   7.997   8.806  13.774  0.1296 -0.2509 -0.0247
  733W        W 4784   9.980   8.347   3.985 -0.3450  0.0602 -0.0761
  734W        W 4785   4.825   3.378   3.097 -0.2181 -0.1655  0.2432
  735W        W 4786   0.386   2.702  12.596 -0.3439  0.2671 -0.0570
  736W        W 4787   3.971   3.369   4.372 -0.1828 -0.2568 -0.1095
  737W        W 4788   6.904   9.072   0.156  0.2281 -0.0085  0.0531
  738W        W 4789   6.039   5.466   3.095  0.2730 -0.2197  0.0213
  739W        W 4790   1.978   5.929  11.313 -0.2362 -0.1177 -0.1462
  740W        W 4791   4.183   9.220  12.211  0.3626  0.0321 -0.1075
  741W        W 4792   3.220   8.586   2.275 -0.1581  0.2108 -0.0357
  742W        W 4793   2.355   0.756   3.017 -0.3179  0.1450 -0.0859
  743W        W 4794   6.820   1.379  10.517  0.0546  0.2048  0.2539
  744W        W 4795   1.150   9.821   4.136  0.1575 -0.2539 -0.2897
  745W        W 4796   7.174   6.917  13.725  0.0396 -0.1284  0.0394
  746W        W 4797   7.977   8.537   0.713  0.0732  0.0960 -0.1856
  747W        W 4798   3.383   3.029   2.210 -0.1342 -0.5071 -0.0791
  748W        W 4799   8.535   3.501   1.721  0.0922  0.0699 -0.3240
  749W        W 4800   2.270   5.390   4.676  0.2065 -0.2612  0.2657
  750W        W 4801   9.642   2.109  11.085 -0.2695 -0.0118 -0.3511
  751W        W 4802   8.448   4.133  13.471 -0.1262  0.3618  0.0743
  752W        W 4803   1.793   1.570  11.155 -0.1475 -0.0829  0.1453
  753W        W 4804   1.236   4.974  10.725  0.0399 -0.3678  0.0432
  754W        W 4805   0.425   7.098  12.335 -0.1690 -0.1059 -0.3430
  755W        W 4806   8.459   4.135  10.697  0.1437  0.0621 -0.1346
  756W        W 4807   5.056   3.973  13.374  0.0292 -0.3019  0.0701
  757W        W 4808   3.454   6.016  11.410 -0.0202  0.0439 -0.1145
  758W        W 4809   4.430   7.362  10.630  0.0761 -0.2641 -0.0270
  759W        W 4810  10.088   7.660  13.124  0.0741 -0.1098 -0.1776
  760W        W 4811   4.608   3.965  13.771  0.0555  0.2516  0.0837
  761W        W 4812   8.520   2.020   1.278  0.4083 -0.2386 -0.0944
  762W        W 4813   8.855   8.821   0.607 -0.0183 -0.0088 -0.1995
  763W        W 4814   6.053   9.637   9.848 -0.4315  0.3977  0.3514
  764W        W 4815   4.319   2.075  10.360  0.2499 -0.0736  0.1872
  765W        W 4816   0.387   0.637  11.255 -0.1070 -0.1343 -0.2208
  766W        W 4817   7.924   5.621   9.265 -0.4908  0.0431  0.1176
  767W        W 4818   2.428   2.434   0.611 -0.1207 -0.1611 -0.0700
  768W        W 4819  10.128   1.668   3.541  0.3055 -0.1529  0.1951
  769W        W 4820   3.425   5.480  13.723 -0.1545 -0.0279 -0.1524
  770W        W 4821   1.490   9.670   2.415  0.0093  0.2347 -0.2749
  771W        W 4822   6.836   1.694  13.726  0.0120 -0.3826  0.0416
  772W        W 4823   8.292   4.901   2.636  0.2047 -0.1629 -0.0016
  773W        W 4824   1.883   6.604  11.562 -0.2132 -0.2243 -0.0638
  774W        W 4825   6.526   0.063  12.709 -0.1175  0.0539  0.2091
  775W        W 4826   8.233   1.963   1.730  0.2757 -0.0022  0.1351
  776W        W 4827   1.900   9.675  11.811 -0.0022 -0.1249 -0.5740
  777W        W 4828   7.924   5.992   0.102  0.2139 -0.3233 -0.4207
  778W        W 4829   7.692   8.824  10.693  0.0978  0.0758  0.0092
  779W        W 4830   4.933   6.275   0.030  0.0382 -0.0875 -0.0432
  780W        W 4831   8.583   2.507  13.674 -0.0372 -0.1639  0.0220
  781W        W 4832   5.339   0.442   3.156  0.1438  0.0546 -0.0142
  782W        W 4833   9.491   9.800  13.899 -0.1806  0.0838 -0.0401
  783W        W 4834   6.355   1.338   1.735  0.0403  0.2268  0.1401
  784W        W 4835   7.854   9.981  11.797  0.2445  0.0193  0.0181
  785W        W 4836   8.480   9.127  12.736  0.0863 -0.1332 -0.0405
  786W        W 4837   5.406   8.738  12.703 -0.0298 -0.0867 -0.2279
  787W        W 4838   4.783   1.217   1.651  0.0556  0.3147 -0.0474
  788W        W 4839   6.531   4.836  13.410  0.0625 -0.3743  0.0259
  789W        W 4840   9.053   4.828  12.493  0.1752 -0.3269 -0.2567
  790W        W 4841   8.664   4.916   1.171 -0.3834  0.3006  0.1421
  791W        W 4842   0.369   1.873   5.539 -0.0017 -0.0618  0.2622
  792W        W 4843   4.730   4.877   3.181  0.0582  0.2326 -0.3028
  793W        W 4844  10.031   1.629   2.165  0.1839  0.1664  0.0202
  794W        W 4845   9.888   4.019   9.273 -0.2384 -0.3042 -0.2915
  795W        W 4846   9.222   1.051   0.115 -0.0905 -0.0528  0.2681
  796W        W 4847   0.209   6.639  10.318 -0.0871 -0.4688 -0.3349
  797W        W 4848   5.563   0.889   1.778 -0.0041  0.1653 -0.1110
  798W        W 4849   0.424   2.029  13.304  0.2228  0.0933 -0.2346
  799W        W 4850   4.624   5.935   3.276 -0.2369 -0.1174  0.0961
  800W        W 4851   3.164   9.265   2.008  0.0140 -0.0770  0.1293
  801W        W 4852   6.410   0.568  11.454 -0.0381  0.1283 -0.0588
  802W        W 4853   9.577   8.239   0.771  0.1730 -0.1099  0.2495
  803W        W 4854   3.844   9.286  11.560 -0.0415  0.0266  0.1829
  804W        W 4855   0.464   3.757  10.804 -0.0232  0.2233  0.0877
  805W        W 4856   2.942   5.152  12.199  0.1153 -0.2629 -0.1560
  806W        W 4857   4.206   0.842  11.437  0.0525 -0.0154  0.1921
  807W        W 4858   1.761   2.210  13.192 -0.0676 -0.3803  0.1149
  808W        W 4859   0.144   0.180   9.280 -0.2758  0.1374  0.1160
  809W        W 4860   1.438   6.909   9.866  0.1092 -0.2213 -0.1043
  810W        W 4861   1.875   6.841   0.339 -0.1830  0.0553  0.1964
  811W        W 4862   0.649   3.571   4.954 -0.0686 -0.1987  0.2770
  812W        W 4863   6.772   6.614  13.465 -0.2614 -0.0709  0.1051
  813W        W 4864   0.215   5.026  11.587  0.3366 -0.1133 -0.0846
  814W        W 4865   7.373   5.709   9.311 -0.0307 -0.3910 -0.1761
  815W        W 4866   4.091   7.687   2.274 -0.2528  0.2339 -0.1462
  816W        W 4867   8.687   8.433   5.111  0.3513  0.1561 -0.1269
  817W        W 4868   8.992   7.989   3.706  0.2569 -0.0664  0.0858
  818W        W 4869   5.609   4.900  11.291 -0.0128  0.1933  0.0945
  819W        W 4870   5.868   4.443  12.516 -0.0571  0.1758 -0.1204
  820W        W 4871   4.892   5.245  13.046 -0.0420 -0.1034 -0.1024
  821W        W 4872   5.515   1.735   1.987  0.1575 -0.2969  0.3368
  822W        W 4873   1.016   9.889   1.684 -0.0329  0.2601  0.1417
  823W        W 4874   9.860   9.653  12.288  0.0981 -0.2263  0.1150
  824W        W 4875   0.672   8.033   4.763  0.0018 -0.0161  0.1597
  825W        W 4876   9.108   6.890   3.563 -0.0405  0.4299  0.0978
  826W        W 4877   7.849   7.362   4.002 -0.4268  0.1045  0.0040
  827W        W 4878   9.237   9.427   4.548  0.0453 -0.0925  0.1186
  828W        W 4879   7.928   3.296  13.725 -0.0796  0.1828  0.2726
  829W        W 4880   9.242   0.894  11.997  0.1076 -0.1723 -0.1205
  830W        W 4881   3.965   9.029   1.771  0.1757 -0.0123 -0.1990
  831W        W 4882   1.875   7.290   1.073  0.4294 -0.0945  0.1307
  832W        W 4883   1.394   8.155  10.834  0.1754 -0.0246 -0.1802
  833W        W 4884   7.659   6.014   0.548 -0.3380 -0.2898 -0.0557
  834W        W 4885   3.961   9.754  11.358 -0.0712  0.2126 -0.3768
  835W        W 4886   5.787   1.500  13.362  0.0253 -0.2650 -0.0188
  836W        W 4887   1.051   3.369   9.568  0.2900 -0.2223 -0.2383
  837W        W 4888   5.159   3.059  11.764 -0.1368  0.1064 -0.3215
  838W        W 4889   4.184   7.230   0.652  0.1559 -0.0135 -0.2185
  839W        W 4890   5.764   7.398   3.573  0.3544 -0.1854  0.0598
  840W        W 4891   9.825   2.012  12.016 -0.0507 -0.3023 -0.3514
  841W        W 4892   1.625   8.936   3.291  0.0355 -0.0577 -0.0940
  842W        W 4893   1.813   0.531   3.812 -0.0808 -0.1628 -0.2975
  843W        W 4894   1.020   0.324  12.368 -0.3116  0.0385 -0.1144
  844W        W 4895   9.476   0.493  12.220 -0.0498 -0.0824  0.2508
  845W        W 4896   3.059   0.965   2.416  0.1810  0.2538  0.1770
  846W        W 4897   9.526   2.642  11.738  0.2916  0.0860 -0.0792
  847W        W 4898   6.722   0.395  12.350 -0.1426  0.0708  0.4735
  848W        W 4899   4.949   0.451  12.384  0.1264  0.2356 -0.0221
  849W        W 4900   9.497   1.811   2.799  0.0968  0.0140  0.1371
  850W        W 4901   5.295   7.348  10.315 -0.0820 -0.1463  0.0747
  851W        W 4902   6.747   5.708   3.436 -0.4368 -0.2810  0.2013
  852W        W 4903   7.886   4.424   9.236 -0.1817  0.4130  0.1858
  853W        W 4904   1.578   3.404   3.235 -0.0228  0.1646 -0.1379
  854W        W 4905   4.064   3.575  11.134  0.0437 -0.0645  0.1290
  855W        W 4906   9.417   6.605  12.168 -0.1983  0.0135  0.1371
  856W        W 4907   8.792   7.157  11.663 -0.1268 -0.0830  0.1854
  857W        W 4908   0.717   6.007  10.716 -0.0468 -0.0780 -0.1579
  858W        W 4909   8.874   7.330  12.506 -0.1227  0.0482  0.1996
  859W        W 4910  10.131   1.732  10.326  0.0186 -0.2541  0.2725
  860W        W 4911   1.275   6.484  13.674  0.1437 -0.1799 -0.0459
  861W        W 4912   0.137   5.133  10.615  0.1283  0.2360 -0.0052
  862W        W 4913   5.655   6.952  10.744  0.0799  0.2212 -0.0997
  863W        W 4914   1.459   8.304  13.821 -0.0579 -0.3374  0.1525
  864W        W 4915   3.689   2.299   1.025  0.2068  0.0269  0.1960
  865W        W 4916   8.521   6.134   4.039  0.1598 -0.0309 -0.3097
  866W        W 4917   3.741   2.523   1.593  0.1129  0.0883  0.2103
  867W        W 4918   7.967   0.495   0.492 -0.0678  0.0405  0.1040
  868W        W 4919   8.302   6.870   9.278  0.1650  0.1023 -0.0411
  869W        W 4920   1.430   6.449   2.153  0.0275  0.4155 -0.1157
  870W        W 4921   3.081   9.869  13.189  0.2333  0.1596 -0.0474
  871W        W 4922   9.966   2.143   3.108 -0.0573  0.1809  0.0591
  872W        W 4923   2.959   3.395  12.244 -0.1953 -0.0401 -0.1300
  873W        W 4924   3.754   1.616   9.808 -0.1726  0.3005 -0.3492
  874W        W 4925   8.920   9.280   4.198 -0.0900  0.0831  0.1066
  875W        W 4926   1.966  10.166   3.219 -0.1497 -0.2065  0.1024
  876W        W 4927   7.944   0.225  10.636 -0.0624  0.0186 -0.1380
  877W        W 4928   3.453   6.538   4.502  0.2233 -0.1655 -0.2829
  878W        W 4929   1.424   8.421   4.061  0.1480  0.3153  0.1896
  879W        W 4930   7.338   0.445  11.071 -0.3053  0.1144  0.0551
  880W        W 4931   1.597   7.752   3.155 -0.0779  0.2706 -0.0281
  881W        W 4932   2.088   1.383  12.325  0.2258  0.0370  0.1389
  882W        W 4933   9.713   9.256   3.425 -0.1800  0.3553 -0.2546
  883W        W 4934   0.560   4.960   4.847 -0.1970  0.3832 -0.1342
  884W        W 4935   7.021   3.169  10.955 -0.1639  0.1030 -0.1782
  885W        W 4936   3.159   6.806   0.219  0.3619  0.1576  0.1465
  886W        W 4937   3.237   1.680   4.093  0.0585 -0.0093 -0.0013
  887W        W 4938   5.899   9.112   3.951 -0.1951  0.0658 -0.3292
  888W        W 4939   0.786   1.619   1.707 -0.1746  0.0941  0.0197
  889W        W 4940   2.890   3.924   1.075  0.0718 -0.0336  0.0722
  890W        W 4941   7.659   4.342   2.752 -0.2198  0.0268  0.2512
  891W        W 4942   0.486   7.846  12.988  0.2064 -0.1527 -0.0629
  892W        W 4943   2.734  10.012   0.122 -0.0926 -0.0610 -0.1188
  893W        W 4944   5.706   3.988  13.646 -0.3394  0.1770  0.1508
  894W        W 4945   7.434   4.246   4.553  0.2279 -0.0147 -0.0209
  895W        W 4946   6.207   3.832   2.398  0.0327 -0.2647  0.2062
  896W        W 4947   5.931   6.917   1.163 -0.0988 -0.0583  0.2868
  897W        W 4948   9.934   4.831  11.869  0.1726  0.0382 -0.1893
  898W        W 4949   6.040   8.646   0.929 -0.1673  0.0391 -0.1362
  899W        W 4950   7.007   3.891   3.823 -0.0198  0.0664  0.0064
  900W        W 4951   4.579   5.919  12.335  0.1069  0.0449  0.0472
  901W        W 4952   9.539   6.971  10.036 -0.0163 -0.2987  0.0858
  902W        W 4953   0.118   9.267  12.674  0.0642 -0.1439  0.2991
  903W        W 4954   3.002  10.006  12.739  0.0505 -0.2492 -0.0429
  904W        W 4955   2.024   3.892  11.310  0.2048  0.3247  0.3374
  905W        W 4956   7.292   2.981   2.206 -0.0054 -0.0583  0.0547
  906W        W 4957   2.126   3.698   4.196  0.1486 -0.2180 -0.3266
  907W        W 4958   6.948   7.396   0.544  0.0631 -0.0116 -0.0176
  908W        W 4959   7.260   3.330   1.028 -0.0658  0.0370 -0.0258
  909W        W 4960   7.488   7.281   0.351 -0.0864 -0.1389  0.0441
  910W        W 4961   9.885   6.000   8.607 -0.1534 -0.0459 -0.1549
  911W        W 4962   5.776   9.110  12.800  0.0600 -0.2516 -0.1442
  912W        W 4963  10.059   6.572  10.765  0.0413  0.0392 -0.4207
  913W        W 4964   6.241   8.949   1.314 -0.0539  0.0853  0.1551
  914W        W 4965   2.105   9.570   3.041 -0.2385 -0.0276  0.2719
  915W        W 4966   5.824   6.153   0.942 -0.0125 -0.0702 -0.0271
  916W        W 4967   3.333   8.412  11.081  0.1265  0.2132  0.2623
  917W        W 4968   6.318   9.825   0.258 -0.0774 -0.0591  0.0738
  918W        W 4969   1.244   1.938   1.442 -0.0669  0.0023 -0.3004
  919W        W 4970   5.378   3.151  12.195  0.3547 -0.3260 -0.1592
  920W        W 4971   0.668   9.280  12.671  0.0390  0.1937 -0.3289
  921W        W 4972   8.008   4.176  11.371  0.1821 -0.0913  0.0434
  922W        W 4973   4.442   0.715  11.965  0.2500 -0.0162  0.2309
  923W        W 4974   5.208   0.455   4.352 -0.2080  0.0995  0.1987
  924W        W 4975   6.044   6.033   3.295 -0.1389  0.0444 -0.0964
  925W        W 4976   3.172   1.856   3.601  0.1053 -0.3210  0.0891
  926W        W 4977   1.487   5.957  13.325  0.0150 -0.1336 -0.0232
  927W        W 4978   6.737   6.179  10.280  0.1304  0.2525 -0.0239
  928W        W 4979   5.949   9.726   1.054 -0.0844  0.3540  0.0824
  929W        W 4980   8.621  10.193   4.527  0.1080  0.1651  0.2412
  930W        W 4981   2.390   2.073  11.975 -0.2650 -0.2340  0.0773
  931W        W 4982   1.106   2.136  12.173  0.1404  0.3575 -0.0484
  932W        W 4983   0.435   0.192   0.064 -0.1842  0.2840 -0.0755
  933W        W 4984   2.798   9.070   3.188 -0.1457  0.3411  0.1024
  934W        W 4985   9.533   9.625   3.676  0.1141 -0.2359  0.0733
  935W        W 4986   1.867   0.199  11.856  0.2030 -0.1307 -0.2128
  936W        W 4987   0.684   6.782  11.973  0.1414  0.1287 -0.0329
  937W        W 4988   7.089   3.600   9.774  0.3127 -0.0138 -0.2321
  938W        W 4989   3.350   4.916  13.072  0.0324 -0.2109  0.1669
  939W        W 4990   4.489   2.577  12.276 -0.2582 -0.1862  0.0958
  940W        W 4991   9.444   9.210  12.500  0.0393 -0.1881  0.4092
  941W        W 4992   1.862   7.698  11.432  0.0380  0.0027 -0.4632
  942W        W 4993  10.104   2.948   2.187  0.0029 -0.1702  0.3115
  943W        W 4994   3.839   0.112   0.764  0.1642  0.2007 -0.0318
  944W        W 4995   9.307   1.118   0.576  0.3507 -0.2660 -0.1169
  945W        W 4996   0.386   9.220   4.076 -0.0462  0.0842  0.0421
  946W        W 4997   4.227   4.175   2.000  0.0994  0.0776 -0.1967
  947W        W 4998   1.492   5.702  11.528  0.1343  0.0053 -0.1762
  948W        W 4999   5.900   6.164  13.494  0.1674 -0.0522 -0.0383
  949W        W 5000   6.945   2.918   1.016  0.0190 -0.2476  0.0265
  950W        W 5001   6.165   4.550   0.365  0.0023 -0.3424 -0.4777
  951W        W 5002   7.959   9.497  10.224 -0.0204 -0.0508 -0.3334
  952W        W 5003   1.067   9.778  13.249  0.1737  0.2057 -0.1884
  953W        W 5004   1.878   5.383   3.701 -0.1902  0.2182 -0.0348
  954W        W 5005   6.377   4.986   2.982  0.0530 -0.0957 -0.0159
  955W        W 5006   3.423   6.922  12.587 -0.2744  0.3992 -0.2075
  956W        W 5007   2.468   2.511  13.192 -0.2842  0.1321  0.0576
  957W        W 5008   3.873  10.087   2.412 -0.0986 -0.1009  0.3600
  958W        W 5009   8.928   8.245   1.552  0.2042 -0.1006  0.0063
  959W        W 5010   4.664   1.076   1.162 -0.0672  0.0856  0.0926
  960W        W 5011   3.118   8.968   1.490 -0.0046  0.1733 -0.4420
  961W        W 5012   2.336   6.201   0.825  0.1575  0.1306  0.0522
  962W        W 5013   4.544   0.774  12.433 -0.3410  0.3708 -0.0353
  963W        W 5014   1.641   5.961  10.565 -0.0680 -0.0584  0.1265
  964W        W 5015   0.575   4.155  13.665  0.0515  0.0810 -0.1224
  965W        W 5016   9.706   5.469   9.948  0.3048 -0.0312  0.2970
  966W        W 5017   6.218   0.270  13.068 -0.1472 -0.0045 -0.0513
  967W        W 5018   4.900   7.601  11.751  0.1066  0.1191 -0.0721
  968W        W 5019   8.905   0.533   9.902 -0.1815  0.0331  0.2106
  969W        W 5020   6.101   2.697  13.151  0.0513 -0.1978 -0.0216
  970W        W 5021   1.989   8.268   2.089 -0.0661  0.2168 -0.1013
  971W        W 5022   1.624   7.896  12.341 -0.0405 -0.1066 -0.0576
  972W        W 5023   2.441   1.071   0.549 -0.0404 -0.1945 -0.2122
  973W        W 5024   0.542   1.186  12.127 -0.2198  0.1075  0.1781
  974W        W 5025   2.978   8.846  10.575 -0.0694  0.1389 -0.2600
  975W        W 5026   6.663   7.675   0.847  0.0567 -0.0075  0.1935
  976W        W 5027   0.311   4.193   0.524  0.2185  0.0524  0.2080
  977W        W 5028   2.737   3.162  11.472  0.0488  0.1030  0.0227
  978W        W 5029   7.701   8.899   4.619  0.2693  0.1904 -0.1735
  979W        W 5030   0.811   2.586   1.067  0.0950 -0.0832  0.0607
  980W        W 5031   5.408   5.011   2.001 -0.1360  0.1925 -0.0232
  981W        W 5032   0.381   5.699  12.065  0.1506 -0.1229 -0.0855
  982W        W 5033   4.396   6.600   0.094 -0.1521 -0.2049  0.1780
  983W        W 5034   2.028   6.304   4.062  0.2543  0.0223  0.0543
  984W        W 5035   5.708   2.879  12.448  0.1042  0.0721  0.2927
  985W        W 5036   9.639   4.397  11.930  0.0464 -0.1183 -0.0777
  986W        W 5037   5.795   0.728   2.409 -0.0462 -0.3339  0.0752
  987W        W 5038   9.482   6.367   4.338 -0.0867 -0.1377  0.2404
  988W        W 5039   9.504   7.905   4.678 -0.1158  0.1557 -0.0148
  989W        W 5040   2.773   2.845  12.824 -0.3025  0.1724 -0.0744
  990W        W 5041   1.231   7.621   0.413 -0.1823  0.0272  0.0036
  991W        W 5042   1.487   2.823  13.803 -0.2431 -0.0676  0.1331
  992W        W 5043   8.373   6.729   9.809 -0.0559 -0.0766 -0.1123
  993W        W 5044   4.977   5.632   4.673 -0.1060 -0.0993  0.2353
  994W        W 5045   9.047   8.016   2.614 -0.2495  0.1853  0.1668
  995W        W 5046   5.844   3.354   4.004 -0.2509  0.1534 -0.1048
  996W        W 5047   2.001   1.650   1.265  0.1637  0.0593 -0.1566
  997W        W 5048   6.327   1.189  12.173 -0.0792 -0.1334  0.2091
  998W        W 5049   0.247   4.796   2.638 -0.2293  0.3023  0.0969
  999W        W 5050   3.780   5.174   3.327  0.0829  0.2147 -0.2919
 1000W        W 5051   5.167   3.802   2.406  0.0696  0.0186  0.1472
 1001W        W 5052   8.537   2.253   9.069  0.2315 -0.1829 -0.2030
 1002W        W 5053   9.405   9.385   3.041  0.0985  0.0243  0.3051
 1003W        W 5054   4.627   8.516  11.399  0.1965 -0.2711 -0.0083
 1004W        W 5055   5.805   9.703   3.344  0.0443  0.1954 -0.1924
 1005W        W 5056   9.872   8.012   9.832 -0.2476  0.0846  0.1681
 1006W        W 5057   6.996   5.608   0.845 -0.2629  0.0015 -0.1378
 1007W        W 5058   4.172   6.368  10.914 -0.1685  0.3713  0.1334
 1008W        W 5059   1.830   4.346  11.341  0.0448 -0.2501 -0.1697
 1009W        W 5060   3.950   6.338  10.251  0.1069 -0.0566  0.2775
 1010W        W 5061   4.199   8.788  11.317 -0.0373 -0.0890 -0.0025
 1011W        W 5062   2.479   1.888   9.401 -0.1676 -0.1311  0.3520
 1012W        W 5063   3.896   8.938  13.015  0.0183 -0.0951  0.0258
 1013W        W 5064   7.591   6.254   3.613  0.0463  0.1467 -0.2787
 1014W        W 5065   4.027   5.104  12.574 -0.0530 -0.0942  0.2286
 1015W        W 5066   0.201   1.735  11.448  0.2393 -0.0880 -0.0605
 1016W        W 5067   4.996   0.858  13.756 -0.1492  0.1561 -0.0000
 1017W        W 5068   3.524   7.729   9.459 -0.1325  0.1055 -0.0812
 1018W        W 5069   3.295   3.644   9.413 -0.2158  0.0298  0.2000
 1019W        W 5070   8.143   9.348   1.829 -0.3953 -0.0348  0.0693
 1020W        W 5071   2.283   1.192   0.071 -0.2036  0.1559 -0.2126
 1021W        W 5072   0.552   7.534  12.583 -0.3190 -0.0879  0.0207
 1022W        W 5073   8.856   3.340   3.669  0.0095 -0.1322 -0.1513
 1023W        W 5074   2.814   0.205   9.692  0.3523 -0.1378 -0.0921
 1024W        W 5075   4.167   0.849   2.676  0.1345 -0.1991 -0.3160
 1025W        W 5076   6.736   6.785   9.949 -0.2049 -0.1611  0.1727
 1026W        W 5077   7.913   1.666   4.334 -0.1456  0.2378 -0.1048
 1027W        W 5078   1.789   4.406  10.331 -0.3141  0.0191 -0.0982
 1028W        W 5079   0.639   5.402   0.548  0.1052  0.0231  0.0753
 1029W        W 5080   5.022   7.745  10.237  0.1992  0.2500  0.1846
 1030W        W 5081   3.017   0.019   2.535 -0.0456  0.2238 -0.2967
 1031W        W 5082   8.956   2.001  11.397  0.3892  0.0431  0.0536
 1032W        W 5083   9.622   3.690   2.444  0.0797  0.2670  0.1326
 1033W        W 5084   3.582   5.014   4.602  0.2671  0.1198 -0.2504
 1034W        W 5085   2.317   7.834  11.186  0.3706 -0.1018 -0.1803
 1035W        W 5086   6.695   6.041   9.641  0.0846  0.0397 -0.6857
 1036W        W 5087   3.496   9.202  10.132 -0.0309  0.1722 -0.2778
 1037W        W 5088   6.403   6.281   5.402 -0.2248 -0.1492 -0.1529
 1038W        W 5089   3.630   3.605  13.363 -0.0140  0.0975 -0.0934
 1039W        W 5090   0.173   5.278   3.153  0.1675 -0.0619 -0.2808
 1040W        W 5091   3.046   8.426  12.407  0.0010  0.3319  0.2836
 1041W        W 5092   2.386  10.147  12.741  0.3785  0.0159  0.0545
 1042W        W 5093   7.805   2.339  12.477 -0.0031  0.5553  0.2331
 1043W        W 5094   1.772   3.693   4.574 -0.1165  0.0884 -0.0024
 1044W        W 5095   0.862   0.318   1.049 -0.1485  0.1092 -0.0898
 1045W        W 5096   4.046   0.205   1.513 -0.2538  0.2175 -0.1442
 1046W        W 5097   8.750   7.791   1.647  0.2944  0.2843 -0.0158
 1047W        W 5098   9.877   9.766   2.226 -0.0609 -0.0783  0.2594
 1048W        W 5099   6.588   8.803   4.696 -0.0569 -0.1815  0.0685
 1049W        W 5100   3.977   1.159   4.250  0.2563  0.1409 -0.0199
 1050W        W 5101   1.685   2.773   1.955  0.1195  0.1805 -0.2835
 1051W        W 5102   2.709   9.283   1.763  0.1459 -0.2453  0.0497
 1052W        W 5103   9.090   2.767   3.303 -0.2577 -0.0886 -0.0557
 1053W        W 5104   8.282   7.223  13.864  0.3407 -0.1814  0.1558
 1054W        W 5105   6.896   0.648  10.883  0.1001  0.0262 -0.2498
 1055W        W 5106   3.311   6.462  11.250  0.0053 -0.2917  0.1464
 1056W        W 5107   9.631   1.235   5.909 -0.0279  0.2234  0.0290
 1057W        W 5108   2.349   7.473   2.563  0.0681  0.1584 -0.3102
 1058W        W 5109   7.365   3.250   4.673 -0.2384 -0.0505 -0.0083
 1059W        W 5110   8.343   3.882   2.955  0.1252  0.2406  0.1778
 1060W        W 5111   2.625   5.893   9.443 -0.2211  0.3545 -0.0870
 1061W        W 5112   9.579   2.864   4.794 -0.0792  0.1976 -0.0033
 1062W        W 5113   7.789   0.599  10.934 -0.0777 -0.3071  0.1998
 1063W        W 5114   9.527   0.230   2.816  0.1139  0.1252 -0.1525
 1064W        W 5115   3.695   5.877  10.388  0.0025 -0.2019  0.2568
 1065W        W 5116   7.366   8.004   2.850 -0.0510  0.1893 -0.0803
 1066W        W 5117   1.413   0.717   4.136 -0.2754 -0.1636  0.0225
 1067W        W 5118   7.411   2.417  10.511  0.2053  0.0689 -0.0203
 1068W        W 5119   6.973   8.116   0.444 -0.1770 -0.0401 -0.0071
 1069W        W 5120   2.271   4.122   3.513  0.1209 -0.3085 -0.3970
 1070W        W 5121   4.178   2.896   1.731 -0.1606  0.1474 -0.0500
 1071W        W 5122   8.305   4.735  12.819 -0.2843 -0.0457 -0.0775
 1072W        W 5123   9.387   0.344  12.887 -0.1177  0.0642  0.0658
 1073W        W 5124   8.344   8.412   3.184  0.3029 -0.0015  0.1994
 1074W        W 5125   8.183  10.040   9.278 -0.1313  0.2611 -0.1281
 1075W        W 5126   5.411   8.713   3.730 -0.1226 -0.0839  0.0706
 1076W        W 5127   1.769   8.750  12.729 -0.1716 -0.0790  0.1202
 1077W        W 5128   7.723   5.592   9.757  0.1030 -0.0646  0.3207
 1078W        W 5129   9.477   5.308   0.128  0.0772 -0.1043 -0.2481
 1079W        W 5130   5.618   2.178   3.119  0.1803 -0.4010  0.3840
 1080W        W 5131   8.318   3.525  10.674 -0.4252  0.2480  0.1860
 1081W        W 5132   3.947   0.059  12.697 -0.1858  0.0464 -0.1391
 1082W        W 5133   3.220   4.885   1.029  0.2109 -0.0163 -0.1292
 1083W        W 5134   6.814   7.915  13.842  0.0440  0.1788 -0.0051
 1084W        W 5135   5.959   6.349  12.060  0.0711 -0.2844  0.2519
 1085W        W 5136   3.134   5.287   0.122 -0.1042 -0.2173 -0.0262
 1086W        W 5137   3.518   4.755  10.576  0.0635 -0.1423  0.0596
 1087W        W 5138   9.351   0.333   4.078 -0.4700 -0.2057  0.2736
 1088W        W 5139   1.352   3.037   4.571 -0.3077  0.1270  0.3335
 1089W        W 5140   3.300   4.654   9.655  0.1208  0.2078  0.0665
 1090W        W 5141   9.482   5.510  10.400 -0.0271  0.0119  0.0750
 1091W        W 5142   1.208   3.421  12.617 -0.0646  0.0776 -0.3363
 1092W        W 5143   4.040   3.431   2.493  0.5643  0.0504  0.1061
 1093W        W 5144   8.151   6.910  11.186 -0.3573 -0.0262 -0.1819
 1094W        W 5145   5.783   3.298   4.568  0.0289 -0.4962  0.0512
 1095W        W 5146   5.776   7.290   2.827 -0.2436 -0.0140 -0.0482
 1096W        W 5147   2.744   7.878   9.835  0.2999  0.1311  0.1426
 1097W        W 5148   6.067   1.028   2.052  0.2913  0.3236  0.1080
 1098W        W 5149   8.593   6.166   0.660  0.0171  0.1162 -0.1408
 1099W        W 5150   8.838   6.004  12.865 -0.2216  0.4326 -0.0904
 1100W        W 5151   7.309   6.139   4.074  0.0871  0.2142 -0.1053
 1101W        W 5152   9.934   9.747   9.125 -0.0201  0.1706  0.4888
 1102W        W 5153   5.886   3.810   1.306  0.0675  0.2672 -0.4570
 1103W        W 5154   1.368   6.726   0.395  0.2067  0.0102 -0.3212
 1104W        W 5155   7.100   3.627   4.231  0.1778 -0.1871 -0.0744
 1105W        W 5156   1.620   4.146   1.745  0.2620 -0.3100 -0.2183
 1106W        W 5157   0.159   8.904  11.753  0.0962 -0.1757 -0.0275
 1107W        W 5158   5.965   5.273  10.450 -0.3102 -0.1620 -0.0334
 1108W        W 5159   5.131   7.543   2.840  0.0329  0.0807  0.0741
 1109W        W 5160   2.477   5.066   1.945  0.0347  0.0882 -0.1554
 1110W        W 5161   0.375   6.444   4.754  0.1088 -0.0112  0.1619
 1111W        W 5162   8.589   1.258  10.414  0.2101 -0.0882  0.0864
 1112W        W 5163   9.432   7.137   2.209  0.0989 -0.3789  0.3636
 1113W        W 5164   3.637   2.182   2.862  0.1205  0.1952  0.0407
 1114W        W 5165   2.426   8.261  10.972  0.0656 -0.0023  0.2309
 1115W        W 5166   3.468   2.544   9.334 -0.0969  0.2150 -0.0516
 1116W        W 5167   8.538   5.244   0.485  0.2649  0.1120 -0.2026
 1117W        W 5168   9.444   8.947   9.308  0.0672 -0.1228  0.2866
 1118W        W 5169   8.126   7.986   4.317 -0.0984  0.1215 -0.1514
 1119W        W 5170   2.457   6.343  12.912  0.0084  0.2466 -0.1061
 1120W        W 5171   2.667   6.516  12.042 -0.4107 -0.0668  0.0718
 1121W        W 5172   7.955   9.537  11.644  0.0391  0.2142 -0.1775
 1122W        W 5173   3.497   0.161   2.111  0.0191 -0.1687 -0.2226
 1123W        W 5174   1.611   5.621  13.876  0.1573 -0.1307 -0.0301
 1124W        W 5175   8.547   7.978   4.955  0.2183  0.3773 -0.2658
 1125W        W 5176   3.421   7.031   1.736 -0.1491  0.0509  0.3786
 1126W        W 5177   9.966   2.331  13.848  0.0779  0.1493  0.0524
 1127W        W 5178   7.144   5.415   4.913  0.0045 -0.2497 -0.0556
 1128W        W 5179   0.795   8.762   3.473  0.0927 -0.1509 -0.0240
 1129W        W 5180   0.922   4.059  11.498  0.0406 -0.0557  0.2241
 1130W        W 5181   2.187   2.973  13.270  0.2117 -0.2221 -0.1476
 1131W        W 5182   0.073   9.383   2.171 -0.2438 -0.0978  0.1580
 1132W        W 5183   7.574   1.585   3.899 -0.2016  0.2429  0.0625
 1133W        W 5184   0.590   3.530  10.405 -0.0580 -0.4882 -0.1084
 1134W        W 5185   5.868   5.863   4.499 -0.0442 -0.2761  0.0863
 1135W        W 5186   2.844   2.391  12.075  0.0285  0.1465 -0.2606
 1136W        W 5187   3.261   6.708  10.793  0.1014 -0.0076  0.0539
 1137W        W 5188   4.863   6.468   0.846 -0.1948  0.1720 -0.0245
 1138W        W 5189   3.298   5.501   2.523  0.0046 -0.0528  0.1709
 1139W        W 5190   4.250   7.540   1.797 -0.2748  0.1193  0.1366
 1140W        W 5191   5.027   4.797   4.365 -0.0993 -0.0708  0.2363
 1141W        W 5192   0.009   8.162  13.222 -0.1101 -0.3857 -0.0303
 1142W        W 5193   8.655   5.885   9.053 -0.0561 -0.0759  0.0284
 1143W        W 5194   0.936   8.087   1.877  0.2143  0.3954  0.1255
 1144W        W 5195   4.395   3.176  11.300 -0.1345 -0.0235 -0.0766
 1145W        W 5196   8.629   8.695  11.946 -0.0181  0.0631 -0.0824
 1146W        W 5197   0.877   3.240   1.673  0.2533 -0.0417 -0.0275
 1147W        W 5198   7.469   2.249   9.863  0.0327  0.1928  0.0109
 1148W        W 5199   5.966   0.758  11.276  0.1738  0.0631 -0.2269
 1149W        W 5200   7.891   4.579  10.143  0.1185 -0.1020  0.3766
 1150W        W 5201   2.608   3.447   0.165  0.5154  0.0286 -0.1866
 1151W        W 5202   7.742   0.323   3.457 -0.3091 -0.2963  0.1502
 1152W        W 5203   6.770   2.984   9.733 -0.0289  0.3679 -0.0536
 1153W        W 5204   9.946   5.977  13.138 -0.0137  0.0290 -0.4145
 1154W        W 5205   3.823   2.156   3.331 -0.1934  0.1039 -0.0330
 1155W        W 5206   7.421   6.139   0.099  0.1693  0.0421  0.0155
 1156W        W 5207   5.671   2.003   3.609 -0.1031 -0.0102 -0.2905
 1157W        W 5208   0.262   8.175   4.046 -0.3933 -0.0733 -0.2781
 1158W        W 5209   0.799   6.675   4.521  0.2028  0.1580 -0.1097
 1159W        W 5210   0.682   9.007   1.941 -0.2873 -0.1347  0.3504
 1160W        W 5211   7.700   2.866  13.733  0.0128 -0.0715  0.2264
 1161W        W 5212   7.832   1.103   2.413 -0.1287  0.1492  0.0640
 1162W        W 5213   3.225   8.597   0.230  0.0450  0.0451  0.3195
 1163W        W 5214   0.463   9.527  10.037  0.0533 -0.0311  0.1816
 1164W        W 5215   8.674   6.871  13.931  0.0639  0.0615  0.0922
 1165W        W 5216   4.630   7.324   0.930  0.3745 -0.0176 -0.1802
 1166W        W 5217   6.737   8.413  12.239  0.2374  0.1100  0.0672
 1167W        W 5218   7.286   4.079   9.960  0.1389  0.1107  0.0628
 1168W        W 5219   4.886   6.187   9.442 -0.1558 -0.2076  0.2401
 1169W        W 5220   7.619   2.221   4.831  0.2273  0.3444  0.1094
 1170W        W 5221   9.971   2.005   5.024  0.0661  0.0585  0.0863
 1171W        W 5222  10.109   0.870   3.625 -0.1305  0.0360 -0.0159
 1172W        W 5223   6.506   4.574  13.827 -0.2584  0.1638 -0.1252
 1173W        W 5224   1.518   9.300  13.772  0.1613 -0.2135  0.1146
 1174W        W 5225   8.207   7.995   2.463 -0.0037  0.1237 -0.0264
 1175W        W 5226   8.499   4.608  13.331 -0.0961 -0.3540  0.0107
 1176W        W 5227   4.602   8.379  12.923 -0.0509 -0.1884  0.2544
 1177W        W 5228   4.680   8.073  11.088  0.2087 -0.1914 -0.1694
 1178W        W 5229   6.130   1.075   4.883 -0.0535  0.2279  0.3188
 1179W        W 5230   3.755   5.005   1.018  0.1870  0.2059  0.0741
 1180W        W 5231   2.154   6.354   0.268 -0.1777  0.2458 -0.1070
 1181W        W 5232   1.465   8.510   2.269 -0.0675  0.1049  0.0684
 1182W        W 5233   7.423   4.341   9.448 -0.1904  0.1075 -0.0061
 1183W        W 5234   0.372   2.683   4.651  0.0724 -0.1404  0.2161
 1184W        W 5235   5.999   0.073   2.997  0.0406 -0.1980 -0.2489
 1185W        W 5236   7.439   7.859  13.610 -0.3060  0.1629 -0.1377
 1186W        W 5237   4.859   3.151   4.365 -0.0101  0.1572 -0.1036
 1187W        W 5238   0.120   4.999   1.102 -0.2397  0.2803 -0.0538
 1188W        W 5239   8.384   5.988   2.853 -0.1352 -0.1912 -0.1599
 1189W        W 5240   5.953   4.207   9.707 -0.1071  0.3344 -0.2846
 1190W        W 5241   9.228   8.153  12.744  0.1234 -0.0697 -0.3372
 1191W        W 5242   5.980   0.678  13.858 -0.1372  0.2134  0.0137
 1192W        W 5243   3.609   6.448   9.840 -0.2223 -0.1894 -0.3922
 1193W        W 5244   4.539   7.481  12.080  0.0135  0.0916 -0.1392
 1194W        W 5245   4.648   7.201  12.542 -0.0875 -0.4400  0.0170
 1195W        W 5246   3.507   4.248  12.380 -0.1715 -0.0740  0.1621
 1196W        W 5247   7.224   5.433  11.437 -0.0004  0.1250  0.2019
 1197W        W 5248   5.354   9.068   1.700  0.2883 -0.2062 -0.0267
 1198W        W 5249   9.620   6.809   3.725 -0.2105 -0.0250 -0.1205
 1199W        W 5250   7.549   4.211   0.916  0.0226  0.1925  0.2033
 1200W        W 5251   0.618   2.203   4.374 -0.2273 -0.0505  0.0954
 1201W        W 5252   9.925   9.367   1.066 -0.1713  0.1792 -0.0469
 1202W        W 5253   6.359   4.565   1.782 -0.2282  0.2519  0.0840
 1203W        W 5254   0.440   5.432   0.105 -0.1124  0.0069 -0.0593
 1204W        W 5255   8.594   3.868   0.960 -0.0542 -0.1537 -0.0184
 1205W        W 5256   0.882   7.247  13.185  0.0089 -0.1743 -0.1155
 1206W        W 5257   2.473   7.578  12.268  0.1696  0.0207 -0.2830
 1207W        W 5258   8.374   2.300  10.581 -0.2255  0.4436  0.3192
 1208W        W 5259   3.118   7.659  11.742 -0.1324 -0.2654 -0.2415
 1209W        W 5260   2.470   0.926   3.472 -0.1014 -0.1625 -0.0622
 1210W        W 5261   7.078   0.759   2.520  0.0514 -0.0429  0.0672
 1211W        W 5262   0.996   7.068   3.711 -0.2584  0.2207 -0.0126
 1212W        W 5263   3.303   7.916  10.010  0.1174 -0.0392  0.0122
 1213W        W 5264   3.493   1.670   3.195 -0.0875  0.1802  0.0054
 1214W        W 5265   5.037   4.251   9.787  0.2345  0.0776  0.1635
 1215W        W 5266   2.816   9.600   0.451  0.1261  0.0875  0.0511
 1216W        W 5267   3.659   5.024   2.337 -0.1946 -0.0859  0.0028
 1217W        W 5268   9.096   3.043   2.885  0.1983  0.0682 -0.2395
 1218W        W 5269   8.659   9.318  13.520 -0.2321  0.0246 -0.0940
 1219W        W 5270   5.460   5.491   4.322  0.1911 -0.2005 -0.2149
 1220W        W 5271   4.095   4.442   0.554  0.1366 -0.1896  0.4335
 1221W        W 5272   3.370   7.748   1.645 -0.3964 -0.1776  0.2758
 1222W        W 5273   8.859   1.384  13.856  0.1104 -0.0128  0.3721
 1223W        W 5274  10.101   6.316   9.154 -0.2089 -0.0781  0.4084
 1224W        W 5275   0.078   9.171  11.266  0.4374  0.3682 -0.1903
 1225W        W 5276   8.087   4.256   1.853  0.0679  0.4288 -0.0525
 1226W        W 5277   1.901   6.901   1.494 -0.0698 -0.0321  0.3878
 1227W        W 5278   7.047   6.035   3.678  0.0044 -0.0303  0.2579
 1228W        W 5279   6.483   9.746   1.732 -0.1401  0.1959  0.0098
 1229W        W 5280   3.150   3.389  11.274 -0.1925 -0.1384 -0.1092
 1230W        W 5281   4.974   1.758   0.748 -0.1724  0.3744  0.0476
 1231W        W 5282   8.293   0.596  10.860 -0.1216  0.0842 -0.3042
 1232W        W 5283   3.889   7.713  13.779 -0.0688  0.2078  0.0405
 1233W        W 5284   3.961   7.828   0.285  0.4040 -0.2086  0.1824
 1234W        W 5285   2.161   9.568  10.439  0.0019 -0.2258 -0.1474
 1235W        W 5286   9.661   6.697  11.687  0.2579 -0.3200 -0.0744
 1236W        W 5287   1.516   4.149  13.166 -0.0194 -0.2154 -0.1223
 1237W        W 5288   7.819   6.063   1.028  0.1007 -0.0354 -0.2123
 1238W        W 5289   2.024   8.629  10.848 -0.3091 -0.0768 -0.2955
 1239W        W 5290   0.916   3.986  13.286  0.0558 -0.1209 -0.1678
 1240W        W 5291   5.067   6.022  11.984  0.1628 -0.0969  0.0367
 1241W        W 5292   0.261   7.454  11.045  0.3920  0.1819  0.0491
 1242W        W 5293   4.812   4.150  12.903  0.2227  0.1165 -0.0568
 1243W        W 5294   7.017   4.543  13.400 -0.1216 -0.1074  0.2862
 1244W        W 5295   8.208   3.020  10.717 -0.1610 -0.0527 -0.2213
 1245W        W 5296   6.189   6.678   2.341 -0.0145 -0.0399 -0.0252
 1246W        W 5297   1.961   8.242  13.936 -0.4138  0.0229 -0.3461
 1247W        W 5298   4.712   4.236  11.626 -0.1283 -0.0833  0.1522
 1248W        W 5299   6.782   4.462  11.114 -0.3354  0.0396  0.2441
 1249W        W 5300   2.157   4.883   3.795  0.1766 -0.3691 -0.0342
 1250W        W 5301   9.489   1.680   3.457  0.1138  0.2019  0.0590
 1251W        W 5302  10.056   2.725  10.339  0.1229 -0.2995  0.1998
 1252W        W 5303   5.361   5.965  13.513  0.0522  0.0017 -0.0239
 1253W        W 5304   2.589   3.615   2.533  0.1074  0.0226 -0.1774
 1254W        W 5305   0.515   7.919   0.159 -0.0517  0.1183 -0.0132
 1255W        W 5306   2.066   2.757  10.729 -0.0623 -0.0655 -0.2327
 1256W        W 5307   7.459   9.057   0.082  0.0434 -0.0034 -0.2944
 1257W        W 5308   5.798   2.117   2.261  0.0860 -0.3590  0.2312
 1258W        W 5309   0.136   0.698   2.289 -0.0747 -0.0492  0.1087
 1259W        W 5310   1.391   3.811  10.740 -0.1087 -0.1378 -0.2582
 1260W        W 5311   1.677   2.559   5.051  0.3574  0.0067 -0.4528
 1261W        W 5312   4.449   9.317  11.759 -0.1930  0.0253  0.0385
 1262W        W 5313   4.181   0.033  13.698 -0.1865 -0.0916 -0.0484
 1263W        W 5314  10.026   6.033  10.888  0.3610 -0.0239 -0.0054
 1264W        W 5315   3.023   9.122   0.357 -0.0197 -0.4076 -0.1536
 1265W        W 5316   1.070   4.635   8.327 -0.0386 -0.1685  0.2251
 1266W        W 5317   6.738   9.193   2.841  0.1410 -0.0407 -0.2685
 1267W        W 5318   3.942   8.290   3.364  0.2305  0.0375  0.0950
 1268W        W 5319   4.371   5.219  12.925  0.0607  0.0163 -0.0191
 1269W        W 5320   8.672   0.018  11.768  0.0820 -0.1327  0.0055
 1270W        W 5321   4.371   3.774   3.538  0.2274 -0.0014 -0.2332
 1271W        W 5322   9.867   5.079   2.004 -0.0301  0.0612  0.0558
 1272W        W 5323   4.226   5.030   3.306  0.4995  0.1862 -0.1414
 1273W        W 5324   3.878   9.495   0.410 -0.0896  0.0209 -0.2004
 1274W        W 5325   5.339   1.465   4.650 -0.3285  0.0842 -0.0028
 1275W        W 5326   7.084   3.758  10.297  0.0941  0.0962  0.0704
 1276W        W 5327   3.912   8.409  11.128  0.0251 -0.0465  0.0886
 1277W        W 5328   7.979   7.727   9.612  0.0686  0.0503  0.0467
 1278W        W 5329   4.022   7.173  10.400  0.3909 -0.0877 -0.1366
 1279W        W 5330   5.010   9.882   3.794  0.1364  0.0044  0.1273
 1280W        W 5331   2.246   8.839   1.781  0.0437 -0.2380  0.0791
 1281W        W 5332   2.239   8.242  10.513 -0.2675 -0.0324 -0.1101
 1282W        W 5333   9.993   3.227  10.368  0.0425  0.1016 -0.0316
 1283W        W 5334   5.303   7.935   0.533  0.0527 -0.2535 -0.1724
 1284W        W 5335   7.046   2.544   2.461  0.0937  0.1940 -0.1557
 1285W        W 5336   0.696   9.961   2.651 -0.2165  0.0299 -0.0212
 1286W        W 5337   5.825   2.015   9.656  0.0211 -0.2265  0.1232
 1287W        W 5338   7.149   4.622  12.712 -0.0927 -0.2560 -0.2003
 1288W        W 5339   1.164   0.822   4.678 -0.0623 -0.0568 -0.1555
 1289W        W 5340   1.542   3.034  12.604  0.1673 -0.1112 -0.0321
 1290W        W 5341   3.302   3.658   2.790 -0.0207 -0.1731 -0.0388
 1291W        W 5342   0.851   2.710  13.157 -0.0332  0.1901 -0.1434
 1292W        W 5343   0.521   4.493   2.237 -0.1760 -0.0141  0.1111
 1293W        W 5344   5.460   0.387   3.652  0.0558  0.2305  0.3877
 1294W        W 5345   0.982   7.240  12.713  0.2544  0.0199  0.2477
 1295W        W 5346   4.549   1.471  11.051 -0.1979  0.0978 -0.0380
 1296W        W 5347   9.447   3.143  11.192  0.1822  0.0674  0.1810
 1297W        W 5348   6.257   1.773  12.213  0.0085 -0.2244 -0.1598
 1298W        W 5349   7.150   4.744   4.187  0.3811  0.0292 -0.0020
 1299W        W 5350   1.970   1.820  12.013 -0.0562 -0.1093  0.2760
 1300W        W 5351   6.129   3.394   9.417 -0.2838  0.1778  0.2232
 1301W        W 5352   3.310   6.304   2.367  0.0161 -0.1596  0.0840
 1302W        W 5353   7.186   5.168  10.507 -0.1094 -0.3381  0.0843
 1303W        W 5354   7.287   6.832   9.222  0.0231  0.0421  0.3413
 1304W        W 5355   6.035   4.299   1.155  0.1054 -0.1770  0.0683
 1305W        W 5356   4.849   8.028  13.730  0.0044 -0.1481 -0.0022
 1306W        W 5357   7.014   5.091   2.312 -0.1506  0.0779  0.2477
 1307W        W 5358   0.053   7.593  13.589 -0.0843 -0.0136  0.0215
 1308W        W 5359   8.153   6.032   0.564 -0.4154  0.1795 -0.0361
 1309W        W 5360   7.729   2.300  13.891  0.2427  0.0997 -0.0804
 1310W        W 5361   8.869   9.066   4.656  0.2365 -0.0173 -0.2288
 1311W        W 5362   5.320   1.841   3.214  0.0390  0.1291  0.2153
 1312W        W 5363   1.171   1.655   3.870 -0.2086  0.1819  0.0172
 1313W        W 5364   5.834   5.630   2.571 -0.0491 -0.1161 -0.0115
 1314W        W 5365   5.650   6.196  13.051  0.1890  0.0490  0.0427
 1315W        W 5366   5.285   2.791   1.010 -0.0288 -0.1234 -0.0267
 1316W        W 5367   6.392   3.349  10.936  0.0831  0.0064  0.1140
 1317W        W 5368   6.202   0.511   2.198 -0.3797  0.1332  0.1183
 1318W        W 5369   5.986   7.806   1.966  0.2909 -0.2829  0.0744
 1319W        W 5370   7.958   3.546  11.938 -0.1724  0.1167 -0.3973
 1320W        W 5371   1.203   5.200   1.567  0.3075 -0.1604 -0.0222
 1321W        W 5372   4.361   6.457   0.912  0.5684 -0.3071  0.2665
 1322W        W 5373   3.321   3.319   8.781 -0.2979 -0.3454 -0.2565
 1323W        W 5374   7.386   1.588  11.020  0.2032  0.3679  0.3669
 1324W        W 5375   5.150   2.322  11.992  0.1962 -0.0436 -0.2484
 1325W        W 5376   8.029   8.527   4.446  0.1010  0.0234 -0.3544
 1326W        W 5377   6.446   4.393  10.444  0.0680  0.1591  0.2637
 1327W        W 5378   3.352   4.762  12.352 -0.1008 -0.0396  0.2321
 1328W        W 5379   6.625   7.974   3.368 -0.0300  0.1191  0.1104
 1329W        W 5380   2.363   6.516   2.321  0.1319 -0.3547  0.0720
 1330W        W 5381   3.728   2.509   2.479 -0.0642  0.0927  0.2094
 1331W        W 5382   0.953   5.645   0.227  0.3047 -0.0579 -0.0603
 1332W        W 5383   0.070   4.258  12.507  0.0195 -0.0734  0.2029
 1333W        W 5384   9.143   1.287  12.698  0.0947  0.0245  0.1270
 1334W        W 5385   6.752   8.146  10.348  0.0976  0.1418 -0.1088
 1335W        W 5386   1.495   6.476  10.805 -0.2496 -0.1952 -0.0633
 1336W        W 5387   3.597   4.024  10.205  0.2158  0.2368 -0.0478
 1337W        W 5388   4.365   8.102   0.504 -0.0913 -0.0345 -0.0139
 1338W        W 5389   4.627   3.644   2.575  0.1701 -0.4515 -0.0803
 1339W        W 5390   8.295   3.750  11.605  0.2147 -0.0864  0.1051
 1340W        W 5391   7.675   8.328  10.951  0.3686  0.0034 -0.2329
 1341W        W 5392   6.601   2.396   9.965 -0.1504  0.3102  0.0724
 1342W        W 5393   1.252   1.365  11.632  0.4112  0.0821  0.2270
 1343W        W 5394   2.876   9.478  13.899  0.0988  0.0167 -0.2149
 1344W        W 5395   8.321   9.781   3.130  0.3121  0.0575  0.1527
 1345W        W 5396   0.328   7.812   2.543 -0.2314  0.0300  0.0823
 1346W        W 5397   0.672   8.116  10.478 -0.0508 -0.2782  0.0473
 1347W        W 5398   9.621   2.647   8.862 -0.0016  0.0537 -0.2564
 1348W        W 5399   2.892   7.306  11.436  0.0324 -0.2956 -0.0577
 1349W        W 5400   7.151   2.577   1.907 -0.1513 -0.0589 -0.0684
 1350W        W 5401   6.238   2.846   3.563 -0.0510  0.3087 -0.1954
 1351W        W 5402   5.401  10.067   1.633  0.0226 -0.3598 -0.0386
 1352W        W 5403   7.573   1.096   3.900  0.1426 -0.0849 -0.1318
 1353W        W 5404   1.889   7.047  10.663 -0.2962 -0.2924  0.2576
 1354W        W 5405   2.441   9.180  10.638 -0.2010 -0.0926 -0.1128
 1355W        W 5406   4.209   2.391   0.256 -0.0972 -0.0089  0.2275
 1356W        W 5407   1.374   7.257  13.071  0.1082 -0.1134  0.0296
 1357W        W 5408   7.397   7.515  11.918 -0.0824  0.0388  0.1244
 1358W        W 5409   3.825   3.007  10.108 -0.0208 -0.3830 -0.2441
 1359W        W 5410   2.625   9.944   2.634 -0.1077 -0.2677 -0.3001
 1360W        W 5411   4.225   8.244   9.913  0.0145 -0.1797 -0.0018
 1361W        W 5412   6.698   3.683   2.255 -0.0700 -0.1231 -0.1171
 1362W        W 5413   9.195   9.358  12.025  0.2313  0.0221  0.3238
 1363W        W 5414   6.009   1.022   3.025 -0.0846 -0.0007  0.0167
 1364W        W 5415   6.333   4.151   3.200 -0.1386  0.2072 -0.1393
 1365W        W 5416   5.966  10.174   3.498 -0.2158 -0.0483 -0.0225
 1366W        W 5417   9.891   4.029  12.209 -0.1130 -0.0730 -0.3233
 1367W        W 5418   3.992   9.631  12.461  0.1832 -0.2824 -0.0083
 1368W        W 5419   6.997   4.519   4.713 -0.0846  0.1027  0.1764
 1369W        W 5420   5.791   4.207   4.032  0.2504 -0.0764 -0.0217
 1370W        W 5421   4.032   8.751   9.717 -0.1443  0.0181  0.1014
 1371W        W 5422   0.245   4.933   2.135 -0.5570 -0.1180 -0.0592
 1372W        W 5423   3.807   4.504  13.793  0.2820 -0.4736 -0.2037
 1373W        W 5424   8.314   9.113  11.789 -0.0523  0.1299  0.0352
 1374W        W 5425   7.628   6.911   9.710 -0.0075 -0.1128  0.0169
 1375W        W 5426   2.412   3.908  12.989  0.0640  0.0171  0.0270
 1376W        W 5427   0.272   4.640   5.697  0.2172 -0.1760  0.1033
 1377W        W 5428   9.361   4.567   4.732  0.2015 -0.0743 -0.0070
 1378W        W 5429   4.834   8.144   0.320  0.0925 -0.0982  0.1183
 1379W        W 5430   1.185   4.130   5.336 -0.1004  0.1259  0.5213
 1380W        W 5431   7.156   6.317  12.677 -0.3182  0.2946  0.2194
 1381W        W 5432   6.474   5.987   1.496  0.0182  0.0393 -0.0480
 1382W        W 5433   6.139   8.251  11.602 -0.0425  0.2099  0.1647
 1383W        W 5434   2.368   0.290  12.295  0.1207  0.1760 -0.2211
 1384W        W 5435   1.438   9.148  12.462  0.6135  0.1222 -0.0151
 1385W        W 5436   6.000   5.449   9.260  0.0973 -0.2941  0.2436
 1386W        W 5437   0.197   5.139   1.674  0.1408 -0.2909  0.2567
 1387W        W 5438   5.647   5.743   1.615  0.2585  0.1679 -0.2947
 1388W        W 5439   0.986   6.359  11.026 -0.2201  0.2058  0.0019
 1389W        W 5440   9.790   7.258   1.862  0.1298 -0.1457 -0.1664
 1390W        W 5441   8.074   3.720   1.874 -0.0423 -0.0493  0.0804
 1391W        W 5442   9.159   9.491   0.025  0.1345  0.1657 -0.0332
 1392W        W 5443   1.785   5.731  12.298  0.0162 -0.0139 -0.0181
 1393W        W 5444   6.730   6.483  11.873 -0.0010  0.1697  0.0906
 1394W        W 5445   7.431   7.071   3.999 -0.0604 -0.2584  0.3611
 1395W        W 5446   6.391   5.759  13.801  0.2807  0.0539  0.1363
 1396W        W 5447   7.726   2.992   2.505 -0.0158 -0.0660 -0.1035
 1397W        W 5448   7.866   0.038   4.014  0.1526  0.1365 -0.1436
 1398W        W 5449   6.872   7.437  11.819  0.2699 -0.0881  0.1481
 1399W        W 5450   5.348   3.446   2.786  0.0640  0.0971 -0.0441
 1400W        W 5451  10.130   2.122   1.101  0.3808 -0.1943 -0.1498
 1401W        W 5452   8.080   7.845   3.840 -0.1535  0.3649  0.0054
 1402W        W 5453   5.956   8.943   0.501  0.2984 -0.0320 -0.2419
 1403W        W 5454   3.483   4.000   4.602 -0.2966 -0.2110  0.1320
 1404W        W 5455   9.653   6.660   0.252 -0.2110 -0.2823  0.0163
 1405W        W 5456   1.073   4.347   9.564 -0.1405 -0.0077 -0.0410
 1406W        W 5457   2.863   9.995  11.709 -0.1943 -0.1192 -0.0349
 1407W        W 5458   6.743   6.951  12.100 -0.1871 -0.3547  0.1219
 1408W        W 5459   1.669   9.978  11.463 -0.0669 -0.1725 -0.1166
 1409W        W 5460   2.949   4.145   0.477  0.2049  0.0170 -0.0601
 1410W        W 5461   2.313   5.528   0.461 -0.0198  0.2648 -0.1696
 1411W        W 5462   5.093   2.567   1.379 -0.0136  0.0388  0.4463
 1412W        W 5463   2.999   7.155   1.922 -0.2993  0.2210  0.0916
 1413W        W 5464   6.383   8.774  10.934  0.2385  0.0782 -0.0830
 1414W        W 5465   1.955   0.572  10.956  0.2176 -0.0303  0.0720
 1415W        W 5466   7.144   2.674  10.087  0.0192  0.0643  0.0389
 1416W        W 5467   7.186   9.969   2.405  0.0087 -0.0772 -0.0881
 1417W        W 5468   0.180   0.917   4.258  0.1399 -0.0788  0.1645
 1418W        W 5469   6.995   4.140   4.333 -0.1377 -0.0797  0.0749
 1419W        W 5470   2.556   5.819   2.221 -0.1928  0.1110 -0.2817
 1420W        W 5471   8.802   6.769   9.443  0.0009 -0.2299 -0.1327
 1421W        W 5472   9.377   8.375  10.031  0.1480  0.0631 -0.0944
 1422W        W 5473   1.888   8.945   1.435 -0.3838  0.0913 -0.0839
 1423W        W 5474   1.331   0.687  11.614 -0.3473 -0.2057 -0.0686
 1424W        W 5475   7.547   3.080  11.957  0.0483  0.1113  0.0149
 1425W        W 5476   2.194   0.746   4.690  0.0455 -0.1502  0.0839
 1426W        W 5477   2.381   8.413  13.064  0.3200  0.0444 -0.1794
 1427W        W 5478   4.889   5.783   9.862  0.1708 -0.3001  0.3024
 1428W        W 5479   1.573   0.503  12.649 -0.1998 -0.0637 -0.1329
 1429W        W 5480   3.252   1.835   2.763 -0.2292  0.2497  0.0759
 1430W        W 5481   6.283   9.768  11.292 -0.2684 -0.1161 -0.0313
 1431W        W 5482   0.635   5.732  12.572 -0.0876  0.2065  0.0080
 1432W        W 5483   7.388   2.342   0.309 -0.1412 -0.1082  0.0816
 1433W        W 5484   6.458   6.621  10.343  0.0452 -0.0024  0.1657
 1434W        W 5485   4.561   5.849   3.958 -0.1190 -0.0212  0.3690
 1435W        W 5486   6.983   6.748  10.476  0.0898 -0.0403 -0.1004
 1436W        W 5487   6.932   3.704   1.115  0.3141 -0.4059  0.0003
 1437W        W 5488   5.473   5.570  11.882 -0.2489 -0.2164  0.0621
 1438W        W 5489   0.825   6.370  11.608  0.0084 -0.2285 -0.1174
 1439W        W 5490   1.058   9.003  13.865 -0.3499 -0.0761 -0.0832
 1440W        W 5491   9.953   8.239   1.186 -0.2160  0.3779  0.0475
 1441W        W 5492   5.641   7.950  13.638 -0.0051 -0.2791 -0.4815
 1442W        W 5493   7.406   6.101   1.388  0.1758 -0.1441  0.3313
 1443W        W 5494   6.455   2.296   0.433  0.0873 -0.3557  0.3231
 1444W        W 5495   2.952   1.903   1.240 -0.1256  0.0284 -0.3564
 1445W        W 5496   9.350   7.990   3.012 -0.0287 -0.2376 -0.1346
 1446W        W 5497   6.556   6.905   3.442 -0.1685 -0.1509  0.0045
 1447W        W 5498   5.054   2.580   3.142 -0.2788  0.0005  0.1318
 1448W        W 5499   1.856   9.681   3.449 -0.0182 -0.0435  0.1176
 1449W        W 5500   7.837   5.648  12.665 -0.3771 -0.2421  0.1623
 1450W        W 5501   6.235   8.313  12.127 -0.0460 -0.0446  0.0124
 1451W        W 5502   9.161   8.388  10.516  0.2086  0.0727 -0.0603
 1452W        W 5503   6.599   8.936   3.315  0.2504  0.3788 -0.3304
 1453W        W 5504   5.060   5.236   3.016  0.0318 -0.3535 -0.1020
 1454W        W 5505   3.610   6.921  13.941  0.0572 -0.1192 -0.1926
 1455W        W 5506   6.599   7.807  10.821 -0.1479 -0.2568  0.1584
 1456W        W 5507   0.462   6.258  12.023 -0.1848 -0.1924 -0.1569
 1457W        W 5508   2.370   4.619   4.201 -0.2883 -0.0403 -0.1925
 1458W        W 5509   3.521   1.334   0.888  0.0416  0.1238  0.0553
 1459W        W 5510   5.781   9.176   1.009  0.4127  0.0881  0.0569
 1460W        W 5511   5.139   7.948  11.041 -0.0148 -0.1194 -0.2045
 1461W        W 5512   2.581   3.386  10.074 -0.1909  0.0051  0.2020
 1462W        W 5513   6.482   5.694   0.923 -0.2400  0.0776  0.1163
 1463W        W 5514   8.986   2.065   2.700  0.0762  0.1220 -0.3054
 1464W        W 5515   6.663   4.960   1.316 -0.2514  0.1616 -0.0598
 1465W        W 5516   9.320   4.939   9.364  0.1406  0.0344 -0.1644
 1466W        W 5517   4.870   1.259   4.668  0.0195 -0.2910  0.0421
 1467W        W 5518   6.381   8.674   0.579  0.0816 -0.3313  0.0302
 1468W        W 5519   3.940   3.986  13.201  0.0852 -0.3054 -0.2940
 1469W        W 5520   7.639   4.643  11.259 -0.0582  0.1154 -0.3129
 1470W        W 5521   5.372   6.728  12.979 -0.0035  0.2304  0.0406
 1471W        W 5522   8.940   2.225   4.315  0.0724  0.4091 -0.0759
 1472W        W 5523   0.614   3.060   1.205  0.2214 -0.1170  0.0101
 1473W        W 5524   4.525   5.583  10.747  0.3498 -0.1615  0.2788
 1474W        W 5525   1.939   3.812   1.586 -0.0642 -0.0955 -0.1563
 1475W        W 5526   4.503   9.727   3.098 -0.1292 -0.0757 -0.2040
 1476W        W 5527   6.530   0.870   0.851 -0.0453 -0.2225  0.2916
 1477W        W 5528   3.236   7.680  13.769 -0.5720 -0.2599 -0.1142
 1478W        W 5529   3.480  10.077   2.696 -0.0746  0.2883 -0.1850
 1479W        W 5530   6.278   3.811   1.915  0.0629  0.0066 -0.3181
 1480W        W 5531   0.909   9.658   0.568  0.0159 -0.0609 -0.2850
 1481W        W 5532   3.804   4.404   2.840  0.2977  0.4414  0.2414
 1482W        W 5533   9.301   9.019  13.917 -0.1721 -0.0522  0.1669
 1483W        W 5534   1.492   1.540   1.204  0.0674 -0.2339  0.1183
 1484W        W 5535   3.703   0.328  10.689  0.1105 -0.1775 -0.0841
 1485W        W 5536   6.131   3.658   0.829 -0.0539 -0.0986 -0.1785
 1486W        W 5537   9.542   8.014  10.328  0.2277  0.3069  0.0927
 1487W        W 5538   2.336   1.512   1.650  0.2727  0.2550  0.3009
 1488W        W 5539   0.939   7.708   2.260 -0.3394 -0.1625  0.0501
 1489W        W 5540   3.941   6.391   0.622 -0.1958  0.2506 -0.1888
 1490W        W 5541   9.861   0.146   5.262  0.0682  0.1833 -0.0860
 1491W        W 5542   0.320   4.716  12.537  0.1118  0.2931 -0.1419
 1492W        W 5543   4.369   6.126   2.070  0.3621 -0.0569  0.0549
 1493W        W 5544   4.351   8.973  10.827 -0.1415  0.0681  0.1979
 1494W        W 5545   9.710   5.059  13.708  0.1885  0.0847 -0.0368
 1495W        W 5546   2.681   7.352  11.884 -0.0034 -0.0001 -0.1886
 1496W        W 5547   5.078   9.421   2.045 -0.2308  0.0321  0.3572
 1497W        W 5548   7.532   1.911   4.427  0.0104 -0.0852 -0.2025
 1498W        W 5549   6.327   7.712   3.669  0.0585  0.0429 -0.0705
 1499W        W 5550   7.239   8.849   1.125 -0.1343 -0.1138  0.0551
 1500W        W 5551   0.519   7.319   2.356  0.1449  0.0853  0.1488
 1501W        W 5552   0.354   0.995  10.366 -0.0754  0.5087 -0.1708
 1502W        W 5553   6.426   3.636   3.105  0.1205  0.0317 -0.4476
 1503W        W 5554   5.536   4.912  13.714 -0.2123  0.1008 -0.7389
 1504W        W 5555   0.407   9.114  13.091 -0.2271  0.2454  0.0920
 1505W        W 5556   5.934   2.493   3.459 -0.0599  0.1427 -0.0039
 1506W        W 5557   9.262   1.899   2.362  0.0700  0.0186 -0.1529
 1507W        W 5558   2.048   9.932  13.170  0.0789  0.0759 -0.0004
 1508W        W 5559   9.662   5.313  11.899 -0.0047 -0.2294  0.1127
 1509W        W 5560   2.881   4.438   4.127 -0.0407 -0.0960 -0.3443
 1510W        W 5561   9.071   1.040   1.849  0.2814 -0.2353  0.2363
 1511W        W 5562   3.276   7.947   3.251  0.3869 -0.0829 -0.2502
 1512W        W 5563   8.409   1.583   3.410 -0.2236  0.1411  0.3128
 1513W        W 5564   5.125   8.830  11.378  0.0654 -0.0034  0.0315
 1514W        W 5565   8.819   5.371  12.429 -0.2092 -0.3917 -0.3530
 1515W        W 5566   8.654   2.807   1.026  0.2604  0.2949  0.0058
 1516W        W 5567   6.037   4.132  10.675 -0.1854 -0.0950  0.2572
 1517W        W 5568   5.657   4.931   3.474 -0.0512 -0.0853 -0.1118
 1518W        W 5569   7.780   7.547   3.587 -0.2625 -0.0079  0.0036
 1519W        W 5570   9.586   1.881  13.839 -0.2256  0.2238  0.1627
 1520W        W 5571   7.821   9.818  10.642 -0.1632 -0.1791 -0.2116
 1521W        W 5572   5.298   4.781   5.639 -0.2725  0.1807  0.1772
 1522W        W 5573  10.094   4.202   1.552  0.2760  0.1850  0.1661
 1523W        W 5574   6.186   3.473  12.508 -0.1069 -0.1796 -0.0707
 1524W        W 5575   0.813   5.002   8.523  0.1871  0.0532  0.0212
 1525W        W 5576   8.155   6.033   3.294 -0.1730  0.0841 -0.0596
 1526W        W 5577   5.182   7.033   9.563  0.0506  0.0423  0.0829
 1527W        W 5578   8.994   7.114   0.311  0.0917 -0.1509  0.1702
 1528W        W 5579   8.924   5.005   4.766 -0.1183  0.0649  0.0242
 1529W        W 5580   4.023   1.650  11.231  0.0902  0.1845  0.2107
 1530W        W 5581   1.535   8.562   1.244 -0.0629  0.0636  0.1264
 1531W        W 5582   2.331   8.005   1.170 -0.0420 -0.0377 -0.0370
 1532W        W 5583   7.018   9.823   1.719  0.1681  0.0864  0.3569
 1533W        W 5584   7.457   7.020   0.965 -0.0491  0.2406 -0.4427
 1534W        W 5585   1.447   0.448  12.126 -0.2506 -0.1889  0.0020
 1535W        W 5586   8.026   2.227   8.987 -0.0840  0.0391 -0.1818
 1536W        W 5587   1.194   5.896  10.932  0.0397  0.0807 -0.1090
 1537W        W 5588   2.647   5.895  13.838  0.3638  0.0569  0.0504
 1538W        W 5589   4.245   1.695  10.009 -0.3023  0.0315 -0.0382
 1539W        W 5590   5.536   4.082  13.192 -0.0470  0.0192 -0.1218
 1540W        W 5591   7.127   7.928  11.737  0.0507  0.1323  0.0872
 1541W        W 5592   1.411   5.136  11.628 -0.2243  0.1547  0.1433
 1542W        W 5593   1.351   0.755   3.622  0.0597  0.1782 -0.0840
 1543W        W 5594   0.064   4.078  10.159 -0.1462  0.1925 -0.0716
 1544W        W 5595   5.253   8.264   0.093 -0.3269 -0.0693  0.2778
 1545W        W 5596   1.650   1.134   3.901  0.3041  0.0897  0.0130
 1546W        W 5597   9.015   1.562   3.540 -0.2700  0.5575 -0.2154
 1547W        W 5598   4.893   5.654   3.652  0.0762 -0.2906  0.2233
 1548W        W 5599   4.783  10.011  11.030 -0.1497 -0.0187  0.0494
 1549W        W 5600   9.949   7.459   0.556  0.1821  0.2066 -0.0058
 1550W        W 5601   6.984   5.531  12.065 -0.1756 -0.1505  0.1734
 1551W        W 5602   0.377   0.356  13.183  0.0102 -0.2283 -0.2349
 1552W        W 5603   8.300   7.859  13.895  0.2593 -0.0117  0.2951
 1553W        W 5604   6.540   9.520   9.976 -0.0126  0.2264  0.0623
 1554W        W 5605   2.140   6.542  13.391 -0.0620  0.1671 -0.1490
 1555W        W 5606   2.756   6.344   9.577  0.1019  0.0300  0.1206
 1556W        W 5607   9.158   0.923  11.520 -0.1703 -0.0625  0.2455
 1557W        W 5608   1.719  10.092   9.863  0.1602 -0.0939  0.1029
 1558W        W 5609   6.034   3.338   3.392  0.0344  0.0255 -0.0257
 1559W        W 5610   9.914   5.818  11.333 -0.0898  0.0596  0.2393
 1560W        W 5611   2.246   6.725  10.850  0.1473 -0.0676 -0.0080
 1561W        W 5612   7.179   1.505  12.489  0.0922 -0.0802 -0.2546
 1562W        W 5613   4.595   2.232  11.243  0.2872  0.0343  0.2786
 1563W        W 5614   1.862   4.281  12.137 -0.2893 -0.1214  0.4902
 1564W        W 5615   0.454   3.610   1.720  0.4704 -0.1352  0.1720
 1565W        W 5616   5.280   9.094  11.795  0.0974  0.0993 -0.0385
 1566W        W 5617   8.958   2.211  13.017  0.0485 -0.2727  0.0572
 1567W        W 5618   9.921   3.281   0.101  0.0722  0.1295  0.0228
 1568W        W 5619   2.199   6.554   4.551  0.2487  0.1310 -0.0813
 1569W        W 5620   9.867   0.010   4.248  0.2404  0.1076 -0.1603
 1570W        W 5621   1.254   1.246   3.506  0.0567  0.0004  0.0081
 1571W        W 5622   8.731   7.900   0.894  0.0818 -0.0026 -0.0804
 1572W        W 5623   6.521   0.177   3.014 -0.1615  0.0240 -0.0908
 1573W        W 5624   0.972   7.129  12.215 -0.1095  0.2966 -0.0828
 1574W        W 5625   0.515   2.921   0.728  0.2069  0.2332  0.0613
 1575W        W 5626   5.905   6.228   9.809  0.2161  0.3026  0.2067
 1576W        W 5627   3.909   2.314   4.292 -0.1063  0.0130 -0.3026
 1577W        W 5628   4.977   0.243   1.641 -0.0315  0.3071  0.1036
 1578W        W 5629   8.157   9.229  11.251  0.0966  0.2298  0.0778
 1579W        W 5630   2.538   2.905   0.254 -0.1348 -0.2218  0.0708
 1580W        W 5631   6.495   0.825  12.585  0.1769  0.4450 -0.0331
 1581W        W 5632   6.052   0.079   2.516 -0.1043  0.0203  0.0304
 1582W        W 5633   2.496   8.467   0.712 -0.0193 -0.2721  0.0467
 1583W        W 5634   2.473   3.367  12.915 -0.0941 -0.2338 -0.0038
 1584W        W 5635   9.494   3.889   8.228  0.0869 -0.0783  0.1225
 1585W        W 5636   7.015   9.016  13.226  0.1368  0.2393  0.1820
 1586W        W 5637   8.925   2.242   2.224 -0.0043 -0.2571 -0.0143
 1587W        W 5638  10.069   7.759  10.226 -0.0914 -0.0876  0.0084
 1588W        W 5639   0.652   6.255   2.683  0.1677  0.0596  0.0938
 1589W        W 5640  10.008   5.218   0.143 -0.1997 -0.0737  0.3951
 1590W        W 5641   7.200   8.246  12.143 -0.1173  0.3687  0.2303
 1591W        W 5642   1.446   8.190   2.748 -0.1987  0.0237  0.1584
 1592W        W 5643   5.340   4.271  12.224  0.0862  0.1136 -0.2780
 1593W        W 5644   4.616   8.062   2.530 -0.1716 -0.1770 -0.0536
 1594W        W 5645   6.215   8.183   9.784  0.2289 -0.1402  0.2041
 1595W        W 5646   2.269   9.704   0.146  0.0960  0.0998 -0.0431
 1596W        W 5647   6.859   8.624   3.016 -0.1785  0.0246  0.4346
 1597W        W 5648   9.710   9.681   4.165 -0.0060 -0.2222  0.2151
 1598W        W 5649   3.645   1.584  12.867 -0.1576  0.0003  0.1111
 1599W        W 5650   4.495   4.959   8.900 -0.1465 -0.0100  0.3663
 1600W        W 5651   9.863   4.495   2.795 -0.2332 -0.0970 -0.2695
 1601W        W 5652   0.366   5.951   1.264  0.0036  0.0405 -0.1194
 1602W        W 5653   6.559   9.490   3.244  0.0163 -0.1193  0.2178
 1603W        W 5654   9.171   0.915   4.617 -0.2620  0.0127  0.1427
 1604W        W 5655   2.752   9.584  11.333 -0.0989 -0.2444  0.1798
 1605W        W 5656   0.990   5.315   2.643 -0.0527  0.2295  0.2598
 1606W        W 5657   3.263   0.310   1.302 -0.0857 -0.2072 -0.0342
 1607W        W 5658   5.791   0.791   3.732  0.3538  0.2798  0.0463
 1608W        W 5659   9.817   9.715   0.700  0.2429  0.0435  0.0012
 1609W        W 5660   7.728   4.101  10.125 -0.0869  0.1025  0.1039
 1610W        W 5661   0.325   4.251   2.712 -0.0428 -0.1383 -0.1812
 1611W        W 5662   1.837   6.652   9.861 -0.1457  0.4615  0.3831
 1612W        W 5663   1.184   8.681  10.776 -0.2201 -0.0309  0.3044
 1613W        W 5664   8.532   9.862   1.388  0.2300 -0.0863  0.0593
 1614W        W 5665   1.408   0.327  10.715 -0.0695 -0.4286 -0.0382
 1615W        W 5666   3.134   3.950  13.482  0.1107  0.0110 -0.1453
 1616W        W 5667   2.791   0.117   0.619 -0.1970  0.1812 -0.1125
 1617W        W 5668   8.344   9.757  10.323 -0.0804 -0.2152 -0.2197
 1618W        W 5669   7.105   1.960  13.411  0.3280  0.0571  0.3075
 1619W        W 5670   0.300   8.685   0.710 -0.2277 -0.2217  0.0166
 1620W        W 5671   2.585   9.124  12.809  0.0715 -0.0253 -0.1402
 1621W        W 5672   3.772   6.315  11.834  0.2291 -0.1954 -0.1147
 1622W        W 5673   3.478   5.394   9.376 -0.0797 -0.0999  0.1389
 1623W        W 5674   4.181   9.254   0.034  0.2183  0.3576 -0.0094
 1624W        W 5675   7.811   3.061   4.627  0.0711  0.1890 -0.2519
 1625W        W 5676   3.045   7.154  10.920 -0.1315 -0.1114  0.0718
 1626W        W 5677   2.087   9.429  13.172 -0.2052  0.2426 -0.0049
 1627W        W 5678   3.323   1.834   1.887 -0.3669 -0.0384  0.1553
 1628W        W 5679   3.497   0.738   1.550 -0.0812  0.0339 -0.0436
 1629W        W 5680   8.563   2.938  12.979  0.2314  0.0148  0.0768
 1630W        W 5681   1.706   0.134   4.118  0.1688  0.5415  0.1438
 1631W        W 5682   7.388   1.493   0.115  0.2354 -0.2460 -0.2363
 1632W        W 5683   0.676   8.473  11.449  0.0270  0.0047 -0.0653
 1633W        W 5684   4.368   9.920  12.788 -0.0257 -0.2388  0.0014
 1634W        W 5685   0.997   9.211  11.863 -0.1816 -0.0748 -0.1565
 1635W        W 5686   2.455   6.054  13.352 -0.0228  0.1698  0.3891
 1636W        W 5687   9.413   1.610   0.686  0.0363 -0.4012  0.1714
 1637W        W 5688   6.333   6.273   0.020 -0.0977 -0.0659 -0.0334
 1638W        W 5689   1.723   6.445   8.525  0.1392 -0.1280  0.0452
 1639W        W 5690   8.127   9.955  13.817 -0.0281 -0.1765  0.0880
 1640W        W 5691   5.531   5.052  12.107 -0.0628  0.1045 -0.0215
 1641W        W 5692   5.583   5.950  11.097  0.1566 -0.1400 -0.1317
 1642W        W 5693   5.586   3.331   9.515  0.1081  0.2859  0.2020
 1643W        W 5694   9.443   5.237  10.854  0.1186  0.5230 -0.3342
 1644W        W 5695   0.155   5.628  12.529  0.3651 -0.1718  0.0299
 1645W        W 5696  10.159   0.797  11.318 -0.2556 -0.5682  0.1100
 1646W        W 5697   4.255   2.294   3.416 -0.2509  0.0217  0.2362
 1647W        W 5698   4.196   3.264   0.073  0.1743  0.2612 -0.0213
 1648W        W 5699   8.500   9.905  13.478 -0.1767 -0.1446  0.0788
 1649W        W 5700   3.706   6.375   4.125  0.0468 -0.1868 -0.0418
 1650W        W 5701   1.068   6.608  10.136  0.1708 -0.0485  0.1001
 1651W        W 5702   5.523   2.154  13.718 -0.0416 -0.2274  0.1032
 1652W        W 5703   4.089   9.580   0.925 -0.1015 -0.1913 -0.0910
 1653W        W 5704   0.945   0.033   5.127 -0.0952 -0.0539  0.1431
 1654W        W 5705   0.299   4.814   9.561  0.1130  0.1121 -0.4446
 1655W        W 5706   7.015   1.964   9.696 -0.0739  0.1304 -0.1439
 1656W        W 5707   2.925   2.365   3.675  0.3099  0.1336 -0.0618
 1657W        W 5708   2.477   0.548   9.662 -0.0189  0.0951  0.0128
 1658W        W 5709   1.953   6.370  11.036 -0.1494  0.1548 -0.1091
 1659W        W 5710   1.587   6.003   1.373 -0.0424  0.1661  0.2706
 1660W        W 5711   1.508   6.881  13.929 -0.3789 -0.1202  0.3079
 1661W        W 5712   4.504   7.978  11.554  0.0866  0.5083 -0.0470
 1662W        W 5713   2.791   6.540   3.763  0.2728 -0.1093  0.0880
 1663W        W 5714   4.978   7.669   1.747 -0.0707 -0.0392  0.0276
 1664W        W 5715   2.465   2.079  10.678  0.2324  0.0942 -0.2999
 1665W        W 5716   7.573   7.242   4.428 -0.0400  0.2346 -0.0105
 1666W        W 5717   9.193   6.705   0.062  0.2269  0.0967 -0.2174
 1667W        W 5718   8.726   5.898   1.064 -0.1403  0.3548 -0.1009
 1668W        W 5719   6.777   1.151   4.082 -0.0855 -0.0090 -0.0651
 1669W        W 5720   8.214   0.076  12.641 -0.1691 -0.1307 -0.2088
 1670W        W 5721   6.593   0.011  10.543 -0.5612 -0.2121  0.0670
 1671W        W 5722   9.929   4.622  13.803 -0.2211  0.1475  0.0068
 1672W        W 5723   8.268   7.714   2.907 -0.0084 -0.0423  0.2615
 1673W        W 5724   7.814   3.996   0.566 -0.1892  0.0349 -0.0339
 1674W        W 5725   8.178   1.549   4.729 -0.3005  0.0095  0.0399
 1675W        W 5726   3.341   4.270   2.842  0.3306 -0.4234  0.0524
 1676W        W 5727   8.924  10.166  12.681  0.0570 -0.0016  0.1409
 1677W        W 5728   1.523   4.745   2.454  0.1403  0.2511 -0.1145
 1678W        W 5729   8.814   3.933   0.508 -0.0627 -0.0797 -0.0854
 1679W        W 5730   0.801   3.313   0.747 -0.2464  0.2930 -0.1626
 1680W        W 5731   0.249   4.047   1.046  0.1358  0.1046 -0.0792
 1681W        W 5732   8.412   7.830   1.295  0.1833 -0.3364 -0.0901
 1682W        W 5733   1.400   7.621  12.757 -0.3074  0.2220  0.2025
 1683W        W 5734   9.506   9.694  10.447 -0.1753  0.4225 -0.2329
 1684W        W 5735   9.404   5.364   9.086  0.0290 -0.3009  0.1806
 1685W        W 5736   6.490   9.188   1.838  0.2463 -0.0893  0.4224
 1686W        W 5737   5.030   2.978   0.548 -0.2875 -0.1097 -0.2967
 1687W        W 5738   5.504   4.260   4.930 -0.0422  0.0684  0.5560
 1688W        W 5739   0.937   9.170   0.454  0.2631  0.2339 -0.2022
 1689W        W 5740   3.007   5.919   1.278  0.2444 -0.1646 -0.0500
 1690W        W 5741   3.618   6.847   4.181 -0.2372 -0.0048 -0.1298
 1691W        W 5742   4.988   6.961   2.482  0.3335 -0.4380  0.2199
 1692W        W 5743   9.805   7.265   3.954 -0.2122  0.2386  0.0422
 1693W        W 5744   1.698   3.913   4.099 -0.1528 -0.1803  0.2438
 1694W        W 5745   9.552   4.331  12.447  0.0412  0.1844 -0.2596
 1695W        W 5746   4.130   4.235  13.615 -0.0749  0.2821  0.1261
 1696W        W 5747   2.634   2.389  10.294  0.0441  0.2912 -0.1066
 1697W        W 5748   9.180   1.670   5.146 -0.0525  0.2927 -0.0329
 1698W        W 5749   5.891   3.037  10.381  0.0944  0.2096 -0.1708
 1699W        W 5750   4.362   8.095  12.063  0.0108 -0.0927 -0.0962
 1700W        W 5751   0.026   3.503   9.224  0.2093 -0.0357 -0.3142
 1701W        W 5752   6.320   6.537  11.465  0.2336 -0.1190 -0.3854
 1702W        W 5753   6.753   9.168  11.803 -0.0693  0.1870 -0.0269
 1703W        W 5754   8.115   2.824  10.229  0.1184 -0.2028  0.1030
 1704W        W 5755   8.904  10.121   4.046 -0.1333  0.0300 -0.1657
 1705W        W 5756   0.567  10.032   3.443 -0.0465 -0.1595 -0.1745
 1706W        W 5757   3.712   3.529   1.611  0.2566  0.0830 -0.2070
 1707W        W 5758  10.003   2.578   3.350 -0.2134  0.1421  0.1467
 1708W        W 5759   9.054   9.095   3.337  0.1911 -0.1034  0.0386
 1709W        W 5760   7.281   8.195   2.339 -0.0560  0.3736 -0.0482
 1710W        W 5761   7.052   1.187  10.901  0.3990 -0.1075  0.2983
 1711W        W 5762   1.671  10.135   2.478  0.1023 -0.1485  0.0661
 1712W        W 5763   8.497   6.398   5.027  0.2320  0.1268  0.0629
 1713W        W 5764   7.431   5.431  12.322  0.0154  0.1887  0.1442
 1714W        W 5765   7.859   5.102  13.388 -0.0362  0.2397  0.2039
 1715W        W 5766   9.268   1.236   3.275  0.0309 -0.0942 -0.0071
 1716W        W 5767   7.500   8.334  10.443  0.1513 -0.2088 -0.0241
 1717W        W 5768   5.279   0.671  11.110 -0.1099  0.0522  0.0368
 1718W        W 5769   9.593   1.855  12.914 -0.2360 -0.4908 -0.1240
 1719W        W 5770   6.165   2.529   5.411  0.0076  0.0785  0.0861
 1720W        W 5771   9.091   5.965  11.479  0.2004 -0.0316 -0.2841
 1721W        W 5772   1.401   9.825   0.896  0.1564 -0.2147 -0.0732
 1722W        W 5773   6.239   7.609  11.419  0.2932  0.3326 -0.0474
 1723W        W 5774   3.894   4.751   4.860  0.2219 -0.4568 -0.0746
 1724W        W 5775   9.580   4.348   2.399 -0.0705  0.0137 -0.0102
 1725W        W 5776   9.765   2.611   0.673 -0.2060  0.0789  0.2153
 1726W        W 5777   2.212   8.425   3.380  0.1347  0.0191  0.1670
 1727W        W 5778   1.434   3.804   1.094 -0.1371 -0.1874  0.3401
 1728W        W 5779   9.797   4.026  11.009 -0.0826 -0.1629  0.1431
 1729W        W 5780   7.099   0.872   5.111 -0.1769  0.0984 -0.1640
 1730W        W 5781  10.197   4.583   0.305  0.2714 -0.0481 -0.1254
 1731W        W 5782   9.994   7.072   3.043  0.1813 -0.0754  0.2594
 1732W        W 5783   3.879   3.053  12.465 -0.0247 -0.2355 -0.2810
 1733W        W 5784   0.812   6.076  12.266  0.2163  0.1444  0.0722
 1734W        W 5785   9.651   5.398   8.612 -0.0058 -0.2446  0.0103
 1735W        W 5786   5.469   5.667  13.866  0.4564 -0.0210 -0.1076
 1736W        W 5787   7.577   1.425   4.587  0.3973  0.0643 -0.4089
 1737W        W 5788   4.529  10.061  11.872  0.2884 -0.2586  0.0850
 1738W        W 5789   6.180   2.384   9.696  0.0545  0.2094 -0.2416
 1739W        W 5790   2.763   8.336  11.467  0.0089 -0.0162 -0.0396
 1740W        W 5791   1.390   1.575   9.479  0.0374 -0.1909  0.2530
 1741W        W 5792   8.110   4.485   0.387 -0.2541 -0.2137  0.0777
 1742W        W 5793   0.485   4.366  12.233 -0.0439 -0.2254  0.0237
 1743W        W 5794   6.096   7.151  10.404 -0.1733  0.2288 -0.3266
 1744W        W 5795   5.381   0.746  13.072 -0.2561 -0.0206 -0.2256
 1745W        W 5796   0.786   1.846   1.199  0.0412 -0.2811  0.1216
 1746W        W 5797   9.180   5.394   5.236  0.2355 -0.0201  0.2827
 1747W        W 5798   7.317   7.123   1.855  0.0771  0.1695 -0.2569
 1748W        W 5799  10.064   6.284  13.538  0.0528  0.0064 -0.4412
 1749W        W 5800   4.825   3.388   4.937 -0.0910  0.5692  0.3747
 1750W        W 5801   6.521   3.250   3.530 -0.0904 -0.2018  0.2367
 1751W        W 5802   8.899   2.076  10.002 -0.3480  0.1087  0.2554
 1752W        W 5803   4.661   4.644   3.620 -0.2248 -0.3261 -0.2791
 1753W        W 5804   0.761   6.778  12.464  0.4167  0.1503  0.3400
 1754W        W 5805   7.977   7.870   3.294 -0.0379  0.1049  0.0347
 1755W        W 5806   5.029   8.522   9.682 -0.1412  0.1658  0.1261
 1756W        W 5807   1.550   4.404   9.097 -0.0680  0.0778 -0.1602
 1757W        W 5808   8.237   8.911  12.232  0.0339  0.3645 -0.1947
 1758W        W 5809   5.700   6.404   3.220 -0.0325 -0.1701  0.2190
 1759W        W 5810   9.598   5.609  13.179 -0.1573  0.0822 -0.0564
 1760W        W 5811   4.733   3.243   1.780  0.3170  0.2059  0.0134
 1761W        W 5812   8.772   8.612   1.985  0.0702 -0.1909  0.1801
 1762W        W 5813   2.406  10.108   1.073  0.1057 -0.2244  0.2143
 1763W        W 5814   3.473   6.289   0.833 -0.0613 -0.0773 -0.0842
 1764W        W 5815   5.384   5.469   2.222  0.2702 -0.0579  0.2737
 1765W        W 5816   1.743   7.319   4.923  0.1409  0.1382 -0.1143
 1766W        W 5817   4.498   3.582   4.516 -0.1446 -0.2315 -0.1498
 1767W        W 5818   9.086   2.578   2.735 -0.1056 -0.0567 -0.0301
 1768W        W 5819   0.475   2.017   1.975 -0.0630  0.1997 -0.2836
 1769W        W 5820   9.557   6.364  12.593  0.0202  0.2624 -0.1803
 1770W        W 5821   8.503   8.786  13.604  0.1973  0.1043  0.1211
 1771W        W 5822   5.988   2.437   0.417  0.2691 -0.2192  0.0071
 1772W        W 5823   6.067   4.210  11.236  0.2694  0.0752 -0.2290
 1773W        W 5824   9.068   7.941  12.064  0.0247  0.1337 -0.1060
 1774W        W 5825   7.796   2.716   3.870 -0.0115 -0.0485  0.1988
 1775W        W 5826   5.694   9.665   3.877 -0.0276 -0.0310 -0.0421
 1776W        W 5827   3.328   0.442   2.663 -0.6630  0.4640  0.2670
 1777W        W 5828   2.535   2.783  11.951 -0.0952 -0.1213  0.1292
 1778W        W 5829  10.091   5.405  11.002  0.1541  0.5566  0.1348
 1779W        W 5830   0.043   9.221   0.033  0.2044 -0.1374  0.0036
 1780W        W 5831   3.193   5.204   3.841 -0.1810  0.0818  0.2731
 1781W        W 5832   9.378   6.788  12.833  0.0294  0.0458  0.1034
 1782W        W 5833   2.483   5.256  11.395  0.3572 -0.1082  0.1096
 1783W        W 5834   5.988   0.749  10.235  0.1742  0.0284 -0.1597
 1784W        W 5835   4.935   0.016  13.347  0.3028  0.2168  0.2544
 1785W        W 5836   7.323   9.048   2.731  0.0142  0.1140  0.0352
 1786W        W 5837   2.579   1.076   9.658  0.1945  0.1629 -0.2348
 1787W        W 5838   3.831   6.458   2.769 -0.0822  0.1573  0.2274
 1788W        W 5839   5.812   4.075   3.291 -0.1064  0.2125 -0.3084
 1789W        W 5840   0.505   0.008  13.544  0.0973 -0.2103  0.0739
 1790W        W 5841   7.479   2.728   4.795  0.2237 -0.4002  0.0080
 1791W        W 5842   3.863   2.096  10.685  0.0247 -0.0363 -0.2886
 1792W        W 5843   0.593   0.801  13.052 -0.1857 -0.3394  0.0713
 1793W        W 5844   7.863   2.859   9.732  0.2759  0.1884 -0.2945
 1794W        W 5845   1.455   5.829   0.386 -0.1695  0.0375  0.0736
 1795W        W 5846   0.259   2.219   1.552  0.0193 -0.0989 -0.0896
 1796W        W 5847   9.026   2.666   1.978  0.2373 -0.0027  0.2763
 1797W        W 5848   3.495   7.954  10.993  0.0903 -0.0466  0.0020
 1798W        W 5849   5.852   6.802   2.833  0.1108  0.1620  0.2844
 1799W        W 5850   5.466   3.374  12.623  0.3258 -0.3263 -0.1753
 1800W        W 5851   8.524   4.452   5.314  0.2644 -0.1586 -0.3223
 1801W        W 5852   4.253   3.543   3.938 -0.3345 -0.1461 -0.3361
 1802W        W 5853   9.055   2.514  11.892 -0.0241  0.1275 -0.4547
 1803W        W 5854   2.973   8.736   0.681 -0.3118 -0.2874  0.0539
 1804W        W 5855   3.499   0.001  12.924  0.0375  0.0664  0.3092
 1805W        W 5856   8.138   9.272   3.749 -0.0935  0.1839 -0.0964
 1806W        W 5857   9.540   8.067   1.490  0.1070  0.1788  0.2293
 1807W        W 5858   0.055   6.584   3.927 -0.3265  0.3718 -0.2460
 1808W        W 5859   6.348   3.729   3.656  0.1590 -0.3176  0.0706
 1809W        W 5860   3.193   7.608  12.685  0.1073  0.1072  0.2791
 1810W        W 5861   9.201   3.940   2.362 -0.1486 -0.3621  0.1247
 1811W        W 5862   7.472   9.333   0.935  0.0386 -0.0615  0.0210
 1812W        W 5863   9.114   6.214   1.361  0.1579  0.3383 -0.1599
 1813W        W 5864   7.936   0.300   2.865 -0.1913  0.2667  0.1662
 1814W        W 5865   0.108   4.912   5.187  0.0356 -0.3726 -0.2247
 1815W        W 5866   0.366   1.689  13.731 -0.3172 -0.0286 -0.2325
 1816W        W 5867   9.979   9.846   3.780  0.0035  0.0389 -0.0502
 1817W        W 5868   4.635   2.784  11.055  0.1540  0.1534 -0.3333
 1818W        W 5869   8.473   1.014   3.388  0.1126  0.0359 -0.3484
 1819W        W 5870   2.007   9.122  10.878 -0.1164  0.0764 -0.0554
 1820W        W 5871   3.668   5.144  11.052 -0.1672 -0.0445  0.2605
 1821W        W 5872   9.022   9.767   2.831  0.1891 -0.0526  0.3276
 1822W        W 5873   8.393   4.406  13.885  0.1115 -0.1247  0.1597
 1823W        W 5874   9.470   3.323   8.165  0.2164 -0.4124 -0.1919
 1824W        W 5875   4.163   4.571  10.393  0.1061  0.1361  0.2979
 1825W        W 5876   3.696   7.360  12.506 -0.2923 -0.2353  0.3806
 1826W        W 5877   1.227   0.564  10.211  0.1972  0.0740 -0.0281
 1827W        W 5878   5.291   0.089  11.157 -0.4239  0.1774  0.2065
 1828W        W 5879   8.104   1.935  12.668 -0.1492 -0.0187 -0.3575
 1829W        W 5880   7.708   4.687   0.559 -0.1494 -0.3327  0.0448
 1830W        W 5881   5.989   6.201  12.540  0.0055 -0.0231 -0.0795
 1831W        W 5882   5.111   1.650   2.815 -0.4145 -0.0924  0.0200
 1832W        W 5883   6.221   3.975  10.207  0.1806 -0.0153  0.2109
 1833W        W 5884   0.574   3.418   0.316 -0.0039 -0.1942 -0.0785
 1834W        W 5885   8.863   8.132  10.793  0.0476 -0.3023 -0.4331
 1835W        W 5886   6.397   6.869  10.775  0.0605 -0.0738  0.0213
 1836W        W 5887   9.885   4.460  11.437 -0.1939  0.0518  0.3538
 1837W        W 5888   6.223   2.260  11.762 -0.1372  0.1901 -0.1018
 1838W        W 5889   0.652   8.784  11.031 -0.1226  0.2558  0.3768
 1839W        W 5890   6.897   6.001   1.246 -0.0437  0.0085  0.1355
 1840W        W 5891   2.306   6.225  13.745 -0.1960 -0.1244 -0.0951
 1841W        W 5892   2.664   1.161   1.504  0.1166  0.0410  0.0315
 1842W        W 5893   0.991   3.029   8.860  0.0016  0.0784  0.2520
 1843W        W 5894   3.264   6.141  10.189  0.0165  0.0917 -0.1137
 1844W        W 5895   9.039   4.626   1.556 -0.0328  0.0626 -0.0673
 1845W        W 5896   0.493   2.442   0.548  0.0755 -0.4519 -0.0074
 1846W        W 5897   9.666   4.830   0.237  0.0271  0.2714  0.2291
 1847W        W 5898   4.901   4.756  11.581  0.1761 -0.1111  0.1450
 1848W        W 5899   1.330   7.601   0.964 -0.2710  0.1282 -0.0813
 1849W        W 5900   8.846   3.334   9.852  0.3053  0.1412 -0.1724
 1850W        W 5901   3.058   5.755   2.136 -0.0513  0.0484  0.1788
 1851W        W 5902   9.150   3.686  10.469 -0.0927  0.2006  0.3450
 1852W        W 5903   0.766   4.087   3.647 -0.0279  0.0245 -0.1750
 1853W        W 5904   5.963   9.807   2.742  0.0820  0.2009 -0.1590
 1854W        W 5905   4.484   6.916  10.348 -0.2986  0.0611 -0.3509
 1855W        W 5906   1.940   6.970   2.495 -0.0755 -0.3774 -0.2677
 1856W        W 5907   9.202   6.315  12.986  0.3223  0.2089  0.0604
 1857W        W 5908   2.661   7.791  11.544  0.1375  0.3127 -0.1765
 1858W        W 5909   6.833   4.350  10.155 -0.2522  0.1239 -0.0383
 1859W        W 5910   4.444   2.647  13.212 -0.1044  0.1232  0.1793
 1860W        W 5911   6.642   9.663   3.957  0.0827  0.1840  0.2528
 1861W        W 5912   2.457   4.905  13.459  0.1343  0.1555  0.0934
 1862W        W 5913   1.087   0.173   4.280 -0.1593 -0.1547 -0.0590
 1863W        W 5914   1.326   8.777   0.795 -0.0934 -0.1473 -0.3588
 1864W        W 5915   4.574   0.307   3.459  0.5523  0.1853 -0.2120
 1865W        W 5916   0.052   7.431   2.729  0.0825  0.0206  0.1486
 1866W        W 5917   7.677   7.826   2.367 -0.0098 -0.0611 -0.0835
 1867W        W 5918   5.640   4.196   9.006 -0.2045 -0.0519  0.0342
 1868W        W 5919   0.993   7.124  11.265 -0.1124 -0.0793 -0.1667
 1869W        W 5920   7.416   3.394   2.491  0.1375  0.4185  0.0585
 1870W        W 5921   3.079   4.957   2.528  0.0039  0.1130 -0.3968
 1871W        W 5922   2.381   7.251  10.989  0.0599 -0.2407  0.1654
 1872W        W 5923   5.779   1.276   2.714 -0.0320  0.1892 -0.1367
 1873W        W 5924   7.271   1.855   4.938 -0.2165  0.0221  0.0067
 1874W        W 5925   5.238   2.456   4.512 -0.1575 -0.0496 -0.0286
 1875W        W 5926   1.541   2.900   4.097 -0.0957 -0.0534 -0.5463
 1876W        W 5927   7.388   5.756  10.498  0.0973  0.0497 -0.4837
 1877W        W 5928   7.851   4.757   0.079  0.1447  0.0186 -0.0668
 1878W        W 5929   4.998   5.528  12.113  0.1795  0.0219 -0.4767
 1879W        W 5930   0.514   3.097   5.505 -0.1332 -0.0639 -0.0194
 1880W        W 5931   1.374   8.443   9.628 -0.1093 -0.1822  0.1473
 1881W        W 5932   6.300   1.791   4.761 -0.0546 -0.2354  0.2243
 1882W        W 5933   3.687   0.417  11.772 -0.2198 -0.1285 -0.3006
 1883W        W 5934   4.377   5.499   2.519  0.0196  0.0241 -0.1345
 1884W        W 5935   6.395   3.464  10.168  0.2530  0.1922  0.1777
 1885W        W 5936   3.506   9.593   2.653  0.1220 -0.1213 -0.0733
 1886W        W 5937   5.379   9.501  10.501 -0.2166  0.0505  0.3740
 1887W        W 5938   0.201   9.547   1.308  0.0066  0.0673  0.2969
 1888W        W 5939   2.621   1.295   1.990  0.0966 -0.1051 -0.0413
 1889W        W 5940   0.308   1.702  12.925 -0.2990 -0.3462 -0.0201
 1890W        W 5941   4.296   4.630   0.036 -0.0529 -0.2483  0.0190
 1891W        W 5942   1.106   3.181  11.672  0.0384  0.1696  0.0624
 1892W        W 5943   4.301   5.870  11.079  0.2185  0.3325 -0.0323
 1893W        W 5944   2.645   3.647  11.455 -0.3525  0.1082  0.1669
 1894W        W 5945   8.348   0.833  12.141 -0.0765  0.1014  0.0094
 1895W        W 5946   6.849   2.906  11.529 -0.0610  0.0385  0.0212
 1896W        W 5947   9.935   0.352  11.291  0.1951 -0.2218  0.0797
 1897W        W 5948   4.933   6.694  11.949  0.2868 -0.0882  0.2859
 1898W        W 5949   5.454   8.761   0.135  0.2179 -0.1810 -0.2265
 1899W        W 5950   7.053   3.588   5.356  0.0976 -0.0093 -0.0081
 1900W        W 5951   2.557   3.842   3.269 -0.1178  0.0908  0.2310
 1901W        W 5952   2.157   3.058  12.253 -0.0081  0.3413 -0.0010
 1902W        W 5953   9.975   7.500  11.154 -0.1797  0.0587  0.1902
 1903W        W 5954  10.029   9.637   0.231 -0.1950 -0.0251  0.0368
 1904W        W 5955   3.771   6.107   1.875  0.1991 -0.0859 -0.0561
 1905W        W 5956   8.169   7.791  11.511 -0.5588 -0.2819  0.4860
 1906W        W 5957   9.118   7.691  12.897  0.0721  0.1188  0.0469
 1907W        W 5958   6.694   4.379   2.865 -0.2896 -0.2870  0.1950
 1908W        W 5959   7.126   2.397  13.229 -0.0996 -0.0701  0.0299
 1909W        W 5960   1.525   1.758   9.965  0.1180 -0.3093 -0.0037
 1910W        W 5961   4.958   6.690   0.354 -0.0583  0.3006 -0.0343
 1911W        W 5962   9.616   8.828   3.844 -0.0447 -0.0465 -0.2180
 1912W        W 5963   2.640   4.338   1.377 -0.2201 -0.1085 -0.0708
 1913W        W 5964   8.776   1.399   3.119 -0.2560 -0.0338  0.0729
 1914W        W 5965   4.300   1.360   0.160  0.5452  0.2672 -0.1661
 1915W        W 5966   2.824   8.018  13.654 -0.1428  0.0107  0.2158
 1916W        W 5967   5.204   3.113   2.240 -0.0397 -0.1255  0.0468
 1917W        W 5968   9.800   0.890   0.216 -0.3048 -0.0292  0.0177
 1918W        W 5969   8.939   1.096   1.368 -0.1799 -0.0171 -0.3027
 1919W        W 5970   0.029   6.439  13.063  0.1385 -0.3171 -0.2091
 1920W        W 5971   3.499   5.319   1.318  0.0480  0.1246  0.0326
 1921W        W 5972   1.413   1.309  12.920  0.0785  0.2044  0.1194
 1922W        W 5973   0.478   4.434   3.816  0.0764 -0.1980  0.0338
 1923W        W 5974   0.513   6.959   4.241  0.1749 -0.2460  0.2362
 1924W        W 5975   7.707   0.843   3.420  0.1234 -0.1562  0.1112
 1925W        W 5976   0.794   3.991   1.149  0.1903  0.1953  0.1018
 1926W        W 5977   2.857   2.406   0.371  0.0903 -0.0523  0.0101
 1927W        W 5978   4.824   0.255   0.103  0.0315 -0.0977  0.1239
 1928W        W 5979   8.434   2.174   2.171  0.3228  0.1300  0.0409
 1929W        W 5980   1.048   3.873   9.319 -0.1282  0.0675  0.2614
 1930W        W 5981   5.577   2.732  12.955 -0.0618  0.2227  0.0216
 1931W        W 5982   8.689   9.704  10.681  0.0050 -0.0025  0.1445
 1932W        W 5983   1.341   8.904  12.051 -0.0851 -0.1215  0.0547
 1933W        W 5984   4.226   5.985   2.927  0.0214 -0.0201  0.1503
 1934W        W 5985   2.572   1.998   3.506  0.0392  0.1760 -0.0287
 1935W        W 5986   0.842   1.866   3.586 -0.0133  0.0491  0.0357
 1936W        W 5987   9.792   2.050   3.737  0.2192 -0.0948 -0.3314
 1937W        W 5988   1.201   7.947   1.458  0.2127 -0.3752  0.1764
 1938W        W 5989   1.442   6.180  12.295 -0.1513 -0.1450 -0.2324
 1939W        W 5990   1.012   8.021   9.989  0.0777  0.0056  0.0013
 1940W        W 5991   2.049   4.454   0.701  0.1073  0.1965 -0.0468
 1941W        W 5992   8.394   8.970   2.690 -0.0143 -0.3549  0.2684
 1942W        W 5993   1.298   2.072   9.193  0.0428 -0.0277  0.0026
 1943W        W 5994   2.397   5.596   1.790 -0.2487  0.0144 -0.6221
 1944W        W 5995   7.938   4.622  13.158 -0.0688 -0.3350  0.0007
 1945W        W 5996   3.260   8.473   1.547  0.0614  0.2109  0.0901
 1946W        W 5997   2.851   9.099  11.468  0.0245 -0.0191  0.1281
 1947W        W 5998   3.416   2.430  10.013 -0.0171  0.1704 -0.1105
 1948W        W 5999   8.144   8.472  13.388  0.0744 -0.1041 -0.1406
 1949W        W 6000   7.048   2.471   9.665 -0.0374  0.1102  0.2257
 1950W        W 6001   4.118   3.681  13.649 -0.1172 -0.0487 -0.0940
 1951W        W 6002   6.174   8.686  10.119  0.0508 -0.0959 -0.0000
 1952W        W 6003   2.760   1.177  13.212 -0.0434  0.0723  0.4566
 1953W        W 6004   3.907   4.410   1.136 -0.2242  0.1856  0.1581
 1954W        W 6005   8.833   9.906   1.756 -0.2499  0.1654  0.2038
 1955W        W 6006   6.037   1.555   5.113 -0.4878  0.2880  0.3200
 1956W        W 6007   6.861   6.528   9.477  0.0633  0.1500 -0.1731
 1957W        W 6008   6.430   7.495   9.570  0.2856 -0.0168  0.2715
 1958W        W 6009   7.544   1.247  13.185  0.1677  0.3118 -0.1183
 1959W        W 6010   0.806   0.717   4.353  0.1068 -0.1671 -0.0409
 1960W        W 6011   2.402   9.049   2.197  0.2922 -0.0410  0.1290
 1961W        W 6012   1.591   8.189   3.590  0.3644 -0.2091 -0.0491
 1962W        W 6013   6.000   6.297  11.183  0.0094  0.0048 -0.2336
 1963W        W 6014   6.351   3.392   4.020 -0.1819  0.2019 -0.0084
 1964W        W 6015   9.601   4.022   2.025  0.5812 -0.0917 -0.1540
 1965W        W 6016   4.516   9.763  11.518  0.2143 -0.0480 -0.0561
 1966W        W 6017   0.844   6.555   1.797 -0.0183 -0.1853 -0.0349
 1967W        W 6018   8.792   6.637   4.163  0.3970 -0.0567  0.4504
 1968W        W 6019   3.130   3.623   0.796 -0.0745 -0.0578  0.1865
 1969W        W 6020   3.162   1.166   1.565 -0.0327 -0.1145  0.0723
 1970W        W 6021   4.384   1.689  12.391 -0.0362 -0.2156  0.3628
 1971W        W 6022   1.281   1.815  11.239  0.1847  0.0664  0.0211
 1972W        W 6023   0.240   0.325   1.316 -0.1448  0.2239  0.1253
 1973W        W 6024   2.805   8.080  13.116  0.0798 -0.1471  0.2257
 1974W        W 6025   2.825   9.080  11.973 -0.1158  0.2689  0.1783
 1975W        W 6026   5.785   5.072   1.527  0.0561 -0.1748  0.2727
 1976W        W 6027   8.124   0.951   5.335  0.0557 -0.1534 -0.3274
 1977W        W 6028   1.500   5.282   2.457 -0.0185  0.2202 -0.1018
 1978W        W 6029   4.057   3.645   0.419  0.1615 -0.0577  0.2425
 1979W        W 6030   4.661   4.791  13.025  0.1423  0.3998 -0.3101
 1980W        W 6031   5.511   2.328   2.664  0.0893 -0.0839  0.1520
 1981W        W 6032   8.820   0.318   0.770  0.2001  0.0027  0.1232
 1982W        W 6033   8.569   5.008  11.585  0.1836 -0.0465  0.0138
 1983W        W 6034   5.622   8.525  13.207  0.1822 -0.0479  0.3029
 1984W        W 6035  10.110   7.846   2.984 -0.1559  0.2792 -0.1671
 1985W        W 6036  10.102  10.050   5.598  0.0632 -0.0448 -0.1582
 1986W        W 6037   8.115   8.491   2.139  0.1931  0.0492 -0.0789
 1987W        W 6038   0.781   0.160   1.537  0.0213 -0.1672  0.0540
 1988W        W 6039   8.251   1.398  10.009  0.3210 -0.1589 -0.3183
 1989W        W 6040   9.581   9.377   2.052  0.0871  0.1052  0.0181
 1990W        W 6041   9.644   3.463   3.569  0.2180 -0.1014 -0.2116
 1991W        W 6042   3.827   6.010  13.146 -0.2271 -0.0456 -0.0837
 1992W        W 6043   7.586   0.991   0.356 -0.1023 -0.0277 -0.1852
 1993W        W 6044   1.568   2.502  10.430  0.0324  0.1955 -0.2521
 1994W        W 6045   5.663   7.918   3.558 -0.0561 -0.1473  0.1302
 1995W        W 6046   4.328   0.026   2.192 -0.2054  0.1419 -0.0024
 1996W        W 6047   5.171   4.372   2.879 -0.2209 -0.3525 -0.1107
 1997W        W 6048   1.589   4.350  13.808 -0.3960 -0.0312  0.0169
 1998W        W 6049   6.115   8.562  13.586  0.1239  0.0531  0.0648
 1999W        W 6050   1.762   0.471  11.416 -0.0714 -0.2237 -0.0224
 2000W        W 6051   4.488   5.636   4.515  0.1796 -0.0422  0.0725
 2001W        W 6052   7.425   5.190   2.638 -0.3353  0.1096  0.1431
 2002W        W 6053   8.627   2.751   0.252  0.0504 -0.6558 -0.0022
 2003W        W 6054   0.668   9.913   4.120  0.0218 -0.0842 -0.0583
 2004W        W 6055   8.401   6.422   0.254 -0.1181 -0.1076  0.1537
 2005W        W 6056   3.930   4.587   2.378  0.0352  0.0676  0.0129
 2006W        W 6057   6.494   0.335  13.899  0.2285 -0.4121 -0.0510
 2007W        W 6058   3.374   9.289  10.754 -0.0498 -0.0807 -0.1233
 2008W        W 6059   8.906   9.475  11.219 -0.0090 -0.0974  0.3131
 2009W        W 6060   7.212   1.274   0.592  0.3263 -0.1158  0.0524
 2010W        W 6061   0.498   9.491   4.479  0.1736  0.3427  0.0202
 2011W        W 6062   2.146   2.602   1.003  0.3440 -0.3453  0.3113
 2012W        W 6063   6.072   3.344   2.187  0.0231 -0.3988 -0.0433
 2013W        W 6064   4.840   6.185   2.035 -0.3733 -0.3073  0.1282
 2014W        W 6065   2.196   4.644  11.495  0.0346  0.2501 -0.1970
 2015W        W 6066   3.957   6.799  12.606 -0.0355  0.2547  0.4391
 2016W        W 6067   2.514   8.299  12.460  0.0520 -0.0682  0.0491
 2017W        W 6068   6.657   3.901   9.975  0.0676 -0.0769  0.1910
 2018W        W 6069   4.997   2.782  12.184 -0.1822 -0.1320 -0.0049
 2019W        W 6070   1.005   0.627  10.893 -0.1939 -0.0912 -0.1010
 2020W        W 6071   9.700   1.166   1.017 -0.2505 -0.0044  0.1041
 2021W        W 6072   5.228   4.480  13.338 -0.5068 -0.0901  0.0818
 2022W        W 6073   7.910   1.789  13.825  0.0146 -0.0207 -0.1847
 2023W        W 6074   5.841   5.163  13.278  0.3830 -0.1659  0.4058
 2024W        W 6075   7.846   6.534   1.071 -0.0713 -0.4557  0.0992
 2025W        W 6076   9.319   4.598   4.116  0.0457 -0.3121 -0.0022
 2026W        W 6077   7.316   3.254   0.294 -0.1852  0.0339 -0.2872
 2027W        W 6078   9.215   2.865  12.223 -0.0604 -0.1748 -0.1056
 2028W        W 6079   2.950   7.513  10.119 -0.0190  0.0155  0.1716
 2029W        W 6080   6.430   3.700  13.514 -0.1993 -0.3315  0.0656
 2030W        W 6081   1.896   6.523  13.805  0.2729 -0.3337  0.2269
 2031W        W 6082   2.439   6.524  11.335 -0.1903  0.0567 -0.0903
 2032W        W 6083   4.472   5.589  13.715  0.0923 -0.2745 -0.4004
 2033W        W 6084   3.999   6.694  10.560  0.0144 -0.1308  0.2071
 2034W        W 6085   6.522   5.556   9.554  0.0117  0.1588 -0.1016
 2035W        W 6086   3.011   3.787  11.042 -0.1403  0.1015 -0.1398
 2036W        W 6087   5.645   7.638  11.066  0.1286  0.0760 -0.1445
 2037W        W 6088   6.471   4.656   4.846 -0.3622  0.1812 -0.0288
 2038W        W 6089   8.071   0.782   1.365 -0.4737 -0.2185  0.0542
 2039W        W 6090   8.220   6.554   0.689  0.0598 -0.1047 -0.0393
 2040W        W 6091   4.435   3.232   2.747 -0.1114 -0.2234 -0.3515
 2041W        W 6092   8.444   1.888  10.253 -0.1148 -0.1736  0.1205
 2042W        W 6093  10.003   2.865   2.918 -0.1012  0.2178 -0.1284
 2043W        W 6094   0.056   2.971  10.740 -0.4016  0.0318  0.1505
 2044W        W 6095   4.689   5.687   9.417  0.2035  0.2558 -0.1311
 2045W        W 6096   6.706   7.429  11.355  0.1102  0.2376  0.4670
 2046W        W 6097   2.310   6.268   3.650  0.3398 -0.1852  0.0503
 2047W        W 6098   0.649   6.918  10.467  0.3631  0.2416 -0.2104
 2048W        W 6099   9.046   1.879  13.846  0.0490 -0.3021 -0.1297
 2049W        W 6100   9.835   8.490   3.485  0.3094 -0.1025 -0.2004
 2050W        W 6101   0.467   1.384   3.304  0.0177  0.0393  0.1391
 2051W        W 6102   7.235   4.279  11.054  0.2223 -0.1010  0.3670
 2052W        W 6103   3.350   4.597   2.314 -0.0597 -0.1522 -0.0192
 2053W        W 6104   7.148   3.497   1.499 -0.1276 -0.2054  0.4291
 2054W        W 6105   8.150   2.948  11.895 -0.1905  0.2028 -0.1985
 2055W        W 6106   4.040   5.970  13.706 -0.0176  0.0458 -0.3660
 2056W        W 6107   0.967   3.909  12.554 -0.0239  0.3338 -0.0741
 2057W        W 6108   0.573   0.468   9.593 -0.0534  0.2035  0.1200
 2058W        W 6109   8.743   6.859  11.287  0.3037 -0.0974 -0.1900
 2059W        W 6110   5.315   3.300   4.640  0.2336 -0.0659  0.1044
 2060W        W 6111   3.990   9.374   2.987 -0.0257 -0.2766  0.2908
 2061W        W 6112   1.610   8.396   0.556 -0.5334 -0.1671  0.2016
 2062W        W 6113   9.954   6.885   1.590 -0.0607  0.0436 -0.2047
 2063W        W 6114   5.625   1.850   2.740  0.0220  0.0090 -0.1417
 2064W        W 6115   8.758   6.775   4.703 -0.5907 -0.0694 -0.0252
 2065W        W 6116   1.220   0.110   9.811 -0.0103 -0.0071 -0.3809
 2066W        W 6117   8.416   2.050  11.786 -0.3676  0.0744 -0.2590
 2067W        W 6118   0.967   2.649  13.763  0.3949 -0.1806  0.1003
 2068W        W 6119   1.781   6.807  11.121 -0.1945  0.0688  0.0636
 2069W        W 6120   1.356   3.874  13.592 -0.2627 -0.2049 -0.0138
 2070W        W 6121   7.940   3.623   3.844  0.2597  0.1005 -0.0265
 2071W        W 6122   5.460   3.778  12.075  0.0298  0.3030  0.2585
 2072W        W 6123   7.927   5.962  13.017  0.1653 -0.0715 -0.4454
 2073W        W 6124   6.775   1.488   3.453  0.0296  0.2960  0.0430
 2074W        W 6125   8.351   6.176  10.728 -0.1697  0.0812 -0.2315
 2075W        W 6126  10.027   8.899   9.961 -0.1954  0.2872  0.1300
 2076W        W 6127   5.421   0.791   0.694 -0.1749 -0.0714  0.0289
 2077W        W 6128   1.002   1.607   9.833  0.3365 -0.0061  0.1366
 2078W        W 6129   6.621   6.348  12.964  0.2467  0.0093 -0.1353
 2079W        W 6130   3.141   6.169   3.938  0.3518  0.0661  0.0031
 2080W        W 6131   6.186   4.221   4.336  0.0907  0.4175 -0.0636
 2081W        W 6132   9.024   3.926  13.464 -0.0187 -0.2532 -0.0947
 2082W        W 6133   6.676   0.922  10.550  0.2062 -0.1578 -0.0641
 2083W        W 6134   4.727   2.819   2.285  0.1655 -0.2087  0.1691
 2084W        W 6135   2.247   7.208   9.328  0.2406  0.0118  0.3728
 2085W        W 6136   8.062   3.860  10.996 -0.1546 -0.1520  0.3334
 2086W        W 6137   0.764   2.391  10.012  0.0416  0.1677 -0.1919
 2087W        W 6138   2.580   0.622  13.099  0.0775  0.2855  0.1317
 2088W        W 6139   3.908   0.601  13.140  0.0558 -0.0807 -0.0773
 2089W        W 6140   1.427   8.943   1.586 -0.2327  0.2022 -0.1197
 2090W        W 6141   0.892   2.169   0.752  0.1692  0.1991 -0.1143
 2091W        W 6142   0.915   0.138  11.892 -0.1757 -0.2545  0.1415
 2092W        W 6143   0.900   2.711  11.412  0.0680 -0.0508  0.0798
 2093W        W 6144   7.521   2.552   2.658  0.1407  0.0171  0.2775
 2094W        W 6145   2.175   6.944  11.359  0.1616  0.0647 -0.3348
 2095W        W 6146   9.043   8.622   4.863 -0.0371 -0.0117 -0.1085
 2096W        W 6147   8.974   0.733   4.047 -0.2284 -0.4382 -0.3195
 2097W        W 6148   6.234   9.875   3.181  0.0576  0.1990 -0.0875
 2098W        W 6149   5.117   1.099  11.389 -0.2658  0.0183  0.2221
 2099W        W 6150   7.403   3.681   2.070 -0.0858 -0.2139  0.0654
 2100W        W 6151   3.856   1.648   2.095 -0.1720  0.2139  0.1258
 2101W        W 6152   2.806   3.925  10.106  0.1275 -0.0405 -0.1437
 2102W        W 6153   7.537   7.521  13.205 -0.0393  0.2972  0.2103
 2103W        W 6154   4.780   6.317   3.955 -0.0528  0.2830 -0.4492
 2104W        W 6155   5.475   6.748   0.408 -0.0136  0.1724  0.1499
 2105W        W 6156   5.074   8.054   9.808  0.2710  0.1561  0.0644
 2106W        W 6157   8.665   6.709   0.680  0.0393  0.1707 -0.0504
 2107W        W 6158   9.250   8.665   0.839  0.4493  0.0331  0.0460
 2108W        W 6159   1.439   2.476  12.224 -0.2183 -0.1090 -0.3497
 2109W        W 6160   5.620   2.348  12.345  0.0685 -0.1580  0.1123
 2110W        W 6161   9.580   1.653   4.097  0.0617  0.0044 -0.0790
 2111W        W 6162   4.526   2.102   0.057 -0.0721 -0.3966  0.0464
 2112W        W 6163   8.418   1.425   0.298  0.0766 -0.1237  0.2059
 2113W        W 6164   2.259   4.041   9.575  0.2630  0.1279  0.3011
 2114W        W 6165   5.447   6.987   3.792  0.2431 -0.2510 -0.0816
 2115W        W 6166   7.380   5.252  12.834  0.1385  0.3126  0.2814
 2116W        W 6167   4.557   9.595  13.197  0.1011 -0.1694  0.0583
 2117W        W 6168   5.849   7.507   1.537 -0.0578 -0.1061  0.0221
 2118W        W 6169   0.558   7.281   2.849  0.0557 -0.0372 -0.2694
 2119W        W 6170   1.860   0.937   3.500 -0.0511 -0.0983  0.1424
 2120W        W 6171   4.954   9.915  12.041 -0.1057  0.0525  0.2715
 2121W        W 6172   5.776   5.366   1.946 -0.1213 -0.2542  0.0033
 2122W        W 6173   8.577   0.002  13.072  0.0976  0.2889 -0.4285
 2123W        W 6174   1.730   0.410   0.821  0.0980  0.3304 -0.0437
 2124W        W 6175  10.045   9.579  13.632  0.2407  0.0179  0.1257
 2125W        W 6176   4.939   2.115   4.295 -0.1811 -0.0506  0.2047
 2126W        W 6177   8.736   8.357   2.424 -0.0144 -0.1850 -0.0486
 2127W        W 6178   5.074   4.309  10.824 -0.3474  0.0075  0.2175
 2128W        W 6179   8.110   4.168   0.991 -0.4100 -0.2373 -0.1636
 2129W        W 6180   6.964   7.456  10.706 -0.3698  0.1124 -0.2719
 2130W        W 6181   8.641   6.724   2.480 -0.1469 -0.0641  0.1269
 2131W        W 6182   9.401   6.779  11.255 -0.0569 -0.1392 -0.2420
 2132W        W 6183   5.541   1.596  13.820  0.4228  0.1145  0.2084
 2133W        W 6184   9.417   8.350   3.983 -0.1963 -0.1455 -0.2350
 2134W        W 6185   0.913   2.341   0.291 -0.1404  0.0507 -0.2023
 2135W        W 6186   2.529   4.669  12.824 -0.0321 -0.0545 -0.4522
 2136W        W 6187   8.370   7.409   3.910  0.0274 -0.0418  0.2432
 2137W        W 6188   4.630   6.405  13.082  0.0042  0.1692  0.0321
 2138W        W 6189   9.437   2.429  13.120  0.0604  0.2089 -0.0307
 2139W        W 6190   1.619   8.715  10.551  0.3020  0.0252  0.0041
 2140W        W 6191   8.093   9.222   4.296 -0.3528  0.0460 -0.1705
 2141W        W 6192  10.045   7.965  11.557  0.0637  0.0557  0.0676
 2142W        W 6193   1.892   7.463  12.215 -0.0741  0.0663  0.3104
 2143W        W 6194   8.836   6.177   8.671 -0.4152  0.1045  0.0162
 2144W        W 6195   4.002   7.310  11.753  0.2883  0.2237 -0.1424
 2145W        W 6196   7.811   4.267   4.001  0.1813 -0.2720 -0.0534
 2146W        W 6197   5.412   8.015  13.165  0.0724 -0.2439  0.0737
 2147W        W 6198   8.700   1.006   4.440  0.0456 -0.2331 -0.1869
 2148W        W 6199   8.581   7.333   2.965 -0.0020  0.2141  0.0675
 2149W        W 6200   0.530   9.170   9.235 -0.1914 -0.1996 -0.1193
 2150W        W 6201   8.954   8.853   2.491 -0.1313  0.0497  0.3791
 2151W        W 6202   7.638   1.114   1.444  0.0447 -0.0582 -0.0940
 2152W        W 6203   4.432   7.637   3.367  0.0319 -0.1644  0.0684
 2153W        W 6204   4.563   8.755   1.107 -0.0388 -0.0031 -0.2026
 2154W        W 6205   7.574   6.612  10.501 -0.2654  0.0187 -0.0724
 2155W        W 6206   4.562   8.395  13.541  0.0289 -0.1060 -0.3494
 2156W        W 6207   6.263   4.541  11.785  0.1145  0.0043  0.1523
 2157W        W 6208   1.977   0.161   0.257 -0.0592 -0.0534 -0.0799
 2158W        W 6209   6.847   3.409   3.162  0.1946 -0.0603  0.0532
 2159W        W 6210   5.207   3.038  10.409 -0.1094 -0.2410  0.1712
 2160W        W 6211   8.989   5.171  11.191  0.1850  0.3063  0.0812
 2161W        W 6212   4.787   1.341   2.557  0.0307  0.0333  0.1086
 2162W        W 6213   8.187   6.859   0.251 -0.0208 -0.0510  0.0728
 2163W        W 6214   9.492   7.630  12.042 -0.0904  0.0973 -0.2182
 2164W        W 6215   8.994   6.805  10.848 -0.3468 -0.2857 -0.0299
 2165W        W 6216   7.695   0.995  10.502 -0.2419 -0.1305 -0.1028
 2166W        W 6217   1.012   9.056   1.110  0.4042 -0.0245  0.3193
 2167W        W 6218   4.646   8.464  11.905  0.4048 -0.4621 -0.0402
 2168W        W 6219   5.438   2.144   0.389 -0.3457  0.0962 -0.0012
 2169W        W 6220  10.033   0.900   9.534  0.1323  0.1858 -0.0253
 2170W        W 6221   7.801   3.233   1.192 -0.0611 -0.1508 -0.0938
 2171W        W 6222   5.479   9.021   0.580  0.0132  0.2917  0.0559
 2172W        W 6223   6.583   9.474  13.865  0.3986  0.1089 -0.4523
 2173W        W 6224   4.108   5.589  13.147  0.0047 -0.0714 -0.0250
 2174W        W 6225   3.304   6.387  13.941  0.2105  0.2029 -0.2578
 2175W        W 6226   9.019   2.935   2.387 -0.3007 -0.0744  0.0878
 2176W        W 6227   5.296   6.222   3.986  0.1578  0.1375 -0.2614
 2177W        W 6228   3.978   6.699   9.219 -0.2904 -0.1309  0.2288
 2178W        W 6229   7.642   5.320   3.108 -0.0973 -0.1242  0.0773
 2179W        W 6230   6.683   2.265  13.472 -0.1606 -0.2458 -0.1220
 2180W        W 6231   4.446   8.944  13.090  0.0170  0.4140  0.2786
 2181W        W 6232   6.898   1.189   0.075 -0.2678 -0.0508  0.0717
 2182W        W 6233   9.468   7.158   3.343 -0.0905  0.4633 -0.1476
 2183W        W 6234   8.169   0.785   2.655 -0.3710 -0.0841  0.3932
 2184W        W 6235   0.423   2.121   3.324 -0.1470  0.3337 -0.0318
 2185W        W 6236   8.809   5.533   2.546 -0.0419 -0.1055 -0.4991
 2186W        W 6237   1.567   5.212  13.072 -0.0600  0.1761 -0.0560
 2187W        W 6238   3.691   9.294  12.654  0.0026  0.1258 -0.0633
 2188W        W 6239   4.206   3.421  10.204 -0.2856  0.1028 -0.0993
 2189W        W 6240   1.408   8.777  13.655  0.2345  0.0295 -0.1680
 2190W        W 6241   3.439   4.981   0.501  0.2312 -0.0507 -0.2726
 2191W        W 6242   1.695   0.767  10.237  0.0329  0.1843 -0.1030
 2192W        W 6243   0.888   3.754  13.837  0.2689 -0.0578 -0.1726
 2193W        W 6244   3.937   0.825   2.223  0.3277  0.1986 -0.2377
 2194W        W 6245   2.595   3.998   3.986  0.0654 -0.5493 -0.0776
 2195W        W 6246   9.616   8.160   2.028  0.1399 -0.1378 -0.0334
 2196W        W 6247   4.456   6.830  12.828 -0.0137 -0.3439 -0.0717
 2197W        W 6248   4.289   5.751   1.212 -0.1138 -0.2509  0.1041
 2198W        W 6249   2.221   9.440   0.600 -0.1372 -0.0827 -0.2523
 2199W        W 6250   0.904   0.448   0.057 -0.2096  0.1197 -0.1756
 2200W        W 6251   7.085   3.946   0.308 -0.0843 -0.1144 -0.0627
 2201W        W 6252   4.602   7.839   2.041 -0.0172 -0.5102  0.0022
 2202W        W 6253   7.866   1.393   9.657 -0.0072 -0.1642  0.0851
 2203W        W 6254   0.289   2.188   9.513 -0.0262 -0.0771 -0.0415
 2204W        W 6255   2.913   2.153   1.842 -0.0176 -0.2102 -0.2901
 2205W        W 6256   0.146   7.538  11.515 -0.1651 -0.0756  0.0812
 2206W        W 6257   7.886   3.931   2.738  0.1385  0.3103  0.1053
 2207W        W 6258   8.854   1.195   3.827 -0.2458 -0.1114 -0.1934
 2208W        W 6259   8.925   3.386  11.257  0.1951  0.3188 -0.0117
 2209W        W 6260   8.533   7.189   9.602  0.3316  0.2550  0.1899
 2210W        W 6261   1.081   9.584  10.683 -0.0507  0.2320  0.0907
 2211W        W 6262   5.111   7.156  12.734 -0.2344 -0.1352 -0.1871
 2212W        W 6263   7.582   0.536  12.279  0.0219 -0.2813  0.1099
 2213W        W 6264   6.121   9.524  10.854 -0.2607  0.0941 -0.1813
 2214W        W 6265   0.307   4.114   3.421  0.0509  0.2527 -0.0059
 2215W        W 6266   6.090   0.093   0.236 -0.0277  0.1188 -0.1237
 2216W        W 6267   3.084   5.109   3.358 -0.3878 -0.2778  0.1600
 2217W        W 6268   0.859   0.800   1.219 -0.2430 -0.3725  0.2027
 2218W        W 6269   6.347   2.298   2.232 -0.1710 -0.1991 -0.1285
 2219W        W 6270   7.262   6.407  13.589 -0.0593 -0.0069 -0.0884
 2220W        W 6271   9.123  10.121   3.603 -0.2077  0.3578 -0.1021
 2221W        W 6272   0.833   0.495  11.499  0.0590 -0.2676 -0.3018
 2222W        W 6273   3.346   0.124   0.837 -0.1864  0.0144  0.2007
 2223W        W 6274   7.894   8.107  13.741 -0.4512 -0.0063  0.2518
 2224W        W 6275   5.056   4.935  13.369 -0.1057 -0.0361 -0.1654
 2225W        W 6276   7.266   8.207  11.233 -0.1732 -0.0459 -0.3380
 2226W        W 6277   4.789   2.657   0.900  0.2045  0.0323 -0.1884
 2227W        W 6278   2.448   0.777  10.880  0.2536 -0.3264 -0.0785
 2228W        W 6279   6.797   7.932   2.189 -0.1430 -0.0050  0.1577
 2229W        W 6280   1.141   4.432  12.988  0.1651  0.1633  0.3000
 2230W        W 6281   9.337   1.518  10.024  0.0205  0.1517  0.0345
 2231W        W 6282  10.110   4.025  12.975 -0.1241  0.3226 -0.0010
 2232W        W 6283   7.821   7.646   4.573 -0.3515 -0.0083  0.0364
 2233W        W 6284   1.690   8.844   9.771  0.1670 -0.2076 -0.1002
 2234W        W 6285   6.747   4.941  12.594 -0.2182  0.0555  0.1701
 2235W        W 6286   9.120   0.106   3.121 -0.0731 -0.1503  0.2437
 2236W        W 6287   6.803   8.257   2.704 -0.2195  0.1644  0.0468
 2237W        W 6288   5.996   7.656  13.528 -0.0031 -0.0002 -0.0157
 2238W        W 6289   7.130   9.775  13.560 -0.3774  0.1350  0.0606
 2239W        W 6290   3.874   6.455  13.501 -0.1602  0.0304 -0.0570
 2240W        W 6291   3.842   4.031  11.203  0.0669 -0.0289 -0.2692
 2241W        W 6292   4.021   7.305   0.155  0.0939 -0.0192  0.1195
 2242W        W 6293  10.059   8.365   0.672 -0.0978  0.0839  0.0764
 2243W        W 6294   5.898   7.449  12.001 -0.0786 -0.0396 -0.0119
 2244W        W 6295   0.710   6.689  11.212 -0.0815 -0.1200  0.0214
 2245W        W 6296   2.360   8.681   3.004 -0.2033  0.0090 -0.0901
 2246W        W 6297   0.971   7.374   2.588  0.1112  0.0211 -0.2293
 2247W        W 6298   9.286   4.394   1.938 -0.0978  0.1062  0.1782
 2248W        W 6299   5.621   7.846   2.821  0.0650 -0.2350  0.1275
 2249W        W 6300   1.949   0.138  10.582  0.0631  0.1157  0.0481
 2250W        W 6301   1.945   0.612  12.301  0.0609  0.0210  0.2606
 2251W        W 6302   8.681   5.471  12.966  0.0729  0.1487  0.0278
 2252W        W 6303   5.000   0.949  12.314  0.2734  0.2130  0.2091
 2253W        W 6304   3.271   3.809   9.931  0.0642 -0.3047  0.1287
 2254W        W 6305   8.656   2.920  11.276  0.2894  0.0221 -0.0568
 2255W        W 6306   6.597   3.725  11.754 -0.0490 -0.1355  0.2088
 2256W        W 6307   3.388   2.384  13.036 -0.2777  0.0530  0.0726
 2257W        W 6308   9.228   0.091  11.839 -0.0459  0.2573  0.0102
 2258W        W 6309   4.281   6.790   3.510  0.1016  0.1351 -0.1514
 2259W        W 6310   7.269   1.258   1.122 -0.3052  0.1256 -0.2931
 2260W        W 6311   9.146   0.130   9.605 -0.0053  0.1473  0.0605
 2261W        W 6312   3.163   0.746  10.303 -0.0885  0.2442 -0.2998
 2262W        W 6313   7.771   6.672   3.792  0.3797 -0.0580  0.0580
 2263W        W 6314   8.820   5.351   1.943  0.2092  0.0752  0.2146
 2264W        W 6315   9.136   5.764  12.449  0.3362 -0.1850 -0.1056
 2265W        W 6316   4.745   7.354   2.059  0.1719 -0.4147  0.1090
 2266W        W 6317   5.043   2.212  10.345 -0.0686 -0.1096 -0.0275
 2267W        W 6318   2.690   4.377   1.890 -0.4527 -0.0397  0.2375
 2268W        W 6319   6.397   3.264   1.796  0.0302 -0.2017 -0.0915
 2269W        W 6320   7.163   5.956   4.839  0.1599  0.1022  0.0289
 2270W        W 6321   7.617   5.547  13.170 -0.0562 -0.2949 -0.1480
 2271W        W 6322   7.443   0.379   1.924  0.1672  0.0485  0.0772
 2272W        W 6323   8.152   0.645  11.369 -0.1605 -0.1098  0.0823
 2273W        W 6324   4.743   8.386   2.046 -0.0433 -0.1695 -0.0317
 2274W        W 6325   0.674   8.975  10.139  0.1105 -0.0089  0.2862
 2275W        W 6326   6.559   0.174   4.309 -0.1870  0.0656 -0.2584
 2276W        W 6327   9.660   4.557  10.166 -0.0777  0.2154 -0.1098
 2277W        W 6328   2.593   1.861   4.381 -0.1206 -0.1705 -0.1323
 2278W        W 6329   3.587   7.869   1.079 -0.0471 -0.0090 -0.0199
 2279W        W 6330  10.101   1.803   1.589  0.0724 -0.1278  0.2537
 2280W        W 6331   2.346   7.364  11.498  0.0623  0.0785  0.2060
 2281W        W 6332   1.834   3.222   1.718 -0.1184  0.1538 -0.0457
 2282W        W 6333   3.887   4.889   1.900  0.0773  0.1970  0.2753
 2283W        W 6334   5.234   5.906   2.063  0.0269  0.1115 -0.0692
 2284W        W 6335   2.825   1.380  12.222  0.1871 -0.1253 -0.0591
 2285W        W 6336   2.794   0.646   2.747  0.0450 -0.0538 -0.0546
 2286W        W 6337   6.876   4.493   1.674  0.0896 -0.1674  0.0510
 2287W        W 6338   1.110   6.800  10.796  0.1886 -0.0589 -0.3927
 2288W        W 6339   0.657   9.429   2.736  0.1812  0.0646 -0.0217
 2289W        W 6340   9.460   9.938   9.977 -0.1931 -0.0016 -0.0461
 2290W        W 6341   6.307   9.225   3.632 -0.0364  0.4015 -0.0394
 2291W        W 6342  10.008   9.165   0.582 -0.1741 -0.1960 -0.1146
 2292W        W 6343   8.376   5.827  12.821  0.6108 -0.3429  0.0599
 2293W        W 6344   1.873   6.937  12.311  0.2470 -0.1066 -0.1462
 2294W        W 6345   9.060   6.629   8.810 -0.3950 -0.1104  0.1518
 2295W        W 6346   0.648   6.689   2.990  0.1088  0.1601  0.4382
 2296W        W 6347   6.691   4.938   1.785 -0.2552 -0.2536  0.1046
 2297W        W 6348   9.455   3.086   1.587  0.2052 -0.3855 -0.3621
 2298W        W 6349   1.935   6.469  10.567  0.1203  0.1302  0.4005
 2299W        W 6350   6.528   1.565  11.333 -0.2651 -0.0563 -0.0673
 2300W        W 6351   1.218   3.756   3.206  0.2194 -0.0468  0.2610
 2301W        W 6352   7.070   6.507  12.238 -0.0744  0.1665  0.1539
 2302W        W 6353   1.742   2.800  13.046 -0.1249  0.0238  0.0130
 2303W        W 6354   3.584   7.653   0.616 -0.1488 -0.1142 -0.1432
 2304W        W 6355   0.238   5.561   3.730 -0.0551 -0.0142 -0.1927
 2305W        W 6356   3.642   9.962   0.352 -0.3069 -0.0497 -0.0754
 2306W        W 6357   6.625   3.637   4.507  0.0722  0.4129  0.0986
 2307W        W 6358   4.580   3.233   9.763 -0.1068 -0.0363 -0.3995
 2308W        W 6359   9.812   9.252   9.096 -0.2649 -0.0612 -0.1824
 2309W        W 6360   0.271   8.621   2.321 -0.1439  0.0082  0.2729
 2310W        W 6361   6.154   4.569  13.158 -0.0869  0.2204 -0.0433
 2311W        W 6362  10.134   8.941   9.490  0.1064  0.0345 -0.1955
 2312W        W 6363   6.047   7.575   2.523 -0.1347  0.0488 -0.0804
 2313W        W 6364   3.998   1.678  13.157 -0.1592  0.1999 -0.0270
 2314W        W 6365   7.690   3.207   2.010 -0.0288  0.1998 -0.0050
 2315W        W 6366   2.502   4.166  11.432  0.5271  0.1124 -0.0482
 2316W        W 6367   7.792   6.298   5.259  0.0777  0.1941 -0.1278
 2317W        W 6368   9.857   9.800  13.038  0.2323 -0.2698  0.2047
 2318W        W 6369   3.789   0.182   2.981  0.1606 -0.2273 -0.1093
 2319W        W 6370   8.324   5.565   3.274  0.0061  0.0680 -0.1873
 2320W        W 6371   2.949   5.442   1.077  0.0464 -0.2061  0.1281
 2321W        W 6372   3.885   1.218  11.533 -0.0766  0.3503  0.1316
 2322W        W 6373   9.711   6.479  13.095  0.0841  0.1479  0.1088
 2323W        W 6374   0.879   5.536  12.204  0.3366  0.1226 -0.0585
 2324W        W 6375   9.414   1.805   4.574 -0.0071 -0.1395  0.0760
 2325W        W 6376   0.377   3.345   2.215  0.2627  0.1081  0.2056
 2326W        W 6377   4.977   0.491  13.367 -0.0280 -0.0168 -0.0948
 2327W        W 6378   7.454   7.830   0.506 -0.1704  0.1154 -0.0152
 2328W        W 6379   2.603   0.594   0.624  0.2417 -0.2086  0.0539
 2329W        W 6380   2.921   4.799   1.955 -0.0663  0.2973  0.0013
 2330W        W 6381   8.875   6.163  13.342  0.0147 -0.1016 -0.0195
 2331W        W 6382   8.640   8.900   8.764 -0.1719 -0.1993  0.2213
 2332W        W 6383   5.219   4.551   5.220  0.0825  0.3026 -0.0062
 2333W        W 6384   0.659  10.059   2.011 -0.0319 -0.2120 -0.1482
 2334W        W 6385   0.527   0.429  12.266  0.2315 -0.0437 -0.1500
 2335W        W 6386   7.811   4.834   2.787 -0.0787  0.2058 -0.1854
 2336W        W 6387   6.290   7.765  11.911 -0.2489  0.0267 -0.1844
 2337W        W 6388   1.752   8.950   0.616  0.4971 -0.1015 -0.3489
 2338W        W 6389   8.003   4.291  10.522 -0.0284  0.0779 -0.0256
 2339W        W 6390   9.255   1.988   0.364 -0.1802  0.1816  0.6465
 2340W        W 6391   4.930   3.812   0.321 -0.2693  0.0378 -0.3243
 2341W        W 6392   4.643   8.215   1.117 -0.2864  0.0481 -0.0791
 2342W        W 6393   8.040   1.144   1.767  0.0157  0.1502  0.2885
 2343W        W 6394   1.423   0.981  12.210 -0.1181 -0.1773 -0.4274
 2344W        W 6395   3.421   8.757  10.438 -0.1505 -0.0414 -0.2553
 2345W        W 6396   7.394   6.607   3.362  0.0320  0.1364 -0.2260
 2346W        W 6397   9.253   7.687  10.575  0.1367 -0.0076 -0.0797
 2347W        W 6398   8.045   5.626   1.110  0.1421 -0.0161  0.0530
 2348W        W 6399   0.405   9.393  11.551 -0.1729 -0.0718 -0.0734
 2349W        W 6400   6.735   2.077  12.199 -0.0870 -0.3173  0.3712
 2350W        W 6401   8.112   2.904   3.482 -0.0949 -0.1144 -0.0379
 2351W        W 6402   6.679   3.000   0.206 -0.0832  0.0058 -0.4164
 2352W        W 6403   8.573   3.187   1.329 -0.5403  0.1632  0.0543
 2353W        W 6404   9.887   9.642  11.328  0.2774  0.3748  0.1143
 2354W        W 6405   5.833   2.301  12.951 -0.1301 -0.0887 -0.0233
 2355W        W 6406   4.127   7.761   3.737 -0.1262 -0.2417  0.1507
 2356W        W 6407   9.756   4.998   4.044  0.0210 -0.0193 -0.0116
 2357W        W 6408   2.326   4.138  10.468  0.0267 -0.0435 -0.0638
 2358W        W 6409   1.731   0.238   1.446  0.0466 -0.0675 -0.1377
 2359W        W 6410   6.769   1.588  13.045  0.0173  0.2531  0.3197
 2360W        W 6411   9.524   8.109  12.321  0.2666 -0.0586  0.1018
 2361W        W 6412   9.249   7.392   4.416 -0.0431  0.1105 -0.0644
 2362W        W 6413   4.134   1.901   9.571 -0.0297 -0.3253  0.4169
 2363W        W 6414   7.441   9.598  13.921  0.1981 -0.1373 -0.2941
 2364W        W 6415   7.941   1.415  13.420 -0.1063 -0.3079 -0.3477
 2365W        W 6416   9.527   0.420   9.460  0.0180  0.1125  0.1939
 2366W        W 6417  10.135   8.927   3.334  0.1640 -0.2148  0.1599
 2367W        W 6418   9.040   0.081  13.218 -0.2068  0.1091  0.2703
 2368W        W 6419   1.133   4.436   4.430  0.0640 -0.2501  0.0594
 2369W        W 6420   5.185   9.255   1.027 -0.3672  0.1644 -0.1345
 2370W        W 6421   7.148   0.725   4.128 -0.1661 -0.2697 -0.1756
 2371W        W 6422   5.596   2.363   4.834 -0.2762  0.0992  0.0838
 2372W        W 6423   0.995   2.041   2.001 -0.3210  0.0482  0.0006
 2373W        W 6424   5.676   3.964  10.178  0.1515 -0.0404  0.1642
 2374W        W 6425   5.950   3.476  13.464 -0.0312 -0.2445 -0.0428
 2375W        W 6426   3.160   4.960   5.375  0.1722 -0.3031  0.0537
 2376W        W 6427   8.895   4.322  13.214  0.0950 -0.0129 -0.1597
 2377W        W 6428   7.224   0.043   0.548 -0.4104  0.1497 -0.2606
 2378W        W 6429   7.582   2.241   1.797  0.0286 -0.0838  0.1915
 2379W        W 6430   2.128   4.520   5.331 -0.3894  0.3080 -0.1567
 2380W        W 6431   6.477   4.875  12.117  0.0276 -0.0788  0.0832
 2381W        W 6432   0.336   4.881   3.495  0.2008 -0.2548 -0.2062
 2382W        W 6433   5.371  10.000  10.351  0.1825 -0.1280 -0.0044
 2383W        W 6434   9.702   1.592   1.379 -0.0561 -0.1684  0.2685
 2384W        W 6435   1.704   4.666  11.754 -0.2625 -0.0966 -0.1848
 2385W        W 6436   4.498   4.949  12.356 -0.0484  0.2022  0.0925
 2386W        W 6437   1.753   1.285  11.904 -0.0685 -0.1244  0.3613
 2387W        W 6438   9.588   8.165   5.585 -0.4113 -0.0002  0.2370
 2388W        W 6439   3.834   8.179   0.657 -0.0767  0.0294  0.0355
 2389W        W 6440   2.414   3.268   4.177  0.2796  0.1879  0.1201
 2390W        W 6441   9.732   6.745   2.097 -0.0475  0.2206 -0.2494
 2391W        W 6442   5.438   0.860  12.210  0.2124  0.1450 -0.2158
 2392W        W 6443   4.485   3.373   0.589  0.3568 -0.0777  0.0704
 2393W        W 6444   8.981   5.622  11.967 -0.0305 -0.0473  0.0837
 2394W        W 6445   5.292   3.125   3.169 -0.0801 -0.0263  0.0567
 2395W        W 6446   9.846   3.649   4.000 -0.2599 -0.2432  0.1187
 2396W        W 6447   4.832   3.727   3.432 -0.0608 -0.0639  0.0026
 2397W        W 6448   6.068   2.004   3.231  0.1907  0.3426 -0.2345
 2398W        W 6449   7.038   4.930  10.018  0.0611  0.1064  0.0696
 2399W        W 6450   5.617   8.885   3.155 -0.0808  0.0550  0.2218
 2400W        W 6451   1.062   7.130   4.222 -0.4269  0.1878  0.3247
 2401W        W 6452   5.026   5.151   4.044 -0.0866 -0.4563  0.0377
 2402W        W 6453   0.018   1.486  13.385  0.1497  0.1229  0.0263
 2403W        W 6454   2.254   5.018   5.088 -0.0088  0.1905 -0.0478
 2404W        W 6455   6.602   7.719   0.325  0.0525  0.3018  0.1239
 2405W        W 6456   1.799   9.059  13.421 -0.0110 -0.0922 -0.2740
 2406W        W 6457   1.553  10.119   9.028 -0.0081 -0.0416  0.2033
 2407W        W 6458   1.642   2.080   1.187 -0.0858  0.2249  0.0208
 2408W        W 6459   4.794   4.770   0.928  0.0081 -0.0106  0.2049
 2409W        W 6460   6.902   6.488   3.432 -0.0276 -0.2191  0.2710
 2410W        W 6461   9.109   8.501   9.594 -0.0113  0.0645  0.1281
 2411W        W 6462   0.244   0.525   4.989  0.2131 -0.1395  0.2601
 2412W        W 6463   9.476   9.904   2.905 -0.0985 -0.1269 -0.1064
 2413W        W 6464   2.585   4.350  11.887  0.1405  0.1840  0.1100
 2414W        W 6465   1.701   5.693  12.899 -0.2491 -0.0476 -0.1187
 2415W        W 6466   1.417   6.349   3.814 -0.0984 -0.0385  0.0624
 2416W        W 6467   8.982   1.208   5.221  0.3655  0.0793  0.3166
 2417W        W 6468   5.407   6.345  12.610  0.1053  0.3690  0.2981
 2418W        W 6469   9.367   4.583   9.728  0.0496  0.1211  0.2292
 2419W        W 6470   3.115   3.972   3.171  0.0348  0.3393 -0.0715
 2420W        W 6471   4.715   2.871   2.862  0.1062  0.1436 -0.2915
 2421W        W 6472   1.742   9.161  10.354  0.3466 -0.0600  0.1342
 2422W        W 6473   1.127   4.238   1.638  0.0396  0.1851  0.2032
 2423W        W 6474   2.542   4.704  11.146  0.0120  0.1608  0.3284
 2424W        W 6475   4.978   3.542   1.249 -0.2835 -0.0555  0.1284
 2425W        W 6476   4.961   7.625   3.395 -0.0714  0.2401  0.1184
 2426W        W 6477   5.143   2.424   0.016 -0.0495  0.1595  0.0452
 2427W        W 6478   1.311   9.025   2.052  0.0585 -0.2059  0.1000
 2428W        W 6479   4.721   6.039  10.831 -0.1128  0.4283 -0.0352
 2429W        W 6480   2.145   0.530  13.882  0.3956 -0.2208 -0.1479
 2430W        W 6481   4.997   8.555  12.303 -0.2956 -0.2326 -0.0747
 2431W        W 6482   4.195  10.098  12.319 -0.0031 -0.0465  0.0539
 2432W        W 6483   2.833   5.685  10.194  0.0341  0.2051  0.0846
 2433W        W 6484   9.627   9.550   1.409  0.0264 -0.0246  0.0404
 2434W        W 6485   3.824   8.331  10.221  0.1679 -0.0908 -0.2215
 2435W        W 6486   8.584   7.395  12.953  0.1861 -0.2385 -0.0204
 2436W        W 6487   8.175   2.531  11.544 -0.0085 -0.1252 -0.1737
 2437W        W 6488   1.030   2.832   0.685  0.0653  0.1282  0.0511
 2438W        W 6489   5.058   4.151  10.332  0.0218 -0.2151 -0.0350
 2439W        W 6490   3.241   6.162  10.855 -0.0331 -0.1449  0.1018
 2440W        W 6491   4.174   1.321  12.721 -0.1495  0.0534  0.0818
 2441W        W 6492   0.720   9.248   3.451  0.0634 -0.2188 -0.0452
 2442W        W 6493   5.660   5.240   9.541 -0.0210 -0.1494 -0.3951
 2443W        W 6494   8.881   9.758  13.006 -0.0214 -0.0386  0.3376
 2444W        W 6495   3.222   2.186   0.986  0.2292  0.1033 -0.0261
 2445W        W 6496   4.068   1.002   3.187  0.2906  0.0479  0.3255
 2446W        W 6497   4.150   4.670   3.826  0.1538  0.1232  0.3401
 2447W        W 6498   8.679   3.119   3.250  0.0007  0.0990 -0.0337
 2448W        W 6499   7.300   4.190  12.449 -0.1119  0.4585 -0.4404
 2449W        W 6500   4.821   2.043  12.263 -0.0216  0.2800 -0.1895
 2450W        W 6501   9.432   4.092  10.745 -0.1346  0.1658  0.1676
 2451W        W 6502   8.334   5.940  10.237  0.1572 -0.2620 -0.0493
 2452W        W 6503  10.063   7.383  10.692  0.2196  0.1540  0.3401
 2453W        W 6504   2.643   8.690   0.255  0.0742  0.1844  0.2044
 2454W        W 6505   5.187   4.857  12.876 -0.0784 -0.1570  0.2320
 2455W        W 6506   9.202   5.703   1.805  0.0608  0.1077  0.0437
 2456W        W 6507   4.443  10.186  13.250  0.1129 -0.1600  0.2408
 2457W        W 6508   7.260   1.715   1.855  0.0117 -0.1874 -0.2062
 2458W        W 6509   6.643   5.689  12.385  0.1078  0.1679 -0.2727
 2459W        W 6510   0.312   5.370   2.603 -0.1583 -0.1419 -0.2845
 2460W        W 6511   8.783   4.074  12.202 -0.3440  0.2587  0.0585
 2461W        W 6512   8.082   5.290  11.508  0.0272 -0.2947 -0.0837
 2462W        W 6513   5.471   8.819  13.557 -0.1678  0.0765 -0.2760
 2463W        W 6514   9.915   2.535   2.396  0.0804  0.0335 -0.0972
 2464W        W 6515   2.014   3.270  11.828 -0.1153 -0.0878 -0.1357
 2465W        W 6516   1.894   4.041  13.558  0.0200 -0.1808  0.1167
 2466W        W 6517   9.953   4.777   9.812 -0.2948  0.3270  0.2309
 2467W        W 6518   3.873   0.418   2.491  0.4986  0.0997 -0.2880
 2468W        W 6519   8.448   4.786   9.732 -0.0128  0.0883 -0.2374
 2469W        W 6520   1.835  10.142   1.057 -0.0558 -0.3155 -0.1547
 2470W        W 6521   9.661   7.051   4.488 -0.2329  0.2487  0.0248
 2471W        W 6522   5.490   1.023  13.585 -0.0393  0.0880  0.0592
 2472W        W 6523   7.299   2.701  10.859 -0.4958  0.1963  0.1102
 2473W        W 6524  10.014   8.186  12.549 -0.0319 -0.2259 -0.1879
 2474W        W 6525   4.904   2.545  11.446 -0.2402 -0.1569  0.0756
 2475W        W 6526   5.647   6.461   1.296  0.1059  0.1380 -0.1202
 2476W        W 6527   7.330   2.373   0.828  0.0589 -0.0805  0.1302
 2477W        W 6528   6.860   5.914   8.703  0.1102  0.0189 -0.1234
 2478W        W 6529   9.055   6.176   1.907  0.5784 -0.1550 -0.0492
 2479W        W 6530   7.999   6.533   4.908  0.0194  0.5319 -0.0698
 2480W        W 6531   0.201   9.863   9.206  0.4273 -0.2158  0.1079
 2481W        W 6532   9.052   4.725   3.221  0.3222 -0.1512  0.1500
 2482W        W 6533   0.612   6.327  10.251  0.0621 -0.0718 -0.2538
 2483W        W 6534   5.671   9.391   1.429 -0.0160  0.4564 -0.0162
 2484W        W 6535   5.865   1.180  12.188  0.1186 -0.1944  0.0459
 2485W        W 6536   5.909   1.025  11.728  0.1707 -0.6221 -0.1455
 2486W        W 6537   2.369   1.981   0.807  0.2856 -0.0614 -0.0048
 2487W        W 6538  10.132   0.041   4.800  0.2174 -0.2176  0.2922
 2488W        W 6539   6.549   7.483   3.178 -0.0651  0.1903 -0.0502
 2489W        W 6540   9.982   8.752   4.781 -0.2005 -0.0672 -0.0838
 2490W        W 6541   8.222   3.260  13.305 -0.4038  0.2471 -0.2432
 2491W        W 6542   4.392   1.296  11.477  0.0144  0.0522  0.0895
 2492W        W 6543   9.627   8.034  13.878 -0.3731 -0.0838 -0.0013
 2493W        W 6544   0.307   6.530  13.610 -0.2723 -0.0082 -0.0519
 2494W        W 6545   2.800   4.481  10.650  0.1001 -0.1230 -0.2651
 2495W        W 6546   0.925   9.832   9.832  0.0343  0.1979  0.1074
 2496W        W 6547   3.679   1.386  11.024 -0.0091 -0.1852  0.3589
 2497W        W 6548   7.697   5.818  12.129  0.1065 -0.1603  0.0753
 2498W        W 6549   2.762   0.278  11.893  0.0110 -0.0117 -0.0226
 2499W        W 6550   7.051   1.978   5.389  0.0511 -0.1415 -0.2943
 2500W        W 6551   5.962   7.975  11.223 -0.2591 -0.0692 -0.0113
 2501W        W 6552   3.980   3.941   3.875  0.2452  0.2640  0.0534
 2502W        W 6553   7.053   0.208  10.755  0.0608 -0.0671 -0.0816
 2503W        W 6554   8.674   1.285   2.563 -0.2238  0.0525 -0.1662
 2504W        W 6555   4.581   4.169  10.099 -0.0852  0.2078 -0.0625
 2505W        W 6556   6.908   7.495  13.158  0.0823 -0.1502  0.2945
 2506W        W 6557   1.563   5.069   2.910 -0.2129 -0.1257  0.2211
 2507W        W 6558   9.943   5.143   1.473  0.0311  0.3367  0.0807
 2508W        W 6559   8.030   5.168   4.320  0.1612  0.1501  0.1922
 2509W        W 6560   6.337   1.973  11.138  0.0970 -0.1868  0.1719
 2510W        W 6561   7.365   6.595   0.197 -0.2029 -0.1185 -0.4771
 2511W        W 6562   4.435   5.260   9.256  0.2066 -0.3597 -0.3180
 2512W        W 6563   2.651   2.324   1.007 -0.1970  0.0255 -0.2469
 2513W        W 6564   6.698   1.565  12.242 -0.1013  0.0377  0.1862
 2514W        W 6565   9.804   9.362  12.815 -0.1102 -0.1762 -0.0376
 2515W        W 6566   4.446   2.196   4.495 -0.3004  0.2603 -0.0548
 2516W        W 6567   0.662   8.408  10.092  0.1007 -0.0189  0.1824
 2517W        W 6568   4.194   7.181   1.247  0.2732 -0.0152 -0.0011
 2518W        W 6569   3.517   7.639  12.089  0.1389  0.2699  0.1163
 2519W        W 6570   2.919   6.535  11.583  0.2626  0.0472 -0.0361
 2520W        W 6571   1.489   0.066   3.075 -0.1103 -0.4459  0.0817
 2521W        W 6572   7.382   4.104  10.525  0.2062  0.0677  0.1109
 2522W        W 6573   0.240   6.104  10.560  0.0750 -0.2480  0.1319
 2523W        W 6574   4.511   0.492  13.180  0.1884  0.0855 -0.0002
 2524W        W 6575   0.759   4.102   0.349 -0.2102 -0.0169 -0.0713
 2525W        W 6576   7.337   9.772   0.532 -0.1567  0.1955 -0.3184
 2526W        W 6577   0.914   2.522   9.459 -0.2046 -0.0286  0.1540
 2527W        W 6578   2.526   6.806  12.960 -0.2019 -0.1254  0.0349
 2528W        W 6579   3.885   6.333   2.288 -0.1219  0.1178 -0.0310
 2529W        W 6580   5.610   8.394   3.365  0.3542  0.1568 -0.1186
 2530W        W 6581   5.911   8.618  10.607 -0.4328  0.0293  0.0538
 2531W        W 6582   6.353   5.964  12.749  0.5980  0.0341 -0.0874
 2532W        W 6583   0.151   2.048   0.054 -0.4714  0.1768 -0.1838
 2533W        W 6584   7.556   9.275  11.237 -0.0602  0.0987 -0.1256
 2534W        W 6585   3.047   4.178   4.527 -0.2184  0.0003  0.1943
 2535W        W 6586   9.661   2.643  11.156 -0.0339  0.1318  0.1208
 2536W        W 6587   8.902   3.860   3.645 -0.1358  0.2372 -0.2337
 2537W        W 6588   6.471   5.832  10.012  0.2232  0.0258  0.0302
 2538W        W 6589   2.389   5.136   9.705  0.1145  0.0407  0.1791
 2539W        W 6590   0.625   4.454   4.812 -0.0907 -0.1401  0.2879
 2540W        W 6591   2.357   2.713   2.269 -0.0656 -0.2163  0.1885
 2541W        W 6592   6.902   6.279   5.267  0.2701  0.0139  0.0977
 2542W        W 6593   4.203   7.206   2.158 -0.2437 -0.0755 -0.2233
 2543W        W 6594   9.254   8.367   4.449 -0.1520  0.2711  0.2764
 2544W        W 6595   3.958   1.522   3.265 -0.3452  0.1040 -0.0091
 2545W        W 6596   9.814   8.599   9.099 -0.1575  0.3679 -0.2024
 2546W        W 6597   8.312   1.010   2.197  0.0243  0.0303  0.3255
 2547W        W 6598   4.620   2.385   3.097 -0.1489 -0.0551 -0.2291
 2548W        W 6599   2.390   7.365   4.011  0.0366 -0.0475  0.0546
 2549W        W 6600   4.424   2.290   0.662 -0.1332 -0.0162  0.0003
 2550W        W 6601   2.704   8.132   3.256  0.0233 -0.1673 -0.3266
 2551W        W 6602   1.525   1.251   4.938  0.1847  0.0277  0.3787
 2552W        W 6603   6.288   6.973   2.771 -0.1854  0.1172  0.0474
 2553W        W 6604   2.970   4.705   2.991  0.1656 -0.1822  0.0970
 2554W        W 6605   9.730   6.227  11.553  0.0027 -0.1746  0.3542
 2555W        W 6606   9.962   6.116   2.219  0.2056  0.1866 -0.0098
 2556W        W 6607   0.410   1.942  10.518  0.2718 -0.1799 -0.2730
 2557W        W 6608   1.051   7.775  10.844 -0.3896  0.1105  0.1434
 2558W        W 6609   6.570   0.919   2.281  0.1619  0.0230  0.0067
 2559W        W 6610   8.382   8.632  10.078  0.2103  0.1486 -0.0207
 2560W        W 6611   9.776   5.833  13.659 -0.2119  0.1116 -0.1846
 2561W        W 6612   1.456   2.924   2.889 -0.0491  0.0513  0.0713
 2562W        W 6613   2.453   8.900  11.110  0.1602  0.1157  0.0653
 2563W        W 6614   1.501   6.590   1.655  0.1079  0.0170 -0.0331
 2564W        W 6615   7.165   7.726   2.456  0.3613 -0.0071 -0.1085
 2565W        W 6616   5.018   6.761   3.728  0.5068 -0.1965  0.0538
 2566W        W 6617   3.663   4.650   8.844  0.0196 -0.0280 -0.2538
 2567W        W 6618   6.742   1.217   1.415  0.3412 -0.0088  0.0297
 2568W        W 6619   8.409   8.193   1.650  0.2053  0.0136  0.2861
 2569W        W 6620   9.697   3.477   5.277 -0.0477  0.2422 -0.2703
 2570W        W 6621   8.069   6.733   1.811  0.0490  0.2188  0.0860
 2571W        W 6622   3.658   8.791  10.848  0.0832 -0.0430 -0.2353
 2572W        W 6623   5.381   6.100   5.298  0.1965 -0.3492  0.0761
 2573W        W 6624   0.098   3.110  11.751  0.0392  0.1171  0.0020
 2574W        W 6625   1.766   4.156  10.726  0.2451  0.1513 -0.6263
 2575W        W 6626   4.163   6.118   0.277 -0.1055 -0.0308  0.0797
 2576W        W 6627   7.058   8.126  10.718  0.3295  0.0355 -0.0022
 2577W        W 6628   4.610   0.020   2.975 -0.0445 -0.0122 -0.0847
 2578W        W 6629  10.041   2.919  13.713 -0.4791  0.0504 -0.0172
 2579W        W 6630   7.939   6.401  13.305 -0.1500 -0.4874  0.0710
 2580W        W 6631   5.270   6.680  10.378  0.1309  0.2282 -0.3326
 2581W        W 6632   1.517   6.735  10.403  0.0380 -0.1513  0.1170
 2582W        W 6633   0.482   8.707   4.031 -0.0146 -0.1361 -0.0514
 2583W        W 6634  10.078   2.722  12.688 -0.0731  0.0891  0.2715
 2584W        W 6635   6.440   7.414   4.131 -0.0060  0.1236 -0.0498
 2585W        W 6636   2.523   2.175  12.533  0.0524 -0.0381 -0.1943
 2586W        W 6637   6.472   7.771  13.342 -0.0670  0.2478 -0.2574
 2587W        W 6638   1.310   2.676  11.721 -0.4731  0.2315  0.2657
 2588W        W 6639   7.186   0.738   0.163  0.0365 -0.0019  0.1850
 2589W        W 6640   2.952   0.604  12.284  0.0056  0.4990  0.2523
 2590W        W 6641   9.150   9.187   0.463 -0.1700 -0.1046  0.0908
 2591W        W 6642   6.391   2.235   8.993  0.0117 -0.0985  0.2724
 2592W        W 6643   4.740   0.244   2.555 -0.0789 -0.0648  0.1218
 2593W        W 6644   6.866   0.950   3.333  0.0851  0.1143  0.0306
 2594W        W 6645   7.346   3.880  13.305 -0.3246  0.3344 -0.0348
 2595W        W 6646   2.297   7.835  13.821 -0.2679 -0.3013  0.1780
 2596W        W 6647   3.478   0.364   3.704 -0.1784  0.0463 -0.1231
 2597W        W 6648   2.117   4.153  11.740 -0.0215 -0.1379 -0.2566
 2598W        W 6649   0.420   6.382  12.519 -0.3801 -0.1677 -0.4965
 2599W        W 6650   9.966   1.671  12.626  0.1189 -0.4959 -0.1116
 2600W        W 6651   0.773   1.959  11.415  0.2647 -0.0003  0.0548
 2601W        W 6652   7.354   3.587  12.692  0.0917  0.0993  0.0274
 2602W        W 6653   2.189   5.262   8.971  0.1792  0.1426  0.1579
 2603W        W 6654   4.953   5.312  10.796 -0.1089  0.0912  0.0744
 2604W        W 6655   7.032   7.270   3.285  0.0924  0.3861 -0.1332
 2605W        W 6656   2.314   9.875   3.406  0.1482 -0.3779 -0.0184
 2606W        W 6657   4.352   6.446   2.622  0.0844  0.0241 -0.0086
 2607W        W 6658   4.898   4.254   0.697  0.2030  0.2321 -0.0016
 2608W        W 6659   9.615   8.579  10.680  0.0169  0.1952 -0.2549
 2609W        W 6660   3.186   2.114   0.045  0.0489 -0.1387  0.0045
 2610W        W 6661   3.384   4.817  13.912 -0.0918  0.0755 -0.1115
 2611W        W 6662   0.857   7.637  13.734  0.0655  0.0840  0.0636
 2612W        W 6663   3.115   5.196  10.181  0.1075  0.0127 -0.2651
 2613W        W 6664   5.210   1.458  11.057 -0.0385  0.1496  0.0910
 2614W        W 6665   0.782   8.918   2.987 -0.0629 -0.1642  0.1421
 2615W        W 6666   0.378   7.592   4.806 -0.1509 -0.0367  0.5053
 2616W        W 6667   6.919   2.192   2.088 -0.0552 -0.0887  0.1305
 2617W        W 6668   5.104   4.990  11.163 -0.0355 -0.1155 -0.1411
 2618W        W 6669   6.212   4.204   3.693  0.2021  0.1395 -0.3621
 2619W        W 6670   6.795   4.188  11.890 -0.2209 -0.3016  0.1017
 2620W        W 6671   3.279   2.936  10.243 -0.0886  0.1037 -0.0852
 2621W        W 6672   6.258   9.734   3.659  0.1993 -0.2290  0.2088
 2622W        W 6673   5.130   5.750  10.957  0.3034  0.2224 -0.0533
 2623W        W 6674   2.880   8.856   1.958 -0.0029  0.0291  0.0335
 2624W        W 6675  10.103   9.643  10.512 -0.1027  0.1313 -0.0957
 2625W        W 6676   6.712   1.457   4.495  0.0092  0.3861 -0.1009
 2626W        W 6677   8.055   4.068   0.085  0.5053 -0.0272  0.1227
 2627W        W 6678   6.201   8.539  13.020  0.2291  0.0057  0.2706
 2628W        W 6679   0.261   9.963  10.129  0.0563 -0.1514  0.3539
 2629W        W 6680   7.887   9.003   0.937  0.0045 -0.1302  0.1445
 2630W        W 6681   2.010   6.687  12.897  0.0497 -0.4214  0.3737
 2631W        W 6682   2.243   2.597   9.297 -0.3520 -0.0686 -0.1900
 2632W        W 6683   9.685   2.093   2.213 -0.0761  0.2226  0.0081
 2633W        W 6684   8.297   9.985  11.516  0.0384  0.1142  0.0537
 2634W        W 6685   2.427   6.878   4.296 -0.0600 -0.2023  0.0192
 2635W        W 6686   2.140   1.513   2.126 -0.0565 -0.1872 -0.3354
 2636W        W 6687   2.025   6.145  12.694 -0.1734 -0.1453  0.1353
 2637W        W 6688   2.352   5.971   2.683 -0.0258 -0.3467  0.1031
 2638W        W 6689   3.953   2.699   3.432  0.0858  0.1120  0.0498
 2639W        W 6690   0.346   6.799  13.222 -0.0837  0.1655 -0.0504
 2640W        W 6691   0.044   7.936  11.097 -0.0266 -0.1074 -0.0035
 2641W        W 6692   1.238   1.050  10.074 -0.0113  0.1385 -0.4147
 2642W        W 6693   0.790   7.811   0.572  0.0573  0.2877  0.1220
 2643W        W 6694   3.656   7.362   3.140  0.2952  0.2626  0.1006
 2644W        W 6695   8.598   6.352   4.517  0.0758  0.1912 -0.2922
 2645W        W 6696   8.563   2.540  10.186 -0.3513  0.4182  0.0680
 2646W        W 6697   9.869   9.831  11.812 -0.2469 -0.0576  0.1012
 2647W        W 6698   5.393   7.403   0.484  0.1772  0.0110  0.3276
 2648W        W 6699   5.958   2.394   9.250 -0.3104  0.1011  0.1519
 2649W        W 6700   8.815   1.131   0.394  0.3030  0.0200 -0.0080
 2650W        W 6701   3.293  10.056   1.585  0.4709 -0.1836  0.2846
 2651W        W 6702   0.505   1.141   1.126 -0.0096  0.3513  0.1914
 2652W        W 6703   1.210   8.505  11.233 -0.1265 -0.1958  0.0981
 2653W        W 6704   3.430   2.486   4.089  0.2425  0.0273 -0.0070
 2654W        W 6705   8.538   9.659  13.902 -0.2332 -0.1056  0.0210
 2655W        W 6706   6.519   0.904   1.795 -0.1926  0.1666 -0.0639
 2656W        W 6707   5.470   1.556   1.451 -0.3240 -0.1863 -0.2558
 2657W        W 6708   3.413   4.078   0.897  0.0845 -0.0159 -0.1260
 2658W        W 6709   4.761   4.453  11.186 -0.1028  0.1660  0.0531
 2659W        W 6710   4.241   4.007   1.216 -0.1634  0.1395 -0.0782
 2660W        W 6711   5.838   3.297  12.227  0.2235 -0.1257  0.0495
 2661W        W 6712   1.744   0.756   1.308 -0.2681  0.5278 -0.3050
 2662W        W 6713   4.398   1.785  12.873 -0.1218 -0.0772  0.2974
 2663W        W 6714   3.943   1.139   3.744 -0.3542 -0.0653  0.1043
 2664W        W 6715   9.403   9.708  12.510 -0.1531 -0.2592  0.0811
 2665W        W 6716   6.591   3.186   2.225 -0.4386  0.1642 -0.3441
 2666W        W 6717   6.588   0.311  13.402 -0.0794 -0.1456  0.1762
 2667W        W 6718   0.220   3.661   3.075 -0.0572  0.1115 -0.0283
 2668W        W 6719   6.278   2.611  13.584 -0.1839  0.1070 -0.2925
 2669W        W 6720   4.709   5.447  12.630 -0.0535 -0.0569  0.0864
 2670W        W 6721   1.610   3.284   0.236 -0.0822 -0.0548  0.1310
 2671W        W 6722   7.096   0.087  13.651 -0.2794 -0.2626  0.2164
 2672W        W 6723   7.583   1.429  10.140 -0.0028  0.0081  0.0639
 2673W        W 6724   0.537   6.858   9.987 -0.1162  0.0971 -0.2208
 2674W        W 6725   8.897   8.317   3.218  0.3342  0.2499  0.0587
 2675W        W 6726   4.185   8.932   2.847  0.3550  0.2184  0.1308
 2676W        W 6727   9.344   1.963   1.090  0.0896 -0.0483 -0.2987
 2677W        W 6728   8.097   4.272  12.508  0.6103 -0.0865  0.3053
 2678W        W 6729   6.939   7.612   9.639  0.0690  0.0402  0.1575
 2679W        W 6730   8.172   2.419  12.147 -0.1524  0.2429  0.2931
 2680W        W 6731   8.438   5.452   9.189  0.0724 -0.3336 -0.1121
 2681W        W 6732   7.972   6.970  12.653 -0.1416 -0.0406  0.0278
 2682W        W 6733   4.414   6.491  13.521 -0.0387 -0.0004 -0.3198
 2683W        W 6734   7.173   5.919  11.185  0.1912  0.3075  0.3854
 2684W        W 6735   0.539   9.157   1.300  0.2455  0.0015 -0.0428
 2685W        W 6736   9.626   1.361   0.139  0.3932 -0.0424  0.2336
 2686W        W 6737   7.248   8.227   4.662  0.2856 -0.0755 -0.0087
 2687W        W 6738   3.184   4.728  10.219  0.0154  0.1412  0.1037
 2688W        W 6739   7.751   3.764  13.789  0.0418  0.1761  0.1278
 2689W        W 6740   4.858   0.959  10.993  0.0075  0.2674 -0.0650
 2690W        W 6741   1.871   3.133   2.844 -0.2567 -0.1126  0.0642
 2691W        W 6742   3.958   4.984  13.057  0.2651  0.1107 -0.2093
 2692W        W 6743   3.993   7.858  11.247 -0.0149 -0.0054  0.2690
 2693W        W 6744   1.994   2.810   0.106  0.2601 -0.2692  0.0569
 2694W        W 6745   4.539   6.135   9.910  0.1139  0.0835  0.1336
 2695W        W 6746   1.432   9.082   0.301 -0.0624 -0.0303 -0.1418
 2696W        W 6747   2.039   7.565  12.669 -0.0033 -0.2434 -0.0407
 2697W        W 6748   5.130   6.952  11.038 -0.1910  0.1386  0.3280
 2698W        W 6749   8.199   8.860  10.922 -0.1127 -0.0769 -0.2555
 2699W        W 6750   2.661   0.934   0.986 -0.0155 -0.1555  0.0177
 2700W        W 6751   1.049   6.056   3.980 -0.1217 -0.1064  0.1668
 2701W        W 6752   7.506   7.686  11.398  0.1788  0.1438  0.1055
 2702W        W 6753   5.153   1.885  10.788 -0.1742 -0.0366  0.1818
 2703W        W 6754   3.779  10.048  10.626  0.1610 -0.4078  0.1302
 2704W        W 6755   3.537   9.651  11.670  0.0925  0.3428 -0.0014
 2705W        W 6756   5.418   4.895   0.301  0.0522 -0.1276  0.1030
 2706W        W 6757   1.862   4.966   3.425  0.0183 -0.2221  0.0400
 2707W        W 6758   5.607   7.442   1.125 -0.2539  0.2756 -0.0168
 2708W        W 6759   9.184   0.181   4.961  0.0002 -0.2304  0.1532
 2709W        W 6760   8.999   7.166   2.504 -0.7001  0.2034 -0.2087
 2710W        W 6761   5.413   2.637   0.474  0.1727  0.0311  0.0816
 2711W        W 6762   9.419   3.973   5.242  0.3135  0.0803 -0.0743
 2712W        W 6763   2.798   1.168  11.193  0.0464  0.4006 -0.0906
 2713W        W 6764   9.100   2.843   4.655  0.0824  0.0363  0.1050
 2714W        W 6765   5.230   5.053   9.412  0.3381  0.0449 -0.1962
 2715W        W 6766   7.370   4.762   0.159  0.4485  0.4422  0.2796
 2716W        W 6767   2.504   6.775   9.395 -0.1264 -0.1323  0.1090
 2717W        W 6768   8.544   3.805  11.169 -0.0033 -0.1521 -0.1968
 2718W        W 6769   4.904   9.287   0.605 -0.1969  0.0221 -0.1819
 2719W        W 6770   2.002   5.936   0.566  0.2468 -0.0922  0.0553
 2720W        W 6771   9.490   6.257   9.506  0.0122  0.0884 -0.4663
 2721W        W 6772   3.048   3.486  11.750  0.0155 -0.1611  0.0693
 2722W        W 6773   6.938   3.371  13.535  0.0984  0.1142 -0.1052
 2723W        W 6774   0.703   2.897  10.122 -0.0781  0.1316  0.0830
 2724W        W 6775   0.369   3.728   8.800 -0.2330 -0.2692  0.0394
 2725W        W 6776   4.755   1.883   2.340 -0.6700  0.0975  0.0422
 2726W        W 6777   7.876   3.173  11.598 -0.2284  0.0092 -0.0952
 2727W        W 6778   7.543   5.273   1.559  0.2277  0.1028 -0.0487
 2728W        W 6779   1.344   5.283   0.150 -0.1742  0.0319 -0.0481
 2729W        W 6780   8.331   2.289   0.874 -0.0338 -0.0762 -0.2380
 2730W        W 6781   9.084   8.973  12.640 -0.0657 -0.2443 -0.2119
 2731W        W 6782   4.112   5.626   0.131 -0.0334 -0.1770  0.1760
 2732W        W 6783   2.417   2.403  11.656 -0.2958 -0.2767 -0.3192
 2733W        W 6784   5.664   8.354  11.946 -0.1450  0.0877 -0.1810
 2734W        W 6785   6.997   1.706   0.778 -0.1880  0.0549 -0.1539
 2735W        W 6786   0.898   9.963   0.159 -0.0744 -0.1211 -0.0982
 2736W        W 6787   4.958   2.472   2.505  0.0681  0.1971 -0.1717
 2737W        W 6788   4.561   8.896  12.223  0.0684 -0.0142 -0.0740
 2738W        W 6789   9.967   8.939  10.453 -0.0474 -0.2599 -0.0396
 2739W        W 6790   8.934   5.664   0.031  0.3798 -0.1049  0.2521
 2740W        W 6791   3.548   8.706   2.659 -0.0002  0.1401 -0.2165
 2741W        W 6792   5.880   6.792   3.916  0.0414  0.0815  0.0056
 2742W        W 6793   6.322   2.715   0.133  0.3412  0.2443  0.0830
 2743W        W 6794   0.507   8.495   1.808  0.0548 -0.2714 -0.1284
 2744W        W 6795   7.664   2.426  11.032 -0.1636  0.2984 -0.1525
 2745W        W 6796   4.501   5.383   4.102 -0.0139 -0.2960  0.3838
 2746W        W 6797  10.001   8.816   1.182  0.0944 -0.2457  0.1664
 2747W        W 6798   4.375   7.070  11.377 -0.3319 -0.2098 -0.3840
 2748W        W 6799   7.029   2.184  10.167  0.1015  0.1048  0.0830
 2749W        W 6800   2.139   4.167   1.144  0.1893  0.3327 -0.0365
 2750W        W 6801   1.382   7.540   2.153 -0.2252 -0.1995 -0.2291
 2751W        W 6802   7.472   7.998   3.646 -0.0635  0.0815 -0.0488
 2752W        W 6803   3.740   5.712   3.067  0.3627  0.0684 -0.1378
 2753W        W 6804   4.265   5.298   1.610  0.3079  0.0448 -0.2041
 2754W        W 6805   7.334   6.639   5.457 -0.2091  0.0334 -0.0994
 2755W        W 6806   0.261   1.777   2.351 -0.2834  0.1091  0.1332
 2756W        W 6807   6.745   9.777   2.154 -0.0020  0.1987  0.2267
 2757W        W 6808   4.177   9.959   0.603 -0.0132  0.3442  0.1982
 2758W        W 6809   2.197   0.755  13.462  0.1252 -0.3080  0.0710
 2759W        W 6810   7.741   2.194   2.984  0.1950  0.0734 -0.0227
 2760W        W 6811   7.704   5.475  13.701 -0.0881  0.0805  0.0057
 2761W        W 6812   8.762   7.595  10.746  0.2523 -0.1780 -0.3261
 2762W        W 6813   2.931   7.599   3.243 -0.1084  0.0899 -0.1995
 2763W        W 6814   5.996   2.075  13.437 -0.1413  0.4832  0.2108
 2764W        W 6815   5.338   5.565   2.742 -0.2177 -0.1195 -0.1537
 2765W        W 6816   2.252   1.168   1.174  0.1795  0.2995 -0.1355
 2766W        W 6817   4.744   9.398  12.717 -0.2471  0.2706  0.1086
 2767W        W 6818   6.857   5.726  10.350 -0.1262 -0.3194 -0.1377
 2768W        W 6819   6.421   7.439  12.275 -0.1794  0.1679 -0.0617
 2769W        W 6820   9.807   5.778   5.529  0.0525 -0.0827 -0.2574
 2770W        W 6821   5.751   6.364   4.211  0.0853 -0.0885  0.0455
 2771W        W 6822   7.004   6.509   0.747 -0.1572 -0.3432  0.1656
 2772W        W 6823   1.677   2.028   9.567 -0.1733  0.2718 -0.1627
 2773W        W 6824   4.084   5.674  11.940 -0.3094 -0.3549  0.0440
 2774W        W 6825   5.833   3.545   0.412 -0.0450 -0.1491 -0.1341
 2775W        W 6826   9.066   1.060   2.837  0.0165  0.0793 -0.0271
 2776W        W 6827   8.190   1.389   2.711  0.0364 -0.0694  0.1643
 2777W        W 6828   7.228   0.003   4.677 -0.2211  0.0447 -0.1297
 2778W        W 6829   6.257   0.064  12.317 -0.1730  0.0185 -0.0080
 2779W        W 6830   9.564   3.871   9.691 -0.1315  0.0234 -0.0145
 2780W        W 6831   7.217   4.692   2.014  0.3147 -0.0119 -0.1880
 2781W        W 6832   9.669   0.017  11.573 -0.0008 -0.2268  0.0613
 2782W        W 6833   5.264   3.372   0.326  0.1612 -0.3912 -0.2799
 2783W        W 6834   5.189   9.242   0.207  0.1514  0.4053  0.0690
 2784W        W 6835   6.116   6.991   1.815  0.3937  0.0469  0.1826
 2785W        W 6836   7.931   5.481  11.033  0.0829  0.2740 -0.3559
 2786W        W 6837   6.608   2.121   4.446 -0.0625  0.5195  0.0846
 2787W        W 6838   0.569   2.260  13.761 -0.0891  0.2308 -0.0361
 2788W        W 6839   0.089   0.301  10.968  0.0500 -0.3742  0.0109
 2789W        W 6840   0.562   1.102   9.913 -0.3178  0.1811  0.1489
 2790W        W 6841   7.488  10.067   1.956  0.5321  0.0506 -0.0851
 2791W        W 6842   2.597   9.546  10.191  0.3346  0.1221 -0.0786
 2792W        W 6843   6.129   5.619   2.192 -0.2194  0.0761  0.0169
 2793W        W 6844   6.186   6.569   1.390  0.1659 -0.2790 -0.0429
 2794W        W 6845   2.830   1.458  11.710  0.0598 -0.3149 -0.1750
 2795W        W 6846   7.628   7.787   4.067  0.0648  0.4376  0.0912
 2796W        W 6847   6.814   9.763   0.679  0.0227  0.0555  0.1504
 2797W        W 6848   9.094   7.031  13.546  0.4047 -0.1161  0.2549
 2798W        W 6849   0.868   8.705   0.664  0.1521  0.1717  0.1537
 2799W        W 6850   1.029   5.767   4.790  0.0109 -0.1819 -0.1388
 2800W        W 6851   3.373   9.186  13.909 -0.2404 -0.3078 -0.0512
 2801W        W 6852   2.238   2.950  12.750 -0.0205  0.0137 -0.0438
 2802W        W 6853   4.886   2.315  10.815  0.2442 -0.1336  0.0216
 2803W        W 6854   6.451   9.748  13.033 -0.1280  0.0280  0.2920
 2804W        W 6855   4.737   2.921  12.590 -0.1239 -0.2147 -0.0168
 2805W        W 6856   8.170   0.288   2.420  0.0454 -0.1540  0.1651
 2806W        W 6857   9.419   6.463   1.807 -0.2383 -0.1445 -0.0033
 2807W        W 6858   7.939   4.724   9.654  0.2878 -0.0754  0.1321
 2808W        W 6859   2.116   3.414  11.324 -0.1090  0.2525 -0.0072
 2809W        W 6860   5.710   9.128  10.504  0.0040 -0.1433 -0.2436
 2810W        W 6861   9.182   2.838  12.973  0.1978 -0.2139  0.1823
 2811W        W 6862   0.135   7.542   9.825  0.3202  0.1494  0.0928
 2812W        W 6863   0.219   6.918   2.757  0.0402  0.3826 -0.3593
 2813W        W 6864   7.652   2.043  13.447  0.1841 -0.2213  0.0168
 2814W        W 6865   8.186   9.704   9.835 -0.3377 -0.1111  0.3293
 2815W        W 6866   2.819   2.568  13.815 -0.1067  0.0082  0.0233
 2816W        W 6867   9.305   8.514   1.745  0.1970  0.0292 -0.0414
 2817W        W 6868   3.603   3.492   4.780  0.0670  0.1099 -0.0185
 2818W        W 6869   7.027   1.374   9.389  0.1520 -0.0448 -0.2253
 2819W        W 6870   9.721   2.769   4.252 -0.2014  0.0332 -0.1131
 2820W        W 6871   1.428   1.664   2.828  0.0912 -0.0865  0.0288
 2821W        W 6872   0.533   3.742   9.437  0.0532  0.1639 -0.2842
 2822W        W 6873   7.964   9.284  12.579 -0.1454 -0.1023  0.1121
 2823W        W 6874   9.277   5.575   2.803 -0.0945 -0.0418  0.0321
 2824W        W 6875   5.977   7.663   3.233 -0.2108  0.0140  0.0617
 2825W        W 6876  10.023   0.906   4.672 -0.0175  0.0223  0.0222
 2826W        W 6877   3.402   0.719   2.064 -0.0218  0.1594  0.0288
 2827W        W 6878   8.212   1.873  13.382 -0.0853 -0.2874 -0.0097
 2828W        W 6879   9.612   6.000   1.768  0.2835  0.3270 -0.2238
 2829W        W 6880   6.577   2.385   4.885  0.2250  0.2991 -0.2872
 2830W        W 6881   2.519   1.508   2.963 -0.1649 -0.1999 -0.2046
 2831W        W 6882   8.187   2.624   9.253 -0.1132 -0.3198  0.0459
 2832W        W 6883   5.734  10.186   1.236 -0.1250 -0.0930 -0.0855
 2833W        W 6884   0.497   3.175  10.872  0.1326  0.0852 -0.0726
 2834W        W 6885   5.113   2.768  13.090 -0.1597 -0.3962  0.3729
 2835W        W 6886   5.820   1.352   1.752  0.3739  0.2492 -0.0720
 2836W        W 6887   6.359   2.961  11.245  0.0093  0.0290  0.0061
 2837W        W 6888   8.484   8.341  13.785  0.1933 -0.0045 -0.2825
 2838W        W 6889   2.139   4.692  12.067 -0.2749 -0.1052 -0.1308
 2839W        W 6890   7.016   2.678   0.411 -0.1070  0.1049  0.0912
 2840W        W 6891   0.020   9.258   4.808  0.0814  0.3123 -0.0102
 2841W        W 6892   7.015   6.265  11.524 -0.1117  0.0031  0.2346
 2842W        W 6893   0.287   2.692   3.760  0.3002 -0.2834 -0.3065
 2843W        W 6894   7.681   9.366   3.859 -0.0493 -0.0068 -0.2893
 2844W        W 6895   8.208   4.478  10.987 -0.1128 -0.0395  0.0094
 2845W        W 6896   2.669   0.655  10.396 -0.2144 -0.2474  0.1224
 2846W        W 6897   2.413   0.147   3.100  0.2962  0.1371 -0.0838
 2847W        W 6898   8.947   3.740   4.148 -0.1327  0.4493  0.1764
 2848W        W 6899   9.443   4.630   5.645 -0.0711 -0.1488  0.0044
 2849W        W 6900   3.711   2.998   1.079 -0.1184  0.0746 -0.1726
 2850W        W 6901   0.967   3.425  12.156  0.0522  0.0751 -0.0434
 2851W        W 6902   2.285   7.978   0.517  0.2552 -0.0175  0.2135
 2852W        W 6903   8.223   3.186   4.953 -0.0562 -0.1818  0.2894
 2853W        W 6904   6.750   1.318   0.929  0.3115  0.4520  0.0537
 2854W        W 6905   1.653   1.176  13.343 -0.1409 -0.0546  0.0087
 2855W        W 6906   4.575   7.405   1.453 -0.2258  0.1112  0.0958
 2856W        W 6907   2.082   4.969   2.933  0.0597 -0.2808  0.3287
 2857W        W 6908   7.614   8.448  11.528 -0.1751 -0.0211 -0.1523
 2858W        W 6909   9.461   5.036  10.062  0.2082  0.2482 -0.3033
 2859W        W 6910   4.642   7.202   3.327 -0.3341  0.0911 -0.0293
 2860W        W 6911   2.367   0.071  13.748  0.1182  0.1969 -0.1089
 2861W        W 6912   7.058   7.485   1.698 -0.0249 -0.0365 -0.1672
 2862W        W 6913   7.349   7.682   5.373 -0.0701  0.1358  0.2601
 2863W        W 6914   3.115   5.419  12.942 -0.0412  0.1248 -0.3847
 2864W        W 6915   3.177   9.818  12.091  0.0471 -0.0174  0.0874
 2865W        W 6916   0.122   3.253   1.293 -0.0160  0.2389 -0.1650
 2866W        W 6917   8.668   4.527  11.961  0.2546 -0.0881  0.0412
 2867W        W 6918   9.351   0.976   2.333  0.4870 -0.2568 -0.1998
 2868W        W 6919   4.525   6.574   8.805 -0.0505  0.2307  0.1948
 2869W        W 6920   1.373   2.230  10.786  0.0504  0.0209 -0.2256
 2870W        W 6921   2.300   1.357  11.104 -0.0940  0.0816 -0.0730
 2871W        W 6922   2.421   4.387   9.297  0.0583  0.2809 -0.0403
 2872W        W 6923   6.301   5.765  11.374 -0.0099  0.2073 -0.1033
 2873W        W 6924   8.905   4.502   9.925 -0.0904  0.2860 -0.0531
 2874W        W 6925   3.799   7.309   1.021  0.1612 -0.0492  0.2494
 2875W        W 6926   4.795   5.266   9.789  0.2414  0.2504  0.3338
 2876W        W 6927   7.258   8.817   1.692  0.3772 -0.2678  0.0251
 2877W        W 6928   3.288   6.387  12.614 -0.0319 -0.0009 -0.1732
 2878W        W 6929   1.405   5.466  12.041  0.0219  0.2820 -0.0239
 2879W        W 6930   5.130   6.222  13.039 -0.0338 -0.5010  0.0178
 2880W        W 6931   0.996   0.604   1.904 -0.0147 -0.1412 -0.0813
 2881W        W 6932   5.454   0.382   1.770 -0.0956 -0.0225  0.2428
 2882W        W 6933   9.199   3.555   9.556  0.0714 -0.0632  0.1851
 2883W        W 6934   2.955   8.336   1.970  0.2325  0.1324 -0.1465
 2884W        W 6935   3.050   0.166  11.414 -0.1932 -0.3585  0.0492
 2885W        W 6936   8.606   7.741   5.735 -0.1255  0.1875  0.0688
 2886W        W 6937   4.429   0.772  11.001 -0.0745  0.0858  0.2154
 2887W        W 6938   4.226   8.726  12.693 -0.0660  0.0944  0.3054
 2888W        W 6939   4.931   6.897  13.158  0.2463  0.0154  0.0226
 2889W        W 6940   2.807   5.017   1.395 -0.0020 -0.1825  0.0414
 2890W        W 6941   8.373   4.846   0.191 -0.0657 -0.1575 -0.0111
 2891W        W 6942   7.493   0.239   0.117  0.3022  0.1783  0.0290
 2892W        W 6943   9.424   2.611   1.634 -0.1567  0.5093 -0.0736
 2893W        W 6944   0.018   1.711   0.394 -0.1359  0.2621 -0.0711
 2894W        W 6945   3.601   2.970   3.895 -0.0850 -0.0966  0.3218
 2895W        W 6946   1.066   8.507   2.660  0.0453  0.1050  0.3260
 2896W        W 6947   0.099   3.606  11.667 -0.0683  0.1058 -0.0423
 2897W        W 6948   8.734   9.505   3.221 -0.2663  0.0850  0.1870
 2898W        W 6949   9.858   2.021   9.441 -0.2991  0.2419  0.0452
 2899W        W 6950   2.273   8.914   0.570 -0.1031 -0.0570 -0.1400
 2900W        W 6951   0.323   0.216   2.496 -0.0677 -0.3696  0.2235
 2901W        W 6952   9.267   0.313  10.630  0.1028 -0.3331 -0.2769
 2902W        W 6953   8.143   6.087  12.417 -0.0038 -0.1913  0.0018
 2903W        W 6954   9.085   8.388  12.337  0.0985 -0.0150 -0.0137
 2904W        W 6955   0.307   2.343  10.839 -0.2348 -0.0192 -0.0729
 2905W        W 6956   3.769   4.570  11.452 -0.1570  0.1990  0.0709
 2906W        W 6957   0.362   3.830   0.105 -0.2065  0.1049 -0.0626
 2907W        W 6958   9.246   3.199  10.710 -0.1721  0.2650  0.3286
 2908W        W 6959   0.256   7.570   3.220  0.5687  0.1409  0.1043
 2909W        W 6960   4.951   1.330  12.831  0.0057  0.0571  0.0417
 2910W        W 6961   0.022   7.451   2.220  0.0573  0.0275  0.0254
 2911W        W 6962  10.143   6.758   5.535 -0.1648 -0.2547 -0.0817
 2912W        W 6963   1.354   8.012  13.095  0.2798  0.1996  0.1133
 2913W        W 6964   9.758   0.350  13.770 -0.2213 -0.0241 -0.1836
 2914W        W 6965   6.435   8.162  13.696  0.0877 -0.0912  0.1331
 2915W        W 6966   2.832   3.276   0.946  0.1896  0.2815 -0.2785
 2916W        W 6967   7.553   5.170   0.376 -0.0696 -0.3607  0.1980
 2917W        W 6968   5.964   0.487  11.723 -0.0538  0.2232 -0.1887
 2918W        W 6969  10.001   3.203  12.712 -0.0359  0.1016 -0.0176
 2919W        W 6970   5.959   1.341  10.903  0.2369 -0.3657  0.0967
 2920W        W 6971   8.007   8.544   1.689  0.1003 -0.1786  0.0104
 2921W        W 6972   6.326   6.012  12.189  0.0767 -0.0655  0.0461
 2922W        W 6973   3.712   4.419   3.798 -0.2706  0.2399  0.1698
 2923W        W 6974   7.912   0.545   4.441  0.0100 -0.1708  0.3866
 2924W        W 6975   5.321   6.628  13.900 -0.3065  0.1488  0.1526
 2925W        W 6976   4.829   1.986   3.355 -0.1207 -0.0570  0.0287
 2926W        W 6977   8.689   0.784   9.501 -0.1188 -0.1292  0.2404
 2927W        W 6978   4.735  10.108  12.466  0.0171 -0.2165 -0.0869
 2928W        W 6979   5.450   7.590   3.232 -0.1237 -0.2987 -0.0768
 2929W        W 6980   8.269   4.987  13.626 -0.1350  0.1281 -0.0091
 2930W        W 6981   0.961   8.598   2.104  0.0984  0.0797  0.0777
 2931W        W 6982   8.590   7.955   3.998  0.1115  0.1672  0.2076
 2932W        W 6983   8.608   8.383   8.717 -0.0742  0.0771 -0.0693
 2933W        W 6984   6.242   3.006  12.191  0.0237  0.0199 -0.1514
 2934W        W 6985   9.772   8.708   4.274  0.0647  0.0878  0.0614
 2935W        W 6986   3.714  10.034  10.095 -0.2726  0.1027 -0.2412
 2936W        W 6987   0.655   8.284   2.285  0.1729  0.0779  0.0812
 2937W        W 6988   8.065   1.918  10.882 -0.2448  0.0924 -0.1905
 2938W        W 6989   3.663   9.548  12.114  0.1376 -0.1249 -0.0295
 2939W        W 6990   0.337   2.093  10.030 -0.1221 -0.0608  0.0224
 2940W        W 6991   1.039   0.119   1.987  0.2826 -0.0870  0.2502
 2941W        W 6992   5.838   0.081   1.753 -0.1223  0.2330  0.1279
 2942W        W 6993   4.227   2.425   2.077 -0.2310 -0.0900 -0.1512
 2943W        W 6994   3.661   2.999   1.609 -0.1387 -0.2832 -0.3348
 2944W        W 6995   8.996   7.394  12.049 -0.0685 -0.0383  0.1391
 2945W        W 6996   7.427   0.588   9.811  0.2866 -0.0735  0.0832
 2946W        W 6997   2.788   3.965  10.629 -0.0901 -0.0233  0.1223
 2947W        W 6998   1.319   3.946   2.502  0.0061  0.0544 -0.1076
 2948W        W 6999   4.549   5.108  13.404  0.0304 -0.0596  0.0338
 2949W        W 7000   0.921   2.407  11.783 -0.2059  0.1724  0.2610
 2950W        W 7001   9.385   6.976   1.711  0.0066 -0.2154  0.1941
 2951W        W 7002   4.111   7.696   2.965  0.1753  0.0948 -0.0589
 2952W        W 7003   8.648   2.890   2.745  0.3145  0.0366  0.1993
 2953W        W 7004   8.860   0.305  10.349  0.1829 -0.1712  0.0976
 2954W        W 7005   2.608  10.069  11.122  0.2444 -0.4973  0.2446
 2955W        W 7006   5.685   7.175   4.618 -0.3099  0.0680  0.1778
 2956W        W 7007   7.865   5.396   1.906 -0.3620  0.1956  0.1332
 2957W        W 7008   2.256   1.083  12.018  0.0345  0.0157 -0.1501
 2958W        W 7009   9.696   5.375   0.539  0.0490  0.1582 -0.0364
 2959W        W 7010   9.437   5.889  12.834 -0.0727 -0.1026  0.1180
 2960W        W 7011   6.191   1.199  11.306 -0.2989 -0.2029 -0.0460
 2961W        W 7012   1.907   6.276   2.465 -0.1170  0.1935 -0.0105
 2962W        W 7013   7.761   4.889   3.371  0.0648  0.1113 -0.0634
 2963W        W 7014   9.591   6.311   0.935  0.2189 -0.0617 -0.0357
 2964W        W 7015   3.722   2.749  10.505  0.1630 -0.1404  0.0341
 2965W        W 7016   6.670   0.437   2.013 -0.0582 -0.0375  0.0968
 2966W        W 7017   0.536   0.546  13.623  0.0459 -0.0205 -0.4443
 2967W        W 7018   7.407   4.475   1.538 -0.2903  0.0460  0.1132
 2968W        W 7019   9.244   2.747   4.160 -0.1704 -0.0951  0.0287
 2969W        W 7020   1.613   3.439   9.502  0.4992 -0.2985  0.1146
 2970W        W 7021   8.129   6.738  13.687  0.1639 -0.3984 -0.1097
 2971W        W 7022  10.195   5.578  12.988  0.1339  0.0637  0.0850
 2972W        W 7023   6.791   3.192   1.400  0.1720  0.3317 -0.1484
 2973W        W 7024   4.981   4.921   1.709  0.0621 -0.0847  0.0054
 2974W        W 7025   4.241   4.018   2.471 -0.0088  0.3711  0.1470
 2975W        W 7026   6.915   7.684  10.128  0.1556 -0.0759  0.1346
 2976W        W 7027   7.605   4.550  11.739 -0.2486  0.0328  0.1684
 2977W        W 7028   2.332   6.577  12.427 -0.2389  0.0018 -0.1077
 2978W        W 7029   4.655   6.301  11.866  0.1038  0.1539 -0.1126
 2979W        W 7030   7.509   0.898   1.877 -0.0516 -0.1626  0.1244
 2980W        W 7031   2.194   4.625  10.574 -0.0164 -0.0736 -0.0199
 2981W        W 7032   2.221   4.054   2.534 -0.2655 -0.1672  0.1453
 2982W        W 7033   5.956   6.591  10.644 -0.1547  0.0454 -0.2321
 2983W        W 7034   2.768   3.342   9.161  0.3153 -0.1659  0.2762
 2984W        W 7035   4.273   9.135   3.307 -0.3464 -0.2259  0.2335
 2985W        W 7036   3.866   8.105  12.169 -0.3673  0.2956 -0.1465
 2986W        W 7037   2.893   1.803  12.463 -0.3093 -0.3441  0.3644
 2987W        W 7038   7.992   2.578  10.666 -0.0009 -0.1278 -0.3246
 2988W        W 7039   0.916   0.019   3.773  0.0041  0.3559 -0.4966
 2989W        W 7040   8.395   6.685  10.807 -0.1058 -0.1082 -0.0441
 2990W        W 7041   1.512   9.926  12.165  0.0155 -0.0062  0.0820
 2991W        W 7042   2.405   7.302   0.023 -0.3184  0.0541  0.0175
 2992W        W 7043   5.946   5.707   9.731 -0.1359  0.1817  0.0350
 2993W        W 7044   5.952   3.739  11.018  0.2283 -0.0986 -0.0203
 2994W        W 7045   6.618   0.019  11.058 -0.1876 -0.3606 -0.4116
 2995W        W 7046   6.475   7.002  11.310  0.1519  0.1163 -0.0467
 2996W        W 7047   8.567   0.014   2.296  0.0992 -0.1283  0.0159
 2997W        W 7048   3.206   7.160  13.657 -0.2002 -0.0779 -0.1154
 2998W        W 7049   1.384   2.527  13.411  0.0940  0.2254  0.0649
 2999W        W 7050   5.497   0.353  11.980  0.3684 -0.0057  0.1212
 3000W        W 7051   7.231   4.603  12.055 -0.1649 -0.0928 -0.0002
 3001W        W 7052   5.153   1.078   1.360 -0.0418  0.0901  0.0334
 3002W        W 7053   3.235   1.199  11.915  0.2485 -0.2494 -0.3352
 3003W        W 7054   6.788   2.122   0.066  0.2808  0.1805 -0.1689
 3004W        W 7055   6.923   1.663  10.945  0.2078 -0.3445 -0.4321
 3005W        W 7056   1.467   6.249  10.160  0.0813  0.0562  0.0501
 3006W        W 7057   6.736   8.760  12.816  0.0663  0.1880 -0.2013
 3007W        W 7058   1.098   7.336  11.776  0.0497  0.0417 -0.3782
 3008W        W 7059   0.891   0.630   0.606  0.0752  0.0394  0.0396
 3009W        W 7060   9.223   4.151   4.266  0.1326 -0.3104 -0.1501
 3010W        W 7061   5.896   2.764   9.681  0.1326 -0.1138  0.2044
 3011W        W 7062   3.867   1.438   1.597  0.1550 -0.2403 -0.1534
 3012W        W 7063   9.997   0.245  10.168 -0.2112 -0.3631  0.1267
 3013W        W 7064   9.845   3.607  11.331 -0.0966  0.0907  0.1950
 3014W        W 7065   3.545   6.126   0.337 -0.0172 -0.0340 -0.0175
 3015W        W 7066   8.744   1.454  10.033  0.0446 -0.2669 -0.1105
 3016W        W 7067   1.939   7.068  13.758 -0.4760  0.4006 -0.0593
 3017W        W 7068  10.031   4.970  11.256  0.1974 -0.0133 -0.1093
 3018W        W 7069   0.884   2.916   2.057 -0.0730  0.0873 -0.0495
 3019W        W 7070   8.212   3.022   2.521 -0.0376 -0.7478 -0.2748
 3020W        W 7071   7.873   2.804   8.826  0.4558 -0.3190  0.1155
 3021W        W 7072   8.104   5.179   3.035  0.2518  0.3266  0.1813
 3022W        W 7073   8.500   5.051   1.714  0.1881 -0.1226  0.2167
 3023W        W 7074   5.260   6.401   2.179  0.1628  0.6181  0.2975
 3024W        W 7075   2.229   7.111   2.066  0.0214  0.0153 -0.3996
 3025W        W 7076   1.137   4.892  13.436  0.1484 -0.3752 -0.1906
 3026W        W 7077   7.945   8.103   1.421  0.1019 -0.1225  0.2641
 3027W        W 7078   0.217   0.695   9.342 -0.1743 -0.0553  0.0173
 3028W        W 7079   9.248   0.279   1.060  0.2031  0.0123  0.1493
 3029W        W 7080   7.075   1.611  11.953 -0.1102  0.1903  0.0891
 3030W        W 7081   4.803   5.257   0.812 -0.3571 -0.1232 -0.2464
 3031W        W 7082   9.273   3.551   3.826 -0.2368  0.0063 -0.0880
 3032W        W 7083   4.366   4.341  13.089 -0.1304  0.0271  0.1398
 3033W        W 7084   9.389   3.353   5.679 -0.0933  0.1126  0.0389
 3034W        W 7085   8.122   8.307   3.602  0.0522 -0.3300  0.0021
 3035W        W 7086   4.700   9.547   1.430 -0.0440 -0.3214  0.3821
 3036W        W 7087   8.485   1.995   4.766 -0.2016 -0.0540  0.1249
 3037W        W 7088   2.820   0.157  13.073 -0.1091  0.0814  0.0074
 3038W        W 7089   9.790   0.045   9.648 -0.2516 -0.0192 -0.0353
 3039W        W 7090   5.923   4.841   1.966  0.2585  0.1252 -0.2002
 3040W        W 7091   0.646   2.518   1.918  0.1694  0.0268 -0.0283
 3041W        W 7092   6.230   6.404   1.923 -0.4034  0.3052  0.0355
 3042W        W 7093   2.555   6.979  12.186 -0.2150 -0.1370 -0.2344
 3043W        W 7094   5.857   1.132   0.075  0.1348  0.1471  0.3682
 3044W        W 7095   3.082   1.333   3.234  0.2742 -0.3099 -0.0880
 3045W        W 7096   1.061   9.857   2.199 -0.2293  0.1960  0.0414
 3046W        W 7097   9.112   3.438  12.210 -0.1794  0.0699  0.0027
 3047W        W 7098   3.945   3.631   3.415 -0.0537  0.1112  0.0365
 3048W        W 7099   6.155   4.646   4.481 -0.1455 -0.0539 -0.0267
 3049W        W 7100   4.368   5.826   9.055 -0.0394  0.1534  0.1657
 3050W        W 7101   6.539   8.157  13.053 -0.1831  0.2864 -0.0557
 3051W        W 7102   0.541   1.297   4.154 -0.0231 -0.3787 -0.0811
 3052W        W 7103   7.419   2.966   2.913  0.0884 -0.3463 -0.0216
 3053W        W 7104  10.000  10.112  11.074  0.1948  0.0139 -0.1580
 3054W        W 7105   0.710   6.393   0.748  0.1490 -0.2677 -0.3648
 3055W        W 7106   7.368   9.334  13.111 -0.0809 -0.2414  0.1367
 3056W        W 7107   0.069   1.141  11.677  0.0078 -0.1085 -0.3846
 3057W        W 7108   8.518   8.033  11.208  0.0011  0.1908  0.0186
 3058W        W 7109   9.588   6.898   1.244  0.0647 -0.2287 -0.1436
 3059W        W 7110   9.919   7.057   2.443 -0.1957 -0.1749 -0.3231
 3060W        W 7111   5.855   6.588   0.697  0.2413 -0.0208  0.1553
 3061W        W 7112   9.048   1.705  12.337  0.1529  0.1319 -0.3473
 3062W        W 7113   5.508   9.939  12.212  0.0133 -0.4560  0.2812
 3063W        W 7114   8.673   2.034  12.576 -0.2292 -0.0705 -0.0391
 3064W        W 7115   7.791   6.941  10.855  0.1739 -0.1022 -0.1277
 3065W        W 7116   4.552   4.562   0.486  0.0373 -0.1006  0.0815
 3066W        W 7117   0.888   7.684   4.974 -0.1239  0.1167  0.0983
 3067W        W 7118   9.650   5.938  10.039 -0.1627  0.0357 -0.0112
 3068W        W 7119   0.321   9.149   9.758  0.1481  0.1322  0.1485
 3069W        W 7120   8.099   1.589  11.767  0.1058 -0.1770 -0.1929
 3070W        W 7121   3.137   6.697  12.207  0.1370 -0.2168  0.0282
 3071W        W 7122   3.654   9.259   2.088  0.1093  0.2043  0.1474
 3072W        W 7123   3.639   2.433  11.035 -0.2754 -0.1706  0.0769
 3073W        W 7124   7.519   3.610  10.140 -0.0294  0.2687 -0.0367
 3074W        W 7125   0.017   9.403   9.435 -0.3535 -0.2116  0.4100
 3075W        W 7126   8.158   4.200   9.801  0.0863 -0.2096 -0.1110
 3076W        W 7127   3.129   1.407  12.762  0.0524  0.0099  0.0705
 3077W        W 7128   1.688   1.619   1.695 -0.1289  0.1073 -0.0202
 3078W        W 7129   6.198   7.932   0.139  0.1612  0.1561 -0.0843
 3079W        W 7130   7.714   5.775   5.443 -0.2167 -0.1072 -0.0380
 3080W        W 7131   4.648   5.440   3.282  0.3411  0.0486  0.1504
 3081W        W 7132   3.980   0.825  11.904 -0.0697  0.0436 -0.3156
 3082W        W 7133   5.822   1.856   0.209 -0.4400  0.2815  0.1970
 3083W        W 7134   8.980   5.057  12.013  0.3254  0.2427  0.0836
 3084W        W 7135   5.557   6.553  11.241  0.1559  0.0472  0.2668
 3085W        W 7136   1.153   8.452  13.165  0.0811 -0.3387 -0.1407
 3086W        W 7137   9.746   0.743   1.673 -0.3648 -0.0222  0.1019
 3087W        W 7138   9.350   0.278  10.075  0.0733  0.2383 -0.1402
 3088W        W 7139   2.387   4.604   9.753  0.0840 -0.2744 -0.1746
 3089W        W 7140   5.582   8.306   1.519  0.1173 -0.2140  0.2055
 3090W        W 7141   5.043   2.142   2.886 -0.1919  0.0477 -0.1482
 3091W        W 7142   0.896   3.938  10.534  0.2034 -0.0112  0.1638
 3092W        W 7143   3.940   2.608   9.821  0.2582  0.5074  0.0608
 3093W        W 7144   7.960   4.205   3.108 -0.0047  0.0886  0.2462
 3094W        W 7145   1.364   3.758  10.276 -0.1443 -0.4654 -0.3385
 3095W        W 7146   7.917   3.698   3.228 -0.0762  0.1989  0.1114
 3096W        W 7147   2.771   5.448  10.625  0.1144  0.1012  0.4122
 3097W        W 7148   9.163   5.047   3.940 -0.0384 -0.1121 -0.2955
 3098W        W 7149   7.447   0.493  10.534  0.3012  0.5846 -0.1571
 3099W        W 7150   7.416  10.118  10.481  0.0363 -0.0981  0.1272
 3100W        W 7151   7.055   7.535  13.611  0.0362  0.0341 -0.0755
 3101W        W 7152   0.204   0.186   9.826 -0.0991 -0.0589  0.2417
 3102W        W 7153   7.492   2.744   3.424  0.0367  0.0357  0.0961
 3103W        W 7154   6.678   7.292   9.958 -0.2050  0.0177  0.3868
 3104W        W 7155  10.143   1.466   2.659  0.1078 -0.1697  0.1959
 3105W        W 7156   1.081   3.272   3.084  0.2469 -0.0314 -0.2643
 3106W        W 7157   6.179   5.055   3.437 -0.0153  0.1819  0.1481
 3107W        W 7158   8.747   7.066   3.837 -0.2099 -0.0865  0.0687
 3108W        W 7159   3.744   0.061  11.119 -0.2313  0.3358  0.3209
 3109W        W 7160   0.541   0.087   3.044 -0.2353  0.1925 -0.3494
 3110W        W 7161   2.144   7.963  12.350 -0.1842 -0.1261 -0.0081
 3111W        W 7162   3.634   4.913   3.764  0.2957 -0.0125  0.0356
 3112W        W 7163   6.844   5.746  11.538  0.1001  0.1149  0.0407
 3113W        W 7164   8.306   5.610   4.199  0.3259  0.1061  0.2718
 3114W        W 7165   7.577   1.244   2.801  0.2768 -0.1672  0.1272
 3115W        W 7166   1.189   5.704   2.457  0.1145  0.0591 -0.0051
 3116W        W 7167   1.470   3.815  11.255 -0.0939 -0.0848  0.3867
 3117W        W 7168   8.932   6.854   2.935  0.0960  0.3900  0.1760
 3118W        W 7169   0.533   4.613   4.327 -0.1103 -0.0500  0.1255
 3119W        W 7170   8.422   1.457   1.597 -0.1004 -0.3538  0.0142
 3120W        W 7171   9.443   3.984   3.767 -0.0920 -0.1702 -0.2874
 3121W        W 7172   6.199   5.182   9.615 -0.1791  0.1558 -0.1353
 3122W        W 7173   0.826   4.128   2.770  0.1974  0.0742 -0.1773
 3123W        W 7174   8.260   9.101  13.249  0.4326 -0.0950  0.1017
 3124W        W 7175   2.192   8.910   9.650  0.0656  0.4038  0.2788
 3125W        W 7176   0.632   8.629  11.987 -0.4183  0.1031 -0.0882
 3126W        W 7177   5.826   9.811   0.208  0.2322 -0.1463  0.1090
 3127W        W 7178   7.112   1.110   3.694 -0.0363  0.2148  0.0738
 3128W        W 7179   4.402   7.899  10.701  0.1062 -0.1338 -0.0528
 3129W        W 7180   0.454   3.164   3.443  0.0917 -0.0637  0.2890
 3130W        W 7181   4.470   1.042   2.346 -0.0618 -0.3064 -0.1661
 3131W        W 7182   6.060   6.779   0.272 -0.3168  0.1226  0.0013
 3132W        W 7183   3.039   2.817   4.270 -0.1497  0.0961  0.0700
 3133W        W 7184   1.233   5.420   2.068 -0.0908  0.0966 -0.0360
 3134W        W 7185   9.070   6.435   3.091 -0.1599 -0.0739 -0.5844
 3135W        W 7186   0.554   3.220   4.011 -0.0093 -0.0802  0.0018
 3136W        W 7187   6.353   8.900   2.883 -0.0834 -0.2399  0.0001
 3137W        W 7188   0.806   4.198   1.939  0.1803  0.0777  0.0473
 3138W        W 7189   1.159   7.925  11.815 -0.1851  0.1888  0.0231
 3139W        W 7190   6.682   3.704   0.662 -0.1922 -0.2352  0.1487
 3140W        W 7191   9.901   3.444  10.885 -0.3148  0.1009 -0.0819
 3141W        W 7192   7.423   6.088   1.904 -0.0946 -0.3812 -0.0843
 3142W        W 7193   5.307   5.215   4.692 -0.3648 -0.0970  0.0227
 3143W        W 7194   0.115   7.421   0.883  0.1689  0.3236 -0.0490
 3144W        W 7195   1.058   7.855   3.918 -0.0094  0.0122  0.1017
 3145W        W 7196   9.496   6.223   2.943 -0.1084 -0.3642 -0.2938
 3146W        W 7197   9.615   8.779   1.990  0.0663 -0.3165  0.3645
 3147W        W 7198   9.536   1.208  10.921 -0.0260  0.0162 -0.1442
 3148W        W 7199   3.171   2.339   2.694 -0.3405  0.1394  0.0883
 3149W        W 7200   8.205   3.197  12.310  0.0621 -0.0131  0.0240
 3150W        W 7201   7.701   7.053  10.265 -0.0576  0.0680 -0.0127
 3151W        W 7202   4.932   4.358   4.604  0.2615  0.0962 -0.0296
 3152W        W 7203   0.965   1.148  13.040 -0.0386  0.1592 -0.0047
 3153W        W 7204   1.974   2.444   1.628 -0.1176  0.3617  0.0818
 3154W        W 7205   7.692   0.858  13.502 -0.1493  0.0353  0.3135
 3155W        W 7206   7.029   6.478   8.904 -0.0745 -0.0343 -0.1928
 3156W        W 7207   3.433   4.625   4.130 -0.0711  0.3033  0.0055
 3157W        W 7208   0.032   7.204  13.106  0.2526 -0.1968  0.0997
 3158W        W 7209   9.585   7.026  13.767  0.1022  0.0653  0.0281
 3159W        W 7210   1.862   0.105  12.316 -0.0920 -0.2223  0.5665
 3160W        W 7211   0.814   4.665  13.828 -0.1763  0.0739 -0.1930
 3161W        W 7212   2.845   5.929   4.298  0.0216  0.2029 -0.1976
 3162W        W 7213   8.010   8.361   0.246 -0.2799  0.6524 -0.1655
 3163W        W 7214   8.607   0.846   5.357 -0.3154 -0.0610  0.0330
 3164W        W 7215   6.923   0.460   2.952 -0.1171  0.2206  0.3876
 3165W        W 7216   9.407   9.536   5.173 -0.2795  0.0054  0.3740
 3166W        W 7217   0.050   2.209   3.659 -0.2140  0.3672  0.0257
 3167W        W 7218   5.362   2.427   3.499  0.3756  0.2692 -0.0887
 3168W        W 7219   1.965   0.642   0.372  0.2408 -0.1777  0.2768
 3169W        W 7220   1.589   8.243   4.648  0.2309 -0.1359 -0.0221
 3170W        W 7221   8.033   5.206   1.425  0.2330 -0.1777 -0.3112
 3171W        W 7222   6.767   6.228   0.288 -0.4589  0.1249  0.2375
 3172W        W 7223   6.593   4.103   4.658 -0.3366 -0.0257  0.0398
 3173W        W 7224   9.455   3.705   4.299  0.2128 -0.1266 -0.0199
 3174W        W 7225   3.549   6.390  10.528 -0.0425  0.1471 -0.0932
 3175W        W 7226   5.548   4.478   2.052 -0.1226  0.0014 -0.0567
 3176W        W 7227   3.260   7.011   3.699 -0.0907  0.1957  0.1380
 3177W        W 7228   5.186   8.040   3.159  0.0012  0.1890 -0.1428
 3178W        W 7229   7.502   5.718   2.854  0.0580 -0.0149  0.1711
 3179W        W 7230   6.410   6.748  13.837  0.0729  0.2005 -0.0817
 3180W        W 7231   2.138   4.270   1.670 -0.1855 -0.2291  0.1352
 3181W        W 7232   1.920   1.614   0.276 -0.0531  0.1314  0.0980
 3182W        W 7233   1.968   2.879   1.355 -0.1077 -0.1866  0.1101
 3183W        W 7234   1.628   4.631   9.911 -0.1539  0.2695 -0.0050
 3184W        W 7235   2.575   4.959   3.021  0.2906 -0.3885  0.4489
 3185W        W 7236   1.080   2.159   4.037  0.0538 -0.0944  0.1592
 3186W        W 7237   4.130   3.488  12.242  0.1118 -0.0077 -0.0821
 3187W        W 7238   9.705   4.643  13.305  0.2352 -0.1605 -0.0920
 3188W        W 7239   4.427   4.303  12.038  0.2043  0.1484  0.1049
 3189W        W 7240   7.152   5.875  12.412  0.0788 -0.0973  0.1389
 3190W        W 7241   3.373   9.176  11.754 -0.0871 -0.4883  0.0400
 3191W        W 7242   2.793   4.526  12.300 -0.2796 -0.2824 -0.1939
 3192W        W 7243   7.068   8.403   1.914  0.1937 -0.0992 -0.2070
 3193W        W 7244   2.347   8.711  11.614  0.1770  0.1369  0.1252
 3194W        W 7245   2.643   5.384  12.633  0.0883  0.1003 -0.2285
 3195W        W 7246   7.619   0.917  12.738 -0.2424  0.0979 -0.0288
 3196W        W 7247   0.016   7.279  12.568  0.1914 -0.3959 -0.2532
 3197W        W 7248   1.401   8.310  12.655 -0.2325  0.1446 -0.2911
 3198W        W 7249   9.251   8.458   2.793 -0.0287 -0.0719 -0.0991
 3199W        W 7250   9.585   5.560   2.124  0.0961 -0.0591 -0.0804
 3200W        W 7251   5.273   9.729   0.340  0.0777  0.0511 -0.2233
 3201W        W 7252   6.629   7.127  10.412 -0.0716  0.2695  0.0639
 3202W        W 7253   8.528  10.114   0.177 -0.2593 -0.1725  0.2942
 3203W        W 7254   7.843   6.332   1.552  0.4708 -0.0614 -0.1595
 3204W        W 7255   1.556   9.905  13.072  0.0584  0.2656 -0.0520
 3205W        W 7256   1.729   5.464   0.697  0.1619  0.1679 -0.1390
 3206W        W 7257   8.461   7.002  12.732 -0.2811 -0.2639  0.0014
 3207W        W 7258   8.459   5.130   4.027  0.0649 -0.0106  0.0520
 3208W        W 7259   0.809   2.259   2.930  0.2816 -0.0190 -0.0764
 3209W        W 7260   7.057   9.181   3.204 -0.3796 -0.1470  0.0375
 3210W        W 7261   5.090   9.410  11.012 -0.0912  0.0512  0.0710
 3211W        W 7262   1.462   7.195   2.529 -0.0784  0.0115 -0.0433
 3212W        W 7263  10.145   3.169   3.450 -0.3696 -0.2156 -0.0554
 3213W        W 7264   9.403   2.110   4.062  0.3428  0.0282 -0.0111
 3214W        W 7265   4.476   7.002  11.880 -0.0396 -0.0524 -0.0386
 3215W        W 7266   4.702   3.947   1.075  0.0494  0.2060 -0.0940
 3216W        W 7267   7.860   9.346  10.778 -0.0994 -0.1266 -0.1712
 3217W        W 7268   9.833   7.952   0.430  0.0412  0.1428 -0.0809
 3218W        W 7269   1.961   3.461   5.087  0.3312  0.3927  0.2941
 3219W        W 7270  10.170   5.764   3.354 -0.0061  0.3399  0.1231
 3220W        W 7271   4.106   9.741  11.884 -0.1736  0.0429  0.0987
 3221W        W 7272   4.120   0.125   0.235  0.3245  0.1319  0.0711
 3222W        W 7273   7.208   7.332  12.804  0.2396  0.1672  0.0606
 3223W        W 7274   0.122   7.695   8.988  0.3457  0.1036  0.1065
 3224W        W 7275   6.849   5.210  11.670  0.2145  0.0997 -0.0079
 3225W        W 7276   7.070   2.126   1.613 -0.1879  0.0593  0.2338
 3226W        W 7277   4.838   6.819  13.849  0.1803  0.3495  0.1437
 3227W        W 7278   0.417   7.463  13.856  0.0368  0.1252  0.0354
 3228W        W 7279   0.685   3.845   3.230 -0.2524  0.0912  0.1891
 3229W        W 7280   9.231   3.124   0.147  0.0953  0.0502 -0.2084
 3230W        W 7281   7.152   5.550   2.389  0.4349  0.2561 -0.2031
 3231W        W 7282   1.186   1.767   4.435  0.0433  0.1283 -0.0318
 3232W        W 7283   9.605   9.407   0.393  0.0502  0.2428 -0.0134
 3233W        W 7284   2.503   7.183   4.802  0.0447  0.1384  0.0169
 3234W        W 7285   4.915   4.181   3.676  0.2345  0.1256  0.1244
 3235W        W 7286   3.739   7.393   1.768 -0.2185 -0.1445  0.1099
 3236W        W 7287   5.223   2.170  11.171 -0.0495 -0.0449 -0.0516
 3237W        W 7288   1.298   9.814  13.751  0.1628  0.0223 -0.1516
 3238W        W 7289   6.648   1.956   3.445  0.0237  0.0267 -0.0734
 3239W        W 7290   2.758   4.077   2.828 -0.1150  0.0095  0.2397
 3240W        W 7291   3.596   5.452  13.143 -0.2020 -0.1170  0.1008
 3241W        W 7292   2.686   5.680   4.667  0.4613  0.4401  0.2519
 3242W        W 7293   5.778   0.499  12.938  0.0008 -0.2481 -0.0993
 3243W        W 7294   8.183   7.428  12.555  0.0543  0.1680 -0.4819
 3244W        W 7295   5.462   2.957  11.432  0.1317  0.3226 -0.1550
 3245W        W 7296   1.603   7.362  13.503  0.3465  0.0617  0.1246
 3246W        W 7297   3.673   0.020  13.859  0.2953 -0.1181  0.5290
 3247W        W 7298   7.411   6.229  12.094  0.4467  0.1194 -0.0045
 3248W        W 7299   5.192   6.975   4.597 -0.0697 -0.2990  0.0939
 3249W        W 7300   5.256   7.535   3.785 -0.2313 -0.0266 -0.1733
 3250W        W 7301   5.240   5.394   9.870  0.3022 -0.0229 -0.1325
 3251W        W 7302   7.643   0.007  10.956  0.2275  0.3492 -0.1966
 3252W        W 7303   9.445   6.127  11.167 -0.1397  0.0548  0.0368
 3253W        W 7304   4.294   4.455   5.043  0.0594 -0.3869  0.3384
 3254W        W 7305   0.828   1.311  10.275 -0.3168 -0.0459  0.0688
 3255W        W 7306  10.041   9.378   3.927  0.1429  0.2171 -0.2182
 3256W        W 7307   4.552   2.289  11.809 -0.0557  0.3817  0.1839
 3257W        W 7308   8.489   0.548  11.688 -0.1676  0.0959 -0.0995
 3258W        W 7309   9.985   8.977  13.039  0.2161  0.0258  0.0861
 3259W        W 7310   9.429   9.402   8.858 -0.0116 -0.0681  0.1134
 3260W        W 7311   4.232   5.552  12.453  0.2567 -0.1443  0.2146
 3261W        W 7312   6.473   4.482   1.242  0.2031  0.0237 -0.1875
 3262W        W 7313   2.740   8.245   2.431  0.0441  0.0526  0.2722
 3263W        W 7314   1.806   5.457   1.279  0.0764 -0.1685  0.0770
 3264W        W 7315   9.176   7.808   1.292 -0.0882  0.3051 -0.2301
 3265W        W 7316   9.480   6.926   4.962  0.0302  0.1507 -0.1351
 3266W        W 7317   0.957   2.891  10.973 -0.1510  0.3007 -0.0224
 3267W        W 7318   4.465   4.530   2.259  0.1070 -0.2683 -0.0074
 3268W        W 7319   6.283   4.704   3.920  0.4983 -0.0615  0.0662
 3269W        W 7320   7.770   3.294   2.909 -0.0727  0.0579  0.2679
 3270W        W 7321   0.831   9.754  12.762 -0.4583  0.0159  0.0948
 3271W        W 7322   9.170   9.309  13.492  0.1775 -0.1916  0.0169
 3272W        W 7323   4.719   2.365  13.591  0.2067 -0.1111 -0.0871
 3273W        W 7324   5.685   3.348  13.886  0.2693  0.0275  0.0680
 3274W        W 7325   9.499   2.841  10.232  0.1788 -0.4510 -0.3707
 3275W        W 7326   3.943   4.878   0.260  0.0512  0.2697  0.0016
 3276W        W 7327   9.125   8.021   1.959 -0.0771  0.0165 -0.1810
 3277W        W 7328   3.541   3.303  11.599 -0.0272 -0.2201  0.5357
 3278W        W 7329   8.599   8.154   9.200  0.1211  0.0489  0.1992
 3279W        W 7330   1.996   6.291  12.216 -0.0171  0.0669 -0.1393
 3280W        W 7331   6.524   5.334  11.292 -0.2369  0.1621  0.0161
 3281W        W 7332   6.971   5.846   2.009  0.1015 -0.0588 -0.1116
 3282W        W 7333   3.720   9.225  13.524 -0.3997 -0.0031  0.1296
 3283W        W 7334   5.647   6.870   9.722 -0.4010  0.1176  0.0601
 3284W        W 7335   2.053   4.282   9.961 -0.0386  0.0719 -0.1235
 3285W        W 7336   8.516   2.462   3.436  0.2705  0.1840 -0.2330
 3286W        W 7337   5.357   4.700   4.738  0.0071 -0.3702  0.1083
 3287W        W 7338   6.041   9.726  12.104 -0.0512  0.4495 -0.0209
 3288W        W 7339   3.931   6.932   1.784  0.2484  0.0764 -0.1033
 3289W        W 7340   4.099   7.713   0.856  0.1497 -0.1264  0.2142
 3290W        W 7341   1.026   9.359   4.321  0.1306  0.1459  0.0591
 3291W        W 7342   1.502   5.294   3.373 -0.1795  0.3820  0.1556
 3292W        W 7343   7.151   2.799   3.731 -0.0544  0.1208 -0.2803
 3293W        W 7344   1.085   8.306   3.539  0.1754 -0.1138 -0.1746
 3294W        W 7345   4.564   9.496  10.960 -0.0157  0.3311  0.1466
 3295W        W 7346   0.122   7.885  10.610  0.1292 -0.2729  0.1719
 3296W        W 7347   2.051   4.883  11.061  0.1493 -0.2387  0.0939
 3297W        W 7348   6.503   7.839   9.941  0.0120 -0.2086 -0.1091
 3298W        W 7349   9.697   1.549  13.331 -0.0300  0.0075 -0.0647
 3299W        W 7350   3.430   3.973   0.353 -0.2753 -0.1987 -0.0412
 3300W        W 7351   0.745   7.542  11.240  0.0405 -0.2100  0.2944
 3301W        W 7352   0.879   7.669  10.407 -0.1020 -0.0462  0.0967
 3302W        W 7353   9.287   5.739   0.367  0.1141  0.1884 -0.2115
 3303W        W 7354   8.032   0.996  13.115  0.1720  0.1570  0.0272
 3304W        W 7355   8.993   0.399  12.284 -0.2746 -0.1169 -0.1120
 3305W        W 7356   0.911   0.331  13.293 -0.1377 -0.1113 -0.1345
 3306W        W 7357   9.522   4.777   2.185  0.1405 -0.1902 -0.2023
 3307W        W 7358   2.136   2.048   2.342  0.0967 -0.0423  0.0515
 3308W        W 7359   0.973   7.103  10.186  0.1824  0.0946  0.1294
 3309W        W 7360   6.279   8.740   1.997  0.0450 -0.0238 -0.0139
 3310W        W 7361   0.770   0.147  10.045  0.1068  0.1973 -0.4138
 3311W        W 7362   8.237   1.301  12.217  0.2520 -0.0486  0.0137
 3312W        W 7363   3.875   7.141   9.664 -0.0479  0.0564 -0.0821
 3313W        W 7364   4.329   2.537   4.087  0.0660 -0.1088 -0.0668
 3314W        W 7365   8.007   1.875   0.834  0.0232  0.0507 -0.1230
 3315W        W 7366   9.983   5.531   1.826 -0.2794  0.4214 -0.2263
 3316W        W 7367   2.745   5.908   3.149  0.0242 -0.1859 -0.0019
 3317W        W 7368   0.628   8.292   3.756  0.0906  0.0318  0.1084
 3318W        W 7369   0.872   5.150  11.203 -0.2049  0.2171  0.6109
 3319W        W 7370   5.856   7.822   9.226  0.0923  0.2886  0.0894
 3320W        W 7371   7.382   1.052  12.278 -0.0416 -0.2799 -0.0444
 3321W        W 7372   9.001   5.188   1.485 -0.0572 -0.0187  0.0671
 3322W        W 7373   0.519   1.488   2.757 -0.2985  0.0286  0.0072
 3323W        W 7374   8.330   2.940   4.574 -0.0798 -0.0461  0.4065
 3324W        W 7375   2.948   5.954   2.567  0.2206 -0.4523  0.2285
 3325W        W 7376   4.201   0.247  11.776  0.0159  0.0314  0.2048
 3326W        W 7377   1.539   8.759   9.106 -0.2034  0.0875  0.1490
 3327W        W 7378   9.398   4.332  13.572  0.0528 -0.0645 -0.1377
 3328W        W 7379   2.082   4.893  10.101  0.1622  0.2368  0.1439
 3329W        W 7380   7.623   9.186   3.420  0.0974 -0.1968  0.3136
 3330W        W 7381   7.678   2.608  12.879  0.0075 -0.2114  0.1827
 3331W        W 7382   8.316   9.759   2.212 -0.0133 -0.2053 -0.2304
 3332W        W 7383   5.935   2.446  13.875 -0.1132 -0.2192  0.1451
 3333W        W 7384   3.570   5.642   0.295 -0.2434  0.2021  0.0002
 3334W        W 7385   7.941   8.569  10.206 -0.2566  0.1324 -0.1936
 3335W        W 7386   0.189   3.385  13.862 -0.0759 -0.1827 -0.1344
 3336W        W 7387  10.180   2.122   2.057 -0.2620  0.4185 -0.0135
 3337W        W 7388   2.430   6.089  12.450 -0.0983  0.0688 -0.0622
 3338W        W 7389   4.574   0.897   3.150 -0.2863 -0.2689 -0.1026
 3339W        W 7390   5.941   5.871   0.067 -0.1159 -0.2335 -0.0084
 3340W        W 7391   1.704   8.690   0.121 -0.1373  0.3450  0.2676
 3341W        W 7392   5.698   4.473   2.568 -0.0488  0.2524  0.0496
 3342W        W 7393   6.970   1.842  10.493 -0.1093  0.1778  0.3284
 3343W        W 7394   5.624   6.996  10.165  0.2006  0.0765 -0.0869
 3344W        W 7395   6.744   2.400  11.805 -0.2004  0.0611 -0.2056
 3345W        W 7396   1.800   0.736  11.826 -0.1800 -0.3647  0.3571
 3346W        W 7397   5.272   2.916   2.716  0.2029 -0.1143 -0.0950
 3347W        W 7398   9.370   3.196   4.364 -0.3286 -0.0267  0.1226
 3348W        W 7399   3.117   6.551   1.831  0.1689  0.0932 -0.1286
 3349W        W 7400   5.089   4.048  11.304  0.1023  0.0046 -0.1550
 3350W        W 7401   8.108   6.506   8.996 -0.0406 -0.0181  0.1337
 3351W        W 7402   1.347   9.137  10.742  0.2122 -0.0689  0.1230
 3352W        W 7403   3.166   3.024  11.974  0.1509 -0.2957 -0.0073
 3353W        W 7404   1.683   5.009   1.426 -0.1590 -0.4403  0.1541
 3354W        W 7405   4.994   0.768   0.357  0.2431 -0.0469  0.1892
 3355W        W 7406   2.055   2.835   4.092  0.3236 -0.0793  0.1781
 3356W        W 7407   2.705   1.611  11.028  0.0241 -0.2334 -0.1329
 3357W        W 7408   7.818   1.460   3.467  0.3482  0.3993 -0.3119
 3358W        W 7409   5.404   8.470  10.666 -0.0140 -0.0198  0.1293
 3359W        W 7410   4.733   0.989  13.297  0.2474  0.5497  0.1365
 3360W        W 7411   5.859   3.661   9.864 -0.3656 -0.3799  0.1163
 3361W        W 7412   1.006   1.622  12.996 -0.2693 -0.0725 -0.2284
 3362W        W 7413   0.546   0.698   2.557 -0.2381  0.1735 -0.3058
 3363W        W 7414   9.524  10.105   3.865  0.0816  0.0689 -0.0421
 3364W        W 7415   6.022   7.070  12.348  0.0797 -0.4797  0.0934
 3365W        W 7416   2.048   4.084   4.528 -0.0476  0.1563  0.1749
 3366W        W 7417   9.687   2.969  10.665 -0.0321  0.0777  0.0799
 3367W        W 7418   6.592   6.590   4.424  0.1881  0.3106 -0.0135
 3368W        W 7419   9.695   5.643  10.918  0.1789 -0.0588  0.2330
 3369W        W 7420   6.228   6.374   4.058 -0.1178 -0.1411  0.1116
 3370W        W 7421   3.100   4.685   3.763  0.0182 -0.0451 -0.0197
 3371W        W 7422   2.791   3.814   9.580 -0.2403 -0.2821  0.0011
 3372W        W 7423   6.942   9.323   0.959 -0.4175 -0.0083 -0.2305
 3373W        W 7424   6.817   8.436  11.087 -0.1072  0.0492  0.0699
 3374W        W 7425   9.477   0.535   4.692 -0.0527 -0.1171 -0.3528
 3375W        W 7426   4.277   4.704  12.736  0.1898 -0.7638  0.0169
 3376W        W 7427   4.213   4.099   3.007 -0.1158 -0.0332 -0.1764
 3377W        W 7428   3.939   6.408   3.567 -0.2348 -0.1770 -0.0345
 3378W        W 7429   4.964   9.107   2.493  0.0349 -0.0316  0.0538
 3379W        W 7430   2.137   4.248   3.958 -0.2309  0.0730 -0.0610
 3380W        W 7431   8.009   1.673  10.355  0.1273  0.1277 -0.0101
 3381W        W 7432   7.100   5.417   3.768  0.0436 -0.0433 -0.2922
 3382W        W 7433   9.696   5.107   9.588 -0.1344 -0.1543 -0.0776
 3383W        W 7434   3.362   3.857   1.908 -0.0409 -0.1521  0.2606
 3384W        W 7435   5.581   1.139   2.201 -0.1623  0.1328 -0.0252
 3385W        W 7436   1.369   5.651   1.009 -0.1826  0.0678  0.2008
 3386W        W 7437   9.371   9.401   9.936 -0.2284 -0.1782  0.0263
 3387W        W 7438   5.024   1.977  13.741  0.0721  0.1411 -0.1006
 3388W        W 7439   2.517   7.749  13.306 -0.1806 -0.1183 -0.1424
 3389W        W 7440   3.784   8.950   0.008 -0.0567  0.2807  0.2161
 3390W        W 7441   4.187   5.512   3.080  0.1739 -0.0231  0.0862
 3391W        W 7442   9.256   7.838   4.181 -0.6976 -0.0302 -0.4331
 3392W        W 7443   0.855   9.273  13.527  0.0661  0.2877 -0.0031
 3393W        W 7444   0.787   6.619  13.536 -0.2003 -0.0157  0.1132
 3394W        W 7445   3.757   1.057   9.732 -0.0284 -0.1549 -0.0095
 3395W        W 7446   2.621   5.738   0.822 -0.2464 -0.3612 -0.0302
 3396W        W 7447   6.799   6.066  13.752 -0.1739 -0.1424 -0.0937
 3397W        W 7448   5.361   7.868  10.594  0.1349 -0.2253 -0.3080
 3398W        W 7449   4.296   2.705   4.547 -0.0207  0.1443  0.1807
 3399W        W 7450   6.093   8.188   3.469 -0.0394 -0.2780 -0.0820
 3400W        W 7451   9.821   8.532   1.622 -0.1749  0.2767 -0.1116
 3401W        W 7452   9.013   9.911   4.940 -0.0642  0.0747  0.0847
 3402W        W 7453   4.964   6.579   9.738  0.3741 -0.1725 -0.1929
 3403W        W 7454   8.215   3.982  12.107  0.1708  0.1409 -0.2724
 3404W        W 7455   5.123   5.764  13.058  0.1078  0.1963  0.0800
 3405W        W 7456   1.174   9.023   2.699 -0.0908  0.0249 -0.0290
 3406W        W 7457   4.671   8.961   3.555 -0.3040 -0.2027 -0.0112
 3407W        W 7458   6.365   1.043   0.065 -0.0737 -0.2203 -0.0638
 3408W        W 7459   0.025   2.217   0.496  0.2775  0.2648 -0.0514
 3409W        W 7460   0.317   5.491   2.069  0.1510 -0.1385  0.3075
 3410W        W 7461   8.507   1.890  12.998  0.0605  0.0194 -0.0150
 3411W        W 7462   3.340   1.516  12.307  0.4123  0.0181 -0.2246
 3412W        W 7463   8.718   3.495  10.328  0.0047 -0.3506  0.1570
 3413W        W 7464   5.462   5.683   4.806  0.0819 -0.1349 -0.0292
 3414W        W 7465   7.191   5.694   1.580 -0.1579  0.1049  0.0686
 3415W        W 7466   0.484   7.163  12.855  0.1456  0.0108  0.0123
 3416W        W 7467   4.183   0.280   3.758  0.1500  0.0647 -0.0550
 3417W        W 7468   5.742   9.280  11.806  0.2735 -0.1728  0.2056
 3418W        W 7469   7.322   5.093  11.794 -0.0867  0.1681  0.3979
 3419W        W 7470   6.332   3.531  13.004  0.0171 -0.4133  0.2062
 3420W        W 7471   2.844   8.486   1.101  0.2613  0.4778 -0.2327
 3421W        W 7472   2.173   7.509   4.473  0.0687 -0.0685  0.3311
 3422W        W 7473   0.669   8.688  12.686 -0.0442 -0.1306 -0.0473
 3423W        W 7474   8.123   5.765   2.451  0.1750 -0.2907 -0.1448
 3424W        W 7475   7.041   1.340  13.322  0.3951  0.2271 -0.0989
 3425W        W 7476   6.950   0.995  12.644 -0.0956 -0.2919 -0.2025
 3426W        W 7477   4.009   3.076   3.089 -0.3884  0.0994 -0.1029
 3427W        W 7478   2.762   1.759   2.578 -0.0628 -0.2374 -0.0538
 3428W        W 7479   9.986   1.285   1.625  0.0161 -0.2110  0.2124
 3429W        W 7480   8.486   8.728   1.579  0.0132  0.1411  0.0466
 3430W        W 7481   7.419   7.857   1.350  0.2162  0.2889  0.1975
 3431W        W 7482   8.037   8.485  10.680 -0.3408  0.1540 -0.1536
 3432W        W 7483   8.672   7.579  11.311 -0.2137 -0.0266  0.1164
 3433W        W 7484   7.450   1.756   9.718 -0.0863 -0.3204 -0.0994
 3434W        W 7485   4.918   2.019   9.469  0.2578 -0.4453 -0.0543
 3435W        W 7486   5.215   4.293  12.686  0.0740 -0.2930 -0.0979
 3436W        W 7487   9.410   5.808   5.076  0.3129 -0.0817 -0.1455
 3437W        W 7488   1.335   0.293   2.370  0.2402 -0.1123 -0.1991
 3438W        W 7489   6.235   6.402   3.108 -0.3441  0.2191  0.2396
 3439W        W 7490   2.734   1.247  10.164  0.2189 -0.0585  0.1121
 3440W        W 7491   0.094   7.808   1.296 -0.2513 -0.0888  0.0336
 3441W        W 7492   3.433   3.552   3.325 -0.0726 -0.1552 -0.1881
 3442W        W 7493   4.601   5.711   1.676 -0.0964  0.1491 -0.0592
 3443W        W 7494   0.269   8.660   9.906 -0.2719 -0.2941  0.1060
 3444W        W 7495   5.477   5.272   5.685  0.1046  0.0466  0.1215
 3445W        W 7496   4.989   3.567  13.857  0.4182 -0.1275  0.1384
 3446W        W 7497   7.776   1.715  13.067 -0.0403 -0.2252  0.0176
 3447W        W 7498   8.619   8.083   0.270  0.3803  0.1063 -0.2302
 3448W        W 7499   2.550   8.661  10.579  0.2531  0.0266  0.2496
 3449W        W 7500   0.196   4.028   9.173  0.2624  0.2776  0.0180
 3450W        W 7501   3.607   9.796   3.143 -0.1799 -0.0210  0.2136
 3451W        W 7502   3.476   4.801   2.811 -0.0215 -0.0404  0.2405
 3452W        W 7503   7.456   3.566  11.968  0.1152  0.2868 -0.0806
 3453W        W 7504   7.382   3.417  10.645 -0.1603 -0.4710 -0.0812
 3454W        W 7505   4.076   2.655   1.257 -0.0556  0.2073 -0.3669
 3455W        W 7506   7.859   6.454   0.331 -0.2225  0.1857  0.2938
 3456W        W 7507   6.726   0.666   3.694 -0.3302 -0.0232 -0.2024
 3457W        W 7508  10.050   4.974   2.452  0.0004 -0.3196  0.0115
 3458W        W 7509   0.037   7.861   9.458  0.5505 -0.2121  0.0065
 3459W        W 7510   4.404   4.246   3.665  0.0110 -0.2185 -0.0693
 3460W        W 7511   2.009   3.566   0.280  0.2809 -0.0827 -0.2793
 3461W        W 7512   5.210   2.924  12.621  0.2502 -0.1217  0.2999
 3462W        W 7513   8.045   8.533  11.951  0.1321  0.0071 -0.1918
 3463W        W 7514   9.919   0.756  12.144 -0.0544 -0.3367 -0.1038
 3464W        W 7515   8.082   7.872   0.432 -0.1606  0.0332  0.0581
 3465W        W 7516   2.682   7.081   0.745  0.3545 -0.1934  0.2646
 3466W        W 7517   5.663   1.221   0.518  0.2211  0.2120  0.1154
 3467W        W 7518   2.411   2.623  12.398  0.1755  0.3073 -0.0610
 3468W        W 7519   2.430   4.695   1.620 -0.1761  0.0303  0.1217
 3469W        W 7520   8.209   6.233  13.723 -0.0683 -0.0691 -0.3725
 3470W        W 7521   2.199   6.361   4.995  0.3011 -0.4576 -0.2989
 3471W        W 7522   5.007   8.107  12.599 -0.0131  0.1051 -0.2741
 3472W        W 7523   6.959   9.269   2.400 -0.2513  0.0688  0.1734
 3473W        W 7524   2.919   6.248  13.043 -0.0741 -0.0238  0.0948
 3474W        W 7525   9.419   5.215   1.174 -0.1408 -0.0294  0.1271
 3475W        W 7526   4.921   0.002   4.389  0.0997 -0.2663  0.1422
 3476W        W 7527   5.971   5.350  11.996  0.1883 -0.0414  0.1249
 3477W        W 7528   2.421   4.106   0.343  0.0091 -0.1462  0.0057
 3478W        W 7529   6.679   5.438   2.429 -0.0185 -0.0532 -0.1178
 3479W        W 7530   2.125   9.200  12.579  0.0702 -0.2222  0.0521
 3480W        W 7531   1.975   9.769   9.576 -0.4246 -0.0444  0.0883
 3481W        W 7532   9.719   8.032   4.208  0.0483 -0.3143  0.1260
 3482W        W 7533   7.523   8.666  12.030 -0.0395 -0.4059 -0.0599
 3483W        W 7534   3.352   2.702   1.263 -0.0289 -0.0627  0.1162
 3484W        W 7535   7.555   3.119  12.801  0.0913  0.1880  0.0565
 3485W        W 7536   3.036   5.108   9.069 -0.1322  0.1056  0.1394
 3486W        W 7537   0.990   5.989  13.384 -0.1378 -0.1239  0.0477
 3487W        W 7538   5.861   2.581   2.383 -0.1742 -0.1074 -0.0543
 3488W        W 7539   0.519   9.599   2.279  0.1568  0.0386  0.0563
 3489W        W 7540   6.433   2.856   0.626 -0.0610  0.1253  0.1185
 3490W        W 7541   9.182   6.749   2.134  0.0233  0.0466  0.1851
 3491W        W 7542   4.286   4.533   2.749 -0.0039 -0.4014  0.1697
 3492W        W 7543   9.247   6.046  13.847 -0.0270  0.1339  0.1553
 3493W        W 7544   9.159   1.070   9.965  0.3392  0.1417 -0.2297
 3494W        W 7545   3.538   5.966   2.644  0.3491  0.0191 -0.0591
 3495W        W 7546   9.370   0.547   0.135  0.0142  0.0520  0.0623
 3496W        W 7547   5.676   3.280   5.079 -0.0455  0.2633  0.0502
 3497W        W 7548   0.391  10.185  10.706  0.1378 -0.0044 -0.2071
 3498W        W 7549   3.835   6.277   9.404  0.2238  0.0890 -0.1407
 3499W        W 7550   2.355   7.180   1.156 -0.1075  0.0794  0.1900
 3500W        W 7551   7.428   9.174  12.244  0.0582  0.0221  0.2155
 3501W        W 7552   1.938   3.644   1.134  0.0946  0.0456 -0.0004
 3502W        W 7553   8.132   7.346   0.424 -0.0289  0.1486 -0.3220
 3503W        W 7554   2.868   0.851   1.903 -0.4182 -0.1326 -0.1798
 3504W        W 7555   6.501   1.817  12.646  0.4321 -0.3250 -0.1501
 3505W        W 7556   9.963   5.504  10.531  0.0989  0.0294 -0.0133
 3506W        W 7557   3.458   8.203   1.963  0.0649  0.0180  0.3459
 3507W        W 7558   5.628   0.423   0.893  0.0164  0.2985 -0.0302
 3508W        W 7559   5.657   5.684  10.611 -0.1302  0.0582  0.1656
 3509W        W 7560   5.195   3.148  13.661 -0.1448 -0.4256  0.0557
 3510W        W 7561   4.507   1.542   1.048  0.2575  0.0288 -0.2890
 3511W        W 7562   1.611   2.146   8.796 -0.3370  0.0854 -0.0804
 3512W        W 7563   9.295   3.085   9.749 -0.0810  0.3600 -0.0643
 3513W        W 7564   0.632   5.036   3.953 -0.2344  0.2782  0.1441
 3514W        W 7565   7.820   9.790   2.367  0.2759  0.0693 -0.2383
 3515W        W 7566   0.529   8.900  13.550 -0.0364  0.1740 -0.3657
 3516W        W 7567   2.101   2.269   3.171  0.0781 -0.0799 -0.1893
 3517W        W 7568   1.106   0.587  12.770  0.2062 -0.2125  0.0414
 3518W        W 7569   0.176   8.378  12.298  0.1644 -0.2501  0.0621
 3519W        W 7570   6.265   9.347  11.772  0.2890 -0.0658 -0.0420
 3520W        W 7571   9.458   1.153   5.016  0.0241  0.0245  0.0246
 3521W        W 7572   0.163   2.241   4.142 -0.2302  0.3527 -0.0111
 3522W        W 7573   5.503   1.116   3.999  0.1647 -0.0453 -0.0459
 3523W        W 7574   6.917   0.268   3.940  0.2182 -0.1418 -0.1114
 3524W        W 7575   2.150   4.614   8.878  0.0435  0.1369  0.0754
 3525W        W 7576   6.516   5.143  13.836  0.0214  0.2059  0.0494
 3526W        W 7577   8.002   9.576   3.417 -0.1363  0.2364 -0.5571
 3527W        W 7578   5.219   2.922   9.553  0.0921 -0.0866 -0.0588
 3528W        W 7579   1.038   3.445   4.553 -0.3253  0.1013  0.0165
 3529W        W 7580   4.570   6.799   3.938  0.1652 -0.3035  0.2080
 3530W        W 7581   1.766   7.741   1.223  0.3142  0.1832  0.4817
 3531W        W 7582   8.765   5.799   9.965 -0.0575  0.0121 -0.2931
 3532W        W 7583   6.101   4.692   0.855 -0.0533  0.2033  0.4984
 3533W        W 7584   4.363   4.553   3.253 -0.0953  0.0289 -0.0965
 3534W        W 7585   3.906   5.489  13.662  0.1964 -0.0815 -0.1813
 3535W        W 7586   1.505   9.874   9.451 -0.1302  0.0990  0.0189
 3536W        W 7587   7.638   5.738  11.371  0.1272 -0.3426  0.3319
 3537W        W 7588   2.392   2.877  11.190  0.0097  0.0566 -0.4480
 3538W        W 7589   8.735   7.919   8.515 -0.2651 -0.0556  0.1167
 3539W        W 7590   1.236   5.774  12.481  0.0962  0.1653 -0.0682
 3540W        W 7591   8.368   0.478   0.064 -0.0950  0.0886  0.1926
 3541W        W 7592   5.112   1.977   3.825 -0.1172 -0.3298 -0.0716
 3542W        W 7593   1.963   2.209  10.744  0.2656  0.0345  0.2161
 3543W        W 7594  10.054   2.623  11.783  0.0843 -0.1488  0.2034
 3544W        W 7595   2.440   7.903   4.086  0.0878  0.3477 -0.5766
 3545W        W 7596   9.330   8.182  10.961 -0.5139 -0.4680  0.0948
 3546W        W 7597   1.714   1.487  13.789  0.0348 -0.0891  0.3107
 3547W        W 7598   1.834   9.489  10.013 -0.1468 -0.2240 -0.1067
 3548W        W 7599   1.787   2.944   3.387  0.1273 -0.2758 -0.0755
 3549W        W 7600   5.746   5.700  13.381  0.0958 -0.2743 -0.0018
 3550W        W 7601   0.457   5.823   3.399  0.0068  0.0445 -0.4193
 3551W        W 7602   3.253   5.165  10.738  0.2025  0.0895  0.0558
 3552W        W 7603   7.706   8.109   9.948  0.2633  0.2603  0.0741
 3553W        W 7604   6.326   0.813   3.342  0.2279  0.0930 -0.0550
 3554W        W 7605   1.084  10.049   3.325  0.0436 -0.1649  0.1469
 3555W        W 7606   5.212   8.381  13.535  0.1338 -0.0785  0.0484
 3556W        W 7607   4.523   0.631   0.850 -0.1296 -0.0351 -0.2729
 3557W        W 7608   6.779   6.402   3.924  0.1230  0.1261  0.1485
 3558W        W 7609   3.213   1.513  10.958 -0.0846  0.2432  0.1393
 3559W        W 7610   8.578   3.010  10.382 -0.0769  0.3120  0.0310
 3560W        W 7611   9.787   8.455  12.929  0.1939 -0.1862  0.2114
 3561W        W 7612   9.192   5.509   3.712  0.1436 -0.1215 -0.1378
 3562W        W 7613   0.110   4.955  12.166  0.0389  0.1680  0.2417
 3563W        W 7614   9.202   5.303  11.642  0.1382  0.0056  0.1529
 3564W        W 7615   5.970   1.606   3.763 -0.1514  0.0385  0.2144
 3565W        W 7616   8.665   7.662   2.573 -0.1381 -0.0572 -0.0627
 3566W        W 7617   6.031   5.550   4.171  0.1147  0.0957  0.3251
 3567W        W 7618   6.427   1.146   3.643  0.2953 -0.1758  0.2181
 3568W        W 7619   9.205   2.450  11.350  0.0721  0.2455  0.0556
 3569W        W 7620   4.701   5.276   1.339  0.3840  0.0328  0.1507
 3570W        W 7621   3.269   8.758  12.065 -0.0120 -0.3438 -0.1057
 3571W        W 7622   5.273   4.228   0.311  0.0880  0.1469  0.1023
 3572W        W 7623   7.915   4.995  11.873 -0.1021 -0.1525  0.0426
 3573W        W 7624   7.268   7.848  12.905  0.2705 -0.0025 -0.0465
 3574W        W 7625   0.758   5.672  11.109 -0.0028 -0.2351  0.1369
 3575W        W 7626   9.851   1.281   0.565 -0.2041 -0.2403 -0.1528
 3576W        W 7627   7.676   0.548  13.075 -0.3937 -0.0346 -0.1280
 3577W        W 7628   0.797   5.666   1.943  0.2900 -0.1272  0.0562
 3578W        W 7629   8.355   9.210   9.924 -0.3392 -0.0252 -0.3995
 3579W        W 7630   6.682   6.149   3.026  0.0862  0.0677 -0.0027
 3580W        W 7631   6.572   3.992   4.096 -0.5069 -0.0894  0.0126
 3581W        W 7632   0.762   1.857   4.657 -0.3384 -0.1646  0.1266
 3582W        W 7633   0.308   0.280  10.269 -0.0879  0.2691  0.0375
 3583W        W 7634  10.025   0.946  10.215 -0.1963  0.1325 -0.0635
 3584W        W 7635   4.046   2.537   0.753  0.0195  0.2529 -0.2877
 3585W        W 7636   3.811   9.155   2.555  0.0633  0.3730  0.0847
 3586W        W 7637   0.715   4.912  12.935  0.0442  0.0527 -0.0790
 3587W        W 7638   8.469   4.676   3.847 -0.0780  0.0319  0.3030
 3588W        W 7639   2.629   7.129  10.183  0.3255 -0.0140  0.4076
 3589W        W 7640   6.473   1.658   5.504 -0.0327 -0.0724 -0.3009
 3590W        W 7641   0.519   6.522  10.755  0.2255  0.0319  0.2229
 3591W        W 7642   3.174   7.254   0.628 -0.2259 -0.2567  0.2413
 3592W        W 7643   8.589   5.442  10.353 -0.0443  0.0562  0.0695
 3593W        W 7644   1.860   0.130  12.973  0.1562  0.1551  0.0321
 3594W        W 7645   5.857   4.889  11.732  0.2272 -0.0187  0.0477
 3595W        W 7646   9.616   2.568  12.184  0.2523 -0.1737  0.0912
 3596W        W 7647   5.189   0.549  10.013 -0.1639  0.1457  0.1397
 3597W        W 7648   0.644   2.720   4.199  0.3480 -0.0407  0.0172
 3598W        W 7649   9.751   8.300   2.997  0.2697  0.1702  0.2497
 3599W        W 7650   0.211   6.311   9.954  0.0405 -0.2377 -0.3198
 3600W        W 7651   6.205   4.147   1.594  0.3015  0.1171 -0.0095
 3601W        W 7652   9.339   2.792   0.922 -0.2615 -0.0502 -0.2235
 3602W        W 7653   8.706   3.237  10.806 -0.2239  0.1363 -0.2298
 3603W        W 7654   8.706   5.431   3.617 -0.2393  0.1373 -0.6827
 3604W        W 7655   2.163   8.947  12.984  0.1402 -0.0807 -0.1868
 3605W        W 7656   4.649   1.788   2.916 -0.0672 -0.2258  0.2273
 3606W        W 7657   9.022   0.560   1.902 -0.3420 -0.3419 -0.0951
 3607W        W 7658   7.506   9.524  12.672 -0.1919  0.1879  0.0501
 3608W        W 7659   8.377   5.463   2.756 -0.0375 -0.1559 -0.0530
 3609W        W 7660   0.786   7.819   9.638  0.0149  0.0461  0.0360
 3610W        W 7661   8.482   7.633   4.421 -0.0449 -0.2244 -0.1954
 3611W        W 7662   8.914  10.086   1.086  0.0485 -0.0300 -0.0641
 3612W        W 7663   6.044   0.938   1.567 -0.0497 -0.0687  0.4352
 3613W        W 7664   0.473   3.429  12.420 -0.1371 -0.1356  0.1463
 3614W        W 7665   2.921   1.800   3.172 -0.1205 -0.3748 -0.0761
 3615W        W 7666   4.254   0.278  10.888 -0.3816 -0.1197 -0.0969
 3616W        W 7667   6.962   4.991  13.137 -0.0825 -0.0136 -0.0842
 3617W        W 7668   9.997   4.023   0.550 -0.0380 -0.0719 -0.1504
 3618W        W 7669   9.094   4.119   1.409 -0.2110  0.2288 -0.0335
 3619W        W 7670   9.222   0.771   9.552 -0.0686 -0.1322 -0.0939
 3620W        W 7671   1.181   4.749   1.210 -0.1332 -0.0145 -0.1898
 3621W        W 7672   5.008   0.205   3.881  0.0680  0.1623  0.1713
 3622W        W 7673   3.584   7.699  13.082  0.0292  0.2722 -0.2252
 3623W        W 7674   2.983   9.388  10.461 -0.3995 -0.3842  0.0047
 3624W        W 7675   2.987   3.530   2.059  0.0175  0.0424 -0.0890
 3625W        W 7676   5.139   3.511  10.425  0.1204 -0.0597 -0.1044
 3626W        W 7677   5.401   7.667  12.761 -0.3608  0.2829 -0.1053
 3627W        W 7678   4.792   5.286  11.694 -0.1502 -0.2339 -0.1241
 3628W        W 7679   7.022   1.133   2.828 -0.0590  0.0691 -0.0311
 3629W        W 7680   1.725   5.093  12.109  0.0965 -0.0464 -0.0402
 3630W        W 7681   8.756   6.276  10.174 -0.2761  0.1910 -0.2190
 3631W        W 7682   8.055   3.742  12.502  0.4057 -0.0216 -0.0406
 3632W        W 7683   5.360   8.597   2.337  0.0425 -0.1764 -0.2343
 3633W        W 7684   2.631  10.039  12.287  0.1443  0.4956 -0.0784
 3634W        W 7685   1.040   6.919   2.716 -0.1320  0.1548 -0.0596
 3635W        W 7686   4.597   6.325   0.493 -0.1710 -0.3231  0.1438
 3636W        W 7687   4.620   1.297  12.449  0.1641 -0.1987  0.0692
 3637W        W 7688   8.358   1.071  12.659  0.1528  0.1394 -0.1788
 3638W        W 7689   2.087   4.890   0.471 -0.1144  0.1224 -0.4118
 3639W        W 7690  10.037   8.330  10.660 -0.1735  0.1480  0.0365
 3640W        W 7691   2.012   4.530   2.632  0.3688  0.0109 -0.0452
 3641W        W 7692   0.892   4.856  10.319  0.3329 -0.0452 -0.0889
 3642W        W 7693   7.927   1.315  12.737  0.2972 -0.1419 -0.0865
 3643W        W 7694   0.443   3.265   9.674 -0.1155  0.1607 -0.0349
 3644W        W 7695   7.565   1.740  11.905 -0.1321  0.3913 -0.0139
 3645W        W 7696   8.912   1.468   0.735  0.2753  0.3634 -0.0735
 3646W        W 7697   2.707   3.684   0.543  0.2925 -0.0320 -0.0673
 3647W        W 7698   3.742   7.772   3.431  0.1503 -0.1181 -0.0425
 3648W        W 7699   5.795   2.725   3.916 -0.0411  0.0959 -0.0964
 3649W        W 7700   5.476   7.734   1.820 -0.0942  0.0376 -0.0177
 3650W        W 7701   3.706   8.020   2.958 -0.1513  0.2612  0.0142
 3651W        W 7702   8.386   1.553  13.739  0.1414 -0.0210  0.2109
 3652W        W 7703   2.174   0.481  12.774  0.0904 -0.1012  0.3384
 3653W        W 7704   9.869   5.298   3.117 -0.1841  0.1229 -0.2623
 3654W        W 7705   1.125   1.256  10.708  0.2001 -0.1236 -0.4137
 3655W        W 7706   6.625   8.994   9.247  0.3138  0.2690 -0.3151
 3656W        W 7707   3.236   2.828   2.633  0.1230  0.1054 -0.0050
 3657W        W 7708   8.001   2.857  11.138  0.1128  0.2263 -0.0872
 3658W        W 7709   3.505   9.768   2.164 -0.3434  0.1561 -0.0059
 3659W        W 7710   1.120   6.582  12.127  0.1757  0.2757 -0.4138
 3660W        W 7711   7.749   8.878   4.052  0.1150 -0.1112 -0.0533
 3661W        W 7712   8.479   4.561   2.340  0.0153 -0.0604 -0.2099
 3662W        W 7713   3.228   0.890  11.216 -0.0600 -0.0401  0.0275
 3663W        W 7714   1.511   5.683  10.064  0.1873  0.3024  0.4090
 3664W        W 7715   6.243   8.253   1.869  0.1484  0.4915 -0.1103
 3665W        W 7716   0.815   3.539   2.071 -0.0011  0.1146 -0.2475
 3666W        W 7717   2.393   9.274  12.187  0.0767  0.1205  0.0208
 3667W        W 7718   9.746   6.454   1.401  0.0383  0.0633 -0.1375
 3668W        W 7719   1.684   5.685   1.736  0.3877 -0.1743  0.0857
 3669W        W 7720   0.608   6.765   9.390  0.1659 -0.2970  0.0601
 3670W        W 7721   7.516   6.197  13.139  0.5208 -0.1150  0.0017
 3671W        W 7722   8.975   4.182  10.796  0.1425 -0.1807  0.1495
 3672W        W 7723   0.556   4.219  10.246 -0.0577  0.1337  0.0794
 3673W        W 7724   0.153   4.320   1.952 -0.0606  0.0707 -0.0039
 3674W        W 7725   5.905   7.544  12.501 -0.1279  0.2480 -0.4129
 3675W        W 7726   9.639   1.599   4.967  0.0313 -0.0792  0.0660
 3676W        W 7727   7.711   9.326  13.528  0.1325 -0.2017  0.2212
 3677W        W 7728   8.937   2.291   3.180  0.0724  0.2801 -0.0018
 3678W        W 7729   8.691  10.020  11.181 -0.2540 -0.0066 -0.1214
 3679W        W 7730   5.283   3.159  10.959 -0.0610 -0.2489 -0.2359
 3680W        W 7731   8.301   3.439   4.399 -0.3191  0.0859  0.0769
 3681W        W 7732   4.517   3.083   4.708 -0.1295  0.1134  0.1356
 3682W        W 7733   2.016   9.213  11.846  0.0455  0.0412 -0.3812
 3683W        W 7734   8.515   3.239  11.695  0.0999  0.2484 -0.1012
 3684W        W 7735   7.857   2.145  10.398 -0.1221 -0.0937  0.1636
 3685W        W 7736   2.091   7.427   1.523 -0.2308 -0.0912 -0.2163
 3686W        W 7737   8.227   3.396   1.056  0.0821 -0.0921 -0.3222
 3687W        W 7738   8.773   0.031  10.755  0.0410  0.1644 -0.0388
 3688W        W 7739   4.051   5.928   3.395  0.0321 -0.3158 -0.3287
 3689W        W 7740   9.824   8.288  11.200  0.1207  0.1224 -0.0036
 3690W        W 7741   2.262   0.774  10.095 -0.1150  0.0634  0.1214
 3691W        W 7742   7.815   8.836  13.309 -0.0501 -0.1588 -0.1671
 3692W        W 7743   7.690   1.537   1.236 -0.0256 -0.3378 -0.2438
 3693W        W 7744   4.531   9.617  12.287  0.0242 -0.1149  0.0932
 3694W        W 7745   0.450   1.646   9.638  0.1757 -0.2039  0.0840
 3695W        W 7746   1.714   8.204  10.463  0.1082  0.2011 -0.2396
 3696W        W 7747   0.775   1.812   3.083 -0.0519  0.0500 -0.0496
 3697W        W 7748   4.197   4.181  10.919  0.0847 -0.2619 -0.0702
 3698W        W 7749   0.281   6.891   0.720 -0.1133 -0.0452  0.3091
 3699W        W 7750   9.135   0.754  10.318 -0.2281  0.1012 -0.2974
 3700W        W 7751   7.103   0.242   8.974  0.1791  0.1663  0.2039
 3701W        W 7752   8.760   0.999   0.916 -0.1034  0.1881 -0.1051
 3702W        W 7753   5.822   0.650   0.433 -0.1693  0.1062 -0.0442
 3703W        W 7754   9.266   2.659   0.342 -0.0552 -0.1428 -0.1980
 3704W        W 7755   6.899   3.008   2.632 -0.0803  0.2284  0.1939
 3705W        W 7756   6.672   1.895  11.758 -0.2475  0.1240 -0.0585
 3706W        W 7757   7.809   0.613   0.037 -0.2343 -0.1807 -0.1734
 3707W        W 7758   7.267   3.701   0.677 -0.2295 -0.2218 -0.1384
 3708W        W 7759   7.846   5.180  12.870 -0.0179  0.0252  0.1880
 3709W        W 7760   7.879   1.048   4.344  0.0502  0.0804  0.3825
 3710W        W 7761   8.993   7.268   3.226 -0.4350 -0.1832  0.1477
 3711W        W 7762   9.086   9.169   8.587 -0.0906 -0.3840  0.0571
 3712W        W 7763   9.237   1.364   1.083  0.0071 -0.2145 -0.1107
 3713W        W 7764   0.849   6.601   3.471 -0.3533 -0.0012 -0.0390
 3714W        W 7765   0.694   4.524   1.254  0.0441  0.3017 -0.2001
 3715W        W 7766   5.264   5.556   1.241  0.0510 -0.0643 -0.2939
 3716W        W 7767   1.492   9.314   4.100  0.0417  0.2584  0.0895
 3717W        W 7768   8.265   8.485   2.637  0.0089 -0.1387 -0.4674
 3718W        W 7769   6.784   1.683   1.631  0.0419  0.0962 -0.0503
 3719W        W 7770   6.753   5.424   9.943  0.0393 -0.1989  0.1778
 3720W        W 7771   3.955   3.196  10.646 -0.2150  0.0062 -0.2416
 3721W        W 7772   1.108   5.276   3.745  0.2598 -0.2419  0.0412
 3722W        W 7773   6.094   9.043   2.415 -0.3095 -0.2078  0.0216
 3723W        W 7774   0.787   3.007   4.720 -0.2769  0.1033  0.0104
 3724W        W 7775   9.758   2.930   9.350  0.1029 -0.2119  0.2187
 3725W        W 7776   2.448   6.098  11.114  0.0014 -0.0082 -0.2215
 3726W        W 7777   2.487   8.657  10.019  0.3109 -0.2874  0.3903
 3727W        W 7778   5.230   7.398  11.426  0.0528 -0.2520  0.1190
 3728W        W 7779   3.877   2.145   9.992 -0.0971  0.0257 -0.0069
 3729W        W 7780   3.376   4.185  11.008  0.2528  0.2088  0.2355
 3730W        W 7781   8.342   8.127  10.779 -0.2156 -0.0056 -0.0017
 3731W        W 7782   8.232   7.005   2.231 -0.0868  0.1375 -0.1258
 3732W        W 7783   9.194   2.533  10.019 -0.0797 -0.2576  0.1620
 3733W        W 7784   4.116   6.401   9.769 -0.1808  0.0266  0.3456
 3734W        W 7785   4.704   3.408  11.623  0.1011  0.0344  0.0073
 3735W        W 7786   9.960   0.412   4.478  0.1129 -0.0944  0.3015
 3736W        W 7787   5.673   2.979   3.468 -0.1283 -0.3903  0.0415
 3737W        W 7788   1.200   2.137   9.768  0.2057  0.1888 -0.1173
 3738W        W 7789   2.117   3.550   2.510  0.1997  0.1003  0.0469
 3739W        W 7790   8.169   9.039  10.435 -0.0105  0.3237 -0.1183
 3740W        W 7791   4.238   3.415  13.146  0.1564  0.0165  0.1135
 3741W        W 7792   0.200   4.760  10.961 -0.0695  0.2379 -0.3372
 3742W        W 7793   1.112   0.518   9.429  0.0327  0.0153  0.4523
 3743W        W 7794   3.645   9.267   1.525  0.1981  0.2916 -0.0780
 3744W        W 7795   2.545   4.884  11.804 -0.0988 -0.3118  0.4117
 3745W        W 7796   3.581   6.891  13.435  0.0877  0.2429 -0.0583
 3746W        W 7797   1.804   2.964  10.297 -0.1935 -0.0210  0.0197
 3747W        W 7798   5.690   5.381  10.050  0.0299  0.0918 -0.2992
 3748W        W 7799   2.750   2.981   1.568  0.0719 -0.0068 -0.0144
 3749W        W 7800   8.223   7.793  12.974 -0.0260  0.1956 -0.1021
 3750W        W 7801   8.145   7.699   1.785 -0.0295 -0.1459  0.0303
 3751W        W 7802   0.466   8.061   3.041 -0.2491  0.1412  0.2823
 3752W        W 7803   5.275   4.722   2.406  0.2790  0.0706  0.0145
 3753W        W 7804   6.009   8.062  13.270 -0.2659 -0.2661  0.3518
 3754W        W 7805   2.583   8.391   4.302  0.3908  0.3425  0.0400
 3755W        W 7806   0.134   3.563   4.155  0.2334  0.0604  0.0792
 3756W        W 7807   5.412   7.895  11.485 -0.0996 -0.0730 -0.2851
 3757W        W 7808   0.997   7.000   3.224  0.0929  0.0632 -0.1395
 3758W        W 7809   3.418   5.606  10.943 -0.3370  0.1944  0.0918
 3759W        W 7810   7.683   2.641  11.493 -0.0492 -0.0230 -0.1441
 3760W        W 7811   6.670   7.262  12.744 -0.1407  0.0136  0.1662
 3761W        W 7812   1.235   9.373   0.799 -0.1057 -0.0838  0.0420
 3762W        W 7813   7.207   4.374   0.524  0.1895 -0.0977  0.0138
 3763W        W 7814   9.098   5.662   1.309  0.1520 -0.1817 -0.1424
 3764W        W 7815   1.418   4.727  12.340 -0.1472 -0.1730 -0.3827
 3765W        W 7816   9.231   9.727   4.122  0.0723  0.0533 -0.5521
 3766W        W 7817   1.220   1.685   3.315 -0.1609  0.1608 -0.3499
 3767W        W 7818   6.054   2.101  10.719 -0.2534 -0.2104 -0.3585
 3768W        W 7819   2.511   7.836  10.692 -0.1443 -0.0198 -0.0570
 3769W        W 7820   5.982   9.103  12.261 -0.2005  0.1723 -0.0263
 3770W        W 7821   3.327   8.175   0.765  0.2407  0.0299 -0.0240
 3771W        W 7822   7.618   0.015   1.430 -0.1387 -0.1177  0.1319
 3772W        W 7823   1.841   8.090  12.790 -0.0786 -0.0480 -0.0917
 3773W        W 7824   7.339   6.024   8.858 -0.1490  0.0982 -0.0059
 3774W        W 7825   2.642   4.194  12.693 -0.2729 -0.4230  0.1313
 3775W        W 7826   7.628   4.700   4.377 -0.2935  0.3407 -0.0755
 3776W        W 7827   6.529   0.703   1.339 -0.2296  0.1818 -0.0563
 3777W        W 7828   3.660   1.178   2.954  0.0552 -0.2774 -0.0259
 3778W        W 7829   9.391   7.284   9.662  0.1862  0.1517 -0.1322
 3779W        W 7830   8.034   4.772   4.001  0.1392 -0.0918  0.2922
 3780W        W 7831   1.934   2.411   2.107 -0.1147  0.0772 -0.2309
 3781W        W 7832   6.245   5.401  10.089 -0.1175 -0.0060  0.2736
 3782W        W 7833   9.064   9.002   9.006 -0.0213 -0.0185 -0.2019
 3783W        W 7834   1.322   0.523   0.393  0.2537  0.0885  0.1254
 3784W        W 7835   2.779   4.476   0.133 -0.1380 -0.1875  0.1049
 3785W        W 7836   9.568   2.821   2.610 -0.0556 -0.0135  0.0790
 3786W        W 7837   2.070   2.434  10.309 -0.2056 -0.3082  0.1356
 3787W        W 7838   7.390   2.799   5.471 -0.0265  0.3015  0.3326
 3788W        W 7839   7.128   1.259   1.750  0.1806  0.0384  0.3377
 3789W        W 7840   7.491   9.984   2.793  0.2121  0.1236 -0.0558
 3790W        W 7841   9.471   4.912  12.225 -0.1027 -0.1856 -0.0545
 3791W        W 7842   5.678   5.785   3.050 -0.2548  0.1649 -0.0556
 3792W        W 7843   2.789   7.648  11.077  0.0589 -0.0243  0.0634
 3793W        W 7844   0.861   6.081   9.436 -0.0239  0.1136  0.2518
 3794W        W 7845   8.490   9.566   4.048 -0.1173 -0.1431 -0.0432
 3795W        W 7846   5.490   2.985   9.977 -0.0515 -0.0701 -0.0343
 3796W        W 7847   2.563   4.906   2.544 -0.0596  0.1269  0.1234
 3797W        W 7848   4.934   7.271  13.552 -0.0981 -0.2497  0.2720
 3798W        W 7849  10.090   7.616   4.747 -0.0707 -0.2211 -0.4430
 3799W        W 7850  10.193   0.590  12.949 -0.0978 -0.2989  0.1406
 3800W        W 7851   1.530   4.814  11.286  0.2862  0.1839  0.2527
 3801W        W 7852   9.544   1.162  10.322 -0.3129 -0.0404 -0.1362
 3802W        W 7853   6.222   2.910   2.493 -0.0339 -0.0433  0.3421
 3803W        W 7854   1.077  10.189  12.939  0.0034 -0.0251 -0.0478
 3804W        W 7855   4.622   1.461   2.065 -0.0564  0.0117  0.4164
 3805W        W 7856   1.145   2.170  12.891 -0.4048  0.2994  0.3996
 3806W        W 7857   2.839   5.330   2.321 -0.0373 -0.0808  0.2513
 3807W        W 7858   1.414   4.482   2.073 -0.3669 -0.1015 -0.0188
 3808W        W 7859   5.947   3.863  12.220  0.0371  0.3242  0.4082
 3809W        W 7860   7.235   4.818   9.532  0.0704  0.4137  0.0559
 3810W        W 7861   8.079   4.790  11.463  0.0426  0.0538 -0.0125
 3811W        W 7862   1.031   4.737   1.732 -0.1418  0.0262  0.0622
 3812W        W 7863   4.763   1.650   0.021  0.3002  0.4870  0.1588
 3813W        W 7864   5.195   9.538   1.563  0.0644  0.0654  0.0382
 3814W        W 7865   3.269   0.105  11.837 -0.3768 -0.3717 -0.0784
 3815W        W 7866   7.902  10.021  10.224  0.2665 -0.0278 -0.0136
 3816W        W 7867   7.772   6.861   9.263 -0.2086  0.0528  0.0009
 3817W        W 7868   9.289   1.483  13.644  0.1550  0.0998  0.1714
 3818W        W 7869   1.716   3.739   2.144 -0.1073 -0.0648  0.1328
 3819W        W 7870   9.544   6.714   3.093  0.2152  0.0893 -0.2313
 3820W        W 7871   6.805   2.842  12.010  0.0681  0.1821 -0.0415
 3821W        W 7872   5.022   8.795  13.816 -0.0537  0.1636 -0.1273
 3822W        W 7873   9.007   1.976   1.525  0.0990  0.0341  0.7126
 3823W        W 7874   7.004   4.331  13.891 -0.1082 -0.1974  0.0040
 3824W        W 7875   8.241   6.513  10.306  0.4973 -0.1975 -0.2795
 3825W        W 7876   3.140   4.951   4.788 -0.0170 -0.1146 -0.1431
 3826W        W 7877   7.704   0.908  11.366 -0.0378 -0.0534 -0.0291
 3827W        W 7878   7.223   6.213   3.112  0.4607 -0.0079  0.1522
 3828W        W 7879   4.257   3.825  12.867 -0.1287  0.5485 -0.1728
 3829W        W 7880   5.202   3.696  11.582  0.0387 -0.2295 -0.3712
 3830W        W 7881   4.774   5.225   2.567 -0.0340  0.1017  0.1367
 3831W        W 7882   8.645   5.153   3.077 -0.0689 -0.2711  0.0977
 3832W        W 7883   7.375   8.631   4.301  0.0799  0.0630 -0.0535
 3833W        W 7884   2.469   0.817  12.457 -0.2810 -0.2317 -0.2264
 3834W        W 7885   0.293   2.639   2.772 -0.0357  0.1377 -0.2060
 3835W        W 7886   7.483   8.914   9.624 -0.0336  0.1279 -0.0626
 3836W        W 7887   0.156   7.121  10.127 -0.4011 -0.0739 -0.0641
 3837W        W 7888   1.933   1.662   2.869 -0.0649 -0.1519  0.0338
 3838W        W 7889   9.652   9.327  13.787 -0.2253 -0.0868 -0.1662
 3839W        W 7890   6.294   5.227   3.892 -0.1777  0.1359  0.0909
 3840W        W 7891   9.549   4.599  10.639  0.2644 -0.1146  0.2585
 3841W        W 7892   7.095   9.660   2.910 -0.3435  0.1497 -0.0316
 3842W        W 7893   3.384   3.240  10.702  0.0900  0.4424  0.0589
 3843W        W 7894   0.749   1.379   3.717 -0.0924 -0.0338  0.0482
 3844W        W 7895  10.143   3.652   2.370  0.1346 -0.2575  0.2836
 3845W        W 7896   0.835   0.206   2.487 -0.2945  0.4084 -0.0386
 3846W        W 7897   1.363   7.075   1.149  0.2037  0.1575  0.4445
 3847W        W 7898   7.359   0.137  11.523 -0.0957 -0.1532 -0.0173
 3848W        W 7899   0.620   6.095   4.468  0.0746  0.0003  0.3045
 3849W        W 7900   0.188   7.087   1.769 -0.1529 -0.1667 -0.0919
 3850W        W 7901   9.578   2.770  13.904 -0.0868  0.1140  0.0058
 3851W        W 7902   2.185   2.861   0.572  0.0129 -0.0378  0.1285
 3852W        W 7903   6.374   6.265  13.441 -0.3147 -0.2242  0.0877
 3853W        W 7904   5.529   4.345   3.611 -0.0263  0.2254  0.0672
 3854W        W 7905   1.755   7.181   9.018 -0.0232  0.0524 -0.0199
 3855W        W 7906   2.408   7.923  12.797  0.2210 -0.1533 -0.4251
 3856W        W 7907   9.481   0.343   1.908  0.2021  0.0708 -0.2329
 3857W        W 7908   3.404   8.828   1.890 -0.0902 -0.0139  0.0946
 3858W        W 7909   3.018   7.009  11.795  0.2858  0.2462  0.0065
 3859W        W 7910   0.359   5.356  13.458 -0.0172  0.0714  0.0421
 3860W        W 7911   3.263   2.199   3.185  0.2179 -0.3457  0.0358
 3861W        W 7912   1.202   2.343   1.156 -0.1750  0.0425 -0.0572
 3862W        W 7913   2.028   8.145   3.839 -0.0704 -0.0536  0.0596
 3863W        W 7914   2.371   4.301  13.731 -0.1514 -0.5688  0.0183
 3864W        W 7915   1.580   4.173   9.521  0.0412 -0.2995 -0.1362
 3865W        W 7916   5.697   7.413  10.611  0.1781 -0.0799 -0.2600
 3866W        W 7917   5.808   6.411   9.323  0.2111  0.1562  0.0301
 3867W        W 7918   0.343   8.930  12.382 -0.1538  0.0630 -0.0168
 3868W        W 7919   8.863   5.393   0.950 -0.1273 -0.1534 -0.0464
 3869W        W 7920   1.260   1.366   1.631 -0.3241 -0.2487 -0.2188
 3870W        W 7921   4.353   3.504  10.655  0.1089  0.0160  0.0824
 3871W        W 7922   2.392   5.767  11.520 -0.3139 -0.4493 -0.1580
 3872W        W 7923   6.218   1.150   5.360  0.1181 -0.4382  0.0808
 3873W        W 7924   2.877   6.850   1.515 -0.1562  0.0434  0.2830
 3874W        W 7925   5.339   4.164  11.743 -0.0649  0.0166 -0.0141
 3875W        W 7926   7.897   1.037   9.979  0.0293 -0.0160 -0.1373
 3876W        W 7927   8.883   6.318  10.693  0.1609  0.0857  0.1325
 3877W        W 7928   5.909   9.845   1.530  0.0018  0.2832  0.1315
 3878W        W 7929   6.947   5.307   5.374  0.3049  0.1614  0.0092
 3879W        W 7930  10.075   0.397   0.989  0.1165 -0.0851  0.1828
 3880W        W 7931   8.290   2.429  12.656  0.2283 -0.1412 -0.2206
 3881W        W 7932   2.138   7.432   9.837  0.1176  0.1197  0.3453
 3882W        W 7933   5.509   4.724   9.604 -0.1545 -0.1524  0.3931
 3883W        W 7934   3.802   3.800  11.920  0.1112  0.0079 -0.1493
 3884W        W 7935   4.342   7.566  11.104 -0.0071 -0.1455  0.3176
 3885W        W 7936   6.630   4.566   4.308  0.0689 -0.2594 -0.2304
 3886W        W 7937   7.982   9.828  12.673 -0.2475  0.1779  0.1352
 3887W        W 7938   9.843   3.230   2.556  0.1019 -0.1960  0.0654
 3888W        W 7939   1.609   8.765   2.824  0.3735  0.3374 -0.1098
 3889W        W 7940   1.199   8.878  11.554 -0.3113 -0.1944 -0.0530
 3890W        W 7941   3.618   1.201   1.944 -0.0226  0.1640 -0.1568
 3891W        W 7942   7.814   3.807  10.538 -0.1310  0.1398  0.3804
 3892W        W 7943   2.179   5.470  10.939  0.0454 -0.1578 -0.6129
 3893W        W 7944   0.750   7.225   4.613 -0.2466  0.3559 -0.1583
 3894W        W 7945   4.422   1.794  11.430 -0.0411 -0.0966 -0.0735
 3895W        W 7946   8.866   2.437   0.615 -0.2142 -0.2954  0.0449
 3896W        W 7947   5.550   1.716   0.640  0.1326  0.2127  0.0685
 3897W        W 7948   8.061   3.098   4.047  0.1354 -0.0882 -0.1896
 3898W        W 7949  10.183   1.952  13.536 -0.1208  0.0656 -0.1938
 3899W        W 7950   3.349   9.560   0.414 -0.0147 -0.3002 -0.3173
 3900W        W 7951   2.328   7.124  12.585 -0.0289  0.2195  0.1009
 3901W        W 7952   0.524   2.935   2.386  0.2856  0.3147  0.1178
 3902W        W 7953   4.109   7.225   2.660  0.0361 -0.1796 -0.1081
 3903W        W 7954   0.057   8.240   0.198 -0.3283  0.0622  0.2560
 3904W        W 7955   1.336   4.375   2.777 -0.0206  0.0624 -0.0635
 3905W        W 7956   6.321   5.106  11.718  0.1259 -0.0952 -0.3060
 3906W        W 7957   3.148   2.331  11.158  0.2606 -0.2232  0.3359
 3907W        W 7958   2.770   7.464  13.670  0.1066 -0.1412  0.0998
 3908W        W 7959   1.819   7.716   0.695 -0.0771  0.0030 -0.1355
 3909W        W 7960   7.341   5.263  13.446 -0.2240  0.0211 -0.3566
 3910W        W 7961   4.321   4.741  10.870 -0.3899 -0.0073  0.0209
 3911W        W 7962   8.722   4.463  12.544  0.1886  0.0569  0.1891
 3912W        W 7963   7.143   6.889  12.541  0.0441  0.1067  0.1609
 3913W        W 7964   0.515   8.543  13.139 -0.1499  0.4436  0.0203
 3914W        W 7965   9.738   8.381   0.272  0.3549  0.1325 -0.0864
 3915W        W 7966   8.851   5.203   4.317  0.1317 -0.4201  0.0299
 3916W        W 7967   8.823   0.651  10.719 -0.1165 -0.1344 -0.0831
 3917W        W 7968   9.549   7.429  10.925  0.3426  0.2856  0.1464
 3918W        W 7969   0.538   9.311  11.071 -0.1097  0.2434  0.5984
 3919W        W 7970   6.322   9.987   1.315 -0.0819  0.1083  0.2500
 3920W        W 7971  10.189   3.647   3.662  0.0465 -0.3323  0.3476
 3921W        W 7972   2.093   4.819  13.006  0.2075  0.3307 -0.1075
 3922W        W 7973   8.275   0.151  13.583  0.0256 -0.0287 -0.1654
 3923W        W 7974   2.570   7.692   1.509  0.0475  0.0236 -0.0012
 3924W        W 7975   3.568   9.857  13.495  0.3331 -0.0638  0.1659
 3925W        W 7976   3.581   3.528   1.052  0.1608  0.0050  0.2629
 3926W        W 7977   9.989   8.411  10.132 -0.2307  0.0423  0.2436
 3927W        W 7978   7.979   7.121  13.470 -0.0794 -0.1835 -0.0727
 3928W        W 7979   2.743   8.204  10.433  0.2495 -0.1372 -0.3033
 3929W        W 7980   4.028   2.036   4.714  0.1337 -0.0118  0.1784
 3930W        W 7981   2.324   1.975   2.860 -0.0288 -0.0840  0.0007
 3931W        W 7982   7.245   0.595   3.661  0.2938 -0.1962  0.0706
 3932W        W 7983   7.324   7.916  10.336  0.2281 -0.3254  0.2686
 3933W        W 7984   9.330   5.573  13.598  0.3292  0.0515 -0.0636
 3934W        W 7985   7.888   2.441   3.431  0.2521  0.0645 -0.1259
 3935W        W 7986   8.504   3.763   9.931  0.0627 -0.0593 -0.5532
 3936W        W 7987   0.399   0.172   0.834  0.2846  0.2073 -0.0654
 3937W        W 7988   9.969   2.533   5.281 -0.2574  0.1182 -0.1408
 3938W        W 7989   9.058   9.557   1.361 -0.0055  0.3696  0.0041
 3939W        W 7990   4.322   5.468   0.652 -0.0934 -0.3853  0.2433
 3940W        W 7991   9.821   4.340   5.021  0.0372  0.3097 -0.1234
 3941W        W 7992   5.448   3.654   1.443 -0.0987 -0.0296  0.0548
 3942W        W 7993   9.160   2.180  12.524 -0.1343  0.0790 -0.3713
 3943W        W 7994   5.986   3.615  10.461 -0.2183  0.0990 -0.1320
 3944W        W 7995   8.143   3.741  13.506 -0.1534 -0.3973 -0.0858
 3945W        W 7996   8.375   0.095  10.321  0.1316 -0.4772 -0.0346
 3946W        W 7997   1.324   0.015   0.097 -0.3186  0.0226 -0.0033
 3947W        W 7998   6.964   1.750   2.978  0.3152 -0.1508  0.1813
 3948W        W 7999   3.101   5.956   9.751  0.1036  0.3023 -0.0468
 3949W        W 8000   2.965   7.172   2.732 -0.0557  0.2791  0.0678
 3950W        W 8001   5.615   7.374   9.766  0.3250  0.1465  0.0731
 3951W        W 8002   7.806   7.688   0.077 -0.0223 -0.2262 -0.3513
 3952W        W 8003  10.006   2.638   3.844  0.0133  0.1638  0.0087
 3953W        W 8004   9.249   2.803   9.330 -0.4965 -0.1352 -0.2672
 3954W        W 8005   6.836   8.844  10.678 -0.0511 -0.1118 -0.1736
 3955W        W 8006   6.699   6.220  12.472  0.0048  0.0838 -0.3271
 3956W        W 8007   9.157   7.586   0.778 -0.0204 -0.0352  0.2129
 3957W        W 8008   3.354   3.160   3.003  0.0839  0.2530 -0.0845
 3958W        W 8009   1.362   7.343   9.467 -0.1018 -0.2045 -0.1379
 3959W        W 8010   9.274   4.018   3.240  0.2105  0.1380 -0.1693
 3960W        W 8011   9.289   6.390  11.709  0.1557 -0.0643  0.0616
 3961W        W 8012   7.223  10.062   3.311  0.0715 -0.2943 -0.0263
 3962W        W 8013   1.877   7.521   2.300 -0.1994  0.3612 -0.0845
 3963W        W 8014   3.412   4.928  11.473 -0.0312 -0.2872  0.0444
 3964W        W 8015   0.014   1.377   4.304  0.2604 -0.2039  0.0902
 3965W        W 8016   0.586   1.910  12.598  0.3501  0.2728 -0.0510
 3966W        W 8017   8.316   4.154   3.922 -0.1792  0.2783 -0.0200
 3967W        W 8018   3.297   3.804  10.623  0.2258 -0.3136  0.0329
 3968W        W 8019   7.277   5.805  11.799  0.0514 -0.2251  0.0330
 3969W        W 8020   6.872   1.715   2.183 -0.1027 -0.1232 -0.2730
 3970W        W 8021   8.354   2.462   4.403 -0.2855  0.1780  0.3199
 3971W        W 8022   3.687   1.114  12.578  0.2146 -0.0446  0.3738
 3972W        W 8023   1.811   9.459  12.285 -0.3941 -0.5100 -0.0356
 3973W        W 8024   8.352   8.918   2.057 -0.0173  0.3513 -0.0727
 3974W        W 8025   0.015   5.657   0.013 -0.2393 -0.0256  0.2130
 3975W        W 8026   7.660   6.200  12.579 -0.0762 -0.2577 -0.1618
 3976W        W 8027   4.435   0.295  12.670  0.3442 -0.1090  0.0793
 3977W        W 8028   6.076   3.838   4.048  0.0438  0.3168 -0.2117
 3978W        W 8029   4.690   3.231  10.286  0.0051 -0.2738 -0.0901
 3979W        W 8030   8.820   0.779   0.011  0.0178  0.0833  0.2329
 3980W        W 8031   0.110   5.012  13.161  0.3775 -0.2800 -0.2295
 3981W        W 8032   9.141   7.195  12.977  0.1514 -0.3664 -0.0561
 3982W        W 8033   1.405   2.912   2.359 -0.1069  0.3831  0.1167
 3983W        W 8034   1.173   8.848  10.316  0.2129 -0.4866  0.3890
 3984W        W 8035   7.430   4.710   0.983 -0.1186 -0.2157  0.0964
 3985W        W 8036   5.099   4.212   9.094 -0.2170 -0.0274 -0.3058
 3986W        W 8037   3.540   0.913  11.587  0.3442  0.1700 -0.1426
 3987W        W 8038   3.981   8.614  10.598  0.0832 -0.0691  0.2177
 3988W        W 8039  10.101   9.112   4.348 -0.0219  0.1463 -0.0139
 3989W        W 8040   4.442   7.764  12.515 -0.3424 -0.0330  0.0975
 3990W        W 8041   0.833   2.179   1.576  0.1418 -0.2209 -0.1450
 3991W        W 8042   2.454   1.553   9.817  0.1019 -0.0850 -0.1011
 3992W        W 8043   2.591   0.361   1.262 -0.3875 -0.0982 -0.3555
 3993W        W 8044   7.581   8.606   0.040 -0.3802 -0.0439 -0.0312
 3994W        W 8045   3.214   5.784  13.314 -0.1244 -0.1208 -0.1177
 3995W        W 8046   3.961   9.573  10.717 -0.1621 -0.1797  0.2774
 3996W        W 8047   6.005   5.558   5.607 -0.0014  0.3004  0.0490
 3997W        W 8048   3.041   9.523  11.699  0.0974  0.2352  0.2666
 3998W        W 8049  10.145   4.731   1.682  0.4021  0.2140  0.0165
 3999W        W 8050   5.568   5.336   3.147  0.4338  0.0668  0.0752
 4000W        W 8051   1.399   1.298  11.160 -0.1284  0.2793 -0.2126
 4001W        W 8052   1.587   7.254   0.571 -0.0163  0.3269 -0.2067
 4002W        W 8053   7.382   3.895   2.613  0.1014  0.0577  0.1000
 4003W        W 8054   8.263   3.410   3.528 -0.2131  0.2969 -0.1304
 4004W        W 8055   7.609   5.246   4.125 -0.0565  0.0391 -0.3248
 4005W        W 8056   4.848   8.505   2.532  0.2303  0.1469 -0.1057
 4006W        W 8057   9.895   8.912  12.581  0.0040 -0.0754 -0.0909
 4007W        W 8058   1.363   4.258  11.587 -0.0004  0.3266 -0.0550
 4008W        W 8059   9.074  10.031  10.334 -0.0127  0.0130 -0.3848
 4009W        W 8060   9.883   0.397  12.639  0.0141  0.2009 -0.0538
 4010W        W 8061   0.756   3.274  13.758 -0.0405  0.2440  0.1628
 4011W        W 8062   8.223   5.781   8.878 -0.3127  0.0905  0.2639
 4012W        W 8063   9.084   1.712  12.922  0.1829 -0.2212 -0.2208
 4013W        W 8064   3.943   0.431  11.340  0.1739 -0.0332 -0.0073
 4014W        W 8065   4.025   6.820   0.862  0.1656  0.1007  0.1919
 4015W        W 8066   4.760   7.821   2.953  0.1649 -0.1142  0.2906
 4016W        W 8067   4.823   1.585  13.258 -0.2175 -0.0674 -0.0948
 4017W        W 8068   5.692   6.779  12.014 -0.3034  0.1107  0.2566
 4018W        W 8069   0.461   7.416  10.504 -0.1458  0.3369 -0.1674
 4019W        W 8070   9.071   0.537   2.838  0.3526  0.3881 -0.0105
 4020W        W 8071   3.274   0.029  13.524 -0.2665  0.0534  0.0016
 4021W        W 8072   4.985   7.035   0.806 -0.2319 -0.0461  0.1714
 4022W        W 8073   1.541   0.047   0.526 -0.0641  0.0120  0.3506
 4023W        W 8074   9.984   9.256  10.854  0.0633 -0.1092  0.0172
 4024W        W 8075   0.226   0.894  13.337 -0.1179 -0.0561 -0.3013
 4025W        W 8076   1.056   3.787   0.718 -0.1134 -0.1643  0.0964
 4026W        W 8077   7.267   6.430  10.862  0.3989  0.0414 -0.1913
 4027W        W 8078   3.696   2.304   0.009  0.1247 -0.0132 -0.0501
 4028W        W 8079   0.173   1.289   3.734  0.2304 -0.1226  0.0903
 4029W        W 8080   5.101   8.076   2.606 -0.0820 -0.1296  0.0435
 4030W        W 8081   7.836   2.261   0.571 -0.1473 -0.0522  0.2239
 4031W        W 8082   5.419   3.770   0.027 -0.0141 -0.0215  0.0400
 4032W        W 8083   6.598   5.557   3.880  0.1786  0.1299  0.0448
 4033W        W 8084   6.043   9.560   4.546 -0.0482 -0.2225  0.2689
 4034W        W 8085  10.081   4.086   2.568  0.1735 -0.2859  0.3171
 4035W        W 8086   3.407   2.322  10.565 -0.1580  0.0002  0.2263
 4036W        W 8087   1.087   2.611  10.543 -0.2229 -0.0696 -0.0871
 4037W        W 8088   2.791   3.263   3.819 -0.0653  0.2533  0.3485
 4038W        W 8089   1.411   3.787   3.669 -0.1518  0.3679 -0.0332
 4039W        W 8090   3.800   9.279   9.651 -0.1262  0.1760 -0.0172
 4040W        W 8091   7.947   0.402   1.082 -0.2879  0.0035  0.4142
 4041W        W 8092   1.578   2.946   9.759  0.2204 -0.2500 -0.0388
 4042W        W 8093   9.469   4.044  10.137  0.0349 -0.2340 -0.0246
 4043W        W 8094   5.966   2.928   1.615  0.1391 -0.3921 -0.2866
 4044W        W 8095   4.813   8.825  12.736 -0.1692 -0.3438 -0.1401
 4045W        W 8096   1.167   2.743   3.338 -0.1739  0.0464 -0.0126
 4046W        W 8097   8.007   0.668   5.743 -0.1026  0.0513 -0.1896
 4047W        W 8098   1.155   6.594   0.812 -0.0345  0.0870 -0.0888
 4048W        W 8099   5.941   1.633  11.375  0.3291  0.1436 -0.0631
 4049W        W 8100   5.750  10.179  13.222  0.0523  0.0926  0.0601
 4050W        W 8101   5.858   7.239  13.298 -0.1590 -0.1095  0.0211
 4051W        W 8102   4.102   6.929  13.758  0.2970  0.0041 -0.0706
 4052W        W 8103   6.892   8.848   2.056 -0.1143 -0.4062  0.0502
 4053W        W 8104   3.408   6.785   2.919  0.0640 -0.2333 -0.0722
 4054W        W 8105   6.074   2.720   3.012 -0.0595  0.3358 -0.1044
 4055W        W 8106   1.700   7.936   0.289  0.0399  0.1670  0.3403
 4056W        W 8107   4.306   4.296   4.203  0.2916 -0.0236  0.3075
 4057W        W 8108   0.844   8.883   4.398 -0.0712  0.1972 -0.0370
 4058W        W 8109   7.771   6.871  11.848  0.1779 -0.0067 -0.0107
 4059W        W 8110   8.830   9.060   1.617 -0.0030  0.2077 -0.1334
 4060W        W 8111   3.539   5.188   5.091 -0.2075  0.2033  0.2739
 4061W        W 8112   4.244   6.410   3.159  0.0071  0.0796  0.2606
 4062W        W 8113   9.293   9.042  11.583  0.2481  0.0972  0.1727
 4063W        W 8114   7.230   9.286   1.429 -0.0213  0.1263 -0.0541
 4064W        W 8115   2.659   6.871  10.644 -0.0867  0.0128  0.2730
 4065W        W 8116   5.570   2.702   3.064 -0.3256 -0.2654 -0.0233
 4066W        W 8117   0.453   4.585  11.675  0.0673  0.1394  0.1310
 4067W        W 8118   3.340   6.845   8.896 -0.1141 -0.0765 -0.1614
 4068W        W 8119   6.218   7.937   1.008  0.2750 -0.2088 -0.1277
 4069W        W 8120   6.658   2.801  10.896  0.2462  0.1999 -0.0675
 4070W        W 8121   1.315   1.932  13.324  0.1341 -0.1094 -0.1753
 4071W        W 8122   4.001   2.494  12.351  0.1871 -0.2044  0.0780
 4072W        W 8123   9.254   8.928   2.884  0.0390 -0.1377 -0.0979
 4073W        W 8124   8.541   1.881   9.736 -0.1853  0.0054 -0.2589
 4074W        W 8125   6.035   5.084   4.312  0.1188  0.0947 -0.1362
 4075W        W 8126   3.861   8.858  10.134 -0.1787 -0.0403 -0.3975
 4076W        W 8127   6.240   9.301  13.538  0.2059 -0.1155  0.1088
 4077W        W 8128   7.817   3.911   9.563  0.1187  0.3684  0.1499
 4078W        W 8129   4.926   8.823   0.369  0.2710 -0.1609 -0.0229
 4079W        W 8130   1.798   9.594   0.206  0.4155  0.0459  0.1970
 4080W        W 8131   6.098   5.603   1.647 -0.0678  0.1413  0.0046
 4081W        W 8132   8.202   7.023  10.260  0.1840 -0.0819 -0.1570
 4082W        W 8133   8.693   0.463   4.986  0.4902  0.0610  0.1162
 4083W        W 8134   2.274   6.984  13.350 -0.0028  0.0446 -0.0610
 4084W        W 8135  10.054   2.904  13.155  0.0776 -0.5329  0.1114
 4085W        W 8136   3.021   3.007   4.723  0.0746  0.1835 -0.0740
 4086W        W 8137   8.571   5.815   4.554  0.2309  0.0558  0.0891
 4087W        W 8138   3.617   4.679  12.720 -0.1501  0.0515  0.4371
 4088W        W 8139   8.606   1.073   4.916 -0.0782 -0.0873  0.0017
 4089W        W 8140   8.191   9.533  13.463 -0.4065  0.3096  0.1773
 4090W        W 8141   4.058   4.068  12.259  0.0884 -0.1004 -0.0707
 4091W        W 8142   6.748   0.876  13.171  0.0839 -0.1176  0.0370
 4092W        W 8143   5.738   1.577  11.863  0.0057 -0.0070  0.0440
 4093W        W 8144   9.445   6.224   0.339 -0.0923 -0.3555 -0.0851
 4094W        W 8145   4.911   8.521   3.437  0.2482 -0.1058  0.2281
 4095W        W 8146   5.125   5.830  11.469  0.0986  0.1659 -0.2981
 4096W        W 8147   3.051   6.691   0.695  0.0755  0.1262  0.2055
 4097W        W 8148   0.298   6.616   3.451  0.1481 -0.0926 -0.1259
 4098W        W 8149   0.290   8.083   8.711  0.0964  0.0630 -0.3033
 4099W        W 8150   8.562   1.203   9.120 -0.2564  0.0839 -0.0672
 4100W        W 8151   2.725   3.082   2.174 -0.0004 -0.1335  0.1691
 4101W        W 8152   9.620   6.524  13.666  0.2237  0.0578 -0.0217
 4102W        W 8153   9.911   6.839  12.170 -0.3061  0.0898  0.2369
 4103W        W 8154   2.286   6.154   3.135 -0.0240 -0.0398 -0.2692
 4104W        W 8155   2.883   7.074  12.638  0.4110 -0.3572 -0.1498
 4105W        W 8156   4.897   6.301  12.368  0.1567  0.0709 -0.1056
 4106W        W 8157   1.829   5.029   4.120 -0.2637  0.1765  0.0987
 4107W        W 8158   8.467   4.709   0.708 -0.0676  0.1262  0.0383
 4108W        W 8159   5.675   1.792  10.939 -0.4149  0.2385  0.0358
 4109W        W 8160   4.793   5.963  12.801 -0.0524 -0.1048 -0.1120
 4110W        W 8161   8.088   5.981   4.683  0.3452 -0.4541  0.1068
 4111W        W 8162   6.652   6.726   3.024  0.4677 -0.0585  0.1522
 4112W        W 8163   7.766   3.560  13.112 -0.1686 -0.1088 -0.3421
 4113W        W 8164   3.573   7.126  10.856  0.0930 -0.3103 -0.0589
 4114W        W 8165   2.425   8.566   9.142  0.4045 -0.1323 -0.1271
 4115W        W 8166   4.786   3.711   9.851  0.0045  0.1552 -0.0774
 4116W        W 8167   6.087   0.404  10.973 -0.1860 -0.0348 -0.0469
 4117W        W 8168   7.626   6.095   9.546  0.1405  0.1601  0.0682
 4118W        W 8169   1.108   4.198   0.010  0.0179 -0.2692  0.2174
 4119W        W 8170   3.708   0.473   1.197 -0.1661 -0.0615  0.1315
 4120W        W 8171   9.144   4.518  10.383  0.0604  0.0180 -0.0941
 4121W        W 8172  10.094   1.032  13.730  0.1647 -0.0060 -0.1076
 4122W        W 8173   6.299   0.342   1.633  0.0594 -0.2239  0.2069
 4123W        W 8174   1.857   4.067  12.608 -0.1193  0.0452 -0.2279
 4124W        W 8175   3.330   3.743  13.000 -0.2663 -0.0939 -0.2660
 4125W        W 8176   2.517   4.148   0.818 -0.0689 -0.0803  0.2148
 4126W        W 8177   6.616   8.385   2.231 -0.0903  0.1332 -0.3282
 4127W        W 8178   8.379   5.271   2.239 -0.0032 -0.1430 -0.1321
 4128W        W 8179   8.774   9.612   0.365  0.1170 -0.0987  0.0920
 4129W        W 8180   0.315   5.844   0.769  0.0301  0.1424 -0.0767
 4130W        W 8181   5.038   0.770   1.772  0.1386  0.1377  0.0475
 4131W        W 8182   5.806   0.498   3.281 -0.1476 -0.1837  0.4323
 4132W        W 8183   8.929   8.296   0.599  0.1250  0.1447  0.1521
 4133W        W 8184   0.387   1.500  10.150  0.1100  0.1374 -0.0498
 4134W        W 8185   8.068   7.329   9.313  0.2914 -0.3811 -0.0684
 4135W        W 8186   8.933   6.129   0.314  0.0111  0.0538 -0.1384
 4136W        W 8187   9.518   2.330   2.769 -0.1561  0.0114  0.0968
 4137W        W 8188   7.202   2.597  11.415  0.1163 -0.0871  0.0345
 4138W        W 8189   7.966   2.222  13.042 -0.0430 -0.1927  0.2738
 4139W        W 8190   0.945   9.582   4.823 -0.1904  0.1751  0.2057
 4140W        W 8191   2.870   6.598   2.418  0.1364  0.1222  0.2691
 4141W        W 8192   4.934   9.805  12.942 -0.2353  0.3283  0.1303
 4142W        W 8193  10.146   9.216  12.198  0.2600 -0.1053  0.0956
 4143W        W 8194   1.702   1.993  13.668 -0.0666 -0.0440  0.3123
 4144W        W 8195   9.857   2.301   4.193  0.1925 -0.1995  0.1038
 4145W        W 8196   0.383   6.757  11.528  0.0144  0.1253  0.0157
 4146W        W 8197   3.169   4.169   9.425  0.3741 -0.1224 -0.2215
 4147W        W 8198   0.437   2.636   9.716  0.1610  0.4792  0.0558
 4148W        W 8199   2.661   2.346   3.048 -0.0637 -0.2864  0.2722
 4149W        W 8200  10.029   0.442   9.552 -0.2411  0.0534  0.1929
 4150W        W 8201   7.150   9.197  12.645  0.0863 -0.0280  0.1474
 4151W        W 8202   5.426   1.751  11.401  0.2092  0.2790  0.1429
 4152W        W 8203   2.517   3.531   1.838 -0.2324  0.1633 -0.1376
 4153W        W 8204   8.557   8.104   2.860  0.1618 -0.1830 -0.0128
 4154W        W 8205   6.529   8.023  11.271  0.1643 -0.2975 -0.1365
 4155W        W 8206   2.219   0.518  10.494  0.2302  0.1987  0.0483
 4156W        W 8207   2.049   2.096  11.589  0.2326 -0.1579 -0.1031
 4157W        W 8208   2.467   1.804  11.503  0.1098  0.0072  0.1112
 4158W        W 8209   8.481   5.333  11.140 -0.0184 -0.0458  0.0600
 4159W        W 8210   0.598   4.786  11.223  0.1689  0.1839 -0.0463
 4160W        W 8211   3.086   9.729  10.875 -0.2633 -0.2372 -0.2292
 4161W        W 8212   0.448   5.834  10.084 -0.3720 -0.0754 -0.1818
 4162W        W 8213  10.173   2.226  10.421 -0.0481  0.0613 -0.0453
 4163W        W 8214   8.744   5.638   3.059 -0.4126 -0.1535  0.0981
 4164W        W 8215   0.209   4.059   4.925  0.2465 -0.4371 -0.1133
 4165W        W 8216   8.088   9.271   2.355  0.1298 -0.2266  0.0142
 4166W        W 8217   1.954  10.134   3.725 -0.0536 -0.0936  0.3094
 4167W        W 8218   4.696   1.125  11.925 -0.0433 -0.6008  0.0855
 4168W        W 8219   0.621   7.792   1.441 -0.0953  0.1550  0.0211
 4169W        W 8220   6.430   0.208  11.871 -0.2510  0.0745 -0.3290
 4170W        W 8221   6.802   8.041   1.712  0.1169 -0.1139 -0.1535
 4171W        W 8222   1.137   6.954   1.773 -0.2996 -0.1109 -0.2617
 4172W        W 8223   6.714   1.359  11.741  0.1357  0.0965 -0.0217
 4173W        W 8224   8.823   0.626   1.354 -0.0756 -0.1054  0.0350
 4174W        W 8225   9.304   1.948  10.338 -0.1664  0.0703 -0.0434
 4175W        W 8226   5.824   5.112  10.883 -0.2078 -0.0130 -0.0293
 4176W        W 8227   2.926   9.889  10.374 -0.0178 -0.6550  0.0244
 4177W        W 8228   3.965   6.857  11.308  0.2330  0.0364 -0.0121
 4178W        W 8229   4.842   7.629  11.274 -0.0037 -0.2058  0.1831
 4179W        W 8230   9.727   1.322   4.466 -0.0274  0.0494  0.0621
 4180W        W 8231   3.737   1.246  12.049 -0.0244  0.3957  0.0050
 4181W        W 8232   1.279   1.045  13.776 -0.0409  0.0891 -0.1338
 4182W        W 8233   0.671   1.532   2.220 -0.1054  0.4896  0.1574
 4183W        W 8234   5.014   9.592  10.181 -0.0859 -0.0357 -0.0893
 4184W        W 8235   5.913   0.023  11.907  0.1885 -0.0095  0.2008
 4185W        W 8236  10.177   1.194   3.080  0.0219 -0.1193 -0.0120
 4186W        W 8237   3.023   2.585  10.559  0.0310 -0.2088  0.0786
 4187W        W 8238   7.273   7.903   1.905 -0.1062 -0.0118 -0.0225
 4188W        W 8239   5.624   4.440   3.074  0.1077 -0.5276  0.4684
 4189W        W 8240   3.962   4.307  12.755  0.0634  0.0202  0.2730
 4190W        W 8241   6.657   2.681   2.175  0.0572 -0.0089 -0.1769
 4191W        W 8242   4.914   3.276   2.600  0.1374 -0.0572 -0.0571
 4192W        W 8243   0.182   0.382   0.459  0.0902  0.0042  0.2966
 4193W        W 8244   7.375   3.088   1.617 -0.1855 -0.1180 -0.3097
 4194W        W 8245   1.652   6.586   5.039  0.3343  0.0755 -0.1318
 4195W        W 8246   4.206   1.086   0.909  0.0261  0.0921  0.1397
 4196W        W 8247   9.313   7.034   4.103 -0.2741  0.0209 -0.3538
 4197W        W 8248   3.460   7.203   2.674  0.1015 -0.2639  0.3321
 4198W        W 8249   2.972   0.980   4.147 -0.0632 -0.0870 -0.1573
 4199W        W 8250   7.715   6.102   2.600  0.0510  0.2866 -0.0494
 4200W        W 8251   8.979   4.876   2.008  0.1652  0.4235 -0.0800
 4201W        W 8252   1.680   8.888  11.673  0.3135 -0.1594  0.2301
 4202W        W 8253   0.098   5.839   4.567  0.5941  0.4153 -0.0268
 4203W        W 8254   6.073   1.858  12.957 -0.0407  0.1069 -0.4868
 4204W        W 8255   7.401   1.889  10.195  0.0847 -0.1678  0.1279
 4205W        W 8256   2.077   3.341   3.372  0.1161  0.0112  0.3071
 4206W        W 8257   6.734   2.909  12.514 -0.0276 -0.0106  0.1404
 4207W        W 8258   4.111   6.936  13.240 -0.0539  0.1060 -0.1766
 4208W        W 8259   1.237   2.957  12.167 -0.0425 -0.1358 -0.0043
 4209W        W 8260   9.217   3.839  13.003  0.3277 -0.0995  0.1400
 4210W        W 8261   6.399   9.163  10.601 -0.3832 -0.0228  0.2581
 4211W        W 8262   1.362   9.545   1.912  0.0885 -0.0909  0.2137
 4212W        W 8263   7.360   0.304   1.065  0.0769  0.0467 -0.0016
 4213W        W 8264   0.440   2.804  13.635  0.6215  0.1292 -0.3924
 4214W        W 8265   0.070  10.078  12.362 -0.2513 -0.2976  0.0331
 4215W        W 8266   1.170   4.773   0.697 -0.0541 -0.1743  0.3819
 4216W        W 8267   8.062   4.883  12.354 -0.0558 -0.4517 -0.2609
 4217W        W 8268   3.040   7.736   0.594  0.0928  0.2535 -0.1169
 4218W        W 8269   7.116   6.121   9.346 -0.0980 -0.0530  0.0029
 4219W        W 8270   1.999   5.954  13.182 -0.1548  0.1108 -0.2349
 4220W        W 8271   0.582   3.658  11.398 -0.2055  0.4114  0.3364
 4221W        W 8272   8.427   5.673  10.763 -0.1561  0.1991  0.3068
 4222W        W 8273   1.696   8.116  11.817 -0.2974  0.0221 -0.0407
 4223W        W 8274   3.134   4.709   8.683  0.0317 -0.2429 -0.0841
 4224W        W 8275   5.987   0.441   1.263 -0.3636  0.1403 -0.2008
 4225W        W 8276   9.117   1.695   4.087 -0.1395  0.0778  0.0273
 4226W        W 8277   1.142   2.976   1.140  0.1873  0.0325 -0.3520
 4227W        W 8278   0.983   7.440   1.726 -0.0668 -0.1732 -0.0931
 4228W        W 8279   5.882   3.874   4.687 -0.2560 -0.1000  0.0716
 4229W        W 8280   6.850   5.058  10.919  0.0710  0.1466  0.1765
 4230W        W 8281   6.329   9.998   0.769 -0.0272  0.0535  0.1000
 4231W        W 8282   8.880   1.861  11.926 -0.1161  0.0544  0.3680
 4232W        W 8283   2.401   0.426   9.201  0.0891  0.0734 -0.1463
 4233W        W 8284   7.997   2.438   2.628 -0.1491 -0.2158  0.1967
 4234W        W 8285   5.713   7.741   0.656 -0.0689  0.0343  0.1796
 4235W        W 8286   2.741   2.753   2.558 -0.1989  0.1885 -0.0236
 4236W        W 8287   3.850   4.059   0.127  0.0492  0.1586 -0.3203
 4237W        W 8288   0.912   4.563  10.746  0.0933  0.0296 -0.1879
 4238W        W 8289   2.294   3.891   2.053  0.3251  0.0944 -0.0513
 4239W        W 8290   0.294   7.018   4.774 -0.0727  0.0131 -0.1180
 4240W        W 8291   8.757   4.403   0.306 -0.0488  0.0501 -0.1488
 4241W        W 8292   1.754   3.245   2.334 -0.1091 -0.0995  0.0928
 4242W        W 8293   0.039   9.913   9.652 -0.2162 -0.2129 -0.1568
 4243W        W 8294   6.402   2.420   3.250  0.1700 -0.3636  0.0037
 4244W        W 8295   6.165   4.013  11.789  0.0166  0.4795  0.3008
 4245W        W 8296   4.615   5.116   3.636  0.3667  0.2254  0.1769
 4246W        W 8297   3.728   6.917   1.351  0.2331 -0.2116 -0.2723
 4247W        W 8298   8.322   0.819   4.091 -0.2281  0.0176  0.2296
 4248W        W 8299   9.785   3.423   1.422  0.0048  0.1495  0.2260
 4249W        W 8300   0.675   6.256   3.208  0.1357  0.2123 -0.0565
 4250W        W 8301   1.340   3.149   1.885  0.0815  0.2759 -0.1713
 4251W        W 8302   1.570   0.198  10.230 -0.3194  0.0761 -0.2114
 4252W        W 8303   3.252   9.488  13.482 -0.0010  0.3210 -0.2838
 4253W        W 8304   1.852   3.906  10.245 -0.0848 -0.1702 -0.0215
 4254W        W 8305   3.284   9.356   3.730 -0.0013  0.0760  0.1156
 4255W        W 8306   3.949   2.731  13.942 -0.2002  0.3351  0.1399
 4256W        W 8307   3.614   4.495   0.331  0.1210  0.4708  0.0765
 4257W        W 8308   6.139   1.021   0.546  0.1918  0.0922 -0.1105
 4258W        W 8309   7.717   2.723   0.345  0.2097  0.2363  0.2075
 4259W        W 8310   9.229   3.027   3.723  0.1920 -0.1532  0.0826
 4260W        W 8311   4.470   5.097   0.279  0.0593  0.1759 -0.0874
 4261W        W 8312   4.324   2.853   0.423 -0.2234  0.1681 -0.0719
 4262W        W 8313   9.547   3.509   1.891 -0.1558  0.1677 -0.0019
 4263W        W 8314   8.777   9.969   3.318  0.0868 -0.1971 -0.2501
 4264W        W 8315   6.658   1.373   9.050 -0.3098 -0.2634 -0.2460
 4265W        W 8316   5.306   9.619  11.830 -0.0298 -0.1923  0.0287
 4266W        W 8317   7.065   3.275  11.813 -0.1750  0.0529  0.1969
 4267W        W 8318   0.671   5.009   1.363 -0.0167  0.4093  0.1115
 4268W        W 8319   8.616   0.338   4.117 -0.3502  0.5266  0.1335
 4269W        W 8320   9.467   4.352  11.194 -0.0044 -0.2515 -0.0008
 4270W        W 8321   7.219   6.906   2.993 -0.3534 -0.0631  0.3108
 4271W        W 8322   8.323   7.491  11.868  0.0749  0.3304  0.0481
 4272W        W 8323   8.932   2.236   9.458 -0.1237  0.0860 -0.2422
 4273W        W 8324   3.759   1.578   4.113  0.0630 -0.0002  0.1106
 4274W        W 8325   6.696   2.678  12.977  0.1306  0.0891 -0.1539
 4275W        W 8326   2.269   2.942   1.726  0.3790 -0.2229  0.1590
 4276W        W 8327   3.265   7.144  12.188 -0.1895 -0.0466 -0.0382
 4277W        W 8328   0.064   3.325  11.233 -0.1038 -0.3206  0.1950
 4278W        W 8329   3.861   3.951   0.741 -0.2155  0.1605  0.1895
 4279W        W 8330   5.935   0.935  12.630  0.1277 -0.0099  0.1865
 4280W        W 8331   9.578   3.036   2.157  0.1142  0.1858 -0.0611
 4281W        W 8332   5.518   7.349   4.176  0.0681 -0.0901  0.2141
 4282W        W 8333   6.447   8.990  13.202 -0.0008 -0.0072 -0.1080
 4283W        W 8334   3.824   5.789   1.447  0.1286 -0.1444 -0.1809
 4284W        W 8335   8.280   1.308   4.207 -0.3393 -0.1170 -0.3327
 4285W        W 8336   4.918   9.697  13.501  0.1261  0.0237  0.5166
 4286W        W 8337   9.435   1.586  10.636  0.0957  0.0210 -0.0672
 4287W        W 8338   7.509   0.602   2.411  0.2369 -0.2486  0.1511
 4288W        W 8339   2.120   2.417  12.835  0.0854 -0.0457 -0.4162
 4289W        W 8340   7.407   3.280  13.711 -0.2062  0.0645 -0.2663
 4290W        W 8341   1.230   6.459   9.639  0.1113  0.0784 -0.0412
 4291W        W 8342   4.930   6.153   4.384 -0.1005  0.0632  0.0702
 4292W        W 8343   8.530   1.121  10.874 -0.1699  0.0968 -0.2592
 4293W        W 8344   7.383   0.517  13.667 -0.1089  0.1670  0.1066
 4294W        W 8345   5.560   7.069  11.193 -0.0486 -0.2452 -0.2599
 4295W        W 8346   7.725   3.573   9.108 -0.4377  0.0569  0.1071
 4296W        W 8347   7.933   4.228   4.749 -0.0464 -0.1831  0.1221
 4297W        W 8348   3.777   1.768  10.293  0.1617 -0.0529 -0.0253
 4298W        W 8349   9.045   1.038  13.568 -0.1223  0.1566 -0.1111
 4299W        W 8350   4.184   8.833  11.813 -0.0527 -0.0091 -0.0277
 4300W        W 8351   2.351   8.338  13.608 -0.0452 -0.0338 -0.1273
 4301W        W 8352   7.961   3.332  10.341 -0.2540  0.1703 -0.0069
 4302W        W 8353   0.946   7.914   0.998 -0.0175  0.0195  0.2210
 4303W        W 8354   2.830   4.929  13.852 -0.1777 -0.3057  0.0584
 4304W        W 8355   3.546   5.881   9.220 -0.2140 -0.1589 -0.0657
 4305W        W 8356   7.537   9.782  13.243  0.1233 -0.1866 -0.0659
 4306W        W 8357   2.325   5.512   2.895 -0.1159 -0.1207 -0.2139
 4307W        W 8358   0.472   6.997   3.731  0.1073  0.0438 -0.5276
 4308W        W 8359   8.569   4.769   4.438  0.3888  0.1272 -0.0255
 4309W        W 8360   1.276   3.875   4.442  0.0673  0.4916  0.1165
 4310W        W 8361   5.558   2.868  10.708  0.0124 -0.0630 -0.0488
 4311W        W 8362   5.655   2.362   9.977 -0.3260 -0.2022 -0.2037
 4312W        W 8363   9.261   4.680  12.988 -0.1652 -0.0723  0.2698
 4313W        W 8364   8.851   7.515   4.083  0.1354 -0.0480  0.5043
 4314W        W 8365   6.507   3.796  12.252  0.0809 -0.0181 -0.3263
 4315W        W 8366   8.041   5.278   0.056  0.2705 -0.0577 -0.2944
 4316W        W 8367   1.730   1.183   0.962  0.1193  0.2263  0.1025
 4317W        W 8368   4.072   0.186  10.339  0.0368 -0.1238 -0.1278
 4318W        W 8369   6.693   0.037   1.661 -0.1241  0.1079 -0.1395
 4319W        W 8370   6.219   6.247   0.517  0.3209  0.0290  0.1354
 4320W        W 8371   6.063   4.855  13.593 -0.1598  0.2453 -0.1307
 4321W        W 8372   0.495   0.514  10.673  0.0777 -0.4689 -0.4714
 4322W        W 8373   6.549   6.751   1.758  0.2241  0.1533 -0.1547
 4323W        W 8374   1.328   6.928  12.479  0.0209  0.0228  0.0286
 4324W        W 8375   0.553   0.561   3.050 -0.2571 -0.0244 -0.0878
 4325W        W 8376   3.109   5.088   9.574 -0.3627 -0.1143  0.0385
 4326W        W 8377   6.735   3.600   1.766 -0.0340 -0.0339  0.4107
 4327W        W 8378   9.608   2.920   5.943 -0.0753 -0.3231  0.2183
 4328W        W 8379   9.735   5.907   0.606 -0.0742 -0.0122  0.1550
 4329W        W 8380   6.009   8.119  12.693 -0.1756 -0.1257  0.0967
 4330W        W 8381   3.369   3.079   0.741  0.3009  0.0715  0.2677
 4331W        W 8382   4.473   8.925  13.704 -0.0238 -0.0942  0.4838
 4332W        W 8383   8.650   9.301   0.741  0.0700  0.1388  0.1337
 4333W        W 8384   2.616   0.462  13.672 -0.0675  0.1061  0.0918
 4334W        W 8385   2.760   6.330   1.519 -0.0146 -0.1610  0.0123
 4335W        W 8386   9.177   6.853  11.704  0.0880 -0.3544  0.1570
 4336W        W 8387   3.601   6.240   3.227 -0.1921 -0.1584  0.1500
 4337W        W 8388   4.757   3.481   3.891 -0.0106 -0.1389 -0.2609
 4338W        W 8389   3.638   1.708   0.446 -0.0514  0.1474 -0.1165
 4339W        W 8390   3.883   8.008   9.251  0.1245 -0.0064 -0.5129
 4340W        W 8391   3.630   1.479   3.644  0.1673 -0.2750 -0.3439
 4341W        W 8392   5.748   9.726  11.597  0.0293  0.1095 -0.3421
 4342W        W 8393   6.599   5.813  13.298  0.1431  0.0576 -0.0515
 4343W        W 8394   4.204   2.848   2.565 -0.1086 -0.2943  0.3727
 4344W        W 8395   0.291   8.301  12.784 -0.4000  0.2300  0.0860
 4345W        W 8396   9.975   9.017   2.341 -0.3422  0.1638 -0.2089
 4346W        W 8397   0.398   9.639   3.701  0.0375  0.2616  0.2226
 4347W        W 8398   1.781   5.383  11.364  0.0390  0.2249 -0.1040
 4348W        W 8399   0.151   8.757  12.815 -0.0974  0.0040  0.2138
 4349W        W 8400   8.580   3.148  13.894 -0.2632 -0.3167 -0.0469
 4350W        W 8401   6.535   5.579   2.985 -0.0292  0.1053  0.0461
 4351W        W 8402   8.111   9.741   4.463  0.3247  0.1392  0.0229
 4352W        W 8403   5.968   1.638   1.380  0.1955  0.1555 -0.0628
 4353W        W 8404   2.396   5.791  12.879  0.0041 -0.2728  0.1374
 4354W        W 8405   2.821   5.230   8.660 -0.0791  0.1632 -0.3724
 4355W        W 8406   6.274   5.166   1.691 -0.2556  0.0970 -0.1368
 4356W        W 8407   7.524   7.883  10.846 -0.2326  0.2046  0.0279
 4357W        W 8408   7.482   6.256  11.332 -0.0633 -0.0760  0.0981
 4358W        W 8409   2.275   6.969   9.770 -0.1288 -0.1756 -0.0983
 4359W        W 8410   2.797   6.952   3.484 -0.0209  0.1400  0.1310
 4360W        W 8411   3.104   0.401   1.751 -0.2384  0.1321  0.2497
 4361W        W 8412   4.116   2.947   3.816 -0.2672 -0.2639  0.0684
 4362W        W 8413   3.323   9.080   2.488 -0.2425 -0.1448 -0.0810
 4363W        W 8414   2.898   7.431   3.751 -0.0184 -0.2818  0.2901
 4364W        W 8415   5.166   2.000   1.369  0.0430 -0.2593 -0.3924
 4365W        W 8416   2.769   3.961   2.187 -0.1059  0.0247  0.0290
 4366W        W 8417   8.302   0.183   4.902 -0.1696  0.0995  0.2765
 4367W        W 8418   1.734   4.623  10.772  0.1586  0.0978 -0.1333
 4368W        W 8419   6.304   0.591   9.640  0.3259  0.0959 -0.0338
 4369W        W 8420   2.114   1.223  13.546  0.0146  0.1119 -0.1443
 4370W        W 8421   8.825   6.354  13.836  0.2762  0.0470 -0.0371
 4371W        W 8422   0.252   3.098  10.208 -0.2600 -0.0216 -0.1828
 4372W        W 8423   7.187   4.926   5.115 -0.2409 -0.0598  0.1423
 4373W        W 8424   3.151   6.504   1.176 -0.3594 -0.3989 -0.1497
 4374W        W 8425   6.275   3.344   0.307  0.0802  0.1210 -0.1074
 4375W        W 8426   8.479   1.767   0.697  0.2124  0.0556 -0.1542
 4376W        W 8427   6.406   3.225  11.685 -0.1987  0.0564 -0.1134
 4377W        W 8428   8.069   1.079   3.719 -0.1116  0.0475 -0.2105
 4378W        W 8429   8.840   3.261   4.166  0.1399 -0.1111 -0.4402
 4379W        W 8430   4.805   1.184   0.161  0.1779  0.0546  0.1163
 4380W        W 8431   9.678   2.388  10.346 -0.2900  0.0333 -0.0907
 4381W        W 8432   7.624   0.587   1.486 -0.1513  0.2783 -0.0179
 4382W        W 8433   2.234   4.334  10.999  0.1482 -0.3718 -0.3197
 4383W        W 8434   1.576   1.449  12.455 -0.1629  0.0763 -0.1457
 4384W        W 8435   2.891   7.935  12.557  0.2047 -0.1895  0.1278
 4385W        W 8436   5.332   5.326  13.378  0.2527 -0.0727  0.1985
 4386W        W 8437   9.544   8.584  12.093 -0.1440  0.1322 -0.0053
 4387W        W 8438   9.567   4.225  13.103  0.3465 -0.0204  0.3564
 4388W        W 8439   6.067   2.149  10.141 -0.1844 -0.0130 -0.0802
 4389W        W 8440   5.169   2.206   0.846 -0.0257  0.0004  0.0718
 4390W        W 8441   4.776   1.332   3.101  0.2585  0.1342 -0.1880
 4391W        W 8442   1.037   1.113   2.010 -0.0251  0.1886  0.0068
 4392W        W 8443   3.395   1.605   1.350 -0.1777 -0.0591 -0.1522
 4393W        W 8444   9.000   2.966   0.644  0.3847  0.4723 -0.0991
 4394W        W 8445   3.591   4.251   9.771 -0.2168  0.1752  0.2102
 4395W        W 8446   6.556   2.195   1.329 -0.4331 -0.2767 -0.1158
 4396W        W 8447   2.156   2.420   4.380 -0.0438  0.2943  0.3801
 4397W        W 8448   4.143   2.369  13.651  0.4337 -0.0904  0.0241
 4398W        W 8449   1.622   6.313   0.233  0.2840 -0.0168  0.0070
 4399W        W 8450   0.337   0.151   1.775  0.1891  0.1529  0.1910
 4400W        W 8451   7.972   9.229   4.843 -0.1700  0.0979  0.0245
 4401W        W 8452   7.147   4.406   3.002  0.0821  0.2710  0.3420
 4402W        W 8453   4.588   4.339   1.548 -0.2485  0.2503 -0.2540
 4403W        W 8454   8.398   4.428  11.502  0.1356  0.0149 -0.4268
 4404W        W 8455   5.932   4.976   0.137 -0.0249  0.0612  0.0506
 4405W        W 8456   9.256   7.672   3.395  0.1449 -0.1049 -0.1734
 4406W        W 8457   4.413   1.748   3.371 -0.0799  0.0869 -0.1598
 4407W        W 8458   8.266   3.617   0.610 -0.4242  0.1982 -0.0952
 4408W        W 8459   5.965   5.221  11.350  0.2313 -0.1604  0.0776
 4409W        W 8460   2.710   7.462   4.421  0.2020 -0.2946  0.0105
 4410W        W 8461   7.606   4.656  10.498  0.0977  0.3034  0.2382
 4411W        W 8462   7.656   1.962   3.523  0.2993 -0.2797  0.2018
 4412W        W 8463   3.837   3.723   2.076 -0.0767  0.1339  0.1372
 4413W        W 8464   8.267   5.683   0.247 -0.1251  0.1772 -0.4837
 4414W        W 8465   2.763   7.772   2.382  0.0023 -0.2815 -0.0030
 4415W        W 8466   6.097   5.596  10.941 -0.0414 -0.0631  0.0239
 4416W        W 8467   1.280   2.492   1.994 -0.1947  0.2217 -0.0054
 4417W        W 8468   5.226   0.049   1.049 -0.0627 -0.2812  0.2573
 4418W        W 8469   7.077   0.878   0.869 -0.1373  0.2022  0.2044
 4419W        W 8470   7.111  10.043  11.168 -0.0100 -0.3292  0.0676
 4420W        W 8471   1.520   5.334  12.553  0.2316 -0.1069 -0.1465
 4421W        W 8472   6.262   7.995   2.359  0.2206 -0.0495 -0.1477
 4422W        W 8473   7.355   6.582  11.680 -0.2123 -0.5265 -0.2861
 4423W        W 8474   7.484   5.659   0.169 -0.2248  0.0804  0.3802
 4424W        W 8475   5.224   3.746  12.944  0.3270  0.0681  0.1257
 4425W        W 8476   5.050   2.860   4.737 -0.2318 -0.1119 -0.1502
 4426W        W 8477   7.664   4.508  12.750 -0.0233 -0.1145 -0.3486
 4427W        W 8478   7.470   7.406  10.972 -0.1163  0.2108  0.1909
 4428W        W 8479   3.401   2.560   4.570  0.2913  0.0022  0.1788
 4429W        W 8480   5.105   7.491   9.797 -0.0759 -0.1442  0.1762
 4430W        W 8481  10.080   9.297   2.991  0.3077  0.0046  0.3879
 4431W        W 8482   4.108   6.456  13.051 -0.2641 -0.0617 -0.0003
 4432W        W 8483   1.788   0.638  13.060 -0.1626  0.1564 -0.1892
 4433W        W 8484   1.982   8.662   0.936 -0.2569 -0.1337  0.0862
 4434W        W 8485   9.054   5.428  10.190  0.1174 -0.1262 -0.5453
 4435W        W 8486   4.049   3.871   4.421 -0.2059 -0.0655 -0.2367
 4436W        W 8487   6.207   2.425   4.106  0.1870  0.0942  0.0194
 4437W        W 8488   1.202   8.749  12.671  0.0487  0.5721  0.0567
 4438W        W 8489   0.986   8.177  13.932 -0.0204 -0.1405  0.2338
 4439W        W 8490   2.395   1.580  11.970  0.1021 -0.0003 -0.0711
 4440W        W 8491   1.714   2.070  11.211 -0.0005 -0.0966 -0.0551
 4441W        W 8492   7.041   5.647  13.153  0.3768 -0.4076  0.0287
 4442W        W 8493   9.973   4.522  10.939  0.0643 -0.3353  0.6495
 4443W        W 8494   9.272   1.300  13.151 -0.3046 -0.0623  0.0421
 4444W        W 8495   9.322   9.816   0.475 -0.0031 -0.1883  0.1092
 4445W        W 8496   3.980   2.246   3.800 -0.0866  0.2831  0.1205
 4446W        W 8497   5.708   0.631  13.435 -0.0892 -0.1730  0.0613
 4447W        W 8498   7.934   7.079   1.137  0.1810 -0.2510 -0.1755
 4448W        W 8499   1.506   1.547   0.675  0.2292 -0.0017 -0.1431
 4449W        W 8500   4.759   0.788   4.320 -0.0819 -0.0688  0.0167
 4450W        W 8501   8.655   3.935  13.924  0.0482  0.0335 -0.1134
 4451W        W 8502   0.998   1.586   2.599  0.0344 -0.0942  0.1436
 4452W        W 8503   8.218   6.673   1.313 -0.0818 -0.0412  0.0098
 4453W        W 8504   5.765   4.422   0.541  0.1430  0.0258  0.4579
 4454W        W 8505   0.271   8.789   1.437  0.0527  0.0257 -0.0344
 4455W        W 8506   7.262   1.633  12.997  0.1008 -0.1718 -0.0549
 4456W        W 8507   3.760   5.456  12.230  0.1522  0.3092  0.1112
 4457W        W 8508   5.245   3.785   3.785 -0.0997 -0.2148  0.0428
 4458W        W 8509   3.954   0.346   2.020 -0.0858  0.2134 -0.0485
 4459W        W 8510   5.030   2.769   1.846 -0.1640  0.0511  0.0105
 4460W        W 8511   7.506   1.734   3.041  0.0099 -0.0149 -0.0754
 4461W        W 8512   5.126   0.772  10.624 -0.0013  0.0319 -0.0137
 4462W        W 8513   0.732   0.812   9.302  0.1942 -0.2080  0.0449
 4463W        W 8514   2.948   0.952   0.575 -0.0505 -0.4612  0.0477
 4464W        W 8515   1.626   9.977  10.757 -0.3132 -0.1060  0.1243
 4465W        W 8516   8.762   1.827   0.346 -0.0436 -0.0134 -0.1734
 4466W        W 8517   1.719   8.153   1.494 -0.1581 -0.2557  0.2242
 4467W        W 8518   6.746   8.554  13.299 -0.2470 -0.1074 -0.1727
 4468W        W 8519   0.204   0.231  12.684 -0.0407 -0.1414 -0.3798
 4469W        W 8520   9.336   5.157  13.185 -0.0030 -0.2586 -0.1258
 4470W        W 8521   7.832   2.191   3.938 -0.3998 -0.1221 -0.0610
 4471W        W 8522   5.409   9.660   2.945  0.2954 -0.0499  0.0931
 4472W        W 8523   4.294   8.298   2.227 -0.2556  0.0222  0.1910
 4473W        W 8524   7.444   2.366   3.732 -0.0214 -0.2244  0.0567
 4474W        W 8525   9.107   8.071   8.831  0.1234  0.1393  0.2436
 4475W        W 8526   6.474   5.297   4.348 -0.1776  0.2437 -0.1634
 4476W        W 8527   1.839   6.044  13.637 -0.0464 -0.5060  0.0998
 4477W        W 8528   8.492   9.596   2.646  0.0022  0.0761  0.0913
 4478W        W 8529   9.450   6.567   2.510 -0.0931 -0.0919 -0.1483
 4479W        W 8530   9.737   7.577   1.477  0.2259  0.2850  0.0567
 4480W        W 8531   7.575   1.856  10.654  0.0106  0.1007  0.0266
 4481W        W 8532   1.646   5.651  10.963 -0.0053 -0.1343 -0.1676
 4482W        W 8533   1.146   8.476   4.504  0.4955 -0.1064  0.0320
 4483W        W 8534  10.114   6.711   5.025  0.0294  0.2640 -0.1037
 4484W        W 8535   2.246   0.652  11.367 -0.0384 -0.0551  0.0652
 4485W        W 8536   2.416   3.098   2.685 -0.0736 -0.0803 -0.0414
 4486W        W 8537   5.629   3.540   0.895 -0.4186 -0.1467  0.0722
 4487W        W 8538   6.251   4.913  10.442 -0.0573  0.0309 -0.1383
 4488W        W 8539   6.087   3.015  13.782  0.0196 -0.1682  0.3916
 4489W        W 8540   6.591   7.217   1.705 -0.2675  0.1511  0.1524
 4490W        W 8541   6.026   2.026   1.153  0.0241  0.4744 -0.1773
 4491W        W 8542   3.868   7.542  10.841  0.0344 -0.2064  0.2292
 4492W        W 8543   2.058   5.114  13.593  0.0054  0.0010 -0.1383
 4493W        W 8544   6.953   9.605   0.229 -0.0080 -0.2982  0.1085
 4494W        W 8545   9.613   5.515   1.515 -0.0099  0.0471  0.2054
 4495W        W 8546   4.266   6.620   2.091  0.4335 -0.3992  0.1526
 4496W        W 8547   5.814   7.882  11.764  0.1527  0.0150  0.2248
 4497W        W 8548   8.606   0.363   2.632 -0.1217 -0.0590 -0.0483
 4498W        W 8549   1.789   7.276   4.278  0.0878 -0.1076 -0.1235
 4499W        W 8550   2.390   8.166  10.073  0.1247 -0.1531 -0.2718
 4500W        W 8551   6.857   8.964  11.350 -0.0205  0.0256 -0.0940
 4501W        W 8552   3.679   7.873  12.560 -0.3544  0.2890  0.2797
 4502W        W 8553   8.524   1.740  11.329 -0.1010 -0.2243  0.0608
 4503W        W 8554   8.617   3.548   4.809 -0.0188  0.3911  0.0934
 4504W        W 8555   6.780   1.894   4.931 -0.1724 -0.1965  0.0016
 4505W        W 8556   4.803   6.182   2.899 -0.1066 -0.1198  0.0729
 4506W        W 8557   1.885   4.667   1.857  0.0443  0.1033 -0.1492
 4507W        W 8558   6.841   3.706  13.200 -0.0422  0.2772  0.1381
 4508W        W 8559   6.977   2.501  12.334  0.0898 -0.4574 -0.0838
 4509W        W 8560   8.579   1.922  10.876  0.0585 -0.1657 -0.0596
 4510W        W 8561   1.995   7.830  10.262 -0.3589  0.0535 -0.1839
 4511W        W 8562   5.328   9.739  11.297 -0.1027 -0.1070  0.2222
 4512W        W 8563   0.445   1.401   5.556  0.1671  0.1844 -0.2455
 4513W        W 8564   3.982   4.950   2.889  0.2022 -0.2013  0.0458
 4514W        W 8565   9.288   0.199   0.560  0.2422 -0.1066  0.0063
 4515W        W 8566   1.428   0.923  10.576 -0.1769  0.4606  0.0758
 4516W        W 8567   0.959   4.412   2.401  0.0153 -0.2061  0.0937
 4517W        W 8568   7.888   9.169  11.994  0.2566 -0.0686  0.1145
 4518W        W 8569   8.483   7.178  10.806 -0.0915 -0.0056  0.1375
 4519W        W 8570   5.681   8.828  11.547 -0.3880 -0.2379  0.3693
 4520W        W 8571   0.092   3.244   2.765  0.0085 -0.0586 -0.1408
 4521W        W 8572   2.525   6.954   2.524 -0.2665 -0.2255  0.1262
 4522W        W 8573   9.118   8.646   8.636  0.0642  0.1595 -0.1249
 4523W        W 8574   5.486   5.811  10.079 -0.0955  0.2110 -0.4280
 4524W        W 8575   9.035   0.840  12.505 -0.3353  0.0418 -0.0179
 4525W        W 8576   5.945   3.320  11.351 -0.1012 -0.2425 -0.1885
 4526W        W 8577   4.095   5.752   1.877 -0.0717  0.1834  0.1111
 4527W        W 8578   7.208   3.186   3.404  0.0277 -0.4632 -0.0768
 4528W        W 8579   0.100   6.831   2.207 -0.0895  0.1059  0.2750
 4529W        W 8580   3.642   4.852   9.352  0.1898  0.3258  0.2611
 4530W        W 8581   1.325   3.782   9.718 -0.2265 -0.1276 -0.3257
 4531W        W 8582   9.821   6.962  11.032 -0.0373 -0.1148  0.2487
 4532W        W 8583   7.931   7.367   2.107 -0.1064  0.1461  0.4164
 4533W        W 8584   4.086   5.472   8.811 -0.0100 -0.0703 -0.0579
 4534W        W 8585   9.132   2.555   5.126  0.1737 -0.0165  0.1302
 4535W        W 8586   8.752   4.129   9.125 -0.1144 -0.1605 -0.4724
 4536W        W 8587   7.754   1.443  11.407 -0.0224 -0.1026 -0.1468
 4537W        W 8588   5.080   4.416   1.881 -0.2147  0.0117 -0.3471
 4538W        W 8589   3.715   2.070  13.277  0.1622  0.0806 -0.0869
 4539W        W 8590   5.537   9.991   2.587  0.1346  0.1100  0.2724
 4540W        W 8591   9.774   9.663   9.613 -0.0601 -0.1292 -0.1995
 4541W        W 8592   2.849   2.696  11.478  0.0526  0.2441 -0.1480
 4542W        W 8593   8.613   1.609   3.909  0.0740 -0.0510  0.2418
 4543W        W 8594   8.980   3.077  12.601  0.2063  0.2256 -0.3556
 4544W        W 8595   3.323  10.143   3.310  0.3855  0.5509  0.2671
 4545W        W 8596   7.264   4.772  10.887 -0.1580 -0.0554 -0.1623
 4546W        W 8597   6.911   5.565  10.918  0.1997  0.0132  0.1766
 4547W        W 8598   8.211   2.696   0.590  0.2448 -0.2053  0.3290
 4548W        W 8599   8.088   0.631  12.726 -0.1681  0.2879 -0.1783
 4549W        W 8600   5.263   9.962   2.090  0.2320  0.2226  0.0539
 4550W        W 8601   1.239   3.765  13.011  0.2997  0.0792  0.0442
 4551W        W 8602   8.096   1.610   3.838 -0.4304 -0.0501 -0.0534
 4552W        W 8603   2.944   8.130  10.927  0.1179 -0.2777 -0.0145
 4553W        W 8604   8.721   4.947  10.223 -0.1292 -0.0997  0.2004
 4554W        W 8605   6.911   3.012   1.867 -0.0170 -0.0508  0.0048
 4555W        W 8606   3.279   7.505   1.015 -0.2795  0.2532 -0.2332
 4556W        W 8607   9.678   9.452   2.620 -0.0232  0.0096  0.0294
 4557W        W 8608   8.410   1.046   0.034  0.3647  0.0880 -0.2302
 4558W        W 8609   8.048   3.627   9.938  0.2247  0.1340 -0.1352
 4559W        W 8610   0.640   6.484   0.139  0.0012 -0.0880 -0.1254
 4560W        W 8611   8.922   7.571   2.112 -0.0105  0.2047  0.0769
 4561W        W 8612   7.182   8.602   0.305  0.1873 -0.1104  0.0428
 4562W        W 8613   3.827   4.592  10.970 -0.1554  0.2047 -0.1893
 4563W        W 8614   5.001   3.820   2.883 -0.1444 -0.0943 -0.3028
 4564W        W 8615   9.728   2.101   0.766  0.2026  0.1658  0.0743
 4565W        W 8616   2.365   1.535  13.201 -0.3844  0.2781 -0.1215
 4566W        W 8617   9.513   3.276  13.716  0.1954  0.1263 -0.1798
 4567W        W 8618   5.106   8.155   1.552 -0.0825  0.3061 -0.1938
 4568W        W 8619   0.147   4.937   3.952  0.3058  0.2508 -0.2602
 4569W        W 8620   7.021   7.795  11.123 -0.0177  0.2213  0.0577
 4570W        W 8621   7.160   2.214  10.946  0.0103  0.0183  0.2102
 4571W        W 8622   5.790   3.417   1.743  0.0536  0.0713  0.0151
 4572W        W 8623   8.157   0.283  13.097  0.0358  0.0132  0.0397
 4573W        W 8624   0.997   9.343   2.313  0.1903 -0.0136 -0.0322
 4574W        W 8625   3.286   5.335  11.944  0.1405 -0.3058  0.0073
 4575W        W 8626   0.196   1.377   0.712 -0.0832  0.0841  0.4032
 4576W        W 8627   4.203  10.145   3.277 -0.0622 -0.0350 -0.0491
 4577W        W 8628   9.953   6.590  11.326 -0.3426  0.2584 -0.0806
 4578W        W 8629   0.195   4.199  10.719 -0.0153  0.0429 -0.2319
 4579W        W 8630   3.122   4.254   9.957  0.1805  0.1495 -0.0809
 4580W        W 8631   2.083   7.561   0.228 -0.0914 -0.0431  0.1323
 4581W        W 8632   9.969   0.962   5.148 -0.2385  0.0959  0.2652
 4582W        W 8633   6.164   0.776  13.148  0.1476  0.1247 -0.5061
 4583W        W 8634   5.019   6.178   3.525 -0.0475  0.1638  0.0678
 4584W        W 8635   9.143   2.086   3.562 -0.0967 -0.1209 -0.3259
 4585W        W 8636   1.095   9.152   5.170  0.0809 -0.2608  0.0650
 4586W        W 8637   3.805   1.429   0.068  0.0105  0.2183  0.0855
 4587W        W 8638   8.607   9.396   1.226  0.0009  0.0506  0.2097
 4588W        W 8639   1.118   6.477   3.055  0.1448  0.1575 -0.0949
 4589W        W 8640   4.551   8.453  12.418 -0.1200  0.2732  0.1071
 4590W        W 8641   9.307   2.242  13.700  0.0597  0.4342  0.2401
 4591W        W 8642   7.780   8.942   9.261  0.4103  0.3240 -0.0797
 4592W        W 8643   3.779   7.361  11.310 -0.0077  0.3118  0.1404
 4593W        W 8644  10.032   2.264  11.382  0.2687  0.0089  0.1271
 4594W        W 8645   8.572   1.513  12.682  0.0740 -0.1561  0.2263
 4595W        W 8646   0.072   7.561   1.738 -0.0803 -0.0344  0.3287
 4596W        W 8647   2.528   2.018   1.458 -0.3722 -0.1146  0.2740
 4597W        W 8648   0.989   6.801   0.001  0.1481 -0.1137 -0.0468
 4598W        W 8649   0.746   5.767   1.028 -0.0280  0.4548 -0.3174
 4599W        W 8650   2.546   7.258   1.653  0.1902  0.1013 -0.0562
 4600W        W 8651   8.474   3.633   3.927 -0.3915 -0.1620 -0.5335
 4601W        W 8652   4.606   0.363  13.657  0.0036  0.0262 -0.0250
 4602W        W 8653   8.556   7.383   4.889  0.1768  0.4539  0.1343
 4603W        W 8654   2.454   3.586  10.597 -0.0688  0.2233 -0.0178
 4604W        W 8655   9.705   0.727  13.012 -0.1356 -0.1111 -0.2556
 4605W        W 8656   1.660   1.319   3.164 -0.0113 -0.1987  0.1256
 4606W        W 8657   6.090   2.156  12.560 -0.0052  0.0296  0.3606
 4607W        W 8658   3.301   9.442  11.254 -0.2479  0.2042 -0.1170
 4608W        W 8659   9.742   4.924   4.867  0.0740 -0.2273  0.3107
 4609W        W 8660   2.024   1.584  10.641 -0.1756  0.1120  0.0226
 4610W        W 8661   8.063   0.180   1.540  0.0271  0.0089 -0.3174
 4611W        W 8662   2.201   0.817   3.930  0.1444  0.0491 -0.0113
 4612W        W 8663   3.294   5.293   2.098  0.2224  0.0807 -0.1276
 4613W        W 8664  10.130   9.502   9.926 -0.1176  0.0881 -0.0600
 4614W        W 8665   9.835   2.474   1.914 -0.1767  0.0003 -0.2357
 4615W        W 8666   9.656   5.814   2.577 -0.3117 -0.2651  0.2304
 4616W        W 8667   7.225   7.063  13.243  0.1449 -0.2158 -0.0399
 4617W        W 8668   6.100   8.521   1.496 -0.1797 -0.4159  0.0278
 4618W        W 8669   0.970   8.064  11.351 -0.0545  0.1972  0.1177
 4619W        W 8670   0.058   0.983  10.832  0.1215  0.0529  0.1636
 4620W        W 8671   2.069   7.643  10.757  0.2316  0.1416  0.0590
 4621W        W 8672   0.935   8.050  13.343  0.2546 -0.1120 -0.0265
 4622W        W 8673   6.119   4.252  13.835  0.0365  0.0745 -0.4036
 4623W        W 8674   6.350   4.256  12.216 -0.1655 -0.1233  0.0750
 4624W        W 8675   1.421   0.595   2.773 -0.1987 -0.0282  0.0489
 4625W        W 8676   6.400   0.966  11.740 -0.0480 -0.3055 -0.0340
 4626W        W 8677   2.406   5.756   9.908 -0.0096  0.2195 -0.1752
 4627W        W 8678   1.962   0.399   9.983 -0.0043  0.1296  0.0697
 4628W        W 8679   6.235   9.438   1.441  0.0963 -0.0743  0.3944
 4629W        W 8680   5.882   8.956  13.284  0.0704 -0.1681  0.1549
 4630W        W 8681  10.008   3.076   0.767  0.2823 -0.0457 -0.2540
 4631W        W 8682   2.955   0.865  10.772  0.0340  0.1067 -0.1173
 4632W        W 8683   9.373   8.504  11.420 -0.2305  0.0890 -0.2554
 4633W        W 8684   7.315   6.597   1.176  0.0590 -0.0133 -0.0958
 4634W        W 8685   4.573   4.442   9.681 -0.0356 -0.1706 -0.2753
 4635W        W 8686   2.699   3.943   4.841 -0.0215  0.0433  0.2705
 4636W        W 8687   3.298   8.989   3.396  0.0414 -0.1947  0.0514
 4637W        W 8688   0.722   3.962   4.653  0.2257 -0.1267  0.3661
 4638W        W 8689   8.548   2.663   2.230 -0.1517 -0.1599  0.1739
 4639W        W 8690   5.361   7.318  13.184 -0.1025 -0.3679 -0.0323
 4640W        W 8691   7.395   4.246   2.210 -0.1923 -0.2513  0.1423
 4641W        W 8692   8.540   4.525   1.749  0.0766 -0.1637 -0.0152
 4642W        W 8693   4.170   5.744   4.856  0.0183  0.0001 -0.2139
 4643W        W 8694  10.006   4.984   0.676 -0.0377  0.2891  0.2365
 4644W        W 8695   0.987   1.872  10.821 -0.0234 -0.0085  0.0844
 4645W        W 8696   3.539   3.651  13.899 -0.1017 -0.2830  0.1061
 4646W        W 8697   7.012   5.752   2.955  0.1428  0.1194  0.0877
 4647W        W 8698   5.792   2.161  11.287 -0.0363 -0.0938  0.1535
 4648W        W 8699   4.001   0.745   1.683 -0.0496  0.1558  0.0846
 4649W        W 8700   4.039   1.591  11.784  0.0817  0.0674  0.3106
 4650W        W 8701   3.746   3.915   1.242 -0.2975 -0.2237  0.2535
 4651W        W 8702   0.992   9.442  10.181  0.3203 -0.1259 -0.1781
 4652W        W 8703   3.120   6.743  13.001  0.1163 -0.1055  0.1143
 4653W        W 8704   9.446   9.435   9.390  0.3734  0.0107  0.0537
 4654W        W 8705   9.236   7.936  13.281  0.0703  0.1541  0.2769
 4655W        W 8706   1.109   9.152   3.173  0.0762 -0.1700 -0.2121
 4656W        W 8707   1.875   7.305  11.098 -0.1716  0.1840 -0.2860
 4657W        W 8708   7.117   0.287   9.473 -0.0227 -0.0333  0.0366
 4658W        W 8709   8.061   5.058   0.507 -0.0876  0.1827  0.3902
 4659W        W 8710   7.933   3.099   9.296  0.2554 -0.0115  0.2020
 4660W        W 8711   3.840   1.176  13.073 -0.0198  0.0632 -0.0503
 4661W        W 8712   3.708   3.096  12.921  0.1266 -0.0082 -0.3753
 4662W        W 8713   0.959   6.060  12.882  0.0817 -0.3624  0.2140
 4663W        W 8714   4.017   2.112   2.496 -0.0568  0.0759 -0.1039
 4664W        W 8715   4.465   3.833  11.354 -0.0538 -0.5381 -0.0770
 4665W        W 8716   0.285   3.134   4.381 -0.3284  0.0507 -0.4862
 4666W        W 8717   9.059   9.450  10.399 -0.0588  0.1771  0.2105
 4667W        W 8718   2.770   0.753  11.431  0.1799  0.1459 -0.0570
 4668W        W 8719   2.018   3.208   9.718 -0.1139  0.1422  0.1053
 4669W        W 8720   8.274   3.548   0.028 -0.0786  0.0123  0.2108
 4670W        W 8721   7.642   5.935  10.901  0.2273  0.0084 -0.0021
 4671W        W 8722   4.202   9.338  11.275  0.1642  0.0684  0.0508
 4672W        W 8723   1.427   5.411  10.531 -0.4045 -0.0276 -0.0989
 4673W        W 8724   7.124   8.191   9.973  0.2176 -0.2184 -0.1916
 4674W        W 8725   2.060   1.957   1.801  0.3600  0.2074 -0.0776
 4675W        W 8726   5.876   3.577   2.710 -0.1395 -0.0218 -0.0398
 4676W        W 8727   2.821   3.607  13.176  0.2441 -0.1235 -0.0854
 4677W        W 8728   8.343   7.258  11.468 -0.0645 -0.1757  0.1954
 4678W        W 8729   9.674   9.058  11.940 -0.2235 -0.2027  0.0089
 4679W        W 8730   3.015   3.526  13.740 -0.0307  0.0130  0.1870
 4680W        W 8731   2.986   3.998  11.583  0.3625  0.0992 -0.0970
 4681W        W 8732   8.767   6.462   3.649 -0.0427 -0.0313  0.4147
 4682W        W 8733   6.745   2.586  13.842  0.0809 -0.0461  0.1650
 4683W        W 8734   8.437   0.210   1.084 -0.1648  0.0163 -0.0798
 4684W        W 8735   3.745   3.063  13.626 -0.0988  0.3130 -0.0389
 4685W        W 8736   7.485   3.047  11.190  0.5004  0.1849 -0.0279
 4686W        W 8737   3.253   1.322  11.406  0.0363 -0.0957  0.0659
 4687W        W 8738   4.714   1.913  10.067 -0.0004  0.1289  0.3933
 4688W        W 8739   6.880   4.036  13.522  0.1887  0.4011 -0.0919
 4689W        W 8740   3.479   7.314  10.244  0.2515  0.2035 -0.0326
 4690W        W 8741   5.552   6.818   4.318  0.1043 -0.2252  0.0379
 4691W        W 8742   7.037   4.000   1.988 -0.0052  0.3954  0.1791
 4692W        W 8743   0.752   4.410   0.740 -0.0224  0.0539  0.1621
 4693W        W 8744   0.051   0.590   1.718 -0.0233  0.0069 -0.0139
 4694W        W 8745   8.847   2.190  10.447  0.2277  0.1200  0.0266
 4695W        W 8746   7.930   9.456  13.040  0.1205  0.0983 -0.0029
 4696W        W 8747   7.953   3.097   0.699  0.1499  0.3187  0.0293
 4697W        W 8748   6.234   8.862  11.407 -0.0027 -0.0527 -0.0299
 4698W        W 8749   8.552   5.959   0.004  0.0637 -0.0972  0.0137
 4699W        W 8750   9.607   7.403  12.962 -0.2480  0.0170  0.4032
 4700W        W 8751   2.640   9.622   0.980 -0.1663  0.1838  0.2151
 4701W        W 8752   6.885   2.782   4.697  0.2582  0.2228  0.2213
 4702W        W 8753   2.571   9.653  11.940  0.0438 -0.0755 -0.1013
 4703W        W 8754   5.228   1.254  13.229  0.0258 -0.0230  0.1317
 4704W        W 8755   1.859   9.607   3.946  0.1044  0.1319  0.1132
 4705W        W 8756   9.132   5.149  13.803  0.0481  0.1687 -0.1992
 4706W        W 8757   7.727   6.594  12.891  0.1755  0.3110  0.0721
 4707W        W 8758   9.283   7.620  12.462 -0.2398  0.1137 -0.0101
 4708W        W 8759   1.924   5.917   1.052 -0.2785  0.0524  0.1775
 4709W        W 8760  10.095   4.037  11.591  0.0256 -0.0822 -0.3294
 4710W        W 8761   1.726   9.342  12.868  0.2352  0.2121 -0.1083
 4711W        W 8762   6.553   0.469   2.498 -0.0383  0.0599  0.0389
 4712W        W 8763   9.883   6.946  12.859  0.0431 -0.2020  0.1592
 4713W        W 8764   8.591   8.885   1.040  0.4207  0.0080  0.1121
 4714W        W 8765   9.102   5.226   3.211  0.0014 -0.1231  0.3192
 4715W        W 8766   4.631   6.472   1.670  0.0546  0.0244  0.0173
 4716W        W 8767   3.714   9.557  13.892  0.0047  0.0622  0.2860
 4717W        W 8768   4.426   9.962   1.524 -0.1021  0.2657  0.2047
 4718W        W 8769   0.549   4.667   1.746  0.4196  0.2645  0.2337
 4719W        W 8770   1.924   8.156   0.859 -0.0174 -0.2752  0.0174
 4720W        W 8771   7.036   0.045  12.856 -0.1862 -0.2021 -0.2997
 4721W        W 8772   2.512   2.591  10.753  0.0695 -0.1155 -0.1823
 4722W        W 8773   9.042   9.175  10.822 -0.1845 -0.0570  0.1152
 4723W        W 8774   5.744   7.386   2.045 -0.2966 -0.0469  0.3970
 4724W        W 8775   9.759   4.533   0.632 -0.0104 -0.1373 -0.0831
 4725W        W 8776   4.496   7.597   4.068  0.1378  0.0336  0.0184
 4726W        W 8777   6.582   5.401  13.010  0.0255 -0.1938  0.1053
 4727W        W 8778   1.623   5.997   4.090 -0.3124 -0.0492  0.3653
 4728W        W 8779   0.109   1.500  10.811  0.2681 -0.3044 -0.1167
 4729W        W 8780   1.328   1.719  13.886  0.1653 -0.2102 -0.0423
 4730W        W 8781   0.387   0.113  11.303 -0.0061  0.0534  0.2033
 4731W        W 8782   5.783   4.738   3.966 -0.2389  0.1711  0.1277
 4732W        W 8783   4.968   3.887   9.393 -0.0373 -0.0838 -0.0469
 4733W        W 8784   6.655   6.123   4.754 -0.2105  0.2422  0.0577
 4734W        W 8785   4.699   1.595  10.467  0.1686  0.0356 -0.3358
 4735W        W 8786   2.840   3.006  10.982  0.1766 -0.0454  0.0956
 4736W        W 8787   8.092   5.511  10.126 -0.1286  0.0301  0.2718
 4737W        W 8788   3.580   6.858  10.381 -0.2190  0.1275 -0.0133
 4738W        W 8789   5.522   4.447  10.026 -0.4496 -0.0253 -0.1855
 4739W        W 8790   4.895   0.772  12.799  0.0269  0.3832  0.0949
 4740W        W 8791   8.488   6.181   9.782  0.3461  0.0412  0.2954
 4741W        W 8792   4.543   9.502  13.756 -0.2278  0.0378  0.1379
 4742W        W 8793   9.692   5.780   3.058  0.0936  0.1128  0.0801
 4743W        W 8794   9.668   3.917   1.533 -0.1955 -0.1230 -0.0193
 4744W        W 8795   5.830   4.059   0.248  0.1876  0.3203  0.2683
 4745W        W 8796   5.102   3.464   0.774 -0.0337 -0.0463  0.0661
 4746W        W 8797   6.309   5.624   3.490  0.2730  0.2313 -0.0962
 4747W        W 8798   2.556   7.253   3.022 -0.4060  0.1043  0.4265
 4748W        W 8799   1.186   2.134   5.146  0.1097 -0.1780  0.0274
 4749W        W 8800   1.556   3.372  11.579 -0.0849 -0.0647 -0.0005
 4750W        W 8801   4.169   3.066  12.028  0.1462  0.2079 -0.1721
 4751W        W 8802   7.905   6.326   2.190 -0.2243 -0.1593  0.4057
 4752W        W 8803   7.612   0.805   1.050  0.0090 -0.0500  0.0264
 4753W        W 8804   1.240   8.637   3.158 -0.0378  0.0466 -0.1361
 4754W        W 8805   0.586   2.215   3.885 -0.2220  0.2390  0.1386
 4755W        W 8806   2.446   7.713   3.632  0.2074 -0.2223  0.1660
 4756W        W 8807   8.155   0.203  11.840 -0.2183  0.1169 -0.2961
 4757W        W 8808   9.662   5.330  11.378  0.0526 -0.1235  0.0035
 4758W        W 8809   6.804   1.078  12.164 -0.2254  0.2824  0.0443
 4759W        W 8810   9.961   7.822  12.075  0.1437  0.1123  0.2575
 4760W        W 8811   1.394   0.939   3.109  0.0565 -0.3120 -0.1709
 4761W        W 8812   7.886   8.439  12.928 -0.2284  0.1100  0.3038
 4762W        W 8813   4.091   4.214   9.377 -0.0159  0.2399 -0.0958
 4763W        W 8814   1.018   5.675   4.285  0.1878 -0.1564  0.2405
 4764W        W 8815   6.208   9.471   4.101 -0.0056 -0.0619 -0.1469
 4765W        W 8816   1.648   5.511   9.666  0.0641  0.0341  0.0606
 4766W        W 8817   0.784   8.893   4.914 -0.0119  0.0450  0.0349
 4767W        W 8818   2.427   3.900   1.473  0.2736 -0.3975  0.1524
 4768W        W 8819   4.285   1.927  10.916  0.0794 -0.0311 -0.0285
 4769W        W 8820  10.021   5.969   1.502 -0.0170 -0.3139 -0.0595
 4770W        W 8821   9.816   7.513  11.631 -0.0543 -0.0733 -0.3102
 4771W        W 8822   0.192   6.699  12.228  0.0010 -0.1211  0.0209
 4772W        W 8823   9.056   0.676   0.505  0.0829  0.0833  0.2743
 4773W        W 8824   9.037   7.668   4.804  0.1622  0.2226 -0.3003
 4774W        W 8825   0.341   5.652  10.789 -0.1293 -0.4482 -0.0621
 4775W        W 8826   6.193   9.992  13.404 -0.2164 -0.0714  0.0245
 4776W        W 8827   9.891  10.058   1.780  0.0768  0.1535 -0.1088
 4777W        W 8828   2.411   8.756   1.102 -0.0974  0.1122 -0.2062
 4778W        W 8829   8.707   8.065   9.783 -0.0173 -0.0434  0.1013
 4779W        W 8830   3.549   8.407  12.403  0.0606 -0.0854  0.1224
 4780W        W 8831   3.797   7.179  12.992  0.2273 -0.1091 -0.0549
 4781W        W 8832   5.342   3.770   9.769  0.0029  0.1959 -0.3096
 4782W        W 8833   4.799   6.509  10.210  0.2027  0.1469 -0.3569
 4783W        W 8834   6.770   4.673   0.851 -0.1718 -0.1476 -0.3634
 4784W        W 8835   8.743   5.610   9.520  0.1064  0.2092  0.0643
 4785W        W 8836   0.803   0.730  12.000 -0.1002 -0.0548 -0.1472
 4786W        W 8837   3.033   0.838   3.567 -0.1045  0.2827 -0.3478
 4787W        W 8838   4.174   9.791   0.078 -0.0112  0.3155  0.1895
 4788W        W 8839   1.727   2.412   4.006  0.0345 -0.0954 -0.0977
 4789W        W 8840   2.178   1.244   2.761  0.4285 -0.0506  0.0241
 4790W        W 8841   2.854   2.604   2.112  0.1896 -0.0665  0.1286
 4791W        W 8842   8.122   6.382   4.273 -0.0039  0.1908  0.0534
 4792W        W 8843   4.190   1.957   1.069  0.0110  0.0867 -0.2627
 4793W        W 8844   9.770   7.675  12.515 -0.0039 -0.0788  0.0015
 4794W        W 8845   4.087   5.161   3.775  0.4095 -0.2158  0.0571
 4795W        W 8846   5.292   6.594   2.692  0.2155 -0.1118 -0.3648
 4796W        W 8847   0.497   9.423   0.063  0.0518 -0.0903 -0.1332
 4797W        W 8848   9.811   6.297  12.088  0.0667 -0.0315  0.1492
 4798W        W 8849   8.862   4.384   4.465 -0.0140 -0.1229  0.1753
 4799W        W 8850   5.811   5.355   4.647 -0.3440 -0.1514 -0.0568
 4800W        W 8851   9.581   9.461  11.700 -0.0131  0.0190  0.0087
 4801W        W 8852   8.073   8.870  12.828 -0.3758 -0.0062 -0.1738
 4802W        W 8853   2.892   8.959  13.833 -0.1421 -0.2243 -0.1773
 4803W        W 8854   1.402   9.395  11.391 -0.3516 -0.0150 -0.0172
 4804W        W 8855   6.348   0.326  10.033  0.0424 -0.0288 -0.2443
 4805W        W 8856   9.348   5.387  12.252 -0.0979  0.0629 -0.0444
 4806W        W 8857   6.322   9.122   0.829  0.2390  0.3888 -0.2093
 4807W        W 8858   9.709   7.530   4.344 -0.1831 -0.1139  0.1973
 4808W        W 8859   0.316   9.770  12.747 -0.1519 -0.1407  0.1704
 4809W        W 8860   0.166   0.399   3.302 -0.0335  0.1342 -0.1692
 4810W        W 8861   7.502   4.371  13.210  0.1406  0.0212 -0.0034
 4811W        W 8862   8.787   0.817   2.425  0.1349 -0.0463  0.1009
 4812W        W 8863   1.404   8.370  12.176  0.1276  0.3208 -0.0593
 4813W        W 8864   9.818   3.792   3.277  0.1104 -0.0457  0.1006
 4814W        W 8865   5.110   0.148  10.603  0.0049 -0.2876 -0.0981
 4815W        W 8866   8.902  10.081   0.574  0.3887 -0.1067  0.2217
 4816W        W 8867   4.167   5.358  11.030  0.0801  0.2307 -0.3175
 4817W        W 8868   2.094   0.950   9.646  0.3687  0.1349 -0.0001
 4818W        W 8869   1.673   6.483   1.173  0.0115 -0.2100  0.0850
 4819W        W 8870   6.769   7.755  12.697 -0.0376  0.1947  0.0300
 4820W        W 8871   5.830   3.016  11.786 -0.2123 -0.0088 -0.1545
 4821W        W 8872   2.127  10.042   2.744  0.0113  0.0102 -0.0143
 4822W        W 8873   5.660   1.213   5.062 -0.2568  0.2257 -0.1821
 4823W        W 8874   8.129   1.883   0.347 -0.0906  0.0579  0.1457
 4824W        W 8875   3.737   9.265  11.082  0.1875 -0.1231  0.0336
 4825W        W 8876   1.088   5.982  11.411  0.1441 -0.2382  0.1056
 4826W        W 8877   2.859   9.233  10.923 -0.0585  0.2077 -0.1870
 4827W        W 8878   0.413  10.114  12.011  0.3028 -0.2742  0.2512
 4828W        W 8879   2.208   2.362  11.164  0.2341  0.2048 -0.1886
 4829W        W 8880   5.794   7.680  13.019 -0.4152 -0.5872 -0.3392
 4830W        W 8881   9.538   0.865   9.193 -0.1948 -0.0646  0.1267
 4831W        W 8882   8.463   4.254  12.938  0.0432  0.0636  0.1290
 4832W        W 8883   3.751   8.238   2.377  0.3093  0.0074  0.1720
 4833W        W 8884   0.534   5.827  13.189 -0.3327 -0.3894 -0.0412
 4834W        W 8885   9.822   3.313   4.839  0.5208  0.1077 -0.1143
 4835W        W 8886   3.640   4.847  11.931 -0.0598  0.0948  0.2205
 4836W        W 8887   2.540   9.108   2.755  0.0709  0.3878 -0.2995
 4837W        W 8888   4.350   2.671  11.422  0.2084  0.0005  0.0323
 4838W        W 8889   5.139   1.514   2.273  0.0891 -0.1693  0.1299
 4839W        W 8890   4.148   1.236   1.988 -0.1207 -0.4951 -0.1888
 4840W        W 8891   1.355   3.365  13.735 -0.1451 -0.0197  0.0130
 4841W        W 8892   1.684   9.322   2.843 -0.4612 -0.1491  0.1406
 4842W        W 8893   9.597   1.420   2.451 -0.0781 -0.0074  0.0845
 4843W        W 8894   7.503   6.023  10.066 -0.0752 -0.0308  0.0283
 4844W        W 8895  10.144   2.323   9.933 -0.1945  0.0594 -0.0005
 4845W        W 8896   5.802   6.757  13.231  0.1384  0.0518  0.1204
 4846W        W 8897   2.871   6.716   2.961 -0.1682 -0.1817  0.0432
 4847W        W 8898   1.915   3.844   3.625  0.1954  0.1477 -0.0161
 4848W        W 8899   7.604   4.286   0.236 -0.0414 -0.1089  0.0887
 4849W        W 8900   1.286   0.821  13.206  0.0131 -0.1878  0.0191
 4850W        W 8901   5.541   0.436  10.402  0.1200 -0.0425 -0.4447
 4851W        W 8902   6.490   1.903   2.927  0.0762 -0.3697 -0.3063
 4852W        W 8903   7.930   6.080  11.650 -0.2633  0.1130  0.0942
 4853W        W 8904   5.731   8.894   1.441 -0.0417  0.0807  0.0609
 4854W        W 8905   9.506   7.131   2.777 -0.0013 -0.0115 -0.0112
 4855W        W 8906   7.406   6.423   4.973 -0.0502 -0.0724  0.0691
 4856W        W 8907   7.530   4.940  12.407  0.0253 -0.1181 -0.0357
 4857W        W 8908   8.269   3.805   1.405  0.1731  0.0069 -0.0998
 4858W        W 8909   4.848   2.624   4.286 -0.0080  0.0151 -0.2316
 4859W        W 8910   3.132   6.625   3.393 -0.0565  0.0033 -0.0413
 4860W        W 8911   1.120   8.173   0.543  0.0385 -0.0660  0.0032
 4861W        W 8912   7.177   9.053   9.991  0.2925  0.0166  0.1328
 4862W        W 8913   3.527   6.055  12.324  0.2550  0.1264  0.1419
 4863W        W 8914   9.821   7.979   3.457  0.1454  0.0960 -0.0023
 4864W        W 8915   2.804  10.081  13.529  0.2358 -0.0857 -0.1126
 4865W        W 8916   5.521  10.020   0.741 -0.3363  0.2716 -0.0291
 4866W        W 8917   1.466   1.650  10.764  0.4441 -0.1375 -0.0128
 4867W        W 8918   8.765   2.389  12.237 -0.0444 -0.1357 -0.2577
 4868W        W 8919   1.097   6.324   0.268  0.3489  0.0858 -0.3982
 4869W        W 8920   1.002   9.968  12.270 -0.1192 -0.2812  0.1695
 4870W        W 8921   8.919   9.256  13.055 -0.0907 -0.0134 -0.5100
 4871W        W 8922   0.462   2.225   1.060 -0.0688  0.3073  0.1485
 4872W        W 8923   5.853   9.487   2.384  0.1320 -0.0661  0.0396
 4873W        W 8924   8.270   3.900  10.331 -0.0427  0.1400  0.2650
 4874W        W 8925   6.487   8.538  10.495  0.2470 -0.1814  0.0410
 4875W        W 8926   3.130   4.247   2.019  0.0817 -0.0904  0.1798
 4876W        W 8927  10.169   7.679   4.199  0.0848  0.3211  0.1443
 4877W        W 8928   0.046   8.763   2.894  0.0136 -0.0855  0.0507
 4878W        W 8929   0.107   4.635   4.715 -0.0336  0.0102 -0.0655
 4879W        W 8930   6.187   0.321   0.810  0.0758 -0.1415  0.2130
 4880W        W 8931   8.632   8.219  10.278 -0.1397 -0.1101 -0.1851
 4881W        W 8932   2.135   4.492  12.546  0.0085 -0.2080 -0.4372
 4882W        W 8933   9.984   1.210  11.205  0.0098 -0.0701  0.0803
 4883W        W 8934   3.454   0.480  13.627 -0.0642 -0.0441 -0.0228
 4884W        W 8935   8.736   3.124  12.120 -0.0115  0.4675  0.0274
 4885W        W 8936   0.964   3.296  11.197  0.0049 -0.2313 -0.1690
 4886W        W 8937   4.900   7.044   1.654 -0.0283 -0.0953 -0.2026
 4887W        W 8938   0.061   3.804  11.136  0.0787  0.0993  0.0553
 4888W        W 8939  10.072   6.479   1.862  0.0887  0.1893  0.0475
 4889W        W 8940   4.417   4.868   4.158 -0.0999  0.0107 -0.3770
 4890W        W 8941   1.921   8.442   2.622  0.0166  0.0713  0.2874
 4891W        W 8942   8.048   7.109   3.622  0.0318 -0.0876  0.2487
 4892W        W 8943   6.531   1.338  12.660  0.0423 -0.0403 -0.1196
 4893W        W 8944   7.513   1.088  10.971 -0.2890 -0.0047 -0.1970
 4894W        W 8945   5.967   8.582   2.935  0.4254  0.1076  0.1270
 4895W        W 8946   1.968   8.760   2.210 -0.3312 -0.0975  0.2833
 4896W        W 8947   0.836   9.117  10.642  0.1076  0.0047  0.0247
 4897W        W 8948   1.035   5.810  10.361  0.2438  0.0585 -0.3862
 4898W        W 8949   8.886   7.505  13.344  0.1002  0.1115  0.2800
 4899W        W 8950   6.731   9.423  13.337  0.1831 -0.0218  0.1636
 4900W        W 8951   9.226   4.759   1.131  0.1341  0.1486  0.0790
 4901W        W 8952   5.597   2.383  10.849 -0.0170  0.1276  0.0317
 4902W        W 8953   1.465   8.122   1.918 -0.0978  0.3367  0.1834
 4903W        W 8954   3.215   3.213   1.245 -0.2375 -0.3402  0.6050
 4904W        W 8955   7.498   3.816   3.967  0.1012  0.1047 -0.4014
 4905W        W 8956   2.767   3.968  13.907  0.1256  0.2465 -0.1108
 4906W        W 8957   2.766   2.833   0.647 -0.1236  0.0789 -0.2554
 4907W        W 8958   8.448   4.944   4.985 -0.2531  0.2742  0.0151
 4908W        W 8959   3.434   1.085   3.454  0.2495 -0.0972  0.1767
 4909W        W 8960   1.348   4.653   3.169  0.2050 -0.0700  0.1038
 4910W        W 8961   9.211   5.249   2.301  0.0767  0.1868 -0.4794
 4911W        W 8962   5.359   0.564  12.620  0.1476 -0.1733  0.0822
 4912W        W 8963   7.272   6.600   3.844  0.2863  0.2270  0.0313
 4913W        W 8964   0.406   8.658   3.198  0.0992  0.1196  0.3006
 4914W        W 8965   0.992   4.513  12.453  0.1033 -0.0907  0.2820
 4915W        W 8966   1.468   9.361  11.912 -0.2984  0.2066  0.2423
 4916W        W 8967   8.992   2.398   1.251 -0.0231 -0.2702  0.0432
 4917W        W 8968   6.876  10.023   9.840  0.1952 -0.0093 -0.1638
 4918W        W 8969   0.147   8.439  11.676 -0.4040 -0.2623  0.3154
 4919W        W 8970   3.222   3.306  13.263 -0.1068 -0.1333  0.0027
 4920W        W 8971   5.558   9.560   1.933  0.2447 -0.1832 -0.1640
 4921W        W 8972   8.574   2.676  10.845 -0.1025 -0.2796  0.0658
 4922W        W 8973   6.560   6.772   0.415  0.2253 -0.2568  0.3051
 4923W        W 8974   5.465  10.093   3.732 -0.1428  0.1046 -0.3439
 4924W        W 8975   6.920   3.294   0.672  0.1060  0.1277  0.1052
 4925W        W 8976   7.451   0.247   3.003  0.1330  0.1435  0.3586
 4926W        W 8977   2.247   3.191   2.187 -0.3272  0.0385 -0.0979
 4927W        W 8978   5.492   7.866  10.077 -0.0131  0.1415  0.2408
 4928W        W 8979   9.423   8.773   3.345  0.1921 -0.0675 -0.0759
 4929W        W 8980   8.643   2.317   1.733 -0.1099  0.0188  0.1159
 4930W        W 8981   5.142   1.324   0.527  0.4032  0.2221 -0.2064
 4931W        W 8982   7.402   5.810  12.814  0.0167 -0.1080  0.1020
 4932W        W 8983   1.334   6.746   3.544 -0.1970 -0.2560 -0.0174
 4933W        W 8984   8.759   5.978  11.085 -0.1569  0.1909 -0.0643
 4934W        W 8985   9.004   9.266   9.408  0.0396  0.1042  0.2477
 4935W        W 8986   8.763   3.492   0.276  0.1017  0.0538 -0.0847
 4936W        W 8987   3.569   6.036  13.738  0.1622  0.1103 -0.1137
 4937W        W 8988   9.365   2.124   9.740  0.0974 -0.0304 -0.2311
 4938W        W 8989   7.955   0.137  11.315  0.2032 -0.2578  0.0304
 4939W        W 8990   8.396   5.570   0.786 -0.1790 -0.0658 -0.0417
 4940W        W 8991   5.511   7.049   0.848 -0.1194  0.1118 -0.2858
 4941W        W 8992   6.518   3.318  13.797  0.1822  0.2768  0.3269
 4942W        W 8993   1.075   9.471   0.016  0.4212  0.1895 -0.0005
 4943W        W 8994   4.128   8.530   1.467 -0.2095  0.1375 -0.0011
 4944W        W 8995   6.639   0.810   2.830 -0.1531  0.0663 -0.3711
 4945W        W 8996   7.199   4.785   3.510  0.0080  0.3414 -0.0287
 4946W        W 8997   0.952   6.222   4.852  0.0817 -0.0260 -0.2935
 4947W        W 8998   2.915   3.694   3.578 -0.0544  0.0648  0.1350
 4948W        W 8999   0.986   6.891   9.707  0.0992  0.1113 -0.1656
 4949W        W 9000   5.240   7.322   1.439 -0.0783 -0.1840  0.1989
 4950W        W 9001   2.562   1.244   3.935 -0.1311  0.2071 -0.0638
 4951W        W 9002   9.566   9.769   4.737  0.1343 -0.3087  0.2349
 4952W        W 9003   0.708   0.117   0.446  0.0321 -0.1179  0.0531
 4953W        W 9004   1.154   7.537   9.939 -0.2367 -0.2542  0.0972
 4954W        W 9005   2.976   7.519  12.247  0.1749 -0.2633  0.1041
 4955W        W 9006   8.731   1.644   4.380  0.1126  0.2883 -0.0529
 4956W        W 9007   6.466   9.380   2.289  0.1641  0.1552  0.2393
 4957W        W 9008   5.803   6.165   2.770  0.1360 -0.1598  0.0274
 4958W        W 9009   5.903   7.132   0.587 -0.0544  0.1556 -0.2276
 4959W        W 9010   8.578   2.928   3.731  0.1804  0.2423  0.3218
 4960W        W 9011   6.374   6.605  12.627  0.0972  0.1089  0.2669
 4961W        W 9012   5.869   3.641  12.960  0.1133  0.0745 -0.0260
 4962W        W 9013   5.521   4.291  10.566 -0.0500 -0.2115  0.0317
 4963W        W 9014   7.951   2.829  12.444  0.0448  0.3053  0.2369
 4964W        W 9015   6.551   7.582   2.525  0.0028 -0.0340  0.0132
 4965W        W 9016   8.762   4.124   2.593 -0.0145  0.1647  0.1107
 4966W        W 9017   2.098   5.473   9.400  0.0644 -0.3051 -0.2521
 4967W        W 9018   1.218   5.179   9.400 -0.0785 -0.0400  0.0815
 4968W        W 9019   7.461   2.838   1.216  0.2473 -0.1083 -0.0813
 4969W        W 9020   2.584   5.512   1.343 -0.0672 -0.2621 -0.5344
 4970W        W 9021   1.355   7.845  10.324  0.0509 -0.3135 -0.1080
 4971W        W 9022   4.055  10.090   1.142  0.2551 -0.0013  0.0507
 4972W        W 9023   6.611   8.507   0.088 -0.0350  0.0050 -0.0330
 4973W        W 9024   8.402   2.945   9.596 -0.0182 -0.1634  0.0389
 4974W        W 9025   6.474   4.285  13.453 -0.0219  0.0925 -0.1030
 4975W        W 9026   6.067   8.436   0.183 -0.2264 -0.0421  0.0854
 4976W        W 9027   6.162   5.898   3.851  0.1223  0.0854 -0.1995
 4977W        W 9028   0.591   6.140  11.213 -0.0587 -0.0887  0.1954
 4978W        W 9029   7.456   0.060  11.993  0.2602  0.0853  0.3287
 4979W        W 9030   8.972   8.697   1.305 -0.1259 -0.3149  0.0287
 4980W        W 9031   6.964   3.556   2.651 -0.1771 -0.0700  0.1781
 4981W        W 9032   7.430   0.546   0.580  0.3414  0.0603 -0.0998
 4982W        W 9033   3.038   7.646   9.500  0.0902  0.2832 -0.5462
 4983W        W 9034   8.249   5.087   0.962  0.1110  0.0571 -0.1767
 4984W        W 9035   0.471   5.969   4.917 -0.0179 -0.0804  0.0213
 4985W        W 9036   0.795   0.174  11.038 -0.0030 -0.0111  0.1099
 4986W        W 9037   0.082   7.040  11.230  0.1681 -0.1503  0.1038
 4987W        W 9038   5.376   5.943   4.398  0.1733  0.0384  0.1798
 4988W        W 9039   8.804   9.739   4.351  0.2285 -0.0797 -0.1723
 4989W        W 9040   5.131   8.737   2.852 -0.0655 -0.1156 -0.2640
 4990W        W 9041   4.882   2.271   2.029  0.0090  0.3857 -0.0153
 4991W        W 9042   9.889   6.206   0.057 -0.0846 -0.0764 -0.2347
 4992W        W 9043   2.697   6.378   3.275 -0.0067 -0.0254  0.2543
 4993W        W 9044   1.221   9.734  11.799 -0.0325 -0.1031  0.1459
 4994W        W 9045   1.434   6.868   3.988 -0.2425  0.0363  0.3302
 4995W        W 9046   1.494   2.931   8.818 -0.0170 -0.0509  0.0105
 4996W        W 9047   4.095   5.401   4.355  0.0466  0.3347  0.0044
 4997W        W 9048   8.603   2.360   2.637  0.0229  0.0167 -0.3217
 4998W        W 9049   1.130   5.492   9.761  0.0607 -0.0045 -0.0307
 4999W        W 9050   1.844   3.017  11.242 -0.1030  0.1102 -0.1376
 5000W        W 9051   3.974   6.135   1.084  0.1518 -0.1228 -0.0610
 5001W        W 9052   9.961   2.421  10.817  0.1522  0.2606  0.2728
 5002W        W 9053   5.008   0.564   3.496 -0.1723  0.0198 -0.0615
 5003W        W 9054   1.581   9.883   4.301  0.1045  0.1916  0.2210
 5004W        W 9055   6.962   7.714   2.890 -0.1784 -0.3145 -0.1141
 5005W        W 9056   4.753   5.523  11.260  0.0651 -0.1125 -0.0484
 5006W        W 9057   0.679   5.763   2.508  0.0393  0.2487  0.0652
 5007W        W 9058   0.184  10.101   2.819  0.2167  0.3413  0.0614
 5008W        W 9059   1.787   6.133  11.703  0.3765 -0.0706 -0.1196
 5009W        W 9060   2.363   2.756  13.673 -0.0946  0.0069 -0.0839
 5010W        W 9061   7.643   1.874   0.342 -0.1679 -0.2183  0.1608
 5011W        W 9062   0.566   1.018  11.657 -0.3192  0.4636 -0.1611
 5012W        W 9063   6.032   8.671  11.874 -0.0834  0.0784 -0.1213
 5013W        W 9064   7.527   4.738   2.369  0.1804  0.0070 -0.1328
 5014W        W 9065   7.289   1.961   3.944 -0.2497 -0.2690 -0.0969
 5015W        W 9066   6.087   3.712  13.896  0.1857  0.0589 -0.3578
 5016W        W 9067   8.961   7.186  10.533 -0.5042 -0.2008  0.0768
 5017W        W 9068   4.022   9.049   0.711 -0.1365  0.3684  0.2887
 5018W        W 9069   3.015   0.255  13.885  0.0174  0.3416 -0.1985
 5019W        W 9070   3.416   5.282   2.991  0.3772  0.2048 -0.2599
 5020W        W 9071   0.975   3.100   2.634  0.0543  0.3199 -0.1906
 5021W        W 9072   6.870   4.130   9.582  0.1723 -0.2204 -0.1824
 5022W        W 9073   6.928   4.137  10.718  0.1910  0.2549 -0.2526
 5023W        W 9074   0.202   9.114  10.289  0.0258 -0.2209 -0.0752
 5024W        W 9075   1.262   6.165   9.172 -0.1954 -0.2192  0.3837
 5025W        W 9076   2.259   5.840  11.979  0.1824  0.0277 -0.0625
 5026W        W 9077   7.273   7.445   3.722  0.1510 -0.2764  0.0425
 5027W        W 9078   9.469   2.442   3.634 -0.0862 -0.1041  0.0460
 5028W        W 9079   2.173   6.729  11.963  0.0487 -0.0197  0.2723
 5029W        W 9080   0.283   5.304   9.241 -0.3272 -0.1409 -0.0924
 5030W        W 9081   9.536   0.056  13.304 -0.1472  0.1721  0.2542
 5031W        W 9082   7.426   7.314   1.375 -0.1335 -0.2064  0.1679
 5032W        W 9083   9.959   1.288  10.531  0.0812 -0.2701 -0.3066
 5033W        W 9084   8.274   7.514   3.458 -0.1867 -0.2762 -0.1862
 5034W        W 9085   1.651   7.972   2.349 -0.1189  0.1205  0.1333
 5035W        W 9086   6.006   6.618  10.154  0.1290  0.0194 -0.0396
 5036W        W 9087   2.211   2.527   2.773  0.1737 -0.2259 -0.1574
 5037W        W 9088   6.483   5.981   1.984 -0.2451  0.0832 -0.2067
 5038W        W 9089   4.126   7.133  10.935 -0.0737 -0.2635  0.0840
 5039W        W 9090   2.796   6.599  12.539  0.2397  0.2324  0.2732
 5040W        W 9091   6.774   3.249  10.448  0.0045 -0.1403  0.2018
 5041W        W 9092   9.170   7.006  12.305  0.1478 -0.0558  0.1377
 5042W        W 9093   4.953   7.220  12.076  0.1413 -0.0688 -0.2320
 5043W        W 9094   9.200   8.844   4.148  0.0301  0.1461 -0.2658
 5044W        W 9095   6.248   9.152  10.004  0.1405  0.3706  0.2244
 5045W        W 9096   8.600   7.978   2.105  0.1519 -0.0571 -0.0164
 5046W        W 9097   9.285   8.170   0.267 -0.0209  0.3120 -0.0413
 5047W        W 9098   4.959  10.108  11.527 -0.1386 -0.1254 -0.0912
 5048W        W 9099   2.081   1.893  10.010  0.2102  0.3186 -0.1231
 5049W        W 9100   3.866   6.237  12.697  0.1685 -0.3137 -0.4026
 5050W        W 9101   3.373   6.927   9.946  0.0448  0.2137 -0.0667
 5051W        W 9102   0.504   1.770  11.063 -0.0496 -0.0789 -0.1685
 5052W        W 9103   7.682   2.171  11.720 -0.1876  0.2519  0.2263
 5053W        W 9104   5.655   2.185  11.855 -0.0188  0.1806  0.0813
 5054W        W 9105   8.768   7.269   4.486  0.0931 -0.1487 -0.1726
 5055W        W 9106   2.922   3.927   1.664 -0.4725  0.1036  0.3322
 5056W        W 9107   1.193   7.634  13.383  0.0094 -0.0077 -0.1205
 5057W        W 9108   2.857   1.960   0.704  0.1649  0.2546 -0.1424
 5058W        W 9109   3.288   8.042  13.380 -0.0068 -0.2029  0.1145
 5059W        W 9110   4.733   3.643  12.929 -0.1752  0.3499  0.0953
 5060W        W 9111   9.117   4.349   3.547  0.4031  0.0265  0.1523
 5061W        W 9112   3.608   0.308   0.332  0.0325  0.0817  0.2043
 5062W        W 9113   5.742   9.984   9.679 -0.1416 -0.2462  0.1845
 5063W        W 9114   3.027   1.289   1.137  0.2923 -0.0475  0.1485
 5064W        W 9115   1.673   0.969  12.686 -0.2496 -0.0885  0.0978
 5065W        W 9116   1.466   0.411   1.892 -0.1287 -0.1266 -0.0801
 5066W        W 9117   8.249   6.175   1.931 -0.0187  0.2403 -0.1104
 5067W        W 9118   0.440   4.155   9.764 -0.0164  0.0248  0.1352
 5068W        W 9119   1.437   8.135   1.003  0.0711 -0.1809 -0.3310
 5069W        W 9120   7.960   0.092   2.025  0.1565 -0.1849  0.0986
 5070W        W 9121   3.049   2.382  12.657 -0.0499 -0.2509  0.2614
 5071W        W 9122   3.620   7.837  10.485 -0.0602  0.2379  0.1033
 5072W        W 9123   9.457   4.874  11.743  0.0370  0.0286  0.1806
 5073W        W 9124   6.133   2.489  11.068 -0.1182  0.0443  0.2065
 5074W        W 9125   0.982   6.018   9.947  0.1141 -0.1650 -0.0954
 5075W        W 9126   1.828   7.102  10.151  0.2538 -0.1366 -0.1053
 5076W        W 9127   1.205  10.035   2.627  0.1664  0.0680  0.0620
 5077W        W 9128   0.287   3.146   4.894  0.1166  0.1146  0.0309
 5078W        W 9129   7.891   8.073   1.938 -0.1885  0.0292  0.0524
 5079W        W 9130   4.170   5.994  10.533  0.2660  0.0556 -0.1874
 5080W        W 9131   9.879   8.490   2.326 -0.3246 -0.2508  0.1620
 5081W        W 9132   0.784   9.682   9.078  0.1170  0.0326  0.0105
 5082W        W 9133   8.451   5.317   4.610  0.2518 -0.3341 -0.2492
 5083W        W 9134   5.323   5.488   3.810  0.0732  0.0367  0.0545
 5084W        W 9135   7.652   6.856   4.694 -0.3614 -0.0464 -0.4525
 5085W        W 9136  10.196   3.161   3.963  0.2343 -0.0481  0.0488
 5086W        W 9137   7.437   7.426  10.471 -0.2237 -0.1390 -0.0603
 5087W        W 9138   5.236   0.187   2.297 -0.0119  0.3227  0.0272
 5088W        W 9139   1.940   8.136  11.020  0.2145  0.2456 -0.0874
 5089W        W 9140   6.974   0.385   4.423 -0.0097  0.0716 -0.1928
 5090W        W 9141   7.768   6.639  11.337 -0.0364 -0.1131  0.1219
 5091W        W 9142   6.034   1.441  12.569 -0.0582  0.4015  0.1003
 5092W        W 9143   4.695   0.820  11.474  0.0307  0.2643 -0.1642
 5093W        W 9144   5.294   6.122   1.036  0.1410 -0.3147  0.0385
 5094W        W 9145   4.564   8.860   2.331  0.0847  0.1730  0.0311
 5095W        W 9146   5.831   6.499  11.601 -0.2508 -0.2182 -0.2353
 5096W        W 9147   9.878   5.020  10.752  0.1136 -0.3029 -0.2156
 5097W        W 9148   6.914   6.991  10.995  0.1955 -0.3162  0.0083
 5098W        W 9149   1.935   8.546  11.880  0.0605 -0.1284 -0.0551
 5099W        W 9150   6.057   9.132   3.220  0.0845  0.1020  0.3376
 5100W        W 9151   3.421   2.538  13.586 -0.1394 -0.0500  0.0240
 5101W        W 9152   7.302   4.311   4.000 -0.5445  0.0409  0.3247
 5102W        W 9153   7.360   3.669   3.543 -0.0701 -0.1199 -0.2250
 5103W        W 9154   8.124   7.264   4.599  0.0111  0.0854  0.1259
 5104W        W 9155   8.660   8.852   9.638 -0.0357 -0.0811  0.3189
 5105W        W 9156   7.058   5.309   1.873  0.2732 -0.4166 -0.1941
 5106W        W 9157   0.573   8.502   2.738  0.2617 -0.2210  0.2932
 5107W        W 9158   0.141   5.419  10.159  0.0948  0.1083 -0.2219
 5108W        W 9159   3.036   5.224   0.643  0.4094 -0.0528 -0.1414
 5109W        W 9160   4.819   8.119  13.256 -0.0946  0.1923  0.1127
 5110W        W 9161   2.598   0.763   0.126  0.2215  0.0929 -0.1519
 5111W        W 9162   8.576   4.446   3.427 -0.0141 -0.0339  0.1061
 5112W        W 9163   1.648   9.057   2.426  0.0549  0.0914  0.1750
 5113W        W 9164   9.160   7.697  11.052 -0.0121 -0.3045 -0.0935
 5114W        W 9165   5.946   3.200   9.914  0.2399  0.2216 -0.1178
 5115W        W 9166   3.138   7.441   2.368  0.1188  0.0342  0.5044
 5116W        W 9167   2.696   4.933   3.971 -0.1536 -0.4590 -0.3518
 5117W        W 9168   9.474   7.230   0.479  0.3223  0.2345  0.0126
 5118W        W 9169   9.027   3.340   4.636 -0.1524 -0.1071  0.1868
 5119W        W 9170   2.327   8.177   2.905 -0.1908 -0.2041  0.1356
 5120W        W 9171   5.640   1.719  10.052  0.0137  0.0478 -0.3786
 5121W        W 9172   2.340   0.250  13.289  0.1986  0.2205  0.1322
 5122W        W 9173   3.505   0.326  10.218  0.2260 -0.2879 -0.2400
 5123W        W 9174   3.070   4.838  11.853  0.2999  0.2809 -0.0671
 5124W        W 9175   2.135   2.190   9.612 -0.0486 -0.5670  0.2446
 5125W        W 9176   2.220   0.188   1.610  0.2055 -0.1126  0.1483
 5126W        W 9177   2.486   3.581   1.100 -0.1212 -0.1022  0.1726
 5127W        W 9178   8.191  10.066   2.644  0.4529  0.0043  0.2357
 5128W        W 9179   6.874   4.783   3.089 -0.0023 -0.2402  0.2358
 5129W        W 9180   1.244   8.455   1.659 -0.2617 -0.3238 -0.2653
 5130W        W 9181   5.372   0.911   3.423 -0.1713  0.0598  0.1140
 5131W        W 9182   6.815   3.500   0.174 -0.0598 -0.2193 -0.1113
 5132W        W 9183   6.603   0.082   0.409 -0.1989 -0.3278 -0.2660
 5133W        W 9184   0.593   5.621   4.589 -0.3861 -0.2216 -0.1290
 5134W        W 9185   2.871   8.580   3.340  0.2976 -0.3441 -0.1257
 5135W        W 9186   5.454   7.851   1.307  0.2018  0.1726  0.0837
 5136W        W 9187   0.897   1.288   4.496 -0.2638 -0.1529 -0.1272
 5137W        W 9188   9.020   3.351   1.751  0.1166  0.0775 -0.3084
 5138W        W 9189   9.480   8.881   2.457 -0.2352  0.1427  0.1434
 5139W        W 9190   7.905   1.876   9.897 -0.0788  0.1747 -0.2527
 5140W        W 9191   1.820   1.535   4.163 -0.5142  0.3683 -0.1903
 5141W        W 9192   4.219   8.035  13.430  0.1001  0.2660  0.0136
 5142W        W 9193  10.136   6.289   4.815 -0.0159  0.1273  0.1482
 5143W        W 9194   9.464   9.784  13.402 -0.0076 -0.0026  0.1851
 5144W        W 9195   8.812   6.624  12.118  0.0037 -0.1336  0.0205
 5145W        W 9196   2.671   9.049  10.248  0.0300  0.3565  0.0631
 5146W        W 9197   1.664   4.194   1.279  0.0754 -0.0233 -0.2043
 5147W        W 9198   5.230   8.573   1.813  0.3250 -0.3607 -0.1266
 5148W        W 9199   5.028   5.940   1.517 -0.0224 -0.1687  0.2044
 5149W        W 9200   8.334   8.703   0.143 -0.0188 -0.1978 -0.2638
 5150W        W 9201   9.933   1.917   4.474  0.0388  0.2013  0.1026
 5151W        W 9202   1.064   5.103  12.177 -0.1552  0.0654 -0.0375
 5152W        W 9203   3.530   5.775  11.904 -0.1151 -0.0330 -0.2735
 5153W        W 9204   9.211   6.493   3.917 -0.0112  0.1274 -0.0238
 5154W        W 9205   2.585   2.838   4.015 -0.2721  0.1378 -0.0546
 5155W        W 9206   3.507   5.187  12.653  0.1654  0.2757 -0.2730
 5156W        W 9207   2.297   0.221  10.987 -0.3404  0.2510  0.1135
 5157W        W 9208   3.279   9.232   9.597  0.0669  0.1470 -0.1121
 5158W        W 9209   4.669   0.598   3.874  0.1410 -0.0678 -0.0552
 5159W        W 9210   3.517   4.651   1.377 -0.0340 -0.0233  0.1164
 5160W        W 9211   6.597   8.563   1.656  0.0723 -0.0384 -0.0787
 5161W        W 9212   9.288   0.435   2.359  0.0016  0.0053  0.0436
 5162W        W 9213   0.656   4.047   5.185 -0.1643 -0.1879 -0.1966
 5163W        W 9214   2.198   3.436   1.488 -0.2552 -0.2730  0.1151
 5164W        W 9215   7.476   2.715  12.359  0.1283 -0.1226  0.1357
 5165W        W 9216   1.194   2.209  13.757 -0.1535  0.1973  0.0048
 5166W        W 9217   0.807   7.699   4.326 -0.0631 -0.5339  0.0866
 5167W        W 9218   0.052   8.720  13.320  0.1996  0.1089  0.6872
 5168W        W 9219   1.409   5.950   9.643  0.1337 -0.0877 -0.2278
 5169W        W 9220   2.643   1.429   3.458  0.0568 -0.0027 -0.1443
 5170W        W 9221   4.648   9.167   0.157  0.2208 -0.2695 -0.2570
 5171W        W 9222   0.147   2.662   1.882 -0.3520 -0.2295  0.0150
 5172W        W 9223   2.727   3.097  13.778  0.0319 -0.2255 -0.0894
 5173W        W 9224   1.869   5.552  11.853 -0.5111 -0.3039  0.3529
 5174W        W 9225   8.274   3.896   3.470  0.5526 -0.2095 -0.1125
 5175W        W 9226   5.739   8.002  12.320 -0.2189 -0.1669 -0.1257
 5176W        W 9227   0.326   8.989   3.597  0.2073  0.2467  0.2421
 5177W        W 9228   2.332   8.734  12.556  0.0500 -0.3275 -0.0431
 5178W        W 9229   5.800   1.220   3.441 -0.4422  0.1574  0.2509
 5179W        W 9230   7.762   5.913  13.540 -0.1094  0.2594 -0.2116
 5180W        W 9231   1.117   7.566   3.492  0.2905  0.1165  0.2729
 5181W        W 9232   2.977   6.200  12.295  0.2082  0.1208  0.1587
 5182W        W 9233   0.260   2.366   8.671 -0.1754 -0.1848  0.0311
 5183W        W 9234   7.215   2.740  12.829 -0.2134 -0.1882 -0.3901
 5184W        W 9235   7.179   9.141  10.969 -0.0507  0.0055  0.0554
 5185W        W 9236   8.635   7.393   0.830 -0.1497  0.2160  0.1639
 5186W        W 9237   1.689   9.817   2.887  0.1129  0.1356 -0.1254
 5187W        W 9238   3.140   9.379   0.790 -0.0285  0.0216  0.0095
 5188W        W 9239   1.599   5.803   2.213  0.2381 -0.1533 -0.0417
 5189W        W 9240   6.505   1.657   1.211 -0.2454  0.3230  0.0300
 5190W        W 9241   8.895   5.207  13.385 -0.1332 -0.1489  0.2386
 5191W        W 9242   2.110   0.414   1.153  0.1128 -0.0195 -0.0048
 5192W        W 9243   5.018   9.253  13.683  0.1255 -0.2263  0.0325
 5193W        W 9244   9.159   7.106   0.838  0.1399 -0.1177  0.4526
 5194W        W 9245   7.617   5.085   9.695 -0.0625  0.0919  0.0532
 5195W        W 9246   3.375   3.012  12.401  0.1004 -0.0435 -0.1260
 5196W        W 9247   6.287   5.893   8.505  0.0061  0.0843 -0.2193
 5197W        W 9248   5.813   2.566  11.511  0.1679  0.1082  0.0501
 5198W        W 9249   1.418   5.761   3.735 -0.0165  0.1663 -0.3277
 5199W        W 9250   4.090   3.200   1.319 -0.0752 -0.0186  0.0134
 5200W        W 9251  10.070   6.022   1.003  0.1753 -0.0415 -0.1606
 5201W        W 9252  10.194   2.838   9.873  0.1296 -0.4130  0.5263
 5202W        W 9253   3.384   9.656  10.383  0.1474 -0.1280  0.1562
 5203W        W 9254   7.066   3.383   2.142 -0.0058  0.1719 -0.0267
 5204W        W 9255   1.431   6.761  12.964  0.2155  0.0831 -0.0346
 5205W        W 9256   1.753   9.412   1.561 -0.0353  0.2488 -0.0568
 5206W        W 9257   8.839   4.425   8.776  0.1399  0.2636  0.0357
 5207W        W 9258   1.888   3.747   3.075 -0.0232 -0.2518 -0.0191
 5208W        W 9259   7.895   7.263   5.038  0.0996 -0.1113  0.0623
 5209W        W 9260   2.957   2.640  13.283  0.0604  0.2585 -0.2020
 5210W        W 9261   0.303   3.980   2.258  0.3652 -0.3548 -0.0222
 5211W        W 9262   1.112   4.959   2.213 -0.0152  0.4149  0.0753
 5212W        W 9263   6.874   4.167   0.807 -0.0738 -0.0569  0.0050
 5213W        W 9264   8.836   6.138  12.027  0.0374 -0.0117  0.1100
 5214W        W 9265   0.511   7.860  10.872  0.2538  0.0199 -0.2866
 5215W        W 9266   1.730   0.776  13.567  0.5198 -0.2558  0.0950
 5216W        W 9267   3.953   3.001  11.524  0.0368 -0.2152 -0.1323
 5217W        W 9268   8.503   3.868  12.599  0.1050  0.1265  0.0750
 5218W        W 9269   2.352   6.197   1.853  0.0431 -0.1504  0.3299
 5219W        W 9270   4.235   6.407  12.101 -0.0068 -0.0254  0.0318
 5220W        W 9271   8.236   0.752   0.871 -0.2550  0.0607  0.0578
 5221W        W 9272   9.590   0.707   0.675 -0.0996 -0.1221  0.1138
 5222W        W 9273   0.614   2.962   9.313  0.1454  0.1708 -0.1666
 5223W        W 9274   5.857   6.663  12.642  0.0859 -0.3310 -0.1878
 5224W        W 9275   0.719   4.452  13.270  0.3367  0.0558 -0.0480
 5225W        W 9276   1.809   1.026  11.457 -0.1205 -0.0767 -0.2420
 5226W        W 9277   5.718   6.094   4.915 -0.3320 -0.1684  0.0506
 5227W        W 9278   2.976   3.290  12.764  0.1490  0.0332 -0.2628
 5228W        W 9279   7.916   8.211   2.908 -0.0043 -0.0173  0.4531
 5229W        W 9280   6.234   1.892   9.357 -0.2467  0.2180 -0.1881
 5230W        W 9281   9.235   1.912  13.364 -0.0611  0.0144  0.4001
 5231W        W 9282   3.808   8.732  13.484 -0.0418 -0.2339  0.1343
 5232W        W 9283   0.290   7.081   3.297  0.2113  0.1581  0.1838
 5233W        W 9284   2.198   2.210  13.672 -0.0600 -0.3698  0.0379
 5234W        W 9285   1.374   7.452  12.290 -0.0329 -0.1114 -0.3037
 5235W        W 9286   9.565   3.825   0.984 -0.3010  0.1751 -0.0076
 5236W        W 9287   6.701   4.584  12.970  0.0748  0.1017  0.0240
 5237W        W 9288   0.622   7.339   9.928 -0.2576 -0.0578 -0.1729
 5238W        W 9289   6.965   5.398  12.683  0.0550  0.0153  0.1710
 5239W        W 9290   3.841   4.330   4.387 -0.2262  0.1764 -0.2328
 5240W        W 9291   7.344   7.837   9.721 -0.1814 -0.3773  0.2313
 5241W        W 9292   2.921  10.192   1.091  0.0574 -0.3961 -0.2644
 5242W        W 9293   2.475   3.875  11.054  0.0420  0.0705  0.1146
 5243W        W 9294   4.390   4.914   9.832  0.3488  0.0401  0.0380
 5244W        W 9295   6.746   2.070   2.523 -0.2008  0.0691  0.2915
 5245W        W 9296   3.864   5.726  11.250 -0.0217 -0.0374 -0.0169
 5246W        W 9297   0.370   4.089  13.192 -0.0251 -0.0033 -0.0210
 5247W        W 9298   9.353   2.599   8.422 -0.1599  0.0708  0.0550
 5248W        W 9299   5.826   3.726   3.652 -0.3674  0.1197 -0.4263
 5249W        W 9300   9.361   2.082  12.089 -0.2212 -0.0383 -0.0711
 5250W        W 9301   3.928   3.128   0.595  0.2362  0.1406 -0.1824
 5251W        W 9302   8.870   1.533  11.008 -0.0189 -0.3130 -0.2577
 5252W        W 9303   6.134   1.456   0.310 -0.1631 -0.0563  0.0316
 5253W        W 9304   7.813   8.061  12.613  0.0569  0.5178  0.0275
 5254W        W 9305   3.255   3.291   1.774 -0.3109  0.1055  0.2962
 5255W        W 9306   3.770   3.436   3.858 -0.1002  0.0947 -0.0864
 5256W        W 9307   0.018   3.431   9.904  0.1514 -0.2232 -0.0740
 5257W        W 9308   0.542   5.227  12.502 -0.2390 -0.1352  0.0439
 5258W        W 9309   2.518   1.720  10.293  0.0692  0.3004 -0.1661
 5259W        W 9310   0.570   3.544   4.352 -0.5804 -0.0362 -0.2922
 5260W        W 9311   3.528   0.833  10.751 -0.0917 -0.2135  0.0711
 5261W        W 9312   9.346   0.673   3.217  0.0798 -0.0499  0.0740
 5262W        W 9313   3.300   4.370  11.482 -0.1737  0.2731 -0.1451
 5263W        W 9314   5.059   6.666   4.193 -0.0883  0.2631 -0.2374
 5264W        W 9315   8.024   8.196   4.814 -0.1046 -0.2286  0.1822
 5265W        W 9316   5.891   8.624   9.760  0.0914 -0.3112 -0.1303
 5266W        W 9317   6.253   1.536   3.321 -0.2076  0.1090 -0.0486
 5267W        W 9318   5.664   5.154   2.498 -0.3098  0.2045  0.3119
 5268W        W 9319   9.336   4.484   2.837 -0.2275  0.5450  0.0283
 5269W        W 9320   4.740   4.741   2.646  0.2533  0.4040 -0.0964
 5270W        W 9321   6.046   3.537  11.818 -0.1352 -0.3438 -0.2442
 5271W        W 9322   3.138   1.178   9.847 -0.1107 -0.3728  0.0715
 5272W        W 9323   1.895   3.248  13.003  0.0414  0.0128 -0.0257
 5273W        W 9324   7.247   2.587  11.921  0.0729 -0.1721 -0.2072
 5274W        W 9325   3.833   5.394   2.651 -0.1108 -0.2777  0.0755
 5275W        W 9326   4.396   3.312  12.652 -0.0313 -0.1799  0.1185
 5276W        W 9327   5.309   5.211   0.746 -0.0783 -0.0457 -0.0575
 5277W        W 9328   5.212   4.245  13.782 -0.0232 -0.1890  0.3241
 5278W        W 9329   0.184   4.584  12.999  0.1252 -0.0180 -0.0104
 5279W        W 9330   9.837   7.732   2.040  0.1374  0.0927 -0.2321
 5280W        W 9331   3.658   5.950   9.834  0.2048 -0.1373  0.0198
 5281W        W 9332   9.166   8.191   1.035 -0.1666 -0.3609 -0.2939
 5282W        W 9333   8.848   6.946   1.190  0.2875 -0.0174  0.2391
 5283W        W 9334   5.224   2.439  13.424  0.0214 -0.2489  0.0527
 5284W        W 9335   4.900   2.100   0.442  0.4247 -0.1490 -0.0069
 5285W        W 9336   6.448   8.167   1.390  0.1661 -0.1050 -0.0208
 5286W        W 9337   2.776   5.887   1.718 -0.0401  0.1435  0.0028
 5287W        W 9338   9.405   6.254   3.463  0.2295 -0.0685 -0.0642
 5288W        W 9339   4.609   3.952  10.895 -0.2018  0.0028  0.1132
 5289W        W 9340   8.931   5.463  10.812  0.0968 -0.3104  0.1268
 5290W        W 9341   7.644   0.240  10.133 -0.1531 -0.0365  0.0118
 5291W        W 9342   2.673   3.321   4.692  0.0640 -0.2299 -0.0198
 5292W        W 9343   3.174   8.610  11.555  0.0452  0.0135  0.0814
 5293W        W 9344   9.524   8.032   2.517 -0.0624 -0.0664  0.1650
 5294W        W 9345   7.737   4.472  12.243  0.1708 -0.0641  0.1954
 5295W        W 9346  10.066   0.176   3.694 -0.2074 -0.2369 -0.0116
 5296W        W 9347   7.212   0.820  13.299 -0.0516  0.2354 -0.0923
 5297W        W 9348   0.211   1.460  12.473 -0.3292  0.1827 -0.1583
 5298W        W 9349   3.381   5.567   9.950  0.1524  0.2823 -0.4917
 5299W        W 9350   9.955   6.146   9.646 -0.1003 -0.4078  0.1086
 5300W        W 9351   3.715   4.292  11.919  0.1584 -0.0941  0.0618
 5301W        W 9352   9.410   2.617  12.636  0.1841 -0.1760 -0.0504
 5302W        W 9353   9.957   1.079  13.188 -0.0014 -0.0108 -0.0029
 5303W        W 9354   5.933   7.770   4.013  0.1058 -0.0185 -0.0785
 5304W        W 9355   3.220   2.990  13.686 -0.0354  0.0369  0.4736
 5305W        W 9356   6.376   4.333   9.863 -0.1086 -0.6100 -0.0159
 5306W        W 9357   3.209   2.790   1.796  0.2065 -0.1952  0.2060
 5307W        W 9358   0.663   5.594   8.453  0.1097 -0.1939 -0.2785
 5308W        W 9359   6.141   7.395   9.986  0.0267 -0.1372 -0.1345
 5309W        W 9360   7.927   5.901   3.997  0.1714 -0.0960 -0.0513
 5310W        W 9361   1.821   1.933   0.718 -0.0268  0.1670 -0.0362
 5311W        W 9362   5.396   1.500   3.590 -0.2479 -0.0213 -0.5329
 5312W        W 9363   9.132   2.868  11.508 -0.1641  0.0433 -0.0770
 5313W        W 9364   5.427   7.000   9.103 -0.5047  0.0653  0.3218
 5314W        W 9365   4.736   8.324   3.057 -0.0568 -0.0026  0.1402
 5315W        W 9366   1.228   1.648   4.937  0.4510 -0.2685 -0.0460
 5316W        W 9367   1.412   4.742   9.439 -0.0423 -0.0600  0.1290
 5317W        W 9368   2.491   4.943  12.423  0.1213  0.0417 -0.2676
 5318W        W 9369   4.582   1.682  11.923  0.1949 -0.1009  0.1111
 5319W        W 9370   8.172   3.049   0.220  0.1411 -0.2336  0.4182
 5320W        W 9371   3.927   8.017  13.016 -0.1142 -0.0363 -0.2115
 5321W        W 9372   9.197   5.370   9.564  0.1503  0.1582 -0.2943
 5322W        W 9373   2.035   2.203  12.379 -0.0377  0.3173 -0.1074
 5323W        W 9374   1.897   8.416  12.368  0.1162  0.2269 -0.0187
 5324W        W 9375   0.034   4.415   9.435  0.1930  0.0600  0.0465
 5325W        W 9376   9.304   2.132   1.917  0.0847 -0.0744  0.2169
 5326W        W 9377  10.120   4.201   4.570  0.0386 -0.0385  0.0796
 5327W        W 9378   8.658  10.108   2.904  0.2803  0.4140  0.2512
 5328W        W 9379   7.650   3.509   1.624  0.1159  0.1210 -0.3058
 5329W        W 9380   3.458   6.965  11.301  0.0404 -0.2452  0.1359
 5330W        W 9381   5.505   3.628  11.121  0.1462  0.1860  0.0653
 5331W        W 9382   3.893   2.923   4.277 -0.1194  0.2117  0.3185
 5332W        W 9383   5.233   5.257  13.908  0.2289  0.4014 -0.3231
 5333W        W 9384   7.968   9.622   2.814 -0.0365 -0.2572 -0.0887
 5334W        W 9385   9.559   4.941  12.718 -0.2542 -0.0192 -0.0777
 5335W        W 9386   2.739   7.388  10.626 -0.0979 -0.1173  0.4142
 5336W        W 9387   6.781   4.897   3.867 -0.0699  0.1882  0.0166
 5337W        W 9388   0.313   5.095   4.429 -0.2618  0.1088 -0.1101
 5338W        W 9389   0.996   0.658   2.395  0.1076  0.0923  0.1220
 5339W        W 9390   9.112   4.767  13.450  0.4240  0.1653  0.1439
 5340W        W 9391   8.877   6.745  12.610 -0.0122  0.0987  0.0316
 5341W        W 9392   0.176   1.933  12.327 -0.1606 -0.0309 -0.2331
 5342W        W 9393   1.013   5.337  12.668  0.4587 -0.0231 -0.1588
 5343W        W 9394   5.468   4.030   2.728 -0.3545  0.1234  0.0260
 5344W        W 9395   1.366   0.132  11.700 -0.2223  0.0199 -0.2167
 5345W        W 9396   6.909   4.286   2.444  0.1110  0.1012 -0.2587
 5346W        W 9397   3.112   4.293   5.010 -0.0812 -0.0260  0.0198
 5347W        W 9398   8.399   9.606  12.986 -0.2064 -0.1533 -0.0705
 5348W        W 9399   0.418   6.321   9.291  0.0687  0.1236 -0.1169
 5349W        W 9400   7.276   1.114  13.683 -0.1473  0.0379 -0.0234
 5350W        W 9401   5.169   5.845  12.506 -0.1291 -0.0545 -0.2056
 5351W        W 9402   5.017   1.731   1.825  0.0542  0.2957  0.0200
 5352W        W 9403   0.830   9.236   9.679  0.4325 -0.2970  0.1054
 5353W        W 9404   7.924   1.421   0.315 -0.2568 -0.0925  0.2125
 5354W        W 9405   6.494   7.551  13.759  0.0843  0.0595  0.4470
 5355W        W 9406   9.596   4.046   4.698 -0.0310 -0.2403  0.3963
 5356W        W 9407   5.264   9.584   2.466  0.0271 -0.0602  0.0127
 5357W        W 9408   0.123   3.003   9.401 -0.1465  0.1997 -0.0293
 5358W        W 9409   2.895   4.766  13.212 -0.0457  0.0696  0.1040
 5359W        W 9410   5.693   7.061   0.052  0.1638  0.0256  0.0781
 5360W        W 9411   0.515   7.469   1.905 -0.0349  0.1067  0.1179
 5361W        W 9412   3.242  10.175  10.994  0.0018  0.1587  0.1930
 5362W        W 9413   2.876   3.748  12.649 -0.1879 -0.3327 -0.1393
 5363W        W 9414   2.531   4.198   4.438 -0.2073 -0.1580 -0.2060
 5364W        W 9415   3.267   9.828  13.910 -0.2752 -0.3404  0.2493
 5365W        W 9416   7.988   4.647   0.995  0.0260  0.3568 -0.3002
 5366W        W 9417   5.189   7.167   3.356  0.0217 -0.2715 -0.0472
 5367W        W 9418   9.801   5.865   4.324  0.0748  0.0109 -0.0182
 5368W        W 9419   0.809   5.732   3.779  0.1926  0.2606  0.2442
 5369W        W 9420   5.535   1.548  10.530  0.1641  0.1138 -0.0564
 5370W        W 9421   1.308   7.490   4.524 -0.0038 -0.1046  0.4438
 5371W        W 9422   3.777  10.170   3.495 -0.2494 -0.0264  0.2054
 5372W        W 9423   4.844   9.994   2.342  0.1386  0.1361  0.0238
 5373W        W 9424   9.622   5.717   9.523  0.0204  0.1487 -0.0754
 5374W        W 9425   8.229   7.970  12.003  0.0188 -0.2202 -0.1119
 5375W        W 9426   0.018   5.699   9.362  0.1139 -0.1703 -0.2620
 5376W        W 9427   1.652   9.496  10.899  0.0318 -0.0470 -0.5049
 5377W        W 9428   0.400   8.416  13.703  0.1387  0.0848 -0.2629
 5378W        W 9429   3.624   6.584   1.935 -0.1295  0.6458 -0.0426
 5379W        W 9430   7.188   0.842   1.493 -0.0799 -0.2852  0.1557
 5380W        W 9431   7.011   2.092   1.098 -0.0949  0.1561  0.2016
 5381W        W 9432   0.965   1.395   1.177  0.2289 -0.0446 -0.0783
 5382W        W 9433   2.054   3.694   8.811  0.1546  0.0036  0.0485
 5383W        W 9434   4.915   3.035  11.368  0.4901 -0.0956 -0.0864
 5384W        W 9435   5.676   1.990   1.577  0.2015  0.1496 -0.3525
 5385W        W 9436   4.031   3.836   9.975 -0.1702 -0.1351  0.0181
 5386W        W 9437   1.092   9.529  12.231 -0.3661  0.2486  0.0384
 5387W        W 9438   9.386   8.206   3.505 -0.1809 -0.0623 -0.1303
 5388W        W 9439   8.142   9.507   0.898 -0.2712 -0.1581 -0.0134
 5389W        W 9440   1.657   7.059   2.002 -0.0370  0.0844 -0.2846
 5390W        W 9441   8.415   1.132   1.296  0.1534  0.3238 -0.1805
 5391W        W 9442   5.380   5.026   5.177 -0.0678  0.2157 -0.1107
 5392W        W 9443   8.202   0.616  13.474  0.2071  0.0066  0.0599
 5393W        W 9444   4.936   5.415   0.348  0.3218 -0.0874  0.3267
 5394W        W 9445   4.470   6.893   2.496  0.1076 -0.2801  0.1724
 5395W        W 9446   3.398   0.409  13.133  0.4608 -0.1808 -0.4114
 5396W        W 9447   4.132   4.307   9.929 -0.0020 -0.2246 -0.1814
 5397W        W 9448   5.599   5.828  12.738 -0.0468  0.1225  0.0928
 5398W        W 9449   8.875   3.685  10.860 -0.0030 -0.0679  0.0426
 5399W        W 9450   5.502   2.694  11.989  0.0987 -0.3202  0.0300
 5400W        W 9451   2.799   2.909  10.009 -0.3145 -0.1444  0.1117
 5401W        W 9452   5.866   0.569  12.241 -0.1228 -0.2542  0.2686
 5402W        W 9453   4.341   7.976  13.911 -0.1119 -0.1568 -0.3798
 5403W        W 9454  10.054   4.936   8.571 -0.2649 -0.0168 -0.1211
 5404W        W 9455   9.656   2.092   1.580 -0.0266 -0.0225 -0.1029
 5405W        W 9456   1.138   8.358  10.440 -0.3120  0.3162  0.0225
 5406W        W 9457   4.492   6.780  10.830  0.3083 -0.1748  0.1147
 5407W        W 9458   6.686   7.384   3.668 -0.1286  0.0151  0.1541
 5408W        W 9459   9.748   8.905   0.113 -0.2229 -0.2491  0.3565
 5409W        W 9460   2.747   7.045   3.971 -0.1356 -0.0584 -0.1957
 5410W        W 9461   6.151   6.807   4.299  0.2957  0.0289 -0.0892
 5411W        W 9462   2.743   9.916   9.801 -0.0945  0.2366 -0.0474
 5412W        W 9463  10.183   8.416   9.599 -0.0619 -0.0747  0.2634
 5413W        W 9464   2.404   3.285   0.605  0.1072 -0.0368 -0.1316
 5414W        W 9465   8.776   3.448   0.759 -0.1369  0.2074  0.0467
 5415W        W 9466   4.050   6.844   0.344 -0.0440  0.2178  0.1759
 5416W        W 9467   2.501   5.409  13.903  0.2253 -0.3276 -0.2612
 5417W        W 9468   7.595   6.754  13.399  0.2888 -0.5788  0.0451
 5418W        W 9469   7.113   9.294  13.641  0.0192  0.1535  0.2501
 5419W        W 9470   8.771   6.458  11.657 -0.2613 -0.4006 -0.0693
 5420W        W 9471   6.292   7.875   2.861 -0.0506  0.2316  0.1239
 5421W        W 9472   3.725   7.032  12.146 -0.2025  0.1139 -0.2480
 5422W        W 9473   9.262   4.635  13.911  0.0109  0.0325  0.2429
 5423W        W 9474   0.213   7.477   3.700 -0.2518  0.0868 -0.1847
 5424W        W 9475   0.281   6.862   1.285 -0.0401 -0.1914  0.1281
 5425W        W 9476   1.634   2.717   1.050  0.1627  0.2804  0.0873
 5426W        W 9477   1.600   7.926   4.089 -0.0788  0.0471  0.2872
 5427W        W 9478   6.111   9.310   0.174  0.1232 -0.5515  0.1488
 5428W        W 9479   9.564   1.124   9.669  0.0718  0.1200 -0.0595
 5429W        W 9480   2.137   2.807  11.610 -0.1555  0.1788  0.1115
 5430W        W 9481   2.539   3.384  11.033 -0.2458 -0.1742 -0.0182
 5431W        W 9482   8.734   0.585  13.433 -0.0480  0.0091  0.0039
 5432W        W 9483   0.196  10.170   4.404  0.0151  0.0971 -0.1219
 5433W        W 9484   6.586   8.657  11.640 -0.2498  0.1085 -0.2456
 5434W        W 9485   9.741   1.113  11.833 -0.0480  0.1307 -0.1305
 5435W        W 9486   8.949   2.668  10.467 -0.1583  0.0672 -0.0641
 5436W        W 9487   4.686   0.769   2.664 -0.1200 -0.0617 -0.1028
 5437W        W 9488   5.682   4.820  12.919 -0.1373 -0.0073 -0.3227
 5438W        W 9489   2.095   7.487  13.477 -0.1221 -0.4198 -0.1098
 5439W        W 9490   1.952   1.144   0.506  0.0568 -0.0032 -0.1451
 5440W        W 9491   6.495   8.554   3.628  0.0156 -0.1905  0.1679
 5441W        W 9492   9.678   2.923   3.494 -0.2753  0.0657  0.4240
 5442W        W 9493   2.803   0.049   1.599  0.3293 -0.2075  0.2914
 5443W        W 9494   2.850   4.274  11.099 -0.0454 -0.1746  0.0549
 5444W        W 9495   4.376   6.887   2.996 -0.1484  0.0217 -0.0039
 5445W        W 9496   6.034   5.486  12.962  0.3123  0.2647 -0.2941
 5446W        W 9497   1.080   6.830  11.681 -0.0299 -0.1182  0.1107
 5447W        W 9498   8.468   2.425  13.184 -0.1422 -0.2588 -0.1718
 5448W        W 9499   4.523   3.771  12.475  0.0294 -0.0690  0.1387
 5449W        W 9500   7.348   9.470  10.411 -0.2939  0.0757  0.1421
 5450W        W 9501   8.590   0.542   5.806 -0.1509  0.0746 -0.0152
 5451W        W 9502   4.911   6.620  12.754  0.3115 -0.3011 -0.0968
 5452W        W 9503   2.528   0.230  11.455  0.2017 -0.2582 -0.0915
 5453W        W 9504   6.828   1.962  11.319 -0.0289  0.2367 -0.1420
 5454W        W 9505   5.834   2.922   0.259  0.2705  0.1167  0.3982
 5455W        W 9506   1.962   5.035   0.979 -0.1155 -0.0108  0.5661
 5456W        W 9507   0.874   9.542  11.425 -0.0206 -0.1220  0.4275
 5457W        W 9508   3.838   5.279   0.586 -0.1375  0.3037  0.2950
 5458W        W 9509   7.937   5.215   2.458  0.2449 -0.2181 -0.0084
 5459W        W 9510   4.654   9.034  11.344  0.0252  0.2649  0.2222
 5460W        W 9511   9.584   3.294   0.975 -0.3108 -0.1467 -0.1853
 5461W        W 9512   6.420   4.320   2.494 -0.1011  0.0936 -0.1508
 5462W        W 9513   5.634   5.415   0.285 -0.2700  0.2001  0.0492
 5463W        W 9514   3.800   7.345   3.700 -0.4153  0.1279  0.0282
 5464W        W 9515   9.528   1.766  12.464 -0.3176  0.0195  0.0343
 5465W        W 9516   8.370   6.516   3.225  0.0456 -0.2607 -0.4325
 5466W        W 9517   8.368   7.693  10.434 -0.1014  0.2902  0.1815
 5467W        W 9518   5.745   6.471   2.339  0.4868  0.1558 -0.2129
 5468W        W 9519   1.447  10.185  13.483 -0.1363 -0.2466 -0.1539
 5469W        W 9520   6.024   5.607  12.430 -0.1394  0.0531 -0.0684
 5470W        W 9521   9.390   5.340   4.749 -0.1337 -0.0106 -0.1518
 5471W        W 9522   5.336   9.932  13.351 -0.1223 -0.0503 -0.0505
 5472W        W 9523   6.135   6.103   2.391  0.4688  0.0806  0.0060
 5473W        W 9524   4.406   6.227   3.629  0.1326 -0.3808  0.0515
 5474W        W 9525   5.527   6.122  11.662  0.0475  0.0286 -0.0587
 5475W        W 9526   1.589   4.503   0.335  0.5100  0.1988 -0.3118
 5476W        W 9527   3.296   0.885   1.044 -0.0251  0.1054  0.1766
 5477W        W 9528   6.944   3.090   8.917  0.0688 -0.2519  0.3471
 5478W        W 9529   0.400   5.539   9.648 -0.0451 -0.0521  0.0009
 5479W        W 9530   9.753   8.236  13.410  0.0155 -0.2384 -0.1378
 5480W        W 9531   0.226   8.009   4.528 -0.1475  0.0479 -0.0193
 5481W        W 9532   7.572   9.591   3.120 -0.0510  0.1302 -0.0183
 5482W        W 9533   1.736   2.525  11.533  0.1540 -0.2277  0.1880
 5483W        W 9534   3.334   4.568  13.460 -0.0622  0.2118  0.1034
 5484W        W 9535   3.182   5.382   4.502 -0.2199  0.4757 -0.1148
 5485W        W 9536   0.606   8.746   9.582 -0.3280  0.4441  0.0045
 5486W        W 9537   4.775   5.654   2.852 -0.0912  0.0826 -0.0458
 5487W        W 9538   5.426   4.684  12.428  0.1866 -0.0517 -0.0695
 5488W        W 9539   7.489   7.652   3.177  0.1872  0.2224 -0.1282
 5489W        W 9540   6.266   6.183  10.321  0.0455  0.2681  0.0800
 5490W        W 9541   1.416   1.183   4.337  0.2994  0.3104 -0.1677
 5491W        W 9542   7.862   8.725   3.582  0.0210 -0.1435 -0.0095
 5492W        W 9543   1.275   0.648   0.913  0.0033  0.2157 -0.2273
 5493W        W 9544   3.936   8.479   2.877  0.1682 -0.0049 -0.1181
 5494W        W 9545   7.731   4.242  10.932 -0.0462  0.1147  0.4522
 5495W        W 9546   1.779   6.220   1.819 -0.1388  0.0986  0.2716
 5496W        W 9547   3.202  10.005  10.001 -0.1350 -0.1669  0.5538
 5497W        W 9548   3.752   5.361   1.768  0.0299 -0.1123  0.0125
 5498W        W 9549   7.645   8.353   3.360  0.0831 -0.1802 -0.3933
 5499W        W 9550   8.763   7.364  13.777  0.0134  0.2999 -0.1289
 5500W        W 9551   5.045   9.059  12.375 -0.0004  0.1116 -0.4905
 5501W        W 9552   8.644   1.777   2.416  0.1673 -0.0967 -0.0400
 5502W        W 9553   2.172   7.955   1.669 -0.0478  0.0713 -0.1134
 5503W        W 9554   3.264   1.888  12.991  0.0435  0.0515 -0.1444
 5504W        W 9555   4.082   7.696  10.364  0.1284 -0.0035  0.0600
 5505W        W 9556   2.310   8.004   2.391 -0.1021  0.0348  0.2426
 5506W        W 9557   2.748   1.270   0.192 -0.0075 -0.0755  0.1771
 5507W        W 9558   0.820   2.760   1.536  0.0435 -0.1261  0.1925
 5508W        W 9559   5.977   6.092   1.497 -0.2943 -0.2830 -0.1257
 5509W        W 9560   3.850   2.764   2.063 -0.0521 -0.1026  0.1272
 5510W        W 9561   0.069   5.111  12.690 -0.0197  0.1400  0.1493
 5511W        W 9562   3.566   6.618   0.431 -0.1489 -0.2929 -0.2471
 5512W        W 9563   7.565   8.977  12.887  0.1986  0.4533  0.0990
 5513W        W 9564   5.563   3.725  10.629 -0.3132  0.1682 -0.0208
 5514W        W 9565   7.067   3.865   8.518  0.0049  0.2159 -0.1934
 5515W        W 9566   6.009   0.218  13.674  0.1248  0.2207 -0.1382
 5516W        W 9567   4.071   7.974   1.838  0.2287 -0.2915 -0.1578
 5517W        W 9568   0.048   8.258   2.077  0.1394  0.1541  0.2288
 5518W        W 9569   6.554   3.998  13.890 -0.0089  0.4456  0.1968
 5519W        W 9570   0.650   9.894   0.908  0.1471  0.0320 -0.1640
 5520W        W 9571   1.074  10.152   0.683  0.0321  0.0175 -0.1000
 5521W        W 9572   0.585  10.159   9.565  0.0280 -0.0972  0.0929
 5522W        W 9573   0.621   1.330  13.350 -0.1033  0.1102  0.3749
 5523W        W 9574   9.698   5.442  12.701  0.3367 -0.0819 -0.1240
 5524W        W 9575   1.020   4.450  10.072 -0.1870  0.0995 -0.0019
 5525W        W 9576   6.122   4.746  11.331 -0.0423  0.0232 -0.1508
 5526W        W 9577   2.334   6.764  13.846 -0.3149 -0.0359 -0.1591
 5527W        W 9578   2.981   2.047  10.260 -0.1082  0.1320 -0.2901
 5528W        W 9579   2.213   8.707   0.014 -0.1002  0.0438 -0.0291
 5529W        W 9580   7.211   5.165   1.007  0.2218 -0.0941  0.1776
 5530W        W 9581   5.564   3.407  11.743  0.0349  0.0990  0.4952
 5531W        W 9582   8.874   9.264   9.932 -0.0285  0.1340  0.0246
 5532W        W 9583   1.025   3.536  13.408 -0.1500  0.3152  0.3564
 5533W        W 9584   2.820   2.217  13.054  0.1146  0.0355 -0.0498
 5534W        W 9585   4.747   6.828   1.172 -0.2492 -0.0546  0.0671
 5535W        W 9586   6.697   2.803  10.238  0.0534  0.0916  0.2895
 5536W        W 9587   4.244   1.150   1.479 -0.3131  0.0566  0.0123
 5537W        W 9588   5.901   7.804   9.731  0.0649 -0.0276  0.0660
 5538W        W 9589   6.170   7.088  12.844  0.1381 -0.1300  0.0011
 5539W        W 9590   6.210   4.712   5.252  0.0733  0.3334 -0.1622
 5540W        W 9591   8.576   9.228  10.934 -0.0984  0.0559 -0.2100
 5541W        W 9592  10.159   0.556  10.517 -0.0437 -0.0617  0.0143
 5542W        W 9593   1.718   8.467  13.142  0.1301 -0.0696  0.0787
 5543W        W 9594   1.178   5.683   9.326  0.3741  0.4517 -0.2519
 5544W        W 9595   4.593  10.004   3.527 -0.3116  0.2508  0.1904
 5545W        W 9596   5.959   5.781  10.202  0.0735 -0.0052 -0.0717
 5546W        W 9597   0.489   0.695   0.192 -0.1797  0.0196 -0.2022
 5547W        W 9598   4.944   7.802   1.227 -0.1239  0.0007  0.0643
 5548W        W 9599   0.212   9.957   2.323  0.1547  0.3075 -0.2028
 5549W        W 9600   0.290   6.245   8.691 -0.0666 -0.0846  0.0844
 5550W        W 9601   6.012   7.276  11.148  0.1078 -0.3659 -0.0187
 5551W        W 9602   5.145   4.647  10.421 -0.3838 -0.1613  0.1014
 5552W        W 9603   4.720   3.202   0.145 -0.0837  0.1260  0.1202
 5553W        W 9604   2.967   3.124   0.339 -0.0144 -0.4732  0.0503
 5554W        W 9605   0.707   8.954  11.523  0.2336 -0.4942 -0.0028
 5555W        W 9606   5.687   0.140  10.792 -0.3504 -0.1195  0.1485
 5556W        W 9607   3.848   3.683  10.586 -0.3006 -0.0786  0.2093
 5557W        W 9608   8.083   2.431   1.321  0.0999  0.1052 -0.2501
 5558W        W 9609   3.280   2.787  10.936 -0.0649 -0.0804  0.3034
 5559W        W 9610   0.801   1.246   9.550  0.1097 -0.3135 -0.2428
 5560W        W 9611   7.348   7.723   4.451 -0.0663  0.2212  0.2126
 5561W        W 9612   6.873   9.341  10.493  0.2536 -0.1522  0.0268
 5562W        W 9613   5.256   4.053   3.271  0.0940  0.0307 -0.0077
 5563W        W 9614  10.127  10.182   0.613 -0.0824  0.0373  0.0515
 5564W        W 9615   7.917   5.337  12.282  0.2041 -0.0120  0.0370
 5565W        W 9616   1.680   1.562   3.583 -0.0128  0.0235 -0.5088
 5566W        W 9617   2.809   4.819   9.871  0.0009 -0.0053 -0.2526
 5567W        W 9618   5.109   1.713  10.250  0.0283 -0.1537 -0.0989
 5568W        W 9619   4.414   3.806  11.947  0.0569  0.2326  0.1162
 5569W        W 9620   8.464   2.831   1.657  0.1940 -0.5383  0.3132
 5570W        W 9621   0.022   6.743   4.467 -0.1219  0.0011  0.7263
 5571W        W 9622   1.756   8.312   3.138 -0.0206  0.3449  0.0734
 5572W        W 9623   5.963   8.684   3.600 -0.1796 -0.1116 -0.0886
 5573W        W 9624   0.250  10.108   3.815  0.0980 -0.0735 -0.1576
 5574W        W 9625   5.575   3.509   2.262 -0.1353  0.1041  0.2527
 5575W        W 9626   5.634   4.070   0.905  0.2252 -0.1342  0.1162
 5576W        W 9627   2.138   9.925  10.853  0.2156  0.2326  0.2595
 5577W        W 9628   5.518   2.752  13.854 -0.0353  0.1868 -0.1044
 5578W        W 9629   1.564   2.588  11.079  0.1944 -0.1409 -0.0243
 5579W        W 9630   6.338   0.555   0.395 -0.1970 -0.0090  0.2339
 5580W        W 9631   8.151   1.991   2.632 -0.2276 -0.0243  0.0219
 5581W        W 9632   6.306   3.703  11.351  0.0842 -0.1507  0.1489
 5582W        W 9633   0.429   0.670   0.885  0.1292  0.2353 -0.0072
 5583W        W 9634   8.239   2.163   3.093  0.0276 -0.1566 -0.1081
 5584W        W 9635   5.132   7.720  13.458 -0.1349 -0.2072  0.1817
 5585W        W 9636  10.141   4.420  11.911  0.1408 -0.1090  0.0992
 5586W        W 9637   3.190   4.305  11.977  0.2422  0.1874 -0.0333
 5587W        W 9638   4.320   4.984   2.413  0.1498  0.3250 -0.1684
 5588W        W 9639   7.122   4.370  11.528 -0.2742  0.1861 -0.2274
 5589W        W 9640   2.480   8.193   0.092  0.1927  0.2829 -0.2095
 5590W        W 9641   8.521   3.592  12.150  0.0819  0.1741  0.0068
 5591W        W 9642   8.861   4.348  13.745  0.0657 -0.2862  0.1649
 5592W        W 9643   0.791   1.144   2.529 -0.0378  0.2737 -0.5203
 5593W        W 9644   3.035   2.021   9.622  0.1288  0.1800 -0.0207
 5594W        W 9645   8.293   5.878   1.495 -0.1097 -0.0769  0.0064
 5595W        W 9646   2.337   1.732   3.823 -0.2195  0.3705  0.0780
 5596W        W 9647   0.665   4.951   2.466 -0.0592  0.1062  0.0401
 5597W        W 9648   7.669   5.310   4.713 -0.1002 -0.1062  0.1422
 5598W        W 9649   4.958   0.953   0.817 -0.2043 -0.1446 -0.3337
 5599W        W 9650   9.797   1.639  11.010  0.2804 -0.0152 -0.2164
 5600W        W 9651   0.126   7.031  11.883  0.1189 -0.2573  0.0779
 5601W        W 9652   5.212   8.119   2.009 -0.0096 -0.0889 -0.3244
 5602W        W 9653   2.700   3.859  11.943 -0.2634 -0.2586  0.2605
 5603W        W 9654   6.996   0.875   4.588  0.0222 -0.0383 -0.3440
 5604W        W 9655   3.558   8.609   0.576 -0.1224  0.0694 -0.0399
 5605W        W 9656   1.863   5.635   3.213  0.0143  0.2245 -0.0649
 5606W        W 9657   0.858   1.426  13.790 -0.0425 -0.0605 -0.1905
 5607W        W 9658  10.046   9.035  13.583 -0.1061  0.2184  0.1008
 5608W        W 9659   0.123   4.530   0.819 -0.1551 -0.1462  0.0506
 5609W        W 9660   2.493   6.002   1.288 -0.1783  0.1732  0.0709
 5610W        W 9661   6.655   4.923   5.255 -0.1704  0.1883 -0.1347
 5611W        W 9662   6.090   2.447   1.445 -0.2700  0.1007 -0.1749
 5612W        W 9663   4.363   2.860  10.565  0.0357  0.0277  0.0240
 5613W        W 9664   7.390   0.589  11.792 -0.1289  0.0283  0.5255
 5614W        W 9665   2.695   6.096  11.804  0.1144 -0.2035 -0.0155
 5615W        W 9666   6.986   8.521   0.811  0.0189 -0.0979  0.1363
 5616W        W 9667   5.775   4.985   0.637  0.1497  0.1084  0.0923
 5617W        W 9668   7.673   9.855   0.911 -0.0784 -0.3018  0.2334
 5618W        W 9669   0.363   5.268  11.113  0.0194 -0.2110  0.0863
 5619W        W 9670   2.035   7.990  13.259  0.3643 -0.1214  0.5380
 5620W        W 9671   3.645   6.384   1.450  0.2654 -0.4239  0.0710
 5621W        W 9672   5.418   8.357  11.263  0.0367 -0.0519 -0.0657
 5622W        W 9673   0.421   0.373  11.772  0.0209  0.1361 -0.2629
 5623W        W 9674   0.618   8.291   1.359  0.2956  0.0520  0.0263
 5624W        W 9675   9.715   3.705  13.149  0.2729  0.2032 -0.0892
 5625W        W 9676   8.722   7.911  13.104  0.3681  0.0158  0.3512
 5626W        W 9677   3.178   0.603  11.792  0.2119 -0.0280  0.1765
 5627W        W 9678   9.713   0.018  12.096 -0.0826  0.0554  0.0941
 5628W        W 9679   8.170   2.055   3.600 -0.2196 -0.0121  0.2760
 5629W        W 9680   1.232   6.921  13.465 -0.0631 -0.1232 -0.0926
 5630W        W 9681   3.315   2.086  12.300  0.3970 -0.2136  0.1504
 5631W        W 9682   3.159   6.312   3.009 -0.3293  0.5434  0.4406
 5632W        W 9683   9.439   7.415  13.413 -0.1228 -0.0608  0.0351
 5633W        W 9684   3.653   8.739   1.462  0.1975  0.0982  0.0059
 5634W        W 9685   7.194   6.019   2.512 -0.0236  0.0726  0.1449
 5635W        W 9686   3.284   6.858   2.272  0.0897  0.1837  0.0138
 5636W        W 9687   7.778   1.204  11.876 -0.1169 -0.0398  0.1517
 5637W        W 9688   3.321   6.310   9.492 -0.3384 -0.1331  0.4457
 5638W        W 9689   5.815   5.342  13.718  0.1617 -0.0908 -0.0648
 5639W        W 9690   0.991   3.449   1.210 -0.3436 -0.2336 -0.0783
 5640W        W 9691   3.124   1.300   2.036 -0.1056  0.0931  0.1163
 5641W        W 9692   7.513   9.707   1.597  0.1310  0.0722 -0.0881
 5642W        W 9693   9.157   6.645  10.369  0.0851  0.0332  0.0418
 5643W        W 9694   0.387   4.912   0.001  0.0971 -0.2233 -0.3658
 5644W        W 9695   8.842   7.968  12.557  0.3733  0.0587  0.0019
 5645W        W 9696   1.771   4.093   2.758  0.0012 -0.0060  0.1923
 5646W        W 9697   6.430   4.811   9.970  0.1159  0.0505  0.1227
 5647W        W 9698   2.376   7.736   3.070 -0.1873  0.0882 -0.2331
 5648W        W 9699   2.971   2.436   9.873  0.0498 -0.0486 -0.0753
 5649W        W 9700   1.120   9.321  12.829  0.1073  0.2662 -0.1526
 5650W        W 9701   1.087   6.615   1.359 -0.2483  0.1576  0.2419
 5651W        W 9702   0.883   2.914   3.717  0.2704  0.0348  0.0593
 5652W        W 9703   0.139   6.378   2.453  0.1711 -0.0137  0.2793
 5653W        W 9704   0.550   0.835   3.871 -0.2461 -0.0002 -0.1502
 5654W        W 9705   3.260   5.673   1.632  0.0584  0.1437 -0.0827
 5655W        W 9706   2.084   9.372  13.690  0.0345 -0.1510  0.0050
 5656W        W 9707   8.358   7.214   1.237 -0.2012 -0.2058  0.1891
 5657W        W 9708   2.169   7.188   0.616  0.0726  0.3002  0.0531
 5658W        W 9709   2.060   6.556   2.907  0.0830  0.1217 -0.1385
 5659W        W 9710   3.090   1.675   0.348  0.1874  0.1217  0.1498
 5660W        W 9711   2.575   0.034   2.195 -0.0853 -0.0698  0.2144
 5661W        W 9712   8.625   8.936   5.056 -0.0373  0.6069 -0.2498
 5662W        W 9713   5.617   1.203  11.329 -0.1499 -0.1610 -0.2421
 5663W        W 9714  10.113   1.780   4.024  0.0573 -0.0021 -0.1135
 5664W        W 9715   7.288   2.454   4.228 -0.1253  0.0494 -0.0513
 5665W        W 9716   8.989   2.874   1.485  0.0666  0.0450 -0.0021
 5666W        W 9717   5.303   4.604   0.744  0.0859  0.1058 -0.1961
 5667W        W 9718   4.803   8.916  11.795  0.2241  0.1287 -0.0798
 5668W        W 9719   9.980   4.500   8.961 -0.1246 -0.1759 -0.0630
 5669W        W 9720   4.825   6.460   2.440 -0.1070  0.1831  0.0125
 5670W        W 9721   2.958   3.235   2.601  0.0237  0.2340 -0.1331
 5671W        W 9722   2.710   6.902  11.208 -0.0257 -0.1118 -0.0842
 5672W        W 9723   0.214   0.507   3.961  0.1553  0.1762 -0.0700
 5673W        W 9724  10.000   7.129   9.697 -0.1433  0.0772 -0.0811
 5674W        W 9725   1.602   3.523  13.307 -0.4212 -0.1091 -0.2994
 5675W        W 9726   2.741   1.441   0.662 -0.2070  0.0434  0.0877
 5676W        W 9727   7.283   0.771   3.165  0.0210  0.3137  0.4132
 5677W        W 9728   0.596   6.194   2.093  0.0212  0.0958 -0.0047
 5678W        W 9729   8.269   6.907  11.900 -0.2705 -0.4758 -0.1390
 5679W        W 9730   4.881   7.116  10.592 -0.0256 -0.1942 -0.0775
 5680W        W 9731   8.405   8.399   4.160 -0.1528  0.0460 -0.1203
 5681W        W 9732   2.812   8.513  12.854 -0.2928 -0.1681 -0.1390
 5682W        W 9733   5.294   3.354   4.080  0.2754  0.0347  0.1491
 5683W        W 9734   2.529   5.760   8.983  0.0817 -0.3904  0.1868
 5684W        W 9735   4.701   6.131  11.358 -0.1239 -0.1344  0.1941
 5685W        W 9736   7.681   8.209  12.187  0.0224 -0.1255  0.1327
 5686W        W 9737   4.574   2.550   1.748  0.0734  0.1541 -0.0649
 5687W        W 9738   9.559   9.202   4.172  0.0197 -0.2269  0.0455
 5688W        W 9739   2.664   7.283   2.195 -0.0586 -0.2059 -0.0517
 5689W        W 9740   3.316   7.625   2.846 -0.1822  0.0971 -0.0482
 5690W        W 9741   7.193   8.264   3.195  0.0708 -0.1744 -0.0912
 5691W        W 9742   5.111   8.459  13.005  0.3636  0.0824  0.1397
 5692W        W 9743   3.020   0.680  13.314 -0.1547  0.3908  0.1518
 5693W        W 9744   7.761   1.675   4.957  0.1251  0.0707  0.0332
 5694W        W 9745   6.612   5.321  10.493  0.2251 -0.1398  0.1526
 5695W        W 9746   7.891   2.068   2.152 -0.2227  0.1516 -0.1201
 5696W        W 9747   2.582   6.599   1.131 -0.0753  0.3006  0.1447
 5697W        W 9748   0.228   1.844   0.845  0.0142 -0.0934 -0.3672
 5698W        W 9749   5.987   8.009   1.461  0.0770  0.2378 -0.1826
 5699W        W 9750   7.409   8.513   2.826  0.0622 -0.1823 -0.1060
 5700W        W 9751   8.558   0.861   1.738 -0.0998 -0.2677  0.1575
 5701W        W 9752   4.941   1.486   1.283 -0.1539  0.1657  0.0735
 5702W        W 9753   8.749   2.665   4.201 -0.2206 -0.1514 -0.0550
 5703W        W 9754   2.746   6.969  13.701  0.1451 -0.2213  0.0117
 5704W        W 9755   4.759   2.833   3.856 -0.0425  0.1713  0.0493
 5705W        W 9756   1.565   4.233   4.611  0.0802  0.3332 -0.0634
 5706W        W 9757   9.236   5.451   4.230  0.0289  0.0294 -0.0816
 5707W        W 9758   2.107   5.823   1.490 -0.4448  0.1074 -0.1468
 5708W        W 9759   4.072   4.131  11.631 -0.0939 -0.0432  0.1180
 5709W        W 9760   3.608   9.764  11.027 -0.1858 -0.1010 -0.1541
 5710W        W 9761   1.029   1.079   3.967 -0.1686 -0.3227 -0.3119
 5711W        W 9762   3.637   6.565  12.265 -0.0606  0.1535  0.1365
 5712W        W 9763   9.984   0.303   2.548 -0.1669  0.3570  0.0353
 5713W        W 9764   7.905   1.153   4.889 -0.3353 -0.0806  0.0003
 5714W        W 9765   8.552   4.271   1.308 -0.3274  0.2596 -0.0496
 5715W        W 9766   4.884   1.010   3.572  0.1424 -0.1845  0.3553
 5716W        W 9767   7.019   6.922   0.442 -0.4300  0.2083  0.2866
 5717W        W 9768   7.966   7.428  11.171  0.1608  0.0709 -0.3119
 5718W        W 9769   0.240   7.976   3.599  0.1774  0.4864 -0.0479
 5719W        W 9770   1.852   1.674   9.157  0.2146 -0.0848  0.2936
 5720W        W 9771   4.282   9.755   1.981 -0.3492 -0.1589 -0.1564
 5721W        W 9772   1.569   2.113   1.838  0.0057 -0.1439  0.2805
 5722W        W 9773   7.929   4.448   2.350  0.1875  0.1940 -0.3907
 5723W        W 9774   8.805   8.344  13.399 -0.1435  0.1099 -0.0761
 5724W        W 9775   8.716   3.700   9.440 -0.1442  0.0261 -0.0753
 5725W        W 9776   5.364   2.869   4.258  0.0996  0.7263  0.2467
 5726W        W 9777   2.177   0.792   0.825  0.3009 -0.0767 -0.0772
 5727W        W 9778   0.414   4.106   1.495  0.2196 -0.4301  0.0518
 5728W        W 9779   0.611   5.727  13.692 -0.1857  0.3147  0.3250
 5729W        W 9780   6.396   3.676   1.420  0.1189  0.2180  0.0288
 5730W        W 9781   9.260   0.436  13.546 -0.0954 -0.1264 -0.1413
 5731W        W 9782   5.377   2.559   2.170  0.0953 -0.2675  0.0123
 5732W        W 9783   8.910   0.280   0.209  0.0012 -0.0002  0.1070
 5733W        W 9784   0.988   3.598   2.738 -0.0723  0.1186  0.0785
 5734W        W 9785   5.326   1.799  12.004  0.1491 -0.1889  0.0434
 5735W        W 9786   4.961   3.346  12.600  0.2744 -0.1170  0.1014
 5736W        W 9787   3.350   4.706   3.278  0.1222  0.0610  0.3850
 5737W        W 9788   4.926   5.306   9.157 -0.1061  0.0980 -0.0732
 5738W        W 9789   1.894   2.409   0.582 -0.4258  0.0312 -0.2309
 5739W        W 9790   8.543   2.458   9.627  0.2519 -0.1661 -0.1100
 5740W        W 9791   3.551   9.097   0.484  0.0194 -0.3878 -0.0377
 5741W        W 9792   8.033   9.530   9.186 -0.1670  0.1644 -0.0144
 5742W        W 9793   9.870  10.033  13.588  0.1999 -0.0018 -0.1352
 5743W        W 9794   7.224   9.290   0.457  0.1787  0.1261 -0.0915
 5744W        W 9795   7.938   1.125  13.855  0.0374 -0.0835  0.2939
 5745W        W 9796   9.469   8.522   1.236  0.2079 -0.4417 -0.2816
 5746W        W 9797   0.187   6.808  12.723 -0.1252  0.0203  0.0162
 5747W        W 9798   5.659   4.680   1.096 -0.1250 -0.0271 -0.0886
 5748W        W 9799   1.653   2.257  10.000 -0.1264 -0.1616  0.0028
 5749W        W 9800   8.203   2.520   0.041  0.1065  0.3441  0.2266
 5750W        W 9801   1.654   7.677   3.658  0.1050 -0.0605 -0.1386
 5751W        W 9802   1.185   6.163   1.610 -0.1445 -0.0652  0.1658
 5752W        W 9803   8.779   9.740  10.101  0.1245  0.0609  0.1077
 5753W        W 9804   0.159  10.059   1.145 -0.3615  0.2240 -0.1957
 5754W        W 9805   7.428   8.311  12.682  0.1399 -0.0711 -0.0218
 5755W        W 9806   1.883   4.265   2.147  0.0992 -0.1725  0.0603
 5756W        W 9807   4.658   6.907   4.395 -0.0606  0.3473  0.1185
 5757W        W 9808   4.896  10.110  10.160 -0.2318  0.2056  0.2764
 5758W        W 9809   5.142   4.055   4.196 -0.0247  0.0021 -0.2038
 5759W        W 9810   9.220  10.172   1.470 -0.0351 -0.0838 -0.1100
 5760W        W 9811   5.005   4.039   1.521 -0.0228  0.0959 -0.2328
 5761W        W 9812   6.745   5.485   1.368 -0.2702  0.1168 -0.2505
 5762W        W 9813   6.630   2.254  10.887  0.1653  0.0688  0.0025
 5763W        W 9814   3.397   8.996  13.138 -0.2836 -0.1900 -0.3085
 5764W        W 9815   5.791   9.687  13.203  0.3344 -0.1242 -0.0807
 5765W        W 9816   3.310   1.436  13.821 -0.0143 -0.2120 -0.4380
 5766W        W 9817   0.103   2.927  12.256  0.1995  0.3091 -0.1241
 5767W        W 9818   8.220   6.609  12.412  0.1982  0.1910 -0.0375
 5768W        W 9819   3.328   8.490   3.163  0.1657 -0.0015 -0.0282
 5769W        W 9820   9.345   0.438  11.201 -0.0176 -0.1775 -0.0186
 5770W        W 9821   2.266   5.659  13.521 -0.1828 -0.2687 -0.0018
 5771W        W 9822   8.113   2.437   1.920  0.2601  0.0033 -0.0006
 5772W        W 9823   6.232   1.208   1.156  0.0350 -0.0425 -0.0928
 5773W        W 9824   9.134   1.492   0.287 -0.1377 -0.1509  0.0141
 5774W        W 9825   1.926   6.424   0.690 -0.2228  0.2435  0.1203
 5775W        W 9826   6.457   5.769   0.409 -0.0694 -0.1975  0.0733
 5776W        W 9827   3.651   7.309   2.228 -0.2935  0.1173 -0.0258
 5777W        W 9828   0.716   7.040   1.951  0.1101 -0.1047  0.1126
 5778W        W 9829   1.051  10.066  10.712 -0.2009  0.1227 -0.1220
 5779W        W 9830   0.344   9.977   0.370 -0.3100  0.1378 -0.0856
 5780W        W 9831   8.696   3.292   2.481  0.2800 -0.2060  0.3860
 5781W        W 9832   8.476   8.690  13.079  0.1951  0.2384  0.2207
 5782W        W 9833   7.267   3.451  11.343  0.1923 -0.0795 -0.0125
 5783W        W 9834   8.893   2.277   0.102 -0.0044 -0.1706 -0.4005
 5784W        W 9835   9.620   4.072   2.878  0.4247  0.0668  0.1829
 5785W        W 9836   8.770   3.740   2.204  0.2750 -0.1194 -0.2601
 5786W        W 9837   6.188   8.557   2.509  0.0051  0.0721 -0.0167
 5787W        W 9838   1.087  10.014   9.249  0.0036 -0.0501 -0.1716
 5788W        W 9839   4.566   5.463   8.816 -0.1889 -0.3957  0.0261
 5789W        W 9840   8.116   0.975   0.427 -0.0324  0.0786  0.1368
 5790W        W 9841   2.795   0.397  11.078  0.1966  0.0567  0.1433
 5791W        W 9842   0.550   3.080  11.411  0.0962  0.0397 -0.1752
 5792W        W 9843   7.550   6.114   4.526  0.0575 -0.1425 -0.0200
 5793W        W 9844   9.325   1.870   9.207  0.1513 -0.0003  0.2343
 5794W        W 9845   6.725   6.814  12.999  0.2495 -0.0876  0.3003
 5795W        W 9846   1.207   8.954   8.595 -0.1184  0.0592 -0.1912
 5796W        W 9847   6.755   2.768   3.364  0.0382 -0.1582 -0.0481
 5797W        W 9848   2.483   3.819   9.178  0.2403 -0.0268  0.1453
 5798W        W 9849   3.916   1.679  12.388  0.0265  0.1461  0.0834
 5799W        W 9850   6.524   1.804   0.393 -0.0696  0.1093 -0.0058
 5800W        W 9851   6.198   3.610   5.342  0.1058  0.2725 -0.3823
 5801W        W 9852   3.846   2.649  13.232 -0.1297 -0.2181  0.1199
 5802W        W 9853   7.352   2.884   9.706 -0.2605 -0.2427 -0.1583
 5803W        W 9854   4.940   9.988   1.428 -0.0298  0.1006  0.0865
 5804W        W 9855   2.099   9.175   1.056  0.0188 -0.3138  0.0932
 5805W        W 9856   0.238   1.282   5.103  0.3153 -0.0641 -0.1022
 5806W        W 9857   0.782   5.698   5.248  0.2274 -0.1113  0.1887
 5807W        W 9858   1.701   3.875   5.014  0.1531 -0.1889  0.0267
 5808W        W 9859  10.007   1.985   2.599 -0.0324 -0.3038 -0.1538
 5809W        W 9860   0.522   3.756   0.735 -0.4311 -0.0063  0.1700
 5810W        W 9861   9.873   5.338   0.995  0.0055 -0.1405  0.1124
 5811W        W 9862   2.559   1.566   1.191 -0.1196 -0.0187  0.0415
 5812W        W 9863   4.606   5.983   2.506 -0.1044  0.1564  0.0502
 5813W        W 9864   1.536   4.775   4.528 -0.0540  0.0986  0.0468
 5814W        W 9865   3.695   2.847  11.902  0.2695 -0.2309 -0.4857
 5815W        W 9866   0.729   1.643   0.772  0.0018  0.1006  0.1722
 5816W        W 9867   1.217   1.644  10.360 -0.1038  0.2589  0.1425
 5817W        W 9868  10.114   8.894   3.904 -0.0604  0.1904 -0.0003
 5818W        W 9869   3.691   3.337  12.110 -0.0156  0.1365 -0.1837
 5819W        W 9870   5.161   7.529   0.906  0.1119  0.2917  0.2426
 5820W        W 9871   9.614   7.822  11.295  0.4314  0.2321 -0.0163
 5821W        W 9872   9.432   9.810  11.998  0.1417 -0.4181 -0.0686
 5822W        W 9873   8.732   1.808   1.935 -0.2084  0.1955  0.1113
 5823W        W 9874   2.016   9.834   2.260 -0.3656  0.3079  0.2710
 5824W        W 9875   8.399   9.668  11.089 -0.2870  0.2603 -0.1484
 5825W        W 9876   4.653   0.643  10.592 -0.2233  0.1355 -0.2615
 5826W        W 9877   3.667   8.808  11.476  0.1135  0.0620  0.0618
 5827W        W 9878   4.958   4.894   0.459 -0.2636  0.0246 -0.1686
 5828W        W 9879   3.960   5.535   9.311  0.3045  0.1682  0.0936
 5829W        W 9880   4.799   0.115  12.905  0.0390  0.3608 -0.0596
 5830W        W 9881   2.899   9.648   1.396  0.0721 -0.0551 -0.0300
 5831W        W 9882   8.836   5.696   4.103  0.0274  0.2177  0.0562
 5832W        W 9883   3.078   2.839   3.745  0.1878 -0.2494  0.2577
 5833W        W 9884   9.213   5.596  11.220 -0.1294 -0.0222 -0.1507
 5834W        W 9885   5.218   6.667   1.763 -0.0235 -0.2844 -0.0201
 5835W        W 9886   0.632   1.015  10.905  0.1634 -0.1102  0.0528
 5836W        W 9887   0.090   9.578   0.752  0.2414 -0.0054 -0.0533
 5837W        W 9888   5.697   5.914   9.277 -0.0937  0.1307  0.3510
 5838W        W 9889   0.856   6.147  13.841  0.1005  0.0492 -0.1773
 5839W        W 9890   5.648   8.437  13.797 -0.1036  0.2749 -0.2076
 5840W        W 9891   2.647   0.409  12.666 -0.1444  0.2796 -0.2892
 5841W        W 9892   9.105   6.103   0.829  0.5494 -0.2875  0.2753
 5842W        W 9893   2.007   3.739  10.758  0.1118  0.0495 -0.1167
 5843W        W 9894   4.191   8.777   0.260  0.1815  0.0830  0.0614
 5844W        W 9895   8.763   7.553   3.544  0.1736 -0.0781  0.2735
 5845W        W 9896  10.145   0.063   0.112 -0.2443  0.1319  0.0056
 5846W        W 9897   8.105   5.964  11.112  0.0506  0.3134  0.3446
 5847W        W 9898   9.418   1.620  11.921 -0.0998 -0.1682  0.3673
 5848W        W 9899   2.559   6.394   2.755  0.0086 -0.0225 -0.0953
 5849W        W 9900   1.978   0.081   2.083  0.1800 -0.0153  0.0462
 5850W        W 9901   0.645   1.365  12.653 -0.2544  0.0850  0.2801
 5851W        W 9902   7.975   8.657   9.705  0.4287 -0.2261  0.1307
 5852W        W 9903   5.725   2.193   4.082  0.0653 -0.0661  0.1810
 5853W        W 9904   2.156   1.693   3.386  0.0048 -0.3110  0.0709
 5854W        W 9905   0.857  10.060  11.437  0.1579  0.0720  0.0204
 5855W        W 9906   0.602   9.661  12.319  0.0483  0.2303 -0.0707
 5856W        W 9907   4.112   7.530  12.809 -0.2261 -0.0024  0.0673
 5857W        W 9908   0.309   0.903   3.369 -0.0319 -0.2501 -0.0227
 5858W        W 9909   7.075   0.355  13.233  0.2173 -0.0284 -0.2580
 5859W        W 9910   3.642   7.304   9.243  0.1111 -0.1465 -0.2486
 5860W        W 9911   3.874   6.893   3.768  0.0041  0.3182 -0.3105
 5861W        W 9912   5.707   0.297  11.391 -0.0304 -0.1650  0.0457
 5862W        W 9913   2.989   8.290   4.079  0.3608  0.3445  0.0306
 5863W        W 9914   8.725   4.055  11.664 -0.0000  0.1061 -0.1512
 5864W        W 9915   2.831   2.136  11.661 -0.2055 -0.1493  0.0363
 5865W        W 9916   4.843   7.643  10.783 -0.1904  0.0138 -0.2175
 5866W        W 9917   8.700   9.100  12.241 -0.3699 -0.4272 -0.2037
 5867W        W 9918   9.229   8.926   9.793 -0.1771  0.0536  0.0786
 5868W        W 9919  10.020   6.247  10.261  0.1361 -0.1081  0.1623
 5869W        W 9920   3.277   7.182  13.153 -0.1747 -0.5406 -0.0128
 5870W        W 9921   6.988   7.371   4.217 -0.0843 -0.0129  0.1903
 5871W        W 9922   5.482   2.806   1.610  0.1211  0.2104 -0.1096
 5872W        W 9923   7.537   5.189   2.153 -0.2570 -0.0726  0.1299
 5873W        W 9924   4.436   5.124   2.873 -0.2011  0.2528  0.0672
 5874W        W 9925   5.304   2.287   1.786 -0.0616  0.0945  0.0991
 5875W        W 9926   8.593   1.819   2.917 -0.0241 -0.1465  0.2849
 5876W        W 9927   2.160   5.972   9.252 -0.1436  0.0658 -0.3054
 5877W        W 9928   9.278   7.567   1.719 -0.0609  0.0208 -0.2016
 5878W        W 9929  10.121   5.425  11.485  0.0865 -0.0610 -0.0633
 5879W        W 9930   0.599  10.090  13.045  0.1306 -0.0938  0.0515
 5880W        W 9931   4.178   6.146   1.608 -0.0765  0.2026 -0.2316
 5881W        W 9932   8.764   1.191  12.369  0.3526  0.3197 -0.0655
 5882W        W 9933   7.342   6.456   2.252  0.0277  0.2150  0.0456
 5883W        W 9934   3.556  10.154   1.225 -0.2828 -0.0343 -0.0617
 5884W        W 9935   9.337   0.758  10.831 -0.0308  0.0644  0.1160
 5885W        W 9936   0.732   7.400   3.956 -0.3153  0.0779 -0.0450
 5886W        W 9937   6.842   3.797  11.296 -0.0476 -0.0067  0.2292
 5887W        W 9938   1.499   6.661   2.618 -0.0777 -0.1102  0.2106
 5888W        W 9939   3.643   3.950   3.124 -0.2935  0.0562  0.1030
 5889W        W 9940   0.250   8.016   0.592 -0.1802 -0.0814  0.3232
 5890W        W 9941   6.396   2.669   4.521 -0.0354  0.0156 -0.1473
 5891W        W 9942   4.203   2.649   2.980  0.2612  0.1057 -0.0407
 5892W        W 9943   1.068   6.025   2.110  0.0944 -0.0981  0.3320
 5893W        W 9944   4.913   3.939  11.977  0.2370  0.1042 -0.1273
 5894W        W 9945   0.350   2.226  11.328 -0.3788  0.3746 -0.4433
 5895W        W 9946  10.073   1.536  13.883  0.1870 -0.1219 -0.1418
 5896W        W 9947   5.360   1.310   3.070  0.1470 -0.1717 -0.0660
 5897W        W 9948   6.899   6.073  10.723 -0.3333 -0.3284  0.1371
 5898W        W 9949   4.028   7.633  12.277 -0.0704 -0.3444  0.0051
 5899W        W 9950   5.459   8.862  12.187 -0.3460  0.2621  0.1991
 5900W        W 9951   3.926   0.471  13.793  0.1019 -0.3014 -0.0200
 5901W        W 9952   5.695   0.288   2.207  0.0091 -0.0682 -0.0764
 5902W        W 9953   0.377   5.988   9.623 -0.0123 -0.3605  0.1092
 5903W        W 9954   3.537   7.449   0.150  0.0100  0.2960 -0.4534
 5904W        W 9955  10.102   7.209   0.085 -0.1211 -0.0571 -0.0585
 5905W        W 9956   8.649   8.253  12.161 -0.0476  0.0107 -0.1327
 5906W        W 9957   0.416   4.441   0.094  0.2952  0.2116 -0.0877
 5907W        W 9958   9.235   7.403  10.116  0.3724  0.0402  0.1612
 5908W        W 9959   2.322   0.022  11.854  0.0663 -0.0032 -0.0307
 5909W        W 9960   2.541   7.541   0.497 -0.1694  0.0530 -0.0735
 5910W        W 9961   1.918   4.596   4.812 -0.0164 -0.2599  0.1565
 5911W        W 9962   2.149   8.185  11.481 -0.1185 -0.1612 -0.0433
 5912W        W 9963   1.001   6.026   0.657  0.0752 -0.3406 -0.1301
 5913W        W 9964   8.960   9.503  12.586 -0.0104  0.3453 -0.1403
 5914W        W 9965   1.336   5.526   2.914 -0.1253  0.0714  0.1374
 5915W        W 9966   0.564   4.891   2.995  0.1975 -0.0826 -0.2075
 5916W        W 9967   1.302   4.930   4.128  0.0488 -0.2072  0.0143
 5917W        W 9968   6.662   9.931   3.413 -0.3003 -0.0777 -0.0214
 5918W        W 9969   0.607   7.297   0.846 -0.1045 -0.2419  0.0014
 5919W        W 9970   1.465   5.644   5.073  0.0654  0.0050 -0.0786
 5920W        W 9971   2.777   0.867  11.939  0.2161 -0.4732  0.4869
 5921W        W 9972   2.806   5.880  12.686 -0.0727  0.0290 -0.0970
 5922W        W 9973   2.156   8.850   4.517  0.0925  0.0456 -0.0684
 5923W        W 9974   6.468   6.976   1.294 -0.2853  0.0589 -0.1770
 5924W        W 9975   0.176   0.691   9.866  0.3443  0.0835  0.5095
 5925W        W 9976   9.911   6.994  10.475  0.1798  0.1771 -0.0123
 5926W        W 9977  10.108   2.427  12.235 -0.0823 -0.1901 -0.3036
 5927W        W 9978   1.009   4.599   3.936 -0.1090 -0.1829 -0.0889
 5928W        W 9979   7.844   3.619  11.441 -0.4090  0.0008  0.3472
 5929W        W 9980   8.539   2.652  11.845 -0.1169  0.4404  0.2291
 5930W        W 9981   8.656   5.701  13.483 -0.3851  0.1645 -0.0535
 5931W        W 9982   8.200   4.985  11.004  0.0116 -0.1086 -0.1533
 5932W        W 9983   3.519   2.079   2.335 -0.0911 -0.0230 -0.2838
 5933W        W 9984   6.781   0.386   0.718  0.0409 -0.0482  0.1042
 5934W        W 9985   1.134   2.984  13.499  0.3730 -0.1537  0.4107
 5935W        W 9986   8.714   2.056  13.502  0.0137 -0.0657  0.2452
 5936W        W 9987   0.704   0.324  12.785  0.2704 -0.0641  0.0899
 5937W        W 9988   4.229   1.918   4.161 -0.0244  0.0614 -0.0121
 5938W        W 9989   0.023   8.321   3.207 -0.0767 -0.1629  0.1354
 5939W        W 9990   7.505   3.683   5.072 -0.0632  0.0651 -0.0835
 5940W        W 9991   5.404   7.227  11.838 -0.1188 -0.0553 -0.0772
 5941W        W 9992   9.664   0.176   0.838 -0.0224  0.0230  0.0615
 5942W        W 9993   8.587   9.235   9.143 -0.3771 -0.0888  0.4654
 5943W        W 9994   6.448   9.983  10.103 -0.0963 -0.2963  0.0051
 5944W        W 9995   5.120   9.702  12.470  0.1733  0.0848 -0.0958
 5945W        W 9996   8.338   7.629  10.951  0.1413 -0.2652  0.5627
 5946W        W 9997   6.259  10.179   1.973  0.0451  0.3976  0.0626
 5947W        W 9998   2.979   6.273   0.377  0.3486  0.1311  0.0431
 5948W        W 9999   3.640   0.435  12.594  0.0312  0.1786  0.1264
 5949W        W10000   1.908   1.571   9.697  0.2316  0.2128  0.3192
 5950W        W10001   1.775   6.923  13.325  0.1149  0.2766  0.0210
 5951W        W10002   2.535   8.265   3.728  0.2493 -0.2570  0.0625
 5952W        W10003   3.263   8.175  12.837 -0.0690 -0.4256 -0.2141
 5953W        W10004   2.800   3.007   3.023  0.1369  0.1399  0.1051
 5954W        W10005   9.637   8.617   9.662  0.1990 -0.0080 -0.0111
 5955W        W10006   8.090   1.477   9.197 -0.1365  0.2767 -0.4786
 5956W        W10007   7.944   1.169   1.031  0.3775 -0.1748  0.0488
 5957W        W10008   4.489   8.954   0.599 -0.0886 -0.0480  0.3949
 5958W        W10009   3.092   3.637   4.599  0.2293  0.1687 -0.0862
 5959W        W10010   4.793   9.656   0.179 -0.1641  0.5273  0.0088
 5960W        W10011  10.014   5.341   3.640  0.4309  0.2215  0.0114
 5961W        W10012   8.643   7.887  11.679  0.3319 -0.1415  0.0743
 5962W        W10013   9.695   6.215   3.824 -0.1753  0.0965 -0.1244
 5963W        W10014   0.740   0.364   4.667  0.1754  0.1452  0.3144
 5964W        W10015   9.807   9.326  10.225  0.0188 -0.0826  0.4153
 5965W        W10016   6.220   2.943   4.107 -0.1909  0.1406 -0.1621
 5966W        W10017   5.220   7.256   1.974  0.4002 -0.0405  0.3148
 5967W        W10018   6.588   3.121   4.631 -0.2349 -0.2876  0.1106
 5968W        W10019   7.447   1.583  13.539  0.1957  0.0435 -0.1258
 5969W        W10020   2.830   4.438   2.434  0.0629 -0.0735  0.1385
 5970W        W10021   6.283   4.666  12.663 -0.4099  0.0003 -0.1880
 5971W        W10022   8.738   0.189   1.520 -0.0956 -0.1080 -0.3974
 5972W        W10023   0.589   4.359  12.804  0.2380  0.1117 -0.0212
 5973W        W10024   7.548   4.078   1.784 -0.1890  0.2105 -0.3214
 5974W        W10025   0.597   3.370  11.841  0.2568 -0.0050  0.1167
 5975W        W10026   7.688   9.967   4.699  0.1920  0.0206 -0.0596
 5976W        W10027   4.509   1.863   0.507  0.0938  0.2506  0.0344
 5977W        W10028   1.975   4.955   2.344 -0.1603 -0.1429 -0.0236
 5978W        W10029   3.584   4.515   1.848  0.1074 -0.1243  0.0206
 5979W        W10030   7.822   8.361   4.001  0.1422  0.2050 -0.0281
 5980W        W10031   3.537   3.373   9.713 -0.0563 -0.0971 -0.2364
 5981W        W10032   6.421   1.631   3.934 -0.1038  0.1005 -0.3245
 5982W        W10033   6.785   4.702  11.798 -0.1784 -0.0097  0.0798
 5983W        W10034   1.035   1.108   0.783  0.4694 -0.1390 -0.2370
 5984W        W10035   2.362   5.623  10.435 -0.0739 -0.1165 -0.0537
 5985W        W10036   0.054   9.375   3.458  0.0859  0.2663  0.1140
 5986W        W10037   3.798   2.169   0.464  0.2029  0.0341  0.2535
 5987W        W10038   5.294   5.807   0.373 -0.1342  0.4334 -0.0854
 5988W        W10039   4.117   1.599   0.671  0.0383  0.0361  0.0858
 5989W        W10040   8.963   0.178  11.407  0.0064 -0.0378 -0.0709
 5990W        W10041   3.652   3.167  11.128  0.2718  0.1259 -0.2034
 5991W        W10042   4.363   0.946   0.438 -0.2848 -0.2909  0.1641
 5992W        W10043   8.489   0.627  10.389 -0.0294  0.0545  0.0830
 5993W        W10044   5.313   3.989   1.963 -0.1519  0.1167 -0.0190
 5994W        W10045   8.592   0.617  12.497  0.0781  0.0528 -0.3155
 5995W        W10046  10.065   6.941   3.611  0.2477  0.0408  0.1806
 5996W        W10047  10.117   3.383   1.877 -0.0705 -0.0345 -0.0818
 5997W        W10048   0.294   0.494   4.458 -0.0919  0.0395  0.0323
 5998W        W10049   3.419   5.785   1.108 -0.2052 -0.0693  0.1701
 5999W        W10050   3.231   1.173  10.500 -0.0277  0.1942 -0.1659
 6000W        W10051   0.886   0.862  10.479  0.0565  0.0231  0.0836
 6001W        W10052   4.488   2.748  13.876  0.0389  0.0638 -0.3059
 6002W        W10053   4.989   5.787   9.020 -0.1235 -0.1673 -0.0098
 6003W        W10054   5.739   7.480  11.517 -0.0408  0.2574 -0.1066
 6004W        W10055   1.892   0.837   3.048  0.2626 -0.0467  0.0774
 6005W        W10056   9.320   0.567   1.457 -0.1338  0.4886  0.1355
 6006W        W10057   2.413   3.606   3.743  0.0003 -0.0059 -0.1691
 6007W        W10058   5.390   4.665   1.619  0.1946  0.2047 -0.0972
 6008W        W10059   8.528   0.187  12.254  0.0987 -0.2264  0.2092
 6009W        W10060   5.416   5.343   9.005 -0.0206 -0.2166  0.0998
 6010W        W10061   6.845   7.200   0.021  0.1134 -0.0431 -0.4031
 6011W        W10062   8.532   9.575  11.573 -0.2720  0.0433  0.1680
 6012W        W10063   5.698   8.504   0.503 -0.3995 -0.3983 -0.2400
 6013W        W10064   1.687   9.323   9.584  0.2955 -0.0197 -0.0605
 6014W        W10065   0.542   2.730  10.623 -0.0793  0.1076  0.2083
 6015W        W10066   1.367   3.129   3.672  0.0783 -0.1848  0.0249
 6016W        W10067   6.695   5.165   0.847 -0.0949 -0.3832  0.2419
 6017W        W10068   1.385   3.562   1.592 -0.2442 -0.2188  0.0332
 6018W        W10069   5.072   7.000  10.057 -0.0352  0.1550  0.0062
 6019W        W10070   4.207   7.768   9.651  0.2417 -0.1426 -0.0072
 6020W        W10071   4.890   8.132  10.580 -0.1637  0.1668  0.2781
 6021W        W10072   8.983   1.713   9.610 -0.5259  0.0784  0.0006
 6022W        W10073   4.546   0.339   1.864 -0.1852  0.1466 -0.1396
 6023W        W10074   8.810   7.481   1.257 -0.0075 -0.1435 -0.0700
 6024W        W10075   2.343   6.774   1.541  0.0891 -0.0927  0.1009
 6025W        W10076   1.522   3.418   4.840  0.3002  0.2317  0.1486
 6026W        W10077   7.745   7.985  11.749  0.1884 -0.0715 -0.0515
 6027W        W10078   6.241   1.354  13.082 -0.0293 -0.0789 -0.0808
 6028W        W10079   8.242   6.948   2.943 -0.0927 -0.2446  0.0524
 6029W        W10080   9.607  10.159   3.341  0.1469 -0.0031 -0.0986
 6030W        W10081   4.428   0.929  12.865  0.0154  0.0309  0.0093
 6031W        W10082   3.050   4.548   1.549  0.0242  0.0999  0.0183
 6032W        W10083   2.563   1.839   2.077 -0.0486 -0.0683  0.0605
 6033W        W10084   4.068   8.701   2.381 -0.2238 -0.1332 -0.1519
 6034W        W10085   5.209   3.259   1.767 -0.0424 -0.0676 -0.1175
 6035W        W10086   8.782   8.639   9.185  0.1287  0.2293  0.1779
 6036W        W10087   1.066   8.439   1.107  0.0777  0.1648 -0.0133
 6037W        W10088   3.183   0.552  12.688 -0.2630 -0.1423 -0.1080
 6038W        W10089   6.705   8.137   0.890 -0.0447  0.1958  0.0699
 6039W        W10090   4.966   9.412  11.464 -0.0356  0.2481  0.2015
 6040W        W10091   7.522   4.479   3.282 -0.0280 -0.1600 -0.2386
 6041W        W10092   2.612   3.714   4.344  0.1445  0.2222  0.0127
 6042W        W10093   2.077   3.271  10.840 -0.3102  0.1077  0.2539
 6043W        W10094   8.101   6.390   2.878  0.1816  0.3823 -0.2650
 6044W        W10095   0.197   4.336  11.255 -0.1675 -0.1434 -0.3080
 6045W        W10096   4.290   0.494   3.088 -0.2213  0.1293 -0.1579
 6046W        W10097   6.237   5.952   2.827  0.0780 -0.0521  0.0621
 6047W        W10098  10.069   6.804  13.391 -0.0353 -0.0573 -0.0137
 6048W        W10099   0.754   1.855  10.182 -0.0292 -0.1471  0.0503
 6049W        W10100   8.399   1.050  13.479 -0.1168 -0.0219  0.0738
 6050W        W10101   0.678   3.155  13.218  0.2450 -0.1360  0.0327
 6051W        W10102   8.191   0.677   4.899 -0.0014 -0.1688  0.0532
 6052W        W10103   8.290   4.982   3.493  0.0663 -0.3992 -0.1640
 6053W        W10104   6.035  10.036  12.789 -0.1906 -0.3770 -0.0102
 6054W        W10105   3.740   8.223  13.467 -0.0297 -0.0973 -0.3074
 6055W        W10106   2.137   0.761   2.462 -0.0661 -0.0921  0.1014
 6056W        W10107   5.308   2.230  12.911 -0.0893  0.3283  0.1531
 6057W        W10108   5.286   5.126  11.652  0.0641 -0.1186  0.0187
 6058W        W10109   6.402   8.942   0.152  0.1922  0.1039  0.0213
 6059W        W10110   9.497   2.673   3.092  0.0906 -0.2803 -0.3436
 6060W        W10111   9.431   8.845   4.664 -0.3316 -0.2371  0.0748
 6061W        W10112   1.570   9.102   1.115  0.3479 -0.1929  0.1187
 6062W        W10113   6.467   9.795  12.505  0.0906  0.1737  0.3604
 6063W        W10114   7.720   9.931   0.227 -0.1054  0.2398  0.0769
 6064W        W10115   3.131   9.540   3.288  0.0686  0.2434  0.1231
 6065W        W10116  10.116   1.552   4.785  0.0870 -0.3983 -0.3258
 6066W        W10117   4.893   5.431  13.582 -0.0051  0.1002  0.5520
 6067W        W10118   8.863   8.696  10.029  0.1424 -0.1227 -0.1166
 6068W        W10119   6.505   3.966   1.085  0.0594 -0.3572 -0.0874
 6069W        W10120   4.178   6.499   3.986  0.1142  0.2105 -0.0497
 6070W        W10121   1.026   9.164  11.138  0.2530  0.1743  0.6777
 6071W        W10122   2.887   9.745   1.875  0.0594  0.0217  0.3542
 6072W        W10123   9.474   1.688   1.865  0.2719  0.0133  0.2482
 6073W        W10124   5.444   4.941  10.061  0.2040  0.2175 -0.0557
 6074W        W10125   0.637   7.190  11.655 -0.1357  0.1468  0.0567
 6075W        W10126   6.077   1.778   1.913 -0.2102  0.1778  0.1811
 6076W        W10127   1.181   8.124   8.987 -0.1398 -0.0237 -0.0503
 6077W        W10128   0.069   2.427  13.498  0.2410 -0.3011 -0.1556
 6078W        W10129   6.163   1.028   2.543  0.2180 -0.1482 -0.0953
 6079W        W10130   1.158   5.679   1.445 -0.1777 -0.0636  0.0909
 6080W        W10131   0.296   3.118  12.912 -0.1891 -0.3652 -0.3842
 6081W        W10132   9.164   3.403   2.351  0.2554 -0.0307  0.2570
 6082W        W10133   5.009   6.406  13.507 -0.0197  0.0322  0.1005
 6083W        W10134  10.163   1.380   1.153 -0.4341 -0.3938  0.1066
 6084W        W10135   6.397   9.351  12.347 -0.2641 -0.0237 -0.0766
 6085W        W10136  10.184   0.585   0.051 -0.1294  0.2815  0.0140
 6086W        W10137   9.494   4.947   0.745  0.2348 -0.0802  0.0143
 6087W        W10138   5.176   3.917   1.032  0.1714 -0.0643  0.0635
 6088W        W10139   3.307   9.692   1.186 -0.0839  0.0044 -0.1806
 6089W        W10140   2.584   3.155  12.436  0.1421  0.0781  0.0843
 6090W        W10141   5.582   0.824   2.897  0.1257  0.1574 -0.3012
 6091W        W10142   9.084   2.080   5.412  0.2113  0.1969  0.1786
 6092W        W10143   5.085   4.483   1.205  0.0427  0.2072  0.2191
 6093W        W10144   9.092   0.419   3.555  0.0280 -0.0880 -0.4008
 6094W        W10145   7.403   4.544   9.933 -0.2806 -0.2888 -0.0573
 6095W        W10146   1.877   5.718   2.585  0.4865  0.2712 -0.0540
 6096W        W10147   1.221   4.731  11.879  0.3384  0.1281 -0.1340
 6097W        W10148   6.261   8.977  12.666  0.2185 -0.2707  0.0087
 6098W        W10149   5.441  10.088  11.680  0.3458  0.0041  0.0696
 6099W        W10150   2.805   5.481   3.542  0.3684  0.1440  0.1546
 6100W        W10151   4.004   9.037   1.231  0.1497  0.0824  0.0952
 6101W        W10152   8.000   7.234   1.633  0.0573 -0.3662  0.3671
 6102W        W10153   7.805   2.589   0.958 -0.1372 -0.1761 -0.3039
 6103W        W10154   3.164   5.098  13.526  0.2354  0.2100 -0.1782
 6104W        W10155   0.336   2.119   2.775 -0.0933  0.0962 -0.0746
 6105W        W10156   5.427   4.203   9.486 -0.1692 -0.1904  0.0779
 6106W        W10157   3.710   2.314  11.998  0.2384  0.1411 -0.1795
 6107W        W10158   0.713   5.203   9.872  0.0941 -0.1174 -0.1119
 6108W        W10159   1.294   3.242  13.084  0.0901  0.0326  0.0293
 6109W        W10160   3.421   5.502   3.455  0.1009 -0.0489  0.1498
 6110W        W10161   7.036   8.653   9.658 -0.1016  0.1518 -0.0092
 6111W        W10162   0.589   7.069  10.954 -0.2805  0.0265  0.2375
 6112W        W10163   6.263   6.861   9.769  0.1687  0.1671  0.1479
 6113W        W10164   4.751   5.699   1.113 -0.2287  0.1641 -0.2597
 6114W        W10165   4.849   4.890   2.176  0.1681  0.0032 -0.0083
 6115W        W10166   7.008   2.597   1.430 -0.1631 -0.0192  0.0690
 6116W        W10167   3.559   5.022   9.881 -0.2119 -0.0931 -0.2130
 6117W        W10168   3.333   7.341   9.742 -0.1749 -0.0660 -0.0438
 6118W        W10169   4.630   5.481  10.245 -0.0566  0.1797 -0.2357
 6119W        W10170  10.041   6.693  10.012 -0.2095 -0.0500 -0.0328
 6120W        W10171   5.141   4.517   3.400  0.1040  0.3011  0.0024
 6121W        W10172   7.219   6.277  10.371  0.3435  0.2198  0.0559
 6122W        W10173   8.477   2.790  12.410 -0.0621  0.2726  0.1052
 6123W        W10174   2.047   9.725   1.182 -0.4207  0.1636 -0.1537
 6124W        W10175   9.475   4.878  11.247 -0.0295  0.2315 -0.1754
 6125W        W10176   8.820   8.682   2.926  0.0766  0.0716 -0.0337
 6126W        W10177  10.126   9.729   4.617  0.1176 -0.2589 -0.2501
 6127W        W10178   6.964   5.112   9.119 -0.0812  0.2026  0.4535
 6128W        W10179   3.153   4.679  11.109 -0.2140 -0.4085 -0.1114
 6129W        W10180   0.739   8.174  11.884  0.1882  0.2585 -0.2350
 6130W        W10181   1.954   5.859  10.219 -0.0842 -0.1545  0.0166
 6131W        W10182   6.771   4.340   3.784 -0.3078 -0.1137  0.1022
 6132W        W10183   3.943   7.698   1.386 -0.0597  0.3875  0.0626
 6133W        W10184   6.917   6.292   1.743  0.0746  0.3419 -0.0963
 6134W        W10185   2.340   0.019   9.627 -0.2398 -0.3172  0.0511
 6135W        W10186   1.676   6.520  12.540  0.1839  0.0774  0.0300
 6136W        W10187   2.092   3.453  10.231 -0.2980 -0.0279 -0.0731
 6137W        W10188   4.555   2.918   1.377  0.2317  0.4536 -0.0403
 6138W        W10189   7.263   8.156   4.116 -0.0184 -0.0575 -0.3054
 6139W        W10190   7.563   4.735   3.876 -0.0330 -0.0780 -0.1108
 6140W        W10191   1.072   4.226   4.850 -0.1057  0.1284  0.0685
 6141W        W10192   9.008   3.735  10.006  0.1043 -0.0294 -0.1889
 6142W        W10193   1.054   3.124   4.107  0.1511  0.3086  0.3057
 6143W        W10194   1.270   6.601   4.727  0.4473  0.0741 -0.1087
 6144W        W10195   5.470   6.148   0.019  0.0328 -0.0581 -0.2464
 6145W        W10196   6.512   4.038  10.959  0.1404  0.1676 -0.1869
 6146W        W10197   7.999   0.618  10.232 -0.3462  0.1007 -0.0527
 6147W        W10198   0.364   9.869  11.495  0.1580  0.1561  0.2967
 6148W        W10199   0.994   4.589  11.436 -0.0119  0.0315  0.1248
 6149W        W10200   6.113   1.863   4.261 -0.3894  0.0242 -0.0334
 6150W        W10201   0.921   0.984  11.324 -0.1899  0.0616  0.0385
 6151W        W10202   1.647   4.559  12.784 -0.0199  0.0461  0.0238
 6152W        W10203   8.007   6.088   9.881 -0.0345  0.4901  0.2257
 6153W        W10204   4.506   8.467  10.803 -0.0552 -0.1702  0.1812
 6154W        W10205   7.763   2.472   4.358  0.2973 -0.0923  0.0603
 6155W        W10206   5.562   9.404  12.283  0.0256  0.0852  0.2453
 6156W        W10207   5.009   8.473  11.065  0.1109 -0.1302  0.5575
 6157W        W10208   1.138   1.895  11.720  0.1572  0.2443  0.3536
 6158W        W10209   5.315   9.629  13.848  0.0561 -0.0499  0.1803
 6159W        W10210   7.124   2.892  13.882 -0.1836  0.1451 -0.2162
 6160W        W10211   6.604   3.882   2.716 -0.0493 -0.2423  0.0283
 6161W        W10212   9.101   1.795   3.105  0.3538  0.0570  0.0557
 6162W        W10213   7.468   5.602   1.116 -0.2687 -0.0353  0.0417
 6163W        W10214   8.321   2.677   3.036 -0.1990 -0.4210  0.2785
 6164W        W10215   8.536   9.856  12.590  0.0146 -0.0113 -0.0989
 6165W        W10216   0.939   7.464   1.211 -0.2325 -0.1121  0.1354
 6166W        W10217   2.174   1.222   3.239 -0.0228 -0.1894 -0.0563
 6167W        W10218   9.534   4.798   1.621 -0.4624  0.1633 -0.0492
 6168W        W10219   5.810   8.239   2.317 -0.0603  0.1262  0.0978
 6169W        W10220   4.236   4.772   0.907  0.0482  0.3790 -0.1089
 6170W        W10221   7.245   1.350   3.264  0.1975  0.2000 -0.1193
 6171W        W10222   0.213   9.869  13.805  0.1714  0.3740  0.0571
 6172W        W10223   0.865   9.158   3.920 -0.0586  0.2309 -0.2459
 6173W        W10224   7.175   6.581  13.101  0.1726 -0.0684 -0.0966
 6174W        W10225   9.570   4.372   3.316 -0.1041  0.1071  0.2101
 6175W        W10226   1.627   3.412  11.020 -0.1056  0.0850 -0.0152
 6176W        W10227   2.704   1.042   9.057 -0.1804 -0.0430 -0.1895
 6177W        W10228   8.096   2.760  13.083 -0.0940  0.5311 -0.2490
 6178W        W10229   5.659   0.341   2.714 -0.1025  0.0035  0.2911
 6179W        W10230   9.381   3.156  11.865 -0.0559  0.0225  0.0172
 6180W        W10231   8.654   2.408  11.412  0.0861 -0.1454  0.0721
 6181W        W10232   5.989   6.804  11.084  0.2665  0.1733 -0.2590
 6182W        W10233   2.388   2.190   3.995 -0.0867 -0.2908 -0.0042
 6183W        W10234   4.042   5.825   2.505  0.2526  0.0632  0.1857
 6184W        W10235   2.304   3.780  13.851 -0.0610  0.0846  0.0156
 6185W        W10236   5.216   0.061  12.481 -0.0306 -0.0535  0.0138
 6186W        W10237   8.964   2.533  13.390 -0.2390 -0.0254 -0.3957
 6187W        W10238   6.981   1.563   3.901 -0.0415  0.3592  0.0129
 6188W        W10239   7.056   4.441   1.213  0.0742 -0.1791  0.0051
 6189W        W10240   3.939   9.992  13.111  0.1668  0.2239  0.0454
 6190W        W10241   4.168   8.036   2.644 -0.1235 -0.0622  0.0380
 6191W        W10242   1.442   9.912   3.741  0.1740 -0.1408  0.0931
 6192W        W10243   0.480   7.761   0.964  0.2025  0.0754  0.1661
 6193W        W10244   7.165   4.521  10.455  0.1309 -0.0226 -0.1767
 6194W        W10245   3.273   9.228  12.254 -0.1983 -0.0813  0.0859
 6195W        W10246   1.638   0.384  13.926 -0.0653  0.0112 -0.2687
 6196W        W10247   2.500   0.284   0.206 -0.1417  0.1473  0.2966
 6197W        W10248   9.761   2.585  13.473  0.1194 -0.1049 -0.2356
 6198W        W10249   2.507   1.427  12.612  0.1351 -0.0879  0.1520
 6199W        W10250   0.899   2.993  12.682 -0.0618 -0.0870 -0.1930
 6200W        W10251   3.053   0.804  13.835  0.3324 -0.2169 -0.2597
 6201W        W10252   3.161   7.129   3.154  0.0053  0.1017 -0.2734
 6202W        W10253   7.720   6.449   9.995 -0.0039  0.2415  0.0393
 6203W        W10254   6.500   4.168   9.194  0.1920  0.3609  0.4142
 6204W        W10255   4.282   2.836  12.790 -0.1418  0.0379  0.1049
 6205W        W10256   1.830   3.360   3.840 -0.4669 -0.0618  0.1743
 6206W        W10257   2.622   6.572  13.414  0.0123 -0.1496 -0.1474
 6207W        W10258   2.333   8.202  11.956  0.0320 -0.2217  0.2177
 6208W        W10259   4.453   7.507  11.581 -0.1650 -0.2000 -0.0064
 6209W        W10260   6.785   6.285   2.253 -0.0612 -0.0197 -0.1110
 6210W        W10261   1.802   6.139   2.928  0.0779  0.1985  0.0950
 6211W        W10262   4.531   9.348   1.867 -0.0671 -0.4403  0.0613
 6212W        W10263   0.005   9.445  13.119 -0.1073 -0.0753 -0.0920
 6213W        W10264   3.356   6.075   4.381 -0.1615  0.3549  0.1218
 6214W        W10265   9.436   3.491  10.011  0.1070  0.0472 -0.1737
 6215W        W10266   0.196   8.191  10.108  0.1195  0.2776  0.4054
 6216W        W10267   4.196   9.224  13.439 -0.2095 -0.0959  0.0031
 6217W        W10268   6.733   0.484  12.876  0.1114 -0.2317  0.0249
 6218W        W10269   5.142   8.263   1.032 -0.2156  0.0217  0.1716
 6219W        W10270  10.051   7.885   2.507  0.0583 -0.2204  0.1068
 6220W        W10271   0.716   7.096  13.635 -0.3468 -0.1300  0.0693
 6221W        W10272   9.909   4.642  12.327 -0.3143 -0.1828  0.0636
 6222W        W10273   6.559   0.276   1.195  0.1091  0.0587 -0.0695
 6223W        W10274   4.264   6.049  11.627 -0.1444  0.0307  0.2845
 6224W        W10275   4.560   6.199   1.266 -0.0136  0.0840 -0.0813
 6225W        W10276   7.311   6.681  10.097  0.2249  0.1311  0.1426
 6226W        W10277   5.202   1.730   0.248 -0.1511 -0.1080  0.2434
 6227W        W10278   9.812   4.080   4.225 -0.1371  0.0299 -0.2320
 6228W        W10279   3.927   4.109   4.893  0.0837 -0.0971  0.0122
 6229W        W10280   5.993   7.261   4.181  0.1500 -0.1490 -0.1299
 6230W        W10281   7.515   3.980   3.082 -0.1211  0.1016  0.2956
 6231W        W10282   5.304   1.131   2.603  0.0374  0.2884  0.2989
 6232W        W10283   5.660   9.333   0.223  0.1033  0.2393  0.1125
 6233W        W10284   7.563   4.989  10.157  0.0259 -0.0296 -0.0580
 6234W        W10285   6.059   4.431   9.149  0.2279 -0.2510  0.0816
 6235W        W10286   7.380   8.890  13.589  0.1776 -0.0882 -0.3112
 6236W        W10287   3.173   3.969   2.434 -0.1583  0.1573 -0.1604
 6237W        W10288   5.075   6.376  11.567  0.1094 -0.2291  0.3424
 6238W        W10289  10.129   8.058  13.717 -0.1714  0.2157  0.0815
 6239W        W10290   6.676   6.010  11.162 -0.2290  0.0077  0.0074
 6240W        W10291   0.941   9.044  12.308 -0.0561  0.1211  0.2222
 6241W        W10292   2.322   1.506   4.266  0.5813  0.1831  0.0708
 6242W        W10293   0.116   4.504   9.951 -0.1021 -0.1094  0.1022
 6243W        W10294   1.339   3.233   0.774  0.1935  0.1104  0.0301
 6244W        W10295   9.867   3.464   9.546 -0.2021  0.0717  0.1763
 6245W        W10296   0.909   1.465  11.146  0.2212 -0.1064  0.0421
 6246W        W10297   9.041   6.421  11.222  0.7110  0.0065  0.1195
 6247W        W10298   5.187   8.602  11.828 -0.0028  0.0282  0.3780
 6248W        W10299   6.826   0.256   3.413 -0.4939  0.2029  0.2008
 6249W        W10300   5.733   9.921  13.646 -0.0712  0.2142  0.2699
 6250W        W10301   6.989   6.804   2.077  0.3192  0.2709  0.0507
 6251W        W10302   5.337   1.417   0.988 -0.3015 -0.0477  0.3022
 6252W        W10303   7.094   1.360   4.780  0.0711 -0.0007 -0.1554
 6253W        W10304   9.557   4.828   3.152  0.0504 -0.0413  0.1078
 6254W        W10305   1.336   1.568  12.025 -0.0984  0.3082  0.0582
 6255W        W10306   8.727   0.024   9.917 -0.2531  0.0221 -0.2718
 6256W        W10307   0.332   4.084   4.394 -0.2704  0.0076 -0.1380
 6257W        W10308   7.994   6.557   8.486 -0.0027  0.0156 -0.0125
 6258W        W10309  10.151   4.830   3.121 -0.1986  0.0117 -0.0977
 6259W        W10310   1.897   2.765   2.456  0.1854  0.1015  0.0193
 6260W        W10311   2.911   1.650   9.927 -0.2516  0.0266  0.3005
 6261W        W10312   4.126   8.189  12.543  0.2386 -0.0152 -0.1539
 6262W        W10313   3.057   1.306   2.748 -0.1505 -0.1325  0.0326
 6263W        W10314   5.066   0.921   3.022 -0.0855 -0.1798 -0.1631
 6264W        W10315   4.539   3.829   1.618 -0.1441  0.0233 -0.2298
 6265W        W10316   4.084   2.295  11.191  0.1347  0.0674  0.0485
 6266W        W10317   4.624   8.531   0.080 -0.1190 -0.1258 -0.0683
 6267W        W10318   0.548   2.053   9.030  0.0817 -0.0255 -0.0360
 6268W        W10319   5.905   8.905   0.003 -0.2185 -0.2439  0.3568
 6269W        W10320   1.370   0.157   1.040 -0.2336 -0.2619 -0.1414
 6270W        W10321   1.556   4.718  13.284 -0.5098  0.1260  0.1484
 6271W        W10322   7.999   7.191  12.174 -0.0870 -0.1031 -0.0905
 6272W        W10323   5.171   9.251   2.920 -0.1898  0.1363  0.0137
 6273W        W10324   2.952   3.310   9.703 -0.2571 -0.2654 -0.1745
 6274W        W10325   8.512   9.890   0.801  0.1751 -0.0882  0.2431
 6275W        W10326   1.207   2.481   4.378  0.3880 -0.1821 -0.1843
 6276W        W10327   1.885   8.564  13.608 -0.0599  0.1728 -0.1528
 6277W        W10328   7.252   5.172   0.003 -0.0356  0.1759  0.2361
 6278W        W10329   8.768   3.362  13.114 -0.1686 -0.0325 -0.2565
 6279W        W10330   3.728   8.146   1.509 -0.2308 -0.0262  0.1818
 6280W        W10331   1.332   9.733  12.650 -0.5286  0.0904 -0.0963
 6281W        W10332   3.870   5.425   9.926  0.0198 -0.1703  0.0747
 6282W        W10333   0.920   3.773  11.060  0.2238 -0.2103 -0.0351
 6283W        W10334   7.648   8.115   4.426 -0.0560 -0.0536 -0.3327
 6284W        W10335   6.499   3.095  12.913  0.0633 -0.1961  0.1266
 6285W        W10336   1.498   6.156  12.848 -0.0890 -0.0035 -0.1799
 6286W        W10337   3.279   5.609  10.485 -0.1364  0.3035  0.1580
 6287W        W10338   1.621   6.427  13.348 -0.1341  0.0876  0.1343
 6288W        W10339   2.118   5.963  10.778  0.1216 -0.0046  0.0775
 6289W        W10340   8.038   1.694   3.082  0.0708 -0.0896  0.3119
 6290W        W10341   8.235   7.329   2.582  0.1196  0.0232  0.1848
 6291W        W10342   0.463   0.919   4.808  0.2127  0.0071  0.1221
 6292W        W10343   1.721   7.150  12.725 -0.1559 -0.2005 -0.2593
 6293W        W10344   7.209   9.784   1.065 -0.2087 -0.1411 -0.2434
 6294W        W10345   4.839   4.582  12.515  0.3306  0.1022 -0.0662
 6295W        W10346   9.220   7.655  13.750 -0.3375 -0.3219 -0.0722
 6296W        W10347   0.893   0.958   0.096 -0.2114 -0.1579 -0.1336
 6297W        W10348   1.137   1.770  12.534 -0.0032  0.2766 -0.3425
 6298W        W10349   4.138   1.199  10.983  0.0833 -0.3719  0.2340
 6299W        W10350   8.608   5.796  12.271 -0.4589  0.2859  0.2084
 6300W        W10351   3.339   8.699  13.700 -0.1927 -0.0597  0.4242
 6301W        W10352   7.835   9.632  12.175 -0.1723 -0.1127 -0.0269
 6302W        W10353   6.597   8.572   1.107  0.2717  0.1676 -0.4008
 6303W        W10354   3.284   7.972  12.309  0.1856  0.0538 -0.0147
 6304W        W10355   2.129   7.768  11.842 -0.0974  0.0238  0.0395
 6305W        W10356   6.258   5.030  12.993  0.2537 -0.3110  0.0639
 6306W        W10357  10.170   7.706   0.132 -0.1357  0.0831 -0.3486
 6307W        W10358   0.607   8.050  12.490  0.2725  0.5529  0.0168
 6308W        W10359   9.907   2.935   1.729  0.2027 -0.2663  0.2141
 6309W        W10360   2.431   1.605   0.316  0.0333 -0.6010  0.0845
 6310W        W10361   0.238   9.641   3.088 -0.1478  0.2719  0.0432
 6311W        W10362   2.418   7.228   3.531 -0.3198 -0.1010 -0.0388
 6312W        W10363   4.699   7.348  10.203 -0.0710  0.2502  0.1169
 6313W        W10364   1.618   4.149   0.785 -0.0060 -0.1413 -0.1277
 6314W        W10365   8.014   5.104   5.108  0.2672 -0.1365  0.2079
 6315W        W10366   3.068   2.132   4.061  0.0539  0.1396  0.0536
 6316W        W10367   7.074   3.812  11.754  0.1821 -0.4960 -0.0291
 6317W        W10368   8.665   8.370   4.591  0.0054 -0.3726  0.0642
 6318W        W10369   7.129   2.024  12.561  0.2319 -0.0699  0.2958
 6319W        W10370   9.452   8.690  12.589 -0.1490 -0.0300 -0.0500
 6320W        W10371  10.081   9.340  11.693  0.3294 -0.3807 -0.3973
 6321W        W10372   3.831   4.678   3.348  0.0742 -0.1324 -0.1369
 6322W        W10373   2.696   9.433   2.393  0.3907  0.4283 -0.2056
 6323W        W10374   6.244   5.114   4.781 -0.0541 -0.2001  0.1078
 6324W        W10375   1.113   2.660   4.866 -0.0850  0.3594 -0.0047
 6325W        W10376   7.057   9.307   1.875  0.2822  0.2022  0.0359
 6326W        W10377   9.951   8.699  11.544 -0.3622  0.0222  0.2480
 6327W        W10378   2.457   4.391  13.218  0.0422 -0.2125  0.1112
 6328W        W10379   5.836   4.821   4.823 -0.0054 -0.1044  0.4911
 6329W        W10380   2.778   7.184  13.256  0.1242  0.2616  0.4333
 6330W        W10381   2.329   9.644   3.880 -0.1239 -0.2257 -0.3059
 6331W        W10382   2.006   0.489   9.493 -0.0273 -0.0046 -0.1632
 6332W        W10383   7.749   2.643  12.001 -0.4165  0.1181  0.3396
 6333W        W10384   7.980   7.951  11.039 -0.2411  0.0994  0.3031
 6334W        W10385   0.273   2.642  13.081  0.2729  0.0944 -0.1840
 6335W        W10386   5.532  10.141   3.155 -0.0471  0.1140  0.1200
 6336W        W10387   0.782   2.048   9.566  0.3335 -0.4399  0.2809
 6337W        W10388   1.166   8.656   0.257 -0.1925  0.0814  0.2244
 6338W        W10389   0.747   7.399   0.278 -0.1335  0.1294 -0.2073
 6339W        W10390   1.794   3.602  13.755 -0.0433  0.0350 -0.1663
 6340W        W10391   5.000   9.713   0.927 -0.1784  0.3351 -0.0004
 6341W        W10392   3.544   3.530   0.533 -0.2630  0.2157  0.1674
 6342W        W10393   7.240   5.791  13.615 -0.2523  0.2129 -0.1752
 6343W        W10394   8.181   8.459  12.441 -0.0758  0.4590  0.3630
 6344W        W10395   1.529   5.198  13.627  0.1508 -0.0426  0.1613
 6345W        W10396   2.716   1.750  12.917  0.1010  0.1994  0.0528
 6346W        W10397   4.347   1.670   2.456 -0.0200 -0.0900 -0.1700
 6347W        W10398   8.617   6.418   9.139  0.2081  0.3193 -0.1300
 6348W        W10399   5.182   9.859  10.786 -0.2826  0.3050  0.0534
 6349W        W10400   4.875   1.792  11.185 -0.2147 -0.0420  0.1359
 6350W        W10401   1.890   7.206   3.797  0.0361 -0.2236 -0.2249
 6351W        W10402   9.885   3.701  10.117 -0.0268 -0.0172  0.1911
 6352W        W10403   7.132   4.998   0.560 -0.0678  0.2748 -0.4013
 6353W        W10404   5.011   3.625   4.453  0.5690 -0.1510 -0.5452
 6354W        W10405   8.591   5.100  10.718  0.1376 -0.1354 -0.0797
 6355W        W10406   3.572   1.838  13.862 -0.0917  0.0924 -0.2800
 6356W        W10407   7.317   3.811  10.948 -0.1039  0.3748  0.1306
 6357W        W10408   6.306   1.552   0.787  0.0966  0.1609 -0.0197
 6358W        W10409   2.923   0.709   1.354  0.0379  0.1085 -0.2353
 6359W        W10410   4.652   4.514   9.042 -0.0998 -0.3425 -0.1159
 6360W        W10411   8.048   2.373  13.535 -0.0724 -0.0187  0.0111
 6361W        W10412   9.972   4.183  13.464  0.1335  0.2547 -0.0909
 6362W        W10413   6.119   4.015  12.722 -0.2608  0.1014 -0.3801
 6363W        W10414   5.693   0.135  12.496 -0.0348  0.2172 -0.1235
 6364W        W10415   0.130   5.825   5.213  0.2609  0.2192  0.0043
 6365W        W10416   0.118   9.642  12.020 -0.5879  0.0855  0.2943
 6366W        W10417   5.447   5.358  10.991 -0.0065  0.1877 -0.1920
 6367W        W10418   1.854   4.461   3.633 -0.0154  0.4438 -0.0841
 6368W        W10419   3.952   6.772  10.036  0.0972 -0.1637 -0.0106
 6369W        W10420   4.518   0.859   1.857 -0.2941 -0.2250  0.0877
 6370W        W10421   8.466   6.406  11.224 -0.1449 -0.1412  0.1651
 6371W        W10422   5.263   2.936   3.791  0.0312 -0.1319 -0.1937
 6372W        W10423   7.493   4.001  11.396  0.2156 -0.1970 -0.1910
 6373W        W10424   5.136   6.139   4.860 -0.0402  0.1562  0.1845
 6374W        W10425   0.741   3.842  11.986  0.1944  0.1937  0.0291
 6375W        W10426   6.435   7.361  10.912  0.0168  0.0887  0.0506
 6376W        W10427   9.074   5.059   2.749  0.0013 -0.0303 -0.1111
 6377W        W10428   0.403   3.070   1.755 -0.1729 -0.0638 -0.2374
 6378W        W10429   1.250   3.422   2.263 -0.0930 -0.1370  0.0175
 6379W        W10430   2.819   9.165   3.648  0.1180  0.0165 -0.3937
 6380W        W10431   6.856   4.761   0.234 -0.2186 -0.0609 -0.0407
 6381W        W10432   0.081   6.408   1.352  0.2861  0.0186 -0.0299
 6382W        W10433   3.964   0.607   0.804 -0.1488 -0.2100  0.1462
 6383W        W10434   6.710   5.055   9.593 -0.0032  0.2220 -0.0567
 6384W        W10435   0.280   5.025   0.515 -0.1286  0.0383  0.2211
 6385W        W10436   0.970   0.508   3.914  0.0942 -0.0238  0.0420
 6386W        W10437   8.387   5.093  13.171 -0.1216 -0.2617  0.1605
 6387W        W10438   8.449   9.701   3.581 -0.0220  0.1112 -0.1064
 6388W        W10439   8.340   7.973  12.502  0.1322 -0.1958  0.1950
 6389W        W10440   7.697   5.366  10.436  0.2354 -0.0845  0.2233
 6390W        W10441   6.510   1.010   4.526  0.0080  0.1974  0.0476
 6391W        W10442   5.252   1.263  11.859  0.1810  0.2284  0.2418
 6392W        W10443   2.237   8.629   3.976  0.0241  0.2411 -0.0906
 6393W        W10444   6.260   5.371  13.467 -0.0519 -0.4140 -0.1374
 6394W        W10445   6.327   7.898  12.388 -0.0578  0.0980 -0.0380
 6395W        W10446   9.127   3.588   8.502 -0.1308  0.0866  0.3341
 6396W        W10447   3.158   7.983  11.380  0.3061  0.1565 -0.0968
 6397W        W10448   3.666   2.683   0.441 -0.1702 -0.2302 -0.1114
 6398W        W10449   6.948   0.281   0.133  0.0295 -0.0732  0.4579
 6399W        W10450   8.851   3.341   8.803 -0.0121  0.1436 -0.2630
 6400W        W10451   7.178   7.168  10.167  0.2166 -0.1637 -0.2524
 6401W        W10452   8.208   4.962   5.507  0.0430  0.1357  0.0289
 6402W        W10453   7.366   5.409  10.918  0.1116  0.1857 -0.2338
 6403W        W10454   6.068   7.684  10.827 -0.0608 -0.0664 -0.0414
 6404W        W10455   7.025   2.643   2.976 -0.2858 -0.2848  0.0288
 6405W        W10456   7.422   9.613  10.922  0.1344 -0.1269  0.0170
 6406W        W10457   5.324   4.852   3.010  0.0414  0.1466  0.1753
 6407W        W10458   8.985   8.727   3.673 -0.2586  0.3624 -0.4675
 6408W        W10459   4.389   8.835  10.377 -0.1157  0.0168  0.1620
 6409W        W10460   4.608   7.272  13.085  0.3609  0.0140 -0.3008
 6410W        W10461   6.870   6.967   0.922  0.1649  0.2154  0.1251
 6411W        W10462   4.147   6.069   4.446 -0.0179 -0.0050 -0.0945
 6412W        W10463   9.977   1.370   9.465  0.0181 -0.0490  0.1687
 6413W        W10464   1.993   9.106   0.147  0.4249  0.2270 -0.1608
 6414W        W10465   8.456   7.047  13.427 -0.0492  0.2548 -0.0786
 6415W        W10466   9.640   4.592   9.329 -0.2746  0.2227  0.1235
 6416W        W10467   0.777   7.301   5.239  0.0353  0.2309 -0.1056
 6417W        W10468   8.565   7.083  12.196 -0.0197 -0.0630 -0.3429
 6418W        W10469   3.370   6.652  11.771 -0.0106  0.1949  0.0744
 6419W        W10470   9.048   9.168   0.991  0.3078  0.0366 -0.1630
 6420W        W10471   5.536   1.900   1.078  0.0021 -0.1298 -0.0812
 6421W        W10472   1.546   7.596  11.833 -0.2864 -0.0629 -0.2198
 6422W        W10473   6.072   9.550   0.617  0.1065  0.1019 -0.0608
 6423W        W10474   9.674   3.177   3.981  0.0851  0.1134 -0.4674
 6424W        W10475   0.662   2.306  12.838  0.2769 -0.0481 -0.1326
 6425W        W10476   7.410   8.137   0.062 -0.0973 -0.0580  0.0577
 6426W        W10477   6.775   3.433  12.603  0.0588  0.0840  0.1797
 6427W        W10478  10.171   6.225   4.254  0.1097 -0.1370 -0.0110
 6428W        W10479   2.799   5.738  13.151  0.0532 -0.2682  0.3469
 6429W        W10480   7.312   6.957  10.687  0.1506  0.1009  0.0141
 6430W        W10481   1.854   3.807   9.759 -0.6864  0.2466  0.1374
 6431W        W10482   1.016   3.625   3.956 -0.0929 -0.1409  0.0077
 6432W        W10483   9.351   0.236   9.025  0.1011  0.0042 -0.1898
 6433W        W10484   4.803   5.996  13.419 -0.1891 -0.0711 -0.1281
 6434W        W10485   5.336   0.197   0.311  0.1263 -0.0328  0.1476
 6435W        W10486   0.025   6.456  11.793 -0.2291 -0.1072 -0.0189
 6436W        W10487   8.919   8.353   4.103 -0.0819 -0.1596  0.1696
 6437W        W10488   4.656   3.118  13.058 -0.0813  0.1861 -0.0438
 6438W        W10489   4.526   1.849  13.510 -0.0208 -0.3420 -0.2981
 6439W        W10490   8.507   6.843   1.624 -0.0443 -0.0667  0.1846
 6440W        W10491   4.745   2.550   0.355  0.0050 -0.0845 -0.2405
 6441W        W10492   7.493   2.352   1.350  0.0093 -0.1287  0.3878
 6442W        W10493   3.265   4.294  10.456  0.0261 -0.0773  0.1447
 6443W        W10494   8.732   6.427   1.108 -0.2003 -0.1363 -0.0287
 6444W        W10495   8.913   8.579  12.883 -0.1097  0.1336  0.1566
 6445W        W10496   2.273   7.599   0.919  0.0134 -0.0443  0.0318
 6446W        W10497  10.038   4.977   4.444 -0.0048  0.2144  0.2156
 6447W        W10498   1.384   5.237   4.541 -0.0086  0.1144 -0.2431
 6448W        W10499   2.570   0.796   2.278  0.2215 -0.0511  0.1037
 6449W        W10500   9.778   5.405   4.509 -0.1681 -0.3387  0.1995
 6450W        W10501   2.885   8.338   9.930  0.1232 -0.0821 -0.1280
 6451W        W10502   9.567   3.989  11.520 -0.2955 -0.2027  0.0755
 6452W        W10503   2.755   8.675   3.840 -0.1404 -0.0295  0.1146
 6453W        W10504   6.234   2.795  10.072 -0.3916 -0.0018  0.1770
 6454W        W10505   8.339   6.762   3.913  0.1660  0.4980 -0.2547
 6455W        W10506   8.895   8.711  11.434  0.1047 -0.1067  0.1209
 6456W        W10507   9.215   9.213   3.798  0.0801 -0.2274 -0.3118
 6457W        W10508   6.046   3.284   1.238 -0.0471  0.1989  0.0757
 6458W        W10509   8.310   6.181   1.077  0.0111 -0.1879  0.1219
 6459W        W10510   1.472   5.401   4.054 -0.1845 -0.0719 -0.3430
 6460W        W10511   9.382   0.831   3.773  0.2785  0.1152  0.0413
 6461W        W10512   1.634   8.069   9.236 -0.1827  0.2104  0.0191
 6462W        W10513   2.611   6.312   9.088  0.1571  0.0678  0.1664
 6463W        W10514   3.461   1.517   4.600  0.3349  0.2953 -0.1080
 6464W        W10515   5.736   3.878  11.481  0.0683  0.1318  0.0582
 6465W        W10516   6.497   2.973   2.945  0.2327 -0.2575 -0.1134
 6466W        W10517   4.320   4.550  11.335 -0.0684 -0.1206 -0.1664
 6467W        W10518   8.746   2.483   4.776  0.0086  0.3783 -0.0179
 6468W        W10519   6.679   7.735   5.161  0.0877 -0.0066  0.1868
 6469W        W10520   3.896   5.503   1.018 -0.0856  0.2114 -0.1063
 6470W        W10521   4.468   0.274  10.135  0.0202 -0.1379  0.2312
 6471W        W10522   9.386   9.804  11.356 -0.0168 -0.0011  0.2100
 6472W        W10523   0.860   8.511  13.554  0.2903 -0.1754  0.1794
 6473W        W10524   5.903   6.629  13.687  0.0822  0.3052 -0.1766
 6474W        W10525   0.051   3.701  10.523  0.0539 -0.3994  0.2448
 6475W        W10526   9.295   4.583   8.932  0.3178  0.2428 -0.0475
 6476W        W10527   6.270   9.832   2.375 -0.0303 -0.1120 -0.0534
 6477W        W10528   6.188   6.355   8.965 -0.0904  0.2823 -0.1640
 6478W        W10529   9.755   2.203  12.514 -0.0517 -0.2041  0.1616
 6479W        W10530   6.426   4.579   3.410 -0.0849  0.1286  0.0293
 6480W        W10531   1.863   1.694  13.295  0.2415 -0.0245  0.1712
 6481W        W10532   4.866   5.632   2.251  0.0276  0.1063 -0.3755
 6482W        W10533   7.552   7.103   3.458 -0.2590 -0.1085  0.0577
 6483W        W10534   3.419   0.455  11.261  0.0729  0.0764 -0.2981
 6484W        W10535   0.935   6.627   4.025  0.2469 -0.4271 -0.1759
 6485W        W10536   0.033   8.283   2.660  0.0970 -0.1845 -0.3897
 6486W        W10537   6.666   5.910   2.555 -0.0561 -0.0153  0.0034
 6487W        W10538   6.528   9.376   0.430 -0.3087  0.2778 -0.1374
 6488W        W10539   9.285   7.308   5.279 -0.1784 -0.2003  0.0347
 6489W        W10540  10.109   4.511   4.100 -0.0001  0.2085 -0.0092
 6490W        W10541   7.676   5.462  11.793  0.3401  0.1865  0.3703
 6491W        W10542   8.380   1.944   4.248  0.0169 -0.2031  0.1112
 6492W        W10543   1.041   5.459  10.767  0.1490  0.2148 -0.3551
 6493W        W10544   5.608   3.846  12.556 -0.0262 -0.1606 -0.3107
 6494W        W10545   4.701   6.530   3.354 -0.0318  0.2749  0.0890
 6495W        W10546   2.275   3.078   3.737  0.2896 -0.0409 -0.1783
 6496W        W10547   9.996   0.118  13.061 -0.2940 -0.0183  0.0088
 6497W        W10548   8.615   4.624  10.583  0.1581  0.3444 -0.1560
 6498W        W10549   1.292   2.554   5.369 -0.2290  0.0634 -0.1187
 6499W        W10550   4.808   0.417  11.099  0.1928  0.2762  0.2166
 6500W        W10551   2.542   9.187   0.240 -0.1759 -0.1188  0.1124
 6501W        W10552   4.566   5.264   1.998 -0.0968  0.0672 -0.0621
 6502W        W10553  10.087   2.848   4.791 -0.1197  0.0207 -0.0580
 6503W        W10554   3.293   3.374   3.884  0.2321  0.2455 -0.0064
 6504W        W10555   0.398   7.344   1.313  0.0950  0.2862 -0.0712
 6505W        W10556   9.327  10.152  11.033  0.4677  0.0050 -0.2903
 6506W        W10557   8.302   4.325   2.761  0.2353 -0.1128  0.0019
 6507W        W10558   6.983   6.960   3.717  0.0076 -0.2873  0.1209
 6508W        W10559   2.294   5.211  12.076  0.5801  0.0130 -0.0252
 6509W        W10560   9.381   1.322   3.768 -0.0426 -0.0059  0.1471
 6510W        W10561   1.485   3.436   4.176 -0.0049  0.2003 -0.0855
 6511W        W10562   9.170   6.539  13.432  0.1991  0.0399 -0.0959
 6512W        W10563   4.862   9.238  13.214 -0.1012  0.0511 -0.3581
 6513W        W10564   3.505   0.629  12.158  0.0298  0.0933 -0.0376
 6514W        W10565   0.305   4.119   5.614  0.2024 -0.1661 -0.2294
 6515W        W10566   3.054   5.711  11.559 -0.1657 -0.4184 -0.0385
 6516W        W10567   9.517   9.116  10.596  0.2308  0.1124  0.0457
 6517W        W10568   3.952   1.313   2.489 -0.0013  0.0169  0.2976
 6518W        W10569   9.161   5.087  10.537 -0.0614  0.1056  0.0045
 6519W        W10570   4.293   5.246   1.060 -0.3686  0.1654  0.0395
 6520W        W10571   6.907   3.935  12.625  0.1982 -0.1376  0.0816
 6521W        W10572   1.058   6.623   9.205 -0.3500  0.0362 -0.2129
 6522W        W10573   2.144   6.342  10.095 -0.2438  0.0708 -0.4035
 6523W        W10574   1.572   2.027   4.241 -0.0875  0.0924 -0.6016
 6524W        W10575   1.501   7.205   3.438 -0.2386  0.2480 -0.1527
 6525W        W10576   7.471   5.711   3.899 -0.0355 -0.0266  0.2615
 6526W        W10577   5.484   8.230  12.690 -0.2075  0.0362 -0.1838
 6527W        W10578   5.444   9.788   1.179  0.2404 -0.0156  0.1688
 6528W        W10579   6.016   1.936   0.688 -0.1293 -0.0166  0.2034
 6529W        W10580   5.420   5.122  10.542  0.1853 -0.2569 -0.0908
 6530W        W10581   6.882  10.174   0.981 -0.0278  0.4835 -0.1148
 6531W        W10582   9.156   4.291  11.631  0.3206  0.1540 -0.0689
 6532W        W10583   0.329   7.433  11.963 -0.2538 -0.2810  0.0627
 6533W        W10584   0.347   1.807   4.901  0.2244  0.0794 -0.2388
 6534W        W10585   3.236   0.870   2.937 -0.3017 -0.3121  0.0715
 6535W        W10586   2.568   3.336  11.913 -0.5826  0.1991 -0.0634
 6536W        W10587   6.088   1.578  13.777 -0.1945  0.2380  0.1800
 6537W        W10588   7.866   7.468  11.717  0.1667 -0.0094 -0.1407
 6538W        W10589   4.847   0.452   3.028  0.3764  0.0366 -0.2163
 6539W        W10590   8.111   4.920   2.013  0.0420 -0.3919 -0.0970
 6540W        W10591   2.794   4.602   4.638 -0.3455 -0.1224 -0.1726
 6541W        W10592   2.690   6.980   0.269  0.3299  0.2117  0.5421
 6542W        W10593   7.813   0.291  13.487 -0.0911  0.2201 -0.0206
 6543W        W10594   9.124   8.869  12.082  0.3702 -0.0147 -0.3527
 6544W        W10595   9.554   8.846  10.146  0.1809  0.1032  0.0909
 6545W        W10596   4.227   1.801   5.141 -0.1489 -0.0355  0.0724
 6546W        W10597   0.243   2.770   3.253 -0.0396  0.2866  0.2196
 6547W        W10598  10.173   5.281   9.699  0.1239  0.0153 -0.3393
 6548W        W10599   5.387   0.619   0.049 -0.1624  0.2636  0.0094
 6549W        W10600   4.373   3.670   2.106 -0.0975  0.2141  0.1622
 6550W        W10601   4.501   0.451   0.405 -0.0438 -0.1691  0.1567
 6551W        W10602   8.777   1.134  13.059 -0.3421  0.3589 -0.2173
 6552W        W10603   2.807   8.535  13.513 -0.1277  0.0207 -0.2682
 6553W        W10604   8.563   1.418  11.875 -0.1040  0.2084  0.1623
 6554W        W10605   4.110   8.560  12.211 -0.2458 -0.0498  0.0165
 6555W        W10606   1.635   1.727  11.614  0.1647 -0.2108 -0.0522
 6556W        W10607   9.900   4.542  12.858  0.3903 -0.0237 -0.1228
 6557W        W10608   9.903   3.189   8.904  0.1295 -0.1623 -0.3077
 6558W        W10609   9.051   7.155   4.861 -0.1247 -0.1674  0.1786
 6559W        W10610  10.085   0.002  10.594 -0.0665  0.0071  0.2467
 6560W        W10611   1.401   9.525   4.612 -0.0433 -0.1002 -0.1763
 6561W        W10612   6.968   5.797   4.088 -0.0157  0.2277  0.1344
 6562W        W10613   7.878   3.353  10.972 -0.2010 -0.0530 -0.2510
 6563W        W10614   3.662   7.769   2.051 -0.4704 -0.0679 -0.1332
 6564W        W10615   3.486   3.919  11.589  0.1797  0.1609  0.0844
 6565W        W10616   5.729   4.424  11.512 -0.0457 -0.0074 -0.0679
 6566W        W10617   1.859   5.128   4.768 -0.1434  0.2152  0.0747
 6567W        W10618   2.966   6.147  13.550  0.0194 -0.0377 -0.0362
 6568W        W10619   1.823   8.653   3.589  0.0452 -0.0745 -0.5000
 6569W        W10620   5.290   3.060   5.516 -0.1941  0.0133  0.2171
 6570W        W10621   9.525   0.819  12.584 -0.0407  0.0151 -0.0129
 6571W        W10622  10.069   2.503   9.479 -0.0717 -0.2249 -0.1341
 6572W        W10623   1.887   9.508  11.351  0.0680  0.0771 -0.1329
 6573W        W10624   3.685   0.912  13.552  0.3116  0.0400 -0.3454
 6574W        W10625   6.980  10.172   2.829  0.0127  0.1656  0.0746
 6575W        W10626   1.523   0.691   9.753  0.2867 -0.0759  0.0331
 6576W        W10627   8.303   4.020   9.376 -0.1831 -0.2132 -0.1162
 6577W        W10628   4.201   5.923   9.528  0.0173 -0.1678 -0.1378
 6578W        W10629   2.337   4.113  12.284  0.0137 -0.0237  0.2014
 6579W        W10630   3.056   1.328   3.785  0.0012 -0.0428 -0.0483
 6580W        W10631   1.252   4.929  12.830  0.1033 -0.2989  0.1924
 6581W        W10632   1.047  10.039   1.193 -0.1802 -0.0370  0.0703
 6582W        W10633   3.846   1.065   0.446 -0.3389 -0.0133  0.0843
 6583W        W10634   7.798   1.648   1.744  0.3475  0.1588  0.0856
 6584W        W10635   5.514   4.783   9.052 -0.0441 -0.1647 -0.1621
 6585W        W10636   3.050   2.028   2.295 -0.0094  0.5063  0.0712
 6586W        W10637   7.081   3.195  10.034 -0.3147 -0.2976 -0.1383
 6587W        W10638   0.658   4.996  10.748 -0.1679  0.2001 -0.0172
 6588W        W10639   3.737   0.679   2.932 -0.0172 -0.3468 -0.1018
 6589W        W10640   1.993   7.668   4.015  0.1796  0.2957  0.2546
 6590W        W10641   2.089   9.956   4.181 -0.0848  0.0158 -0.2276
 6591W        W10642   9.212   0.833  13.035 -0.1507 -0.0265  0.0173
 6592W        W10643   3.069   3.206   3.412  0.1265 -0.1503  0.0603
 6593W        W10644   7.502   4.811  13.576  0.0710  0.2263 -0.1873
 6594W        W10645   1.799   2.870   9.344 -0.0109 -0.1340  0.0153
 6595W        W10646   1.066   5.296  10.269 -0.2435  0.0508  0.0122
 6596W        W10647   4.766   6.661   2.862 -0.1758  0.1748 -0.0231
 6597W        W10648   4.920   5.580   8.527  0.0167  0.1855 -0.3952
 6598W        W10649   7.913   1.959   1.338 -0.0683  0.1483 -0.1834
 6599W        W10650   1.606   1.918  12.349 -0.2493  0.2248  0.2957
 6600W        W10651   8.317   3.363   2.145  0.2772  0.1627  0.0712
 6601W        W10652   0.839   4.047   4.171  0.0669 -0.0020 -0.1861
 6602W        W10653   4.180   8.521   0.759 -0.3128 -0.0781  0.1475
 6603W        W10654   5.882   5.172  12.589  0.0683  0.2203 -0.0103
 6604W        W10655   8.074  10.046   1.155 -0.0956 -0.0607  0.0911
 6605W        W10656   2.249   3.705  11.768 -0.5955 -0.0440  0.2673
 6606W        W10657   0.044   9.598   2.616 -0.1175 -0.1006 -0.2773
 6607W        W10658   5.319   6.806  11.570 -0.3694 -0.1442 -0.0063
 6608W        W10659   0.976   8.563   3.979  0.0715 -0.1151 -0.3249
 6609W        W10660   3.149   5.804   0.005 -0.2504  0.0189 -0.0900
 6610W        W10661   6.844   9.255   3.682  0.1796  0.0450 -0.0264
 6611W        W10662   6.572   2.070  10.348 -0.0631  0.0563  0.3061
 6612W        W10663   2.243   5.109  10.605  0.0733 -0.2366 -0.0660
 6613W        W10664   3.060   4.489  12.709  0.1018 -0.1178 -0.0933
 6614W        W10665   8.155   2.871   1.136  0.1484  0.0018  0.3785
 6615W        W10666   1.539   1.805  12.871  0.0801 -0.0245 -0.0620
 6616W        W10667   9.087   8.945  10.416  0.2837 -0.1776  0.3131
 6617W        W10668   8.073   0.411  12.274 -0.1680 -0.3505  0.2639
 6618W        W10669   6.218   1.780   9.903 -0.0613 -0.0501  0.0082
 6619W        W10670   3.224   8.183   9.583  0.1381  0.0460 -0.0528
 6620W        W10671   9.676   2.083  13.364  0.1484 -0.0663  0.0498
 6621W        W10672   7.448   4.241  13.675 -0.1358  0.1921  0.0023
 6622W        W10673   1.550   7.989   9.906 -0.2352 -0.0480  0.0540
 6623W        W10674   8.963   7.271   9.343 -0.2824  0.0212  0.1704
 6624W        W10675   4.345   6.557  11.503  0.2024  0.2081 -0.0248
 6625W        W10676   8.229   5.749  11.928  0.0444 -0.0893  0.3024
 6626W        W10677   7.810   6.195  10.444 -0.1509 -0.3553 -0.1728
 6627W        W10678   7.323   3.420  13.243  0.1172  0.2634 -0.1257
 6628W        W10679   7.443  10.004  12.744  0.1008 -0.1442 -0.1687
 6629W        W10680   7.556   9.487   9.925 -0.6368 -0.0143  0.0049
 6630W        W10681   1.465   6.977   2.973  0.4081  0.1644 -0.0233
 6631W        W10682   7.540   9.900  11.346  0.1504 -0.3630  0.0801
 6632W        W10683   3.062  10.177   2.052  0.3222  0.2061  0.6588
 6633W        W10684   7.797  10.045   3.191 -0.1083  0.2197 -0.2624
 6634W        W10685   6.394   2.464  10.467  0.0401  0.0764 -0.0781
 6635W        W10686   5.514   5.450  12.356 -0.1691  0.2110  0.0259
 6636W        W10687   5.119   4.731  13.857 -0.1522  0.0589  0.0335
 6637W        W10688   2.976   3.276   4.290 -0.1314  0.1419  0.3351
 6638W        W10689   8.292   5.275  11.974 -0.2283 -0.0224  0.0480
 6639W        W10690   8.209   4.392   4.312 -0.0938 -0.0109 -0.1713
 6640W        W10691   5.186   7.092   0.144  0.1439 -0.0975  0.0407
 6641W        W10692   5.709   2.353   0.765  0.4027 -0.0787 -0.4849
 6642W        W10693   4.265   9.950  10.914 -0.2177 -0.0220  0.0923
 6643W        W10694   5.561   2.407   1.317 -0.1048 -0.1325  0.2590
 6644W        W10695  10.038   2.501   1.434  0.0957 -0.1726  0.0322
 6645W        W10696   6.973   8.670   3.539  0.1510 -0.1757  0.0982
 6646W        W10697   8.960  10.028  12.207 -0.3061  0.0318  0.0547
 6647W        W10698   0.833   1.857   0.038 -0.2864 -0.2068 -0.2823
 6648W        W10699   9.156   1.429   2.159  0.2705 -0.2341  0.1068
 6649W        W10700   1.520   7.333   1.570  0.1170  0.1243 -0.4348
 6650W        W10701   0.492   0.711   1.548  0.0643  0.2893 -0.2422
 6651W        W10702   6.088   9.691   9.370 -0.0797  0.0760  0.1352
 6652W        W10703   7.733   3.592   0.826 -0.0902 -0.2959 -0.0194
 6653W        W10704   9.659   8.851  13.436  0.0023 -0.1341 -0.1523
 6654W        W10705   7.331   3.507   3.041 -0.0369  0.1566  0.2317
 6655W        W10706   2.296   6.763   3.796 -0.0746  0.0275  0.0613
 6656W        W10707   5.716   2.547  13.408  0.0516 -0.2182 -0.0425
 6657W        W10708   5.958   2.584  12.070 -0.4813 -0.1523 -0.0126
 6658W        W10709   6.538   4.751   8.342 -0.2929 -0.0982  0.0064
 6659W        W10710   7.932   6.703   2.501 -0.3593  0.1612  0.3409
 6660W        W10711   6.351   6.182   1.080 -0.3934 -0.1207  0.2348
 6661W        W10712   2.033   5.317  12.906 -0.1754 -0.4458  0.5311
 6662W        W10713   7.226   8.693  12.506  0.3137 -0.1611 -0.2529
 6663W        W10714   9.160   9.746  10.815 -0.1750  0.2691 -0.1661
 6664W        W10715   3.996   0.604   0.319 -0.1270 -0.0702 -0.1447
 6665W        W10716   3.990   1.447   1.131  0.1888  0.0578 -0.1986
 6666W        W10717   6.005   8.118   0.562 -0.2431  0.1619  0.1243
 6667W        W10718   0.988   5.945   2.916  0.1750  0.1174  0.4153
 6668W        W10719   1.560   2.424   2.431  0.1165 -0.1218  0.0974
 6669W        W10720   7.164   7.263  11.428 -0.0453 -0.1409 -0.2199
 6670W        W10721   7.471   8.606   9.987 -0.1161 -0.1490 -0.2279
 6671W        W10722   3.235   7.928   2.288  0.0121  0.0589  0.0582
 6672W        W10723   8.322   8.954   0.570  0.0652 -0.2864  0.0868
 6673W        W10724   9.381   5.201   1.847  0.0279 -0.1425 -0.1399
 6674W        W10725   1.547   6.143  11.192  0.2766  0.1780 -0.1723
 6675W        W10726   3.635   5.212   0.123 -0.0150  0.0696  0.1043
 6676W        W10727   7.940   1.943  12.117  0.2535 -0.2129 -0.0718
 6677W        W10728   6.294   8.268  10.948 -0.2634  0.3963 -0.0400
 6678W        W10729   3.259   3.712   1.340 -0.4456 -0.2841 -0.0183
 6679W        W10730   2.310   0.025   4.523  0.0241  0.1333  0.2674
 6680W        W10731   2.742   6.171  10.035  0.2384 -0.0873 -0.0589
 6681W        W10732   2.631   8.186   1.515 -0.2712 -0.1322  0.0537
 6682W        W10733   1.305   6.012  13.857  0.1833  0.1222 -0.1519
 6683W        W10734   1.200   8.103   2.330 -0.2234 -0.1130 -0.2727
 6684W        W10735   7.601   5.133  11.298  0.3259 -0.1112 -0.0536
 6685W        W10736   4.370   1.265   3.394 -0.1253  0.2213 -0.0095
 6686W        W10737   2.034   7.944   9.753  0.0113 -0.1407 -0.2537
 6687W        W10738   1.934   5.497   4.245  0.0682 -0.2749 -0.1311
 6688W        W10739   1.434   7.796   5.075 -0.0443  0.4903 -0.0712
 6689W        W10740   2.335   7.338  13.022 -0.0356 -0.3631  0.1938
 6690W        W10741   1.410   5.949   3.139  0.3865  0.1175 -0.0762
 6691W        W10742   4.411   0.660   1.421 -0.4918 -0.0749  0.0020
 6692W        W10743   9.579   6.782   0.753 -0.0751  0.4533  0.0979
 6693W        W10744   8.085   3.241   1.632 -0.0462 -0.3613  0.3985
 6694W        W10745   5.455   8.894  11.019 -0.1884 -0.0215 -0.1555
 6695W        W10746   3.044   7.300   0.181  0.2109 -0.2143  0.3124
 6696W        W10747   4.434   7.923  13.004  0.0135 -0.2838  0.1989
 6697W        W10748   9.665   7.387  10.402  0.1539 -0.2091 -0.0994
 6698W        W10749   3.302   4.284  13.903  0.1369  0.0794  0.0784
 6699W        W10750   3.835   1.700   2.822  0.0753  0.0250 -0.3094
 6700W        W10751   3.353  10.014  11.420 -0.1175  0.0168 -0.0993
 6701W        W10752   9.823  10.044  12.599 -0.3100  0.0238 -0.1657
 6702W        W10753   4.432   6.935   1.657 -0.3007  0.2764  0.1447
 6703W        W10754   8.761   9.581  12.100 -0.0253  0.3028  0.1080
 6704W        W10755   9.384   6.081  12.107 -0.0035  0.1783 -0.0145
 6705W        W10756   8.418   7.548   2.169 -0.5230 -0.0620  0.0466
 6706W        W10757   3.558   2.021   3.830  0.0225  0.2756  0.0849
 6707W        W10758   2.048   5.924   2.116 -0.2920  0.1964 -0.3293
 6708W        W10759   8.590   4.920  12.305  0.0235 -0.0190 -0.1947
 6709W        W10760   7.063   9.733  13.081 -0.1001  0.2051  0.0648
 6710W        W10761   0.880   9.566   1.230  0.2279 -0.0819  0.0240
 6711W        W10762   8.956   6.011   3.717 -0.2059  0.1443 -0.1623
 6712W        W10763   1.216   4.214   0.517 -0.2899  0.1525 -0.1238
 6713W        W10764   3.690   7.120   0.567 -0.2051 -0.1677 -0.1437
 6714W        W10765   3.680   7.735   2.562 -0.0337 -0.2088  0.1693
 6715W        W10766   5.186   0.337  11.529  0.1756 -0.0174 -0.1397
 6716W        W10767   0.426   4.592  10.502  0.2579 -0.0951 -0.0186
 6717W        W10768   9.856   0.731   3.156 -0.0504  0.0382  0.1656
 6718W        W10769   2.483   0.260  10.113  0.4188 -0.0465 -0.0897
 6719W        W10770   7.455   8.604   9.090 -0.1282 -0.0977  0.1004
 6720W        W10771   4.518   0.187   1.268 -0.2264 -0.2777  0.2770
 6721W        W10772   9.498   1.336  11.417  0.1648 -0.1572 -0.0301
 6722W        W10773   2.235   9.802  13.583 -0.1068 -0.4906  0.1581
 6723W        W10774   5.731   4.005   2.290 -0.1018  0.2802 -0.0983
 6724W        W10775   6.474   5.914   4.288 -0.0811 -0.0395  0.0217
 6725W        W10776   3.365   9.594   1.689  0.1833 -0.2136 -0.1833
 6726W        W10777   2.460   7.589  10.122  0.0388 -0.0045 -0.0573
 6727W        W10778   2.743   7.536   1.009 -0.3760  0.2491 -0.0231
 6728W        W10779   2.251   2.901   3.110  0.3095 -0.1175  0.2454
 6729W        W10780   1.302   8.964   9.475 -0.0364 -0.3817 -0.0723
 6730W        W10781   8.192   3.708  13.004  0.0787 -0.2467  0.0000
 6731W        W10782   9.174   4.233  12.751  0.2123 -0.3442  0.1689
 6732W        W10783   7.744   7.463   0.724  0.1563 -0.3230 -0.3895
 6733W        W10784   9.141   4.040   0.086 -0.0614 -0.0132  0.1754
 6734W        W10785   4.947   4.978  12.063 -0.0672 -0.1007 -0.1908
 6735W        W10786   1.077   0.450   3.317 -0.0370  0.2837  0.2667
 6736W        W10787   9.470   8.851  11.121  0.0587  0.0001 -0.1909
 6737W        W10788   7.178   8.550  13.077 -0.3736  0.0223 -0.1414
 6738W        W10789   9.245   6.770   4.511  0.2984  0.3424  0.2081
 6739W        W10790   5.310   7.082   2.882  0.0652  0.2138  0.4606
 6740W        W10791   1.407   6.133   4.770 -0.1016  0.0655 -0.1970
 6741W        W10792   7.824   7.688  12.283  0.1386  0.1033 -0.1800
 6742W        W10793   5.155   8.441   0.570 -0.2702 -0.2257  0.0114
 6743W        W10794   2.269   9.368   1.516 -0.2313 -0.1840  0.1144
 6744W        W10795   3.768   0.901  11.154 -0.1575 -0.0726 -0.1729
 6745W        W10796   4.693   4.247   5.193  0.0313  0.1221 -0.2085
 6746W        W10797   6.885   1.030  10.044 -0.0917  0.2529  0.2127
 6747W        W10798   4.502   9.837   1.014  0.2243  0.0905  0.0337
 6748W        W10799   0.225   1.812   4.420  0.0568  0.1125 -0.3645
 6749W        W10800   0.198   9.112   2.600  0.0657 -0.2325  0.1614
 6750W        W10801   8.350   1.276   0.777  0.0615 -0.3071  0.3025
 6751W        W10802   5.212   6.652   3.157 -0.1156 -0.0738 -0.3803
 6752W        W10803   6.455   0.512  10.706 -0.1667  0.2644 -0.0904
 6753W        W10804   9.927   1.163  12.447 -0.0512  0.1940  0.0204
 6754W        W10805   9.092   5.325   0.477 -0.2083 -0.0416 -0.0069
 6755W        W10806   8.184   9.037   1.318 -0.3287  0.1874  0.0196
 6756W        W10807   9.974   6.402   0.600  0.0616  0.0457  0.3052
 6757W        W10808   9.962   2.434  13.077 -0.1030 -0.1293  0.1135
 6758W        W10809   0.908   8.929  13.095  0.1327  0.1327  0.0229
 6759W        W10810   9.658   0.868  11.339  0.0901 -0.0680  0.2824
 6760W        W10811   3.133   1.024   9.371  0.1052  0.4601 -0.0131
 6761W        W10812   2.451   2.603   1.398 -0.1624  0.0211 -0.2680
 6762W        W10813   6.908   6.057  12.045  0.0086  0.0628  0.0040
 6763W        W10814   7.040   0.055   2.014 -0.0674  0.0571  0.0180
 6764W        W10815   5.443   3.410   3.574 -0.0589  0.4219 -0.0322
 6765W        W10816   7.875   6.468  10.872  0.1903 -0.1361 -0.3293
 6766W        W10817   3.591   5.751   2.162  0.0683  0.1330  0.0789
 6767W        W10818   9.240   8.525  13.292  0.1797 -0.0722 -0.1221
 6768W        W10819   8.235   8.238   9.618  0.1247 -0.0310  0.2160
 6769W        W10820   4.188   1.264  12.223  0.3727  0.0330  0.1154
 6770W        W10821   5.801   9.998  11.157 -0.0478  0.1008  0.1894
 6771W        W10822   8.539   6.530  13.474 -0.1786  0.0107  0.2615
 6772W        W10823   9.814   4.474   1.905  0.1306 -0.0186  0.1186
 6773W        W10824   6.582   1.269   0.487 -0.1798 -0.1197  0.2227
 6774W        W10825   1.745   7.634  13.084 -0.1505  0.2779  0.0001
 6775W        W10826   0.876   3.405   3.529  0.1946  0.1175  0.0876
 6776W        W10827   6.881   0.413  11.388  0.0656 -0.3152  0.0730
 6777W        W10828   8.893   4.942   0.227 -0.1369 -0.2555 -0.0718
 6778W        W10829   0.838   8.083   2.666 -0.0852  0.1141  0.1571
 6779W        W10830   1.301   6.671  11.256  0.1204  0.0529  0.0522
 6780W        W10831   9.162   3.383   3.280  0.2354 -0.1676 -0.0308
 6781W        W10832   3.204   1.668   0.827  0.3015 -0.1821 -0.0012
 6782W        W10833   2.052   2.485  11.967  0.1763 -0.0406 -0.0597
 6783W        W10834   7.516   8.321   0.605 -0.2699  0.2534  0.1084
 6784W        W10835   2.299   5.790   3.436  0.0300  0.3722 -0.1461
 6785W        W10836   0.494   3.691   3.843 -0.1216  0.2242  0.1218
 6786W        W10837   5.274   2.067   9.888  0.1641 -0.0086 -0.3150
 6787W        W10838   1.340   9.198   9.974 -0.1144 -0.0040 -0.0251
 6788W        W10839   0.509   0.531   2.025 -0.1784 -0.2814  0.1087
 6789W        W10840   7.175   4.036   1.432  0.2518  0.1743 -0.1175
 6790W        W10841   7.100   0.623  12.188 -0.2511  0.0372  0.1391
 6791W        W10842   0.052   4.489   3.621 -0.0610 -0.1931  0.0031
 6792W        W10843   8.395   7.674   9.950 -0.2828  0.0604  0.1094
 6793W        W10844   1.908   5.463  10.498 -0.2603 -0.2503 -0.1250
 6794W        W10845   9.841   2.887   1.210 -0.1137  0.0216  0.0153
 6795W        W10846   5.932   9.052  10.937  0.1395  0.0404 -0.1707
 6796W        W10847   2.334   5.375   2.394  0.0994  0.0743 -0.3322
 6797W        W10848   0.304   2.679   1.265 -0.0101 -0.0815 -0.0517
 6798W        W10849   6.739   4.672   2.154 -0.0522  0.1191  0.0798
 6799W        W10850   7.947   5.704   2.928 -0.3700 -0.3975  0.0600
 6800W        W10851   8.999   6.943   9.886 -0.0070 -0.0654  0.3810
 6801W        W10852   3.209   0.975  12.396  0.2404  0.1709 -0.2521
 6802W        W10853   7.771   5.075   0.969  0.0012  0.1718  0.1835
 6803W        W10854   3.813   4.059   1.711 -0.3488  0.0531  0.0420
 6804W        W10855   1.072   5.109   3.195 -0.2711 -0.0393 -0.1721
 6805W        W10856   3.190   0.409  10.721  0.1388 -0.2609  0.0505
 6806W        W10857   2.543   0.452   1.884 -0.0169 -0.3469  0.2147
 6807W        W10858   0.424   3.919  12.694  0.3263  0.2670  0.0039
 6808W        W10859   4.800   4.760  10.755 -0.1440 -0.0045 -0.1504
 6809W        W10860   7.096   5.837   0.402  0.1361 -0.4598  0.0511
 6810W        W10861   9.890   1.649  11.600 -0.0255 -0.1865 -0.2415
 6811W        W10862   8.601   7.708  12.186 -0.4476 -0.0441  0.0544
 6812W        W10863   4.305   7.222   3.804  0.4613  0.3211  0.0256
 6813W        W10864   7.687   3.208   3.497 -0.1265  0.2264 -0.0390
 6814W        W10865   1.472   4.391   4.068 -0.0716 -0.0689 -0.2120
 6815W        W10866   5.362   4.700  10.851 -0.0228  0.0389 -0.1436
 6816W        W10867   0.542   0.361   3.595  0.1880  0.2046  0.1138
 6817W        W10868   6.884   9.585   4.904 -0.0210 -0.3992  0.5845
 6818W        W10869   2.530   9.384  13.521  0.0777  0.0924  0.2220
 6819W        W10870   5.709   1.561   4.268  0.0625 -0.2471  0.2107
 6820W        W10871   7.719   6.401  13.761 -0.0841  0.0042  0.0634
 6821W        W10872   3.166   0.160  12.341  0.0402 -0.1204 -0.1376
 6822W        W10873   6.418   8.822  12.173  0.2896 -0.0429 -0.2208
 6823W        W10874   8.416   0.241  11.263  0.1208  0.0511 -0.0886
 6824W        W10875   6.224   5.445   8.616  0.0265  0.0583  0.0341
 6825W        W10876  10.029   6.471   8.719 -0.0544  0.0236 -0.1393
 6826W        W10877   3.907   6.893   2.989  0.1414  0.4322  0.3039
 6827W        W10878   2.053   1.463  11.537 -0.2095 -0.1919 -0.1766
 6828W        W10879   3.460   2.120  11.595 -0.2372  0.2617  0.2349
 6829W        W10880   1.702   0.831   4.729  0.1520  0.0690 -0.0235
 6830W        W10881   9.896   9.048   1.601  0.2325 -0.2857  0.0672
 6831W        W10882   7.161   5.833   9.723  0.2390  0.0906 -0.3586
 6832W        W10883   1.486   8.082  11.317 -0.1851  0.2377  0.0349
 6833W        W10884   1.782   2.602   2.984 -0.3776  0.2161  0.0551
 6834W        W10885   6.561   5.492   1.908  0.0193  0.0610 -0.0664
 6835W        W10886   4.310   8.295  10.380 -0.0584 -0.1961 -0.1063
 6836W        W10887   2.476   4.496   2.835  0.1053 -0.0637 -0.1742
 6837W        W10888   3.700   3.069   2.640 -0.1116  0.1207  0.0356
 6838W        W10889   9.430   1.249  12.311  0.1576  0.2084  0.0429
 6839W        W10890   0.571   6.422   1.291 -0.2895  0.3364 -0.3443
 6840W        W10891   3.976   5.028  10.678  0.0162  0.0390 -0.1118
 6841W        W10892   3.813   1.167  10.528 -0.0036 -0.0421  0.1198
 6842W        W10893   4.494   6.123  13.803  0.0958  0.0926  0.1922
 6843W        W10894   3.083   7.988   1.249 -0.0900  0.1006  0.1232
 6844W        W10895   9.823   9.547   8.612  0.1383 -0.0424  0.0513
 6845W        W10896   5.307   8.975  13.146 -0.4402 -0.0702  0.1993
 6846W        W10897   0.783   5.025  11.652  0.2439 -0.1329  0.3290
 6847W        W10898   1.798   8.849   4.047 -0.0907 -0.1868  0.0794
 6848W        W10899   9.068   2.812  11.005 -0.2521 -0.0642  0.0634
 6849W        W10900   6.054   6.663   3.484  0.3610  0.0938  0.0289
 6850W        W10901   0.721   9.745  11.833  0.2325 -0.2322 -0.0476
 6851W        W10902   5.479   0.604   1.310  0.2039 -0.3102 -0.1755
 6852W        W10903   0.430   3.681   2.626 -0.1665 -0.0246  0.1165
 6853W        W10904   3.307   0.240   9.744  0.2228 -0.1530  0.0449
 6854W        W10905   0.456   5.308  12.971  0.0402  0.2595 -0.0238
 6855W        W10906   5.167   0.550   2.616  0.0724  0.3150  0.2304
 6856W        W10907   2.994   0.457   2.222 -0.0143 -0.3178  0.1925
 6857W        W10908   9.476   8.096  11.787  0.0072  0.2415  0.1387
 6858W        W10909   3.347   6.304  13.275  0.0778  0.0642 -0.0336
 6859W        W10910   6.759   7.840  12.144 -0.0610  0.3051 -0.0449
 6860W        W10911  10.108   7.295   1.317 -0.0351 -0.3932 -0.2628
 6861W        W10912   7.040   9.563  10.040 -0.1063  0.0238 -0.1783
 6862W        W10913   9.441   9.426   0.872 -0.2616 -0.1513  0.1254
 6863W        W10914   9.611   1.652   9.600 -0.2117  0.0225  0.1216
 6864W        W10915   0.128   0.738   2.855  0.1366  0.2340  0.0356
 6865W        W10916   3.840   5.546  10.714  0.2123  0.0485 -0.0966
 6866W        W10917   3.487   1.400  10.161 -0.0722  0.1728  0.2270
 6867W        W10918   0.750   6.442   9.727  0.2935  0.1517 -0.2743
 6868W        W10919   0.596   6.212   3.703  0.2517 -0.4855  0.0373
 6869W        W10920   5.048   3.061   1.382  0.2887  0.3085  0.1691
 6870W        W10921   8.740   7.889  13.685  0.2181  0.2478 -0.1696
 6871W        W10922   9.105   7.678  11.613  0.0187 -0.0276  0.0821
 6872W        W10923   3.343   2.908  11.479 -0.1997  0.4535 -0.2478
 6873W        W10924   8.977   2.510   3.770 -0.2158 -0.2304 -0.3013
 6874W        W10925   8.633   6.432  12.964  0.4748  0.1255  0.0245
 6875W        W10926   0.272   7.992  11.905 -0.4072 -0.0598  0.0731
 6876W        W10927   6.052   1.170   3.969  0.2441  0.1436  0.1999
 6877W        W10928   0.155   8.629  10.428  0.0536  0.2149  0.0097
 6878W        W10929   5.729   4.470  13.496  0.1022  0.2143 -0.2880
 6879W        W10930   1.350   1.040   1.207 -0.1348 -0.0269  0.0191
 6880W        W10931   9.996   3.224   4.357  0.1415  0.0704 -0.2928
 6881W        W10932   9.764   0.614   9.936  0.0132 -0.1275  0.2217
 6882W        W10933   5.382   3.602  13.512 -0.1765 -0.0083 -0.2784
 6883W        W10934   3.058   6.507   9.929 -0.0437  0.3027 -0.3482
 6884W        W10935   1.109   5.585  13.645  0.1299 -0.2422  0.0309
 6885W        W10936   0.075   1.198   0.234 -0.1019  0.0270 -0.0907
 6886W        W10937   9.636   0.044   4.755  0.3666 -0.0841  0.1849
 6887W        W10938   0.511   5.475  11.531  0.0390  0.2082 -0.1503
 6888W        W10939   5.374   6.428  12.072 -0.1354  0.1436 -0.2994
 6889W        W10940   5.642   7.158  12.836  0.1905  0.0643 -0.0975
 6890W        W10941   1.182   4.421  13.487  0.0186  0.1931 -0.1126
 6891W        W10942   2.467   4.633   1.019  0.2261  0.1721 -0.3019
 6892W        W10943   3.056   1.838  11.288 -0.2541  0.1040 -0.0255
 6893W        W10944   9.217   6.605   1.079  0.2717  0.3861  0.2516
 6894W        W10945   7.317   3.802   9.394  0.0999  0.0562 -0.0240
 6895W        W10946   3.960   2.789  11.050 -0.1694 -0.1771  0.1216
 6896W        W10947   0.523   5.894   0.288  0.0056 -0.0441  0.2815
 6897W        W10948   7.750   5.034  10.836 -0.1005 -0.0310  0.3231
 6898W        W10949   9.017   7.236  11.080  0.5818  0.1282 -0.0966
 6899W        W10950   5.540   8.694   0.958 -0.1348 -0.0805 -0.1221
 6900W        W10951   2.531   6.892  11.662 -0.0514 -0.1712  0.2140
 6901W        W10952   0.186   6.975  10.707  0.2161  0.1989 -0.1492
 6902W        W10953   0.834   8.744   1.520 -0.3845  0.2850  0.0374
 6903W        W10954   6.552   6.070  11.713  0.0222 -0.2484  0.1026
 6904W        W10955   1.919   5.433   2.159  0.1323 -0.0403  0.3216
 6905W        W10956   9.901   9.999   2.692 -0.1056  0.1447  0.1612
 6906W        W10957   9.377   4.171   9.291  0.0107 -0.2691 -0.0664
 6907W        W10958   5.274   6.813   1.255 -0.0012  0.2045  0.0630
 6908W        W10959   5.759   3.836   9.406  0.3171 -0.2084 -0.1401
 6909W        W10960   3.741   3.783  12.460  0.0616  0.0849 -0.0365
 6910W        W10961   4.656   4.651  10.188 -0.0350 -0.1408 -0.0714
 6911W        W10962   7.614   8.445   1.107 -0.0195  0.1564  0.1470
 6912W        W10963   4.591   7.662  13.420 -0.3044  0.1008 -0.1526
 6913W        W10964   5.661   6.206  10.312 -0.1889 -0.2463  0.1007
 6914W        W10965   0.858   0.960   5.441  0.0741 -0.2713  0.0304
 6915W        W10966   9.819   1.234   3.404  0.0136  0.4055  0.2231
 6916W        W10967   8.846   6.857  13.098  0.0151  0.0482  0.3051
 6917W        W10968   4.631   3.923   4.041 -0.0087 -0.1729  0.0541
 6918W        W10969   8.363   8.263  12.875  0.3653  0.1463 -0.6141
 6919W        W10970   4.367   8.723   1.896 -0.1224 -0.0381 -0.0693
 6920W        W10971   0.299   7.133   9.589  0.5346 -0.1109  0.0129
 6921W        W10972   4.173   8.519  13.223 -0.0076  0.1339 -0.1560
 6922W        W10973   1.753   5.527  13.383 -0.0826  0.0450  0.1257
 6923W        W10974   2.805   7.755   0.119  0.0384 -0.4534 -0.1196
 6924W        W10975   2.732   4.307   9.633 -0.0584 -0.1144 -0.4633
 6925W        W10976   1.274   7.748   2.644  0.0204 -0.0555 -0.2903
 6926W        W10977   0.233   6.013  12.859  0.1501 -0.0205 -0.2055
 6927W        W10978   8.336   6.815   4.472 -0.0852  0.2228 -0.2325
 6928W        W10979   5.845   2.802   1.108 -0.0344 -0.3516  0.1383
 6929W        W10980   4.497   2.825   3.372 -0.0598 -0.2854 -0.0357
 6930W        W10981   8.664   8.843   4.273 -0.1552 -0.1015 -0.1513
 6931W        W10982   9.594   0.690   2.692  0.0373  0.0448  0.2511
 6932W        W10983   5.807   5.585   3.529 -0.3274 -0.2457 -0.4647
 6933W        W10984   7.708   0.719   2.822  0.0957 -0.0403  0.0154
 6934W        W10985   0.982   7.252  10.691  0.0022  0.1396 -0.0145
 6935W        W10986   7.763   8.766  12.463 -0.0153 -0.0434 -0.0584
 6936W        W10987   5.274   8.337  10.195  0.3014 -0.2043 -0.1174
 6937W        W10988   6.682   4.079   1.532  0.2779  0.0498 -0.2812
 6938W        W10989   1.963   3.732  12.152 -0.0277  0.1205  0.1203
 6939W        W10990   6.189   5.381   0.238 -0.0524  0.0341  0.4732
 6940W        W10991   4.025   9.519  13.006  0.1291  0.0238  0.0139
 6941W        W10992   6.130   6.400  13.032  0.1730 -0.1408  0.3298
 6942W        W10993   6.225   7.596   0.599 -0.0581 -0.0089 -0.0829
 6943W        W10994   2.224   8.930  13.547 -0.2609 -0.2257  0.0920
 6944W        W10995   7.977   9.573   1.373 -0.2102 -0.0372 -0.1071
 6945W        W10996  10.104   6.966   8.674 -0.3788 -0.0410  0.1380
 6946W        W10997   6.874   6.660   0.059  0.3829  0.0095  0.1223
 6947W        W10998   0.653   8.260   0.810  0.3081  0.1457 -0.1471
 6948W        W10999   5.997   5.711   0.560  0.0319  0.1194  0.1362
 6949W        W11000   8.262   7.023   0.762  0.0622 -0.1645  0.1252
 6950W        W11001   1.537   1.998   0.287  0.1107 -0.0999 -0.0860
 6951W        W11002   7.459   2.049   2.269 -0.0840  0.4304 -0.0873
 6952W        W11003   6.680   3.715   9.317  0.1527  0.0767  0.0134
 6953W        W11004   4.527   0.086   0.767 -0.1363  0.3176  0.0636
 6954W        W11005   3.402   2.168   1.462 -0.0263 -0.3319  0.1221
 6955W        W11006   7.842   2.686   3.027 -0.0706  0.0453 -0.0193
 6956W        W11007   5.261   9.362  12.823  0.0428  0.0031 -0.1612
 6957W        W11008   8.137   2.326  10.010  0.0302 -0.0595  0.1895
 6958W        W11009   0.830   6.850   0.497 -0.2011 -0.1287 -0.1277
 6959W        W11010   8.166   8.549   1.196 -0.2104  0.1240  0.1278
 6960W        W11011   9.875   1.656   0.884 -0.2509  0.1083 -0.1064
 6961W        W11012   7.006   3.142  13.059  0.2543  0.2104  0.1943
 6962W        W11013   2.999   5.198  11.501  0.1282 -0.1481  0.2504
 6963W        W11014   4.971   2.040  11.608 -0.0878  0.0066  0.1359
 6964W        W11015   6.299   3.158  13.352  0.0256 -0.0310 -0.2182
 6965W        W11016   2.807   8.444   2.872 -0.0356 -0.0438  0.0473
 6966W        W11017   2.131   3.642  12.647 -0.0456 -0.1635 -0.2349
 6967W        W11018   5.831   6.277   3.720 -0.0430  0.1830 -0.3128
 6968W        W11019   9.418   7.014  10.657  0.0910  0.1725  0.1931
 6969W        W11020   7.368   0.121   3.775 -0.1659  0.0339 -0.0864
 6970W        W11021   8.430   0.431   1.972  0.4053 -0.2180 -0.0506
 6971W        W11022   8.947   8.883  13.431  0.1034 -0.0305  0.0099
 6972W        W11023   2.834   4.552  11.488 -0.1271 -0.0161  0.2586
 6973W        W11024   5.020  10.099   0.536 -0.3242 -0.0062 -0.1029
 6974W        W11025   4.896   9.658   2.802 -0.0502  0.0894  0.4318
 6975W        W11026   8.983   6.162   4.209  0.1178 -0.4580 -0.3136
 6976W        W11027   0.183   6.104   1.854 -0.1540 -0.2050 -0.0378
 6977W        W11028   0.617   5.309   3.493 -0.2040  0.0277 -0.1616
 6978W        W11029   9.777   1.971  10.037  0.0099 -0.0840  0.3784
 6979W        W11030   7.913   8.696   2.998  0.0014 -0.2836 -0.0553
 6980W        W11031   1.244   3.893   1.969  0.0406 -0.3200 -0.3695
 6981W        W11032   6.178   2.869  10.742 -0.1905 -0.0337  0.4876
 6982W        W11033   6.706   9.299  12.847  0.2001  0.0979  0.2210
 6983W        W11034   9.088   6.323   4.683  0.2488  0.1988  0.1320
 6984W        W11035   4.302   5.907  12.823 -0.2751  0.1963  0.3088
 6985W        W11036   4.368   6.364  12.638  0.1142  0.0121 -0.2270
 6986W        W11037  10.178   1.748   9.806 -0.1460  0.0614 -0.0053
 6987W        W11038   7.608   1.522   0.729  0.0159 -0.2880  0.2592
 6988W        W11039   1.883   3.828  13.047  0.0946  0.2205  0.0025
 6989W        W11040   6.008   6.012  11.716 -0.1841 -0.2054 -0.2269
 6990W        W11041   1.850   3.177   0.791 -0.2895  0.1999 -0.7803
 6991W        W11042   9.178   5.786   3.258  0.0983 -0.0991 -0.3101
 6992W        W11043   8.529   5.333  13.883 -0.0613 -0.0532 -0.1698
 6993W        W11044   8.924   7.207   1.617  0.1635  0.1614 -0.3563
 6994W        W11045   8.562   0.750   8.936  0.0351  0.3814 -0.0357
 6995W        W11046  10.023   6.487  12.559 -0.0596  0.2644 -0.2726
 6996W        W11047   8.946   3.517  11.719  0.0830 -0.0666 -0.0401
 6997W        W11048   7.668   2.611  10.125  0.2653  0.0123 -0.2627
 6998W        W11049   0.352   5.960   4.027 -0.0938 -0.0131  0.0520
 6999W        W11050   7.568   7.400   9.898  0.0395 -0.1172 -0.1708
 7000W        W11051   4.209   9.137   2.189 -0.1656 -0.0584 -0.1942
 7001W        W11052   2.317   4.918   0.007  0.0495  0.0930  0.0519
 7002W        W11053   7.815   9.144   2.818  0.0815  0.0988  0.1352
 7003W        W11054   8.762   5.869   1.669  0.0169  0.0353  0.0480
 7004W        W11055   3.950   5.091   9.051  0.0174  0.3242  0.2077
 7005W        W11056   3.279   2.607   0.182 -0.0296 -0.3569  0.2411
 7006W        W11057   9.228   9.772   3.285 -0.0305  0.1400  0.1301
 7007W        W11058   0.025   0.023  11.631 -0.2082 -0.0361 -0.0511
 7008W        W11059   2.886   8.891  12.464  0.2543  0.1452  0.0538
 7009W        W11060   4.743   4.950   9.443 -0.1092  0.1075 -0.0543
 7010W        W11061   6.124   4.560   2.963  0.0086 -0.1764 -0.3260
 7011W        W11062   9.681   5.229   2.665 -0.1112 -0.1617  0.0896
 7012W        W11063   8.193   5.605  13.232  0.0722 -0.1573  0.0469
 7013W        W11064   7.057   3.635  12.264 -0.1555 -0.1522 -0.1660
 7014W        W11065   2.347   4.879   4.630  0.2097 -0.4343 -0.1193
 7015W        W11066   2.115   2.096   9.063 -0.0600  0.2070 -0.0868
 7016W        W11067   2.965   4.048  12.315  0.1372  0.3685  0.1755
 7017W        W11068   2.080   1.320   3.745 -0.1925  0.0805  0.1125
 7018W        W11069   2.667   7.489  12.692 -0.2139 -0.1093  0.0050
 7019W        W11070   6.193   7.217   3.732 -0.1257 -0.3603 -0.3901
 7020W        W11071   7.802   3.945  11.801 -0.0056  0.1291 -0.5393
 7021W        W11072   0.037   0.200  13.588  0.1370  0.0782 -0.0354
 7022W        W11073   2.847   0.924  12.772  0.3055  0.0333 -0.0689
 7023W        W11074   0.306   9.153   0.460 -0.2944 -0.3470 -0.1180
 7024W        W11075   5.344   1.083   0.137  0.1767  0.3186 -0.2096
 7025W        W11076   3.881   0.698   3.940 -0.0955  0.3879  0.0269
 7026W        W11077   3.753   4.127  10.679 -0.1757  0.0104  0.0405
 7027W        W11078   9.709   1.123   2.029  0.1294 -0.0157  0.4264
 7028W        W11079   6.237   5.260   2.584  0.0120  0.1903 -0.0894
 7029W        W11080   0.351   6.643   1.731 -0.1806 -0.1308 -0.0909
 7030W        W11081   2.602   4.463  10.197 -0.0007 -0.2957 -0.1096
 7031W        W11082   4.858   2.403   3.582  0.0081  0.0209  0.2084
 7032W        W11083   5.747   6.566   1.800  0.0162  0.0963  0.0862
 7033W        W11084   2.083   1.231   4.727 -0.0356 -0.0513  0.1337
 7034W        W11085   0.758   5.393   9.360  0.1653 -0.0560 -0.2284
 7035W        W11086   2.639   2.052   0.057  0.0842  0.1009  0.0417
 7036W        W11087   7.040   6.548   4.699 -0.1379  0.3568  0.0578
 7037W        W11088   5.715   9.293   2.799  0.1710  0.2862  0.0234
 7038W        W11089   3.185  10.137   0.334 -0.0634  0.0890 -0.0477
 7039W        W11090   9.971   5.047  10.222  0.0047  0.2975 -0.0063
 7040W        W11091   3.432   1.806  10.630 -0.0900  0.0669  0.0765
 7041W        W11092   2.289   9.780  11.514 -0.0847 -0.3682 -0.0702
 7042W        W11093   2.204   4.093   3.039 -0.0439 -0.3632  0.0214
 7043W        W11094   0.998   0.181   2.930 -0.1262  0.0321 -0.1381
 7044W        W11095   0.600   4.430   3.141 -0.2860 -0.2692 -0.5607
 7045W        W11096   7.800   8.803   2.435 -0.2889 -0.0938  0.1531
 7046W        W11097   0.420   7.433   4.319 -0.0163  0.2212 -0.1509
 7047W        W11098   5.136   5.985   2.577 -0.0747  0.3474 -0.0768
 7048W        W11099   0.089   7.135   4.013  0.0442  0.1000 -0.1248
 7049W        W11100   7.486   8.359  13.494  0.0910 -0.0201 -0.1149
 7050W        W11101   5.555   3.636   3.158 -0.1643  0.0412 -0.0497
 7051W        W11102   0.229   9.206   1.750  0.0672 -0.0030  0.0732
 7052W        W11103   6.841   5.335   0.339 -0.1476 -0.0199 -0.2893
 7053W        W11104   0.916   1.361   0.349  0.0575 -0.0095  0.1702
 7054W        W11105   9.891   4.098  10.520  0.0672  0.3395  0.3414
 7055W        W11106   4.904   5.972   0.714 -0.2302  0.3101  0.2361
 7056W        W11107   2.900   2.792   1.129 -0.0990  0.0022  0.4921
 7057W        W11108   8.984   0.447   4.514  0.0959 -0.1067  0.2880
 7058W        W11109   5.200   2.692  11.040  0.1013  0.0148 -0.1569
 7059W        W11110   1.861   4.481   3.101  0.0863 -0.2399  0.1152
 7060W        W11111   3.472   3.161   0.185 -0.1169  0.2676 -0.0487
 7061W        W11112   2.680   5.954  10.693 -0.0616 -0.1633  0.4779
 7062W        W11113   0.672   3.402   8.601  0.1556  0.0244  0.1265
 7063W        W11114   8.038   2.090   4.584  0.0629  0.1130  0.1350
 7064W        W11115   6.323   5.146  10.874  0.0009 -0.2258  0.0468
 7065W        W11116   0.545   8.922   0.110 -0.1947  0.0131 -0.0200
 7066W        W11117   7.664   7.936   5.028 -0.1229  0.1484 -0.1149
 7067W        W11118   5.082   1.361  13.670 -0.0956 -0.1692 -0.1919
 7068W        W11119   0.089   2.215  12.712  0.1126  0.1401  0.1811
 7069W        W11120   4.108   5.046  12.079 -0.1423 -0.1471  0.0132
 7070W        W11121   6.314   7.716  12.871  0.1076  0.0037  0.0456
 7071W        W11122   7.559   8.558   1.985  0.1830 -0.1256 -0.0362
 7072W        W11123   4.201  10.191  11.388 -0.1302  0.1552 -0.3731
 7073W        W11124   0.725   9.801  13.679  0.0232  0.1202 -0.1974
 7074W        W11125   9.449  10.021   5.181 -0.1435  0.2450 -0.1411
 7075W        W11126   5.495   3.344  13.125 -0.0175 -0.2486 -0.0895
 7076W        W11127   6.243   2.650  12.703 -0.1626 -0.0707 -0.0303
 7077W        W11128   1.388   2.502   0.219 -0.1141 -0.0244 -0.0543
 7078W        W11129   2.836   6.511  10.969  0.0371  0.0397 -0.0173
 7079W        W11130   6.148   2.251   4.608 -0.2272  0.2706 -0.0282
 7080W        W11131   6.814   7.211   2.824  0.2509  0.0175 -0.1608
 7081W        W11132   1.927   4.530   4.317  0.1963 -0.0150 -0.0209
 7082W        W11133   7.336   2.205   3.248  0.1932  0.0696 -0.2563
 7083W        W11134   4.480   4.938  11.785 -0.0433  0.1359  0.0708
 7084W        W11135   4.052   1.749   3.700  0.0614 -0.2036  0.1256
 7085W        W11136   2.601   9.676  10.722  0.0922  0.4512  0.0408
 7086W        W11137   1.435   9.367   3.599  0.0615  0.1855  0.2004
 7087W        W11138   1.859   5.652   4.754  0.0472  0.1418  0.1884
 7088W        W11139   7.957   7.606  13.508 -0.0014 -0.0867 -0.0923
 7089W        W11140   2.737   5.169   4.636  0.2079  0.2086 -0.1371
 7090W        W11141   7.461   2.100  12.173  0.0062  0.0171 -0.2696
 7091W        W11142   2.753   4.926  10.489  0.4625 -0.0409 -0.3776
 7092W        W11143   6.196   2.821   1.988 -0.0126  0.0591  0.1773
 7093W        W11144   4.389   2.193   9.893 -0.1596  0.3435  0.0817
 7094W        W11145   7.626   3.999  12.827 -0.0740  0.0933 -0.2470
 7095W        W11146   7.080   4.895  11.348 -0.1192 -0.3531  0.3773
 7096W        W11147   8.713   0.958  11.862  0.1185 -0.0685 -0.0597
 7097W        W11148   7.094   8.438  11.709  0.0394 -0.0016  0.1814
 7098W        W11149   6.109   9.544   2.007 -0.1861  0.0730  0.0024
 7099W        W11150   9.134   1.507   1.623 -0.0389  0.0426  0.0861
 7100W        W11151   3.768   3.824   2.581 -0.3596  0.1621  0.1568
 7101W        W11152   0.124   7.796  12.445 -0.0367  0.1307 -0.4658
 7102W        W11153   7.063   4.189  13.046  0.2289 -0.0148 -0.2932
 7103W        W11154   5.440   6.860   2.165  0.3860  0.1820  0.1448
 7104W        W11155   7.519   6.535   0.674 -0.0751  0.0276  0.1499
 7105W        W11156   0.767   6.842   0.995 -0.2927  0.2195  0.0865
 7106W        W11157   8.612   9.248   2.316  0.0110  0.0345  0.1839
 7107W        W11158   6.208   2.064   3.729 -0.1916  0.0662  0.0599
 7108W        W11159   1.578   3.239   1.285 -0.0220 -0.3304  0.0212
 7109W        W11160   9.609   7.713   3.815 -0.2722  0.0843  0.0254
 7110W        W11161   7.314   6.812  11.182 -0.1378 -0.0815  0.0235
 7111W        W11162   7.696   6.845   1.491  0.1001 -0.1213  0.0031
 7112W        W11163   8.673   2.148   3.852  0.0350  0.4110  0.1097
 7113W        W11164   7.798   5.668   4.403  0.0911 -0.0751 -0.3852
 7114W        W11165   5.662   5.970  12.225 -0.0158  0.0575  0.1703
 7115W        W11166   9.066   0.024   2.605 -0.0556  0.1466 -0.0662
 7116W        W11167   5.256   7.715   0.031 -0.4546 -0.0634 -0.0153
 7117W        W11168   4.904   8.590  10.524  0.0438  0.1860 -0.1012
 7118W        W11169   3.585   3.019   3.408  0.1823 -0.1083  0.0693
 7119W        W11170   7.282   7.642   0.078  0.0158  0.0334 -0.2212
 7120W        W11171   0.978   6.461   2.343  0.1999  0.2363 -0.3025
 7121W        W11172   3.913   4.969   5.352 -0.1388  0.1889  0.4657
 7122W        W11173   8.592   0.081   3.670  0.0620  0.0255 -0.0548
 7123W        W11174   4.811   2.902  13.537  0.0497  0.0423 -0.0078
 7124W        W11175   8.679   9.219   3.674 -0.0455  0.0481  0.1089
 7125W        W11176   7.335   8.756  11.329  0.0454 -0.1688  0.0206
 7126W        W11177   2.977   2.050  10.742 -0.4225  0.2293 -0.1658
 7127W        W11178   2.024   5.094  11.687  0.1556  0.0547  0.1214
 7128W        W11179   3.147   0.396   0.431 -0.0336 -0.0293  0.2392
 7129W        W11180   3.519   0.975   2.500 -0.0373 -0.0797 -0.1447
 7130W        W11181   6.197   4.856   1.362  0.2973  0.2188  0.2365
 7131W        W11182   9.601   0.005  10.431  0.0588 -0.0098 -0.2093
 7132W        W11183   8.522   1.340   9.596 -0.0984  0.1006 -0.0020
 7133W        W11184   2.964   7.644   1.927 -0.3343  0.3836  0.1485
 7134W        W11185   2.204   3.269  13.892 -0.0181  0.0333  0.1354
 7135W        W11186   1.621   7.465   0.090 -0.0533 -0.0541 -0.1691
 7136W        W11187   5.503   2.057  10.486 -0.0372  0.0085  0.0379
 7137W        W11188   9.938   3.337  13.502 -0.0717  0.0024  0.1833
 7138W        W11189   5.311   6.112   3.007  0.0606 -0.0751 -0.1528
 7139W        W11190   4.377   3.160   2.182  0.1509  0.1667 -0.1872
 7140W        W11191   0.204   5.755  11.246 -0.0429 -0.0692 -0.4654
 7141W        W11192   6.040   5.550   5.062 -0.3249  0.0898 -0.1555
 7142W        W11193   2.939   4.131  13.075 -0.0230  0.0854 -0.3444
 7143W        W11194   3.802   3.830   9.552  0.2666  0.0863  0.0230
 7144W        W11195   2.854   9.767   3.705  0.5969 -0.1032 -0.1177
 7145W        W11196   4.926   1.906  12.784  0.0068  0.1859 -0.0458
 7146W        W11197   7.500   1.951  11.305  0.5037  0.0510 -0.1720
 7147W        W11198   5.463   1.132  10.769  0.0281  0.1856 -0.1177
 7148W        W11199   9.609   6.165   4.837 -0.1849 -0.2341  0.0283
 7149W        W11200   1.635   7.537   9.911 -0.2795  0.0676  0.0072
 7150W        W11201   7.416   8.276   1.578 -0.1290 -0.0034 -0.0138
 7151W        W11202   2.882   4.357  13.557 -0.3054  0.0874  0.1868
 7152W        W11203   6.381   0.655  12.127  0.4364 -0.0934  0.0192
 7153W        W11204   3.711   6.598  10.959 -0.1126 -0.3192  0.0649
 7154W        W11205   6.814   8.963   1.466  0.1527 -0.0255 -0.1487
 7155W        W11206   7.919   9.784   1.877 -0.0155  0.0041  0.1064
 7156W        W11207   2.520   4.561   0.526 -0.0524 -0.0199  0.0432
 7157W        W11208   1.780   9.438   0.788 -0.1987 -0.0288  0.1621
 7158W        W11209   7.234   9.525   3.564 -0.1632 -0.1366 -0.1445
 7159W        W11210   0.015   1.983  10.969 -0.1288  0.0504 -0.2497
 7160W        W11211   7.101   5.340   9.512  0.0819 -0.1111  0.0972
 7161W        W11212   4.874   3.547  11.183 -0.0863 -0.0285 -0.0923
 7162W        W11213   7.672   0.910   9.452 -0.0292  0.0496  0.0223
 7163W        W11214   0.322   4.955  10.116 -0.0606 -0.3610  0.1762
 7164W        W11215   2.653   2.785   3.451  0.2398 -0.1055  0.2558
 7165W        W11216   2.031   5.194   1.715  0.4750  0.2615  0.1183
 7166W        W11217   1.088   5.620   3.356 -0.0760  0.1373  0.0924
 7167W        W11218   7.217   1.724   1.324  0.2795 -0.1113  0.1739
 7168W        W11219   8.379  10.139   1.842 -0.1540  0.0364 -0.4344
 7169W        W11220   5.191   1.563   4.117 -0.0642  0.3819  0.4125
 7170W        W11221   2.337   9.464  11.109 -0.1013  0.0875  0.1549
 7171W        W11222   4.001   9.867   2.849  0.0463 -0.1092 -0.0454
 7172W        W11223   8.374   6.294  12.003 -0.1173  0.3093  0.1439
 7173W        W11224   6.027   3.176   0.706  0.3389  0.0764  0.4704
 7174W        W11225   8.455   7.328   1.714  0.2195 -0.2568 -0.1765
 7175W        W11226   4.341   5.053   4.649 -0.2593 -0.1770  0.0670
 7176W        W11227   0.904   5.268   1.047 -0.1054  0.1366 -0.0908
 7177W        W11228   0.294   1.192   2.446  0.1233  0.1674  0.2786
 7178W        W11229   9.883   5.199  12.331  0.1260 -0.1596 -0.1718
 7179W        W11230   9.230  10.172   4.463 -0.0033  0.3489  0.1171
 7180W        W11231   0.231   4.533  13.559 -0.1935  0.2420 -0.1375
 7181W        W11232   2.039   4.412   0.160  0.1882 -0.2620  0.0468
 7182W        W11233   0.530   1.970   0.432 -0.3659  0.3338 -0.1435
 7183W        W11234   5.427   6.179   1.699  0.0922  0.1847 -0.2134
 7184W        W11235   0.246   0.784  12.053 -0.0712  0.0329 -0.1200
 7185W        W11236   0.404   1.397   4.629 -0.2064 -0.1342  0.0017
 7186W        W11237   0.370   9.163   3.092  0.0496  0.3423  0.2966
 7187W        W11238   4.486   5.375  12.060  0.2718 -0.4120  0.2828
 7188W        W11239   5.940   3.087  12.867 -0.0999 -0.3827  0.0792
 7189W        W11240   0.020   7.455   8.600  0.2296 -0.0522  0.2034
 7190W        W11241   5.573   7.005   1.698 -0.2288  0.0939  0.0369
 7191W        W11242   3.436   7.233  11.740 -0.0063  0.0764 -0.1193
 7192W        W11243   0.153   3.602  13.079 -0.0983 -0.0060  0.1583
 7193W        W11244   9.798   7.835  10.781  0.2347  0.1575  0.0631
 7194W        W11245   9.196   9.271   2.486 -0.1994 -0.2963 -0.1393
 7195W        W11246   3.617   4.348   9.289  0.0117 -0.0056 -0.0124
 7196W        W11247   6.475   9.336  11.138  0.0078 -0.1468  0.1924
 7197W        W11248   5.114   1.294  10.470 -0.1783  0.1219  0.2169
 7198W        W11249   9.218   5.842  10.790 -0.1267 -0.0169  0.1744
 7199W        W11250   5.157   9.012   3.389 -0.0314  0.3251  0.1926
 7200W        W11251   6.638   1.520   2.605 -0.3357  0.2318 -0.0230
 7201W        W11252   6.030   4.434  10.219  0.2255 -0.2428  0.1064
 7202W        W11253   0.475   8.243   9.665  0.1597  0.3231  0.0709
 7203W        W11254   1.563   5.069   1.962  0.2754 -0.2381 -0.1323
 7204W        W11255   5.303   8.196  12.207 -0.0092 -0.0528 -0.3039
 7205W        W11256   1.894   9.896   0.642  0.2333  0.0265 -0.0627
 7206W        W11257   4.136   8.159   1.140 -0.1182  0.1821 -0.1203
 7207W        W11258   9.912   1.571  12.102  0.1551  0.1457 -0.3228
 7208W        W11259   1.881   1.149   1.545 -0.2739  0.1303 -0.0805
 7209W        W11260   5.152   0.056   2.770  0.4474 -0.3335 -0.1690
 7210W        W11261   3.983   4.942   1.424  0.1405  0.1600 -0.0483
 7211W        W11262   8.148   4.724   1.537  0.2413  0.0014  0.5598
 7212W        W11263   4.477   3.482   1.241  0.2909 -0.4553 -0.0112
 7213W        W11264   6.733   2.888  13.459 -0.2646 -0.0978  0.0223
 7214W        W11265   2.202   9.148  10.095 -0.1296 -0.1037  0.1447
 7215W        W11266   7.645   8.917   1.377 -0.2409  0.1797 -0.3411
 7216W        W11267  10.001   5.539   2.349 -0.2854  0.3596  0.1166
 7217W        W11268   4.578   3.433  13.629 -0.2718  0.2110 -0.1005
 7218W        W11269   6.919   2.484  10.531  0.1047 -0.0658 -0.1639
 7219W        W11270   3.066   3.371  10.252 -0.1028  0.0517 -0.2991
 7220W        W11271   9.677   8.789   0.668 -0.0183 -0.4131 -0.3290
 7221W        W11272   2.633   9.548   3.031 -0.0735  0.1723  0.1398
 7222W        W11273   5.494   9.876  12.803  0.4022  0.1482 -0.1971
 7223W        W11274   8.332   6.209   8.622  0.3751  0.0427 -0.4146
 7224W        W11275   9.557   0.842   4.303 -0.1601 -0.1757 -0.0484
 7225W        W11276   8.265   9.959  12.178 -0.0906 -0.3290 -0.0304
 7226W        W11277   3.176   2.707   3.171 -0.0604  0.1864 -0.0848
 7227W        W11278   0.272   7.343   0.411 -0.2923  0.1992 -0.1978
 7228W        W11279   8.161   5.700  13.698  0.0575 -0.0039 -0.0621
 7229W        W11280   4.036   0.705  12.636 -0.0709  0.1969  0.1086
 7230W        W11281   3.718   8.808   3.118  0.3534 -0.2600 -0.3417
 7231W        W11282   5.682   1.121   1.318  0.0311  0.3162 -0.1281
 7232W        W11283   9.347   9.185   1.578  0.1815 -0.2211  0.0169
 7233W        W11284   5.462   5.991   3.529  0.1541 -0.1345  0.1046
 7234W        W11285   9.278   8.682   0.373 -0.0865  0.2140  0.0747
 7235W        W11286   3.616   6.598  12.944 -0.0220  0.0761  0.0901
 7236W        W11287   1.670   1.911   2.323 -0.1290  0.1010 -0.2786
 7237W        W11288   6.746   6.508   1.252  0.1903  0.1569 -0.1260
 7238W        W11289   8.541   8.540   3.719 -0.2860 -0.2513 -0.2791
 7239W        W11290   0.029   6.027   0.429  0.1712  0.1269  0.0166
 7240W        W11291   1.080   6.452  13.188 -0.0303  0.1905 -0.0005
 7241W        W11292   9.016   5.006   9.822 -0.2054  0.0258  0.1186
 7242W        W11293   1.476   3.763   0.154  0.1940 -0.0511  0.1252
 7243W        W11294   5.239   1.983   2.403 -0.1966  0.1989  0.0269
 7244W        W11295   4.324   2.231  12.585 -0.1024 -0.2976  0.0230
 7245W        W11296   5.381   7.705  12.017  0.3758  0.2715  0.1228
 7246W        W11297   7.313   5.721   3.368 -0.1181 -0.2483 -0.0950
 7247W        W11298   2.748   5.605  11.132 -0.1238 -0.1330 -0.0102
 7248W        W11299   4.778   1.530   3.702  0.0369  0.3293 -0.3322
 7249W        W11300   5.317   0.183  13.024 -0.0877  0.2185  0.0853
 7250W        W11301   5.014   8.805   0.864  0.2123 -0.2080  0.0572
 7251W        W11302   8.456   8.498   0.589 -0.2078 -0.0110 -0.0778
 7252W        W11303   3.217   8.187  11.849  0.0455 -0.3113 -0.2029
 7253W        W11304   8.821   3.603   1.344  0.1839  0.1978  0.0363
 7254W        W11305   2.364  10.046  10.434 -0.0995 -0.4775  0.2178
 7255W        W11306   0.205   8.643  11.210 -0.1103 -0.0209  0.3035
 7256W        W11307   8.614   3.566  13.583 -0.2047 -0.1600  0.0616
 7257W        W11308  10.020   6.612   3.208 -0.2532  0.0094  0.2328
 7258W        W11309   3.932   4.822   4.300 -0.0973  0.0025 -0.4139
 7259W        W11310   5.806   4.519  10.964  0.1512  0.1045  0.0796
 7260W        W11311   1.146   3.492   0.336  0.2560 -0.0085 -0.0155
 7261W        W11312   3.329   4.168   1.498  0.1474  0.2433  0.2446
 7262W        W11313   8.462   8.017   3.431  0.0501 -0.1003 -0.3608
 7263W        W11314   8.228   1.064  11.612  0.0525  0.1005 -0.4093
 7264W        W11315   1.272   2.310  11.372  0.0982 -0.1541 -0.0840
 7265W        W11316   9.871   4.264   9.810 -0.5122 -0.0531 -0.2053
 7266W        W11317   6.040   1.418   4.584 -0.0450 -0.0827  0.0501
 7267W        W11318   1.639   3.597   2.682 -0.2446  0.4108 -0.0651
 7268W        W11319   4.597   9.965  13.732  0.2699  0.1330  0.0671
 7269W        W11320   8.299   6.324   2.419  0.1464 -0.0275 -0.1501
 7270W        W11321   6.933   5.250   4.202 -0.1328 -0.3354  0.0255
 7271W        W11322   4.541   0.255  12.179 -0.1369 -0.1156  0.0944
 7272W        W11323   3.799   1.944   1.425  0.1920 -0.0490  0.2261
 7273W        W11324   6.711  10.138  11.543  0.1250 -0.0733 -0.0136
 7274W        W11325   5.502   6.483   9.955 -0.0079  0.1192 -0.0379
 7275W        W11326   9.478   6.143   2.209 -0.1875  0.2862  0.0117
 7276W        W11327   3.363   0.505   3.285 -0.0834  0.2295 -0.0632
 7277W        W11328   0.186   8.419   1.071 -0.2588  0.1755  0.1065
 7278W        W11329   5.718   3.079   2.528  0.1239 -0.2309 -0.0757
 7279W        W11330   6.656   5.225   3.429 -0.4662 -0.1022 -0.0652
 7280W        W11331   7.225   1.085  11.741 -0.1095 -0.0318 -0.0077
 7281W        W11332   8.186   0.982   9.544  0.0386 -0.0991 -0.1109
 7282W        W11333   3.996   9.569   2.350  0.0124  0.0471  0.1464
 7283W        W11334   8.059   9.963   0.591 -0.2114 -0.1005 -0.0153
 7284W        W11335   3.693   8.707   3.677 -0.1629  0.0225  0.0912
 7285W        W11336   4.345   4.127   0.276 -0.2850  0.1011  0.1240
 7286W        W11337   2.198   5.506   0.966 -0.0486 -0.1576 -0.1008
 7287W        W11338   6.753   6.079   0.738  0.1206  0.2612  0.0481
 7288W        W11339   4.936   1.165   4.046 -0.1245  0.2034 -0.0647
 7289W        W11340   3.840   3.581  12.877 -0.1804 -0.0051  0.0224
 7290W        W11341   1.791   0.474   2.295  0.1711 -0.0221  0.0285
 7291W        W11342   1.363   9.548   1.301 -0.0449  0.0957 -0.1849
 7292W        W11343   8.959   9.793  11.646 -0.1884 -0.1845 -0.1169
 7293W        W11344   9.575   3.026  12.565 -0.0965 -0.3835 -0.1921
 7294W        W11345   3.002   4.214   3.698  0.0376  0.1237 -0.0382
 7295W        W11346   8.619   9.535   9.568  0.0404 -0.0006 -0.1226
 7296W        W11347   4.387   9.868   2.588 -0.2797  0.1428  0.2822
 7297W        W11348   4.412   3.652   3.048 -0.2931  0.2102  0.0193
 7298W        W11349   1.434   0.039  12.567  0.0721  0.0416  0.1347
 7299W        W11350   1.735   0.127  11.103 -0.1965 -0.0060  0.0577
 7300W        W11351   5.887   3.144   2.955  0.0884  0.0948  0.0289
 7301W        W11352   5.421   1.374  12.300 -0.2247  0.0626  0.3067
 7302W        W11353   2.699   6.391  13.927  0.4667  0.2553  0.0540
 7303W        W11354   3.372   9.711  12.540  0.1585 -0.2876  0.2376
 7304W        W11355   8.813   3.023  13.464  0.2101  0.0416  0.0463
 7305W        W11356   9.271   1.736  11.115 -0.0187  0.1974  0.1656
 7306W        W11357   7.129   5.270   3.264 -0.0612  0.2916  0.1573
 7307W        W11358   9.336   6.789   9.507  0.2599  0.0942 -0.1672
 7308W        W11359   6.346   2.257  13.103  0.2706  0.0642  0.0370
 7309W        W11360   6.706   1.085  11.316 -0.2959 -0.0462 -0.1976
 7310W        W11361   0.785   1.136   1.568  0.0567  0.0266  0.2105
 7311W        W11362   4.083   5.357   2.142 -0.0077 -0.0206 -0.0044
 7312W        W11363   4.755   4.459   4.123  0.0240 -0.0419 -0.2332
 7313W        W11364   0.220   1.216  12.929  0.3687  0.0066  0.0232
 7314W        W11365   0.902   7.312   9.433  0.5356  0.1525 -0.2539
 7315W        W11366   9.044   9.478   1.973  0.0250  0.0139 -0.0919
 7316W        W11367   8.243   8.119   0.883 -0.0034  0.1008  0.0501
 7317W        W11368   0.853   2.373  10.995  0.2137 -0.1170 -0.3648
 7318W        W11369   6.480   2.012   1.832 -0.1593  0.0365 -0.1704
 7319W        W11370   3.968   6.758  11.774  0.0927  0.0905 -0.3389
 7320W        W11371   0.702   1.774   4.138  0.0841  0.0316  0.0094
 7321W        W11372   0.733   5.875  11.742  0.0063 -0.1067 -0.0713
 7322W        W11373   9.133   8.969   2.033 -0.0483 -0.0333  0.2285
 7323W        W11374   2.299   5.031   1.332 -0.0212 -0.1977  0.2628
 7324W        W11375   4.289   6.028  13.329  0.2857  0.0654  0.2028
 7325W        W11376   9.677   2.291   0.313 -0.2082  0.1672  0.0340
 7326W        W11377   9.111   1.553   2.660  0.0480 -0.0063  0.0952
 7327W        W11378   1.973   4.301  13.039 -0.1558 -0.0843 -0.1978
 7328W        W11379   7.584   7.784   9.206 -0.1244  0.0181 -0.0129
 7329W        W11380   8.341   3.357  11.239 -0.0185  0.1503 -0.1216
 7330W        W11381   0.982   0.046  13.693  0.2230 -0.1572  0.0100
 7331W        W11382   8.329   5.625   1.920 -0.1070 -0.4226  0.0963
 7332W        W11383   3.340   6.999   4.557 -0.1749  0.1307 -0.1259
 7333W        W11384   1.113   7.901  12.320  0.1270 -0.0651  0.2646
 7334W        W11385   4.849   8.749  13.325  0.1129  0.1403 -0.0806
 7335W        W11386   8.191   0.017   9.773 -0.0712 -0.1206  0.2330
 7336W        W11387   7.511  10.195   5.143  0.1553  0.0818  0.0004
 7337W        W11388   1.201   9.485   9.500  0.3840  0.1208 -0.4728
 7338W        W11389   0.563   3.260   2.914 -0.5564  0.0357 -0.1299
 7339W        W11390   7.910   9.507  13.916 -0.3061 -0.1468 -0.1062
 7340W        W11391   8.008   0.134   0.117 -0.2213 -0.0741 -0.1398
 7341W        W11392   2.990   4.984  12.642  0.0860  0.0072 -0.2675
 7342W        W11393   0.909   0.294  10.501  0.0828 -0.0631 -0.0939
 7343W        W11394   8.034   1.041  10.976 -0.0387 -0.0596 -0.1126
 7344W        W11395   4.546   0.726   0.007  0.1145  0.0262  0.0216
 7345W        W11396   4.163   6.567   1.330 -0.2478 -0.2861 -0.0529
 7346W        W11397   2.882   6.187   2.102 -0.0710 -0.3239 -0.1173
 7347W        W11398   0.903   3.937   9.890  0.2684  0.0209 -0.2950
 7348W        W11399   2.922   7.921   3.691  0.0740  0.2487 -0.1832
 7349W        W11400   8.610   6.613   5.740  0.0854 -0.1192  0.1789
 7350W        W11401   1.897   6.948   3.166 -0.2615  0.3823 -0.1383
 7351W        W11402   7.839   8.923  11.557 -0.1101  0.3274 -0.0615
 7352W        W11403   9.709   1.322  12.865  0.0676 -0.1446  0.1048
 7353W        W11404   7.386   9.949  10.015 -0.0665  0.2130 -0.3026
 7354W        W11405   9.879   4.705   1.191 -0.5225  0.4177  0.1013
 7355W        W11406   7.364   4.107  11.960  0.3570 -0.0496 -0.1124
 7356W        W11407   6.579   2.317  12.630 -0.3242 -0.0512  0.1326
 7357W        W11408   9.735   4.217   0.114 -0.2815  0.0671  0.3443
 7358W        W11409   1.130   6.149   1.130 -0.3271 -0.0223  0.0353
 7359W        W11410   9.057   9.723   9.168  0.1480  0.0188  0.2109
 7360W        W11411   3.898  10.030   1.855 -0.1638 -0.1656  0.0288
 7361W        W11412   9.161   7.613   0.282 -0.0059  0.2570  0.3769
 7362W        W11413   5.662   0.634   4.230  0.2114  0.2678 -0.2913
 7363W        W11414   0.226   6.434   2.964  0.1404  0.1229 -0.2005
 7364W        W11415   6.631   3.803  10.493 -0.0098  0.0754  0.0986
 7365W        W11416   5.900   7.085   2.379 -0.2788 -0.1875  0.0123
 7366W        W11417   6.479   9.346   4.696  0.1110  0.0614  0.0548
 7367W        W11418   1.551   2.181  11.838  0.0326  0.2648  0.2311
 7368W        W11419   8.970   0.532  11.801 -0.2261  0.4076 -0.2190
 7369W        W11420   7.684   3.020  10.705 -0.2167 -0.0920  0.1015
 7370W        W11421   9.218   7.536   2.755 -0.2013  0.1251 -0.0616
 7371W        W11422   2.790   9.489  13.119 -0.1513  0.3285  0.1031
 7372W        W11423   7.920   6.685   3.264  0.2178 -0.0293  0.2016
 7373W        W11424   2.654   1.211  10.687 -0.0595  0.1442  0.0765
 7374W        W11425   8.172   5.269  10.606  0.4176  0.2030  0.2339
 7375W        W11426   7.645   3.385   9.623  0.1372 -0.4722  0.4447
 7376W        W11427   4.193   2.978  13.465 -0.1403  0.0186  0.2695
 7377W        W11428   0.616   4.908  13.421  0.4237  0.1869 -0.0024
 7378W        W11429   7.702   4.649   1.882  0.0291 -0.0870 -0.1529
 7379W        W11430   5.780   2.477   1.830 -0.2250 -0.3553 -0.1742
 7380W        W11431   8.871   7.573   9.781 -0.0215  0.3729  0.1022
 7381W        W11432   5.516   7.870   2.329 -0.3611 -0.0842 -0.2187
 7382W        W11433   2.713   8.023   0.813  0.0351 -0.0940  0.1195
 7383W        W11434   0.328   2.660  11.616  0.0067  0.2186 -0.0110
 7384W        W11435   1.380   9.357  13.302 -0.1919  0.0977  0.2046
 7385W        W11436   9.392   4.784   3.629  0.0201 -0.1402 -0.1098
 7386W        W11437   2.366   5.747   4.240 -0.0220 -0.3475 -0.1387
 7387W        W11438   6.396   6.346  10.859  0.0178 -0.2658  0.1680
 7388W        W11439   1.394   7.388   3.949  0.1877 -0.0775  0.1508
 7389W        W11440   2.020   4.623   1.362  0.0995 -0.2349 -0.0397
 7390W        W11441   0.080   2.161  11.790  0.0547 -0.3107  0.0703
 7391W        W11442   1.765   2.126   2.788  0.0321 -0.1710 -0.2225
 7392W        W11443   0.377   1.146  13.761  0.1148  0.2617 -0.1790
 7393W        W11444   2.268   7.275  10.453  0.2169  0.3260  0.1146
 7394W        W11445   1.663   3.908  11.769 -0.0813  0.0074  0.0237
 7395W        W11446   2.679   2.121  13.513  0.2645  0.0896 -0.1720
 7396W        W11447   4.906   7.393   0.471 -0.0327  0.3020 -0.0216
 7397W        W11448   6.273   3.855   9.521 -0.0412  0.2911 -0.2245
 7398W        W11449   0.365   8.982   4.574  0.0836 -0.3308 -0.1352
 7399W        W11450   7.074   0.288   2.478 -0.1056 -0.0003  0.4973
 7400W        W11451   3.722   8.566  11.918  0.4026 -0.0754 -0.0933
 7401W        W11452   2.677   9.169   0.775 -0.1745  0.1370 -0.1325
 7402W        W11453   3.881   0.932   1.233  0.2445 -0.1985 -0.5669
 7403W        W11454   7.412   8.457   3.776  0.1675  0.2446 -0.0626
 7404W        W11455   7.768   9.464   0.494 -0.0337 -0.1546 -0.0806
 7405W        W11456   3.109   8.465   9.173  0.0045 -0.2511 -0.1406
 7406W        W11457   0.182   4.504   1.310 -0.0869 -0.1627  0.0631
 7407W        W11458   6.379   2.891   1.178 -0.0074 -0.1505 -0.1524
 7408W        W11459   6.476   5.576  11.835 -0.0105 -0.0711 -0.0617
 7409W        W11460   5.434   3.838   0.519 -0.1508  0.3794  0.2609
 7410W        W11461   7.814   3.582   0.328 -0.3121 -0.0717 -0.3237
 7411W        W11462   0.892   0.887  13.474  0.2703 -0.0504 -0.3641
 7412W        W11463   6.207   4.176   0.725 -0.0320 -0.0324 -0.2354
 7413W        W11464   6.216   9.393   2.785 -0.0012  0.1974  0.0086
 7414W        W11465   3.111   5.840   4.713 -0.3522  0.1412 -0.1138
 7415W        W11466   1.444   8.895  13.106  0.1408  0.0940  0.0460
 7416W        W11467   6.455   9.546   0.996  0.0982  0.1989 -0.1278
 7417W        W11468   6.722  10.087  12.192 -0.0441  0.0430  0.0040
 7418W        W11469   2.172   1.761  13.798  0.3505  0.0055  0.0122
 7419W        W11470   0.706   2.962  12.159 -0.0270  0.1652 -0.1919
 7420W        W11471   1.936   7.137  11.779 -0.2837  0.0044  0.0413
 7421W        W11472   6.428   6.791   5.345  0.3063 -0.1725 -0.0332
 7422W        W11473   0.031   1.159   2.055  0.3744 -0.1771  0.0697
 7423W        W11474   0.718   0.868  12.542 -0.2850 -0.0612 -0.1250
 7424W        W11475   8.483   5.389   1.351  0.0150  0.2438  0.1716
 7425W        W11476   3.483   9.624  12.983 -0.2413 -0.1521 -0.0703
 7426W        W11477   1.247   0.295  11.269  0.1838  0.0669  0.4036
 7427W        W11478   5.689   2.977   2.047 -0.2846 -0.0297  0.0592
 7428W        W11479   1.574   2.294  12.679  0.0562 -0.1934 -0.0501
 7429W        W11480   7.014   8.436  13.737 -0.2756 -0.1268  0.0286
 7430W        W11481   7.512   1.968   0.935 -0.2727  0.1428 -0.1666
 7431W        W11482   7.861   4.713   8.768  0.0320  0.1636 -0.1031
 7432W        W11483   5.682   4.380   4.474 -0.2533  0.0036 -0.1643
 7433W        W11484   4.051   5.139   9.573  0.2421 -0.0082  0.1159
 7434W        W11485   2.675   9.139   1.296 -0.1247  0.2786  0.0358
 7435W        W11486   1.634   3.326  10.004 -0.2786 -0.2820 -0.0497
 7436W        W11487   8.881   6.114   9.488  0.0815  0.1792  0.1546
 7437W        W11488  10.077   5.618   2.816  0.1908 -0.2555 -0.3913
 7438W        W11489   1.448   4.792   3.660 -0.1033  0.0715 -0.3159
 7439W        W11490   3.740   6.072  10.877  0.0462  0.1190 -0.0374
 7440W        W11491   6.050   1.674  10.341 -0.0729 -0.1105 -0.1037
 7441W        W11492   6.858   7.950   4.369 -0.1995 -0.1190  0.1953
 7442W        W11493   6.938   6.825  11.523  0.3474 -0.0957  0.0151
 7443W        W11494  10.001   8.043   1.702 -0.1028  0.2881  0.0406
 7444W        W11495   3.201   2.080  13.498 -0.2939 -0.0583 -0.0207
 7445W        W11496   5.255   2.440   4.004 -0.0650 -0.1797 -0.4244
 7446W        W11497   6.036   4.093   2.767  0.0385 -0.0301 -0.0549
 7447W        W11498   0.665   5.517   3.001  0.0216 -0.1487  0.1764
 7448W        W11499   6.056   1.107  13.520  0.0165  0.1358 -0.0167
 7449W        W11500   8.901   1.693  10.510  0.0483 -0.0098 -0.0554
 7450W        W11501   9.905   7.253  13.488 -0.0721 -0.0190 -0.0579
 7451W        W11502   5.980   5.747   1.143 -0.2477 -0.3096 -0.1526
 7452W        W11503   9.233   3.478   0.547  0.2827  0.0458  0.2466
 7453W        W11504   9.488   2.126   3.212 -0.1561  0.3050  0.0394
 7454W        W11505   9.379   3.585   2.882  0.1203  0.4170  0.3294
 7455W        W11506  10.046   8.554  13.773 -0.0178  0.0799 -0.1114
 7456W        W11507   5.669   6.974   3.337  0.3554  0.2977  0.2011
 7457W        W11508  10.157   8.729   1.917  0.0242 -0.0841 -0.2501
 7458W        W11509   8.401   3.673   2.514 -0.2467 -0.2384  0.2881
 7459W        W11510   4.892   1.441  11.596 -0.0940 -0.3210 -0.1724
 7460W        W11511   4.513   7.590   2.557  0.1936 -0.0557 -0.3814
 7461W        W11512   1.013   8.747   9.858  0.4828  0.3145  0.1130
 7462W        W11513   6.547   1.273   3.077 -0.2162  0.2890  0.3032
 7463W        W11514   3.811   6.434   0.032  0.1654 -0.1759 -0.1431
 7464W        W11515   9.344   9.767   2.390 -0.2188 -0.0389 -0.0187
 7465W        W11516   0.049   6.139  12.290  0.0531  0.2671  0.2515
 7466W        W11517   0.626   4.796  12.149 -0.0668 -0.0645  0.0614
 7467W        W11518   1.764   7.872  13.655 -0.0438  0.1293  0.0273
 7468W        W11519   3.554   3.678   4.269 -0.0977  0.2802  0.0603
 7469W        W11520   7.512   2.913   4.288  0.1697 -0.2491  0.1488
 7470W        W11521   5.455   7.363   2.454 -0.2488 -0.3940 -0.0955
 7471W        W11522   2.037   7.967   3.325 -0.0480 -0.0819 -0.0885
 7472W        W11523   5.848   1.529   2.303  0.0274 -0.1375  0.0057
 7473W        W11524   1.436   3.726  12.189  0.0016 -0.2510  0.0304
 7474W        W11525   8.352   6.094  13.270 -0.2137  0.3231  0.0411
 7475W        W11526   0.356   1.819   3.692  0.1895  0.0824  0.1277
 7476W        W11527   0.477   7.786  10.129  0.1322  0.3294 -0.3412
 7477W        W11528   5.754   8.603   1.940  0.2175  0.2103  0.3078
 7478W        W11529   0.185   0.741  12.521  0.0187 -0.0238  0.0319
 7479W        W11530   8.507   6.302   1.534 -0.0040  0.2534  0.1637
 7480W        W11531   1.305   1.523   2.203  0.0844  0.3192  0.3801
 7481W        W11532   6.447   1.431   2.180 -0.1051 -0.0462  0.0849
 7482W        W11533   0.458   7.464  13.364  0.1630  0.2565  0.2375
 7483W        W11534   7.063   9.930  11.780 -0.1397  0.0396 -0.0038
 7484W        W11535   5.480   6.472  10.762 -0.1671 -0.1952 -0.2507
 7485W        W11536   8.165   7.688   4.964  0.2975  0.0508  0.1090
 7486W        W11537   6.502   1.997   0.844  0.1859  0.0792  0.0664
 7487W        W11538   4.599   0.102  10.606 -0.0031  0.1937 -0.2943
 7488W        W11539   1.843   9.927  10.330  0.2726  0.2116  0.2057
 7489W        W11540   9.917   5.907  12.628 -0.3952  0.0717  0.2407
 7490W        W11541   0.469   3.630   1.207  0.0750 -0.0531 -0.0173
 7491W        W11542   8.052   4.794   4.658  0.2113  0.1596  0.1158
 7492W        W11543   3.609   6.859   3.380  0.1989 -0.3944  0.0493
 7493W        W11544   0.246   6.006  11.654  0.0255  0.1337 -0.2252
 7494W        W11545   8.474   2.272   0.347  0.1449  0.1339 -0.4633
 7495W        W11546   5.982   9.600  12.558 -0.1558  0.0503 -0.1653
 7496W        W11547   7.474   8.829   0.644  0.2217  0.0277 -0.1298
 7497W        W11548   2.103   8.454   0.434  0.2101 -0.0081  0.1842
 7498W        W11549   6.279   3.802   0.379  0.1102 -0.5040  0.0409
 7499W        W11550   0.022   3.715   1.498 -0.1276  0.2684 -0.3879
 7500W        W11551   9.898   4.071   3.673  0.0596 -0.1604  0.3275
 7501W        W11552   6.812   9.509   4.394  0.2363 -0.3471  0.2724
 7502W        W11553   6.768   3.336  11.317  0.2237  0.2152 -0.1331
 7503W        W11554   9.298   7.315   1.269  0.2364  0.1639  0.0089
 7504W        W11555   5.083   5.025   3.509 -0.1873 -0.1898 -0.0257
 7505W        W11556   0.605   8.715   1.095  0.0280 -0.0469  0.0937
 7506W        W11557   5.555   3.446  10.161  0.3264 -0.0922  0.0117
 7507W        W11558   1.272  10.052  10.268 -0.2026  0.4073 -0.3726
 7508W        W11559   0.567   1.086   0.560 -0.1307  0.1890 -0.0591
 7509W        W11560   8.441   4.461  10.124  0.3536  0.0758 -0.3327
 7510W        W11561   8.649   0.635   3.680 -0.3674 -0.1320 -0.2182
 7511W        W11562   6.481   9.023   4.214  0.2425  0.1310 -0.0374
 7512W        W11563   9.330   4.442   5.197 -0.0195  0.1209 -0.3175
 7513W        W11564   0.629   5.456  10.414 -0.0133  0.2850  0.0194
 7514W        W11565   2.199   2.091   0.335  0.1155  0.4064  0.1978
 7515W        W11566   2.925   2.456   1.483 -0.0934 -0.0753  0.0047
 7516W        W11567   8.539   6.997   3.393  0.0588 -0.0918 -0.2105
 7517W        W11568   7.710   7.946   0.941 -0.0084  0.0990  0.3887
 7518W        W11569   1.525   9.997   1.442 -0.1956 -0.1721 -0.0817
 7519W        W11570   0.052   1.246   9.864  0.1524 -0.0227  0.1835
 7520W        W11571   4.965   0.396   0.737 -0.3796  0.0828  0.0451
 7521W        W11572   4.390   2.414  10.838  0.0898  0.1338  0.1417
 7522W        W11573   7.367   4.839   3.033 -0.1051 -0.1571  0.2601
 7523W        W11574   4.755   3.266   5.475 -0.0903 -0.0419  0.2004
 7524W        W11575   5.205   4.017   8.581 -0.2470  0.0102 -0.3361
 7525W        W11576   3.096   3.599   0.275 -0.0341 -0.1744 -0.0818
 7526W        W11577   4.578   7.139   0.170  0.2154 -0.0339  0.0584
 7527W        W11578   2.363   2.468   0.125 -0.1240 -0.2566 -0.4838
 7528W        W11579   3.870   5.853   0.670 -0.1794 -0.2013  0.3693
 7529W        W11580   7.110   0.009   1.402 -0.2969  0.0481 -0.1493
 7530W        W11581   2.579   6.601   0.571  0.3050 -0.2140 -0.3619
 7531W        W11582   5.435   6.508   3.621 -0.0460 -0.2663 -0.0961
 7532W        W11583   5.517   8.442   2.833  0.1671  0.2191  0.1319
 7533W        W11584   8.668   1.978   3.419 -0.1964 -0.0392  0.3648
 7534W        W11585   2.684   0.549   3.340  0.0122  0.0913  0.5003
 7535W        W11586   0.538   9.154  11.993 -0.0153  0.1158 -0.4890
 7536W        W11587   2.806   5.574   0.327  0.1639 -0.4298  0.3028
 7537W        W11588   1.290   4.759   0.008  0.0887 -0.2046 -0.2436
 7538W        W11589   4.181   2.015  12.095  0.0797 -0.2283 -0.1130
 7539W        W11590   3.608   5.238  10.334 -0.2780 -0.1718  0.1253
 7540W        W11591   3.632   4.048  13.600 -0.2590  0.0663 -0.1992
 7541W        W11592   7.983   4.123  13.115 -0.0030 -0.3925  0.0585
 7542W        W11593   8.357   5.804   3.740  0.0659  0.2620  0.0225
 7543W        W11594   9.085   3.730   9.043  0.1843  0.1117  0.0253
 7544W        W11595   9.427   9.836   1.897 -0.0662  0.0049  0.0005
 7545W        W11596   9.109   6.541   0.570 -0.2444 -0.0894 -0.0704
 7546W        W11597   9.668   4.437   3.874 -0.3180 -0.0205  0.1884
 7547W        W11598   7.824  10.191  12.281 -0.1108 -0.2310  0.0630
 7548W        W11599   3.229   7.736   3.996  0.1702 -0.0934  0.0877
 7549W        W11600   0.583   1.494  10.650  0.0802  0.2028 -0.0060
 7550W        W11601   8.979   9.656   0.824  0.2342 -0.1795 -0.1624
 7551W        W11602   5.779   4.348  12.002 -0.4568  0.0065  0.0614
 7552W        W11603   7.078   7.744   3.392 -0.2327 -0.1184  0.3677
 7553W        W11604   7.891   0.704  11.882  0.0913  0.1227 -0.1446
 7554W        W11605   1.418   0.222   3.678  0.0479 -0.0008 -0.3238
 7555W        W11606   3.229   7.033   1.240  0.1638  0.1747  0.1295
 7556W        W11607   6.195   0.087  11.368  0.3556  0.1590 -0.0472
 7557W        W11608   0.142   6.600   9.598 -0.2231 -0.2860 -0.3039
 7558W        W11609   9.415   1.048   1.475  0.0523 -0.0309 -0.2830
 7559W        W11610   4.965   5.788   0.008 -0.1317 -0.0246 -0.2628
 7560W        W11611   3.643   1.786  11.976  0.0056  0.0248  0.0130
 7561W        W11612   2.174   0.518   3.411  0.3278  0.2724  0.4471
 7562W        W11613   8.286  10.107  10.847  0.2505  0.1470  0.3115
 7563W        W11614   3.377   3.860   5.138  0.0863  0.2763  0.0009
 7564W        W11615   9.056   8.378  11.852  0.0321  0.0625  0.1879
 7565W        W11616   0.048   5.542   1.348  0.0628 -0.2049 -0.2567
 7566W        W11617   0.643   9.515   1.732  0.4241  0.0687 -0.0630
 7567W        W11618   2.762   5.454   4.209  0.1181 -0.0579  0.3585
 7568W        W11619   7.720   4.004   3.557 -0.1307 -0.1090  0.0877
 7569W        W11620  10.098   3.693   0.928  0.2040  0.1404  0.0528
 7570W        W11621   4.959   3.596   2.013  0.2276  0.1002  0.2773
 7571W        W11622   4.565   5.065  11.168  0.1623  0.3092 -0.0647
 7572W        W11623   2.871   3.541   3.012  0.6742  0.2651 -0.0236
 7573W        W11624   2.073   1.283  10.104  0.0972 -0.1830 -0.0854
 7574W        W11625   8.379   3.360   2.915 -0.0449 -0.2028  0.0531
 7575W        W11626   5.733   3.018  13.428  0.3516  0.0578  0.0171
 7576W        W11627   0.013   8.725   0.331  0.0377  0.1635 -0.4459
 7577W        W11628   9.978   8.247   4.645  0.1318  0.0292 -0.0239
 7578W        W11629   2.351   6.764   3.294  0.4612 -0.1464 -0.1144
 7579W        W11630   3.816   4.503  13.220  0.2115 -0.0120  0.0013
 7580W        W11631   8.577   3.958   4.368 -0.1050  0.1877 -0.1040
 7581W        W11632   1.798   8.498  11.323  0.1753 -0.2513 -0.3297
 7582W        W11633   0.040   0.296  12.140  0.2301 -0.1646  0.0143
 7583W        W11634   8.347   1.392  13.112 -0.1422  0.0577 -0.4268
 7584W        W11635   4.666   8.945   2.938 -0.1436 -0.0389  0.1647
 7585W        W11636   9.650   2.351   1.150  0.1866 -0.1497 -0.2378
 7586W        W11637   0.210   8.495   3.621  0.0637  0.0663  0.0448
 7587W        W11638   8.660   4.814  11.135  0.1648  0.1825 -0.1576
 7588W        W11639   3.856   8.516   1.897 -0.1365  0.1121  0.0459
 7589W        W11640   8.745   4.991   2.418 -0.0497  0.0545 -0.0536
 7590W        W11641   5.821   5.680  11.418  0.0052  0.0069  0.0214
 7591W        W11642   2.411   5.476   3.830 -0.1530  0.1098  0.0538
 7592W        W11643   4.475   4.830   1.791  0.1466 -0.1693 -0.2003
 7593W        W11644   1.313   1.204   2.606 -0.0848 -0.0774  0.1057
 7594W        W11645   4.995   5.682   4.153 -0.1279  0.0662  0.2683
 7595W        W11646   5.807   9.914   2.130 -0.3183 -0.1471 -0.2703
 7596W        W11647   3.285   8.210  13.837  0.0191 -0.0431 -0.0004
 7597W        W11648   8.288   2.466   3.889 -0.2125  0.2985 -0.0432
 7598W        W11649   8.006   3.311   8.837  0.0546  0.2805  0.2980
 7599W        W11650   5.082   7.632   2.318 -0.0026 -0.1979  0.1133
 7600W        W11651   1.655   3.279  12.193 -0.1264 -0.2807 -0.0097
 7601W        W11652   9.284   2.112  10.776  0.2581  0.2245  0.0306
 7602W        W11653   4.264   5.485  11.513  0.2492 -0.0732  0.1360
 7603W        W11654   4.183   8.912   3.761 -0.0839 -0.1545  0.0743
 7604W        W11655   4.212   9.436   1.406 -0.1016 -0.0960 -0.2084
 7605W        W11656   7.217   1.239   4.232  0.3270 -0.0204 -0.1313
 7606W        W11657   1.437   0.834   2.238 -0.1575  0.2640  0.1359
 7607W        W11658   1.510   6.138   0.777  0.1228 -0.1476 -0.0086
 7608W        W11659   3.690   8.376   0.132  0.2352 -0.3222  0.2131
 7609W        W11660   7.896   7.954  10.508  0.1854 -0.0816 -0.0020
 7610W        W11661   4.107   8.328  11.610  0.0840 -0.1790 -0.3973
 7611W        W11662   0.154   0.681   8.770  0.0454  0.0192 -0.0701
 7612W        W11663   8.310   6.952   4.955  0.0050 -0.0827  0.2078
 7613W        W11664   3.346   1.205   0.419  0.1033  0.1073 -0.0989
 7614W        W11665   9.414   2.486   2.280  0.1440  0.2462 -0.1867
 7615W        W11666   2.566   3.942  13.449 -0.2354  0.1571  0.2531
 7616W        W11667   6.003   4.808  12.185  0.1111  0.1427 -0.0683
 7617W        W11668   9.527   8.346   4.880 -0.2776 -0.0412  0.0761
 7618W        W11669   3.376   4.310  13.036 -0.0497 -0.1637  0.0056
 7619W        W11670   1.875   3.245   4.379  0.1434  0.1965  0.2411
 7620W        W11671   6.744   5.003   4.648  0.1684 -0.1319 -0.3053
 7621W        W11672  10.024   5.842   3.870 -0.0310  0.2269  0.1504
 7622W        W11673   6.724   3.893   3.353 -0.1726  0.2018 -0.1419
 7623W        W11674   0.303   9.400  13.566 -0.1063 -0.1992  0.0375
 7624W        W11675   1.206   2.165  10.274  0.0127  0.1244 -0.0013
 7625W        W11676   6.978   6.208   4.405  0.0952 -0.2382 -0.0114
 7626W        W11677   9.022   3.541  13.822 -0.0131  0.1685  0.3618
 7627W        W11678   5.863   8.651  12.428 -0.2983 -0.0527 -0.0668
 7628W        W11679   5.865   0.848  10.793 -0.1179 -0.0943 -0.0622
 7629W        W11680   9.831   7.086  11.509  0.1239  0.1262  0.3690
 7630W        W11681   9.745   7.678   9.469  0.2545  0.0266  0.0967
 7631W        W11682   6.792   0.525   9.801 -0.1065 -0.0381 -0.1734
 7632W        W11683   0.079   4.062   3.979 -0.1651 -0.0404  0.1457
 7633W        W11684   5.733   9.324  13.666 -0.1334  0.2376 -0.0497
 7634W        W11685   2.160   9.432   2.549  0.0213  0.1203 -0.1770
 7635W        W11686   4.700   2.018   0.984  0.5830 -0.0343  0.1805
 7636W        W11687   6.664   8.146  11.744  0.2550  0.2574 -0.1671
 7637W        W11688   7.431   9.611  11.797 -0.1554  0.1401  0.3178
 7638W        W11689   0.578   8.454   0.223 -0.0083  0.0268 -0.0066
 7639W        W11690   7.719   0.188  12.724 -0.1235  0.2312  0.2718
 7640W        W11691   6.258   0.659   3.859 -0.0887  0.0879  0.2511
 7641W        W11692   7.092   1.490  11.439  0.2331  0.1987 -0.0977
 7642W        W11693   1.934   8.417   9.983  0.0005 -0.2423 -0.0725
 7643W        W11694   8.623   9.487   1.733 -0.1544  0.2485  0.0307
 7644W        W11695   1.670   1.927   3.247 -0.0574  0.0661  0.5014
 7645W        W11696   3.028   9.381   2.809 -0.1262  0.1151  0.1451
 7646W        W11697   9.987   3.759   0.058  0.0002  0.3535 -0.2403
 7647W        W11698   4.128   7.249   3.260 -0.0951 -0.1601 -0.0311
 7648W        W11699   0.215   3.149  13.442 -0.0214 -0.3297  0.1364
 7649W        W11700   2.607   7.959   1.957 -0.2399  0.3579  0.0709
 7650W        W11701   0.293   8.325  10.800  0.1374  0.1328  0.1814
 7651W        W11702   0.159   9.123   0.978 -0.1732  0.0629 -0.1448
 7652W        W11703   5.817   2.883  11.161 -0.0881  0.1688 -0.0769
 7653W        W11704   1.624   3.663  12.644  0.1369  0.2312 -0.1365
 7654W        W11705   0.675   8.955   2.495 -0.2272 -0.0629 -0.1880
 7655W        W11706   2.048   8.763  10.302  0.1999  0.1706 -0.0776
 7656W        W11707   8.776   1.539   1.241 -0.0246 -0.3050 -0.1541
 7657W        W11708   5.761   4.780  10.533 -0.0371  0.1505 -0.0737
 7658W        W11709   3.693   9.992   9.598 -0.1541 -0.3372 -0.0636
 7659W        W11710   2.237   6.438   9.581  0.2519  0.0409 -0.0893
 7660W        W11711   5.796   3.291  10.850 -0.0368  0.1336  0.0752
 7661W        W11712   3.409   0.918  12.977  0.0129 -0.0196 -0.0178
 7662W        W11713   0.409   8.528   5.357 -0.0311  0.0442 -0.2365
 7663W        W11714   9.097   6.454   9.801 -0.2248 -0.1424 -0.1236
 7664W        W11715   6.679   8.928  13.685  0.0905  0.3518 -0.1145
 7665W        W11716   7.765   3.083  13.273  0.1697 -0.0419 -0.1063
 7666W        W11717   1.684   6.563  11.985  0.1219  0.1977  0.0240
 7667W        W11718   8.383   1.821  12.204 -0.1053 -0.0602 -0.1129
 7668W        W11719   9.814   5.142  13.124  0.1519  0.2719  0.1649
 7669W        W11720   4.910   9.081   1.465 -0.0948  0.2566 -0.0368
 7670W        W11721   9.741   4.896   5.353  0.0247  0.1554 -0.2924
 7671W        W11722   7.102   8.006  13.294  0.3432  0.1614 -0.4029
 7672W        W11723   2.434  10.018   0.511  0.3260 -0.0136  0.4118
 7673W        W11724   3.764   5.788   4.223  0.0112  0.1707  0.1426
 7674W        W11725   2.907   5.378   2.918 -0.1463  0.1432 -0.3919
 7675W        W11726   4.215   2.189   1.552 -0.1068 -0.1607  0.3220
 7676W        W11727   3.385   3.474  12.542  0.0342 -0.0977 -0.1920
 7677W        W11728   0.264   1.567   1.868  0.1042  0.1639 -0.2065
 7678W        W11729   7.623   1.866  12.576 -0.3266  0.2611 -0.0534
 7679W        W11730  10.002   0.228   3.039  0.1872  0.2127  0.1563
 7680W        W11731  10.097   3.899   1.945 -0.4139  0.1800  0.0229
 7681W        W11732   4.929   0.612   1.245 -0.0244  0.0391 -0.0500
 7682W        W11733   2.249   6.825  10.280 -0.1130  0.0510 -0.0355
 7683W        W11734   8.015   3.818   8.749  0.0163  0.1369 -0.1002
 7684W        W11735   6.633   1.614   9.641  0.2498 -0.0917  0.1741
 7685W        W11736   0.236   8.966  10.833  0.1211  0.0942 -0.1089
 7686W        W11737   0.847   8.214  12.870 -0.0443 -0.0397  0.1263
 7687W        W11738   6.466   4.914   0.433 -0.3053 -0.1774 -0.0670
 7688W        W11739   6.523   1.342  13.631  0.2315 -0.3418 -0.0177
 7689W        W11740   1.898   1.062   4.299 -0.2820 -0.0870 -0.2427
 7690W        W11741   6.151   1.554   2.826 -0.1218  0.1503 -0.0467
 7691W        W11742   1.141   6.513  12.643 -0.2693 -0.2386  0.0608
 7692W        W11743   8.258   5.671   9.652 -0.0974  0.2223  0.4606
 7693W        W11744   4.565   4.103   9.245 -0.0320  0.0398 -0.0414
 7694W        W11745   6.628   3.293  12.149 -0.1883 -0.0940 -0.0813
 7695W        W11746  10.069   1.917  13.062  0.0323 -0.0303  0.5576
 7696W        W11747   7.467   2.126  12.951  0.1034 -0.0368 -0.1700
 7697W        W11748   6.837   0.766  11.747  0.1649 -0.1033 -0.0230
 7698W        W11749   1.062   6.268  10.520 -0.0325  0.1733 -0.0247
 7699W        W11750   4.083   4.594  11.809 -0.2012 -0.3809  0.0476
 7700W        W11751   4.227   9.181   9.990  0.2999 -0.0503 -0.1153
 7701W        W11752   4.760   5.956  10.330  0.1711 -0.0702  0.0835
 7702W        W11753   6.655   4.816   2.600 -0.0871 -0.2264 -0.0287
 7703W        W11754   2.300   2.954  10.117  0.0878  0.3220  0.4422
 7704W        W11755   4.977   1.073   2.177  0.0370  0.0229 -0.1993
 7705W        W11756   9.491   3.641   0.125  0.1934  0.1354  0.0856
 7706W        W11757   8.652   9.136   0.143 -0.4537  0.0413 -0.1962
 7707W        W11758   6.717   6.881   2.452 -0.1545  0.0124  0.0322
 7708W        W11759   6.464   3.299   0.929 -0.2078 -0.2494 -0.3456
 7709W        W11760   5.289   5.938   8.653  0.0955 -0.0694  0.2697
 7710W        W11761   6.173   2.444   0.928 -0.0961 -0.1517  0.1014
 7711W        W11762   8.840   2.591  12.680 -0.1916  0.1513  0.1788
 7712W        W11763   0.798   2.448   3.468  0.2632  0.1693  0.2376
 7713W        W11764   9.414   3.613   4.850  0.2107 -0.1240  0.0375
 7714W        W11765   7.452   7.457   4.894  0.3814 -0.2153 -0.2680
 7715W        W11766   3.046   4.990   4.266  0.0960  0.0439 -0.0196
 7716W        W11767   1.407   5.152   1.056  0.1784  0.0880  0.3479
 7717W        W11768   4.567   1.379   0.577  0.1994  0.1252  0.0348
 7718W        W11769   1.347   9.755   0.393 -0.3573 -0.2202 -0.2460
 7719W        W11770   1.582   5.716   5.623 -0.0178 -0.0418  0.0995
 7720W        W11771   1.380   2.645   1.510 -0.0470 -0.2841  0.1558
 7721W        W11772   4.094   4.491   1.631  0.0320  0.0041  0.1573
 7722W        W11773   7.024   3.963   2.908 -0.1941  0.2792 -0.1143
 7723W        W11774   5.241   8.702   1.340  0.3419  0.3548 -0.0611
 7724W        W11775   4.252   3.384   1.738  0.0581 -0.7634  0.1491
 7725W        W11776   6.418   0.760  13.577  0.0136  0.2074 -0.0099
 7726W        W11777   6.948   5.613  13.942  0.0462 -0.1310 -0.1064
 7727W        W11778   1.917   5.318   0.188  0.2080  0.0985 -0.0558
 7728W        W11779   2.172   3.845   0.740 -0.1003 -0.3044  0.0840
 7729W        W11780   8.606   8.795  10.618  0.0635  0.3661 -0.1939
 7730W        W11781   4.130   2.567  11.858 -0.0903  0.0478  0.1771
 7731W        W11782   7.935   7.474  10.714  0.5288 -0.1598 -0.1462
 7732W        W11783   3.673   2.670   2.962 -0.0034 -0.0352 -0.1419
 7733W        W11784   8.625   8.668  12.506 -0.1701  0.0391  0.0562
 7734W        W11785   5.988   6.071  10.739  0.2758  0.3009 -0.0622
 7735W        W11786   5.132   5.626  10.393  0.2082  0.1904 -0.1756
 7736W        W11787   0.892   2.606   2.567  0.0898 -0.2450  0.0995
 7737W        W11788   6.677  10.004  13.898 -0.0292  0.0019 -0.1358
 7738W        W11789   9.550   8.996   1.102  0.2940  0.1058 -0.0177
 7739W        W11790   3.212   8.498  13.223 -0.1609  0.2855  0.0397
 7740W        W11791   6.991   3.546   4.841  0.1895 -0.0105  0.2844
 7741W        W11792   5.710   8.022   0.187  0.0675 -0.2093 -0.0962
 7742W        W11793   0.661   6.312   5.274 -0.0016 -0.1753 -0.2762
 7743W        W11794   3.904   9.534   1.792 -0.2518  0.1437 -0.0257
 7744W        W11795   1.736   2.447   3.473 -0.1579  0.1994  0.3358
 7745W        W11796   3.767   2.496  11.506 -0.0439  0.0294  0.1311
 7746W        W11797   6.149   7.420   1.074  0.4470 -0.1391  0.1619
 7747W        W11798   5.814   6.022   2.028 -0.1725  0.0873  0.1735
 7748W        W11799   6.733   7.391   1.173 -0.0635  0.1987 -0.0795
 7749W        W11800   1.276   2.685  12.862  0.1187 -0.0166 -0.1219
 7750W        W11801   2.723   9.004  13.250  0.1276 -0.0556  0.0141
 7751W        W11802   0.712   1.980   2.443 -0.1546  0.1962 -0.1864
 7752W        W11803   7.265   9.135  11.691  0.2575  0.0131 -0.2060
 7753W        W11804   6.805   4.585   9.714  0.0733 -0.1083  0.0584
 7754W        W11805   4.873   7.071  11.616  0.0729  0.1431  0.0622
 7755W        W11806   8.167   5.013  10.082  0.0989  0.0418  0.3921
 7756W        W11807   9.138   4.524  12.106 -0.2340  0.2169 -0.1250
 7757W        W11808   6.933   8.576   9.188  0.1663 -0.2840 -0.0146
 7758W        W11809  10.091   5.843   9.974 -0.1386 -0.1260 -0.1010
 7759W        W11810   9.838   0.756  10.906  0.4872  0.3417  0.0596
 7760W        W11811   0.735   3.620  12.967 -0.0471  0.3066  0.0489
 7761W        W11812   2.685   8.600  12.038 -0.1589 -0.0240  0.0568
 7762W        W11813   5.970   7.021  11.570  0.0804  0.4005  0.1950
 7763W        W11814   8.637   4.158   9.684 -0.2032 -0.0298 -0.1833
 7764W        W11815  10.000   0.665  13.434 -0.0154 -0.1335  0.1780
 7765W        W11816   3.528   1.942  11.097  0.0456 -0.3337 -0.2065
 7766W        W11817   4.634   6.785  12.344 -0.0488 -0.1129 -0.0442
 7767W        W11818   3.289   8.927  11.118  0.1299 -0.0321 -0.0369
 7768W        W11819   0.785   7.683   2.958  0.0454 -0.2768  0.2417
 7769W        W11820  10.197   2.592   0.882  0.4023 -0.3019 -0.0096
 7770W        W11821   2.899   6.092  11.251 -0.2665  0.2416  0.1694
 7771W        W11822   4.184   9.757  13.464 -0.0934  0.0097  0.2047
 7772W        W11823   1.742   9.662  13.509  0.1560  0.0362 -0.2097
 7773W        W11824   8.300   0.136   3.195 -0.4518  0.1947  0.2087
 7774W        W11825   1.351   7.584  11.377  0.0057 -0.1675  0.1503
 7775W        W11826   4.883   8.928   1.939  0.0039 -0.1278 -0.1677
 7776W        W11827   8.919   5.471   4.757  0.3125 -0.0958 -0.0055
 7777W        W11828   4.918   6.547  10.728 -0.0160 -0.0366  0.2472
 7778W        W11829   0.107   9.687  10.945  0.0380 -0.0989 -0.1961
 7779W        W11830   6.813   8.949   0.618 -0.4643  0.1246  0.0935
 7780W        W11831   0.818   1.679  12.167  0.1223 -0.0798  0.0191
 7781W        W11832   3.493   3.179   4.365 -0.3893  0.2724  0.1283
 7782W        W11833   9.308   7.598   9.110 -0.3119  0.1971 -0.2579
 7783W        W11834   7.316   5.578   4.463 -0.3214  0.0479  0.0451
 7784W        W11835   8.925   4.899   0.751  0.0095 -0.0294  0.0400
 7785W        W11836   3.254   2.870  12.928  0.0188  0.1778  0.0469
 7786W        W11837   1.184   5.494   5.465  0.0358  0.1788  0.0376
 7787W        W11838   7.447   4.832  13.108  0.0928 -0.2570  0.1295
 7788W        W11839   0.828   1.789  13.428 -0.2327  0.0520  0.2368
 7789W        W11840   8.986   1.475   9.048 -0.1969 -0.1016 -0.0194
 7790W        W11841   0.716   6.963   1.467 -0.1646 -0.3962  0.4301
 7791W        W11842   4.340   0.540   2.290 -0.0855 -0.1927 -0.0821
 7792W        W11843   2.887   6.462  10.431  0.2608 -0.1447 -0.0735
 7793W        W11844   7.600   5.738   2.220 -0.0641  0.2680  0.1398
 7794W        W11845   7.272   5.012   4.598 -0.1417  0.0569 -0.2822
 7795W        W11846   1.459   7.046  11.985  0.1637 -0.1250  0.0844
 7796W        W11847   7.003   8.392   1.339 -0.2749  0.1204  0.0408
 7797W        W11848   5.856   5.953   5.363 -0.0323  0.0905  0.2721
 7798W        W11849   5.902   0.562   1.833 -0.0456  0.0439  0.2062
 7799W        W11850   4.777   5.187   4.513 -0.0040  0.1855  0.0081
 7800W        W11851   4.748   8.027   3.579  0.2718 -0.0029 -0.0637
 7801W        W11852   6.973   1.649   0.303 -0.2988  0.2638  0.4821
 7802W        W11853   9.040   4.795  11.496 -0.2808  0.1270 -0.0332
 7803W        W11854   4.985   5.080  10.316  0.0962 -0.3991  0.0918
 7804W        W11855   5.549   3.172   1.278  0.3246  0.3702 -0.0634
 7805W        W11856   8.180   1.533   2.052  0.2252  0.0433  0.3065
 7806W        W11857   4.094   2.468  10.276  0.4557  0.2207 -0.1136
 7807W        W11858   0.432   8.007  11.388 -0.1854  0.0120  0.1615
 7808W        W11859   2.954   6.238   0.843  0.1007  0.3183  0.1836
 7809W        W11860   1.399   6.780   5.643  0.2751  0.0746  0.3145
 7810W        W11861   1.066   4.897   9.817  0.0651 -0.0967  0.3237
 7811W        W11862   7.842   2.374   9.597  0.0757  0.1946  0.1138
 7812W        W11863   5.350   1.942  12.533 -0.4152  0.2727 -0.1545
 7813W        W11864   0.873   8.278   9.377  0.1093  0.1783  0.1346
 7814W        W11865   6.612   3.461   9.736 -0.2248  0.1704 -0.4845
 7815W        W11866   3.768   7.638   9.952 -0.2069 -0.2188 -0.0078
 7816W        W11867   9.704   9.135   9.689  0.0653  0.1030  0.3235
 7817W        W11868   2.266   5.244   3.401  0.1846  0.2368  0.1356
 7818W        W11869   8.674   6.084   3.307  0.1089 -0.1769  0.1185
 7819W        W11870   6.076   9.496  10.357  0.3704  0.2086  0.2598
 7820W        W11871   3.561   3.522  10.187  0.0459  0.4070 -0.1241
 7821W        W11872   3.459   5.474  11.414 -0.0025  0.3048 -0.0271
 7822W        W11873   8.329   8.015  13.413 -0.1050 -0.3393  0.1596
 7823W        W11874   0.073   0.792   1.262 -0.1070  0.4693  0.1789
 7824W        W11875   6.150   6.056   9.441  0.1312 -0.1583 -0.1269
 7825W        W11876   2.968   0.477   0.913  0.3655 -0.0733 -0.0146
 7826W        W11877   6.608   8.890   2.455 -0.3339  0.0662 -0.3219
 7827W        W11878   8.996   8.141  11.387  0.0435  0.1034  0.1280
 7828W        W11879   4.250   7.203   9.962 -0.3694  0.0686  0.1847
 7829W        W11880   3.080   6.938  10.354 -0.0010 -0.2461 -0.2023
 7830W        W11881   6.406   3.394   2.684  0.2785 -0.0596  0.0678
 7831W        W11882   0.627   4.849   0.882  0.4135 -0.0130  0.2711
 7832W        W11883   0.245   2.525   0.090  0.0245  0.2316 -0.2659
 7833W        W11884   1.626   6.773   0.782 -0.4783 -0.1392 -0.3017
 7834W        W11885   3.473   6.784   0.908  0.0051  0.1435 -0.0483
 7835W        W11886   9.342   0.042  12.464 -0.1155  0.0003 -0.0073
 7836W        W11887   0.140   9.935  13.289 -0.0887  0.0147  0.1254
 7837W        W11888   9.047   4.517   2.420 -0.1343  0.1445 -0.0159
 7838W        W11889   1.238   8.880   3.674 -0.0306  0.3207  0.1658
 7839W        W11890   8.770   9.156  11.704 -0.0044  0.3145 -0.2408
 7840W        W11891   2.317   0.572  11.886 -0.1254  0.2355 -0.3512
 7841W        W11892   4.318   3.271   3.479  0.0876 -0.0084 -0.1269
 7842W        W11893   3.148  10.117   3.900 -0.0881  0.1331  0.0418
 7843W        W11894   2.864   8.660  11.080  0.2090 -0.0129  0.0547
 7844W        W11895   3.203   7.618  10.612  0.2343 -0.3137 -0.0067
 7845W        W11896   3.216   1.130  13.487 -0.0764 -0.3594  0.1752
 7846W        W11897   4.699   0.357  11.699  0.1556  0.0151  0.0750
 7847W        W11898   4.516   7.018  13.491 -0.1208  0.0338 -0.0036
 7848W        W11899   5.530   4.099  11.053  0.4303  0.0410 -0.0055
 7849W        W11900   1.127   8.433  11.741  0.1861  0.2285 -0.0178
 7850W        W11901   2.700   2.185  11.124  0.1974  0.1813 -0.2647
 7851W        W11902   2.018   9.040  11.348  0.1191  0.1214 -0.0677
 7852W        W11903   4.529   8.103   1.593  0.1294  0.0168 -0.2527
 7853W        W11904   1.821   7.354   2.856  0.1644 -0.0429 -0.0946
 7854W        W11905   6.867   5.935  12.817  0.5844  0.0239 -0.0419
 7855W        W11906   0.794   8.317  10.929  0.0116  0.3402 -0.1803
 7856W        W11907   0.311   1.670   1.353 -0.0883  0.5217 -0.1234
 7857W        W11908   1.840   1.088  10.968  0.0897 -0.0614  0.0064
 7858W        W11909   2.364   9.647  12.726 -0.3006 -0.1177  0.1786
 7859W        W11910   2.228   4.650   3.351 -0.1695  0.1995  0.4047
 7860W        W11911  10.028   8.733  12.118  0.1286  0.0481  0.1878
 7861W        W11912   0.574   6.349  13.107  0.0886 -0.2130  0.2395
 7862W        W11913   3.559   5.967   3.711 -0.2583  0.1419 -0.0029
 7863W        W11914   4.417   1.090  10.564  0.2433 -0.1918 -0.1418
 7864W        W11915   1.499  10.081   2.039  0.4677  0.2649 -0.2138
 7865W        W11916   5.483   9.287  11.377 -0.2174  0.1157 -0.1947
 7866W        W11917   8.664   1.250   2.054 -0.2482  0.0065  0.1698
 7867W        W11918   8.803   4.976  12.948  0.0809 -0.0868  0.2941
 7868W        W11919   8.087   0.965   9.074 -0.2373  0.1364 -0.2593
 7869W        W11920   8.657   0.725  11.198 -0.0871  0.1913  0.1867
 7870W        W11921   5.707   3.847   5.229  0.0353  0.2337 -0.2139
 7871W        W11922   7.816   4.213   1.377 -0.3574  0.0376  0.0441
 7872W        W11923   0.001   5.425  12.016 -0.0916  0.0123  0.0117
 7873W        W11924   9.227   4.553   0.467  0.0893 -0.2069 -0.1953
 7874W        W11925   6.938   7.824   1.259 -0.1319  0.1364  0.0105
 7875W        W11926   7.141   6.982   9.685 -0.0112  0.1766  0.1056
 7876W        W11927   9.354   7.267  11.401 -0.3002  0.0132  0.0913
 7877W        W11928   9.943   3.730   4.516  0.1127  0.3847 -0.0656
 7878W        W11929   1.885   9.870  12.704 -0.5451 -0.3577  0.0356
 7879W        W11930   5.596   2.192   5.375  0.2363  0.0452  0.0996
 7880W        W11931   9.364   4.988   4.429  0.1898 -0.1107  0.0901
 7881W        W11932   2.182   1.518   0.746  0.2020  0.0193 -0.1135
 7882W        W11933   1.868   4.028   0.364 -0.0962  0.0582  0.3015
 7883W        W11934   5.749   8.105   0.990 -0.0525 -0.0540 -0.0089
 7884W        W11935   4.169   7.137  12.285  0.0528 -0.3540  0.2763
 7885W        W11936   6.207  10.019  10.827  0.1497 -0.0507 -0.0601
 7886W        W11937   4.393   3.120   4.183  0.0293  0.2104  0.3070
 7887W        W11938   7.395   8.772   3.246 -0.0626  0.4127  0.0140
 7888W        W11939   3.816   3.505   2.982 -0.4169 -0.0342 -0.1007
 7889W        W11940   6.223   6.762  11.905 -0.3072 -0.0636 -0.3266
 7890W        W11941   0.904   2.545  12.470 -0.1223 -0.0471  0.1641
 7891W        W11942   4.289   1.345   2.912  0.0780 -0.0081 -0.2336
 7892W        W11943   6.469   4.180  11.427  0.0251 -0.0063  0.1451
 7893W        W11944   3.312   8.687   1.048 -0.3110 -0.2276 -0.0525
 7894W        W11945   1.309   5.367  11.198  0.0478  0.0599 -0.0483
 7895W        W11946   3.072   6.011   9.183  0.3115 -0.0822 -0.1877
 7896W        W11947   1.902   7.958   2.777  0.2208  0.0787 -0.0651
 7897W        W11948   9.333   9.959  12.927 -0.3824 -0.0989 -0.0278
 7898W        W11949   8.083   4.409  11.904 -0.1859 -0.1816 -0.1785
 7899W        W11950   9.708   0.249  10.874  0.1251  0.1516  0.0887
 7900W        W11951   1.173   5.382   0.622 -0.0495 -0.0544 -0.1446
 7901W        W11952   4.380   5.498   9.856 -0.2805  0.0559  0.1594
 7902W        W11953   8.829   4.915   3.643 -0.0149 -0.2598  0.0228
 7903W        W11954   2.820   8.866   2.458  0.1525  0.0725  0.0497
 7904W        W11955   0.736   9.854  10.381 -0.1580  0.0119 -0.0560
 7905W        W11956   2.600   0.994  13.632 -0.0623  0.0143  0.0024
 7906W        W11957   8.235   1.404  11.189 -0.1066 -0.1421 -0.3679
 7907W        W11958   2.091   6.335   1.427 -0.1011 -0.1334  0.3261
 7908W        W11959   5.657   6.097   0.499 -0.1354  0.0916  0.0676
 7909W        W11960   4.612   1.642   9.582  0.1835 -0.4049 -0.0141
 7910W        W11961   6.255   4.663  10.841  0.3485  0.2464  0.3639
 7911W        W11962   3.620   1.636  11.512  0.2876  0.0976 -0.1975
 7912W        W11963   6.805   5.691   4.598 -0.1802 -0.1172  0.0436
 7913W        W11964   8.472   8.882   3.356 -0.2242 -0.1329 -0.0976
 7914W        W11965   7.621   6.832   2.137  0.1412  0.0291  0.0842
 7915W        W11966   9.816   6.637   9.567  0.0936 -0.1214  0.2767
 7916W        W11967  10.112   7.234   4.442  0.2972  0.0546 -0.0442
 7917W        W11968   7.010   4.020   9.114  0.0279  0.1323  0.3593
 7918W        W11969   5.076  10.072  13.784 -0.2781 -0.0278  0.2148
 7919W        W11970   9.901  10.005   1.280 -0.1528  0.3435  0.3815
 7920W        W11971   9.796   2.393   4.766 -0.1445  0.2267  0.1369
 7921W        W11972   8.669   3.834  13.076  0.0792  0.2363 -0.3813
 7922W        W11973   4.416   1.918   1.961  0.0301  0.1911  0.2292
 7923W        W11974   6.139   9.375  13.011 -0.2707  0.0232 -0.0292
 7924W        W11975   3.036   3.743   4.090  0.0628  0.0125  0.3520
 7925W        W11976   9.832   3.044  12.069  0.0654  0.1357  0.3303
 7926W        W11977   8.627   7.569   0.303  0.2713 -0.0779 -0.1822
 7927W        W11978   8.284   9.455  12.207  0.1041 -0.0943 -0.1077
 7928W        W11979   1.716   6.377   9.383  0.2279  0.1313 -0.2526
 7929W        W11980   7.869   8.992   1.932 -0.3511  0.0222 -0.1435
 7930W        W11981   8.194   2.867  13.609  0.1782 -0.0188 -0.2449
 7931W        W11982   6.895   3.399   3.791 -0.0522  0.0942  0.1484
 7932W        W11983   5.389   6.566   0.851 -0.2156  0.0827  0.1544
 7933W        W11984  10.099   6.716  13.933  0.0664  0.1569 -0.0742
 7934W        W11985   4.717   7.193   9.698 -0.0566 -0.1230 -0.1049
 7935W        W11986   0.552   2.070  11.872 -0.2541 -0.2345  0.1317
 7936W        W11987   1.189   2.036   2.497 -0.2617  0.1828 -0.0538
 7937W        W11988   9.652   3.636  10.517 -0.0670 -0.2700  0.3762
 7938W        W11989   9.779   3.098  11.558 -0.3080  0.1309 -0.0757
 7939W        W11990   7.938   0.619   2.047 -0.0528 -0.2459  0.0913
 7940W        W11991   6.978   0.784   1.987  0.2147  0.3055  0.0287
 7941W        W11992   8.032   5.372   3.809 -0.1260  0.0516  0.1544
 7942W        W11993   4.025   7.858  11.768 -0.2019  0.2987 -0.0364
 7943W        W11994   5.582   6.542   8.893  0.0146  0.0056  0.0301
 7944W        W11995   8.018   1.162   3.120 -0.2183 -0.0695  0.4245
 7945W        W11996   6.528   6.407   2.655  0.0297  0.0751  0.0830
 7946W        W11997   2.742   1.058   3.011 -0.1063 -0.0082 -0.3440
 7947W        W11998   0.938   4.720   3.480 -0.3655 -0.0398  0.2280
 7948W        W11999   5.236   1.269   1.789  0.0187 -0.1599 -0.2291
 7949W        W12000   7.380   9.960   4.093 -0.0722  0.0160  0.0563
 7950W        W12001   0.870   3.785   1.611  0.2930 -0.2805  0.0751
 7951W        W12002  10.147   3.878   9.676 -0.0600 -0.1008  0.2790
 7952W        W12003   8.452   3.136   0.609 -0.3967  0.1846  0.0465
 7953W        W12004   7.774   2.703   1.620 -0.2146 -0.1555 -0.0598
 7954W        W12005   1.513   7.104  11.488 -0.2186  0.0856 -0.0169
 7955W        W12006   8.962   9.962  13.922  0.5128 -0.0065  0.1332
 7956W        W12007   6.721   2.027   3.950 -0.2177 -0.0965  0.0767
 7957W        W12008   5.386   6.027   9.642  0.1445 -0.0761  0.2432
 7958W        W12009   1.627   4.085   3.269 -0.0959  0.0520 -0.0472
 7959W        W12010   3.528   6.826   9.488 -0.0001  0.0288  0.3127
 7960W        W12011   4.944   7.651  12.950  0.2756  0.2877 -0.0433
 7961W        W12012   1.387   4.340  11.064  0.1599 -0.0309 -0.1087
 7962W        W12013   7.155   9.518   4.039  0.0749  0.1350  0.0197
 7963W        W12014   1.312   7.809  13.870 -0.2613  0.1008  0.0629
 7964W        W12015   5.530   3.052   0.699 -0.1693  0.0324 -0.1425
 7965W        W12016   7.002   6.348   9.916 -0.0374  0.0106  0.0979
 7966W        W12017   2.773   5.735  12.220 -0.0037 -0.0374  0.1924
 7967W        W12018   4.252   0.191   2.673 -0.1343 -0.0630  0.3289
 7968W        W12019   7.129   4.929   1.511  0.1919  0.1938 -0.2549
 7969W        W12020   3.966   4.971  10.137  0.2929 -0.1319  0.1059
 7970W        W12021   5.842   1.466   0.942 -0.3029  0.3335  0.0516
 7971W        W12022   3.311   3.796  12.070  0.0754 -0.0262  0.1080
 7972W        W12023   1.406   4.118  12.656 -0.0367 -0.4055  0.4591
 7973W        W12024   4.245   3.625   9.591  0.2147  0.0584  0.0688
 7974W        W12025  10.096   5.430   4.140  0.0071 -0.0044 -0.3182
 7975W        W12026   0.107   5.345   4.789 -0.0547  0.2766 -0.0911
 7976W        W12027   7.697   4.854   1.376  0.0099  0.0888  0.1713
 7977W        W12028   8.692   3.667   3.222  0.1134 -0.2093  0.0572
 7978W        W12029   4.597   2.441  10.355 -0.2397 -0.2179  0.0684
 7979W        W12030   5.039   3.458  12.014  0.3064 -0.0317  0.0477
 7980W        W12031   8.953   6.012   2.801  0.0873  0.1786  0.0963
 7981W        W12032   7.280   8.972  10.464 -0.1503 -0.2112  0.2045
 7982W        W12033   3.144   9.841   2.917  0.3071  0.1623 -0.3733
 7983W        W12034   3.999   7.598  13.292 -0.0805  0.0309  0.1810
 7984W        W12035   6.939   7.761   3.936  0.0503 -0.0288  0.1417
 7985W        W12036   4.408   6.420  10.453  0.1237 -0.1104  0.3644
 7986W        W12037   7.751   5.793   1.640 -0.0709  0.1745  0.1186
 7987W        W12038   8.590   9.278  10.416 -0.1707  0.0164 -0.1186
 7988W        W12039   6.129   4.747   2.476  0.1024 -0.2254  0.0583
 7989W        W12040   9.476   6.482  10.842 -0.2487  0.0760 -0.3156
 7990W        W12041   1.862   2.316   0.070  0.1127 -0.2461 -0.0469
 7991W        W12042   1.838  10.064  13.782 -0.0818 -0.1335  0.0982
 7992W        W12043   8.144   0.646   3.232  0.2221  0.0353  0.1084
 7993W        W12044   7.321   1.962  13.894  0.4583  0.0525 -0.0830
 7994W        W12045   0.437   6.458   4.220  0.0873 -0.4510 -0.1454
 7995W        W12046   4.024   5.042   8.568  0.3762  0.3541  0.0073
 7996W        W12047   6.866   8.209   3.757  0.1056  0.1971 -0.0289
 7997W        W12048   6.407   7.169   0.727  0.0155  0.0203 -0.1571
 7998W        W12049   7.218   3.709  13.813  0.1854  0.1109  0.1685
 7999W        W12050   1.288   8.878   4.204  0.0807 -0.2088  0.0981
 8000W        W12051   8.502   8.514  11.060  0.3544 -0.0572  0.0937
 8001W        W12052   2.868   5.500  13.580  0.0319 -0.0870 -0.2004
 8002W        W12053   8.597   6.247  12.479 -0.0811 -0.2259 -0.2829
 8003W        W12054   3.774   9.702   1.338 -0.1078  0.0469 -0.0770
 8004W        W12055   1.662   0.487   3.297 -0.0361  0.0002  0.2775
 8005W        W12056   7.654   9.599   4.304  0.0431  0.0654  0.0694
 8006W        W12057   8.349   0.170   0.571  0.0763 -0.1001 -0.0670
 8007W        W12058   1.921   5.986   9.694  0.0481  0.0900  0.2316
 8008W        W12059   9.788   1.969  10.625 -0.2560  0.0737 -0.1674
 8009W        W12060   6.766   9.490   1.428 -0.2910  0.1564  0.2231
 8010W        W12061   1.264   9.844  11.162  0.0696 -0.5280  0.0839
 8011W        W12062   5.265   4.522  11.328  0.2737 -0.2372 -0.0004
 8012W        W12063   7.302   5.442  10.075 -0.0380  0.0010 -0.0541
 8013W        W12064   9.365   7.656   2.224  0.0827  0.4326 -0.3642
 8014W        W12065   4.804   9.803   1.836  0.0753  0.2138  0.0289
 8015W        W12066   6.943   3.044   4.276  0.1133  0.2924  0.2054
 8016W        W12067   9.354   7.864   9.822  0.0062  0.3584  0.1714
 8017W        W12068   8.564   0.668   0.469 -0.0191 -0.3029  0.0703
 8018W        W12069   6.415   9.875   4.331 -0.3434  0.2190  0.1257
 8019W        W12070   1.393   9.720   9.910 -0.2213 -0.3271  0.2357
 8020W        W12071   9.866   0.382   0.426 -0.4572  0.1891  0.2613
 8021W        W12072   2.467   5.205  10.175 -0.0844 -0.4403  0.0374
 8022W        W12073   2.238   0.995   1.883  0.0789 -0.1068 -0.0586
 8023W        W12074   0.410   9.488  10.572 -0.0931 -0.4126  0.3059
 8024W        W12075   1.075   7.176   0.730 -0.3721 -0.1989  0.0989
 8025W        W12076   6.354   5.738  10.505  0.0774  0.2162 -0.1571
 8026W        W12077   0.290   2.585  10.219 -0.0940  0.2723 -0.0300
 8027W        W12078   8.714   8.361   1.089  0.1709  0.2930  0.0254
 8028W        W12079   7.432   3.767   4.556  0.5325 -0.0935 -0.0912
 8029W        W12080   7.319   7.332   2.759  0.2570 -0.2048  0.0005
 8030W        W12081   8.456   4.429   4.795 -0.0014  0.2026 -0.3908
 8031W        W12082   5.511   7.257  12.308 -0.1337 -0.2042  0.1462
 8032W        W12083   1.204   3.678  11.700 -0.0090 -0.1917  0.0833
 8033W        W12084   4.487   2.382   1.220  0.1123  0.1668  0.4522
 8034W        W12085   7.245   2.127   2.684 -0.0095 -0.2673  0.0159
 8035W        W12086   2.290   4.623   2.105  0.0247 -0.2491 -0.0947
 8036W        W12087   1.484   8.533  10.114 -0.0962 -0.3605 -0.1096
 8037W        W12088   6.373   5.729   9.109  0.3894 -0.0810  0.3646
 8038W        W12089   2.792   8.019  12.048 -0.3282  0.1105 -0.0464
 8039W        W12090   5.947   4.559   3.429 -0.1684  0.2195 -0.0551
 8040W        W12091   3.387   4.981   1.736 -0.3545 -0.1118  0.1114
 8041W        W12092   7.351   6.502   9.617 -0.1514 -0.0630  0.4827
 8042W        W12093   0.091   6.196   3.609 -0.0264  0.0399 -0.1661
 8043W        W12094   2.297   5.181   4.240  0.0501 -0.0549 -0.0356
 8044W        W12095   0.880   4.777   9.197  0.1285  0.0997  0.0534
 8045W        W12096   4.845   2.782  10.613 -0.0131  0.1952 -0.0475
 8046W        W12097   2.531   4.480   3.766  0.1465 -0.0190  0.1762
 8047W        W12098   0.594   0.202   4.172  0.0689 -0.0847 -0.3083
 8048W        W12099   6.388   8.403  12.598 -0.0044  0.3476  0.2551
 8049W        W12100   3.917   6.851   2.401 -0.0396  0.0087 -0.1294
 8050W        W12101   4.815   3.241  10.768  0.0837 -0.1679 -0.0029
 8051W        W12102   8.054   3.207  12.867  0.0050 -0.1198  0.0722
 8052W        W12103   9.615   7.172  12.491 -0.0821 -0.0996 -0.0853
 8053W        W12104   9.364   3.545  11.506  0.0014 -0.0415 -0.1496
 8054W        W12105   1.061   6.148   3.482  0.2062 -0.2326  0.0124
 8055W        W12106   4.481   1.694   1.493  0.0169 -0.2474  0.1059
 8056W        W12107   1.457   5.767   4.458 -0.1320  0.1512  0.2340
 8057W        W12108   0.020   2.723   4.319  0.2537  0.1446  0.2233
 8058W        W12109   0.925   7.740   9.162 -0.2383 -0.2660 -0.3459
 8059W        W12110   8.144   6.351  12.824 -0.0240 -0.2916 -0.3993
 8060W        W12111   6.437   0.819  10.095 -0.0723 -0.0071  0.2196
 8061W        W12112   6.641   2.514  11.314 -0.0141 -0.2117  0.1952
 8062W        W12113   9.973   2.816   0.299 -0.1912  0.2065  0.2447
 8063W        W12114   8.310   4.091   2.272 -0.2160  0.1687 -0.1493
 8064W        W12115   6.513   9.700  10.589 -0.0317 -0.2871 -0.3115
 8065W        W12116   8.053   3.937   4.331  0.0977 -0.0019  0.1123
 8066W        W12117   6.440   8.429   3.104  0.2006 -0.3115 -0.0236
 8067W        W12118   8.776   1.548  13.374  0.2855  0.2893  0.3019
 8068W        W12119   6.912   7.334   2.319 -0.1264 -0.0232 -0.0599
 8069W        W12120   6.723   8.989  10.114  0.3880  0.4646 -0.1006
 8070W        W12121   7.143   9.487  11.364  0.0163  0.1574  0.0360
 8071W        W12122   6.570   1.308  10.918  0.1955 -0.0542  0.1191
 8072W        W12123   0.417   4.056  11.679 -0.0445  0.0598  0.0590
 8073W        W12124   4.223   4.034  10.447  0.3619 -0.0892  0.3401
 8074W        W12125   4.397   8.990   1.506 -0.0242  0.4147  0.0980
 8075W        W12126   4.252   9.906  10.342 -0.0398  0.1387  0.0410
 8076W        W12127   4.036   1.801  13.596  0.1459 -0.2452 -0.0692
 8077W        W12128   0.942   7.711  12.939 -0.3210 -0.1752  0.0185
 8078W        W12129   7.264   7.543   0.917  0.3469 -0.0173 -0.2179
 8079W        W12130   9.222   8.448   2.271 -0.4633 -0.0706  0.0661
 8080W        W12131   6.668   4.264   0.320  0.0597 -0.4459 -0.0199
 8081W        W12132   4.736   4.168   3.188  0.0835 -0.2368  0.0032
 8082W        W12133   0.053   5.672   5.747 -0.1374  0.2128 -0.2634
 8083W        W12134   9.721   7.503   9.941  0.2112 -0.0223  0.0118
 8084W        W12135   8.186   7.623   0.918 -0.2763 -0.0668  0.0368
 8085W        W12136   9.816   1.466  10.040  0.0536 -0.1532  0.0919
 8086W        W12137   6.435   1.780  13.415 -0.1752  0.1318  0.1288
 8087W        W12138   5.364   1.053  12.664  0.2261  0.2807  0.0195
 8088W        W12139   5.102   2.425  12.519 -0.0357 -0.0216 -0.1360
 8089W        W12140   3.861   6.298  11.349 -0.1385 -0.1836 -0.1129
 8090W        W12141   5.335   4.681  11.845 -0.2157 -0.0696  0.0350
 8091W        W12142   9.221   3.444  13.313  0.0564  0.1814  0.1176
 8092W        W12143   0.852   5.366  13.241  0.2022  0.2100 -0.2577
 8093W        W12144   1.993   7.467   3.335  0.0247  0.1593  0.1099
 8094W        W12145   3.115   6.680   4.130  0.2011 -0.0833  0.1512
 8095W        W12146   7.686   0.123   0.750 -0.1612  0.1690 -0.2253
 8096W        W12147  10.071   6.758   1.038 -0.0935  0.0659 -0.2397
 8097W        W12148   2.108   8.490   1.442 -0.3899  0.0110 -0.0391
 8098W        W12149   8.384   2.001  13.871 -0.3192 -0.2215 -0.1692
 8099W        W12150   4.494   4.409   1.064  0.1071  0.1206 -0.1927
 8100W        W12151   9.712   3.804  12.669  0.0221 -0.1873  0.2886
 8101W        W12152   2.109   6.787   0.967  0.3380 -0.2028 -0.0327
 8102W        W12153   2.572   3.110  10.532 -0.1957 -0.1205 -0.1143
 8103W        W12154   4.774   8.607   1.519  0.0566  0.1613 -0.0369
 8104W        W12155   5.000   4.800   9.865 -0.3359 -0.0008 -0.1174
 8105W        W12156   5.287   4.718   3.887  0.0273 -0.1168  0.0857
 8106W        W12157   8.905   7.986   4.426  0.0769  0.0123  0.3535
 8107W        W12158   1.033   3.430  10.574 -0.3320  0.1896  0.2656
 8108W        W12159   2.886   2.824  12.335  0.0082 -0.0333  0.1524
 8109W        W12160   3.744   8.478  12.935  0.0492 -0.0172 -0.2024
 8110W        W12161   1.265   2.576  10.016  0.0457 -0.0245  0.0574
 8111W        W12162   5.249   5.071   1.279  0.0725 -0.1538  0.0908
 8112W        W12163   1.392   6.163   2.622  0.2290 -0.0401  0.1888
 8113W        W12164   8.246   8.851   3.977  0.1264  0.1255 -0.1021
 8114W        W12165   6.924   0.440   1.581  0.2407  0.1031 -0.1845
 8115W        W12166   1.764   1.006   0.056 -0.0405 -0.2263 -0.2485
 8116W        W12167   1.832   1.052   2.118 -0.1248 -0.4289 -0.2455
 8117W        W12168   1.406   0.337  13.143 -0.0441 -0.1876  0.1068
 8118W        W12169   4.766   6.710  11.281  0.0293 -0.3059  0.2798
 8119W        W12170   6.645   9.696   2.684 -0.2528 -0.0758 -0.1210
 8120W        W12171   9.922   9.747   3.214  0.4887 -0.2296  0.0185
 8121W        W12172   6.887   9.598  10.952 -0.2228  0.1911  0.0250
 8122W        W12173   7.923   4.458   3.513  0.2676  0.1725  0.1671
 8123W        W12174   8.903   1.983   0.832 -0.0904 -0.1232  0.1547
 8124W        W12175   6.517   2.463   2.720 -0.2614  0.1537 -0.1933
 8125W        W12176   7.817   6.957   0.550  0.1591 -0.2156  0.2787
 8126W        W12177   2.319   7.594   1.990  0.0205  0.2978  0.1268
 8127W        W12178  10.122   4.513   2.332 -0.1503  0.2136  0.0199
 8128W        W12179   1.376   2.981  11.328  0.1507 -0.2315  0.1145
 8129W        W12180   2.405   9.299  11.564 -0.3028 -0.1875  0.0519
 8130W        W12181   4.404   2.390   2.544 -0.2392 -0.0054 -0.0909
 8131W        W12182   0.962   0.812   9.784  0.0199 -0.0523  0.1468
 8132W        W12183   6.801   2.560   4.270 -0.2146  0.0930  0.2637
 8133W        W12184   9.468   0.497  11.720  0.0470  0.0123 -0.0248
 8134W        W12185   9.697   9.349  13.311 -0.0978  0.2751  0.2161
 8135W        W12186   7.927   9.717  11.121  0.0946 -0.1425 -0.1055
 8136W        W12187   4.698   7.788   0.718  0.0514 -0.1526 -0.2168
 8137W        W12188   4.725   4.173   2.644 -0.1486 -0.3848 -0.1797
 8138W        W12189   3.538   0.908   0.107  0.0971  0.1797  0.3232
 8139W        W12190   6.134   7.190   3.206 -0.0315  0.3291 -0.1664
 8140W        W12191   0.181   1.703   3.076 -0.0163  0.1209  0.0074
 8141W        W12192   2.955   7.369   1.417  0.2318 -0.2338  0.4509
 8142W        W12193   0.809   8.388   3.159 -0.0685 -0.0897  0.0039
 8143W        W12194   9.013   4.545   9.367 -0.0611  0.2963  0.1091
 8144W        W12195   5.934   4.964  10.015  0.2523 -0.2057 -0.0680
 8145W        W12196   3.261   6.103   1.817  0.2200 -0.2098  0.1593
 8146W        W12197   4.400   7.593   0.377  0.0744  0.1480  0.2112
 8147W        W12198   4.807   2.461  12.884  0.2711 -0.1526  0.0404
 8148W        W12199   4.099   0.412  12.235  0.1773  0.0989  0.0670
 8149W        W12200   8.858   2.813   9.796 -0.1235 -0.0190  0.3317
 8150W        W12201   3.781  10.116  11.653 -0.2121 -0.0100 -0.1032
 8151W        W12202   7.290   0.455  12.759 -0.0917 -0.1601 -0.1913
 8152W        W12203   7.181   2.088  11.690  0.1182  0.0857 -0.1507
 8153W        W12204   6.996   2.294   3.556  0.2568 -0.1089 -0.0987
 8154W        W12205   8.230   9.306   3.076  0.0219  0.1210 -0.2481
 8155W        W12206   5.662   8.846   2.628 -0.0792 -0.0029  0.0312
 8156W        W12207   4.115   1.851   0.173 -0.0269 -0.3094  0.2025
 8157W        W12208   8.845   4.223   2.086  0.3165  0.0823 -0.4188
 8158W        W12209   9.433   3.650  10.971  0.0922 -0.1780  0.0701
 8159W        W12210   0.357   7.992   1.768  0.2530  0.2488 -0.1605
 8160W        W12211   2.257   6.305  11.795 -0.0661  0.2453  0.0914
 8161W        W12212   5.362   0.695   2.204  0.3342  0.1638 -0.0383
 8162W        W12213   1.215   7.151   8.943 -0.1912  0.1341 -0.4817
 8163W        W12214   3.535   3.639  11.061 -0.2747 -0.2861  0.0303
 8164W        W12215   0.212   6.499   0.375 -0.2245  0.0374 -0.1079
 8165W        W12216   6.977   6.163  13.274  0.0805  0.0873  0.0624
 8166W        W12217   0.420   7.983  13.519 -0.1214  0.0938  0.0889
 8167W        W12218   4.493   3.671   0.171 -0.1775 -0.0605  0.0837
 8168W        W12219   6.371   5.245  12.519 -0.2093  0.2640  0.1989
 8169W        W12220   9.139   1.222   4.239 -0.0116  0.1002  0.1223
 8170W        W12221   7.118   7.164   4.629  0.2684 -0.0368 -0.0191
 8171W        W12222   0.961   8.450  12.353  0.4252  0.1333  0.3458
 8172W        W12223   3.079   6.678  13.604 -0.1240  0.2341  0.3640
 8173W        W12224   8.160   6.835  13.077 -0.0311 -0.0854  0.0094
 8174W        W12225   3.949   8.079  10.734 -0.1205 -0.0910  0.1170
 8175W        W12226   1.744   5.011  10.416 -0.2111 -0.0852 -0.2513
 8176W        W12227   2.042   7.636   8.937 -0.1270 -0.3086 -0.0198
 8177W        W12228   3.077   8.942  10.026 -0.0103  0.1696 -0.1632
 8178W        W12229   1.877   2.613  13.580 -0.5091 -0.2219 -0.0343
 8179W        W12230   2.976   1.592  10.506  0.1709 -0.0990 -0.1694
 8180W        W12231   1.620   3.653   0.665 -0.0333  0.0138 -0.0206
 8181W        W12232   6.968   0.262  11.859  0.3866 -0.1717  0.1575
 8182W        W12233   7.695   6.973   0.019 -0.3353 -0.2956  0.0973
 8183W        W12234   7.208   1.740   3.501 -0.0035  0.0443 -0.0907
 8184W        W12235   2.929   6.998   9.754  0.0948  0.3104  0.1095
 8185W        W12236   0.577   6.767   2.420  0.2398 -0.0207 -0.1584
 8186W        W12237   4.725   9.785  10.533 -0.1296 -0.4871 -0.0881
 8187W        W12238   1.078   1.242  12.509 -0.2335  0.0438 -0.0792
 8188W        W12239   7.491   3.727   1.243  0.0227 -0.3506  0.0434
 8189W        W12240   9.695   7.555   3.109  0.5067  0.1905 -0.1901
 8190W        W12241   7.497   7.175  12.308  0.2105  0.4323 -0.0378
 8191W        W12242   1.596   4.608   0.981  0.0847 -0.0826  0.3199
 8192W        W12243   5.035  10.188   3.325 -0.4977 -0.0202 -0.1262
 8193W        W12244   2.548   9.941  13.149  0.3394 -0.0749  0.0002
 8194W        W12245   3.736   2.106  12.734  0.0530 -0.0520  0.0159
 8195W        W12246   4.425   4.264  12.561  0.1770  0.1065  0.2614
 8196W        W12247   1.202   7.285  13.806 -0.1420  0.0012  0.1234
 8197W        W12248   7.545   3.129  10.188  0.0979  0.0280  0.1325
 8198W        W12249   8.713   7.034   5.234 -0.1979  0.0240  0.1107
 8199W        W12250   7.079   3.294   9.407 -0.3220 -0.0147  0.2536
 8200W        W12251   6.355   2.013  13.807  0.2428 -0.2479  0.0221
 8201W        W12252   8.503   0.961   9.934  0.0603 -0.0429 -0.0235
 8202W        W12253   5.747   5.202   3.905 -0.0089  0.1206 -0.2020
 8203W        W12254   6.888   0.667  13.692 -0.0819  0.2143 -0.1298
 8204W        W12255   2.845   3.471   1.470 -0.0623  0.0283 -0.0672
 8205W        W12256   1.243   5.923  11.921 -0.4548  0.0579 -0.2974
 8206W        W12257   9.928   4.206   1.084  0.1098 -0.0185 -0.0494
 8207W        W12258   9.951   1.023   2.598 -0.3023 -0.0642 -0.2516
 8208W        W12259   5.851   4.631   8.659 -0.0046 -0.0056  0.0567
 8209W        W12260   3.962   4.589  12.303 -0.0045 -0.1267 -0.1319
 8210W        W12261   0.675   9.823  10.912  0.1180  0.3127 -0.1326
 8211W        W12262   3.267   5.764   3.026 -0.0348 -0.2136  0.1673
 8212W        W12263   7.803   1.466  10.799 -0.0371  0.0969  0.1214
 8213W        W12264   5.098   5.436   1.806  0.1304  0.1503  0.1006
 8214W        W12265   9.963   0.483  11.748  0.2239 -0.0343 -0.1855
 8215W        W12266   5.278   6.792  12.469 -0.1801  0.4459 -0.1488
 8216W        W12267   6.697   7.018   9.503  0.0645  0.3816  0.1286
 8217W        W12268   8.341   8.808  11.391 -0.0787 -0.0766 -0.4199
 8218W        W12269   4.706   3.730  10.326  0.0014 -0.1192 -0.0855
 8219W        W12270  10.059   4.285   3.160  0.0605  0.2553  0.2824
 8220W        W12271   2.976   1.676  13.371  0.0250 -0.1327 -0.5628
 8221W        W12272   0.397   2.392   2.374 -0.1795  0.4424  0.0991
 8222W        W12273   6.438   6.164   3.523 -0.0041  0.0968  0.3224
 8223W        W12274   1.531   7.684  10.941  0.0840 -0.0260  0.0935
 8224W        W12275  10.153   6.816   9.187  0.1220 -0.1498  0.0712
 8225W        W12276   0.778   9.859   8.562 -0.1078  0.3340 -0.1210
 8226W        W12277   2.637   4.873   3.497 -0.2075 -0.0643  0.0656
 8227W        W12278   7.074   6.830   4.259 -0.3025 -0.1070 -0.2414
 8228W        W12279   4.774   6.752   2.068  0.1054  0.3794  0.0166
 8229W        W12280   4.752   7.197   2.828 -0.3578 -0.0601  0.0475
 8230W        W12281   9.899   0.270   1.499 -0.1102  0.2007  0.1762
 8231W        W12282   5.385   2.555  10.359  0.1402  0.1204 -0.1834
 8232W        W12283   3.769   0.168  13.395 -0.2557 -0.0103 -0.0354
 8233W        W12284   4.408   4.225   8.640  0.1266  0.1533 -0.2386
 8234W        W12285   8.909   2.314  10.975 -0.1458  0.2043  0.1530
 8235W        W12286   5.448   0.746  11.579  0.0848  0.0497  0.1402
 8236W        W12287   6.195   0.442  12.653  0.1292  0.1293 -0.2498
 8237W        W12288   8.388  10.059   4.082 -0.2245  0.1375  0.0675
 8238W        W12289   9.136   0.698   5.039 -0.0024 -0.2389 -0.2880
 8239W        W12290   9.030   8.673  10.936 -0.0602  0.2967  0.1147
 8240W        W12291   6.377   7.186   2.260  0.0691 -0.1136  0.1927
 8241W        W12292   9.586   3.116   0.498  0.0499 -0.0368  0.0554
 8242W        W12293   7.127   4.717   2.632  0.2780 -0.1600  0.0414
 8243W        W12294   3.523   4.571   0.846 -0.2386 -0.2260  0.0282
 8244W        W12295   4.707   4.517  13.570 -0.2315 -0.3109 -0.0068
 8245W        W12296   0.649   0.629  10.105  0.3675 -0.0753 -0.2174
 8246W        W12297   4.400   5.047  10.457  0.1178  0.1862 -0.2342
 8247W        W12298   7.473   1.318   2.186  0.1343  0.1575 -0.3415
 8248W        W12299   1.739   1.002   2.627  0.0658  0.2180  0.1878
 8249W        W12300   7.293   6.162   0.860  0.0303  0.1954  0.1174
 8250W        W12301   9.975   8.795  10.993 -0.0136  0.0226 -0.1581
 8251W        W12302   6.199   5.293   0.707  0.0243 -0.3427  0.0406
 8252W        W12303   0.412   5.384   0.960  0.2056  0.1704 -0.0767
 8253W        W12304   0.717   5.987   1.603 -0.1590 -0.3265  0.0002
 8254W        W12305   2.642   5.989   3.825 -0.0132  0.0945  0.0840
 8255W        W12306   0.523   1.039   2.921  0.0664 -0.1380 -0.3017
 8256W        W12307  10.016   7.388   3.422  0.0784  0.1112 -0.0098
 8257W        W12308   1.068   4.256   3.199  0.0857  0.3387 -0.0694
 8258W        W12309   9.071   1.194  10.552  0.1584 -0.6948 -0.1225
 8259W        W12310   7.407   9.847  12.226 -0.0674 -0.1314 -0.0271
 8260W        W12311   2.603   6.635   9.961  0.1421 -0.2805 -0.0279
 8261W        W12312   8.539   4.036   1.775 -0.1218 -0.1288 -0.0886
 8262W        W12313   1.520   3.566   5.327  0.2101 -0.1459 -0.1503
 8263W        W12314   1.395   7.339  10.363  0.3724 -0.5001  0.0020
 8264W        W12315   2.784   5.109  11.006 -0.2467  0.0584 -0.1305
 8265W        W12316   0.460   6.919   0.177 -0.1202  0.0541 -0.2245
 8266W        W12317   3.597   0.256   1.643  0.2247 -0.0151  0.1924
 8267W        W12318   0.890   1.734   9.190 -0.2717 -0.0608  0.1601
 8268W        W12319   7.688   1.418  12.312  0.1752 -0.3281  0.2084
 8269W        W12320   7.506   6.603   4.289  0.0670  0.1220  0.0390
 8270W        W12321   9.189   5.328  12.756 -0.2048  0.2232  0.0315
 8271W        W12322   6.383   6.375   9.871 -0.3629  0.1383  0.0036
 8272W        W12323   5.331   6.528   9.412 -0.1573 -0.0204  0.1304
 8273W        W12324   9.748   7.540   2.613  0.0551 -0.1288  0.0581
 8274W        W12325   1.983   4.964  12.528 -0.0023 -0.0555 -0.1036
 8275W        W12326   1.572   0.701   9.274  0.1493 -0.3589  0.0389
 8276W        W12327   3.851   2.122   1.889  0.1918 -0.1195  0.1803
 8277W        W12328   3.678   9.810   0.836  0.0071 -0.3593 -0.0120
 8278W        W12329   7.435   9.537   2.593  0.0107 -0.2527 -0.1949
 8279W        W12330   8.109   4.765  10.548 -0.3765  0.1131 -0.2844
 8280W        W12331   4.096   3.460  11.729 -0.0327  0.1272 -0.2103
 8281W        W12332   4.889   9.351  12.015  0.2238 -0.1075  0.0603
 8282W        W12333   4.785   3.152   0.964  0.3037  0.0247  0.0568
 8283W        W12334   2.289   1.990  13.105 -0.3046 -0.0519 -0.3426
 8284W        W12335   0.673   8.647  10.557  0.0210  0.3324  0.1587
 8285W        W12336   8.064   2.060  11.461 -0.0215 -0.0584  0.1277
 8286W        W12337   6.546   2.431   3.728  0.0021 -0.1397 -0.2213
 8287W        W12338   5.639   4.451   0.054 -0.1129 -0.1515 -0.0131
 8288W        W12339   3.512   1.493  13.368 -0.1171  0.2783 -0.3361
 8289W        W12340   3.646   4.175   2.187  0.0983 -0.0259  0.1744
 8290W        W12341   2.647   5.455  11.815 -0.0893  0.1419  0.0876
 8291W        W12342   4.715   4.993  13.823 -0.2743 -0.0229 -0.0573
 8292W        W12343   2.610   1.268   2.502 -0.0323 -0.0327  0.0334
 8293W        W12344   6.530   6.932   3.990 -0.2614 -0.3704  0.0812
 8294W        W12345   5.052   8.787  10.096  0.0741 -0.0647 -0.1215
 8295W        W12346   5.463   1.614  12.883  0.1980  0.2674  0.0661
 8296W        W12347   3.512   2.857   9.764  0.1965  0.1141  0.2177
 8297W        W12348   4.933   4.453  12.022 -0.1224  0.0913 -0.0327
 8298W        W12349   9.346   9.464  12.952 -0.2283  0.1545 -0.1133
 8299W        W12350   9.391   9.386  11.188 -0.2578 -0.0556  0.1558
 8300W        W12351   3.664   1.834   0.910 -0.0709 -0.0859  0.1327
 8301W        W12352   6.471   7.624   2.007  0.4745  0.0530 -0.0888
 8302W        W12353   8.693   4.832  13.738 -0.1178 -0.2649 -0.2055
 8303W        W12354   5.370   2.444  11.568 -0.5466  0.2062 -0.3978
 8304W        W12355   6.895   3.630  10.834  0.1564  0.0750  0.0443
 8305W        W12356   2.218   2.507   3.638  0.3781  0.0388 -0.1940
 8306W        W12357   6.783   0.819   0.374  0.0665 -0.1172  0.3684
 8307W        W12358   3.323  10.166  10.485 -0.1887  0.0132  0.1087
 8308W        W12359   0.798   6.809  12.962  0.0095 -0.2554  0.1182
 8309W        W12360   8.841   7.750   3.067 -0.2441 -0.2186 -0.1812
 8310W        W12361   1.265   2.614   3.815  0.0458  0.1661 -0.1567
 8311W        W12362   0.080   8.373   1.536  0.0456 -0.0737 -0.0201
 8312W        W12363   5.917   8.559  11.157  0.1679 -0.2177  0.0944
 8313W        W12364   5.202   6.256   0.481 -0.2388 -0.0093  0.2086
 8314W        W12365   9.406   2.546  10.728  0.2648 -0.1500  0.3546
 8315W        W12366   7.063   8.600   2.424 -0.0372  0.0596  0.0379
 8316W        W12367   9.554   1.210   2.905 -0.0147 -0.2587 -0.0347
 8317W        W12368   9.902   4.801   3.548  0.4456  0.1053  0.2452
 8318W        W12369   1.224   1.080   9.411 -0.0613 -0.0174  0.5598
 8319W        W12370   6.646   9.602  12.018 -0.2587  0.0193  0.1442
 8320W        W12371   5.607   3.781   4.271 -0.0338 -0.4019  0.2976
 8321W        W12372   3.326   7.460  11.263 -0.1120 -0.0368  0.4927
 8322W        W12373   6.310   6.803  13.374 -0.1839 -0.2356  0.1515
 8323W        W12374   7.283   7.827  12.389  0.1020 -0.0270 -0.1335
 8324W        W12375   7.462   2.907   0.697 -0.3504  0.2096  0.2805
 8325W        W12376   8.259   8.616   9.189  0.3086 -0.1246 -0.1957
 8326W        W12377   5.071   0.668  11.893 -0.0843  0.1792  0.0600
 8327W        W12378   4.656   7.198  11.017  0.1836 -0.2655  0.0780
 8328W        W12379   9.351   5.623   0.877 -0.0795  0.0637 -0.0982
 8329W        W12380   9.789   9.156  11.380  0.1615  0.0839  0.1061
 8330W        W12381   1.175   7.977   4.475 -0.0611 -0.1879  0.0901
 8331W        W12382   8.430   4.736   8.771 -0.0172 -0.1793  0.0240
 8332W        W12383   4.527   1.268  13.649  0.0303  0.2141 -0.0178
 8333W        W12384   8.658   6.415   2.855  0.0182  0.6811  0.5288
 8334W        W12385   0.705   0.832   8.763  0.0418 -0.1476  0.0380
 8335W        W12386   3.708   4.969  13.531 -0.0583 -0.0635 -0.0273
 8336W        W12387   3.395   5.916  12.856 -0.1893  0.0671  0.0634
 8337W        W12388   2.219   5.500  12.472  0.0368  0.0534  0.1308
 8338W        W12389   4.101   8.468  13.753 -0.0295  0.1459 -0.1953
 8339W        W12390   9.359   5.901   4.526  0.0810  0.2502 -0.1053
 8340W        W12391   8.315   1.522  10.718  0.0034  0.0696 -0.0518
 8341W        W12392   9.047   1.218   9.516 -0.1888 -0.2481  0.0649
 8342W        W12393   7.667   7.516  12.727 -0.0510  0.1157  0.0078
 8343W        W12394   3.022   7.629  13.214  0.0927  0.2346 -0.0806
 8344W        W12395   6.796   0.465  10.308 -0.1365 -0.0799  0.2658
 8345W        W12396   6.217   1.841   2.398 -0.4470 -0.1426  0.2797
 8346W        W12397  10.155   2.704  11.191  0.0144 -0.0623 -0.0722
 8347W        W12398   6.048   0.291  10.474  0.1143 -0.1552 -0.0303
 8348W        W12399   9.526   5.719  11.631 -0.0093 -0.1435 -0.0700
 8349W        W12400   1.585   6.459   4.321  0.1515 -0.1372 -0.4375
 8350W        W12401   0.478   2.511  12.132  0.0168 -0.1739  0.3808
 8351W        W12402   7.364   1.197   9.745 -0.0460  0.2025 -0.1426
 8352W        W12403   2.422   9.595   1.992 -0.3703  0.1263  0.1871
 8353W        W12404   9.255   3.862  12.437  0.0354 -0.1859 -0.0193
 8354W        W12405   0.741   2.917   0.242  0.0386  0.4822 -0.0935
 8355W        W12406   5.054   0.145  11.995  0.0157 -0.2715 -0.0313
 8356W        W12407   2.015   0.966  10.568  0.0077 -0.0174 -0.1751
 8357W        W12408   1.911   9.189   1.989 -0.1743 -0.1660  0.2516
 8358W        W12409   4.484   6.844   0.568 -0.1137  0.1387 -0.1701
 8359W        W12410   9.703   3.207   3.082  0.0902 -0.0940  0.0322
 8360W        W12411   7.247   7.038  11.905  0.0097  0.1933 -0.1554
 8361W        W12412   2.622   2.260   2.467  0.2649 -0.2934  0.0669
 8362W        W12413   8.997   2.016   4.801  0.0173  0.1063 -0.0263
 8363W        W12414   2.957   0.261  10.202 -0.0078 -0.0645  0.0917
 8364W        W12415   3.647  10.150  12.162  0.1375  0.0107  0.0835
 8365W        W12416  10.036   5.921  11.841 -0.0258 -0.1090 -0.1151
 8366W        W12417   1.367   4.748  10.307  0.0191 -0.2911 -0.1315
 8367W        W12418   9.596   6.964  13.273  0.2292 -0.0669  0.1662
 8368W        W12419   6.819   2.124  12.992  0.0739  0.0909  0.3068
 8369W        W12420   9.007   8.144   4.872 -0.1483  0.2045 -0.1367
 8370W        W12421   6.244   8.132  10.311 -0.2574 -0.0487 -0.2677
 8371W        W12422   5.441   0.987  10.271 -0.1900 -0.2786 -0.0759
 8372W        W12423   7.258   8.566  10.827 -0.0612 -0.0479 -0.0296
 8373W        W12424   0.682   4.226  11.042  0.3617 -0.1196  0.1767
 8374W        W12425   8.851   9.236   2.820  0.3252  0.1090  0.1373
 8375W        W12426   9.057   1.322  11.989 -0.1002 -0.2869  0.0298
 8376W        W12427   8.456   9.807   5.416 -0.1983 -0.2595 -0.1255
 8377W        W12428   8.843   7.747  10.244 -0.2430 -0.2318 -0.1812
 8378W        W12429   8.723   4.684   2.864 -0.0743 -0.1756 -0.0678
 8379W        W12430   0.780   2.232  10.492  0.0571  0.1084 -0.0134
 8380W        W12431   4.262   0.872  13.454  0.1840  0.0278 -0.1255
 8381W        W12432   0.858   5.170  13.899  0.1785 -0.0442  0.0826
 8382W        W12433   3.982   5.243   4.866 -0.0673 -0.1754  0.0427
 8383W        W12434   0.007   4.981  13.635  0.3502  0.0508  0.3230
 8384W        W12435   9.601   0.423   3.558 -0.0832 -0.0219  0.1249
 8385W        W12436   9.859   2.511   5.782 -0.1973  0.1431 -0.0611
 8386W        W12437   2.104   0.031  11.378  0.4832  0.1446 -0.0348
 8387W        W12438   9.549   4.379   1.407 -0.1819 -0.2484  0.0762
 8388W        W12439   7.709   2.653   2.166 -0.0024  0.1781  0.1488
 8389W        W12440   3.432   5.384   0.829 -0.0859  0.3574  0.0519
 8390W        W12441   8.833   4.270   4.006 -0.1080  0.1745  0.3487
 8391W        W12442   2.001   1.767  12.651 -0.0574 -0.0976  0.2630
 8392W        W12443   6.610   4.831  11.359 -0.1179  0.2853  0.1468
 8393W        W12444   1.293   4.326   3.638  0.1391 -0.0906  0.0450
 8394W        W12445   7.598   9.862   3.642 -0.0921 -0.0106  0.1238
 8395W        W12446   8.790   9.810   5.858  0.0644 -0.0154  0.1963
 8396W        W12447   0.266   3.812  12.147 -0.0888 -0.4657 -0.2025
 8397W        W12448   1.928   9.285   4.399  0.2210  0.3577  0.0442
 8398W        W12449   8.973   9.735  13.499 -0.2281 -0.0115 -0.2097
 8399W        W12450   6.600   3.228   9.277  0.0816 -0.2435 -0.0683
 8400W        W12451   6.200   1.496  11.763  0.0754  0.1841 -0.0673
 8401W        W12452   7.203  10.016   0.141 -0.4285  0.2837 -0.0055
 8402W        W12453   7.453   0.312   4.325 -0.0657  0.2187 -0.0424
 8403W        W12454   1.210   4.265   1.017 -0.0900  0.0154 -0.1776
 8404W        W12455   2.728   3.102  13.247  0.1816  0.0667  0.2535
 8405W        W12456   8.900   3.625  12.663  0.1107  0.1131  0.1619
 8406W        W12457   7.011   6.472   2.643 -0.2132  0.1366  0.0939
 8407W        W12458   8.172   8.082  10.081 -0.0534  0.2515  0.4933
 8408W        W12459   9.104   3.140  10.239  0.0274  0.0930 -0.1724
 8409W        W12460   7.604   8.411   4.945  0.0484 -0.1070  0.0708
 8410W        W12461   7.859   7.595   1.343 -0.2710 -0.1340 -0.0900
 8411W        W12462   3.447   7.947   0.256  0.2329  0.1499 -0.1557
 8412W        W12463   3.470   1.493   2.372  0.1734 -0.0072 -0.0853
 8413W        W12464   2.225   0.234   0.686 -0.1201  0.2112  0.0074
 8414W        W12465   3.509   2.499   3.570 -0.1420 -0.2009  0.0112
 8415W        W12466   8.488   0.567   4.516 -0.0323  0.2229  0.0534
 8416W        W12467   4.427   4.820   1.346  0.0999 -0.2661 -0.2013
 8417W        W12468   1.113   7.000   2.266 -0.1696  0.1652  0.2214
 8418W        W12469   0.029   4.169  13.904  0.1625  0.5345 -0.2624
 8419W        W12470   0.567   9.945   1.416  0.0600 -0.1104 -0.2079
 8420W        W12471   5.089   3.782  10.860 -0.0643 -0.4439 -0.1789
 8421W        W12472   4.083   5.888  10.032 -0.1244 -0.0040  0.2810
 8422W        W12473   0.601   4.613   9.907 -0.1307  0.0528  0.1817
 8423W        W12474   1.735   1.440   2.493  0.1549 -0.1874  0.0777
 8424W        W12475   5.993   9.368  11.338  0.1661 -0.0481  0.0104
 8425W        W12476   0.214   7.026  13.673 -0.2256 -0.0482 -0.1284
 8426W        W12477   0.740   4.450   8.703  0.2069 -0.2044  0.1123
 8427W        W12478   2.611   1.517  13.743 -0.0315  0.1184  0.0636
 8428W        W12479   4.164   1.553  10.494  0.1733 -0.4670 -0.4805
 8429W        W12480   8.764   0.119  13.664 -0.1194 -0.0252 -0.2594
 8430W        W12481   0.471   5.502   4.147  0.1076  0.2721 -0.1100
 8431W        W12482   9.354   8.971  13.074 -0.1034  0.1049 -0.0813
 8432W        W12483   7.998   5.747  10.577  0.2446 -0.0477 -0.3460
 8433W        W12484   3.398   3.502   2.331 -0.0448 -0.2958 -0.0744
 8434W        W12485   7.739   0.555   3.914  0.4487 -0.1255 -0.2282
 8435W        W12486   3.808   5.627  12.730  0.1818  0.1764  0.1355
 8436W        W12487   6.936   4.925  13.696 -0.0580 -0.1443  0.0993
 8437W        W12488   9.741   5.720  12.199  0.0580 -0.2335  0.0231
 8438W        W12489   7.898   3.550   4.741 -0.1693 -0.1508  0.0337
 8439W        W12490   4.967   1.585  12.254 -0.0730  0.2136 -0.3207
 8440W        W12491   2.369   8.585   2.477  0.0713 -0.0024  0.0192
 8441W        W12492   7.889   0.924  12.331 -0.1577 -0.1382  0.0355
 8442W        W12493   6.947   9.905  10.431 -0.0591  0.0490  0.0792
 8443W        W12494   4.670   8.469   0.715 -0.0199  0.2356 -0.0823
 8444W        W12495   3.246   5.620  12.419 -0.0846  0.0233 -0.1077
 8445W        W12496   7.552   5.227   3.631 -0.2197  0.2186 -0.1951
 8446W        W12497   2.639   5.279   9.305 -0.0882  0.1661  0.1370
 8447W        W12498   5.790   1.811  12.344  0.0883 -0.2671  0.1729
 8448ION    NA+12499   6.396   7.325  13.196 -0.0001 -0.1006  0.0045
 8449ION    NA+12500   2.565   5.093   0.364 -0.0097  0.0515 -0.2528
 8450ION    NA+12501   1.635   2.826   0.471 -0.3079  0.0523  0.2635
 8451ION    NA+12502   3.724   7.830   4.023  0.1069  0.0119 -0.0957
 8452ION    NA+12503   9.106   3.945  11.262  0.2658 -0.0960 -0.0030
 8453ION    NA+12504   1.814   3.142  13.592  0.5904 -0.1280 -0.3373
 8454ION    NA+12505   3.807   8.561   1.056 -0.0286  0.1900 -0.0560
 8455ION    NA+12506   6.390   7.655  10.401  0.1715  0.4321  0.0229
 8456ION    NA+12507   4.992   7.587  12.454 -0.1448  0.0431 -0.3259
 8457ION    NA+12508   3.763   6.114   4.725  0.0531 -0.1369 -0.0800
 8458ION    NA+12509   0.116   5.870  13.461  0.0519  0.0625  0.0796
 8459ION    NA+12510   4.032   5.002  11.381  0.0719  0.0576 -0.1336
 8460ION    NA+12511   7.622  10.051  13.708 -0.1280 -0.2065  0.0799
 8461ION    NA+12512   0.311   5.895   2.869  0.3470  0.2848  0.1254
 8462ION    NA+12513   0.069   8.245   9.159  0.0716 -0.2471 -0.1741
 8463ION    NA+12514   6.859   5.706   9.185  0.1426 -0.0499 -0.0916
 8464ION    NA+12515   3.842   3.602   5.237  0.0390 -0.2466  0.0521
 8465ION    NA+12516  10.098   7.859   0.886  0.1548  0.1855  0.0878
 8466ION    NA+12517   5.765   1.617   3.151 -0.2198 -0.1265  0.3967
 8467ION    NA+12518   9.614   5.797   3.554 -0.0352 -0.3153  0.3190
 8468ION    NA+12519   9.694  10.079   0.342 -0.0496  0.1398  0.2456
 8469ION    NA+12520   3.308   2.102   0.517  0.2481  0.0261 -0.1780
 8470ION    NA+12521   6.396   7.197   9.147 -0.2807 -0.0122  0.1466
 8471ION    NA+12522   3.054   9.737   2.402 -0.1779 -0.1627  0.2558
 8472ION    NA+12523   1.243   1.895   0.922 -0.1281 -0.0259 -0.2801
 8473ION    NA+12524   9.543   0.006   2.292 -0.1830  0.5319  0.1477
 8474ION    NA+12525   6.545   2.828   5.050 -0.1218 -0.2764 -0.0252
 8475ION    NA+12526   0.873   4.355  11.897 -0.3060 -0.2319 -0.1914
 8476ION    NA+12527   9.656   5.506   3.934 -0.0823  0.0697 -0.3685
 8477ION    NA+12528   7.717   6.133   3.158  0.0221 -0.4448  0.1599
 8478ION    NA+12529   8.523   0.727  12.989  0.1037 -0.1106  0.0056
 8479ION    NA+12530   4.024   1.295  13.571  0.0702  0.0348  0.0555
 8480ION    NA+12531   1.229   7.403   3.053  0.0999  0.0834  0.1464
 8481ION    NA+12532   0.034   3.719  13.558 -0.1506 -0.1404 -0.2566
 8482ION    NA+12533   1.031   9.230   1.621  0.0638 -0.1337 -0.0781
 8483ION    NA+12534   0.144   9.703   4.171 -0.3138  0.1320 -0.0567
 8484ION    NA+12535   5.072   3.899  12.478  0.3215  0.2216  0.1113
 8485ION    NA+12536   7.753   3.362  12.370  0.3655  0.1969 -0.0445
 8486ION    NA+12537   9.006   6.362   2.392  0.0286 -0.3798 -0.3259
 8487ION    NA+12538   8.341   4.078   0.527 -0.0955  0.0865  0.4770
 8488ION    NA+12539   2.068   8.910   2.685 -0.1229 -0.2243  0.0672
 8489ION    NA+12540   6.329   0.303   3.531 -0.2010 -0.0490 -0.1763
 8490ION    NA+12541   2.026   5.342  10.028 -0.3048 -0.2269 -0.0834
 8491ION    NA+12542   9.089   3.227   1.061 -0.0697 -0.1731 -0.0615
 8492ION    NA+12543   1.468   4.181  10.025  0.1105  0.1568  0.2328
 8493ION    NA+12544   8.111  10.107   3.573 -0.1730 -0.1784 -0.0327
 8494ION    NA+12545   6.398   7.647   1.512 -0.3304 -0.0890 -0.0187
 8495ION    NA+12546   6.350   2.755  11.743 -0.0636  0.1546  0.2150
 8496ION    NA+12547   0.972   5.288   4.935 -0.1433 -0.2206 -0.0114
 8497ION    NA+12548   7.558   6.434   9.134  0.1147  0.0768 -0.2743
 8498ION    NA+12549   3.076   9.230  12.797 -0.3030  0.2635  0.0969
 8499ION    NA+12550   7.331   1.411  10.534  0.1419  0.0823  0.3091
 8500ION    NA+12551   0.768   9.635   3.166 -0.1914 -0.2269 -0.0402
 8501ION    NA+12552   2.515   6.031   0.367  0.1725 -0.2782  0.2107
 8502ION    NA+12553   9.204   5.928  10.255  0.0459  0.2711 -0.1029
 8503ION    NA+12554   8.931   3.246   9.333  0.3015 -0.0919  0.1066
 8504ION    NA+12555   3.493   0.749   0.584 -0.3346  0.1600 -0.0118
 8505ION    NA+12556   7.377   8.994   2.197  0.1032 -0.1313  0.3208
 8506ION    NA+12557   1.244   2.240   3.408 -0.1125  0.0099 -0.1050
 8507ION    NA+12558   6.580   4.203   2.049 -0.0341  0.0218  0.2069
 8508ION    NA+12559   9.694   4.981   8.968 -0.2144  0.0521  0.2765
 8509ION    NA+12560   7.098   2.784   9.297 -0.1888  0.0168  0.2797
 8510ION    NA+12561   9.923   6.665   2.734 -0.0318 -0.0281  0.1037
 8511ION    NA+12562   5.280   6.081  10.570  0.1531  0.2073  0.0065
 8512ION    NA+12563   7.747   7.098   2.671  0.1752  0.1392 -0.1886
 8513ION    NA+12564   6.343   6.695   0.896 -0.0493  0.1073 -0.1354
 8514ION    NA+12565   3.213   2.501  11.768 -0.1596  0.0886 -0.0297
 8515ION    NA+12566   0.974   3.486  10.085 -0.0931 -0.0535  0.1578
 8516ION    NA+12567   9.424   4.006   0.476 -0.1486  0.0102  0.1487
 8517ION    NA+12568   7.652   7.571   1.796  0.1604 -0.0145 -0.0820
 8518ION    NA+12569   0.400   6.775   5.317 -0.2048 -0.1191 -0.1656
 8519ION    NA+12570   9.142   8.154  13.764  0.1217 -0.2346  0.2604
 8520ION    NA+12571   9.637   3.179  13.133  0.0668 -0.1490  0.1567
 8521ION    NA+12572   8.655   1.262  11.386  0.0028 -0.2992  0.1551
 8522ION    NA+12573   0.258   3.330   0.839  0.1607 -0.1917  0.0130
 8523ION    NA+12574   1.703   6.146   8.908  0.0491 -0.1155 -0.3034
 8524ION    NA+12575   4.623   9.248   1.004 -0.1054  0.1690  0.2273
 8525ION    NA+12576   2.396   6.331  10.530  0.1590 -0.3625 -0.1210
 8526ION    NA+12577   2.937   4.394   0.950  0.3236  0.1559 -0.2166
 8527ION    NA+12578   1.490   4.592   1.584 -0.3649  0.1011 -0.3492
 8528ION    NA+12579   6.622   0.660   4.200 -0.4044 -0.0425  0.3343
 8529ION    NA+12580  10.064   9.532   1.689  0.0475  0.3169 -0.0908
 8530ION    NA+12581   2.474   3.375   5.140  0.0055  0.0113  0.1684
 8531ION    NA+12582   3.315   8.220   2.690  0.3865  0.1717 -0.0970
 8532ION    NA+12583   8.972   6.653   1.633 -0.0714 -0.1301  0.0772
 8533ION    NA+12584   9.823   6.684   4.152  0.0566  0.0570  0.1082
 8534ION    NA+12585   7.239   5.021   8.681 -0.2043 -0.0637  0.1876
 8535ION    NA+12586   0.718   7.873   3.437 -0.0801  0.0447 -0.0846
 8536ION    NA+12587   1.397   3.024  10.779  0.0030  0.2069 -0.0387
 8537ION    CL-12588   6.651   7.095  13.545  0.1375  0.0615 -0.2204
 8538ION    CL-12589   2.103   9.058   3.149 -0.0045 -0.1266 -0.1711
 8539ION    CL-12590   9.050   1.082  11.065  0.1939 -0.0976  0.3098
 8540ION    CL-12591   0.403   3.709   9.924 -0.3237  0.0976 -0.0144
 8541ION    CL-12592   5.155   6.238  11.102 -0.1870 -0.0141  0.1549
 8542ION    CL-12593   9.347   5.898   4.024  0.0243 -0.1075  0.0536
 8543ION    CL-12594   8.840   0.385  12.880  0.0553  0.0286 -0.2039
 8544ION    CL-12595  10.031   6.138   2.795 -0.3474  0.1542  0.1677
 8545ION    CL-12596   5.507   6.430  13.438  0.0587 -0.0250 -0.0971
 8546ION    CL-12597   2.134   5.767   0.030 -0.0840  0.2285 -0.0318
 8547ION    CL-12598   7.652   7.081  13.038 -0.1408  0.1484  0.0165
 8548ION    CL-12599   1.818   6.645   3.677  0.1272 -0.0458 -0.2804
 8549ION    CL-12600   6.054   4.352   2.103  0.0875 -0.1971 -0.0435
 8550ION    CL-12601   1.268   3.033  10.293  0.2203 -0.2618 -0.1379
 8551ION    CL-12602   1.302   2.354   2.931 -0.0467 -0.0612 -0.1474
 8552ION    CL-12603   9.723   3.590   0.572 -0.2529 -0.1710 -0.1495
 8553ION    CL-12604   1.483   0.730  11.065 -0.0075 -0.0294  0.0086
 8554ION    CL-12605   7.761   9.042  10.097  0.0668 -0.0431 -0.0129
 8555ION    CL-12606   7.978   9.996  13.223  0.2553  0.1524  0.2161
 8556ION    CL-12607   7.043   1.561  10.025  0.2185  0.2073 -0.3871
 8557ION    CL-12608   8.639   6.516   2.039 -0.3121 -0.0523 -0.0713
 8558ION    CL-12609   7.194   8.037   0.883  0.2190 -0.1912 -0.0598
 8559ION    CL-12610   6.632   8.442   9.979 -0.1233 -0.2205 -0.1660
 8560ION    CL-12611   3.298   8.774  12.688  0.0699  0.3532 -0.0330
 8561ION    CL-12612   9.101   3.763   0.925  0.3779  0.1247  0.0929
 8562ION    CL-12613   1.516   5.153   9.999  0.0688  0.0161  0.1386
 8563ION    CL-12614   0.509   3.692  13.506 -0.3393 -0.1327 -0.0986
 8564ION    CL-12615   6.601   0.004   2.385 -0.1818  0.0320 -0.3133
 8565ION    CL-12616   3.299   2.569  12.231 -0.0005 -0.0698 -0.4665
 8566ION    CL-12617   4.382   8.517   2.721 -0.1306  0.3088  0.2752
 8567ION    CL-12618   8.794   4.358   0.812  0.0706 -0.5106  0.0224
 8568ION    CL-12619   5.886   7.757  10.318 -0.0370 -0.1064  0.2315
 8569ION    CL-12620   9.323   2.898  13.438  0.0674 -0.0268  0.0545
 8570ION    CL-12621   5.127   6.171  10.050  0.0171  0.0019 -0.1771
 8571ION    CL-12622   3.618   3.856   9.085 -0.0182 -0.2533  0.3129
 8572ION    CL-12623   3.229   2.593   0.683 -0.1107 -0.3361  0.0060
 8573ION    CL-12624   9.336   0.044   0.096 -0.2192 -0.0343  0.0166
 8574ION    CL-12625   3.418   4.135   4.107 -0.3427 -0.0273 -0.2319
 8575ION    CL-12626   2.544   5.105   0.885  0.1390 -0.1707 -0.4146
 8576ION    CL-12627   7.014   9.966   3.755 -0.2304  0.2061  0.1266
 8577ION    CL-12628   7.011   1.838   4.375 -0.0910  0.0784  0.0183
 8578ION    CL-12629   8.732   7.030   2.070 -0.1200 -0.1990  0.2337
 8579ION    CL-12630   3.585   8.249  11.532 -0.0167 -0.0800  0.0154
 8580ION    CL-12631   1.610   1.381  10.277 -0.2107  0.1325  0.1663
 8581ION    CL-12632   5.595   9.529  10.917  0.2531  0.0944 -0.1619
 8582ION    CL-12633   1.376   2.432   0.725 -0.1648  0.3549 -0.0037
 8583ION    CL-12634   6.410   0.863  11.014  0.0409  0.2456 -0.0189
 8584ION    CL-12635   7.806   5.667   3.459 -0.2672 -0.0288 -0.3049
 8585ION    CL-12636   3.956   2.029  11.585  0.0386  0.3484  0.0515
 8586ION    CL-12637   3.149   8.878   2.879  0.1300  0.1772  0.1067
 8587ION    CL-12638   9.775   7.270   0.974  0.0013  0.4136  0.2152
 8588ION    CL-12639   9.202   5.879   9.750 -0.0530 -0.1207 -0.0656
 8589ION    CL-12640   2.577   2.830   4.511  0.3417  0.2709 -0.1045
 8590ION    CL-12641   0.531   1.056   2.005  0.0038 -0.0564 -0.3015
 8591ION    CL-12642   9.549   5.262   3.459  0.2113  0.1738 -0.1301
 8592ION    CL-12643   8.126   6.355   3.696  0.3746 -0.0593  0.1857
 8593ION    CL-12644   3.615   9.337   1.013 -0.0816 -0.0886  0.1552
 8594ION    CL-12645   0.202   6.141  13.882 -0.0011 -0.0283 -0.2046
 8595ION    CL-12646   0.580   7.832   3.939  0.0258 -0.3329 -0.0494
 8596ION    CL-12647   3.797   5.267  11.740  0.0278 -0.0233  0.3368
 8597ION    CL-12648   7.946   7.316   3.180 -0.2232 -0.0260  0.1023
 8598ION    CL-12649   6.303   5.611   4.678 -0.2319  0.2343 -0.0012
 8599ION    CL-12650   3.165   5.828   0.602  0.0879 -0.2154 -0.0581
 8600ION    CL-12651   1.819   7.123   9.548  0.0397  0.1142  0.1358
 8601ION    CL-12652   0.189   9.851   1.831  0.0282  0.2631 -0.1236
 8602ION    CL-12653   9.557   3.882  13.606  0.0394  0.0732 -0.0573
 8603ION    CL-12654   2.944   7.924   2.811  0.0229  0.3405  0.1614
 8604ION    CL-12655   6.426   1.688  10.676 -0.2508  0.3605 -0.1718
 8605ION    CL-12656   0.539   5.479   1.450 -0.1815  0.2010 -0.0101
 8606ION    CL-12657   4.843   8.003  12.102  0.2666 -0.2299  0.1261
 8607ION    CL-12658   8.152   0.094   4.406  0.2693 -0.2406  0.0635
 8608ION    CL-12659   8.088   5.192   9.589 -0.0556 -0.0857  0.4724
 8609ION    CL-12660   9.780   6.611   4.664 -0.2066 -0.1072 -0.3633
 8610ION    CL-12661   1.143   7.933   3.133  0.2596 -0.1553  0.0206
 8611ION    CL-12662   4.346   9.463   0.472  0.0975 -0.3129  0.0021
 8612ION    CL-12663   1.502   2.008   3.764  0.0507  0.2685  0.1751
 8613ION    CL-12664   7.719   1.684   2.496 -0.0591  0.4408 -0.1602
 8614ION    CL-12665   1.681   3.431  10.471  0.1555  0.2896 -0.2814
 8615ION    CL-12666   0.810   3.937   2.326 -0.1201  0.0764 -0.1443
 8616ION    CL-12667   8.859   4.365  11.237  0.1335 -0.1139  0.4244
 8617ION    CL-12668   7.439   7.364   2.280  0.1286  0.0739  0.0687
 8618ION    CL-12669   3.249   5.659   4.056  0.0696 -0.3283  0.0724
 8619ION    CL-12670   4.751   2.497   4.797  0.1871  0.0034  0.0058
 8620ION    CL-12671   4.043   0.942  13.920 -0.3436  0.1458 -0.2184
 8621ION    CL-12672   7.552   9.450   2.109 -0.2782 -0.0052 -0.0382
 8622ION    CL-12673   7.882   8.971   0.332 -0.1020 -0.2739  0.1235
 8623ION    CL-12674   4.840   8.954  10.916 -0.1538 -0.0109 -0.0778
 8624ION    CL-12675   9.130   4.083   9.699  0.0582  0.0221  0.3375
 8625ION    CL-12676   1.305   4.297  10.507 -0.1033  0.0710  0.1858
  10.19782  10.19782  13.94338
