Protein in INSANE! Membrane UpperLeaflet>POPC=1.0 LowerLeaflet>POPC=1.0
12914
    1AU     AUC    1   5.750   5.820   6.002
    1AU     AUC    2   6.048   5.823   5.826
    1AU     AUC    3   6.018   5.811   6.173
    1AU     AUC    4   5.463   5.813   5.840
    1AU     AUC    5   5.480   5.852   6.189
    1AU     AUC    6   5.579   6.099   6.001
    1AU     AUC    7   5.932   6.096   5.987
    1AU     AUC    8   5.555   5.546   6.009
    1AU     AUC    9   5.915   5.537   6.002
    1AU     AUC   10   5.750   5.646   6.278
    1AU     AUC   11   5.746   6.012   6.262
    1AU     AUC   12   5.745   5.657   5.730
    1AU     AUC   13   5.775   5.975   5.723
    1AU     AUC   14   6.367   5.824   5.663
    1AU     AUC   15   6.365   5.802   6.019
    1AU     AUC   16   6.307   5.794   6.370
    1AU     AUC   17   5.158   5.812   5.675
    1AU     AUC   18   5.141   5.846   6.039
    1AU     AUC   19   5.195   5.884   6.384
    1AU     AUC   20   5.416   6.408   5.975
    1AU     AUC   21   5.776   6.438   5.946
    1AU     AUC   22   6.102   6.385   5.976
    1AU     AUC   23   5.355   5.273   6.011
    1AU     AUC   24   5.701   5.222   5.985
    1AU     AUC   25   6.082   5.232   5.983
    1AU     AUC   26   5.737   5.467   6.569
    1AU     AUC   27   5.754   5.831   6.596
    1AU     AUC   28   5.775   6.192   6.549
    1AU     AUC   29   5.770   5.483   5.449
    1AU     AUC   30   5.771   5.809   5.395
    1AU     AUC   31   5.768   6.128   5.422
    1AU     AUC   32   6.027   5.597   6.491
    1AU     AUC   33   6.056   5.985   6.487
    1AU     AUC   34   6.098   5.661   5.509
    1AU     AUC   35   6.098   6.003   5.529
    1AU     AUC   36   5.449   5.689   6.517
    1AU     AUC   37   5.477   6.065   6.493
    1AU     AUC   38   5.447   5.636   5.545
    1AU     AUC   39   5.430   5.950   5.503
    1AU     AUC   40   6.282   6.103   5.838
    1AU     AUC   41   6.221   6.093   6.193
    1AU     AUC   42   5.254   6.118   5.838
    1AU     AUC   43   5.281   6.172   6.189
    1AU     AUC   44   6.248   5.512   5.835
    1AU     AUC   45   6.211   5.487   6.173
    1AU     AUC   46   5.220   5.519   5.863
    1AU     AUC   47   5.281   5.566   6.222
    1AU     AUC   48   5.600   6.353   6.256
    1AU     AUC   49   5.938   6.312   6.269
    1AU     AUC   50   5.546   5.351   6.304
    1AU     AUC   51   5.880   5.304   6.271
    1AU     AUC   52   5.572   6.248   5.689
    1AU     AUC   53   5.955   6.283   5.666
    1AU     AUC   54   5.542   5.348   5.708
    1AU     AUC   55   5.935   5.368   5.712
    1AU    AUSL   56   6.297   5.731   6.725
    1AU    AUSL   57   6.030   5.295   6.655
    1AU     AUL   58   6.346   5.334   6.854
    1AU       S   59   6.382   4.970   6.591
    1AU     LIG   60   6.273   4.828   6.970
    1AU     LIG   61   6.389   4.449   7.166
    1AU     LIG   62   6.623   4.141   7.407
    1AU     LIG   63   6.845   3.972   7.781
    1AU     LIG   64   6.896   3.677   8.141
    1AU       S   65   6.526   5.744   6.854
    1AU     LIG   66   6.397   5.729   7.298
    1AU     LIG   67   6.560   5.585   7.726
    1AU     LIG   68   6.847   5.455   8.099
    1AU     LIG   69   7.229   5.523   8.406
    1AU     LIG   70   7.514   5.618   8.782
    1AU    AUSL   71   5.897   5.631   6.892
    1AU    AUSL   72   5.636   6.017   6.924
    1AU     AUL   73   5.836   5.921   7.235
    1AU       S   74   6.006   5.555   7.045
    1AU     LIG   75   5.947   5.462   7.455
    1AU     LIG   76   6.169   5.256   7.816
    1AU     LIG   77   6.419   5.087   8.190
    1AU     LIG   78   6.436   4.874   8.624
    1AU     LIG   79   6.469   4.890   9.096
    1AU       S   80   5.426   5.758   7.143
    1AU     LIG   81   5.488   5.704   7.611
    1AU     LIG   82   5.216   5.655   7.993
    1AU     LIG   83   5.030   5.716   8.418
    1AU     LIG   84   5.089   5.988   8.816
    1AU     LIG   85   5.049   6.054   9.280
    1AU    AUSL   86   5.952   6.004   6.655
    1AU    AUSL   87   6.380   6.135   6.608
    1AU     AUL   88   6.183   6.029   6.942
    1AU       S   89   5.856   6.377   7.098
    1AU     LIG   90   6.193   6.261   7.398
    1AU     LIG   91   6.414   6.407   7.801
    1AU     LIG   92   6.379   6.493   8.292
    1AU     LIG   93   6.390   6.659   8.748
    1AU     LIG   94   6.675   6.727   9.118
    1AU       S   95   6.528   6.289   6.776
    1AU     LIG   96   6.919   6.211   6.869
    1AU     LIG   97   7.217   6.417   7.174
    1AU     LIG   98   7.455   6.641   7.523
    1AU     LIG   99   7.780   6.719   7.870
    1AU     LIG  100   8.216   6.860   8.022
    1AU    AUSL  101   6.314   5.905   5.297
    1AU    AUSL  102   6.157   6.312   5.346
    1AU     AUL  103   6.408   6.223   5.077
    1AU       S  104   6.163   5.960   4.824
    1AU     LIG  105   6.625   5.954   4.677
    1AU     LIG  106   6.722   5.687   4.305
    1AU     LIG  107   6.827   5.535   3.868
    1AU     LIG  108   7.196   5.433   3.565
    1AU     LIG  109   7.619   5.466   3.325
    1AU       S  110   6.511   6.540   5.393
    1AU     LIG  111   6.700   6.638   4.978
    1AU     LIG  112   6.920   6.801   4.571
    1AU     LIG  113   7.194   6.932   4.210
    1AU     LIG  114   7.432   7.054   3.827
    1AU     LIG  115   7.631   7.393   3.561
    1AU    AUSL  116   6.066   5.604   5.107
    1AU    AUSL  117   6.447   5.522   5.418
    1AU     AUL  118   6.486   5.683   5.111
    1AU       S  119   6.539   5.219   5.185
    1AU     LIG  120   6.666   4.843   4.886
    1AU     LIG  121   6.916   4.449   4.848
    1AU     LIG  122   7.220   4.230   4.564
    1AU     LIG  123   7.549   4.304   4.219
    1AU     LIG  124   8.009   4.401   4.099
    1AU       S  125   6.184   5.785   4.788
    1AU     LIG  126   6.269   5.443   4.575
    1AU     LIG  127   6.411   5.294   4.146
    1AU     LIG  128   6.419   5.264   3.670
    1AU     LIG  129   6.520   5.093   3.233
    1AU     LIG  130   6.750   4.949   2.828
    1AU    AUSL  131   5.895   5.987   5.248
    1AU    AUSL  132   5.654   5.612   5.228
    1AU     AUL  133   5.788   5.650   4.941
    1AU       S  134   5.340   5.671   4.815
    1AU     LIG  135   5.405   5.351   4.563
    1AU     LIG  136   5.152   5.167   4.215
    1AU     LIG  137   4.974   5.149   3.772
    1AU     LIG  138   4.977   5.027   3.306
    1AU     LIG  139   4.924   4.965   2.832
    1AU       S  140   5.970   6.083   4.923
    1AU     LIG  141   5.925   5.922   4.400
    1AU     LIG  142   6.261   5.782   4.053
    1AU     LIG  143   6.431   5.776   3.592
    1AU     LIG  144   6.477   5.864   3.122
    1AU     LIG  145   6.470   6.149   2.746
    1AU    AUSL  146   5.238   5.966   6.759
    1AU    AUSL  147   5.522   6.314   6.637
    1AU     AUL  148   5.392   6.256   6.976
    1AU       S  149   5.250   5.874   7.205
    1AU     LIG  150   5.021   5.536   7.392
    1AU     LIG  151   4.776   5.464   7.799
    1AU     LIG  152   4.576   5.480   8.233
    1AU     LIG  153   4.201   5.398   8.521
    1AU     LIG  154   3.866   5.558   8.822
    1AU       S  155   5.134   6.553   6.723
    1AU     LIG  156   5.236   6.743   7.111
    1AU     LIG  157   5.068   6.923   7.523
    1AU     LIG  158   4.833   7.253   7.783
    1AU     LIG  159   4.668   7.409   8.216
    1AU     LIG  160   4.542   7.614   8.640
    1AU    AUSL  161   5.535   5.671   6.677
    1AU    AUSL  162   5.111   5.559   6.645
    1AU     AUL  163   5.043   5.773   6.814
    1AU       S  164   5.004   5.318   6.895
    1AU     LIG  165   4.552   5.231   6.729
    1AU     LIG  166   4.261   4.875   6.862
    1AU     LIG  167   4.027   4.623   7.195
    1AU     LIG  168   3.806   4.384   7.545
    1AU     LIG  169   3.474   4.361   7.890
    1AU       S  170   5.437   5.609   7.050
    1AU     LIG  171   5.470   5.275   7.353
    1AU     LIG  172   5.229   5.200   7.753
    1AU     LIG  173   5.013   5.194   8.188
    1AU     LIG  174   4.869   4.983   8.598
    1AU     LIG  175   4.906   4.941   9.075
    1AU    AUSL  176   5.248   5.735   5.280
    1AU    AUSL  177   5.415   5.349   5.452
    1AU     AUL  178   5.450   5.350   5.116
    1AU       S  179   5.134   5.648   4.955
    1AU     LIG  180   4.902   5.386   4.679
    1AU     LIG  181   4.715   5.444   4.245
    1AU     LIG  182   4.607   5.535   3.796
    1AU     LIG  183   4.324   5.641   3.425
    1AU     LIG  184   3.966   5.665   3.090
    1AU       S  185   5.040   5.230   5.262
    1AU     LIG  186   4.991   4.782   5.121
    1AU     LIG  187   4.666   4.490   4.942
    1AU     LIG  188   4.395   4.337   4.577
    1AU     LIG  189   4.286   4.080   4.181
    1AU     LIG  190   4.283   3.881   3.740
    1AU    AUSL  191   5.518   6.022   5.073
    1AU    AUSL  192   5.032   6.072   5.432
    1AU     AUL  193   5.160   6.079   5.097
    1AU       S  194   4.754   6.250   5.260
    1AU     LIG  195   4.570   6.521   4.918
    1AU     LIG  196   4.594   6.697   4.496
    1AU     LIG  197   4.334   6.808   4.119
    1AU     LIG  198   3.921   6.894   3.892
    1AU     LIG  199   3.623   7.193   3.697
    1AU       S  200   5.423   5.897   4.761
    1AU     LIG  201   5.121   5.772   4.389
    1AU     LIG  202   5.111   5.619   3.960
    1AU     LIG  203   5.034   5.619   3.510
    1AU     LIG  204   5.097   5.860   3.119
    1AU     LIG  205   4.888   5.986   2.722
    1AU    AUSL  206   6.527   6.332   6.017
    1AU    AUSL  207   6.487   6.125   5.614
    1AU     AUL  208   6.810   6.445   5.815
    1AU       S  209   6.603   6.247   5.485
    1AU     LIG  210   6.893   6.169   5.165
    1AU     LIG  211   7.134   6.393   4.825
    1AU     LIG  212   7.433   6.665   4.575
    1AU     LIG  213   7.710   6.846   4.221
    1AU     LIG  214   7.934   7.154   3.930
    1AU       S  215   6.921   6.225   6.212
    1AU     LIG  216   7.362   6.336   6.068
    1AU     LIG  217   7.841   6.447   6.024
    1AU     LIG  218   8.282   6.609   6.044
    1AU     LIG  219   8.576   6.937   6.190
    1AU     LIG  220   8.700   7.329   6.426
    1AU    AUSL  221   6.729   5.931   5.903
    1AU    AUSL  222   6.663   5.606   6.217
    1AU     AUL  223   7.029   5.716   6.239
    1AU       S  224   6.867   6.014   5.951
    1AU     LIG  225   7.297   5.890   5.836
    1AU     LIG  226   7.782   5.981   5.821
    1AU     LIG  227   8.249   6.144   5.761
    1AU     LIG  228   8.686   6.272   5.544
    1AU     LIG  229   9.086   6.343   5.307
    1AU       S  230   6.919   5.311   6.060
    1AU     LIG  231   7.244   5.049   6.236
    1AU     LIG  232   7.686   4.861   6.266
    1AU     LIG  233   8.150   4.716   6.272
    1AU     LIG  234   8.623   4.826   6.350
    1AU     LIG  235   9.093   4.755   6.474
    1AU    AUSL  236   6.448   5.968   6.234
    1AU    AUSL  237   6.191   6.352   6.282
    1AU     AUL  238   6.514   6.411   6.326
    1AU       S  239   6.502   6.581   6.746
    1AU     LIG  240   6.907   6.734   6.908
    1AU     LIG  241   7.225   6.970   7.172
    1AU     LIG  242   7.386   7.399   7.334
    1AU     LIG  243   7.556   7.861   7.363
    1AU     LIG  244   7.909   8.130   7.550
    1AU       S  245   6.775   6.051   6.376
    1AU     LIG  246   7.275   6.065   6.510
    1AU     LIG  247   7.731   6.051   6.337
    1AU     LIG  248   8.217   6.162   6.300
    1AU     LIG  249   8.583   6.443   6.504
    1AU     LIG  250   9.010   6.599   6.671
    1AU    AUSL  251   5.084   6.394   6.027
    1AU    AUSL  252   5.171   6.187   6.411
    1AU     AUL  253   4.860   6.493   6.282
    1AU       S  254   5.010   6.352   6.689
    1AU     LIG  255   4.895   6.347   7.131
    1AU     LIG  256   4.644   6.633   7.438
    1AU     LIG  257   4.349   6.737   7.817
    1AU     LIG  258   3.991   6.801   8.144
    1AU     LIG  259   3.632   7.049   8.336
    1AU       S  260   5.088   6.763   5.956
    1AU     LIG  261   4.636   6.752   5.883
    1AU     LIG  262   4.215   7.010   5.925
    1AU     LIG  263   3.807   7.303   5.942
    1AU     LIG  264   3.383   7.570   5.908
    1AU     LIG  265   2.927   7.752   5.953
    1AU    AUSL  266   5.041   6.003   5.840
    1AU    AUSL  267   5.172   6.443   5.618
    1AU     AUL  268   4.860   6.323   5.713
    1AU       S  269   4.662   5.818   5.501
    1AU     LIG  270   4.306   6.126   5.531
    1AU     LIG  271   3.867   6.238   5.311
    1AU     LIG  272   3.379   6.255   5.413
    1AU     LIG  273   2.964   6.499   5.373
    1AU     LIG  274   2.603   6.687   5.133
    1AU       S  275   4.999   6.696   5.446
    1AU     LIG  276   4.936   6.984   5.053
    1AU     LIG  277   4.928   7.405   4.789
    1AU     LIG  278   4.795   7.871   4.671
    1AU     LIG  279   4.482   8.242   4.563
    1AU     LIG  280   4.083   8.530   4.538
    1AU    AUSL  281   4.829   6.043   6.221
    1AU    AUSL  282   4.793   5.675   5.915
    1AU     AUL  283   4.635   5.997   5.942
    1AU       S  284   4.568   5.584   6.156
    1AU     LIG  285   4.258   5.475   5.787
    1AU     LIG  286   3.861   5.215   5.741
    1AU     LIG  287   3.412   5.132   5.612
    1AU     LIG  288   2.946   5.134   5.723
    1AU     LIG  289   2.513   5.053   5.556
    1AU       S  290   4.713   6.040   6.453
    1AU     LIG  291   4.270   6.145   6.419
    1AU     LIG  292   3.826   6.202   6.653
    1AU     LIG  293   3.421   6.459   6.764
    1AU     LIG  294   2.927   6.416   6.759
    1AU     LIG  295   2.472   6.564   6.613
    1AU    AUSL  296   6.457   5.254   6.047
    1AU    AUSL  297   6.287   5.500   6.377
    1AU     AUL  298   6.617   5.401   6.445
    1AU       S  299   6.726   5.151   6.054
    1AU     LIG  300   6.898   4.799   5.913
    1AU     LIG  301   7.312   4.592   5.987
    1AU     LIG  302   7.750   4.407   6.033
    1AU     LIG  303   8.145   4.191   6.180
    1AU     LIG  304   8.448   3.849   6.344
    1AU       S  305   6.499   4.966   6.454
    1AU     LIG  306   6.725   4.658   6.752
    1AU     LIG  307   6.916   4.427   7.098
    1AU     LIG  308   7.153   4.182   7.418
    1AU     LIG  309   7.480   4.174   7.764
    1AU     LIG  310   7.884   4.149   8.022
    1AU    AUSL  311   6.460   5.622   5.823
    1AU    AUSL  312   6.345   5.163   5.645
    1AU     AUL  313   6.614   5.320   5.646
    1AU       S  314   6.959   5.484   5.854
    1AU     LIG  315   7.263   5.121   5.728
    1AU     LIG  316   7.684   4.858   5.748
    1AU     LIG  317   8.130   4.639   5.764
    1AU     LIG  318   8.614   4.623   5.704
    1AU     LIG  319   8.991   4.744   5.449
    1AU       S  320   6.532   4.979   5.339
    1AU     LIG  321   6.532   4.504   5.299
    1AU     LIG  322   6.678   4.080   5.122
    1AU     LIG  323   6.964   3.842   4.847
    1AU     LIG  324   7.315   3.515   4.791
    1AU     LIG  325   7.673   3.200   4.676
    1AU    AUSL  326   4.987   5.311   6.063
    1AU    AUSL  327   5.087   5.564   5.634
    1AU     AUL  328   4.746   5.382   5.771
    1AU       S  329   4.923   5.400   5.348
    1AU     LIG  330   4.566   5.096   5.154
    1AU     LIG  331   4.246   4.783   4.947
    1AU     LIG  332   3.924   4.527   4.695
    1AU     LIG  333   3.719   4.232   4.387
    1AU     LIG  334   3.404   4.127   4.033
    1AU       S  335   4.543   5.330   6.191
    1AU     LIG  336   4.336   4.987   5.965
    1AU     LIG  337   3.908   4.757   5.966
    1AU     LIG  338   3.423   4.801   6.038
    1AU     LIG  339   3.053   4.598   6.278
    1AU     LIG  340   2.630   4.379   6.386
    1AU    AUSL  341   5.060   5.696   6.254
    1AU    AUSL  342   5.297   5.315   6.351
    1AU     AUL  343   4.941   5.345   6.413
    1AU       S  344   5.026   5.110   6.789
    1AU     LIG  345   4.821   4.848   6.484
    1AU     LIG  346   4.492   4.502   6.586
    1AU     LIG  347   4.171   4.250   6.872
    1AU     LIG  348   3.868   4.001   7.173
    1AU     LIG  349   3.556   3.620   7.252
    1AU       S  350   4.569   5.606   6.324
    1AU     LIG  351   4.088   5.752   6.162
    1AU     LIG  352   3.666   5.622   5.974
    1AU     LIG  353   3.347   5.319   6.071
    1AU     LIG  354   2.973   5.104   6.230
    1AU     LIG  355   2.649   4.897   6.461
    1AU    AUSL  356   5.786   6.545   6.393
    1AU    AUSL  357   5.354   6.560   6.315
    1AU     AUL  358   5.590   6.637   6.684
    1AU       S  359   5.206   6.765   6.452
    1AU     LIG  360   4.928   7.000   6.773
    1AU     LIG  361   4.823   7.222   7.186
    1AU     LIG  362   4.712   7.632   7.411
    1AU     LIG  363   4.424   8.026   7.434
    1AU     LIG  364   4.058   8.342   7.507
    1AU       S  365   5.785   6.966   6.439
    1AU     LIG  366   5.957   6.995   6.832
    1AU     LIG  367   5.999   7.440   7.033
    1AU     LIG  368   5.964   7.807   7.350
    1AU     LIG  369   6.026   8.089   7.753
    1AU     LIG  370   5.991   8.504   8.000
    1AU    AUSL  371   5.616   6.763   6.050
    1AU    AUSL  372   5.909   6.703   5.690
    1AU     AUL  373   5.824   7.046   5.843
    1AU       S  374   5.609   6.988   6.256
    1AU     LIG  375   5.654   7.448   6.423
    1AU     LIG  376   5.683   7.819   6.730
    1AU     LIG  377   5.499   8.261   6.833
    1AU     LIG  378   5.456   8.736   6.904
    1AU     LIG  379   5.375   9.196   6.799
    1AU       S  380   5.651   6.882   5.460
    1AU     LIG  381   6.046   7.174   5.417
    1AU     LIG  382   6.204   7.635   5.349
    1AU     LIG  383   6.491   8.035   5.274
    1AU     LIG  384   6.707   8.474   5.218
    1AU     LIG  385   6.643   8.923   5.089
    1AU    AUSL  386   6.059   6.701   6.094
    1AU    AUSL  387   6.045   6.409   6.692
    1AU     AUL  388   6.144   6.674   6.465
    1AU       S  389   6.286   6.509   6.902
    1AU     LIG  390   6.632   6.460   7.241
    1AU     LIG  391   6.929   6.699   7.504
    1AU     LIG  392   7.184   7.056   7.692
    1AU     LIG  393   7.241   7.382   8.036
    1AU     LIG  394   7.284   7.575   8.471
    1AU       S  395   5.975   7.051   6.273
    1AU     LIG  396   6.155   7.376   6.541
    1AU     LIG  397   6.346   7.780   6.710
    1AU     LIG  398   6.716   8.113   6.696
    1AU     LIG  399   6.891   8.562   6.742
    1AU     LIG  400   6.861   8.971   6.962
    1AU    AUSL  401   5.700   5.136   6.428
    1AU    AUSL  402   6.110   5.126   6.257
    1AU     AUL  403   5.926   4.986   6.634
    1AU       S  404   5.684   4.637   6.480
    1AU     LIG  405   5.504   4.562   6.849
    1AU     LIG  406   5.425   4.103   6.906
    1AU     LIG  407   5.497   3.634   6.981
    1AU     LIG  408   5.527   3.324   7.351
    1AU     LIG  409   5.528   3.225   7.834
    1AU       S  410   6.267   4.896   6.307
    1AU     LIG  411   6.252   4.488   6.565
    1AU     LIG  412   6.569   4.163   6.786
    1AU     LIG  413   6.911   3.906   7.028
    1AU     LIG  414   7.078   3.469   7.170
    1AU     LIG  415   7.384   3.102   7.328
    1AU    AUSL  416   5.380   4.956   6.161
    1AU    AUSL  417   5.473   5.268   6.752
    1AU     AUL  418   5.370   4.983   6.519
    1AU       S  419   5.500   4.578   6.327
    1AU     LIG  420   5.151   4.402   6.513
    1AU     LIG  421   5.119   3.933   6.531
    1AU     LIG  422   5.164   3.467   6.594
    1AU     LIG  423   4.960   3.028   6.622
    1AU     LIG  424   4.905   2.680   6.929
    1AU       S  425   5.244   5.147   6.941
    1AU     LIG  426   4.994   4.669   6.964
    1AU     LIG  427   4.560   4.503   7.106
    1AU     LIG  428   4.290   4.229   7.399
    1AU     LIG  429   4.136   4.083   7.833
    1AU     LIG  430   4.207   3.881   8.272
    1AU    AUSL  431   5.807   4.876   6.101
    1AU    AUSL  432   5.555   5.079   5.793
    1AU     AUL  433   5.439   4.756   5.908
    1AU       S  434   5.800   4.704   5.646
    1AU     LIG  435   5.445   4.386   5.544
    1AU     LIG  436   5.272   3.936   5.538
    1AU     LIG  437   5.127   3.477   5.445
    1AU     LIG  438   4.913   3.023   5.389
    1AU     LIG  439   4.786   2.631   5.113
    1AU       S  440   5.816   4.670   6.224
    1AU     LIG  441   5.865   4.202   6.310
    1AU     LIG  442   5.763   3.812   6.564
    1AU     LIG  443   6.004   3.427   6.752
    1AU     LIG  444   6.149   2.961   6.777
    1AU     LIG  445   6.089   2.460   6.727
    1AU    AUSL  446   5.750   6.440   5.362
    1AU    AUSL  447   6.203   6.416   5.758
    1AU     AUL  448   6.060   6.640   5.385
    1AU       S  449   5.650   6.825   5.246
    1AU     LIG  450   5.865   7.068   4.963
    1AU     LIG  451   5.953   7.514   4.906
    1AU     LIG  452   6.076   7.783   4.538
    1AU     LIG  453   6.098   8.069   4.172
    1AU     LIG  454   5.936   8.489   4.075
    1AU       S  455   6.431   6.626   5.646
    1AU     LIG  456   6.904   6.806   5.441
    1AU     LIG  457   7.157   6.896   5.020
    1AU     LIG  458   7.303   7.206   4.664
    1AU     LIG  459   7.507   7.672   4.625
    1AU     LIG  460   7.674   8.149   4.627
    1AU    AUSL  461   5.558   6.473   5.757
    1AU    AUSL  462   5.458   6.151   5.463
    1AU     AUL  463   5.400   6.457   5.330
    1AU       S  464   5.456   6.842   5.598
    1AU     LIG  465   5.553   7.358   5.467
    1AU     LIG  466   5.687   7.815   5.323
    1AU     LIG  467   5.445   8.253   5.262
    1AU     LIG  468   5.379   8.763   5.291
    1AU     LIG  469   5.371   9.276   5.243
    1AU       S  470   4.961   6.484   5.214
    1AU     LIG  471   5.093   6.560   4.805
    1AU     LIG  472   5.053   6.938   4.504
    1AU     LIG  473   5.013   7.116   4.047
    1AU     LIG  474   4.930   7.363   3.633
    1AU     LIG  475   4.611   7.676   3.465
    1AU    AUSL  476   5.757   5.102   5.407
    1AU    AUSL  477   5.150   5.132   5.717
    1AU     AUL  478   5.411   4.966   5.461
    1AU       S  479   4.972   5.111   5.483
    1AU     LIG  480   4.676   4.825   5.581
    1AU     LIG  481   4.376   4.523   5.378
    1AU     LIG  482   4.169   4.243   5.045
    1AU     LIG  483   3.805   3.977   4.844
    1AU     LIG  484   3.440   3.633   4.809
    1AU       S  485   5.812   4.706   5.433
    1AU     LIG  486   5.884   4.299   5.266
    1AU     LIG  487   5.579   3.980   5.115
    1AU     LIG  488   5.478   3.534   5.053
    1AU     LIG  489   5.474   3.207   4.712
    1AU     LIG  490   5.657   2.995   4.332
    1AU    AUSL  491   5.972   5.119   5.806
    1AU    AUSL  492   6.026   5.417   5.474
    1AU     AUL  493   6.092   5.062   5.427
    1AU       S  494   6.043   4.724   5.734
    1AU     LIG  495   5.897   4.250   5.789
    1AU     LIG  496   5.785   3.857   5.557
    1AU     LIG  497   5.952   3.494   5.284
    1AU     LIG  498   6.223   3.124   5.131
    1AU     LIG  499   6.545   2.755   5.182
    1AU       S  500   6.315   5.210   5.072
    1AU     LIG  501   6.175   4.757   5.028
    1AU     LIG  502   6.391   4.379   4.811
    1AU     LIG  503   6.693   4.137   4.506
    1AU     LIG  504   6.989   4.143   4.115
    1AU     LIG  505   7.118   3.956   3.698
    2POPC   NC3  506   1.977   8.012   8.244
    2POPC   PO4  507   2.455   8.393   8.249
    2POPC   GL1  508   2.325   8.298   7.794
    2POPC   GL2  509   2.181   7.948   7.759
    2POPC   C1A  510   2.265   8.209   7.321
    2POPC   D2A  511   2.200   8.405   6.898
    2POPC   C3A  512   2.269   8.278   6.458
    2POPC   C4A  513   2.395   8.441   6.035
    2POPC   C1B  514   1.830   7.902   7.429
    2POPC   C2B  515   1.729   7.786   7.009
    2POPC   C3B  516   1.799   7.836   6.566
    2POPC   C4B  517   1.744   8.149   6.267
    3POPC   NC3  518   1.934   2.709   8.243
    3POPC   PO4  519   1.598   3.267   8.014
    3POPC   GL1  520   1.790   2.999   7.674
    3POPC   GL2  521   2.115   2.963   7.795
    3POPC   C1A  522   1.725   2.760   7.241
    3POPC   D2A  523   1.790   2.559   6.802
    3POPC   C3A  524   1.648   2.861   6.480
    3POPC   C4A  525   1.764   2.992   6.064
    3POPC   C1B  526   2.247   2.803   7.365
    3POPC   C2B  527   2.418   2.813   6.972
    3POPC   C3B  528   2.377   2.677   6.598
    3POPC   C4B  529   2.134   2.802   6.342
    4POPC   NC3  530   8.147   9.753   7.994
    4POPC   PO4  531   8.111   9.148   8.180
    4POPC   GL1  532   8.382   9.333   7.798
    4POPC   GL2  533   8.114   9.527   7.552
    4POPC   C1A  534   8.513   9.289   7.360
    4POPC   D2A  535   8.250   9.507   7.034
    4POPC   C3A  536   8.365   9.614   6.621
    4POPC   C4A  537   8.392   9.402   6.183
    4POPC   C1B  538   7.842   9.802   7.292
    4POPC   C2B  539   7.716   9.972   6.868
    4POPC   C3B  540   7.640   9.799   6.482
    4POPC   C4B  541   7.997   9.705   6.286
    5POPC   NC3  542   1.938   0.541   7.937
    5POPC   PO4  543   1.521   0.034   8.056
    5POPC   GL1  544   1.644   0.132   7.622
    5POPC   GL2  545   1.972   0.295   7.508
    5POPC   C1A  546   1.715   0.064   7.170
    5POPC   D2A  547   1.859   0.346   6.857
    5POPC   C3A  548   1.868   0.167   6.459
    5POPC   C4A  549   1.730   0.190   6.039
    5POPC   C1B  550   1.914   0.685   7.265
    5POPC   C2B  551   1.822   0.857   6.837
    5POPC   C3B  552   1.997   0.683   6.428
    5POPC   C4B  553   1.939   0.620   5.949
    6POPC   NC3  554   7.333   9.321   8.113
    6POPC   PO4  555   7.567   9.940   8.038
    6POPC   GL1  556   7.538   9.626   7.713
    6POPC   GL2  557   7.200   9.749   7.657
    6POPC   C1A  558   7.631   9.332   7.360
    6POPC   D2A  559   7.743   9.460   6.906
    6POPC   C3A  560   7.623   9.305   6.482
    6POPC   C4A  561   7.724   9.392   5.994
    6POPC   C1B  562   7.336   9.709   7.229
    6POPC   C2B  563   7.204   9.696   6.853
    6POPC   C3B  564   7.175   9.542   6.468
    6POPC   C4B  565   7.242   9.677   6.050
    7POPC   NC3  566  10.895   0.388   8.008
    7POPC   PO4  567   0.068   0.727   8.054
    7POPC   GL1  568   0.123   0.534   7.685
    7POPC   GL2  569  11.289   0.450   7.614
    7POPC   C1A  570   0.139   0.650   7.283
    7POPC   D2A  571  11.301   0.605   7.023
    7POPC   C3A  572  11.447   0.511   6.631
    7POPC   C4A  573  11.255   0.537   6.247
    7POPC   C1B  574  10.920   0.384   7.334
    7POPC   C2B  575  10.821   0.483   6.900
    7POPC   C3B  576  10.906   0.287   6.524
    7POPC   C4B  577  10.656   0.094   6.188
    8POPC   NC3  578  10.567   7.255   8.090
    8POPC   PO4  579  10.593   7.919   8.107
    8POPC   GL1  580  10.659   7.629   7.726
    8POPC   GL2  581  10.359   7.418   7.661
    8POPC   C1A  582  10.710   7.506   7.259
    8POPC   D2A  583  10.689   7.689   6.835
    8POPC   C3A  584  10.465   7.472   6.489
    8POPC   C4A  585  10.629   7.460   6.086
    8POPC   C1B  586  10.199   7.585   7.276
    8POPC   C2B  587  10.301   7.304   6.941
    8POPC   C3B  588  10.123   7.083   6.596
    8POPC   C4B  589   9.953   7.375   6.299
    9POPC   NC3  590   1.905   8.945   7.953
    9POPC   PO4  591   1.818   8.311   7.932
    9POPC   GL1  592   1.938   8.566   7.583
    9POPC   GL2  593   2.265   8.786   7.609
    9POPC   C1A  594   1.787   8.384   7.201
    9POPC   D2A  595   1.724   8.294   6.776
    9POPC   C3A  596   1.850   8.600   6.466
    9POPC   C4A  597   1.861   8.611   6.009
    9POPC   C1B  598   2.122   8.837   7.172
    9POPC   C2B  599   2.206   8.886   6.712
    9POPC   C3B  600   2.136   8.978   6.256
    9POPC   C4B  601   1.917   9.311   5.999
   10POPC   NC3  602   9.381   1.800   7.977
   10POPC   PO4  603   8.730   1.987   8.006
   10POPC   GL1  604   8.845   1.945   7.579
   10POPC   GL2  605   8.961   2.297   7.614
   10POPC   C1A  606   8.930   1.745   7.149
   10POPC   D2A  607   9.178   1.992   6.801
   10POPC   C3A  608   9.331   1.898   6.432
   10POPC   C4A  609   9.018   1.997   6.128
   10POPC   C1B  610   8.971   2.255   7.193
   10POPC   C2B  611   8.711   2.123   6.869
   10POPC   C3B  612   8.599   1.990   6.477
   10POPC   C4B  613   8.520   2.259   6.112
   11POPC   NC3  614  11.270   5.949   8.049
   11POPC   PO4  615  10.677   6.308   8.048
   11POPC   GL1  616  10.939   6.142   7.686
   11POPC   GL2  617  10.996   5.759   7.658
   11POPC   C1A  618  11.067   6.022   7.240
   11POPC   D2A  619  11.344   5.806   6.919
   11POPC   C3A  620  11.172   5.825   6.494
   11POPC   C4A  621  11.052   6.237   6.317
   11POPC   C1B  622  11.249   5.527   7.357
   11POPC   C2B  623  11.449   5.297   7.019
   11POPC   C3B  624  11.466   5.402   6.584
   11POPC   C4B  625  11.252   5.409   6.172
   12POPC   NC3  626   0.388   0.278   8.043
   12POPC   PO4  627   0.852   0.785   7.957
   12POPC   GL1  628   0.635   0.581   7.667
   12POPC   GL2  629   0.765   0.282   7.587
   12POPC   C1A  630   0.665   0.692   7.251
   12POPC   D2A  631   0.476   0.566   6.867
   12POPC   C3A  632   0.630   0.758   6.508
   12POPC   C4A  633   0.770   0.675   6.083
   12POPC   C1B  634   0.440   0.223   7.281
   12POPC   C2B  635   0.245   0.106   6.877
   12POPC   C3B  636   0.395   0.228   6.460
   12POPC   C4B  637   0.264   0.577   6.215
   13POPC   NC3  638   2.968   2.869   8.100
   13POPC   PO4  639   2.394   2.729   8.208
   13POPC   GL1  640   2.591   2.797   7.756
   13POPC   GL2  641   2.824   2.572   7.665
   13POPC   C1A  642   2.745   2.955   7.324
   13POPC   D2A  643   2.739   3.222   6.944
   13POPC   C3A  644   2.769   3.007   6.590
   13POPC   C4A  645   2.896   2.660   6.382
   13POPC   C1B  646   2.631   2.437   7.287
   13POPC   C2B  647   2.759   2.441   6.856
   13POPC   C3B  648   2.608   2.246   6.478
   13POPC   C4B  649   2.491   2.454   6.129
   14POPC   NC3  650  11.300   8.772   8.021
   14POPC   PO4  651  10.652   8.875   7.861
   14POPC   GL1  652  10.889   8.627   7.595
   14POPC   GL2  653  11.203   8.757   7.533
   14POPC   C1A  654  10.879   8.689   7.152
   14POPC   D2A  655  11.191   8.697   6.840
   14POPC   C3A  656  10.991   8.844   6.490
   14POPC   C4A  657  10.887   8.743   6.083
   14POPC   C1B  658  11.344   9.089   7.252
   14POPC   C2B  659  11.239   9.263   6.835
   14POPC   C3B  660  11.461   9.092   6.516
   14POPC   C4B  661  11.358   8.870   6.127
   15POPC   NC3  662   8.616  11.359   7.996
   15POPC   PO4  663   9.070  10.965   8.272
   15POPC   GL1  664   8.927  11.026   7.765
   15POPC   GL2  665   9.031  11.251   7.515
   15POPC   C1A  666   8.755  10.864   7.318
   15POPC   D2A  667   8.883  11.054   6.885
   15POPC   C3A  668   8.945  10.853   6.440
   15POPC   C4A  669   8.928  10.912   5.977
   15POPC   C1B  670   8.600  11.352   7.324
   15POPC   C2B  671   8.500  11.403   6.899
   15POPC   C3B  672   8.746  11.400   6.512
   15POPC   C4B  673   9.167  11.337   6.415
   16POPC   NC3  674   6.997  11.282   7.860
   16POPC   PO4  675   6.877  10.663   8.082
   16POPC   GL1  676   6.687  10.859   7.682
   16POPC   GL2  677   6.705  11.183   7.477
   16POPC   C1A  678   6.828  10.756   7.257
   16POPC   D2A  679   6.773  11.028   6.889
   16POPC   C3A  680   6.728  10.838   6.460
   16POPC   C4A  681   6.505  11.042   6.087
   16POPC   C1B  682   6.406  11.368   7.206
   16POPC   C2B  683   6.305  11.242   6.788
   16POPC   C3B  684   6.628  11.348   6.508
   16POPC   C4B  685   6.497   0.061   6.194
   17POPC   NC3  686   0.524   8.087   8.108
   17POPC   PO4  687   0.030   7.671   7.860
   17POPC   GL1  688   0.218   8.000   7.640
   17POPC   GL2  689   0.572   8.096   7.613
   17POPC   C1A  690   0.191   8.082   7.212
   17POPC   D2A  691   0.436   8.088   6.861
   17POPC   C3A  692   0.194   8.032   6.500
   17POPC   C4A  693   0.175   8.181   6.095
   17POPC   C1B  694   0.593   8.402   7.304
   17POPC   C2B  695   0.738   8.515   6.896
   17POPC   C3B  696   0.897   8.185   6.637
   17POPC   C4B  697   0.697   7.984   6.298
   18POPC   NC3  698   4.003  11.048   7.919
   18POPC   PO4  699   4.658  11.414   8.039
   18POPC   GL1  700   4.400  11.437   7.678
   18POPC   GL2  701   4.383  11.108   7.600
   18POPC   C1A  702   4.396  11.430   7.190
   18POPC   D2A  703   4.280   0.069   6.768
   18POPC   C3A  704   4.223  11.313   6.401
   18POPC   C4A  705   4.226  11.385   5.948
   18POPC   C1B  706   4.323  10.924   7.227
   18POPC   C2B  707   4.341  11.023   6.810
   18POPC   C3B  708   4.598  10.891   6.474
   18POPC   C4B  709   4.433  10.923   6.088
   19POPC   NC3  710   5.848  11.149   7.974
   19POPC   PO4  711   6.544  11.213   8.029
   19POPC   GL1  712   6.245  11.120   7.658
   19POPC   GL2  713   6.083  11.444   7.619
   19POPC   C1A  714   6.136  10.943   7.199
   19POPC   D2A  715   5.802  10.742   6.952
   19POPC   C3A  716   5.762  10.852   6.513
   19POPC   C4A  717   6.000  11.086   6.192
   19POPC   C1B  718   5.801  11.330   7.295
   19POPC   C2B  719   5.767  11.238   6.875
   19POPC   C3B  720   5.668  11.354   6.487
   19POPC   C4B  721   5.469   0.117   6.251
   20POPC   NC3  722   6.436   1.003   8.114
   20POPC   PO4  723   6.252   1.615   7.963
   20POPC   GL1  724   6.490   1.327   7.673
   20POPC   GL2  725   6.540   0.969   7.633
   20POPC   C1A  726   6.585   1.400   7.248
   20POPC   D2A  727   6.529   1.619   6.870
   20POPC   C3A  728   6.432   1.383   6.517
   20POPC   C4A  729   6.331   1.382   6.080
   20POPC   C1B  730   6.833   0.957   7.325
   20POPC   C2B  731   6.686   1.010   6.917
   20POPC   C3B  732   6.869   0.973   6.545
   20POPC   C4B  733   6.788   1.173   6.196
   21POPC   NC3  734   0.389   6.298   8.137
   21POPC   PO4  735   0.595   7.001   8.047
   21POPC   GL1  736   0.307   6.808   7.720
   21POPC   GL2  737   0.462   6.488   7.665
   21POPC   C1A  738   0.125   6.751   7.276
   21POPC   D2A  739   0.234   6.548   6.891
   21POPC   C3A  740   0.052   6.743   6.552
   21POPC   C4A  741   0.208   6.886   6.158
   21POPC   C1B  742   0.609   6.616   7.261
   21POPC   C2B  743   0.736   6.414   6.860
   21POPC   C3B  744   0.559   6.573   6.471
   21POPC   C4B  745   0.527   6.491   6.040
   22POPC   NC3  746   2.384   6.234   8.140
   22POPC   PO4  747   2.231   6.843   8.082
   22POPC   GL1  748   1.901   6.826   7.791
   22POPC   GL2  749   1.880   6.483   7.715
   22POPC   C1A  750   1.884   6.937   7.372
   22POPC   D2A  751   1.932   6.755   6.961
   22POPC   C3A  752   2.101   6.952   6.593
   22POPC   C4A  753   2.226   6.764   6.181
   22POPC   C1B  754   2.058   6.293   7.312
   22POPC   C2B  755   1.898   6.248   6.872
   22POPC   C3B  756   1.908   6.457   6.462
   22POPC   C4B  757   1.767   6.331   6.045
   23POPC   NC3  758  11.099   7.717   8.030
   23POPC   PO4  759  10.957   8.445   8.129
   23POPC   GL1  760  10.926   8.139   7.756
   23POPC   GL2  761  11.260   8.244   7.688
   23POPC   C1A  762  11.079   7.868   7.364
   23POPC   D2A  763  11.186   7.616   6.969
   23POPC   C3A  764  11.102   7.816   6.532
   23POPC   C4A  765  11.065   7.962   6.100
   23POPC   C1B  766  11.245   8.336   7.246
   23POPC   C2B  767  11.306   8.184   6.826
   23POPC   C3B  768  11.266   8.360   6.393
   23POPC   C4B  769  11.250   8.388   5.931
   24POPC   NC3  770   0.117   4.257   8.271
   24POPC   PO4  771   0.742   4.432   8.229
   24POPC   GL1  772   0.430   4.277   7.852
   24POPC   GL2  773   0.287   4.535   7.655
   24POPC   C1A  774   0.334   4.101   7.387
   24POPC   D2A  775   0.452   4.197   6.936
   24POPC   C3A  776   0.299   4.001   6.553
   24POPC   C4A  777   0.390   4.072   6.102
   24POPC   C1B  778   0.567   4.552   7.294
   24POPC   C2B  779   0.630   4.653   6.832
   24POPC   C3B  780   0.421   4.512   6.440
   24POPC   C4B  781   0.091   4.512   6.128
   25POPC   NC3  782   1.149   1.139   8.079
   25POPC   PO4  783   1.531   1.629   8.059
   25POPC   GL1  784   1.230   1.517   7.708
   25POPC   GL2  785   1.206   1.158   7.592
   25POPC   C1A  786   1.253   1.536   7.246
   25POPC   D2A  787   1.016   1.468   6.846
   25POPC   C3A  788   1.250   1.585   6.501
   25POPC   C4A  789   1.361   1.435   6.119
   25POPC   C1B  790   1.119   1.018   7.192
   25POPC   C2B  791   1.161   0.970   6.782
   25POPC   C3B  792   1.052   1.085   6.401
   25POPC   C4B  793   1.194   0.966   6.004
   26POPC   NC3  794   1.223   9.654   8.134
   26POPC   PO4  795   1.636   9.284   7.778
   26POPC   GL1  796   1.460   9.699   7.581
   26POPC   GL2  797   1.170   9.872   7.696
   26POPC   C1A  798   1.409   9.779   7.154
   26POPC   D2A  799   1.238   9.437   6.953
   26POPC   C3A  800   1.354   9.396   6.551
   26POPC   C4A  801   1.247   9.488   6.182
   26POPC   C1B  802   0.955   9.697   7.372
   26POPC   C2B  803   0.931   9.859   6.974
   26POPC   C3B  804   1.124   9.844   6.597
   26POPC   C4B  805   0.852   9.774   6.262
   27POPC   NC3  806   5.291   2.556   8.203
   27POPC   PO4  807   5.473   1.949   8.074
   27POPC   GL1  808   5.413   1.747   7.667
   27POPC   GL2  809   5.783   1.751   7.558
   27POPC   C1A  810   5.345   1.922   7.231
   27POPC   D2A  811   5.640   2.100   6.913
   27POPC   C3A  812   5.492   2.137   6.485
   27POPC   C4A  813   5.713   2.174   6.098
   27POPC   C1B  814   5.657   1.532   7.204
   27POPC   C2B  815   5.513   1.623   6.776
   27POPC   C3B  816   5.833   1.763   6.481
   27POPC   C4B  817   6.075   1.804   6.116
   28POPC   NC3  818   7.708   0.276   7.970
   28POPC   PO4  819   7.181  11.429   8.269
   28POPC   GL1  820   7.120   0.261   7.826
   28POPC   GL2  821   7.314   0.584   7.799
   28POPC   C1A  822   7.175   0.159   7.313
   28POPC   D2A  823   6.953   0.020   6.928
   28POPC   C3A  824   7.135   0.003   6.513
   28POPC   C4A  825   6.993   0.170   6.101
   28POPC   C1B  826   7.269   0.653   7.353
   28POPC   C2B  827   7.387   0.500   6.938
   28POPC   C3B  828   7.455   0.393   6.507
   28POPC   C4B  829   7.272   0.611   6.156
   29POPC   NC3  830   7.963   8.724   8.107
   29POPC   PO4  831   8.589   8.622   8.097
   29POPC   GL1  832   8.328   8.813   7.725
   29POPC   GL2  833   7.988   9.028   7.697
   29POPC   C1A  834   8.030   8.617   7.392
   29POPC   D2A  835   7.885   8.759   6.965
   29POPC   C3A  836   8.133   8.651   6.609
   29POPC   C4A  837   7.980   8.547   6.218
   29POPC   C1B  838   8.062   9.101   7.283
   29POPC   C2B  839   8.358   8.982   6.983
   29POPC   C3B  840   8.371   9.099   6.589
   29POPC   C4B  841   8.017   9.068   6.305
   30POPC   NC3  842   6.379   9.611   8.189
   30POPC   PO4  843   6.895   9.195   8.087
   30POPC   GL1  844   6.740   9.531   7.743
   30POPC   GL2  845   6.447   9.792   7.704
   30POPC   C1A  846   6.812   9.643   7.277
   30POPC   D2A  847   6.740   9.496   6.844
   30POPC   C3A  848   6.717   9.766   6.469
   30POPC   C4A  849   6.784   9.446   6.137
   30POPC   C1B  850   6.282   9.677   7.328
   30POPC   C2B  851   6.350   9.803   6.949
   30POPC   C3B  852   6.193   9.674   6.564
   30POPC   C4B  853   6.144   9.836   6.179
   31POPC   NC3  854   2.332   5.386   8.226
   31POPC   PO4  855   3.045   5.328   8.161
   31POPC   GL1  856   2.710   5.498   7.831
   31POPC   GL2  857   2.576   5.845   7.811
   31POPC   C1A  858   2.670   5.531   7.340
   31POPC   D2A  859   2.841   5.409   6.899
   31POPC   C3A  860   2.678   5.478   6.467
   31POPC   C4A  861   2.916   5.586   6.073
   31POPC   C1B  862   2.629   6.032   7.376
   31POPC   C2B  863   2.780   5.925   6.939
   31POPC   C3B  864   2.737   5.994   6.471
   31POPC   C4B  865   2.326   6.156   6.289
   32POPC   NC3  866   8.085   2.079   8.204
   32POPC   PO4  867   7.890   1.568   7.823
   32POPC   GL1  868   8.100   1.813   7.547
   32POPC   GL2  869   8.313   2.036   7.741
   32POPC   C1A  870   8.433   1.650   7.284
   32POPC   D2A  871   8.496   1.576   6.833
   32POPC   C3A  872   8.063   1.629   6.643
   32POPC   C4A  873   7.779   1.569   6.270
   32POPC   C1B  874   8.437   2.155   7.341
   32POPC   C2B  875   8.240   2.008   6.961
   32POPC   C3B  876   8.115   2.183   6.586
   32POPC   C4B  877   8.147   1.913   6.228
   33POPC   NC3  878   4.584  10.938   8.039
   33POPC   PO4  879   4.198  10.355   8.240
   33POPC   GL1  880   4.501  10.274   7.716
   33POPC   GL2  881   4.280  10.434   7.420
   33POPC   C1A  882   4.720  10.297   7.290
   33POPC   D2A  883   4.655  10.625   6.965
   33POPC   C3A  884   4.720  10.396   6.565
   33POPC   C4A  885   4.740  10.508   6.138
   33POPC   C1B  886   4.025  10.128   7.237
   33POPC   C2B  887   3.909   9.959   6.845
   33POPC   C3B  888   3.918  10.145   6.418
   33POPC   C4B  889   4.262  10.423   6.303
   34POPC   NC3  890   7.321   8.111   8.008
   34POPC   PO4  891   6.761   8.301   7.946
   34POPC   GL1  892   7.117   8.468   7.658
   34POPC   GL2  893   7.446   8.342   7.568
   34POPC   C1A  894   7.114   8.443   7.201
   34POPC   D2A  895   7.256   8.188   6.835
   34POPC   C3A  896   7.129   8.261   6.405
   34POPC   C4A  897   6.782   8.105   6.153
   34POPC   C1B  898   7.635   8.350   7.160
   34POPC   C2B  899   7.731   8.331   6.711
   34POPC   C3B  900   7.628   8.178   6.304
   34POPC   C4B  901   7.681   8.313   5.872
   35POPC   NC3  902   0.959   6.775   7.869
   35POPC   PO4  903   0.935   6.140   8.099
   35POPC   GL1  904   0.994   6.316   7.667
   35POPC   GL2  905   1.348   6.456   7.698
   35POPC   C1A  906   1.093   6.534   7.248
   35POPC   D2A  907   0.990   6.851   6.919
   35POPC   C3A  908   1.083   6.636   6.502
   35POPC   C4A  909   1.037   6.497   6.065
   35POPC   C1B  910   1.586   6.476   7.290
   35POPC   C2B  911   1.462   6.586   6.873
   35POPC   C3B  912   1.574   6.848   6.567
   35POPC   C4B  913   1.486   6.744   6.159
   36POPC   NC3  914   3.253   5.739   8.115
   36POPC   PO4  915   3.037   6.307   8.280
   36POPC   GL1  916   3.061   6.163   7.764
   36POPC   GL2  917   3.054   5.823   7.619
   36POPC   C1A  918   3.142   6.175   7.236
   36POPC   D2A  919   3.257   5.989   6.773
   36POPC   C3A  920   3.192   6.248   6.344
   36POPC   C4A  921   3.339   6.430   5.922
   36POPC   C1B  922   3.181   5.665   7.202
   36POPC   C2B  923   3.560   5.591   6.931
   36POPC   C3B  924   3.673   5.693   6.511
   36POPC   C4B  925   3.304   5.762   6.320
   37POPC   NC3  926   8.323   0.619   8.005
   37POPC   PO4  927   8.140   0.017   8.020
   37POPC   GL1  928   8.334   0.213   7.641
   37POPC   GL2  929   8.055   0.453   7.579
   37POPC   C1A  930   8.426   0.355   7.189
   37POPC   D2A  931   8.111   0.316   6.830
   37POPC   C3A  932   8.212   0.395   6.386
   37POPC   C4A  933   8.313   0.083   6.011
   37POPC   C1B  934   7.815   0.654   7.221
   37POPC   C2B  935   7.813   0.724   6.755
   37POPC   C3B  936   7.798   0.686   6.278
   37POPC   C4B  937   7.667   0.692   5.832
   38POPC   NC3  938   1.547   2.589   7.887
   38POPC   PO4  939   0.994   2.920   8.039
   38POPC   GL1  940   1.020   2.690   7.690
   38POPC   GL2  941   1.287   2.921   7.604
   38POPC   C1A  942   1.172   2.526   7.281
   38POPC   D2A  943   1.289   2.682   6.878
   38POPC   C3A  944   1.351   2.468   6.479
   38POPC   C4A  945   1.393   2.615   6.051
   38POPC   C1B  946   1.006   3.103   7.333
   38POPC   C2B  947   0.868   2.994   6.948
   38POPC   C3B  948   1.042   3.054   6.576
   38POPC   C4B  949   0.846   2.937   6.210
   39POPC   NC3  950   0.574   2.708   8.085
   39POPC   PO4  951   0.749   2.114   7.928
   39POPC   GL1  952   0.534   2.436   7.664
   39POPC   GL2  953   0.254   2.693   7.676
   39POPC   C1A  954   0.652   2.683   7.323
   39POPC   D2A  955   0.761   2.451   6.973
   39POPC   C3A  956   0.876   2.582   6.586
   39POPC   C4A  957   0.889   2.425   6.152
   39POPC   C1B  958   0.129   2.775   7.240
   39POPC   C2B  959   0.369   2.769   6.863
   39POPC   C3B  960   0.419   2.754   6.430
   39POPC   C4B  961   0.088   2.767   6.132
   40POPC   NC3  962   5.008   1.802   8.083
   40POPC   PO4  963   4.771   2.471   8.147
   40POPC   GL1  964   4.937   2.238   7.772
   40POPC   GL2  965   4.718   1.989   7.696
   40POPC   C1A  966   4.903   2.221   7.276
   40POPC   D2A  967   5.133   2.228   6.852
   40POPC   C3A  968   5.013   2.320   6.400
   40POPC   C4A  969   5.268   2.444   6.026
   40POPC   C1B  970   4.896   1.697   7.378
   40POPC   C2B  971   4.848   1.821   6.931
   40POPC   C3B  972   5.048   1.826   6.531
   40POPC   C4B  973   4.853   1.703   6.142
   41POPC   NC3  974   8.855  10.612   8.044
   41POPC   PO4  975   8.354  10.118   8.201
   41POPC   GL1  976   8.461  10.411   7.806
   41POPC   GL2  977   8.776  10.342   7.621
   41POPC   C1A  978   8.391  10.456   7.310
   41POPC   D2A  979   8.526  10.236   6.883
   41POPC   C3A  980   8.560  10.496   6.477
   41POPC   C4A  981   8.481  10.639   6.008
   41POPC   C1B  982   8.904  10.192   7.230
   41POPC   C2B  983   9.031  10.319   6.805
   41POPC   C3B  984   8.919  10.167   6.404
   41POPC   C4B  985   8.942  10.421   6.081
   42POPC   NC3  986   7.517   2.233   8.027
   42POPC   PO4  987   7.822   1.719   8.328
   42POPC   GL1  988   7.442   1.741   7.854
   42POPC   GL2  989   7.599   1.980   7.609
   42POPC   C1A  990   7.511   1.615   7.311
   42POPC   D2A  991   7.752   1.878   6.975
   42POPC   C3A  992   7.656   1.984   6.502
   42POPC   C4A  993   7.360   1.863   6.156
   42POPC   C1B  994   7.344   2.088   7.236
   42POPC   C2B  995   7.262   1.927   6.824
   42POPC   C3B  996   7.188   2.206   6.486
   42POPC   C4B  997   6.955   2.169   6.119
   43POPC   NC3  998   7.598   1.238   7.966
   43POPC   PO4  999   6.902   1.237   8.061
   43POPC   GL1 1000   7.017   1.372   7.661
   43POPC   GL2 1001   7.234   1.095   7.641
   43POPC   C1A 1002   7.084   1.388   7.215
   43POPC   D2A 1003   6.985   1.420   6.795
   43POPC   C3A 1004   7.244   1.443   6.435
   43POPC   C4A 1005   7.152   1.454   5.968
   43POPC   C1B 1006   7.494   1.094   7.289
   43POPC   C2B 1007   7.256   0.992   6.931
   43POPC   C3B 1008   7.384   0.927   6.537
   43POPC   C4B 1009   7.467   1.089   6.137
   44POPC   NC3 1010   1.907   9.684   7.804
   44POPC   PO4 1011   2.322   9.173   7.992
   44POPC   GL1 1012   2.316   9.429   7.635
   44POPC   GL2 1013   2.060   9.250   7.480
   44POPC   C1A 1014   2.333   9.624   7.209
   44POPC   D2A 1015   2.330   9.372   6.839
   44POPC   C3A 1016   2.108   9.454   6.465
   44POPC   C4A 1017   2.126   9.756   6.139
   44POPC   C1B 1018   1.868   9.303   7.061
   44POPC   C2B 1019   1.740   9.646   6.772
   44POPC   C3B 1020   1.648   9.761   6.347
   44POPC   C4B 1021   1.683   9.930   5.946
   45POPC   NC3 1022  11.063   3.456   8.045
   45POPC   PO4 1023   0.090   3.225   7.739
   45POPC   GL1 1024  11.158   3.441   7.552
   45POPC   GL2 1025  11.023   3.818   7.692
   45POPC   C1A 1026  10.821   3.639   7.262
   45POPC   D2A 1027  10.772   3.577   6.832
   45POPC   C3A 1028  11.068   3.285   6.645
   45POPC   C4A 1029  11.064   3.169   6.211
   45POPC   C1B 1030  11.301   3.901   7.360
   45POPC   C2B 1031  11.269   3.703   6.971
   45POPC   C3B 1032  11.176   3.785   6.555
   45POPC   C4B 1033  11.453   3.543   6.280
   46POPC   NC3 1034   8.825   8.225   8.019
   46POPC   PO4 1035   8.467   7.753   7.815
   46POPC   GL1 1036   8.845   7.891   7.596
   46POPC   GL2 1037   8.841   8.242   7.509
   46POPC   C1A 1038   9.011   7.846   7.170
   46POPC   D2A 1039   9.018   7.978   6.718
   46POPC   C3A 1040   8.938   7.778   6.308
   46POPC   C4A 1041   8.645   7.768   5.921
   46POPC   C1B 1042   8.831   8.350   7.067
   46POPC   C2B 1043   9.150   8.470   6.778
   46POPC   C3B 1044   9.108   8.336   6.354
   46POPC   C4B 1045   8.934   8.170   5.979
   47POPC   NC3 1046   1.379   8.281   8.066
   47POPC   PO4 1047   0.941   7.845   8.049
   47POPC   GL1 1048   1.084   8.052   7.678
   47POPC   GL2 1049   0.979   7.763   7.514
   47POPC   C1A 1050   1.287   8.228   7.280
   47POPC   D2A 1051   1.262   8.508   6.906
   47POPC   C3A 1052   1.345   8.438   6.460
   47POPC   C4A 1053   1.074   8.337   6.102
   47POPC   C1B 1054   1.231   7.711   7.152
   47POPC   C2B 1055   1.324   7.988   6.799
   47POPC   C3B 1056   1.271   7.945   6.366
   47POPC   C4B 1057   1.497   7.710   6.130
   48POPC   NC3 1058   0.602  10.436   8.073
   48POPC   PO4 1059   0.060  10.070   8.223
   48POPC   GL1 1060   0.296  10.131   7.766
   48POPC   GL2 1061   0.373  10.486   7.630
   48POPC   C1A 1062   0.613  10.110   7.375
   48POPC   D2A 1063   0.457  10.025   6.931
   48POPC   C3A 1064   0.738  10.197   6.623
   48POPC   C4A 1065   0.775  10.293   6.203
   48POPC   C1B 1066   0.212  10.401   7.230
   48POPC   C2B 1067   0.357  10.524   6.835
   48POPC   C3B 1068   0.324  10.461   6.414
   48POPC   C4B 1069   0.218  10.798   6.177
   49POPC   NC3 1070   1.150   3.341   8.101
   49POPC   PO4 1071   0.763   3.883   7.897
   49POPC   GL1 1072   1.150   3.792   7.653
   49POPC   GL2 1073   1.306   3.460   7.637
   49POPC   C1A 1074   1.264   3.721   7.205
   49POPC   D2A 1075   1.094   3.490   6.858
   49POPC   C3A 1076   1.146   3.742   6.471
   49POPC   C4A 1077   1.125   3.578   6.070
   49POPC   C1B 1078   1.514   3.266   7.307
   49POPC   C2B 1079   1.473   3.144   6.905
   49POPC   C3B 1080   1.462   3.337   6.509
   49POPC   C4B 1081   1.304   3.127   6.151
   50POPC   NC3 1082   1.879   7.099   8.218
   50POPC   PO4 1083   1.271   7.018   8.088
   50POPC   GL1 1084   1.395   7.001   7.670
   50POPC   GL2 1085   1.273   7.362   7.682
   50POPC   C1A 1086   1.400   6.959   7.221
   50POPC   D2A 1087   1.336   7.262   6.906
   50POPC   C3A 1088   1.153   7.144   6.526
   50POPC   C4A 1089   1.373   7.233   6.183
   50POPC   C1B 1090   1.007   7.254   7.359
   50POPC   C2B 1091   0.826   7.380   6.983
   50POPC   C3B 1092   1.008   7.615   6.656
   50POPC   C4B 1093   0.967   7.530   6.231
   51POPC   NC3 1094   3.429   9.492   8.240
   51POPC   PO4 1095   3.453  10.135   8.139
   51POPC   GL1 1096   3.506   9.923   7.759
   51POPC   GL2 1097   3.684   9.629   7.755
   51POPC   C1A 1098   3.552   9.945   7.325
   51POPC   D2A 1099   3.258   9.824   7.022
   51POPC   C3A 1100   3.464   9.791   6.657
   51POPC   C4A 1101   3.454   9.981   6.293
   51POPC   C1B 1102   3.473   9.439   7.372
   51POPC   C2B 1103   3.335   9.333   6.915
   51POPC   C3B 1104   3.513   9.323   6.465
   51POPC   C4B 1105   3.804   9.285   6.099
   52POPC   NC3 1106   8.843   3.331   8.194
   52POPC   PO4 1107   9.148   3.858   8.087
   52POPC   GL1 1108   9.242   3.580   7.695
   52POPC   GL2 1109   9.033   3.284   7.713
   52POPC   C1A 1110   9.107   3.613   7.254
   52POPC   D2A 1111   8.822   3.557   6.894
   52POPC   C3A 1112   8.973   3.652   6.479
   52POPC   C4A 1113   8.873   3.821   6.070
   52POPC   C1B 1114   8.867   3.163   7.310
   52POPC   C2B 1115   9.043   3.104   6.912
   52POPC   C3B 1116   8.786   3.133   6.575
   52POPC   C4B 1117   8.659   3.358   6.194
   53POPC   NC3 1118   1.712   5.295   7.974
   53POPC   PO4 1119   2.174   5.819   8.155
   53POPC   GL1 1120   2.124   5.582   7.750
   53POPC   GL2 1121   1.769   5.678   7.640
   53POPC   C1A 1122   2.133   5.705   7.282
   53POPC   D2A 1123   1.903   5.723   6.874
   53POPC   C3A 1124   2.154   5.693   6.488
   53POPC   C4A 1125   2.008   5.476   6.104
   53POPC   C1B 1126   1.648   5.954   7.282
   53POPC   C2B 1127   1.405   6.085   6.915
   53POPC   C3B 1128   1.460   6.198   6.492
   53POPC   C4B 1129   1.725   5.889   6.286
   54POPC   NC3 1130  11.080   9.792   8.142
   54POPC   PO4 1131   0.048   9.252   8.096
   54POPC   GL1 1132  11.442   9.453   7.662
   54POPC   GL2 1133  11.089   9.596   7.682
   54POPC   C1A 1134  11.271   9.604   7.218
   54POPC   D2A 1135  11.294   9.861   6.826
   54POPC   C3A 1136  11.426   9.633   6.478
   54POPC   C4A 1137  11.465   9.636   6.052
   54POPC   C1B 1138  10.858   9.865   7.379
   54POPC   C2B 1139  10.818   9.685   6.939
   54POPC   C3B 1140  10.911   9.597   6.503
   54POPC   C4B 1141  11.099   9.299   6.237
   55POPC   NC3 1142  10.776   5.080   8.064
   55POPC   PO4 1143  10.174   5.444   8.112
   55POPC   GL1 1144  10.258   5.263   7.703
   55POPC   GL2 1145  10.450   4.953   7.668
   55POPC   C1A 1146  10.371   5.399   7.286
   55POPC   D2A 1147  10.478   5.252   6.865
   55POPC   C3A 1148  10.172   5.272   6.549
   55POPC   C4A 1149  10.202   4.938   6.257
   55POPC   C1B 1150  10.664   4.794   7.293
   55POPC   C2B 1151  10.625   4.754   6.852
   55POPC   C3B 1152  10.682   4.873   6.419
   55POPC   C4B 1153  10.565   4.692   6.002
   56POPC   NC3 1154   5.950   0.467   8.081
   56POPC   PO4 1155   5.281   0.324   8.250
   56POPC   GL1 1156   5.504   0.494   7.783
   56POPC   GL2 1157   5.712   0.752   7.726
   56POPC   C1A 1158   5.805   0.370   7.383
   56POPC   D2A 1159   5.718   0.250   6.924
   56POPC   C3A 1160   6.041   0.201   6.586
   56POPC   C4A 1161   5.975   0.111   6.143
   56POPC   C1B 1162   6.094   0.789   7.468
   56POPC   C2B 1163   6.148   0.858   7.017
   56POPC   C3B 1164   5.856   0.734   6.689
   56POPC   C4B 1165   5.784   0.555   6.295
   57POPC   NC3 1166   9.526  10.927   8.209
   57POPC   PO4 1167   9.207  10.610   7.725
   57POPC   GL1 1168   9.472  10.994   7.661
   57POPC   GL2 1169   9.523  11.381   7.693
   57POPC   C1A 1170   9.481  11.154   7.226
   57POPC   D2A 1171   9.720  11.011   6.858
   57POPC   C3A 1172   9.523  10.942   6.456
   57POPC   C4A 1173   9.775  11.003   6.077
   57POPC   C1B 1174   9.824   0.009   7.357
   57POPC   C2B 1175   9.656   0.041   6.898
   57POPC   C3B 1176   9.681  11.426   6.445
   57POPC   C4B 1177   9.772  11.498   6.000
   58POPC   NC3 1178  10.551   8.322   8.326
   58POPC   PO4 1179   9.982   8.469   7.908
   58POPC   GL1 1180  10.071   8.269   7.572
   58POPC   GL2 1181  10.233   7.952   7.665
   58POPC   C1A 1182  10.174   8.207   7.166
   58POPC   D2A 1183  10.347   8.059   6.806
   58POPC   C3A 1184  10.278   8.297   6.466
   58POPC   C4A 1185  10.275   8.168   6.044
   58POPC   C1B 1186  10.581   7.991   7.363
   58POPC   C2B 1187  10.805   8.193   7.023
   58POPC   C3B 1188  10.794   8.254   6.583
   58POPC   C4B 1189  10.615   7.926   6.323
   59POPC   NC3 1190   4.626   1.211   8.036
   59POPC   PO4 1191   4.126   0.760   8.081
   59POPC   GL1 1192   4.017   1.041   7.742
   59POPC   GL2 1193   4.360   1.025   7.641
   59POPC   C1A 1194   3.895   0.939   7.309
   59POPC   D2A 1195   4.136   0.951   6.926
   59POPC   C3A 1196   3.996   0.962   6.538
   59POPC   C4A 1197   4.315   1.160   6.421
   59POPC   C1B 1198   4.283   1.286   7.283
   59POPC   C2B 1199   4.529   1.415   6.942
   59POPC   C3B 1200   4.585   1.551   6.549
   59POPC   C4B 1201   4.172   1.668   6.372
   60POPC   NC3 1202   1.348   4.841   8.190
   60POPC   PO4 1203   2.047   5.026   8.150
   60POPC   GL1 1204   2.035   4.931   7.711
   60POPC   GL2 1205   1.883   5.184   7.519
   60POPC   C1A 1206   2.004   4.743   7.300
   60POPC   D2A 1207   1.903   5.040   6.968
   60POPC   C3A 1208   1.872   4.815   6.583
   60POPC   C4A 1209   1.818   5.014   6.201
   60POPC   C1B 1210   2.262   5.213   7.313
   60POPC   C2B 1211   2.319   5.366   6.883
   60POPC   C3B 1212   2.238   5.189   6.460
   60POPC   C4B 1213   2.476   5.200   6.054
   61POPC   NC3 1214   9.803   5.151   8.200
   61POPC   PO4 1215   9.748   4.488   8.013
   61POPC   GL1 1216   9.935   4.838   7.734
   61POPC   GL2 1217   9.746   5.166   7.698
   61POPC   C1A 1218  10.052   4.991   7.291
   61POPC   D2A 1219  10.110   4.854   6.844
   61POPC   C3A 1220   9.779   4.948   6.509
   61POPC   C4A 1221   9.644   4.800   6.112
   61POPC   C1B 1222   9.543   5.085   7.306
   61POPC   C2B 1223   9.535   5.212   6.865
   61POPC   C3B 1224   9.341   5.205   6.454
   61POPC   C4B 1225   9.414   5.245   6.029
   62POPC   NC3 1226  11.315  11.087   7.936
   62POPC   PO4 1227  10.775  11.445   8.092
   62POPC   GL1 1228  11.079  11.495   7.744
   62POPC   GL2 1229  10.813  11.419   7.545
   62POPC   C1A 1230  11.296   0.031   7.334
   62POPC   D2A 1231  11.053   0.029   6.959
   62POPC   C3A 1232  11.311  11.494   6.596
   62POPC   C4A 1233  11.193   0.030   6.169
   62POPC   C1B 1234  11.007  11.111   7.290
   62POPC   C2B 1235  11.143  11.032   6.872
   62POPC   C3B 1236  11.264  10.999   6.436
   62POPC   C4B 1237  11.015  10.772   6.135
   63POPC   NC3 1238  10.199   3.430   8.248
   63POPC   PO4 1239  10.684   3.250   7.836
   63POPC   GL1 1240  10.332   3.263   7.575
   63POPC   GL2 1241  10.208   3.562   7.754
   63POPC   C1A 1242  10.392   3.286   7.113
   63POPC   D2A 1243  10.270   3.354   6.672
   63POPC   C3A 1244  10.609   3.491   6.355
   63POPC   C4A 1245  10.628   3.333   5.925
   63POPC   C1B 1246  10.166   3.735   7.355
   63POPC   C2B 1247  10.318   3.773   6.940
   63POPC   C3B 1248  10.199   3.879   6.532
   63POPC   C4B 1249  10.232   3.721   6.116
   64POPC   NC3 1250   6.751   0.066   8.261
   64POPC   PO4 1251   6.407   0.543   8.113
   64POPC   GL1 1252   6.329   0.393   7.707
   64POPC   GL2 1253   6.581   0.124   7.709
   64POPC   C1A 1254   6.316   0.373   7.243
   64POPC   D2A 1255   6.493   0.259   6.839
   64POPC   C3A 1256   6.408   0.596   6.548
   64POPC   C4A 1257   6.272   0.516   6.139
   64POPC   C1B 1258   6.783   0.457   7.455
   64POPC   C2B 1259   6.889   0.545   7.006
   64POPC   C3B 1260   6.917   0.463   6.548
   64POPC   C4B 1261   6.767   0.653   6.141
   65POPC   NC3 1262   4.662  10.346   8.190
   65POPC   PO4 1263   4.995  10.958   8.260
   65POPC   GL1 1264   4.947  10.617   7.838
   65POPC   GL2 1265   4.737  10.733   7.544
   65POPC   C1A 1266   5.184  10.411   7.445
   65POPC   D2A 1267   5.105  10.423   6.941
   65POPC   C3A 1268   5.149  10.101   6.603
   65POPC   C4A 1269   5.054  10.115   6.146
   65POPC   C1B 1270   5.113  10.858   7.243
   65POPC   C2B 1271   5.296  10.890   6.801
   65POPC   C3B 1272   5.171  10.657   6.406
   65POPC   C4B 1273   5.232  10.570   5.934
   66POPC   NC3 1274  11.498   5.434   8.095
   66POPC   PO4 1275   0.012   4.694   8.094
   66POPC   GL1 1276  11.188   4.827   7.835
   66POPC   GL2 1277  11.171   5.200   7.761
   66POPC   C1A 1278  11.156   4.840   7.397
   66POPC   D2A 1279  11.111   4.630   7.008
   66POPC   C3A 1280  11.156   4.869   6.658
   66POPC   C4A 1281  11.157   4.750   6.259
   66POPC   C1B 1282  10.838   5.256   7.442
   66POPC   C2B 1283  10.951   5.154   7.024
   66POPC   C3B 1284  10.937   5.344   6.608
   66POPC   C4B 1285  10.605   5.375   6.311
   67POPC   NC3 1286   7.918  10.273   8.074
   67POPC   PO4 1287   8.454   9.932   7.705
   67POPC   GL1 1288   8.062  10.151   7.601
   67POPC   GL2 1289   8.002  10.545   7.660
   67POPC   C1A 1290   7.875  10.308   7.216
   67POPC   D2A 1291   8.060  10.440   6.833
   67POPC   C3A 1292   8.162  10.144   6.520
   67POPC   C4A 1293   7.810  10.240   6.325
   67POPC   C1B 1294   7.806  10.777   7.363
   67POPC   C2B 1295   7.698  10.808   6.923
   67POPC   C3B 1296   7.957  10.902   6.617
   67POPC   C4B 1297   8.112  10.655   6.337
   68POPC   NC3 1298   4.548   2.840   8.458
   68POPC   PO4 1299   4.003   2.581   8.085
   68POPC   GL1 1300   4.211   2.648   7.685
   68POPC   GL2 1301   4.023   2.948   7.636
   68POPC   C1A 1302   4.505   2.600   7.296
   68POPC   D2A 1303   4.546   2.326   6.918
   68POPC   C3A 1304   4.584   2.565   6.530
   68POPC   C4A 1305   4.474   2.446   6.117
   68POPC   C1B 1306   3.995   2.744   7.225
   68POPC   C2B 1307   4.181   2.770   6.794
   68POPC   C3B 1308   4.149   2.793   6.328
   68POPC   C4B 1309   4.418   2.956   5.990
   69POPC   NC3 1310   1.385   6.217   8.183
   69POPC   PO4 1311   1.229   5.572   7.970
   69POPC   GL1 1312   1.255   5.879   7.659
   69POPC   GL2 1313   1.298   5.613   7.442
   69POPC   C1A 1314   1.037   6.015   7.246
   69POPC   D2A 1315   0.893   5.879   6.804
   69POPC   C3A 1316   0.941   6.127   6.412
   69POPC   C4A 1317   0.784   6.063   5.960
   69POPC   C1B 1318   1.592   5.435   7.184
   69POPC   C2B 1319   1.379   5.568   6.823
   69POPC   C3B 1320   1.255   5.707   6.427
   69POPC   C4B 1321   1.509   5.421   6.220
   70POPC   NC3 1322   3.515   0.097   8.123
   70POPC   PO4 1323   3.333  10.837   8.107
   70POPC   GL1 1324   3.529  10.949   7.703
   70POPC   GL2 1325   3.590  11.312   7.693
   70POPC   C1A 1326   3.798  10.980   7.318
   70POPC   D2A 1327   3.920  11.280   7.002
   70POPC   C3A 1328   3.770  11.148   6.592
   70POPC   C4A 1329   3.777  11.227   6.146
   70POPC   C1B 1330   3.335  11.262   7.312
   70POPC   C2B 1331   3.157  11.371   6.895
   70POPC   C3B 1332   3.311  11.358   6.445
   70POPC   C4B 1333   3.364  10.921   6.287
   71POPC   NC3 1334  11.125   4.448   8.238
   71POPC   PO4 1335  11.424   3.895   8.024
   71POPC   GL1 1336  11.370   4.271   7.785
   71POPC   GL2 1337  11.034   4.340   7.749
   71POPC   C1A 1338  11.428   4.411   7.347
   71POPC   D2A 1339  11.457   4.201   6.963
   71POPC   C3A 1340  11.387   4.327   6.554
   71POPC   C4A 1341  11.396   4.052   6.189
   71POPC   C1B 1342  10.946   4.281   7.351
   71POPC   C2B 1343  10.964   4.124   6.939
   71POPC   C3B 1344  10.898   4.418   6.581
   71POPC   C4B 1345  10.956   4.292   6.172
   72POPC   NC3 1346   9.363   4.260   8.094
   72POPC   PO4 1347   9.997   3.874   8.140
   72POPC   GL1 1348   9.855   3.942   7.712
   72POPC   GL2 1349   9.984   4.216   7.542
   72POPC   C1A 1350   9.617   3.788   7.332
   72POPC   D2A 1351   9.357   3.937   6.949
   72POPC   C3A 1352   9.448   3.890   6.501
   72POPC   C4A 1353   9.799   4.052   6.275
   72POPC   C1B 1354   9.743   4.564   7.338
   72POPC   C2B 1355   9.630   4.689   6.928
   72POPC   C3B 1356   9.614   4.466   6.532
   72POPC   C4B 1357   9.337   4.382   6.210
   73POPC   NC3 1358   2.703   8.053   8.023
   73POPC   PO4 1359   2.127   7.524   8.229
   73POPC   GL1 1360   2.082   7.438   7.805
   73POPC   GL2 1361   1.784   7.329   7.754
   73POPC   C1A 1362   2.135   7.506   7.349
   73POPC   D2A 1363   2.216   7.717   6.922
   73POPC   C3A 1364   2.204   7.502   6.518
   73POPC   C4A 1365   2.008   7.607   6.122
   73POPC   C1B 1366   1.642   7.394   7.332
   73POPC   C2B 1367   1.856   7.285   6.949
   73POPC   C3B 1368   1.721   7.335   6.536
   73POPC   C4B 1369   1.853   7.112   6.175
   74POPC   NC3 1370  10.715   1.289   8.401
   74POPC   PO4 1371  10.111   1.016   8.403
   74POPC   GL1 1372  10.214   1.018   7.899
   74POPC   GL2 1373  10.239   1.385   7.792
   74POPC   C1A 1374  10.335   1.046   7.429
   74POPC   D2A 1375  10.035   0.968   7.103
   74POPC   C3A 1376  10.058   1.050   6.653
   74POPC   C4A 1377  10.451   1.041   6.377
   74POPC   C1B 1378  10.147   1.502   7.325
   74POPC   C2B 1379  10.313   1.392   6.923
   74POPC   C3B 1380  10.240   1.506   6.480
   74POPC   C4B 1381  10.380   1.455   6.025
   75POPC   NC3 1382   0.541   4.773   8.002
   75POPC   PO4 1383   0.453   5.484   7.908
   75POPC   GL1 1384   0.513   5.134   7.642
   75POPC   GL2 1385   0.164   5.030   7.700
   75POPC   C1A 1386   0.634   5.058   7.218
   75POPC   D2A 1387   0.401   5.125   6.831
   75POPC   C3A 1388   0.601   5.042   6.466
   75POPC   C4A 1389   0.874   4.748   6.349
   75POPC   C1B 1390   0.155   4.870   7.263
   75POPC   C2B 1391   0.113   4.699   6.839
   75POPC   C3B 1392   0.111   4.935   6.425
   75POPC   C4B 1393   0.274   5.318   6.180
   76POPC   NC3 1394   0.925   7.375   8.104
   76POPC   PO4 1395   0.397   7.715   8.349
   76POPC   GL1 1396   0.537   7.627   7.848
   76POPC   GL2 1397   0.408   7.328   7.696
   76POPC   C1A 1398   0.517   7.662   7.355
   76POPC   D2A 1399   0.307   7.523   7.010
   76POPC   C3A 1400   0.509   7.633   6.643
   76POPC   C4A 1401   0.456   7.522   6.244
   76POPC   C1B 1402   0.521   7.117   7.346
   76POPC   C2B 1403   0.460   7.002   6.948
   76POPC   C3B 1404   0.396   7.131   6.572
   76POPC   C4B 1405   0.681   7.061   6.262
   77POPC   NC3 1406   2.061   4.452   7.993
   77POPC   PO4 1407   1.517   4.020   8.067
   77POPC   GL1 1408   1.662   4.214   7.672
   77POPC   GL2 1409   1.998   4.249   7.530
   77POPC   C1A 1410   1.600   4.359   7.228
   77POPC   D2A 1411   1.768   4.092   6.887
   77POPC   C3A 1412   1.609   4.136   6.449
   77POPC   C4A 1413   1.697   4.508   6.192
   77POPC   C1B 1414   2.206   3.997   7.185
   77POPC   C2B 1415   2.315   4.082   6.759
   77POPC   C3B 1416   2.113   4.336   6.434
   77POPC   C4B 1417   2.225   4.723   6.190
   78POPC   NC3 1418   7.127  10.250   8.013
   78POPC   PO4 1419   7.570  10.719   8.068
   78POPC   GL1 1420   7.488  10.483   7.658
   78POPC   GL2 1421   7.544  10.151   7.586
   78POPC   C1A 1422   7.326  10.642   7.233
   78POPC   D2A 1423   7.092  10.639   6.828
   78POPC   C3A 1424   7.408  10.528   6.525
   78POPC   C4A 1425   7.627  10.798   6.262
   78POPC   C1B 1426   7.180  10.169   7.325
   78POPC   C2B 1427   7.273  10.193   6.914
   78POPC   C3B 1428   7.213  10.055   6.500
   78POPC   C4B 1429   7.081  10.168   6.134
   79POPC   NC3 1430   1.994   1.119   8.069
   79POPC   PO4 1431   2.275   1.593   7.819
   79POPC   GL1 1432   2.050   1.327   7.570
   79POPC   GL2 1433   1.712   1.323   7.684
   79POPC   C1A 1434   2.143   1.136   7.167
   79POPC   D2A 1435   2.318   0.943   6.780
   79POPC   C3A 1436   2.119   1.176   6.422
   79POPC   C4A 1437   2.237   1.467   6.104
   79POPC   C1B 1438   1.624   1.127   7.290
   79POPC   C2B 1439   1.526   1.292   6.892
   79POPC   C3B 1440   1.561   1.140   6.494
   79POPC   C4B 1441   1.698   1.025   6.126
   80POPC   NC3 1442  10.408   9.099   8.182
   80POPC   PO4 1443  10.642   9.703   8.273
   80POPC   GL1 1444  10.564   9.693   7.794
   80POPC   GL2 1445  10.201   9.764   7.701
   80POPC   C1A 1446  10.491   9.529   7.328
   80POPC   D2A 1447  10.304   9.629   6.898
   80POPC   C3A 1448  10.371   9.579   6.443
   80POPC   C4A 1449  10.601   9.892   6.208
   80POPC   C1B 1450  10.165   9.963   7.283
   80POPC   C2B 1451   9.965  10.026   6.851
   80POPC   C3B 1452  10.138  10.075   6.397
   80POPC   C4B 1453  10.168   9.887   5.938
   81POPC   NC3 1454   1.817   3.673   8.006
   81POPC   PO4 1455   2.400   4.003   7.991
   81POPC   GL1 1456   2.167   3.782   7.647
   81POPC   GL2 1457   2.102   3.442   7.654
   81POPC   C1A 1458   1.800   3.723   7.331
   81POPC   D2A 1459   1.763   3.560   6.895
   81POPC   C3A 1460   1.980   3.777   6.543
   81POPC   C4A 1461   2.324   3.889   6.276
   81POPC   C1B 1462   2.016   3.239   7.256
   81POPC   C2B 1463   1.977   3.048   6.856
   81POPC   C3B 1464   1.973   3.267   6.482
   81POPC   C4B 1465   1.779   3.533   6.159
   82POPC   NC3 1466  10.323   2.132   8.035
   82POPC   PO4 1467   9.828   1.695   7.961
   82POPC   GL1 1468   9.714   1.719   7.579
   82POPC   GL2 1469   9.336   1.578   7.529
   82POPC   C1A 1470   9.930   1.978   7.274
   82POPC   D2A 1471  10.097   1.866   6.875
   82POPC   C3A 1472   9.841   1.848   6.474
   82POPC   C4A 1473   9.928   1.681   6.091
   82POPC   C1B 1474   9.447   1.845   7.184
   82POPC   C2B 1475   9.663   2.109   6.860
   82POPC   C3B 1476   9.596   2.349   6.468
   82POPC   C4B 1477   9.391   2.364   6.045
   83POPC   NC3 1478   0.812   5.685   8.170
   83POPC   PO4 1479   0.185   5.855   8.224
   83POPC   GL1 1480   0.223   5.949   7.764
   83POPC   GL2 1481   0.587   5.982   7.737
   83POPC   C1A 1482   0.206   5.749   7.333
   83POPC   D2A 1483   0.532   5.569   7.057
   83POPC   C3A 1484   0.460   5.585   6.606
   83POPC   C4A 1485   0.736   5.660   6.271
   83POPC   C1B 1486   0.540   6.121   7.298
   83POPC   C2B 1487   0.381   6.043   6.874
   83POPC   C3B 1488   0.437   6.063   6.411
   83POPC   C4B 1489   0.121   5.812   6.219
   84POPC   NC3 1490  10.353  10.094   8.097
   84POPC   PO4 1491  10.026  10.749   8.074
   84POPC   GL1 1492  10.184  10.437   7.712
   84POPC   GL2 1493  10.491  10.187   7.627
   84POPC   C1A 1494  10.309  10.504   7.273
   84POPC   D2A 1495  10.246  10.793   6.940
   84POPC   C3A 1496  10.270  10.620   6.549
   84POPC   C4A 1497  10.214  10.754   6.128
   84POPC   C1B 1498  10.820  10.399   7.404
   84POPC   C2B 1499  10.794  10.688   7.060
   84POPC   C3B 1500  10.828  10.682   6.611
   84POPC   C4B 1501  10.636  10.459   6.238
   85POPC   NC3 1502   4.413   0.459   7.873
   85POPC   PO4 1503   4.012  11.482   8.092
   85POPC   GL1 1504   3.940   0.197   7.662
   85POPC   GL2 1505   3.996   0.550   7.612
   85POPC   C1A 1506   4.025   0.270   7.183
   85POPC   D2A 1507   3.922   0.509   6.789
   85POPC   C3A 1508   4.037   0.315   6.380
   85POPC   C4A 1509   4.144   0.381   5.956
   85POPC   C1B 1510   4.336   0.669   7.291
   85POPC   C2B 1511   4.420   0.519   6.922
   85POPC   C3B 1512   4.398   0.655   6.520
   85POPC   C4B 1513   4.603   0.546   6.180
   86POPC   NC3 1514   1.952   1.817   8.068
   86POPC   PO4 1515   1.994   2.483   7.839
   86POPC   GL1 1516   2.082   2.223   7.568
   86POPC   GL2 1517   1.960   1.876   7.546
   86POPC   C1A 1518   2.112   2.317   7.151
   86POPC   D2A 1519   1.986   2.044   6.836
   86POPC   C3A 1520   2.082   2.234   6.436
   86POPC   C4A 1521   1.861   2.443   6.125
   86POPC   C1B 1522   1.820   1.620   7.203
   86POPC   C2B 1523   1.968   1.507   6.784
   86POPC   C3B 1524   1.806   1.592   6.365
   86POPC   C4B 1525   1.923   1.897   6.048
   87POPC   NC3 1526   9.577   3.697   8.066
   87POPC   PO4 1527   9.855   3.152   8.121
   87POPC   GL1 1528   9.787   3.283   7.675
   87POPC   GL2 1529   9.510   3.107   7.697
   87POPC   C1A 1530   9.874   3.361   7.190
   87POPC   D2A 1531   9.830   3.731   6.854
   87POPC   C3A 1532   9.815   3.543   6.437
   87POPC   C4A 1533   9.818   3.127   6.489
   87POPC   C1B 1534   9.397   3.202   7.295
   87POPC   C2B 1535   9.439   3.413   6.893
   87POPC   C3B 1536   9.327   3.285   6.500
   87POPC   C4B 1537   9.336   3.467   6.131
   88POPC   NC3 1538   8.830   9.039   8.149
   88POPC   PO4 1539   9.231   8.471   8.054
   88POPC   GL1 1540   8.928   8.700   7.733
   88POPC   GL2 1541   8.890   9.077   7.654
   88POPC   C1A 1542   8.694   8.768   7.327
   88POPC   D2A 1543   8.846   8.847   6.901
   88POPC   C3A 1544   8.688   8.672   6.521
   88POPC   C4A 1545   8.430   8.815   6.167
   88POPC   C1B 1546   8.997   9.230   7.222
   88POPC   C2B 1547   8.786   9.327   6.794
   88POPC   C3B 1548   8.829   9.162   6.334
   88POPC   C4B 1549   9.157   9.103   5.971
   89POPC   NC3 1550   2.658   1.364   8.023
   89POPC   PO4 1551   2.295   0.771   8.113
   89POPC   GL1 1552   2.439   0.994   7.669
   89POPC   GL2 1553   2.618   1.332   7.535
   89POPC   C1A 1554   2.658   0.944   7.229
   89POPC   D2A 1555   2.861   0.857   6.829
   89POPC   C3A 1556   2.693   0.945   6.424
   89POPC   C4A 1557   2.398   0.855   6.156
   89POPC   C1B 1558   3.052   1.389   7.364
   89POPC   C2B 1559   3.140   1.301   6.922
   89POPC   C3B 1560   3.079   1.258   6.492
   89POPC   C4B 1561   2.721   1.445   6.255
   90POPC   NC3 1562   9.625   8.231   8.094
   90POPC   PO4 1563   9.436   7.673   8.049
   90POPC   GL1 1564   9.325   8.060   7.704
   90POPC   GL2 1565   9.550   8.364   7.636
   90POPC   C1A 1566   9.283   8.258   7.258
   90POPC   D2A 1567   9.464   8.094   6.934
   90POPC   C3A 1568   9.538   8.197   6.570
   90POPC   C4A 1569   9.447   7.973   6.214
   90POPC   C1B 1570   9.734   7.996   7.341
   90POPC   C2B 1571   9.892   7.825   6.891
   90POPC   C3B 1572   9.940   7.922   6.407
   90POPC   C4B 1573   9.832   8.354   6.194
   91POPC   NC3 1574   6.706   1.650   8.003
   91POPC   PO4 1575   7.050   2.218   7.933
   91POPC   GL1 1576   6.983   1.891   7.606
   91POPC   GL2 1577   6.594   1.825   7.555
   91POPC   C1A 1578   6.887   1.854   7.161
   91POPC   D2A 1579   6.763   2.080   6.808
   91POPC   C3A 1580   6.865   1.815   6.498
   91POPC   C4A 1581   6.734   1.681   6.165
   91POPC   C1B 1582   6.229   1.776   7.282
   91POPC   C2B 1583   6.133   1.940   6.883
   91POPC   C3B 1584   6.350   1.960   6.505
   91POPC   C4B 1585   6.204   2.288   6.240
   92POPC   NC3 1586   6.279   3.405   8.278
   92POPC   PO4 1587   6.597   2.993   8.129
   92POPC   GL1 1588   6.448   3.253   7.746
   92POPC   GL2 1589   6.490   3.599   7.832
   92POPC   C1A 1590   6.392   3.225   7.246
   92POPC   D2A 1591   6.621   3.221   6.827
   92POPC   C3A 1592   6.403   3.258   6.417
   92POPC   C4A 1593   6.459   3.188   5.960
   92POPC   C1B 1594   6.646   3.636   7.411
   92POPC   C2B 1595   6.460   3.683   6.991
   92POPC   C3B 1596   6.637   3.692   6.575
   92POPC   C4B 1597   6.511   3.691   6.134
   93POPC   NC3 1598   8.111   1.366   8.176
   93POPC   PO4 1599   7.788   0.780   7.987
   93POPC   GL1 1600   7.933   1.057   7.619
   93POPC   GL2 1601   8.254   1.241   7.636
   93POPC   C1A 1602   7.948   1.318   7.207
   93POPC   D2A 1603   7.648   1.358   6.836
   93POPC   C3A 1604   7.862   1.145   6.489
   93POPC   C4A 1605   7.946   1.113   6.022
   93POPC   C1B 1606   8.287   0.858   7.310
   93POPC   C2B 1607   8.347   0.775   6.835
   93POPC   C3B 1608   8.310   0.916   6.385
   93POPC   C4B 1609   8.312   1.375   6.281
   94POPC   NC3 1610   6.418  10.736   8.102
   94POPC   PO4 1611   6.575  10.039   8.116
   94POPC   GL1 1612   6.530  10.341   7.779
   94POPC   GL2 1613   6.841  10.388   7.622
   94POPC   C1A 1614   6.393  10.559   7.390
   94POPC   D2A 1615   6.515  10.566   6.909
   94POPC   C3A 1616   6.251  10.688   6.535
   94POPC   C4A 1617   6.245  10.624   6.052
   94POPC   C1B 1618   6.634  10.116   7.317
   94POPC   C2B 1619   6.792  10.050   6.910
   94POPC   C3B 1620   6.786  10.311   6.554
   94POPC   C4B 1621   6.481  10.218   6.297
   95POPC   NC3 1622   6.867   2.637   8.026
   95POPC   PO4 1623   7.549   2.694   8.192
   95POPC   GL1 1624   7.338   2.731   7.760
   95POPC   GL2 1625   7.374   2.441   7.594
   95POPC   C1A 1626   7.039   2.715   7.350
   95POPC   D2A 1627   7.076   2.476   6.921
   95POPC   C3A 1628   7.062   2.704   6.487
   95POPC   C4A 1629   6.909   3.085   6.222
   95POPC   C1B 1630   7.504   2.585   7.193
   95POPC   C2B 1631   7.570   2.355   6.834
   95POPC   C3B 1632   7.600   2.515   6.443
   95POPC   C4B 1633   7.445   2.846   6.159
   96POPC   NC3 1634  11.113   2.089   8.093
   96POPC   PO4 1635  11.418   1.450   8.011
   96POPC   GL1 1636  11.291   1.773   7.725
   96POPC   GL2 1637  11.345   1.543   7.469
   96POPC   C1A 1638  11.071   1.968   7.361
   96POPC   D2A 1639  11.064   1.779   6.948
   96POPC   C3A 1640  11.130   2.034   6.562
   96POPC   C4A 1641  11.159   1.847   6.155
   96POPC   C1B 1642   0.037   1.813   7.177
   96POPC   C2B 1643   0.026   1.778   6.757
   96POPC   C3B 1644   0.136   1.916   6.400
   96POPC   C4B 1645   0.254   1.536   6.277
   97POPC   NC3 1646   5.252   0.770   8.133
   97POPC   PO4 1647   5.076   1.352   8.046
   97POPC   GL1 1648   4.974   1.121   7.684
   97POPC   GL2 1649   5.247   0.931   7.589
   97POPC   C1A 1650   4.757   1.079   7.277
   97POPC   D2A 1651   4.673   0.947   6.847
   97POPC   C3A 1652   4.925   0.834   6.507
   97POPC   C4A 1653   4.753   1.045   6.162
   97POPC   C1B 1654   5.226   1.290   7.287
   97POPC   C2B 1655   5.049   1.352   6.883
   97POPC   C3B 1656   5.050   1.332   6.449
   97POPC   C4B 1657   5.304   1.418   6.096
   98POPC   NC3 1658   0.308   3.644   7.852
   98POPC   PO4 1659   0.329   3.051   8.241
   98POPC   GL1 1660   0.580   3.090   7.749
   98POPC   GL2 1661   0.787   3.386   7.702
   98POPC   C1A 1662   0.479   3.156   7.246
   98POPC   D2A 1663   0.072   3.226   6.973
   98POPC   C3A 1664   0.060   3.105   6.525
   98POPC   C4A 1665   0.387   3.213   6.178
   98POPC   C1B 1666   0.758   3.582   7.262
   98POPC   C2B 1667   0.563   3.538   6.818
   98POPC   C3B 1668   0.639   3.648   6.353
   98POPC   C4B 1669   0.608   3.630   5.869
   99POPC   NC3 1670  10.272   6.564   7.963
   99POPC   PO4 1671  10.755   7.027   7.741
   99POPC   GL1 1672  10.420   6.868   7.577
   99POPC   GL2 1673  10.607   6.547   7.582
   99POPC   C1A 1674  10.394   6.840   7.140
   99POPC   D2A 1675  10.434   6.682   6.718
   99POPC   C3A 1676  10.580   6.966   6.422
   99POPC   C4A 1677  10.320   7.071   6.113
   99POPC   C1B 1678  10.464   6.334   7.235
   99POPC   C2B 1679  10.314   6.201   6.850
   99POPC   C3B 1680  10.378   6.270   6.412
   99POPC   C4B 1681  10.209   6.152   6.032
  100POPC   NC3 1682  10.543   5.813   8.083
  100POPC   PO4 1683   9.954   6.184   7.972
  100POPC   GL1 1684  10.315   6.107   7.697
  100POPC   GL2 1685  10.209   5.772   7.681
  100POPC   C1A 1686  10.600   5.862   7.387
  100POPC   D2A 1687  10.785   5.639   7.047
  100POPC   C3A 1688  10.703   5.883   6.690
  100POPC   C4A 1689  10.694   5.880   6.264
  100POPC   C1B 1690  10.119   5.909   7.256
  100POPC   C2B 1691  10.253   5.703   6.879
  100POPC   C3B 1692  10.224   5.770   6.438
  100POPC   C4B 1693  10.299   5.657   5.990
  101POPC   NC3 1694  11.445   2.873   8.044
  101POPC   PO4 1695  10.836   3.141   8.317
  101POPC   GL1 1696  10.968   2.859   7.823
  101POPC   GL2 1697  11.260   2.860   7.585
  101POPC   C1A 1698  10.876   2.977   7.312
  101POPC   D2A 1699  11.169   2.880   6.996
  101POPC   C3A 1700  11.029   2.622   6.701
  101POPC   C4A 1701  11.094   2.676   6.319
  101POPC   C1B 1702  11.205   2.481   7.339
  101POPC   C2B 1703  11.363   2.281   6.965
  101POPC   C3B 1704   0.024   2.416   6.567
  101POPC   C4B 1705  11.379   2.295   6.160
  102POPC   NC3 1706   3.648   2.944   8.034
  102POPC   PO4 1707   3.157   2.454   8.027
  102POPC   GL1 1708   3.329   2.706   7.702
  102POPC   GL2 1709   3.673   2.565   7.645
  102POPC   C1A 1710   3.271   2.899   7.296
  102POPC   D2A 1711   3.142   2.779   6.864
  102POPC   C3A 1712   3.308   2.954   6.462
  102POPC   C4A 1713   3.303   2.874   5.990
  102POPC   C1B 1714   3.567   2.448   7.202
  102POPC   C2B 1715   3.643   2.597   6.757
  102POPC   C3B 1716   3.669   2.601   6.301
  102POPC   C4B 1717   3.611   2.454   5.885
  103POPC   NC3 1718   9.544   7.234   8.106
  103POPC   PO4 1719  10.176   7.002   8.090
  103POPC   GL1 1720   9.927   7.091   7.725
  103POPC   GL2 1721   9.833   7.454   7.698
  103POPC   C1A 1722   9.794   6.980   7.289
  103POPC   D2A 1723   9.735   7.220   6.877
  103POPC   C3A 1724   9.615   7.030   6.438
  103POPC   C4A 1725   9.764   6.964   5.995
  103POPC   C1B 1726   9.498   7.551   7.390
  103POPC   C2B 1727   9.405   7.597   6.961
  103POPC   C3B 1728   9.542   7.600   6.552
  103POPC   C4B 1729   9.294   7.405   6.252
  104POPC   NC3 1730   5.443  10.365   8.430
  104POPC   PO4 1731   5.917   9.761   8.205
  104POPC   GL1 1732   5.705   9.951   7.846
  104POPC   GL2 1733   5.920   9.721   7.674
  104POPC   C1A 1734   5.580   9.960   7.397
  104POPC   D2A 1735   5.859   9.894   7.010
  104POPC   C3A 1736   5.702   9.903   6.557
  104POPC   C4A 1737   5.522   9.786   6.114
  104POPC   C1B 1738   5.746   9.488   7.296
  104POPC   C2B 1739   5.820   9.428   6.846
  104POPC   C3B 1740   5.718   9.409   6.414
  104POPC   C4B 1741   6.035   9.318   6.111
  105POPC   NC3 1742   1.982  11.396   8.149
  105POPC   PO4 1743   1.738  10.821   8.062
  105POPC   GL1 1744   1.767  11.122   7.714
  105POPC   GL2 1745   2.085  11.303   7.664
  105POPC   C1A 1746   1.873  11.079   7.280
  105POPC   D2A 1747   1.703  11.101   6.907
  105POPC   C3A 1748   1.958  11.072   6.545
  105POPC   C4A 1749   1.935  10.888   6.151
  105POPC   C1B 1750   2.288  11.443   7.289
  105POPC   C2B 1751   2.124  11.401   6.884
  105POPC   C3B 1752   2.341  11.435   6.482
  105POPC   C4B 1753   2.110  11.363   6.121
  106POPC   NC3 1754   4.104  10.053   7.907
  106POPC   PO4 1755   4.692   9.528   7.992
  106POPC   GL1 1756   4.469   9.754   7.723
  106POPC   GL2 1757   4.192   9.553   7.667
  106POPC   C1A 1758   4.455   9.836   7.291
  106POPC   D2A 1759   4.312   9.641   6.894
  106POPC   C3A 1760   4.361   9.921   6.536
  106POPC   C4A 1761   4.621   9.896   6.196
  106POPC   C1B 1762   3.950   9.622   7.287
  106POPC   C2B 1763   3.830   9.446   6.872
  106POPC   C3B 1764   3.934   9.622   6.457
  106POPC   C4B 1765   4.226   9.599   6.107
  107POPC   NC3 1766   2.656   9.528   8.033
  107POPC   PO4 1767   2.288  10.015   7.843
  107POPC   GL1 1768   2.660   9.813   7.609
  107POPC   GL2 1769   3.024   9.669   7.683
  107POPC   C1A 1770   2.803   9.890   7.225
  107POPC   D2A 1771   2.759   9.956   6.806
  107POPC   C3A 1772   2.421   9.842   6.646
  107POPC   C4A 1773   2.573   9.645   6.325
  107POPC   C1B 1774   2.969   9.405   7.303
  107POPC   C2B 1775   2.840   9.462   6.884
  107POPC   C3B 1776   3.037   9.555   6.504
  107POPC   C4B 1777   2.919   9.334   6.096
  108POPC   NC3 1778   6.870   8.737   8.013
  108POPC   PO4 1779   7.555   8.504   8.052
  108POPC   GL1 1780   7.525   8.820   7.740
  108POPC   GL2 1781   7.220   8.992   7.723
  108POPC   C1A 1782   7.485   8.836   7.290
  108POPC   D2A 1783   7.381   8.704   6.866
  108POPC   C3A 1784   7.623   8.793   6.518
  108POPC   C4A 1785   7.419   8.634   6.202
  108POPC   C1B 1786   7.130   9.234   7.351
  108POPC   C2B 1787   7.302   9.208   6.928
  108POPC   C3B 1788   7.167   9.031   6.527
  108POPC   C4B 1789   7.287   9.174   6.124
  109POPC   NC3 1790  10.510   2.887   8.065
  109POPC   PO4 1791  10.737   2.252   7.873
  109POPC   GL1 1792  10.489   2.521   7.640
  109POPC   GL2 1793  10.153   2.405   7.504
  109POPC   C1A 1794  10.703   2.510   7.251
  109POPC   D2A 1795  10.847   2.235   6.963
  109POPC   C3A 1796  10.663   2.259   6.552
  109POPC   C4A 1797  10.451   2.581   6.363
  109POPC   C1B 1798  10.281   2.782   7.235
  109POPC   C2B 1799  10.587   2.840   6.887
  109POPC   C3B 1800  10.650   3.014   6.502
  109POPC   C4B 1801  10.282   3.103   6.236
  110POPC   NC3 1802   9.655   8.783   8.051
  110POPC   PO4 1803   9.305   9.289   7.857
  110POPC   GL1 1804   9.386   8.893   7.626
  110POPC   GL2 1805   9.727   8.826   7.533
  110POPC   C1A 1806   9.286   8.776   7.201
  110POPC   D2A 1807   9.320   9.030   6.820
  110POPC   C3A 1808   9.204   8.847   6.444
  110POPC   C4A 1809   9.416   8.674   6.105
  110POPC   C1B 1810   9.753   8.509   7.209
  110POPC   C2B 1811   9.906   8.462   6.812
  110POPC   C3B 1812   9.704   8.706   6.530
  110POPC   C4B 1813   9.905   8.848   6.168
  111POPC   NC3 1814   3.109  10.421   8.057
  111POPC   PO4 1815   2.549  10.750   8.048
  111POPC   GL1 1816   2.811  10.672   7.717
  111POPC   GL2 1817   2.738  10.313   7.725
  111POPC   C1A 1818   3.012  10.729   7.339
  111POPC   D2A 1819   2.760  10.785   6.966
  111POPC   C3A 1820   2.974  10.732   6.592
  111POPC   C4A 1821   2.803  10.625   6.218
  111POPC   C1B 1822   2.613  10.385   7.315
  111POPC   C2B 1823   2.386  10.415   6.954
  111POPC   C3B 1824   2.553  10.380   6.589
  111POPC   C4B 1825   2.570  10.137   6.234
  112POPC   NC3 1826   7.833  11.137   7.983
  112POPC   PO4 1827   8.459  10.900   7.954
  112POPC   GL1 1828   8.227  11.159   7.631
  112POPC   GL2 1829   7.919  11.414   7.585
  112POPC   C1A 1830   8.231  11.001   7.214
  112POPC   D2A 1831   8.435  10.772   6.912
  112POPC   C3A 1832   8.457  10.986   6.582
  112POPC   C4A 1833   8.491  11.097   6.198
  112POPC   C1B 1834   8.079  11.496   7.237
  112POPC   C2B 1835   8.019  11.318   6.872
  112POPC   C3B 1836   8.159  11.389   6.478
  112POPC   C4B 1837   7.993  11.148   6.144
  113POPC   NC3 1838   2.420   2.332   7.967
  113POPC   PO4 1839   2.503   1.736   8.268
  113POPC   GL1 1840   2.642   1.899   7.801
  113POPC   GL2 1841   2.887   2.081   7.816
  113POPC   C1A 1842   2.439   1.955   7.342
  113POPC   D2A 1843   2.493   2.016   6.914
  113POPC   C3A 1844   2.345   1.787   6.525
  113POPC   C4A 1845   2.433   1.930   6.105
  113POPC   C1B 1846   2.932   1.943   7.375
  113POPC   C2B 1847   3.031   1.991   6.932
  113POPC   C3B 1848   3.109   2.201   6.549
  113POPC   C4B 1849   2.933   1.968   6.201
  114POPC   NC3 1850   4.364   9.204   8.030
  114POPC   PO4 1851   3.747   9.209   8.058
  114POPC   GL1 1852   3.855   9.155   7.626
  114POPC   GL2 1853   4.087   8.903   7.681
  114POPC   C1A 1854   4.106   9.150   7.219
  114POPC   D2A 1855   4.096   8.969   6.793
  114POPC   C3A 1856   4.210   9.174   6.390
  114POPC   C4A 1857   4.281   9.129   5.923
  114POPC   C1B 1858   4.371   8.728   7.367
  114POPC   C2B 1859   4.562   8.742   6.960
  114POPC   C3B 1860   4.569   8.838   6.512
  114POPC   C4B 1861   4.308   8.685   6.161
  115POPC   NC3 1862  10.996   1.364   7.819
  115POPC   PO4 1863  10.777   1.750   8.272
  115POPC   GL1 1864  10.660   1.748   7.762
  115POPC   GL2 1865  10.328   1.864   7.618
  115POPC   C1A 1866  10.666   1.620   7.272
  115POPC   D2A 1867  10.581   1.821   6.828
  115POPC   C3A 1868  10.731   1.718   6.427
  115POPC   C4A 1869  10.672   1.860   5.981
  115POPC   C1B 1870  10.446   2.074   7.257
  115POPC   C2B 1871  10.312   2.349   6.941
  115POPC   C3B 1872  10.106   2.272   6.566
  115POPC   C4B 1873  10.300   1.979   6.293
  116POPC   NC3 1874  10.940   6.729   8.027
  116POPC   PO4 1875  11.465   6.353   7.985
  116POPC   GL1 1876  11.452   6.402   7.621
  116POPC   GL2 1877  11.288   6.730   7.648
  116POPC   C1A 1878   0.021   6.240   7.238
  116POPC   D2A 1879  11.260   6.334   6.880
  116POPC   C3A 1880  11.488   6.214   6.575
  116POPC   C4A 1881   0.055   6.362   6.203
  116POPC   C1B 1882  11.057   6.537   7.333
  116POPC   C2B 1883  10.872   6.673   6.976
  116POPC   C3B 1884  11.021   6.747   6.561
  116POPC   C4B 1885  11.208   6.721   6.164
  117POPC   NC3 1886   2.162  10.452   7.945
  117POPC   PO4 1887   1.575   9.975   8.033
  117POPC   GL1 1888   1.539  10.227   7.645
  117POPC   GL2 1889   1.706  10.547   7.639
  117POPC   C1A 1890   1.684  10.197   7.212
  117POPC   D2A 1891   2.025  10.051   6.928
  117POPC   C3A 1892   2.021  10.101   6.476
  117POPC   C4A 1893   1.812  10.359   6.168
  117POPC   C1B 1894   2.004  10.580   7.300
  117POPC   C2B 1895   1.845  10.581   6.889
  117POPC   C3B 1896   2.059  10.582   6.554
  117POPC   C4B 1897   2.285  10.538   6.179
  118POPC   NC3 1898   2.784   0.521   8.047
  118POPC   PO4 1899   2.243   0.197   7.942
  118POPC   GL1 1900   2.424   0.470   7.683
  118POPC   GL2 1901   2.704   0.262   7.611
  118POPC   C1A 1902   2.397   0.512   7.255
  118POPC   D2A 1903   2.403   0.306   6.887
  118POPC   C3A 1904   2.481   0.491   6.525
  118POPC   C4A 1905   2.306   0.353   6.161
  118POPC   C1B 1906   2.800   0.176   7.195
  118POPC   C2B 1907   2.905   0.303   6.782
  118POPC   C3B 1908   2.869   0.185   6.366
  118POPC   C4B 1909   3.093   0.152   5.992
  119POPC   NC3 1910   2.911  11.032   8.080
  119POPC   PO4 1911   3.049   0.118   8.044
  119POPC   GL1 1912   2.967  11.327   7.676
  119POPC   GL2 1913   2.596  11.228   7.716
  119POPC   C1A 1914   2.817  11.187   7.270
  119POPC   D2A 1915   2.616  11.293   6.898
  119POPC   C3A 1916   2.822  11.216   6.536
  119POPC   C4A 1917   2.945  11.157   6.141
  119POPC   C1B 1918   2.390  10.930   7.401
  119POPC   C2B 1919   2.251  10.910   6.964
  119POPC   C3B 1920   2.448  10.889   6.569
  119POPC   C4B 1921   2.470  11.014   6.166
  120POPC   NC3 1922   1.530  10.423   8.134
  120POPC   PO4 1923   0.938  10.741   8.120
  120POPC   GL1 1924   1.204  10.640   7.786
  120POPC   GL2 1925   0.999  10.359   7.717
  120POPC   C1A 1926   1.123  10.714   7.349
  120POPC   D2A 1927   0.859  10.553   6.999
  120POPC   C3A 1928   1.093  10.616   6.596
  120POPC   C4A 1929   1.535  10.681   6.433
  120POPC   C1B 1930   1.128  10.200   7.321
  120POPC   C2B 1931   1.266  10.252   6.928
  120POPC   C3B 1932   1.550  10.187   6.644
  120POPC   C4B 1933   1.335  10.187   6.277
  121POPC   NC3 1934   9.807   1.235   8.114
  121POPC   PO4 1935   9.177   1.372   7.985
  121POPC   GL1 1936   9.459   1.096   7.704
  121POPC   GL2 1937   9.796   1.203   7.607
  121POPC   C1A 1938   9.573   0.842   7.324
  121POPC   D2A 1939   9.578   0.979   6.890
  121POPC   C3A 1940   9.313   1.041   6.574
  121POPC   C4A 1941   9.531   0.925   6.215
  121POPC   C1B 1942   9.672   1.360   7.220
  121POPC   C2B 1943   9.783   1.472   6.834
  121POPC   C3B 1944   9.699   1.360   6.433
  121POPC   C4B 1945   9.991   1.168   6.149
  122POPC   NC3 1946   9.882   0.262   8.051
  122POPC   PO4 1947   9.555   0.817   8.125
  122POPC   GL1 1948   9.801   0.713   7.791
  122POPC   GL2 1949   9.557   0.475   7.715
  122POPC   C1A 1950   9.991   0.525   7.424
  122POPC   D2A 1951  10.051   0.323   7.024
  122POPC   C3A 1952   9.823   0.535   6.700
  122POPC   C4A 1953   9.989   0.683   6.315
  122POPC   C1B 1954   9.434   0.323   7.343
  122POPC   C2B 1955   9.346   0.501   6.969
  122POPC   C3B 1956   9.321   0.316   6.572
  122POPC   C4B 1957   9.589   0.403   6.241
  123POPC   NC3 1958   5.078  11.403   8.371
  123POPC   PO4 1959   5.590   0.029   7.902
  123POPC   GL1 1960   5.358  11.251   7.596
  123POPC   GL2 1961   5.027  11.112   7.756
  123POPC   C1A 1962   5.283  11.349   7.144
  123POPC   D2A 1963   5.226   0.026   6.735
  123POPC   C3A 1964   5.165  11.230   6.416
  123POPC   C4A 1965   5.437  11.023   6.139
  123POPC   C1B 1966   4.825  11.248   7.388
  123POPC   C2B 1967   4.814  11.153   6.957
  123POPC   C3B 1968   4.716  11.358   6.614
  123POPC   C4B 1969   4.682  11.355   6.196
  124POPC   NC3 1970   0.426   9.109   8.321
  124POPC   PO4 1971   0.610   8.569   8.004
  124POPC   GL1 1972   0.511   8.820   7.648
  124POPC   GL2 1973   0.167   8.949   7.672
  124POPC   C1A 1974   0.560   8.904   7.208
  124POPC   D2A 1975   0.366   9.054   6.849
  124POPC   C3A 1976   0.640   8.895   6.550
  124POPC   C4A 1977   0.671   8.516   6.349
  124POPC   C1B 1978   0.140   8.648   7.307
  124POPC   C2B 1979   0.193   8.542   6.863
  124POPC   C3B 1980   0.198   8.644   6.416
  124POPC   C4B 1981   0.328   9.046   6.165
  125POPC   NC3 1982   4.190   0.359   8.327
  125POPC   PO4 1983   3.582   0.552   8.222
  125POPC   GL1 1984   3.498   0.511   7.752
  125POPC   GL2 1985   3.273   0.248   7.601
  125POPC   C1A 1986   3.597   0.505   7.283
  125POPC   D2A 1987   3.562   0.180   6.933
  125POPC   C3A 1988   3.527   0.335   6.482
  125POPC   C4A 1989   3.623   0.215   6.051
  125POPC   C1B 1990   3.097   0.565   7.292
  125POPC   C2B 1991   3.300   0.624   6.860
  125POPC   C3B 1992   3.115   0.637   6.418
  125POPC   C4B 1993   3.301   0.623   5.999
  126POPC   NC3 1994   0.905   8.942   7.984
  126POPC   PO4 1995   1.455   8.636   8.381
  126POPC   GL1 1996   1.442   8.744   7.866
  126POPC   GL2 1997   1.155   8.570   7.711
  126POPC   C1A 1998   1.518   8.788   7.367
  126POPC   D2A 1999   1.682   8.801   6.917
  126POPC   C3A 2000   1.744   9.092   6.588
  126POPC   C4A 2001   1.546   9.030   6.190
  126POPC   C1B 2002   1.012   8.700   7.320
  126POPC   C2B 2003   1.001   8.973   6.964
  126POPC   C3B 2004   1.205   8.928   6.610
  126POPC   C4B 2005   1.082   8.818   6.253
  127POPC   NC3 2006   9.664  10.518   7.873
  127POPC   PO4 2007   9.174  10.233   8.162
  127POPC   GL1 2008   9.373  10.140   7.665
  127POPC   GL2 2009   9.762  10.199   7.504
  127POPC   C1A 2010   9.408  10.186   7.167
  127POPC   D2A 2011   9.440   9.993   6.769
  127POPC   C3A 2012   9.409  10.270   6.402
  127POPC   C4A 2013   9.388  10.192   5.958
  127POPC   C1B 2014   9.798  10.536   7.193
  127POPC   C2B 2015   9.741  10.502   6.753
  127POPC   C3B 2016   9.814  10.542   6.329
  127POPC   C4B 2017   9.885  10.305   5.997
  128POPC   NC3 2018   3.401   8.954   7.902
  128POPC   PO4 2019   2.937   8.457   7.848
  128POPC   GL1 2020   3.245   8.656   7.514
  128POPC   GL2 2021   3.630   8.673   7.543
  128POPC   C1A 2022   3.133   8.785   7.088
  128POPC   D2A 2023   3.202   8.481   6.748
  128POPC   C3A 2024   3.238   8.689   6.405
  128POPC   C4A 2025   3.076   9.058   6.512
  128POPC   C1B 2026   3.614   8.971   7.200
  128POPC   C2B 2027   3.554   8.904   6.767
  128POPC   C3B 2028   3.766   8.865   6.391
  128POPC   C4B 2029   3.825   8.777   5.976
  129POPC   NC3 2030  10.462   0.733   8.324
  129POPC   PO4 2031  10.329   0.199   7.988
  129POPC   GL1 2032  10.488   0.307   7.619
  129POPC   GL2 2033  10.557   0.644   7.668
  129POPC   C1A 2034  10.493   0.100   7.198
  129POPC   D2A 2035  10.483   0.118   6.751
  129POPC   C3A 2036  10.132   0.156   6.486
  129POPC   C4A 2037  10.198   0.279   6.050
  129POPC   C1B 2038  10.443   0.609   7.209
  129POPC   C2B 2039  10.341   0.655   6.786
  129POPC   C3B 2040  10.464   0.530   6.421
  129POPC   C4B 2041  10.765   0.635   6.189
  130POPC   NC3 2042   2.472   7.228   8.086
  130POPC   PO4 2043   2.853   7.612   7.934
  130POPC   GL1 2044   2.572   7.395   7.604
  130POPC   GL2 2045   2.352   7.064   7.602
  130POPC   C1A 2046   2.618   7.536   7.176
  130POPC   D2A 2047   2.641   7.989   7.013
  130POPC   C3A 2048   2.678   7.967   6.570
  130POPC   C4A 2049   2.708   7.549   6.389
  130POPC   C1B 2050   2.319   7.086   7.130
  130POPC   C2B 2051   2.537   7.183   6.747
  130POPC   C3B 2052   2.625   7.029   6.323
  130POPC   C4B 2053   2.630   6.915   5.848
  131POPC   NC3 2054   1.122   1.871   8.070
  131POPC   PO4 2055   1.687   2.293   8.223
  131POPC   GL1 2056   1.577   2.091   7.803
  131POPC   GL2 2057   1.241   2.205   7.695
  131POPC   C1A 2058   1.604   2.174   7.324
  131POPC   D2A 2059   1.380   2.174   6.925
  131POPC   C3A 2060   1.569   2.010   6.554
  131POPC   C4A 2061   1.469   2.095   6.152
  131POPC   C1B 2062   1.049   2.008   7.326
  131POPC   C2B 2063   0.899   1.971   6.901
  131POPC   C3B 2064   1.039   2.060   6.477
  131POPC   C4B 2065   1.046   1.847   6.062
  132POPC   NC3 2066   5.158   9.598   8.009
  132POPC   PO4 2067   5.096  10.217   8.138
  132POPC   GL1 2068   4.957  10.024   7.690
  132POPC   GL2 2069   4.940   9.668   7.557
  132POPC   C1A 2070   5.105   9.973   7.208
  132POPC   D2A 2071   5.371   9.751   6.944
  132POPC   C3A 2072   5.075   9.591   6.680
  132POPC   C4A 2073   5.079   9.626   6.290
  132POPC   C1B 2074   5.023   9.422   7.174
  132POPC   C2B 2075   4.871   9.138   6.829
  132POPC   C3B 2076   5.029   9.104   6.399
  132POPC   C4B 2077   5.167   9.239   5.955
  133POPC   NC3 2078   5.786   1.611   8.045
  133POPC   PO4 2079   5.952   0.932   8.135
  133POPC   GL1 2080   5.993   1.197   7.775
  133POPC   GL2 2081   5.651   1.263   7.668
  133POPC   C1A 2082   6.091   1.283   7.334
  133POPC   D2A 2083   6.042   1.441   6.894
  133POPC   C3A 2084   5.905   1.247   6.521
  133POPC   C4A 2085   6.110   0.967   6.271
  133POPC   C1B 2086   5.663   1.005   7.283
  133POPC   C2B 2087   5.550   1.124   6.888
  133POPC   C3B 2088   5.441   1.010   6.492
  133POPC   C4B 2089   5.622   1.009   6.095
  134POPC   NC3 2090   9.454   9.614   8.149
  134POPC   PO4 2091   9.889  10.093   7.979
  134POPC   GL1 2092   9.682   9.741   7.706
  134POPC   GL2 2093   9.765   9.391   7.671
  134POPC   C1A 2094   9.702   9.736   7.260
  134POPC   D2A 2095   9.827   9.496   6.930
  134POPC   C3A 2096   9.729   9.638   6.537
  134POPC   C4A 2097   9.723   9.874   6.184
  134POPC   C1B 2098   9.572   9.215   7.269
  134POPC   C2B 2099   9.810   8.970   6.964
  134POPC   C3B 2100   9.931   9.161   6.567
  134POPC   C4B 2101   9.556   9.199   6.302
  135POPC   NC3 2102   8.758   1.535   7.872
  135POPC   PO4 2103   8.465   1.041   8.114
  135POPC   GL1 2104   8.661   0.939   7.688
  135POPC   GL2 2105   8.951   1.116   7.629
  135POPC   C1A 2106   8.657   1.187   7.240
  135POPC   D2A 2107   8.868   1.163   6.846
  135POPC   C3A 2108   8.794   1.103   6.415
  135POPC   C4A 2109   8.741   1.312   6.029
  135POPC   C1B 2110   9.192   1.186   7.240
  135POPC   C2B 2111   9.267   1.470   6.881
  135POPC   C3B 2112   8.953   1.588   6.573
  135POPC   C4B 2113   9.179   1.432   6.259
  136POPC   NC3 2114   9.095   0.879   8.095
  136POPC   PO4 2115   8.687   0.342   7.981
  136POPC   GL1 2116   9.028   0.498   7.784
  136POPC   GL2 2117   9.133   0.187   7.757
  136POPC   C1A 2118   9.093   0.701   7.407
  136POPC   D2A 2119   8.801   0.703   7.085
  136POPC   C3A 2120   8.968   0.688   6.678
  136POPC   C4A 2121   9.100   0.670   6.264
  136POPC   C1B 2122   8.923   0.233   7.359
  136POPC   C2B 2123   8.913   0.207   6.940
  136POPC   C3B 2124   8.611   0.352   6.677
  136POPC   C4B 2125   8.700   0.345   6.231
  137POPC   NC3 2126   3.604   1.044   8.083
  137POPC   PO4 2127   2.891   0.963   7.937
  137POPC   GL1 2128   3.257   0.969   7.654
  137POPC   GL2 2129   3.514   1.251   7.618
  137POPC   C1A 2130   3.382   0.981   7.225
  137POPC   D2A 2131   3.627   1.090   6.893
  137POPC   C3A 2132   3.495   0.951   6.512
  137POPC   C4A 2133   3.482   1.164   6.154
  137POPC   C1B 2134   3.776   1.426   7.287
  137POPC   C2B 2135   4.005   1.443   6.862
  137POPC   C3B 2136   3.762   1.412   6.497
  137POPC   C4B 2137   3.695   1.671   6.154
  138POPC   NC3 2138   3.724  10.481   8.266
  138POPC   PO4 2139   4.250  10.666   7.852
  138POPC   GL1 2140   3.845  10.478   7.689
  138POPC   GL2 2141   3.483  10.438   7.729
  138POPC   C1A 2142   3.633  10.473   7.263
  138POPC   D2A 2143   3.505  10.256   6.892
  138POPC   C3A 2144   3.548  10.498   6.534
  138POPC   C4A 2145   3.854  10.728   6.261
  138POPC   C1B 2146   3.159  10.247   7.406
  138POPC   C2B 2147   3.015  10.342   6.967
  138POPC   C3B 2148   3.061  10.238   6.493
  138POPC   C4B 2149   3.286  10.427   6.116
  139POPC   NC3 2150  11.222  10.270   8.504
  139POPC   PO4 2151  10.836  10.164   8.032
  139POPC   GL1 2152  11.205  10.105   7.732
  139POPC   GL2 2153  11.362  10.424   7.701
  139POPC   C1A 2154  11.265  10.139   7.262
  139POPC   D2A 2155  10.917  10.199   6.934
  139POPC   C3A 2156  10.966  10.120   6.480
  139POPC   C4A 2157  10.990  10.190   5.998
  139POPC   C1B 2158  11.268  10.661   7.310
  139POPC   C2B 2159  11.303  10.549   6.881
  139POPC   C3B 2160  11.315  10.490   6.449
  139POPC   C4B 2161  11.422  10.117   6.243
  140POPC   NC3 2162   3.374   2.058   8.093
  140POPC   PO4 2163   3.454   1.499   8.062
  140POPC   GL1 2164   3.316   1.765   7.673
  140POPC   GL2 2165   3.329   2.175   7.596
  140POPC   C1A 2166   3.391   1.782   7.236
  140POPC   D2A 2167   3.513   1.621   6.874
  140POPC   C3A 2168   3.300   1.713   6.493
  140POPC   C4A 2169   3.182   1.551   6.068
  140POPC   C1B 2170   3.735   2.040   7.502
  140POPC   C2B 2171   3.891   1.879   7.103
  140POPC   C3B 2172   3.800   1.946   6.616
  140POPC   C4B 2173   3.514   2.117   6.259
  141POPC   NC3 2174   2.810   3.788   7.982
  141POPC   PO4 2175   3.243   3.231   8.042
  141POPC   GL1 2176   2.985   3.181   7.695
  141POPC   GL2 2177   2.631   3.324   7.688
  141POPC   C1A 2178   3.048   3.384   7.313
  141POPC   D2A 2179   3.263   3.284   6.923
  141POPC   C3A 2180   3.062   3.419   6.545
  141POPC   C4A 2181   2.983   3.239   6.146
  141POPC   C1B 2182   2.459   3.504   7.288
  141POPC   C2B 2183   2.292   3.470   6.847
  141POPC   C3B 2184   2.518   3.440   6.431
  141POPC   C4B 2185   2.820   3.788   6.268
  142POPC   NC3 2186   8.787  10.029   8.018
  142POPC   PO4 2187   9.064   9.423   8.312
  142POPC   GL1 2188   9.086   9.712   7.817
  142POPC   GL2 2189   8.818   9.590   7.624
  142POPC   C1A 2190   9.202   9.755   7.352
  142POPC   D2A 2191   9.318   9.529   6.968
  142POPC   C3A 2192   9.218   9.469   6.559
  142POPC   C4A 2193   9.259   9.795   6.320
  142POPC   C1B 2194   8.736   9.702   7.161
  142POPC   C2B 2195   8.916   9.819   6.780
  142POPC   C3B 2196   8.781   9.683   6.365
  142POPC   C4B 2197   8.473   9.906   6.120
  143POPC   NC3 2198   7.212  10.957   8.259
  143POPC   PO4 2199   7.466  11.398   7.825
  143POPC   GL1 2200   7.484  11.059   7.610
  143POPC   GL2 2201   7.186  10.874   7.659
  143POPC   C1A 2202   7.640  11.225   7.210
  143POPC   D2A 2203   7.566   0.036   6.903
  143POPC   C3A 2204   7.640  11.330   6.522
  143POPC   C4A 2205   7.478  11.289   6.141
  143POPC   C1B 2206   7.148  11.138   7.246
  143POPC   C2B 2207   7.288  11.114   6.854
  143POPC   C3B 2208   7.214  11.006   6.481
  143POPC   C4B 2209   6.985  11.168   6.148
  144POPC   NC3 2210   8.607   2.433   7.995
  144POPC   PO4 2211   9.057   2.923   8.135
  144POPC   GL1 2212   9.134   2.767   7.736
  144POPC   GL2 2213   8.795   2.811   7.682
  144POPC   C1A 2214   9.142   2.741   7.282
  144POPC   D2A 2215   8.869   2.645   6.882
  144POPC   C3A 2216   9.017   2.662   6.453
  144POPC   C4A 2217   9.026   3.022   6.164
  144POPC   C1B 2218   8.630   2.628   7.328
  144POPC   C2B 2219   8.392   2.493   6.964
  144POPC   C3B 2220   8.514   2.512   6.553
  144POPC   C4B 2221   8.569   2.780   6.205
  145POPC   NC3 2222  11.313   1.058   8.288
  145POPC   PO4 2223  10.703   1.040   8.001
  145POPC   GL1 2224  11.023   0.869   7.717
  145POPC   GL2 2225  11.379   1.026   7.692
  145POPC   C1A 2226  10.859   0.883   7.296
  145POPC   D2A 2227  10.710   1.003   6.897
  145POPC   C3A 2228  11.021   0.860   6.603
  145POPC   C4A 2229  11.089   1.013   6.208
  145POPC   C1B 2230  11.315   1.074   7.254
  145POPC   C2B 2231  11.230   1.286   6.862
  145POPC   C3B 2232  11.260   1.446   6.439
  145POPC   C4B 2233  11.391   1.386   5.984
  146POPC   NC3 2234   5.104   0.088   7.895
  146POPC   PO4 2235   4.786   0.700   8.008
  146POPC   GL1 2236   4.767   0.674   7.586
  146POPC   GL2 2237   5.024   0.475   7.612
  146POPC   C1A 2238   4.862   0.583   7.164
  146POPC   D2A 2239   4.821   0.187   7.015
  146POPC   C3A 2240   4.810   0.345   6.621
  146POPC   C4A 2241   4.989   0.233   6.265
  146POPC   C1B 2242   5.307   0.370   7.305
  146POPC   C2B 2243   5.388   0.642   6.982
  146POPC   C3B 2244   5.353   0.503   6.589
  146POPC   C4B 2245   5.297   0.622   6.198
  147POPC   NC3 2246   5.216   7.679   8.524
  147POPC   PO4 2247   5.275   7.767   8.065
  147POPC   GL1 2248   5.163   7.828   7.596
  147POPC   GL2 2249   4.936   8.113   7.490
  147POPC   C1A 2250   5.232   7.908   7.128
  147POPC   D2A 2251   5.022   8.092   6.756
  147POPC   C3A 2252   5.244   8.114   6.361
  147POPC   C4A 2253   5.010   8.019   5.981
  147POPC   C1B 2254   5.056   8.428   7.146
  147POPC   C2B 2255   4.999   8.615   6.725
  147POPC   C3B 2256   4.900   8.492   6.319
  147POPC   C4B 2257   5.132   8.538   5.940
  148POPC   NC3 2258   0.779  11.164   8.187
  148POPC   PO4 2259   0.156  11.362   8.059
  148POPC   GL1 2260   0.210  11.474   7.655
  148POPC   GL2 2261   0.536  11.325   7.693
  148POPC   C1A 2262   0.230  11.246   7.249
  148POPC   D2A 2263   0.138  10.995   6.874
  148POPC   C3A 2264   0.234  11.220   6.516
  148POPC   C4A 2265   0.176  11.424   6.101
  148POPC   C1B 2266   0.604  10.932   7.405
  148POPC   C2B 2267   0.636  11.006   6.948
  148POPC   C3B 2268   0.634  10.861   6.515
  148POPC   C4B 2269   0.590  11.158   6.180
  149POPC   NC3 2270   0.852   5.540   7.676
  149POPC   PO4 2271   0.970   4.957   7.975
  149POPC   GL1 2272   1.062   5.092   7.593
  149POPC   GL2 2273   1.374   5.150   7.646
  149POPC   C1A 2274   1.143   5.188   7.170
  149POPC   D2A 2275   0.981   5.011   6.842
  149POPC   C3A 2276   0.930   5.364   6.657
  149POPC   C4A 2277   1.036   5.254   6.273
  149POPC   C1B 2278   1.521   4.890   7.333
  149POPC   C2B 2279   1.453   4.803   6.940
  149POPC   C3B 2280   1.419   5.062   6.589
  149POPC   C4B 2281   1.350   4.883   6.202
  150POPC   NC3 2282   1.088   4.224   8.007
  150POPC   PO4 2283   1.661   4.672   7.915
  150POPC   GL1 2284   1.263   4.618   7.688
  150POPC   GL2 2285   1.182   4.292   7.521
  150POPC   C1A 2286   1.051   4.696   7.270
  150POPC   D2A 2287   1.079   4.419   6.930
  150POPC   C3A 2288   1.279   4.516   6.555
  150POPC   C4A 2289   1.185   4.408   6.134
  150POPC   C1B 2290   0.865   4.096   7.277
  150POPC   C2B 2291   0.876   3.951   6.860
  150POPC   C3B 2292   0.819   4.176   6.475
  150POPC   C4B 2293   0.887   4.007   6.073
  151POPC   NC3 2294   0.422   0.997   7.904
  151POPC   PO4 2295   0.808   1.515   8.097
  151POPC   GL1 2296   0.691   1.417   7.705
  151POPC   GL2 2297   0.327   1.453   7.638
  151POPC   C1A 2298   0.769   1.363   7.290
  151POPC   D2A 2299   0.677   1.080   6.923
  151POPC   C3A 2300   0.585   1.257   6.547
  151POPC   C4A 2301   0.779   1.425   6.153
  151POPC   C1B 2302   0.309   1.153   7.274
  151POPC   C2B 2303   0.157   0.975   6.867
  151POPC   C3B 2304   0.071   1.016   6.433
  151POPC   C4B 2305   0.385   1.074   6.119
  152POPC   NC3 2306   0.415   1.813   8.029
  152POPC   PO4 2307   0.011   2.400   8.073
  152POPC   GL1 2308   0.031   2.237   7.640
  152POPC   GL2 2309   0.247   1.979   7.603
  152POPC   C1A 2310   0.292   2.305   7.237
  152POPC   D2A 2311   0.385   2.099   6.879
  152POPC   C3A 2312   0.524   2.245   6.524
  152POPC   C4A 2313   0.373   2.336   6.152
  152POPC   C1B 2314   0.544   1.829   7.309
  152POPC   C2B 2315   0.504   1.604   6.920
  152POPC   C3B 2316   0.640   1.755   6.517
  152POPC   C4B 2317   0.556   1.887   6.080
  153POPC   NC3 2318   9.482   6.286   8.027
  153POPC   PO4 2319   9.261   6.882   8.154
  153POPC   GL1 2320   9.469   6.737   7.745
  153POPC   GL2 2321   9.795   6.596   7.721
  153POPC   C1A 2322   9.474   6.548   7.291
  153POPC   D2A 2323   9.522   6.744   6.854
  153POPC   C3A 2324   9.462   6.541   6.431
  153POPC   C4A 2325   9.128   6.310   6.258
  153POPC   C1B 2326   9.973   6.424   7.369
  153POPC   C2B 2327   9.983   6.575   6.996
  153POPC   C3B 2328   9.921   6.443   6.620
  153POPC   C4B 2329  10.031   6.665   6.298
  154POPC   NC3 2330   2.606   8.755   8.016
  154POPC   PO4 2331   3.060   9.276   8.051
  154POPC   GL1 2332   2.752   9.162   7.692
  154POPC   GL2 2333   2.786   8.853   7.551
  154POPC   C1A 2334   2.531   9.145   7.254
  154POPC   D2A 2335   2.691   8.972   6.854
  154POPC   C3A 2336   2.574   9.168   6.447
  154POPC   C4A 2337   2.414   9.327   5.977
  154POPC   C1B 2338   2.596   8.605   7.220
  154POPC   C2B 2339   2.688   8.459   6.794
  154POPC   C3B 2340   2.716   8.656   6.407
  154POPC   C4B 2341   2.633   8.887   6.040
  155POPC   NC3 2342   0.214   7.352   8.145
  155POPC   PO4 2343  11.035   7.228   8.209
  155POPC   GL1 2344  11.301   7.216   7.809
  155POPC   GL2 2345  11.105   7.399   7.591
  155POPC   C1A 2346   0.022   7.244   7.355
  155POPC   D2A 2347  11.462   7.151   6.879
  155POPC   C3A 2348   0.020   7.513   6.579
  155POPC   C4A 2349  11.492   7.700   6.155
  155POPC   C1B 2350  11.054   7.125   7.196
  155POPC   C2B 2351  10.817   7.183   6.828
  155POPC   C3B 2352  10.974   7.318   6.439
  155POPC   C4B 2353  11.333   7.212   6.224
  156POPC   NC3 2354  10.164   4.291   8.013
  156POPC   PO4 2355  10.732   4.616   8.060
  156POPC   GL1 2356  10.514   4.431   7.657
  156POPC   GL2 2357  10.476   4.039   7.694
  156POPC   C1A 2358  10.248   4.522   7.253
  156POPC   D2A 2359   9.990   4.285   6.949
  156POPC   C3A 2360  10.128   4.420   6.545
  156POPC   C4A 2361  10.040   4.477   6.142
  156POPC   C1B 2362  10.503   4.097   7.262
  156POPC   C2B 2363  10.494   4.233   6.847
  156POPC   C3B 2364  10.680   3.983   6.502
  156POPC   C4B 2365  10.460   4.201   6.193
  157POPC   NC3 2366  10.356  11.236   8.085
  157POPC   PO4 2367   9.744  11.336   8.154
  157POPC   GL1 2368   9.966  11.155   7.764
  157POPC   GL2 2369  10.248  11.350   7.603
  157POPC   C1A 2370   9.973  11.018   7.324
  157POPC   D2A 2371  10.129  11.297   6.967
  157POPC   C3A 2372  10.125  11.127   6.529
  157POPC   C4A 2373  10.216  11.275   6.109
  157POPC   C1B 2374  10.483  11.075   7.322
  157POPC   C2B 2375  10.646  11.164   6.922
  157POPC   C3B 2376  10.825  11.261   6.542
  157POPC   C4B 2377  10.612  11.023   6.273
  158POPC   NC3 2378   1.357  11.091   8.034
  158POPC   PO4 2379   0.836   0.088   8.050
  158POPC   GL1 2380   1.130  11.434   7.728
  158POPC   GL2 2381   0.995  11.105   7.680
  158POPC   C1A 2382   1.356  11.229   7.347
  158POPC   D2A 2383   1.145  11.058   6.967
  158POPC   C3A 2384   1.334  11.115   6.582
  158POPC   C4A 2385   1.595  11.250   6.251
  158POPC   C1B 2386   0.851  11.364   7.300
  158POPC   C2B 2387   0.771   0.039   6.909
  158POPC   C3B 2388   0.872  11.313   6.560
  158POPC   C4B 2389   1.077  11.110   6.160
  159POPC   NC3 2390   0.228   9.675   8.040
  159POPC   PO4 2391   0.799   9.363   8.180
  159POPC   GL1 2392   0.506   9.323   7.810
  159POPC   GL2 2393   0.539   9.676   7.654
  159POPC   C1A 2394   0.346   9.316   7.361
  159POPC   D2A 2395   0.681   9.417   7.040
  159POPC   C3A 2396   0.852   9.357   6.623
  159POPC   C4A 2397   0.803   9.241   6.204
  159POPC   C1B 2398   0.214   9.803   7.338
  159POPC   C2B 2399   0.197   9.559   6.928
  159POPC   C3B 2400   0.431   9.625   6.552
  159POPC   C4B 2401   0.389   9.968   6.271
  160POPC   NC3 2402   9.814   5.732   8.002
  160POPC   PO4 2403   9.162   5.963   7.969
  160POPC   GL1 2404   9.509   5.937   7.638
  160POPC   GL2 2405   9.730   5.650   7.530
  160POPC   C1A 2406   9.634   6.040   7.215
  160POPC   D2A 2407   9.487   6.233   6.854
  160POPC   C3A 2408   9.524   6.022   6.473
  160POPC   C4A 2409   9.304   5.724   6.217
  160POPC   C1B 2410   9.868   5.473   7.181
  160POPC   C2B 2411   9.751   5.682   6.830
  160POPC   C3B 2412   9.732   5.529   6.441
  160POPC   C4B 2413   9.825   5.788   6.123
  161POPC   NC3 2414   6.135  10.131   8.063
  161POPC   PO4 2415   5.957  10.725   8.124
  161POPC   GL1 2416   6.040  10.528   7.750
  161POPC   GL2 2417   5.849  10.805   7.587
  161POPC   C1A 2418   6.093  10.153   7.432
  161POPC   D2A 2419   6.089  10.337   7.051
  161POPC   C3A 2420   6.151  10.182   6.683
  161POPC   C4A 2421   5.983  10.299   6.339
  161POPC   C1B 2422   5.690  10.464   7.384
  161POPC   C2B 2423   5.566  10.289   7.021
  161POPC   C3B 2424   5.568  10.403   6.639
  161POPC   C4B 2425   5.493  10.276   6.260
  162POPC   NC3 2426   4.348   2.276   8.021
  162POPC   PO4 2427   4.544   1.668   8.068
  162POPC   GL1 2428   4.411   1.589   7.660
  162POPC   GL2 2429   4.199   1.892   7.676
  162POPC   C1A 2430   4.424   1.815   7.235
  162POPC   D2A 2431   4.305   1.893   6.811
  162POPC   C3A 2432   4.563   2.044   6.457
  162POPC   C4A 2433   4.417   1.934   6.042
  162POPC   C1B 2434   4.172   2.238   7.360
  162POPC   C2B 2435   4.033   2.320   6.949
  162POPC   C3B 2436   4.132   2.321   6.531
  162POPC   C4B 2437   4.005   2.207   6.142
  163POPC   NC3 2438   8.916   5.587   8.045
  163POPC   PO4 2439   9.476   5.439   8.084
  163POPC   GL1 2440   9.284   5.451   7.663
  163POPC   GL2 2441   9.042   5.705   7.554
  163POPC   C1A 2442   9.356   5.571   7.187
  163POPC   D2A 2443   9.250   5.651   6.728
  163POPC   C3A 2444   8.913   5.475   6.415
  163POPC   C4A 2445   8.945   5.448   5.939
  163POPC   C1B 2446   9.121   6.032   7.220
  163POPC   C2B 2447   8.997   6.092   6.768
  163POPC   C3B 2448   8.787   5.976   6.385
  163POPC   C4B 2449   8.663   6.270   6.044
  164POPC   NC3 2450   7.795   2.994   7.921
  164POPC   PO4 2451   8.152   2.506   8.050
  164POPC   GL1 2452   7.927   2.362   7.676
  164POPC   GL2 2453   7.836   2.657   7.559
  164POPC   C1A 2454   7.950   2.346   7.187
  164POPC   D2A 2455   7.949   2.695   6.826
  164POPC   C3A 2456   8.074   2.666   6.370
  164POPC   C4A 2457   8.000   2.359   6.074
  164POPC   C1B 2458   8.164   2.830   7.285
  164POPC   C2B 2459   8.406   2.989   6.893
  164POPC   C3B 2460   8.280   3.126   6.449
  164POPC   C4B 2461   8.273   3.116   5.953
  165POPC   NC3 2462   1.157   0.410   7.969
  165POPC   PO4 2463   1.590   0.901   7.992
  165POPC   GL1 2464   1.504   0.675   7.584
  165POPC   GL2 2465   1.139   0.637   7.520
  165POPC   C1A 2466   1.431   0.626   7.105
  165POPC   D2A 2467   1.014   0.504   6.903
  165POPC   C3A 2468   1.099   0.570   6.469
  165POPC   C4A 2469   1.516   0.584   6.342
  165POPC   C1B 2470   1.214   0.226   7.307
  165POPC   C2B 2471   1.304   0.053   6.876
  165POPC   C3B 2472   1.281   0.105   6.421
  165POPC   C4B 2473   0.886   0.163   6.196
  166POPC   NC3 2474   9.520   2.822   8.117
  166POPC   PO4 2475  10.116   2.509   8.308
  166POPC   GL1 2476   9.953   2.731   7.843
  166POPC   GL2 2477   9.643   2.527   7.718
  166POPC   C1A 2478   9.796   2.842   7.372
  166POPC   D2A 2479   9.844   2.582   7.002
  166POPC   C3A 2480  10.102   2.768   6.698
  166POPC   C4A 2481   9.966   2.686   6.275
  166POPC   C1B 2482   9.488   2.346   7.318
  166POPC   C2B 2483   9.341   2.478   6.908
  166POPC   C3B 2484   9.449   2.822   6.696
  166POPC   C4B 2485   9.473   2.821   6.259
  167POPC   NC3 2486  10.460   8.459   7.826
  167POPC   PO4 2487  10.054   8.843   8.290
  167POPC   GL1 2488  10.146   8.922   7.783
  167POPC   GL2 2489  10.267   9.248   7.714
  167POPC   C1A 2490  10.204   8.742   7.308
  167POPC   D2A 2491  10.420   8.589   6.910
  167POPC   C3A 2492  10.299   8.800   6.528
  167POPC   C4A 2493  10.383   8.661   6.116
  167POPC   C1B 2494  10.082   9.237   7.311
  167POPC   C2B 2495  10.300   9.119   6.946
  167POPC   C3B 2496  10.638   9.186   6.668
  167POPC   C4B 2497  10.606   9.145   6.220
  168POPC   NC3 2498   1.619   1.186   3.932
  168POPC   PO4 2499   0.982   0.944   3.928
  168POPC   GL1 2500   1.254   1.046   4.241
  168POPC   GL2 2501   1.090   1.332   4.372
  168POPC   C1A 2502   1.482   1.090   4.621
  168POPC   D2A 2503   1.332   1.113   5.050
  168POPC   C3A 2504   1.564   1.383   5.354
  168POPC   C4A 2505   1.638   1.008   5.619
  168POPC   C1B 2506   0.929   0.973   4.633
  168POPC   C2B 2507   0.843   0.897   5.080
  168POPC   C3B 2508   1.108   0.920   5.470
  168POPC   C4B 2509   1.156   1.362   5.655
  169POPC   NC3 2510  10.857   3.416   3.842
  169POPC   PO4 2511  10.176   3.455   3.836
  169POPC   GL1 2512  10.212   3.691   4.231
  169POPC   GL2 2513  10.588   3.686   4.248
  169POPC   C1A 2514  10.100   3.521   4.652
  169POPC   D2A 2515  10.215   3.223   5.014
  169POPC   C3A 2516   9.968   3.216   5.399
  169POPC   C4A 2517  10.135   3.327   5.790
  169POPC   C1B 2518  10.584   3.549   4.709
  169POPC   C2B 2519  10.388   3.704   5.124
  169POPC   C3B 2520  10.412   3.716   5.601
  169POPC   C4B 2521  10.705   3.835   5.952
  170POPC   NC3 2522   9.768   5.707   3.773
  170POPC   PO4 2523   9.322   5.359   3.937
  170POPC   GL1 2524   9.629   5.462   4.213
  170POPC   GL2 2525   9.633   5.819   4.263
  170POPC   C1A 2526   9.672   5.462   4.640
  170POPC   D2A 2527   9.428   5.441   4.993
  170POPC   C3A 2528   9.629   5.623   5.339
  170POPC   C4A 2529   9.519   5.649   5.753
  170POPC   C1B 2530   9.791   5.964   4.705
  170POPC   C2B 2531   9.851   6.049   5.158
  170POPC   C3B 2532   9.549   6.182   5.504
  170POPC   C4B 2533   9.483   6.121   5.948
  171POPC   NC3 2534   3.579  10.314   3.913
  171POPC   PO4 2535   3.922  10.843   4.061
  171POPC   GL1 2536   3.787  10.639   4.395
  171POPC   GL2 2537   3.478  10.521   4.348
  171POPC   C1A 2538   3.902  10.691   4.808
  171POPC   D2A 2539   3.929  10.828   5.192
  171POPC   C3A 2540   3.874  10.510   5.529
  171POPC   C4A 2541   3.774  10.325   5.945
  171POPC   C1B 2542   3.497  10.359   4.759
  171POPC   C2B 2543   3.492  10.545   5.166
  171POPC   C3B 2544   3.368  10.396   5.576
  171POPC   C4B 2545   3.366  10.033   5.795
  172POPC   NC3 2546  10.496   2.125   4.065
  172POPC   PO4 2547   9.868   1.961   4.089
  172POPC   GL1 2548  10.086   2.198   4.392
  172POPC   GL2 2549  10.281   1.903   4.474
  172POPC   C1A 2550  10.311   2.282   4.797
  172POPC   D2A 2551  10.384   2.035   5.165
  172POPC   C3A 2552  10.309   2.330   5.504
  172POPC   C4A 2553  10.444   2.320   5.934
  172POPC   C1B 2554  10.566   1.618   4.699
  172POPC   C2B 2555  10.545   1.469   5.114
  172POPC   C3B 2556  10.520   1.607   5.535
  172POPC   C4B 2557  10.218   1.888   5.736
  173POPC   NC3 2558  10.140  11.199   3.936
  173POPC   PO4 2559  10.671  10.694   3.851
  173POPC   GL1 2560  10.501  10.951   4.255
  173POPC   GL2 2561  10.406  11.308   4.368
  173POPC   C1A 2562  10.362  10.963   4.724
  173POPC   D2A 2563  10.105  10.793   5.063
  173POPC   C3A 2564  10.376  10.717   5.403
  173POPC   C4A 2565  10.525  10.922   5.767
  173POPC   C1B 2566  10.191  11.487   4.729
  173POPC   C2B 2567  10.032  11.371   5.145
  173POPC   C3B 2568  10.135   0.123   5.509
  173POPC   C4B 2569  10.483  11.455   5.712
  174POPC   NC3 2570   6.420  11.349   3.852
  174POPC   PO4 2571   7.085  11.443   4.028
  174POPC   GL1 2572   6.746  11.281   4.251
  174POPC   GL2 2573   6.793  10.931   4.345
  174POPC   C1A 2574   6.494  11.331   4.602
  174POPC   D2A 2575   6.619  11.314   5.051
  174POPC   C3A 2576   6.367  11.496   5.377
  174POPC   C4A 2577   6.219  11.373   5.782
  174POPC   C1B 2578   6.596  10.859   4.764
  174POPC   C2B 2579   6.299  10.874   5.127
  174POPC   C3B 2580   6.471  10.948   5.538
  174POPC   C4B 2581   6.865  10.893   5.737
  175POPC   NC3 2582   3.081   9.976   4.022
  175POPC   PO4 2583   3.678   9.876   3.994
  175POPC   GL1 2584   3.519   9.908   4.374
  175POPC   GL2 2585   3.566   9.538   4.349
  175POPC   C1A 2586   3.674   9.884   4.799
  175POPC   D2A 2587   3.501   9.999   5.217
  175POPC   C3A 2588   3.815   9.971   5.550
  175POPC   C4A 2589   3.793   9.805   5.977
  175POPC   C1B 2590   3.395   9.467   4.741
  175POPC   C2B 2591   3.340   9.476   5.177
  175POPC   C3B 2592   3.485   9.581   5.575
  175POPC   C4B 2593   3.368   9.542   6.008
  176POPC   NC3 2594  10.537   7.934   3.875
  176POPC   PO4 2595  10.713   8.564   3.950
  176POPC   GL1 2596  10.471   8.414   4.320
  176POPC   GL2 2597  10.464   8.053   4.376
  176POPC   C1A 2598  10.440   8.330   4.784
  176POPC   D2A 2599  10.672   8.096   5.106
  176POPC   C3A 2600  10.492   8.353   5.394
  176POPC   C4A 2601  10.202   8.479   5.663
  176POPC   C1B 2602  10.354   7.813   4.773
  176POPC   C2B 2603  10.182   7.953   5.154
  176POPC   C3B 2604  10.233   7.950   5.584
  176POPC   C4B 2605  10.189   7.684   5.974
  177POPC   NC3 2606   9.567   2.249   4.282
  177POPC   PO4 2607   9.584   2.912   3.966
  177POPC   GL1 2608   9.495   2.750   4.298
  177POPC   GL2 2609   9.867   2.666   4.320
  177POPC   C1A 2610   9.436   2.805   4.716
  177POPC   D2A 2611   9.341   3.030   5.058
  177POPC   C3A 2612   9.492   2.923   5.415
  177POPC   C4A 2613   9.294   2.930   5.775
  177POPC   C1B 2614   9.880   2.550   4.744
  177POPC   C2B 2615   9.870   2.808   5.068
  177POPC   C3B 2616   9.953   2.696   5.456
  177POPC   C4B 2617   9.734   2.671   5.828
  178POPC   NC3 2618  10.804   0.427   3.767
  178POPC   PO4 2619  11.288   0.261   4.188
  178POPC   GL1 2620  11.270   0.600   4.448
  178POPC   GL2 2621   0.123   0.644   4.352
  178POPC   C1A 2622  11.004   0.564   4.849
  178POPC   D2A 2623  10.943   0.172   5.108
  178POPC   C3A 2624  11.058   0.252   5.556
  178POPC   C4A 2625  11.053   0.670   5.745
  178POPC   C1B 2626   0.119   0.391   4.743
  178POPC   C2B 2627  11.425   0.456   5.110
  178POPC   C3B 2628   0.038   0.461   5.491
  178POPC   C4B 2629  11.488   0.331   5.862
  179POPC   NC3 2630   6.663   9.557   3.851
  179POPC   PO4 2631   6.163   9.935   3.789
  179POPC   GL1 2632   6.385   9.896   4.199
  179POPC   GL2 2633   6.624   9.651   4.356
  179POPC   C1A 2634   6.356  10.004   4.657
  179POPC   D2A 2635   6.422   9.780   5.039
  179POPC   C3A 2636   6.269   9.830   5.454
  179POPC   C4A 2637   6.385   9.545   5.801
  179POPC   C1B 2638   6.839   9.846   4.725
  179POPC   C2B 2639   6.873  10.009   5.138
  179POPC   C3B 2640   6.770   9.793   5.528
  179POPC   C4B 2641   6.707   9.907   5.949
  180POPC   NC3 2642   9.296   8.962   3.803
  180POPC   PO4 2643   9.915   8.981   3.908
  180POPC   GL1 2644   9.573   9.110   4.222
  180POPC   GL2 2645   9.436   8.787   4.291
  180POPC   C1A 2646   9.577   9.311   4.635
  180POPC   D2A 2647   9.785   9.175   5.013
  180POPC   C3A 2648   9.603   9.214   5.408
  180POPC   C4A 2649   9.669   9.115   5.818
  180POPC   C1B 2650   9.487   8.825   4.738
  180POPC   C2B 2651   9.313   8.859   5.146
  180POPC   C3B 2652   9.356   8.773   5.588
  180POPC   C4B 2653   9.738   8.610   5.730
  181POPC   NC3 2654  11.213   8.408   4.068
  181POPC   PO4 2655  10.955   7.868   3.717
  181POPC   GL1 2656  10.956   7.950   4.181
  181POPC   GL2 2657  11.286   7.909   4.217
  181POPC   C1A 2658  10.928   8.119   4.641
  181POPC   D2A 2659  11.187   8.185   5.055
  181POPC   C3A 2660  10.986   8.329   5.473
  181POPC   C4A 2661  10.724   8.336   5.861
  181POPC   C1B 2662  11.345   7.789   4.646
  181POPC   C2B 2663  11.142   7.641   5.021
  181POPC   C3B 2664  11.059   7.826   5.433
  181POPC   C4B 2665  11.428   7.937   5.694
  182POPC   NC3 2666   5.759  11.001   3.952
  182POPC   PO4 2667   6.405  10.941   3.618
  182POPC   GL1 2668   6.300  10.987   4.160
  182POPC   GL2 2669   6.078  11.307   4.242
  182POPC   C1A 2670   6.127  10.975   4.617
  182POPC   D2A 2671   6.089  11.324   4.941
  182POPC   C3A 2672   5.943  11.210   5.364
  182POPC   C4A 2673   5.993  10.922   5.699
  182POPC   C1B 2674   5.719  11.268   4.574
  182POPC   C2B 2675   5.563  11.286   5.024
  182POPC   C3B 2676   5.470  11.421   5.452
  182POPC   C4B 2677   5.679  11.334   5.837
  183POPC   NC3 2678   1.136   8.068   3.768
  183POPC   PO4 2679   1.669   8.425   3.918
  183POPC   GL1 2680   1.392   8.301   4.226
  183POPC   GL2 2681   1.093   8.171   4.285
  183POPC   C1A 2682   1.469   8.088   4.627
  183POPC   D2A 2683   1.327   8.183   5.054
  183POPC   C3A 2684   1.369   7.943   5.432
  183POPC   C4A 2685   1.482   8.132   5.825
  183POPC   C1B 2686   0.969   8.031   4.722
  183POPC   C2B 2687   0.818   8.172   5.142
  183POPC   C3B 2688   0.933   8.158   5.563
  183POPC   C4B 2689   1.006   7.898   5.896
  184POPC   NC3 2690  11.021  10.973   4.035
  184POPC   PO4 2691  10.642   0.047   3.997
  184POPC   GL1 2692  10.924  11.374   4.335
  184POPC   GL2 2693  11.286  11.277   4.351
  184POPC   C1A 2694  10.825  11.223   4.738
  184POPC   D2A 2695  10.575  11.275   5.127
  184POPC   C3A 2696  10.892  11.271   5.454
  184POPC   C4A 2697  10.905  11.234   5.902
  184POPC   C1B 2698  11.317  11.440   4.793
  184POPC   C2B 2699  11.397  11.468   5.244
  184POPC   C3B 2700  11.380  11.366   5.662
  184POPC   C4B 2701  11.375  11.044   5.919
  185POPC   NC3 2702   2.038  11.073   3.994
  185POPC   PO4 2703   2.469  10.598   3.963
  185POPC   GL1 2704   2.270  10.736   4.344
  185POPC   GL2 2705   2.164  11.071   4.472
  185POPC   C1A 2706   2.441  10.784   4.765
  185POPC   D2A 2707   2.256  11.110   5.000
  185POPC   C3A 2708   2.076  10.993   5.356
  185POPC   C4A 2709   2.210  11.031   5.741
  185POPC   C1B 2710   1.832  11.202   4.681
  185POPC   C2B 2711   1.680  11.188   5.069
  185POPC   C3B 2712   1.573  11.036   5.438
  185POPC   C4B 2713   1.760  11.274   5.753
  186POPC   NC3 2714   3.618   2.906   3.792
  186POPC   PO4 2715   2.992   3.150   4.023
  186POPC   GL1 2716   3.361   2.943   4.255
  186POPC   GL2 2717   3.347   2.576   4.221
  186POPC   C1A 2718   3.389   2.780   4.720
  186POPC   D2A 2719   3.261   2.828   5.185
  186POPC   C3A 2720   3.597   2.830   5.541
  186POPC   C4A 2721   3.797   2.985   5.963
  186POPC   C1B 2722   3.110   2.369   4.607
  186POPC   C2B 2723   3.235   2.303   5.062
  186POPC   C3B 2724   3.226   2.439   5.546
  186POPC   C4B 2725   3.142   2.397   6.039
  187POPC   NC3 2726   9.700   1.538   4.208
  187POPC   PO4 2727   9.283   2.146   3.949
  187POPC   GL1 2728   9.145   1.978   4.385
  187POPC   GL2 2729   9.471   1.834   4.550
  187POPC   C1A 2730   9.061   1.817   4.839
  187POPC   D2A 2731   9.459   1.838   5.108
  187POPC   C3A 2732   9.556   1.730   5.542
  187POPC   C4A 2733   9.494   1.880   5.953
  187POPC   C1B 2734   9.864   1.971   4.809
  187POPC   C2B 2735   9.906   2.233   5.182
  187POPC   C3B 2736   9.798   2.194   5.629
  187POPC   C4B 2737   9.907   2.213   6.067
  188POPC   NC3 2738   2.696   7.343   3.888
  188POPC   PO4 2739   3.021   6.905   3.937
  188POPC   GL1 2740   2.885   7.188   4.356
  188POPC   GL2 2741   2.596   7.431   4.381
  188POPC   C1A 2742   2.854   7.320   4.834
  188POPC   D2A 2743   2.889   7.101   5.252
  188POPC   C3A 2744   2.955   7.322   5.656
  188POPC   C4A 2745   3.020   7.252   6.096
  188POPC   C1B 2746   2.449   7.088   4.643
  188POPC   C2B 2747   2.295   7.110   5.087
  188POPC   C3B 2748   2.467   7.278   5.485
  188POPC   C4B 2749   2.508   7.401   5.947
  189POPC   NC3 2750   8.475  11.274   4.131
  189POPC   PO4 2751   8.355  10.698   3.746
  189POPC   GL1 2752   8.303  10.789   4.208
  189POPC   GL2 2753   8.056  11.013   4.284
  189POPC   C1A 2754   8.362  10.926   4.670
  189POPC   D2A 2755   8.145  11.221   4.940
  189POPC   C3A 2756   8.084  11.114   5.358
  189POPC   C4A 2757   8.328  11.061   5.724
  189POPC   C1B 2758   7.830  11.303   4.531
  189POPC   C2B 2759   7.637  11.309   4.915
  189POPC   C3B 2760   7.576  11.289   5.334
  189POPC   C4B 2761   7.763  11.282   5.721
  190POPC   NC3 2762   5.745   0.241   3.590
  190POPC   PO4 2763   5.269   0.517   3.934
  190POPC   GL1 2764   5.012   0.520   4.324
  190POPC   GL2 2765   4.893   0.192   4.464
  190POPC   C1A 2766   5.139   0.523   4.770
  190POPC   D2A 2767   5.271   0.233   5.063
  190POPC   C3A 2768   5.301   0.424   5.433
  190POPC   C4A 2769   5.080   0.440   5.795
  190POPC   C1B 2770   4.657   0.316   4.749
  190POPC   C2B 2771   4.687   0.542   5.058
  190POPC   C3B 2772   4.731   0.511   5.434
  190POPC   C4B 2773   4.704   0.786   5.743
  191POPC   NC3 2774   4.781   1.786   3.927
  191POPC   PO4 2775   4.789   2.454   3.950
  191POPC   GL1 2776   4.911   2.216   4.315
  191POPC   GL2 2777   5.083   1.895   4.324
  191POPC   C1A 2778   4.752   2.205   4.753
  191POPC   D2A 2779   4.541   2.161   5.159
  191POPC   C3A 2780   4.842   2.264   5.492
  191POPC   C4A 2781   4.847   2.166   5.922
  191POPC   C1B 2782   4.893   1.720   4.723
  191POPC   C2B 2783   4.948   1.849   5.172
  191POPC   C3B 2784   5.099   1.810   5.629
  191POPC   C4B 2785   5.279   1.932   6.054
  192POPC   NC3 2786   4.127   0.233   3.837
  192POPC   PO4 2787   4.659   0.009   4.014
  192POPC   GL1 2788   4.386   0.264   4.329
  192POPC   GL2 2789   4.176   0.555   4.309
  192POPC   C1A 2790   4.151   0.188   4.740
  192POPC   D2A 2791   4.393   0.052   5.110
  192POPC   C3A 2792   4.341   0.181   5.516
  192POPC   C4A 2793   4.639   0.196   5.831
  192POPC   C1B 2794   4.294   0.680   4.747
  192POPC   C2B 2795   4.178   0.550   5.164
  192POPC   C3B 2796   4.233   0.701   5.574
  192POPC   C4B 2797   4.271   0.880   5.996
  193POPC   NC3 2798   1.195   2.114   4.027
  193POPC   PO4 2799   1.682   1.658   3.956
  193POPC   GL1 2800   1.518   1.625   4.376
  193POPC   GL2 2801   1.274   1.892   4.464
  193POPC   C1A 2802   1.347   1.546   4.801
  193POPC   D2A 2803   1.060   1.579   5.146
  193POPC   C3A 2804   1.230   1.885   5.393
  193POPC   C4A 2805   1.437   1.782   5.749
  193POPC   C1B 2806   0.898   1.873   4.732
  193POPC   C2B 2807   0.772   2.073   5.118
  193POPC   C3B 2808   0.965   2.367   5.355
  193POPC   C4B 2809   1.169   2.244   5.756
  194POPC   NC3 2810   5.877   0.533   4.096
  194POPC   PO4 2811   5.638  11.460   3.939
  194POPC   GL1 2812   5.511   0.198   4.348
  194POPC   GL2 2813   5.509   0.572   4.429
  194POPC   C1A 2814   5.700   0.244   4.788
  194POPC   D2A 2815   5.981   0.284   5.160
  194POPC   C3A 2816   5.892   0.223   5.575
  194POPC   C4A 2817   5.590   0.369   5.845
  194POPC   C1B 2818   5.880   0.730   4.689
  194POPC   C2B 2819   6.153   0.737   5.005
  194POPC   C3B 2820   6.081   0.900   5.425
  194POPC   C4B 2821   5.949   0.727   5.820
  195POPC   NC3 2822   4.101   9.739   3.867
  195POPC   PO4 2823   4.596   9.302   4.151
  195POPC   GL1 2824   4.141   9.463   4.282
  195POPC   GL2 2825   4.033   9.792   4.376
  195POPC   C1A 2826   3.921   9.426   4.699
  195POPC   D2A 2827   3.988   9.618   5.112
  195POPC   C3A 2828   4.251   9.348   5.380
  195POPC   C4A 2829   3.982   9.450   5.665
  195POPC   C1B 2830   4.328   9.779   4.745
  195POPC   C2B 2831   4.489   9.741   5.189
  195POPC   C3B 2832   4.508   9.755   5.645
  195POPC   C4B 2833   4.700  10.160   5.777
  196POPC   NC3 2834   2.982   1.809   4.013
  196POPC   PO4 2835   2.438   1.479   3.734
  196POPC   GL1 2836   2.395   1.712   4.237
  196POPC   GL2 2837   2.498   2.037   4.186
  196POPC   C1A 2838   2.275   1.792   4.672
  196POPC   D2A 2839   2.579   1.638   4.973
  196POPC   C3A 2840   2.548   1.779   5.402
  196POPC   C4A 2841   2.755   1.679   5.793
  196POPC   C1B 2842   2.730   1.995   4.585
  196POPC   C2B 2843   2.623   2.143   4.983
  196POPC   C3B 2844   2.841   2.174   5.351
  196POPC   C4B 2845   2.746   2.200   5.768
  197POPC   NC3 2846   7.571  11.421   3.891
  197POPC   PO4 2847   7.242   0.542   3.727
  197POPC   GL1 2848   7.405   0.509   4.205
  197POPC   GL2 2849   7.645   0.242   4.257
  197POPC   C1A 2850   7.221   0.614   4.652
  197POPC   D2A 2851   7.381   0.855   5.015
  197POPC   C3A 2852   7.273   0.738   5.428
  197POPC   C4A 2853   7.033   0.498   5.705
  197POPC   C1B 2854   7.400   0.138   4.607
  197POPC   C2B 2855   7.480   0.291   5.021
  197POPC   C3B 2856   7.390   0.239   5.440
  197POPC   C4B 2857   7.444   0.233   5.871
  198POPC   NC3 2858   1.109   7.539   3.705
  198POPC   PO4 2859   1.522   6.988   3.947
  198POPC   GL1 2860   1.325   7.260   4.275
  198POPC   GL2 2861   1.102   7.133   4.505
  198POPC   C1A 2862   1.447   7.562   4.613
  198POPC   D2A 2863   1.271   7.654   5.019
  198POPC   C3A 2864   1.426   7.349   5.339
  198POPC   C4A 2865   1.491   7.052   5.712
  198POPC   C1B 2866   0.875   7.516   4.663
  198POPC   C2B 2867   0.712   7.678   5.054
  198POPC   C3B 2868   0.920   7.668   5.444
  198POPC   C4B 2869   1.209   7.470   5.764
  199POPC   NC3 2870   0.847   3.658   3.921
  199POPC   PO4 2871   0.547   3.027   3.921
  199POPC   GL1 2872   0.543   3.321   4.262
  199POPC   GL2 2873   0.643   3.664   4.409
  199POPC   C1A 2874   0.453   3.276   4.687
  199POPC   D2A 2875   0.648   3.564   4.971
  199POPC   C3A 2876   0.657   3.356   5.349
  199POPC   C4A 2877   0.416   3.183   5.660
  199POPC   C1B 2878   0.235   3.736   4.643
  199POPC   C2B 2879   0.133   3.533   5.046
  199POPC   C3B 2880   0.259   3.633   5.468
  199POPC   C4B 2881   0.094   3.743   5.833
  200POPC   NC3 2882  10.474   5.791   4.009
  200POPC   PO4 2883  10.013   5.282   3.908
  200POPC   GL1 2884  10.141   5.532   4.300
  200POPC   GL2 2885  10.527   5.542   4.434
  200POPC   C1A 2886  10.166   5.398   4.738
  200POPC   D2A 2887  10.166   5.620   5.109
  200POPC   C3A 2888  10.115   5.516   5.525
  200POPC   C4A 2889   9.952   5.922   5.659
  200POPC   C1B 2890  10.455   5.889   4.722
  200POPC   C2B 2891  10.387   6.060   5.150
  200POPC   C3B 2892  10.453   5.913   5.556
  200POPC   C4B 2893  10.697   6.141   5.844
  201POPC   NC3 2894   8.949   5.624   3.796
  201POPC   PO4 2895   8.472   5.854   4.118
  201POPC   GL1 2896   8.790   5.567   4.313
  201POPC   GL2 2897   9.141   5.601   4.331
  201POPC   C1A 2898   8.911   5.616   4.788
  201POPC   D2A 2899   8.784   5.928   5.132
  201POPC   C3A 2900   8.639   5.763   5.560
  201POPC   C4A 2901   8.521   5.766   6.008
  201POPC   C1B 2902   9.275   5.930   4.609
  201POPC   C2B 2903   9.342   5.963   5.054
  201POPC   C3B 2904   9.157   5.843   5.460
  201POPC   C4B 2905   9.009   5.957   5.868
  202POPC   NC3 2906   6.041   1.508   3.948
  202POPC   PO4 2907   5.717   0.953   4.030
  202POPC   GL1 2908   5.541   1.085   4.409
  202POPC   GL2 2909   5.571   1.421   4.336
  202POPC   C1A 2910   5.456   0.960   4.839
  202POPC   D2A 2911   5.650   0.712   5.177
  202POPC   C3A 2912   5.580   0.953   5.553
  202POPC   C4A 2913   5.373   1.365   5.577
  202POPC   C1B 2914   5.983   1.267   4.561
  202POPC   C2B 2915   5.941   1.195   4.988
  202POPC   C3B 2916   5.850   1.376   5.372
  202POPC   C4B 2917   5.938   1.255   5.797
  203POPC   NC3 2918   7.035   1.420   4.008
  203POPC   PO4 2919   6.955   2.121   3.926
  203POPC   GL1 2920   7.313   1.960   4.225
  203POPC   GL2 2921   7.587   2.183   4.348
  203POPC   C1A 2922   7.482   1.797   4.646
  203POPC   D2A 2923   7.297   1.688   5.051
  203POPC   C3A 2924   7.307   1.733   5.495
  203POPC   C4A 2925   6.956   1.852   5.724
  203POPC   C1B 2926   7.587   2.292   4.799
  203POPC   C2B 2927   7.482   2.155   5.222
  203POPC   C3B 2928   7.268   2.247   5.613
  203POPC   C4B 2929   7.442   2.351   6.002
  204POPC   NC3 2930   8.011   1.485   3.799
  204POPC   PO4 2931   7.926   0.812   3.882
  204POPC   GL1 2932   8.268   0.955   4.151
  204POPC   GL2 2933   8.044   1.212   4.233
  204POPC   C1A 2934   8.454   1.113   4.557
  204POPC   D2A 2935   8.451   0.946   4.994
  204POPC   C3A 2936   8.476   1.177   5.360
  204POPC   C4A 2937   8.372   1.115   5.771
  204POPC   C1B 2938   7.970   1.209   4.659
  204POPC   C2B 2939   8.104   1.383   5.056
  204POPC   C3B 2940   8.021   1.362   5.499
  204POPC   C4B 2941   8.124   1.575   5.853
  205POPC   NC3 2942   8.685   9.210   3.904
  205POPC   PO4 2943   8.969   8.630   3.864
  205POPC   GL1 2944   8.964   8.934   4.231
  205POPC   GL2 2945   8.686   8.986   4.438
  205POPC   C1A 2946   9.098   9.155   4.638
  205POPC   D2A 2947   8.852   9.039   5.006
  205POPC   C3A 2948   8.970   9.089   5.458
  205POPC   C4A 2949   8.663   8.986   5.752
  205POPC   C1B 2950   8.978   8.663   4.680
  205POPC   C2B 2951   8.916   8.522   5.126
  205POPC   C3B 2952   8.902   8.532   5.600
  205POPC   C4B 2953   8.905   8.669   6.044
  206POPC   NC3 2954   4.906  11.192   3.778
  206POPC   PO4 2955   4.217  11.284   3.756
  206POPC   GL1 2956   4.230  11.296   4.240
  206POPC   GL2 2957   4.167  10.997   4.456
  206POPC   C1A 2958   4.487  11.323   4.635
  206POPC   D2A 2959   4.346  11.057   4.970
  206POPC   C3A 2960   4.621  11.110   5.304
  206POPC   C4A 2961   4.642  11.194   5.707
  206POPC   C1B 2962   3.870  11.206   4.719
  206POPC   C2B 2963   3.899  11.382   5.133
  206POPC   C3B 2964   4.132  11.215   5.469
  206POPC   C4B 2965   4.029  10.938   5.793
  207POPC   NC3 2966   0.512  10.864   3.953
  207POPC   PO4 2967   0.692   0.033   3.938
  207POPC   GL1 2968   0.647  11.266   4.246
  207POPC   GL2 2969   0.284  11.207   4.221
  207POPC   C1A 2970   0.742  11.087   4.649
  207POPC   D2A 2971   0.887  11.323   4.997
  207POPC   C3A 2972   0.721  11.200   5.390
  207POPC   C4A 2973   0.804  11.357   5.778
  207POPC   C1B 2974   0.233  11.158   4.629
  207POPC   C2B 2975   0.365  10.997   5.012
  207POPC   C3B 2976   0.226  11.090   5.381
  207POPC   C4B 2977   0.348  11.087   5.752
  208POPC   NC3 2978   8.732  10.484   3.939
  208POPC   PO4 2979   9.339  10.522   3.737
  208POPC   GL1 2980   9.142  10.589   4.292
  208POPC   GL2 2981   8.896  10.374   4.411
  208POPC   C1A 2982   8.831  10.715   4.741
  208POPC   D2A 2983   8.523  10.725   5.106
  208POPC   C3A 2984   8.713  10.751   5.527
  208POPC   C4A 2985   9.117  10.535   5.617
  208POPC   C1B 2986   9.216  10.391   4.750
  208POPC   C2B 2987   9.009  10.423   5.130
  208POPC   C3B 2988   8.656  10.286   5.330
  208POPC   C4B 2989   8.592  10.241   5.746
  209POPC   NC3 2990   5.100   0.097   4.033
  209POPC   PO4 2991   5.321  10.997   3.777
  209POPC   GL1 2992   5.263  11.153   4.223
  209POPC   GL2 2993   4.887  11.189   4.340
  209POPC   C1A 2994   5.219  11.366   4.663
  209POPC   D2A 2995   4.880  11.409   4.982
  209POPC   C3A 2996   4.951   0.021   5.441
  209POPC   C4A 2997   5.135  11.428   5.878
  209POPC   C1B 2998   4.833  10.930   4.748
  209POPC   C2B 2999   5.023  10.824   5.178
  209POPC   C3B 3000   5.174  10.992   5.605
  209POPC   C4B 3001   4.949  10.966   6.040
  210POPC   NC3 3002   0.603  10.322   3.823
  210POPC   PO4 3003   0.002  10.152   3.975
  210POPC   GL1 3004   0.354  10.166   4.274
  210POPC   GL2 3005   0.431  10.487   4.283
  210POPC   C1A 3006   0.273  10.088   4.705
  210POPC   D2A 3007   0.098  10.034   5.139
  210POPC   C3A 3008   0.377  10.187   5.475
  210POPC   C4A 3009   0.348  10.356   5.903
  210POPC   C1B 3010   0.315  10.624   4.663
  210POPC   C2B 3011   0.436  10.491   5.076
  210POPC   C3B 3012   0.579  10.690   5.466
  210POPC   C4B 3013   0.676  10.741   5.914
  211POPC   NC3 3014   2.124   1.791   3.848
  211POPC   PO4 3015   2.316   2.427   3.883
  211POPC   GL1 3016   2.046   2.294   4.218
  211POPC   GL2 3017   1.938   1.957   4.296
  211POPC   C1A 3018   2.140   2.295   4.653
  211POPC   D2A 3019   1.982   2.262   5.069
  211POPC   C3A 3020   2.296   2.248   5.374
  211POPC   C4A 3021   2.199   2.234   5.779
  211POPC   C1B 3022   1.732   1.982   4.689
  211POPC   C2B 3023   1.658   1.834   5.092
  211POPC   C3B 3024   1.852   1.914   5.472
  211POPC   C4B 3025   1.685   2.211   5.709
  212POPC   NC3 3026  10.908   8.853   3.654
  212POPC   PO4 3027  11.463   8.681   3.796
  212POPC   GL1 3028  11.395   8.861   4.225
  212POPC   GL2 3029  11.064   8.906   4.170
  212POPC   C1A 3030  11.258   8.722   4.667
  212POPC   D2A 3031  11.327   8.733   5.114
  212POPC   C3A 3032  11.473   8.430   5.431
  212POPC   C4A 3033  11.222   8.778   5.643
  212POPC   C1B 3034  11.050   9.161   4.543
  212POPC   C2B 3035  10.989   9.111   4.959
  212POPC   C3B 3036  11.088   9.182   5.371
  212POPC   C4B 3037  10.923   9.179   5.784
  213POPC   NC3 3038   7.136  10.954   3.909
  213POPC   PO4 3039   7.829  11.008   3.842
  213POPC   GL1 3040   7.575  10.864   4.184
  213POPC   GL2 3041   7.401  11.155   4.296
  213POPC   C1A 3042   7.565  10.860   4.655
  213POPC   D2A 3043   7.456  10.858   5.084
  213POPC   C3A 3044   7.659  10.796   5.440
  213POPC   C4A 3045   7.451  10.889   5.808
  213POPC   C1B 3046   7.128  11.192   4.638
  213POPC   C2B 3047   7.134  11.367   5.009
  213POPC   C3B 3048   7.077  11.143   5.353
  213POPC   C4B 3049   7.213  11.321   5.713
  214POPC   NC3 3050   4.030   1.433   4.109
  214POPC   PO4 3051   3.385   1.544   3.853
  214POPC   GL1 3052   3.298   1.426   4.274
  214POPC   GL2 3053   3.543   1.171   4.226
  214POPC   C1A 3054   3.551   1.423   4.690
  214POPC   D2A 3055   3.943   1.534   4.952
  214POPC   C3A 3056   3.746   1.539   5.342
  214POPC   C4A 3057   3.536   1.504   5.707
  214POPC   C1B 3058   3.274   0.973   4.535
  214POPC   C2B 3059   3.346   0.881   4.948
  214POPC   C3B 3060   3.294   0.839   5.362
  214POPC   C4B 3061   3.469   0.992   5.694
  215POPC   NC3 3062   9.720   6.650   4.022
  215POPC   PO4 3063  10.073   6.069   3.903
  215POPC   GL1 3064   9.878   6.264   4.298
  215POPC   GL2 3065   9.490   6.345   4.364
  215POPC   C1A 3066   9.838   6.501   4.702
  215POPC   D2A 3067   9.623   6.504   5.110
  215POPC   C3A 3068   9.857   6.716   5.490
  215POPC   C4A 3069   9.837   6.461   5.857
  215POPC   C1B 3070   9.387   6.752   4.655
  215POPC   C2B 3071   9.393   6.941   5.097
  215POPC   C3B 3072   9.356   6.721   5.511
  215POPC   C4B 3073   9.367   6.621   5.934
  216POPC   NC3 3074   4.455   8.874   4.094
  216POPC   PO4 3075   3.949   9.202   3.844
  216POPC   GL1 3076   3.949   8.993   4.300
  216POPC   GL2 3077   4.248   9.040   4.521
  216POPC   C1A 3078   3.815   8.932   4.767
  216POPC   D2A 3079   3.811   9.140   5.188
  216POPC   C3A 3080   4.034   8.914   5.535
  216POPC   C4A 3081   4.144   8.492   5.692
  216POPC   C1B 3082   4.546   8.920   4.816
  216POPC   C2B 3083   4.453   8.857   5.245
  216POPC   C3B 3084   4.559   8.794   5.655
  216POPC   C4B 3085   4.761   8.892   6.022
  217POPC   NC3 3086   1.162   4.404   3.952
  217POPC   PO4 3087   1.706   4.781   4.121
  217POPC   GL1 3088   1.436   4.389   4.360
  217POPC   GL2 3089   1.156   4.037   4.285
  217POPC   C1A 3090   1.127   4.321   4.691
  217POPC   D2A 3091   1.292   4.496   5.013
  217POPC   C3A 3092   1.294   4.439   5.416
  217POPC   C4A 3093   1.455   4.623   5.768
  217POPC   C1B 3094   1.060   3.806   4.687
  217POPC   C2B 3095   1.039   3.958   5.128
  217POPC   C3B 3096   1.050   4.045   5.596
  217POPC   C4B 3097   1.387   3.995   5.939
  218POPC   NC3 3098   1.677   3.669   3.798
  218POPC   PO4 3099   2.190   3.746   4.060
  218POPC   GL1 3100   2.041   3.593   4.389
  218POPC   GL2 3101   2.206   3.297   4.344
  218POPC   C1A 3102   1.955   3.753   4.770
  218POPC   D2A 3103   1.879   3.935   5.158
  218POPC   C3A 3104   1.951   3.684   5.488
  218POPC   C4A 3105   2.163   3.702   5.839
  218POPC   C1B 3106   1.969   3.226   4.749
  218POPC   C2B 3107   2.089   3.242   5.188
  218POPC   C3B 3108   1.980   3.194   5.634
  218POPC   C4B 3109   2.184   3.247   6.027
  219POPC   NC3 3110  10.581   1.148   3.871
  219POPC   PO4 3111   9.937   1.244   3.926
  219POPC   GL1 3112  10.214   1.091   4.287
  219POPC   GL2 3113  10.618   1.093   4.360
  219POPC   C1A 3114  10.297   1.157   4.738
  219POPC   D2A 3115  10.072   1.258   5.099
  219POPC   C3A 3116  10.027   1.644   5.296
  219POPC   C4A 3117   9.989   1.407   5.667
  219POPC   C1B 3118  10.812   1.051   4.757
  219POPC   C2B 3119  10.632   0.967   5.135
  219POPC   C3B 3120  10.415   1.092   5.503
  219POPC   C4B 3121  10.640   1.018   5.889
  220POPC   NC3 3122   8.685   3.587   3.895
  220POPC   PO4 3123   9.245   3.306   3.703
  220POPC   GL1 3124   9.175   3.306   4.189
  220POPC   GL2 3125   8.868   3.415   4.330
  220POPC   C1A 3126   9.249   3.502   4.657
  220POPC   D2A 3127   9.233   3.809   5.042
  220POPC   C3A 3128   9.117   3.574   5.405
  220POPC   C4A 3129   8.979   3.404   5.788
  220POPC   C1B 3130   8.566   3.380   4.674
  220POPC   C2B 3131   8.441   3.252   5.114
  220POPC   C3B 3132   8.531   3.375   5.530
  220POPC   C4B 3133   8.395   3.639   5.872
  221POPC   NC3 3134   0.857   0.500   3.855
  221POPC   PO4 3135   1.425   0.107   3.816
  221POPC   GL1 3136   1.135   0.211   4.185
  221POPC   GL2 3137   1.123   0.558   4.301
  221POPC   C1A 3138   1.002   0.201   4.632
  221POPC   D2A 3139   0.957   0.400   5.027
  221POPC   C3A 3140   0.826   0.194   5.361
  221POPC   C4A 3141   0.987   0.354   5.733
  221POPC   C1B 3142   1.331   0.604   4.724
  221POPC   C2B 3143   1.603   0.550   5.106
  221POPC   C3B 3144   1.587   0.313   5.513
  221POPC   C4B 3145   1.437   0.560   5.843
  222POPC   NC3 3146   1.485   8.820   4.096
  222POPC   PO4 3147   0.825   8.958   3.972
  222POPC   GL1 3148   1.020   8.681   4.257
  222POPC   GL2 3149   1.094   8.958   4.434
  222POPC   C1A 3150   1.229   8.533   4.669
  222POPC   D2A 3151   1.041   8.629   5.081
  222POPC   C3A 3152   1.269   8.511   5.451
  222POPC   C4A 3153   1.376   8.649   5.857
  222POPC   C1B 3154   1.285   9.012   4.834
  222POPC   C2B 3155   1.345   9.022   5.250
  222POPC   C3B 3156   1.022   8.956   5.513
  222POPC   C4B 3157   1.159   9.111   5.856
  223POPC   NC3 3158   9.955   0.624   3.894
  223POPC   PO4 3159   9.753  11.457   3.860
  223POPC   GL1 3160   9.734   0.244   4.217
  223POPC   GL2 3161   9.410   0.321   4.236
  223POPC   C1A 3162   9.674   0.322   4.676
  223POPC   D2A 3163   9.910   0.340   5.020
  223POPC   C3A 3164   9.707   0.399   5.373
  223POPC   C4A 3165   9.820   0.442   5.777
  223POPC   C1B 3166   9.254   0.575   4.564
  223POPC   C2B 3167   9.285   0.475   5.013
  223POPC   C3B 3168   9.313   0.701   5.420
  223POPC   C4B 3169   9.363   0.624   5.823
  224POPC   NC3 3170   8.091   2.951   4.029
  224POPC   PO4 3171   7.890   2.348   3.655
  224POPC   GL1 3172   8.159   2.455   4.055
  224POPC   GL2 3173   7.974   2.500   4.332
  224POPC   C1A 3174   8.454   2.549   4.458
  224POPC   D2A 3175   8.505   2.822   4.846
  224POPC   C3A 3176   8.530   2.738   5.322
  224POPC   C4A 3177   8.374   2.585   5.749
  224POPC   C1B 3178   7.945   2.728   4.705
  224POPC   C2B 3179   8.000   2.975   5.056
  224POPC   C3B 3180   8.068   2.907   5.488
  224POPC   C4B 3181   7.878   2.793   5.877
  225POPC   NC3 3182   7.467   0.908   3.891
  225POPC   PO4 3183   7.584   1.615   3.927
  225POPC   GL1 3184   7.543   1.368   4.334
  225POPC   GL2 3185   7.440   1.007   4.400
  225POPC   C1A 3186   7.497   1.304   4.798
  225POPC   D2A 3187   7.594   1.320   5.227
  225POPC   C3A 3188   7.553   1.139   5.614
  225POPC   C4A 3189   7.621   1.480   5.817
  225POPC   C1B 3190   7.035   1.117   4.691
  225POPC   C2B 3191   6.897   1.362   5.061
  225POPC   C3B 3192   7.087   1.249   5.449
  225POPC   C4B 3193   7.077   0.980   5.832
  226POPC   NC3 3194  10.310   4.871   3.850
  226POPC   PO4 3195  10.822   5.410   3.962
  226POPC   GL1 3196  10.591   5.086   4.226
  226POPC   GL2 3197  10.196   5.030   4.319
  226POPC   C1A 3198  10.634   5.105   4.683
  226POPC   D2A 3199  10.485   5.224   5.089
  226POPC   C3A 3200  10.668   5.255   5.494
  226POPC   C4A 3201  10.418   5.180   5.864
  226POPC   C1B 3202  10.318   4.708   4.584
  226POPC   C2B 3203  10.319   4.746   5.031
  226POPC   C3B 3204  10.229   4.949   5.433
  226POPC   C4B 3205  10.026   4.799   5.768
  227POPC   NC3 3206   2.142   4.209   4.004
  227POPC   PO4 3207   1.484   4.092   3.855
  227POPC   GL1 3208   1.650   3.931   4.299
  227POPC   GL2 3209   1.900   4.108   4.415
  227POPC   C1A 3210   1.577   4.110   4.790
  227POPC   D2A 3211   1.759   4.407   5.181
  227POPC   C3A 3212   1.713   4.180   5.592
  227POPC   C4A 3213   1.889   4.074   6.017
  227POPC   C1B 3214   2.094   4.249   4.772
  227POPC   C2B 3215   2.277   4.235   5.171
  227POPC   C3B 3216   2.220   4.128   5.570
  227POPC   C4B 3217   2.357   4.281   5.963
  228POPC   NC3 3218  11.035   4.238   3.916
  228POPC   PO4 3219  11.472   4.714   3.903
  228POPC   GL1 3220   0.006   4.528   4.294
  228POPC   GL2 3221  11.145   4.538   4.349
  228POPC   C1A 3222   0.194   4.398   4.696
  228POPC   D2A 3223   0.171   4.434   5.146
  228POPC   C3A 3224  11.304   4.362   5.386
  228POPC   C4A 3225  11.182   4.551   5.789
  228POPC   C1B 3226  11.268   4.127   4.556
  228POPC   C2B 3227  11.415   3.989   4.969
  228POPC   C3B 3228  11.300   3.836   5.378
  228POPC   C4B 3229  11.145   4.031   5.748
  229POPC   NC3 3230   3.465   5.757   4.015
  229POPC   PO4 3231   3.893   5.535   4.269
  229POPC   GL1 3232   3.625   5.801   4.547
  229POPC   GL2 3233   3.359   6.021   4.442
  229POPC   C1A 3234   3.508   5.939   4.993
  229POPC   D2A 3235   3.596   5.788   5.437
  229POPC   C3A 3236   3.750   6.073   5.765
  229POPC   C4A 3237   3.669   6.105   6.186
  229POPC   C1B 3238   3.145   5.688   4.705
  229POPC   C2B 3239   3.122   5.613   5.167
  229POPC   C3B 3240   3.163   5.592   5.618
  229POPC   C4B 3241   3.258   5.938   5.852
  230POPC   NC3 3242   9.101   2.903   3.854
  230POPC   PO4 3243   8.509   3.153   3.999
  230POPC   GL1 3244   8.797   2.894   4.266
  230POPC   GL2 3245   8.898   2.519   4.150
  230POPC   C1A 3246   8.977   3.035   4.654
  230POPC   D2A 3247   8.936   3.303   5.010
  230POPC   C3A 3248   8.943   3.082   5.387
  230POPC   C4A 3249   8.730   2.957   5.753
  230POPC   C1B 3250   8.979   2.519   4.603
  230POPC   C2B 3251   8.971   2.676   5.040
  230POPC   C3B 3252   9.050   2.591   5.485
  230POPC   C4B 3253   8.923   2.517   5.924
  231POPC   NC3 3254   9.982   3.142   4.109
  231POPC   PO4 3255  10.226   2.478   3.968
  231POPC   GL1 3256  10.406   2.605   4.328
  231POPC   GL2 3257  10.765   2.584   4.273
  231POPC   C1A 3258  10.301   2.829   4.698
  231POPC   D2A 3259  10.377   2.718   5.129
  231POPC   C3A 3260  10.412   2.981   5.493
  231POPC   C4A 3261  10.242   2.787   5.856
  231POPC   C1B 3262  10.736   2.556   4.739
  231POPC   C2B 3263  10.771   2.407   5.161
  231POPC   C3B 3264  10.730   2.594   5.602
  231POPC   C4B 3265  10.719   2.818   6.008
  232POPC   NC3 3266   1.707   7.422   4.007
  232POPC   PO4 3267   2.331   7.629   3.944
  232POPC   GL1 3268   2.106   7.516   4.295
  232POPC   GL2 3269   2.050   7.164   4.270
  232POPC   C1A 3270   2.051   7.382   4.711
  232POPC   D2A 3271   1.784   7.382   4.990
  232POPC   C3A 3272   2.035   7.525   5.301
  232POPC   C4A 3273   2.222   7.705   5.667
  232POPC   C1B 3274   1.676   7.059   4.580
  232POPC   C2B 3275   1.639   6.869   4.989
  232POPC   C3B 3276   1.846   7.028   5.356
  232POPC   C4B 3277   2.033   7.232   5.729
  233POPC   NC3 3278   0.359   8.871   3.963
  233POPC   PO4 3279   0.118   8.330   4.298
  233POPC   GL1 3280   0.282   8.707   4.524
  233POPC   GL2 3281   0.566   8.901   4.426
  233POPC   C1A 3282   0.135   9.087   4.754
  233POPC   D2A 3283   0.060   9.203   5.189
  233POPC   C3A 3284   0.211   8.872   5.448
  233POPC   C4A 3285   0.216   8.647   5.846
  233POPC   C1B 3286   0.748   9.026   4.823
  233POPC   C2B 3287   0.603   9.147   5.240
  233POPC   C3B 3288   0.565   9.143   5.689
  233POPC   C4B 3289   0.712   8.815   5.926
  234POPC   NC3 3290   3.501   9.079   3.882
  234POPC   PO4 3291   3.253   8.523   4.077
  234POPC   GL1 3292   3.415   8.704   4.441
  234POPC   GL2 3293   3.446   9.048   4.419
  234POPC   C1A 3294   3.483   8.565   4.878
  234POPC   D2A 3295   3.731   8.620   5.254
  234POPC   C3A 3296   3.480   8.583   5.637
  234POPC   C4A 3297   3.452   8.383   6.052
  234POPC   C1B 3298   3.235   9.007   4.840
  234POPC   C2B 3299   3.339   8.955   5.273
  234POPC   C3B 3300   3.566   9.088   5.657
  234POPC   C4B 3301   3.369   9.036   6.061
  235POPC   NC3 3302   2.766   2.766   3.819
  235POPC   PO4 3303   3.208   2.193   3.872
  235POPC   GL1 3304   2.849   2.414   4.172
  235POPC   GL2 3305   2.896   2.782   4.351
  235POPC   C1A 3306   2.605   2.485   4.592
  235POPC   D2A 3307   2.830   2.604   4.998
  235POPC   C3A 3308   2.658   2.633   5.416
  235POPC   C4A 3309   2.846   2.721   5.802
  235POPC   C1B 3310   2.918   3.036   4.765
  235POPC   C2B 3311   2.607   3.094   5.161
  235POPC   C3B 3312   2.507   3.067   5.640
  235POPC   C4B 3313   2.566   2.968   6.128
  236POPC   NC3 3314   1.837   0.299   3.881
  236POPC   PO4 3315   1.592  11.122   4.062
  236POPC   GL1 3316   1.602   0.049   4.315
  236POPC   GL2 3317   1.634   0.455   4.311
  236POPC   C1A 3318   1.710   0.202   4.741
  236POPC   D2A 3319   2.082   0.096   4.947
  236POPC   C3A 3320   2.006   0.008   5.352
  236POPC   C4A 3321   2.178   0.148   5.713
  236POPC   C1B 3322   2.065   0.506   4.545
  236POPC   C2B 3323   2.141   0.607   4.997
  236POPC   C3B 3324   2.038   0.551   5.420
  236POPC   C4B 3325   2.379   0.629   5.696
  237POPC   NC3 3326   1.965   2.715   3.889
  237POPC   PO4 3327   2.418   3.081   3.789
  237POPC   GL1 3328   2.412   2.854   4.207
  237POPC   GL2 3329   2.081   2.781   4.383
  237POPC   C1A 3330   2.427   2.963   4.680
  237POPC   D2A 3331   2.329   2.652   5.004
  237POPC   C3A 3332   2.153   2.763   5.384
  237POPC   C4A 3333   2.197   2.743   5.843
  237POPC   C1B 3334   1.864   2.715   4.789
  237POPC   C2B 3335   1.516   2.515   5.000
  237POPC   C3B 3336   1.419   2.570   5.424
  237POPC   C4B 3337   1.740   2.693   5.669
  238POPC   NC3 3338   0.236   0.173   4.063
  238POPC   PO4 3339   0.423   0.767   3.845
  238POPC   GL1 3340   0.624   0.688   4.269
  238POPC   GL2 3341   0.637   0.350   4.313
  238POPC   C1A 3342   0.599   0.587   4.735
  238POPC   D2A 3343   0.448   0.492   5.138
  238POPC   C3A 3344   0.641   0.644   5.478
  238POPC   C4A 3345   0.390   0.734   5.746
  238POPC   C1B 3346   0.519   0.073   4.667
  238POPC   C2B 3347   0.387  11.496   5.082
  238POPC   C3B 3348   0.353   0.064   5.529
  238POPC   C4B 3349   0.501   0.262   5.884
  239POPC   NC3 3350   1.913   9.561   3.880
  239POPC   PO4 3351   2.486   9.664   4.092
  239POPC   GL1 3352   2.088   9.693   4.355
  239POPC   GL2 3353   1.705   9.679   4.312
  239POPC   C1A 3354   1.995   9.579   4.786
  239POPC   D2A 3355   2.278   9.531   5.093
  239POPC   C3A 3356   2.255   9.914   5.344
  239POPC   C4A 3357   2.031   9.696   5.655
  239POPC   C1B 3358   1.587   9.357   4.609
  239POPC   C2B 3359   1.465   9.466   5.003
  239POPC   C3B 3360   1.644   9.481   5.383
  239POPC   C4B 3361   1.495   9.506   5.762
  240POPC   NC3 3362   0.376   1.913   4.201
  240POPC   PO4 3363  11.499   2.343   3.846
  240POPC   GL1 3364   0.210   2.367   4.342
  240POPC   GL2 3365   0.554   2.234   4.543
  240POPC   C1A 3366   0.183   2.397   4.823
  240POPC   D2A 3367   0.331   2.346   5.243
  240POPC   C3A 3368   0.274   1.959   5.474
  240POPC   C4A 3369   0.080   1.876   5.879
  240POPC   C1B 3370   0.358   1.910   4.873
  240POPC   C2B 3371   0.528   1.613   5.208
  240POPC   C3B 3372   0.758   1.807   5.585
  240POPC   C4B 3373   0.641   2.248   5.721
  241POPC   NC3 3374   9.144   7.458   3.932
  241POPC   PO4 3375   8.656   7.797   4.032
  241POPC   GL1 3376   8.861   7.544   4.355
  241POPC   GL2 3377   9.025   7.201   4.398
  241POPC   C1A 3378   8.939   7.599   4.762
  241POPC   D2A 3379   8.785   7.528   5.173
  241POPC   C3A 3380   9.039   7.403   5.511
  241POPC   C4A 3381   8.879   7.318   5.950
  241POPC   C1B 3382   8.963   7.096   4.874
  241POPC   C2B 3383   8.926   6.934   5.334
  241POPC   C3B 3384   8.907   6.808   5.803
  241POPC   C4B 3385   9.088   6.911   6.251
  242POPC   NC3 3386   2.888  10.850   3.894
  242POPC   PO4 3387   2.395  11.384   3.935
  242POPC   GL1 3388   2.597  11.127   4.228
  242POPC   GL2 3389   2.921  11.165   4.281
  242POPC   C1A 3390   2.622  11.281   4.671
  242POPC   D2A 3391   2.778  11.419   5.070
  242POPC   C3A 3392   2.507  11.310   5.407
  242POPC   C4A 3393   2.716  11.101   5.696
  242POPC   C1B 3394   2.929  10.873   4.582
  242POPC   C2B 3395   2.974  10.906   5.013
  242POPC   C3B 3396   3.139  10.860   5.421
  242POPC   C4B 3397   3.063  10.766   5.819
  243POPC   NC3 3398   6.458   2.074   3.935
  243POPC   PO4 3399   6.486   1.375   3.855
  243POPC   GL1 3400   6.468   1.628   4.219
  243POPC   GL2 3401   6.771   1.830   4.313
  243POPC   C1A 3402   6.347   1.689   4.638
  243POPC   D2A 3403   6.282   1.583   5.064
  243POPC   C3A 3404   6.568   1.764   5.366
  243POPC   C4A 3405   6.455   1.839   5.787
  243POPC   C1B 3406   6.998   1.962   4.709
  243POPC   C2B 3407   6.973   2.053   5.180
  243POPC   C3B 3408   6.747   2.266   5.495
  243POPC   C4B 3409   6.555   2.352   5.877
  244POPC   NC3 3410   9.502   1.386   3.770
  244POPC   PO4 3411   9.498   0.714   3.897
  244POPC   GL1 3412   9.662   0.961   4.257
  244POPC   GL2 3413   9.365   1.105   4.427
  244POPC   C1A 3414   9.784   1.072   4.695
  244POPC   D2A 3415   9.655   0.814   5.007
  244POPC   C3A 3416   9.798   0.923   5.378
  244POPC   C4A 3417   9.761   0.937   5.771
  244POPC   C1B 3418   9.391   1.391   4.798
  244POPC   C2B 3419   9.566   1.337   5.172
  244POPC   C3B 3420   9.425   1.235   5.542
  244POPC   C4B 3421   9.551   1.369   5.937
  245POPC   NC3 3422   8.033   8.668   3.949
  245POPC   PO4 3423   8.194   9.231   3.780
  245POPC   GL1 3424   8.188   9.000   4.261
  245POPC   GL2 3425   7.928   9.163   4.397
  245POPC   C1A 3426   8.268   9.033   4.735
  245POPC   D2A 3427   7.970   8.999   5.049
  245POPC   C3A 3428   8.246   8.975   5.413
  245POPC   C4A 3429   8.176   9.119   5.830
  245POPC   C1B 3430   7.883   8.709   4.613
  245POPC   C2B 3431   7.751   8.520   5.019
  245POPC   C3B 3432   7.909   8.405   5.422
  245POPC   C4B 3433   8.159   8.605   5.749
  246POPC   NC3 3434   7.433   8.069   3.935
  246POPC   PO4 3435   7.099   7.636   4.055
  246POPC   GL1 3436   7.176   7.982   4.383
  246POPC   GL2 3437   7.284   8.342   4.342
  246POPC   C1A 3438   7.217   8.070   4.831
  246POPC   D2A 3439   7.528   8.085   5.180
  246POPC   C3A 3440   7.389   7.961   5.614
  246POPC   C4A 3441   7.269   7.879   6.070
  246POPC   C1B 3442   7.356   8.578   4.698
  246POPC   C2B 3443   7.211   8.504   5.101
  246POPC   C3B 3444   7.386   8.476   5.488
  246POPC   C4B 3445   7.160   8.340   5.877
  247POPC   NC3 3446   4.325   2.360   3.942
  247POPC   PO4 3447   4.140   1.723   3.740
  247POPC   GL1 3448   4.129   1.934   4.149
  247POPC   GL2 3449   4.436   2.006   4.353
  247POPC   C1A 3450   3.961   1.917   4.568
  247POPC   D2A 3451   4.044   2.160   4.952
  247POPC   C3A 3452   4.081   1.926   5.336
  247POPC   C4A 3453   4.111   1.627   5.698
  247POPC   C1B 3454   4.399   1.809   4.797
  247POPC   C2B 3455   4.465   1.611   5.203
  247POPC   C3B 3456   4.580   1.807   5.575
  247POPC   C4B 3457   4.363   2.219   5.648
  248POPC   NC3 3458  10.851   0.376   4.263
  248POPC   PO4 3459  10.427   0.696   3.829
  248POPC   GL1 3460  10.420   0.623   4.265
  248POPC   GL2 3461  10.244   0.322   4.300
  248POPC   C1A 3462  10.483   0.498   4.742
  248POPC   D2A 3463  10.425   0.290   5.107
  248POPC   C3A 3464  10.671   0.521   5.374
  248POPC   C4A 3465  10.595   0.441   5.772
  248POPC   C1B 3466  10.040   0.657   4.592
  248POPC   C2B 3467  10.167   0.765   5.039
  248POPC   C3B 3468  10.188   0.624   5.462
  248POPC   C4B 3469  10.219   0.768   5.885
  249POPC   NC3 3470   9.140   0.435   3.819
  249POPC   PO4 3471   8.762  11.360   3.771
  249POPC   GL1 3472   9.049  11.469   4.154
  249POPC   GL2 3473   8.885   0.255   4.314
  249POPC   C1A 3474   9.192   0.049   4.663
  249POPC   D2A 3475   8.995   0.072   5.154
  249POPC   C3A 3476   9.219   0.195   5.551
  249POPC   C4A 3477   9.178   0.217   6.034
  249POPC   C1B 3478   8.805   0.364   4.777
  249POPC   C2B 3479   8.833   0.591   5.211
  249POPC   C3B 3480   8.859   0.554   5.681
  249POPC   C4B 3481   8.679   0.799   6.012
  250POPC   NC3 3482   7.845   2.005   3.960
  250POPC   PO4 3483   8.443   1.661   3.831
  250POPC   GL1 3484   8.212   1.708   4.243
  250POPC   GL2 3485   8.191   2.039   4.346
  250POPC   C1A 3486   7.996   1.737   4.688
  250POPC   D2A 3487   8.105   1.912   5.124
  250POPC   C3A 3488   7.822   1.829   5.458
  250POPC   C4A 3489   7.758   1.965   5.871
  250POPC   C1B 3490   8.140   2.250   4.743
  250POPC   C2B 3491   8.100   2.471   5.137
  250POPC   C3B 3492   7.962   2.344   5.543
  250POPC   C4B 3493   8.250   2.051   5.719
  251POPC   NC3 3494   2.948   8.608   3.760
  251POPC   PO4 3495   2.283   8.536   3.942
  251POPC   GL1 3496   2.374   8.352   4.390
  251POPC   GL2 3497   2.360   7.964   4.387
  251POPC   C1A 3498   2.504   8.310   4.875
  251POPC   D2A 3499   2.852   8.213   5.233
  251POPC   C3A 3500   3.062   8.205   5.688
  251POPC   C4A 3501   2.875   8.240   6.131
  251POPC   C1B 3502   2.395   7.771   4.820
  251POPC   C2B 3503   2.391   7.957   5.258
  251POPC   C3B 3504   2.569   8.065   5.696
  251POPC   C4B 3505   2.440   7.911   6.114
  252POPC   NC3 3506   6.541   3.620   4.044
  252POPC   PO4 3507   6.922   3.457   4.247
  252POPC   GL1 3508   6.611   3.606   4.555
  252POPC   GL2 3509   6.330   3.393   4.494
  252POPC   C1A 3510   6.407   3.623   4.988
  252POPC   D2A 3511   6.258   3.901   5.345
  252POPC   C3A 3512   6.592   3.870   5.648
  252POPC   C4A 3513   6.850   3.492   5.798
  252POPC   C1B 3514   6.618   3.155   4.790
  252POPC   C2B 3515   6.733   3.238   5.221
  252POPC   C3B 3516   6.436   3.413   5.494
  252POPC   C4B 3517   6.150   3.591   5.785
  253POPC   NC3 3518   8.172   9.658   3.975
  253POPC   PO4 3519   7.661  10.044   4.045
  253POPC   GL1 3520   7.932   9.859   4.365
  253POPC   GL2 3521   8.303   9.843   4.445
  253POPC   C1A 3522   7.962  10.040   4.778
  253POPC   D2A 3523   7.917   9.789   5.139
  253POPC   C3A 3524   7.694   9.827   5.511
  253POPC   C4A 3525   7.675   9.915   5.948
  253POPC   C1B 3526   8.177   9.561   4.765
  253POPC   C2B 3527   8.249   9.406   5.128
  253POPC   C3B 3528   7.973   9.403   5.475
  253POPC   C4B 3529   8.117   9.676   5.802
  254POPC   NC3 3530   9.306   9.959   3.671
  254POPC   PO4 3531   9.159   9.350   4.012
  254POPC   GL1 3532   9.305   9.664   4.275
  254POPC   GL2 3533   9.684   9.721   4.341
  254POPC   C1A 3534   9.212   9.674   4.702
  254POPC   D2A 3535   9.242   9.391   5.071
  254POPC   C3A 3536   9.228   9.551   5.498
  254POPC   C4A 3537   9.414   9.550   5.911
  254POPC   C1B 3538   9.925   9.660   4.768
  254POPC   C2B 3539   9.890   9.642   5.239
  254POPC   C3B 3540  10.001   9.477   5.647
  254POPC   C4B 3541   9.977   9.435   6.115
  255POPC   NC3 3542   5.242   0.979   4.009
  255POPC   PO4 3543   5.127   1.583   3.657
  255POPC   GL1 3544   5.038   1.413   4.150
  255POPC   GL2 3545   4.793   1.122   4.249
  255POPC   C1A 3546   5.118   1.288   4.605
  255POPC   D2A 3547   5.236   1.415   5.032
  255POPC   C3A 3548   4.899   1.373   5.344
  255POPC   C4A 3549   4.891   1.366   5.776
  255POPC   C1B 3550   4.777   0.869   4.621
  255POPC   C2B 3551   4.963   0.967   5.017
  255POPC   C3B 3552   5.091   0.900   5.430
  255POPC   C4B 3553   5.171   0.964   5.867
  256POPC   NC3 3554   0.245   7.993   4.010
  256POPC   PO4 3555   0.901   7.766   4.041
  256POPC   GL1 3556   0.617   8.005   4.345
  256POPC   GL2 3557   0.614   8.365   4.220
  256POPC   C1A 3558   0.455   8.067   4.782
  256POPC   D2A 3559   0.187   7.915   5.113
  256POPC   C3A 3560   0.404   8.060   5.480
  256POPC   C4A 3561   0.483   7.834   5.852
  256POPC   C1B 3562   0.727   8.484   4.658
  256POPC   C2B 3563   0.516   8.612   5.049
  256POPC   C3B 3564   0.633   8.569   5.485
  256POPC   C4B 3565   0.607   8.323   5.889
  257POPC   NC3 3566  10.197   7.336   4.239
  257POPC   PO4 3567   9.610   7.518   3.924
  257POPC   GL1 3568   9.716   7.526   4.357
  257POPC   GL2 3569   9.383   7.572   4.378
  257POPC   C1A 3570   9.916   7.447   4.809
  257POPC   D2A 3571  10.104   7.446   5.229
  257POPC   C3A 3572   9.829   7.648   5.504
  257POPC   C4A 3573   9.658   7.526   5.916
  257POPC   C1B 3574   9.399   7.358   4.748
  257POPC   C2B 3575   9.504   7.437   5.165
  257POPC   C3B 3576   9.595   7.187   5.516
  257POPC   C4B 3577   9.320   7.122   5.834
  258POPC   NC3 3578   8.289  11.145   3.677
  258POPC   PO4 3579   8.782  10.925   4.131
  258POPC   GL1 3580   8.811  11.158   4.478
  258POPC   GL2 3581   9.122  11.076   4.485
  258POPC   C1A 3582   8.622  11.378   4.817
  258POPC   D2A 3583   8.603  11.212   5.242
  258POPC   C3A 3584   8.641  11.501   5.579
  258POPC   C4A 3585   8.806  11.407   5.979
  258POPC   C1B 3586   9.047  11.129   4.922
  258POPC   C2B 3587   9.116  10.925   5.252
  258POPC   C3B 3588   9.074  11.193   5.578
  258POPC   C4B 3589   9.331  11.244   5.948
  259POPC   NC3 3590   1.709   6.600   3.775
  259POPC   PO4 3591   2.206   6.244   3.758
  259POPC   GL1 3592   1.922   6.354   4.163
  259POPC   GL2 3593   1.887   6.690   4.248
  259POPC   C1A 3594   1.823   6.307   4.648
  259POPC   D2A 3595   1.719   6.183   5.100
  259POPC   C3A 3596   1.924   6.302   5.519
  259POPC   C4A 3597   2.278   6.389   5.838
  259POPC   C1B 3598   2.067   6.757   4.680
  259POPC   C2B 3599   2.096   6.609   5.109
  259POPC   C3B 3600   2.242   6.769   5.512
  259POPC   C4B 3601   1.891   6.750   5.804
  260POPC   NC3 3602  11.187   5.695   3.899
  260POPC   PO4 3603  10.760   6.205   3.996
  260POPC   GL1 3604  10.918   5.864   4.305
  260POPC   GL2 3605  11.287   5.729   4.379
  260POPC   C1A 3606  10.942   5.708   4.748
  260POPC   D2A 3607  10.714   5.667   5.133
  260POPC   C3A 3608  10.917   5.740   5.506
  260POPC   C4A 3609  10.792   5.572   5.880
  260POPC   C1B 3610  11.465   5.915   4.744
  260POPC   C2B 3611  11.341   5.972   5.163
  260POPC   C3B 3612  11.420   5.813   5.574
  260POPC   C4B 3613  11.182   5.879   5.963
  261POPC   NC3 3614   5.045   9.275   4.026
  261POPC   PO4 3615   5.237  10.000   3.832
  261POPC   GL1 3616   5.146   9.737   4.197
  261POPC   GL2 3617   5.273   9.479   4.436
  261POPC   C1A 3618   4.979   9.866   4.609
  261POPC   D2A 3619   4.995   9.715   5.027
  261POPC   C3A 3620   4.949   9.920   5.406
  261POPC   C4A 3621   5.004   9.723   5.803
  261POPC   C1B 3622   4.938   9.308   4.731
  261POPC   C2B 3623   4.744   9.284   5.172
  261POPC   C3B 3624   4.720   9.285   5.642
  261POPC   C4B 3625   4.684   9.390   6.093
  262POPC   NC3 3626  10.878   6.660   3.956
  262POPC   PO4 3627  11.349   7.013   3.979
  262POPC   GL1 3628  11.219   6.811   4.330
  262POPC   GL2 3629  11.207   6.450   4.287
  262POPC   C1A 3630  11.313   6.733   4.733
  262POPC   D2A 3631  11.197   6.521   5.067
  262POPC   C3A 3632  11.185   6.746   5.435
  262POPC   C4A 3633  11.315   7.010   5.762
  262POPC   C1B 3634  11.056   6.230   4.639
  262POPC   C2B 3635  10.869   6.140   5.022
  262POPC   C3B 3636  11.001   6.233   5.444
  262POPC   C4B 3637  11.179   6.360   5.816
  263POPC   NC3 3638  11.116   7.435   3.857
  263POPC   PO4 3639  10.537   6.962   3.786
  263POPC   GL1 3640  10.856   7.134   4.175
  263POPC   GL2 3641  11.086   7.429   4.346
  263POPC   C1A 3642  10.949   7.091   4.687
  263POPC   D2A 3643  10.838   7.011   5.131
  263POPC   C3A 3644  10.884   7.173   5.536
  263POPC   C4A 3645  10.853   7.036   5.981
  263POPC   C1B 3646  11.421   7.258   4.644
  263POPC   C2B 3647  11.343   7.140   5.088
  263POPC   C3B 3648  11.344   7.411   5.462
  263POPC   C4B 3649  11.105   7.506   5.859
  264POPC   NC3 3650   5.326  10.623   4.040
  264POPC   PO4 3651   5.984  10.616   4.070
  264POPC   GL1 3652   5.823  10.500   4.412
  264POPC   GL2 3653   6.010  10.196   4.359
  264POPC   C1A 3654   5.707  10.688   4.817
  264POPC   D2A 3655   5.544  10.801   5.247
  264POPC   C3A 3656   5.655  10.560   5.616
  264POPC   C4A 3657   5.745  10.643   6.043
  264POPC   C1B 3658   5.840  10.153   4.774
  264POPC   C2B 3659   5.754  10.306   5.159
  264POPC   C3B 3660   5.828  10.092   5.499
  264POPC   C4B 3661   5.811  10.151   5.901
  265POPC   NC3 3662   0.136   3.441   3.982
  265POPC   PO4 3663  11.112   3.790   3.904
  265POPC   GL1 3664  11.213   3.508   4.232
  265POPC   GL2 3665  10.955   3.344   4.354
  265POPC   C1A 3666  11.424   3.327   4.602
  265POPC   D2A 3667  11.229   3.209   5.003
  265POPC   C3A 3668  11.382   3.294   5.438
  265POPC   C4A 3669  11.465   3.191   5.883
  265POPC   C1B 3670  11.071   3.665   4.697
  265POPC   C2B 3671  10.917   3.627   5.099
  265POPC   C3B 3672  10.889   3.552   5.518
  265POPC   C4B 3673  11.118   3.553   5.889
  266POPC   NC3 3674   1.139  11.262   3.931
  266POPC   PO4 3675   0.886  10.637   4.098
  266POPC   GL1 3676   1.243  10.793   4.354
  266POPC   GL2 3677   1.183  11.152   4.410
  266POPC   C1A 3678   1.334  10.852   4.828
  266POPC   D2A 3679   1.044  10.863   5.201
  266POPC   C3A 3680   1.106  10.920   5.655
  266POPC   C4A 3681   1.485  10.885   5.917
  266POPC   C1B 3682   1.343  11.357   4.725
  266POPC   C2B 3683   1.341   0.078   5.099
  266POPC   C3B 3684   1.228  11.409   5.481
  266POPC   C4B 3685   1.295  11.481   5.902
  267POPC   NC3 3686   1.561   5.007   3.763
  267POPC   PO4 3687   0.950   5.362   3.749
  267POPC   GL1 3688   1.090   5.349   4.195
  267POPC   GL2 3689   1.267   5.046   4.198
  267POPC   C1A 3690   1.300   5.377   4.623
  267POPC   D2A 3691   1.134   5.376   5.066
  267POPC   C3A 3692   1.341   5.432   5.454
  267POPC   C4A 3693   1.484   5.156   5.789
  267POPC   C1B 3694   1.201   4.840   4.611
  267POPC   C2B 3695   0.988   4.891   5.009
  267POPC   C3B 3696   1.156   4.934   5.423
  267POPC   C4B 3697   1.000   4.870   5.848
  268POPC   NC3 3698   1.138   6.736   4.088
  268POPC   PO4 3699   1.492   6.195   3.865
  268POPC   GL1 3700   1.412   6.272   4.315
  268POPC   GL2 3701   1.440   6.605   4.472
  268POPC   C1A 3702   1.172   6.223   4.735
  268POPC   D2A 3703   1.243   6.388   5.167
  268POPC   C3A 3704   1.026   6.322   5.555
  268POPC   C4A 3705   1.413   6.521   5.717
  268POPC   C1B 3706   1.151   6.732   4.794
  268POPC   C2B 3707   1.148   6.928   5.177
  268POPC   C3B 3708   1.017   6.824   5.563
  268POPC   C4B 3709   1.034   6.982   5.934
  269POPC   NC3 3710   0.591   5.302   4.064
  269POPC   PO4 3711   0.746   4.596   3.938
  269POPC   GL1 3712   0.467   4.800   4.240
  269POPC   GL2 3713   0.780   4.930   4.350
  269POPC   C1A 3714   0.399   4.974   4.696
  269POPC   D2A 3715   0.503   4.807   5.137
  269POPC   C3A 3716   0.464   4.962   5.564
  269POPC   C4A 3717   0.446   4.860   6.017
  269POPC   C1B 3718   0.814   5.249   4.674
  269POPC   C2B 3719   0.629   5.292   5.088
  269POPC   C3B 3720   0.822   5.321   5.489
  269POPC   C4B 3721   0.711   5.270   5.907
  270POPC   NC3 3722   6.473   0.901   3.777
  270POPC   PO4 3723   7.033   0.942   4.080
  270POPC   GL1 3724   6.656   0.805   4.302
  270POPC   GL2 3725   6.386   1.074   4.272
  270POPC   C1A 3726   6.652   0.699   4.752
  270POPC   D2A 3727   6.878   0.851   5.117
  270POPC   C3A 3728   6.692   0.864   5.519
  270POPC   C4A 3729   6.425   0.930   5.859
  270POPC   C1B 3730   6.498   1.193   4.704
  270POPC   C2B 3731   6.445   1.118   5.140
  270POPC   C3B 3732   6.362   1.322   5.517
  270POPC   C4B 3733   6.706   1.387   5.741
  271POPC   NC3 3734  10.272   7.371   3.680
  271POPC   PO4 3735  10.570   7.604   4.190
  271POPC   GL1 3736  10.588   7.385   4.536
  271POPC   GL2 3737  10.488   7.012   4.491
  271POPC   C1A 3738  10.488   7.324   4.913
  271POPC   D2A 3739  10.667   7.537   5.209
  271POPC   C3A 3740  10.509   7.528   5.583
  271POPC   C4A 3741  10.679   7.853   5.794
  271POPC   C1B 3742  10.221   6.892   4.810
  271POPC   C2B 3743  10.327   6.942   5.225
  271POPC   C3B 3744  10.398   7.032   5.602
  271POPC   C4B 3745  10.067   7.263   5.728
  272POPC   NC3 3746   9.544   7.986   3.982
  272POPC   PO4 3747  10.107   7.816   3.678
  272POPC   GL1 3748  10.041   7.865   4.146
  272POPC   GL2 3749   9.971   8.232   4.219
  272POPC   C1A 3750   9.876   7.926   4.613
  272POPC   D2A 3751   9.679   7.910   5.035
  272POPC   C3A 3752   9.788   8.161   5.426
  272POPC   C4A 3753   9.810   8.010   5.853
  272POPC   C1B 3754   9.604   8.358   4.527
  272POPC   C2B 3755   9.376   8.364   4.939
  272POPC   C3B 3756   9.308   8.306   5.366
  272POPC   C4B 3757   9.377   8.264   5.794
  273POPC   NC3 3758   0.927   9.400   3.837
  273POPC   PO4 3759   1.583   9.249   3.975
  273POPC   GL1 3760   1.250   9.399   4.230
  273POPC   GL2 3761   1.174   9.732   4.252
  273POPC   C1A 3762   1.061   9.421   4.645
  273POPC   D2A 3763   0.886   9.522   5.024
  273POPC   C3A 3764   1.109   9.472   5.403
  273POPC   C4A 3765   0.897   9.524   5.782
  273POPC   C1B 3766   1.353   9.843   4.651
  273POPC   C2B 3767   1.208   9.924   5.049
  273POPC   C3B 3768   1.328   9.975   5.470
  273POPC   C4B 3769   1.173   9.929   5.880
  274POPC   NC3 3770   0.561   6.094   3.787
  274POPC   PO4 3771   0.686   6.779   3.965
  274POPC   GL1 3772   0.425   6.463   4.154
  274POPC   GL2 3773   0.674   6.227   4.283
  274POPC   C1A 3774   0.181   6.393   4.560
  274POPC   D2A 3775   0.239   6.579   4.993
  274POPC   C3A 3776   0.066   6.385   5.388
  274POPC   C4A 3777   0.109   6.608   5.753
  274POPC   C1B 3778   0.697   6.504   4.648
  274POPC   C2B 3779   0.740   6.425   5.096
  274POPC   C3B 3780   0.560   6.529   5.501
  274POPC   C4B 3781   0.530   6.912   5.758
  275POPC   NC3 3782   4.800  10.199   3.734
  275POPC   PO4 3783   4.893  10.800   4.033
  275POPC   GL1 3784   4.795  10.453   4.236
  275POPC   GL2 3785   5.071  10.234   4.242
  275POPC   C1A 3786   4.859  10.377   4.673
  275POPC   D2A 3787   4.702  10.152   4.987
  275POPC   C3A 3788   4.731  10.391   5.331
  275POPC   C4A 3789   4.796  10.671   5.656
  275POPC   C1B 3790   5.360  10.269   4.600
  275POPC   C2B 3791   5.260  10.383   5.011
  275POPC   C3B 3792   5.220  10.391   5.433
  275POPC   C4B 3793   5.340  10.118   5.732
  276POPC   NC3 3794   4.604   2.888   3.956
  276POPC   PO4 3795   4.012   3.083   3.968
  276POPC   GL1 3796   4.215   2.744   4.278
  276POPC   GL2 3797   4.084   2.412   4.389
  276POPC   C1A 3798   4.413   2.598   4.714
  276POPC   D2A 3799   4.253   2.586   5.160
  276POPC   C3A 3800   4.508   2.693   5.537
  276POPC   C4A 3801   4.845   2.683   5.839
  276POPC   C1B 3802   3.894   2.628   4.733
  276POPC   C2B 3803   3.696   2.505   5.118
  276POPC   C3B 3804   3.908   2.399   5.482
  276POPC   C4B 3805   4.089   2.604   5.827
  277POPC   NC3 3806   8.705   4.657   3.864
  277POPC   PO4 3807   8.747   4.039   3.867
  277POPC   GL1 3808   8.954   3.930   4.266
  277POPC   GL2 3809   9.087   4.228   4.444
  277POPC   C1A 3810   8.853   3.851   4.716
  277POPC   D2A 3811   8.692   3.722   5.141
  277POPC   C3A 3812   8.753   3.867   5.577
  277POPC   C4A 3813   8.531   4.139   5.851
  277POPC   C1B 3814   9.010   4.366   4.874
  277POPC   C2B 3815   8.935   4.246   5.307
  277POPC   C3B 3816   9.053   4.310   5.748
  277POPC   C4B 3817   8.838   4.410   6.145
  278POPC   NC3 3818   1.045   2.932   4.051
  278POPC   PO4 3819   1.256   3.509   3.791
  278POPC   GL1 3820   1.300   3.553   4.220
  278POPC   GL2 3821   1.050   3.363   4.334
  278POPC   C1A 3822   1.498   3.540   4.641
  278POPC   D2A 3823   1.642   3.507   5.080
  278POPC   C3A 3824   1.458   3.776   5.383
  278POPC   C4A 3825   1.528   3.549   5.742
  278POPC   C1B 3826   0.990   3.246   4.755
  278POPC   C2B 3827   1.137   3.438   5.130
  278POPC   C3B 3828   1.058   3.532   5.562
  278POPC   C4B 3829   0.905   3.213   5.801
  279POPC   NC3 3830   3.136   1.142   3.766
  279POPC   PO4 3831   2.770   1.415   4.165
  279POPC   GL1 3832   2.797   1.122   4.453
  279POPC   GL2 3833   2.492   0.908   4.404
  279POPC   C1A 3834   2.918   1.215   4.901
  279POPC   D2A 3835   3.254   1.332   5.209
  279POPC   C3A 3836   3.065   1.281   5.634
  279POPC   C4A 3837   3.009   1.040   6.027
  279POPC   C1B 3838   2.349   1.283   4.619
  279POPC   C2B 3839   2.366   1.183   5.001
  279POPC   C3B 3840   2.617   1.272   5.368
  279POPC   C4B 3841   2.583   1.192   5.806
  280POPC   NC3 3842   3.790  11.275   3.966
  280POPC   PO4 3843   3.099  11.353   3.815
  280POPC   GL1 3844   3.346  11.405   4.216
  280POPC   GL2 3845   3.450  11.053   4.301
  280POPC   C1A 3846   3.205  11.358   4.690
  280POPC   D2A 3847   3.298   0.031   5.131
  280POPC   C3A 3848   3.121  11.366   5.514
  280POPC   C4A 3849   3.354  11.247   5.879
  280POPC   C1B 3850   3.427  10.878   4.711
  280POPC   C2B 3851   3.483  11.064   5.083
  280POPC   C3B 3852   3.612  11.057   5.497
  280POPC   C4B 3853   3.561  10.782   5.842
  281POPC   NC3 3854   5.117   8.158   3.870
  281POPC   PO4 3855   4.776   8.597   3.935
  281POPC   GL1 3856   4.910   8.380   4.312
  281POPC   GL2 3857   5.244   8.223   4.363
  281POPC   C1A 3858   4.951   8.361   4.772
  281POPC   D2A 3859   4.969   8.089   5.134
  281POPC   C3A 3860   4.936   8.288   5.541
  281POPC   C4A 3861   4.630   8.358   5.901
  281POPC   C1B 3862   5.303   7.939   4.747
  281POPC   C2B 3863   5.247   7.661   5.116
  281POPC   C3B 3864   5.223   7.834   5.538
  281POPC   C4B 3865   5.454   8.160   5.775
  282POPC   NC3 3866   6.938   0.425   4.043
  282POPC   PO4 3867   6.258   0.401   3.841
  282POPC   GL1 3868   6.467   0.258   4.278
  282POPC   GL2 3869   6.140   0.264   4.481
  282POPC   C1A 3870   6.843   0.203   4.641
  282POPC   D2A 3871   6.987   0.361   5.052
  282POPC   C3A 3872   6.874   0.118   5.408
  282POPC   C4A 3873   6.720  11.366   5.747
  282POPC   C1B 3874   6.386   0.262   4.856
  282POPC   C2B 3875   6.518   0.468   5.208
  282POPC   C3B 3876   6.331   0.489   5.559
  282POPC   C4B 3877   6.572   0.335   5.790
  283POPC   NC3 3878   7.954  10.552   3.906
  283POPC   PO4 3879   8.489  10.027   3.913
  283POPC   GL1 3880   8.409  10.296   4.271
  283POPC   GL2 3881   8.091  10.321   4.321
  283POPC   C1A 3882   8.422  10.306   4.736
  283POPC   D2A 3883   8.411   9.934   5.056
  283POPC   C3A 3884   8.191  10.063   5.466
  283POPC   C4A 3885   8.108  10.214   5.908
  283POPC   C1B 3886   7.989  10.590   4.614
  283POPC   C2B 3887   7.997  10.718   5.034
  283POPC   C3B 3888   8.149  10.594   5.467
  283POPC   C4B 3889   7.951  10.711   5.861
  284POPC   NC3 3890   2.507   5.899   3.787
  284POPC   PO4 3891   3.190   5.950   3.691
  284POPC   GL1 3892   2.957   5.877   4.140
  284POPC   GL2 3893   2.607   5.790   4.292
  284POPC   C1A 3894   2.876   6.101   4.587
  284POPC   D2A 3895   2.716   6.133   5.048
  284POPC   C3A 3896   2.881   6.002   5.476
  284POPC   C4A 3897   2.761   6.084   5.926
  284POPC   C1B 3898   2.595   5.699   4.762
  284POPC   C2B 3899   2.615   5.644   5.223
  284POPC   C3B 3900   2.641   5.557   5.661
  284POPC   C4B 3901   2.444   5.710   6.054
  285POPC   NC3 3902   1.872   5.924   3.857
  285POPC   PO4 3903   2.336   5.512   3.969
  285POPC   GL1 3904   2.069   5.604   4.299
  285POPC   GL2 3905   1.991   5.904   4.364
  285POPC   C1A 3906   1.806   5.436   4.622
  285POPC   D2A 3907   1.641   5.465   5.032
  285POPC   C3A 3908   1.781   5.739   5.366
  285POPC   C4A 3909   1.640   5.663   5.801
  285POPC   C1B 3910   2.072   5.847   4.789
  285POPC   C2B 3911   2.222   6.012   5.164
  285POPC   C3B 3912   2.342   5.958   5.570
  285POPC   C4B 3913   2.042   5.941   5.885
  286POPC   NC3 3914   7.259   9.946   4.263
  286POPC   PO4 3915   7.270  10.512   3.880
  286POPC   GL1 3916   7.164  10.563   4.358
  286POPC   GL2 3917   7.160  10.261   4.623
  286POPC   C1A 3918   7.078  10.698   4.812
  286POPC   D2A 3919   7.216  10.400   5.186
  286POPC   C3A 3920   7.163  10.513   5.631
  286POPC   C4A 3921   7.111  10.670   6.121
  286POPC   C1B 3922   7.554  10.367   4.793
  286POPC   C2B 3923   7.757  10.288   5.189
  286POPC   C3B 3924   7.696  10.321   5.610
  286POPC   C4B 3925   7.506  10.397   5.976
  287POPC   NC3 3926   2.039   5.150   4.085
  287POPC   PO4 3927   2.325   4.627   3.940
  287POPC   GL1 3928   2.104   4.587   4.369
  287POPC   GL2 3929   2.175   4.885   4.519
  287POPC   C1A 3930   1.739   4.633   4.725
  287POPC   D2A 3931   1.525   4.949   5.020
  287POPC   C3A 3932   1.722   4.875   5.426
  287POPC   C4A 3933   1.982   4.584   5.739
  287POPC   C1B 3934   2.275   5.288   4.739
  287POPC   C2B 3935   2.152   5.483   5.137
  287POPC   C3B 3936   2.145   5.472   5.597
  287POPC   C4B 3937   2.048   5.087   5.773
  288POPC   NC3 3938   0.324   4.419   3.887
  288POPC   PO4 3939   0.423   3.824   3.979
  288POPC   GL1 3940   0.423   4.122   4.321
  288POPC   GL2 3941   0.711   4.307   4.330
  288POPC   C1A 3942   0.609   4.064   4.759
  288POPC   D2A 3943   0.410   3.979   5.138
  288POPC   C3A 3944   0.496   4.115   5.560
  288POPC   C4A 3945   0.267   4.493   5.663
  288POPC   C1B 3946   0.692   4.563   4.701
  288POPC   C2B 3947   0.790   4.400   5.114
  288POPC   C3B 3948   0.791   4.544   5.520
  288POPC   C4B 3949   0.704   4.448   5.951
  289POPC   NC3 3950   1.952   8.631   3.634
  289POPC   PO4 3951   2.195   9.186   3.810
  289POPC   GL1 3952   1.997   9.158   4.256
  289POPC   GL2 3953   1.965   8.772   4.295
  289POPC   C1A 3954   2.142   9.102   4.710
  289POPC   D2A 3955   1.887   9.121   5.101
  289POPC   C3A 3956   2.112   9.208   5.495
  289POPC   C4A 3957   2.218   8.871   5.753
  289POPC   C1B 3958   1.726   8.818   4.687
  289POPC   C2B 3959   1.601   8.618   5.059
  289POPC   C3B 3960   1.759   8.652   5.480
  289POPC   C4B 3961   1.662   9.026   5.674
  290POPC   NC3 3962   0.650   1.132   3.691
  290POPC   PO4 3963   0.175   1.521   3.982
  290POPC   GL1 3964   0.308   1.413   4.351
  290POPC   GL2 3965   0.577   1.188   4.233
  290POPC   C1A 3966   0.126   1.448   4.778
  290POPC   D2A 3967  11.454   1.664   5.138
  290POPC   C3A 3968   0.055   1.479   5.511
  290POPC   C4A 3969   0.405   1.484   5.790
  290POPC   C1B 3970   0.363   1.007   4.623
  290POPC   C2B 3971   0.275   0.983   5.065
  290POPC   C3B 3972   0.485   1.137   5.424
  290POPC   C4B 3973   0.749   1.089   5.777
  291POPC   NC3 3974   8.313   0.583   3.782
  291POPC   PO4 3975   8.081  11.483   3.948
  291POPC   GL1 3976   8.129   0.418   4.224
  291POPC   GL2 3977   7.884   0.675   4.396
  291POPC   C1A 3978   8.357   0.593   4.607
  291POPC   D2A 3979   8.370   0.417   5.060
  291POPC   C3A 3980   8.375   0.661   5.484
  291POPC   C4A 3981   8.194   0.640   5.930
  291POPC   C1B 3982   7.919   0.293   4.730
  291POPC   C2B 3983   7.944   0.137   5.209
  291POPC   C3B 3984   7.931   0.257   5.684
  291POPC   C4B 3985   7.832   0.165   6.162
  292POPC   NC3 3986   8.909   1.927   3.751
  292POPC   PO4 3987   9.235   1.510   4.143
  292POPC   GL1 3988   8.755   1.660   4.297
  292POPC   GL2 3989   8.663   2.013   4.178
  292POPC   C1A 3990   8.501   1.636   4.720
  292POPC   D2A 3991   8.616   1.829   5.144
  292POPC   C3A 3992   8.585   1.640   5.570
  292POPC   C4A 3993   8.582   1.772   6.002
  292POPC   C1B 3994   8.660   2.107   4.623
  292POPC   C2B 3995   8.581   2.322   5.021
  292POPC   C3B 3996   8.683   2.233   5.481
  292POPC   C4B 3997   9.113   2.080   5.630
  293POPC   NC3 3998   9.718  10.324   3.912
  293POPC   PO4 3999   9.103  10.153   4.032
  293POPC   GL1 4000   9.423  10.163   4.337
  293POPC   GL2 4001   9.684  10.396   4.396
  293POPC   C1A 4002   9.577  10.035   4.739
  293POPC   D2A 4003   9.455   9.867   5.107
  293POPC   C3A 4004   9.320  10.058   5.465
  293POPC   C4A 4005   9.698   9.907   5.673
  293POPC   C1B 4006   9.762  10.508   4.800
  293POPC   C2B 4007   9.514  10.474   5.169
  293POPC   C3B 4008   9.638  10.432   5.566
  293POPC   C4B 4009   9.958  10.682   5.691
  294POPC   NC3 4010   2.569   1.068   3.920
  294POPC   PO4 4011   1.931   0.769   3.915
  294POPC   GL1 4012   1.978   1.036   4.285
  294POPC   GL2 4013   1.981   1.405   4.286
  294POPC   C1A 4014   1.966   0.977   4.708
  294POPC   D2A 4015   1.850   1.041   5.111
  294POPC   C3A 4016   2.152   1.040   5.426
  294POPC   C4A 4017   2.104   1.066   5.827
  294POPC   C1B 4018   1.872   1.477   4.747
  294POPC   C2B 4019   2.097   1.581   5.148
  294POPC   C3B 4020   2.154   1.523   5.595
  294POPC   C4B 4021   1.791   1.449   5.848
  295POPC   NC3 4022   3.589   1.953   3.725
  295POPC   PO4 4023   3.892   2.512   3.911
  295POPC   GL1 4024   3.679   2.200   4.189
  295POPC   GL2 4025   3.471   1.917   4.230
  295POPC   C1A 4026   3.587   2.231   4.650
  295POPC   D2A 4027   3.587   1.911   4.979
  295POPC   C3A 4028   3.557   2.044   5.384
  295POPC   C4A 4029   3.767   1.985   5.760
  295POPC   C1B 4030   3.232   1.847   4.613
  295POPC   C2B 4031   3.059   1.809   5.022
  295POPC   C3B 4032   3.130   1.763   5.454
  295POPC   C4B 4033   3.260   1.975   5.804
  296POPC   NC3 4034   1.179   5.759   3.880
  296POPC   PO4 4035   1.743   5.435   3.861
  296POPC   GL1 4036   1.531   5.705   4.253
  296POPC   GL2 4037   1.164   5.827   4.374
  296POPC   C1A 4038   1.541   5.865   4.714
  296POPC   D2A 4039   1.298   5.863   5.132
  296POPC   C3A 4040   1.431   6.039   5.544
  296POPC   C4A 4041   1.316   6.063   5.999
  296POPC   C1B 4042   0.948   5.747   4.754
  296POPC   C2B 4043   0.766   5.780   5.148
  296POPC   C3B 4044   0.948   5.808   5.550
  296POPC   C4B 4045   1.124   5.595   5.906
  297POPC   NC3 4046   0.184   9.739   4.063
  297POPC   PO4 4047   0.823   9.865   3.763
  297POPC   GL1 4048   0.675   9.722   4.187
  297POPC   GL2 4049   0.704   9.376   4.289
  297POPC   C1A 4050   0.805   9.859   4.609
  297POPC   D2A 4051   0.651   9.996   5.027
  297POPC   C3A 4052   0.817   9.902   5.419
  297POPC   C4A 4053   0.666   9.970   5.831
  297POPC   C1B 4054   0.483   9.468   4.680
  297POPC   C2B 4055   0.368   9.593   5.116
  297POPC   C3B 4056   0.379   9.633   5.569
  297POPC   C4B 4057   0.444   9.531   6.014
  298POPC   NC3 4058   0.133   2.789   3.903
  298POPC   PO4 4059   0.684   2.251   4.021
  298POPC   GL1 4060   0.632   2.660   4.264
  298POPC   GL2 4061   0.316   2.867   4.356
  298POPC   C1A 4062   0.632   2.724   4.710
  298POPC   D2A 4063   0.602   2.957   5.063
  298POPC   C3A 4064   0.597   2.732   5.445
  298POPC   C4A 4065   0.525   2.733   5.884
  298POPC   C1B 4066   0.079   2.872   4.721
  298POPC   C2B 4067   0.111   2.905   5.168
  298POPC   C3B 4068   0.111   2.792   5.575
  298POPC   C4B 4069   0.119   2.381   5.720
  299POPC   NC3 4070   7.341   2.361   3.865
  299POPC   PO4 4071   7.664   2.803   4.100
  299POPC   GL1 4072   7.447   2.671   4.447
  299POPC   GL2 4073   7.158   2.459   4.333
  299POPC   C1A 4074   7.462   2.785   4.891
  299POPC   D2A 4075   7.641   2.640   5.267
  299POPC   C3A 4076   7.428   2.736   5.636
  299POPC   C4A 4077   7.201   3.108   5.785
  299POPC   C1B 4078   7.073   2.465   4.774
  299POPC   C2B 4079   7.117   2.552   5.207
  299POPC   C3B 4080   6.921   2.748   5.544
  299POPC   C4B 4081   7.006   2.646   5.960
  300POPC   NC3 4082   1.344  10.378   3.973
  300POPC   PO4 4083   0.873  10.608   3.596
  300POPC   GL1 4084   0.903  10.176   4.166
  300POPC   GL2 4085   1.137  10.227   4.393
  300POPC   C1A 4086   0.771  10.357   4.687
  300POPC   D2A 4087   0.968  10.363   5.171
  300POPC   C3A 4088   0.955  10.379   5.664
  300POPC   C4A 4089   1.122  10.608   6.083
  300POPC   C1B 4090   1.449  10.378   4.637
  300POPC   C2B 4091   1.496  10.378   5.063
  300POPC   C3B 4092   1.412  10.541   5.445
  300POPC   C4B 4093   1.455  10.361   5.812
  301POPC   NC3 4094   8.858   1.393   3.877
  301POPC   PO4 4095   8.754   0.706   3.794
  301POPC   GL1 4096   8.760   0.766   4.273
  301POPC   GL2 4097   8.878   1.100   4.282
  301POPC   C1A 4098   8.875   0.853   4.737
  301POPC   D2A 4099   9.157   1.005   5.058
  301POPC   C3A 4100   8.952   1.058   5.492
  301POPC   C4A 4101   9.133   1.050   5.913
  301POPC   C1B 4102   8.908   1.340   4.659
  301POPC   C2B 4103   8.828   1.381   5.058
  301POPC   C3B 4104   9.073   1.575   5.353
  301POPC   C4B 4105   9.094   1.587   5.787
  302POPC   NC3 4106   0.064   1.030   4.011
  302POPC   PO4 4107  10.936   0.847   3.987
  302POPC   GL1 4108  11.158   1.088   4.345
  302POPC   GL2 4109  11.287   1.447   4.364
  302POPC   C1A 4110  11.332   1.007   4.766
  302POPC   D2A 4111  11.176   0.899   5.192
  302POPC   C3A 4112  11.480   0.965   5.501
  302POPC   C4A 4113  11.464   0.883   5.925
  302POPC   C1B 4114  11.086   1.498   4.796
  302POPC   C2B 4115  11.033   1.378   5.244
  302POPC   C3B 4116  11.046   1.196   5.656
  302POPC   C4B 4117  10.889   1.422   6.044
  303POPC   NC3 4118   2.123   8.069   3.930
  303POPC   PO4 4119   1.509   7.780   3.804
  303POPC   GL1 4120   1.736   7.901   4.215
  303POPC   GL2 4121   1.881   8.245   4.333
  303POPC   C1A 4122   1.920   7.852   4.631
  303POPC   D2A 4123   1.746   7.894   5.016
  303POPC   C3A 4124   1.874   8.001   5.403
  303POPC   C4A 4125   1.715   7.656   5.686
  303POPC   C1B 4126   1.939   8.355   4.756
  303POPC   C2B 4127   2.122   8.586   5.110
  303POPC   C3B 4128   2.222   8.402   5.523
  303POPC   C4B 4129   2.034   8.134   5.861
  304POPC   NC3 4130   0.609   5.526   3.485
  304POPC   PO4 4131   0.750   5.766   4.054
  304POPC   GL1 4132   0.604   5.674   4.394
  304POPC   GL2 4133   0.297   5.862   4.328
  304POPC   C1A 4134   0.349   5.507   4.712
  304POPC   D2A 4135   0.187   5.599   5.104
  304POPC   C3A 4136   0.315   5.457   5.493
  304POPC   C4A 4137   0.454   5.679   5.848
  304POPC   C1B 4138   0.499   6.024   4.719
  304POPC   C2B 4139   0.346   6.087   5.074
  304POPC   C3B 4140   0.427   6.006   5.463
  304POPC   C4B 4141   0.242   6.126   5.819
  305POPC   NC3 4142  10.379   6.429   3.858
  305POPC   PO4 4143  10.065   6.908   4.148
  305POPC   GL1 4144  10.295   6.560   4.349
  305POPC   GL2 4145  10.664   6.533   4.387
  305POPC   C1A 4146  10.329   6.381   4.753
  305POPC   D2A 4147  10.129   6.487   5.129
  305POPC   C3A 4148  10.256   6.381   5.539
  305POPC   C4A 4149  10.300   6.627   5.881
  305POPC   C1B 4150  10.762   6.631   4.804
  305POPC   C2B 4151  10.650   6.547   5.240
  305POPC   C3B 4152  10.753   6.637   5.675
  305POPC   C4B 4153  10.716   6.564   6.145
  306POPC   NC3 4154   9.226  10.928   3.953
  306POPC   PO4 4155   9.944  10.722   4.036
  306POPC   GL1 4156   9.595  10.891   4.328
  306POPC   GL2 4157   9.534  11.252   4.264
  306POPC   C1A 4158   9.450  10.877   4.794
  306POPC   D2A 4159   9.651  10.995   5.196
  306POPC   C3A 4160   9.499  10.908   5.616
  306POPC   C4A 4161   9.395  10.688   6.021
  306POPC   C1B 4162   9.677  11.321   4.700
  306POPC   C2B 4163   9.507  11.493   5.096
  306POPC   C3B 4164   9.643  11.402   5.517
  306POPC   C4B 4165  10.019  11.164   5.646
  307POPC   NC3 4166   7.386   9.060   3.817
  307POPC   PO4 4167   7.615   8.487   3.956
  307POPC   GL1 4168   7.533   8.839   4.269
  307POPC   GL2 4169   7.199   8.936   4.315
  307POPC   C1A 4170   7.547   9.068   4.713
  307POPC   D2A 4171   7.462   8.921   5.140
  307POPC   C3A 4172   7.737   8.883   5.488
  307POPC   C4A 4173   7.730   8.885   5.913
  307POPC   C1B 4174   7.046   8.999   4.755
  307POPC   C2B 4175   7.055   9.217   5.170
  307POPC   C3B 4176   7.036   8.893   5.436
  307POPC   C4B 4177   7.221   8.837   5.783
  308POPC   NC3 4178   9.641   4.994   3.955
  308POPC   PO4 4179   9.119   4.580   4.059
  308POPC   GL1 4180   9.393   4.659   4.413
  308POPC   GL2 4181   9.571   4.985   4.448
  308POPC   C1A 4182   9.445   4.711   4.867
  308POPC   D2A 4183   9.436   4.956   5.240
  308POPC   C3A 4184   9.466   4.728   5.632
  308POPC   C4A 4185   9.141   4.801   5.960
  308POPC   C1B 4186   9.882   4.978   4.767
  308POPC   C2B 4187   9.883   5.194   5.156
  308POPC   C3B 4188   9.736   5.183   5.605
  308POPC   C4B 4189   9.924   5.287   6.016
  309POPC   NC3 4190  10.997   9.377   3.947
  309POPC   PO4 4191   0.092   9.284   4.000
  309POPC   GL1 4192  11.437   9.416   4.371
  309POPC   GL2 4193  11.217   9.712   4.297
  309POPC   C1A 4194  11.482   9.619   4.766
  309POPC   D2A 4195  11.241   9.642   5.133
  309POPC   C3A 4196  11.372   9.567   5.542
  309POPC   C4A 4197   0.012   9.209   5.773
  309POPC   C1B 4198  10.957   9.637   4.677
  309POPC   C2B 4199  10.739   9.551   5.066
  309POPC   C3B 4200  10.853   9.605   5.486
  309POPC   C4B 4201  10.988   9.684   5.913
  310POPC   NC3 4202   9.704   3.322   3.686
  310POPC   PO4 4203   9.725   3.899   4.021
  310POPC   GL1 4204   9.668   3.623   4.367
  310POPC   GL2 4205   9.618   3.245   4.421
  310POPC   C1A 4206   9.682   3.759   4.788
  310POPC   D2A 4207   9.837   3.995   5.127
  310POPC   C3A 4208   9.902   3.759   5.505
  310POPC   C4A 4209   9.776   3.691   5.927
  310POPC   C1B 4210   9.724   3.250   4.839
  310POPC   C2B 4211   9.578   3.469   5.205
  310POPC   C3B 4212   9.518   3.380   5.641
  310POPC   C4B 4213   9.717   3.163   5.991
  311POPC   NC3 4214   3.143   0.289   3.666
  311POPC   PO4 4215   3.686   0.232   3.959
  311POPC   GL1 4216   3.449   0.412   4.337
  311POPC   GL2 4217   3.677   0.694   4.409
  311POPC   C1A 4218   3.288   0.408   4.787
  311POPC   D2A 4219   3.002   0.443   5.177
  311POPC   C3A 4220   3.250   0.361   5.551
  311POPC   C4A 4221   3.628   0.069   5.559
  311POPC   C1B 4222   3.781   0.563   4.819
  311POPC   C2B 4223   3.646   0.481   5.232
  311POPC   C3B 4224   3.740   0.570   5.678
  311POPC   C4B 4225   3.789   0.733   6.121
  312POPC   NC3 4226   4.393  10.891   3.980
  312POPC   PO4 4227   4.317  10.169   3.754
  312POPC   GL1 4228   4.050  10.247   4.130
  312POPC   GL2 4229   4.263  10.486   4.250
  312POPC   C1A 4230   4.023  10.230   4.623
  312POPC   D2A 4231   3.940  10.237   5.090
  312POPC   C3A 4232   4.269  10.171   5.437
  312POPC   C4A 4233   4.215  10.064   5.919
  312POPC   C1B 4234   4.410  10.606   4.640
  312POPC   C2B 4235   4.345  10.546   5.048
  312POPC   C3B 4236   4.342  10.715   5.443
  312POPC   C4B 4237   4.323  10.528   5.811
  313POPC   NC3 4238  11.489   1.880   3.743
  313POPC   PO4 4239  10.849   2.006   3.811
  313POPC   GL1 4240  10.997   2.113   4.250
  313POPC   GL2 4241  11.343   2.016   4.229
  313POPC   C1A 4242  10.864   2.061   4.717
  313POPC   D2A 4243  10.885   1.862   5.140
  313POPC   C3A 4244  10.754   2.069   5.527
  313POPC   C4A 4245  10.971   2.238   5.874
  313POPC   C1B 4246  11.373   1.933   4.673
  313POPC   C2B 4247  11.315   2.148   5.068
  313POPC   C3B 4248  11.271   2.036   5.486
  313POPC   C4B 4249  11.089   1.701   5.668
  314POPC   NC3 4250  11.136   5.048   3.910
  314POPC   PO4 4251   0.116   5.507   3.943
  314POPC   GL1 4252  11.490   5.123   4.277
  314POPC   GL2 4253  11.111   5.153   4.400
  314POPC   C1A 4254  11.418   4.865   4.690
  314POPC   D2A 4255   0.074   5.073   5.096
  314POPC   C3A 4256  11.460   4.880   5.482
  314POPC   C4A 4257  11.461   4.985   5.922
  314POPC   C1B 4258  11.332   5.375   4.747
  314POPC   C2B 4259  11.207   5.458   5.191
  314POPC   C3B 4260  11.190   5.326   5.643
  314POPC   C4B 4261  10.921   5.078   5.954
  315POPC   NC3 4262  11.112  10.427   3.970
  315POPC   PO4 4263  11.485  10.946   3.793
  315POPC   GL1 4264  11.467  10.790   4.266
  315POPC   GL2 4265  11.411  10.443   4.399
  315POPC   C1A 4266  11.340  10.871   4.736
  315POPC   D2A 4267  11.281  10.953   5.196
  315POPC   C3A 4268   0.015  10.651   5.513
  315POPC   C4A 4269  11.374  10.513   5.912
  315POPC   C1B 4270  11.228  10.094   4.665
  315POPC   C2B 4271  10.936  10.038   5.033
  315POPC   C3B 4272  11.095  10.043   5.476
  315POPC   C4B 4273  11.465  10.035   5.734
  316POPC   NC3 4274   6.337  10.353   3.926
  316POPC   PO4 4275   6.876   9.944   4.012
  316POPC   GL1 4276   6.718  10.252   4.351
  316POPC   GL2 4277   6.445  10.528   4.382
  316POPC   C1A 4278   6.698  10.351   4.802
  316POPC   D2A 4279   6.717  10.569   5.188
  316POPC   C3A 4280   6.701  10.304   5.527
  316POPC   C4A 4281   6.708  10.450   5.924
  316POPC   C1B 4282   6.213  10.494   4.757
  316POPC   C2B 4283   6.269  10.287   5.130
  316POPC   C3B 4284   6.201  10.458   5.527
  316POPC   C4B 4285   6.295  10.168   5.827
  317POPC   NC3 4286   5.704   9.831   3.826
  317POPC   PO4 4287   5.504   9.242   4.028
  317POPC   GL1 4288   5.751   9.571   4.264
  317POPC   GL2 4289   5.603   9.894   4.343
  317POPC   C1A 4290   5.969   9.672   4.653
  317POPC   D2A 4291   5.899   9.762   5.104
  317POPC   C3A 4292   5.888   9.387   5.368
  317POPC   C4A 4293   5.652   9.207   5.742
  317POPC   C1B 4294   5.468   9.800   4.785
  317POPC   C2B 4295   5.420   9.921   5.217
  317POPC   C3B 4296   5.501   9.676   5.573
  317POPC   C4B 4297   5.890   9.669   5.780
  318POPC   NC3 4298   2.631   3.458   3.953
  318POPC   PO4 4299   2.585   4.058   3.923
  318POPC   GL1 4300   2.560   3.731   4.382
  318POPC   GL2 4301   2.728   3.367   4.422
  318POPC   C1A 4302   2.403   3.510   4.772
  318POPC   D2A 4303   2.314   3.702   5.132
  318POPC   C3A 4304   2.477   3.529   5.473
  318POPC   C4A 4305   2.610   3.491   5.913
  318POPC   C1B 4306   2.907   3.565   4.781
  318POPC   C2B 4307   3.044   3.362   5.159
  318POPC   C3B 4308   2.972   3.291   5.596
  318POPC   C4B 4309   3.094   3.654   5.857
  319POPC   NC3 4310  11.028   2.431   3.829
  319POPC   PO4 4311  11.246   3.094   3.884
  319POPC   GL1 4312  11.304   2.951   4.267
  319POPC   GL2 4313  11.279   2.611   4.230
  319POPC   C1A 4314  11.054   2.928   4.606
  319POPC   D2A 4315  10.734   3.062   4.899
  319POPC   C3A 4316  10.889   2.955   5.289
  319POPC   C4A 4317  10.993   3.088   5.684
  319POPC   C1B 4318  11.223   2.434   4.603
  319POPC   C2B 4319  11.200   2.639   4.998
  319POPC   C3B 4320  11.205   2.537   5.417
  319POPC   C4B 4321  11.200   2.671   5.833
  320POPC   NC3 4322   9.351   4.178   4.012
  320POPC   PO4 4323   9.939   4.573   3.890
  320POPC   GL1 4324   9.889   4.568   4.337
  320POPC   GL2 4325   9.732   4.245   4.390
  320POPC   C1A 4326   9.922   4.469   4.808
  320POPC   D2A 4327   9.850   4.655   5.208
  320POPC   C3A 4328   9.812   4.358   5.496
  320POPC   C4A 4329   9.668   4.302   5.852
  320POPC   C1B 4330   9.483   4.215   4.759
  320POPC   C2B 4331   9.422   4.296   5.192
  320POPC   C3B 4332   9.417   3.983   5.523
  320POPC   C4B 4333   9.342   3.938   5.968
  321POPC   NC3 4334   7.277  10.053   3.767
  321POPC   PO4 4335   7.092   9.399   3.855
  321POPC   GL1 4336   7.119   9.452   4.304
  321POPC   GL2 4337   7.475   9.395   4.310
  321POPC   C1A 4338   7.212   9.477   4.775
  321POPC   D2A 4339   7.579   9.402   5.127
  321POPC   C3A 4340   7.440   9.293   5.551
  321POPC   C4A 4341   7.025   9.357   5.695
  321POPC   C1B 4342   7.676   9.601   4.679
  321POPC   C2B 4343   7.445   9.886   4.972
  321POPC   C3B 4344   7.237   9.723   5.333
  321POPC   C4B 4345   7.218  10.013   5.669
  322POPC   NC3 4346  10.320  10.434   3.999
  322POPC   PO4 4347  10.898  10.633   4.325
  322POPC   GL1 4348  10.518  10.476   4.496
  322POPC   GL2 4349  10.172  10.574   4.469
  322POPC   C1A 4350  10.423  10.410   4.923
  322POPC   D2A 4351  10.540  10.233   5.298
  322POPC   C3A 4352  10.803  10.455   5.587
  322POPC   C4A 4353  11.030  10.811   5.628
  322POPC   C1B 4354  10.080  10.152   4.647
  322POPC   C2B 4355   9.932  10.138   5.109
  322POPC   C3B 4356  10.090  10.195   5.522
  322POPC   C4B 4357  10.358  10.387   5.818
  323POPC   NC3 4358   2.406  10.149   4.099
  323POPC   PO4 4359   1.757  10.214   3.848
  323POPC   GL1 4360   1.796  10.552   4.198
  323POPC   GL2 4361   1.996  10.297   4.360
  323POPC   C1A 4362   1.877  10.671   4.679
  323POPC   D2A 4363   2.010  10.376   5.024
  323POPC   C3A 4364   2.158  10.497   5.426
  323POPC   C4A 4365   1.884  10.630   5.722
  323POPC   C1B 4366   1.831  10.041   4.677
  323POPC   C2B 4367   1.740   9.917   5.110
  323POPC   C3B 4368   1.809  10.142   5.498
  323POPC   C4B 4369   2.154  10.180   5.828
  324POPC   NC3 4370   2.614   9.372   3.744
  324POPC   PO4 4371   2.717  10.036   3.770
  324POPC   GL1 4372   2.766   9.943   4.385
  324POPC   GL2 4373   3.039   9.661   4.414
  324POPC   C1A 4374   2.695   9.684   4.796
  324POPC   D2A 4375   2.802   9.395   5.162
  324POPC   C3A 4376   2.548   9.536   5.522
  324POPC   C4A 4377   2.527   9.831   5.834
  324POPC   C1B 4378   3.155   9.923   4.783
  324POPC   C2B 4379   2.994   9.881   5.215
  324POPC   C3B 4380   2.993   9.738   5.652
  324POPC   C4B 4381   2.985   9.855   6.107
  325POPC   NC3 4382  10.263   8.677   3.911
  325POPC   PO4 4383  10.638   9.239   3.702
  325POPC   GL1 4384  10.602   9.119   4.185
  325POPC   GL2 4385  10.294   8.999   4.293
  325POPC   C1A 4386  10.687   8.813   4.580
  325POPC   D2A 4387  10.850   8.576   4.951
  325POPC   C3A 4388  10.796   8.781   5.318
  325POPC   C4A 4389  10.596   8.800   5.672
  325POPC   C1B 4390  10.201   8.973   4.716
  325POPC   C2B 4391  10.302   8.818   5.134
  325POPC   C3B 4392  10.070   8.958   5.488
  325POPC   C4B 4393  10.225   9.075   5.869
  326POPC   NC3 4394  10.106   4.111   3.895
  326POPC   PO4 4395  10.644   4.507   3.868
  326POPC   GL1 4396  10.576   4.193   4.182
  326POPC   GL2 4397  10.267   4.217   4.356
  326POPC   C1A 4398  10.705   4.046   4.607
  326POPC   D2A 4399  10.927   4.132   4.993
  326POPC   C3A 4400  10.749   4.041   5.386
  326POPC   C4A 4401  10.706   4.291   5.736
  326POPC   C1B 4402  10.184   4.022   4.729
  326POPC   C2B 4403  10.316   4.229   5.098
  326POPC   C3B 4404  10.300   4.429   5.484
  326POPC   C4B 4405  10.158   4.121   5.797
  327POPC   NC3 4406   2.434   8.945   4.131
  327POPC   PO4 4407   3.022   9.084   3.793
  327POPC   GL1 4408   2.951   8.981   4.278
  327POPC   GL2 4409   2.819   8.650   4.342
  327POPC   C1A 4410   2.720   9.040   4.741
  327POPC   D2A 4411   2.436   9.012   5.144
  327POPC   C3A 4412   2.665   9.061   5.550
  327POPC   C4A 4413   3.080   9.230   5.627
  327POPC   C1B 4414   2.958   8.575   4.777
  327POPC   C2B 4415   2.863   8.726   5.199
  327POPC   C3B 4416   2.722   8.572   5.621
  327POPC   C4B 4417   3.053   8.672   5.917
  328POPC   NC3 4418   0.667   2.615   3.740
  328POPC   PO4 4419   1.330   2.567   3.969
  328POPC   GL1 4420   1.107   2.465   4.358
  328POPC   GL2 4421   1.459   2.374   4.475
  328POPC   C1A 4422   1.036   2.397   4.790
  328POPC   D2A 4423   1.075   2.786   4.989
  328POPC   C3A 4424   1.043   2.959   5.360
  328POPC   C4A 4425   1.017   2.728   5.744
  328POPC   C1B 4426   1.399   2.817   4.584
  328POPC   C2B 4427   1.480   3.075   4.891
  328POPC   C3B 4428   1.622   3.025   5.284
  328POPC   C4B 4429   1.415   3.067   5.673
  329POPC   NC3 4430   5.366   2.244   3.992
  329POPC   PO4 4431   5.997   1.971   3.959
  329POPC   GL1 4432   5.929   1.791   4.350
  329POPC   GL2 4433   5.602   1.936   4.358
  329POPC   C1A 4434   5.842   1.694   4.784
  329POPC   D2A 4435   5.954   1.974   5.088
  329POPC   C3A 4436   6.044   1.830   5.485
  329POPC   C4A 4437   6.076   2.175   5.751
  329POPC   C1B 4438   5.373   1.887   4.761
  329POPC   C2B 4439   5.470   1.841   5.205
  329POPC   C3B 4440   5.572   2.009   5.601
  329POPC   C4B 4441   5.673   1.685   5.856
  330POPC   NC3 4442   9.991   9.383   4.117
  330POPC   PO4 4443  10.019   9.938   3.791
  330POPC   GL1 4444  10.272   9.788   4.235
  330POPC   GL2 4445  10.654   9.686   4.224
  330POPC   C1A 4446  10.412   9.478   4.632
  330POPC   D2A 4447  10.268   9.343   5.072
  330POPC   C3A 4448  10.497   9.254   5.452
  330POPC   C4A 4449  10.502   9.497   5.864
  330POPC   C1B 4450  10.575   9.970   4.614
  330POPC   C2B 4451  10.345   9.866   4.992
  330POPC   C3B 4452  10.365   9.763   5.420
  330POPC   C4B 4453  10.620   9.978   5.717
  331POPC   NC3 4454   2.457  10.346   3.583
  331POPC   PO4 4455   3.111  10.424   3.911
  331POPC   GL1 4456   2.992  10.402   4.332
  331POPC   GL2 4457   2.682  10.458   4.393
  331POPC   C1A 4458   2.969  10.404   4.798
  331POPC   D2A 4459   2.998  10.403   5.227
  331POPC   C3A 4460   2.703  10.201   5.504
  331POPC   C4A 4461   2.887  10.266   5.856
  331POPC   C1B 4462   2.433  10.261   4.713
  331POPC   C2B 4463   2.515  10.391   5.081
  331POPC   C3B 4464   2.593  10.748   5.335
  331POPC   C4B 4465   2.543  10.634   5.764
  332POPC   NC3 4466   8.774   8.210   3.887
  332POPC   PO4 4467   9.242   7.834   3.679
  332POPC   GL1 4468   9.107   7.966   4.192
  332POPC   GL2 4469   9.089   8.331   4.295
  332POPC   C1A 4470   9.287   7.962   4.653
  332POPC   D2A 4471   9.183   7.863   5.112
  332POPC   C3A 4472   8.998   7.930   5.523
  332POPC   C4A 4473   9.190   7.735   5.862
  332POPC   C1B 4474   8.830   8.163   4.681
  332POPC   C2B 4475   8.690   8.056   5.134
  332POPC   C3B 4476   8.530   8.175   5.590
  332POPC   C4B 4477   8.459   8.317   6.049
  333POPC   NC3 4478   2.760   4.469   3.957
  333POPC   PO4 4479   3.196   4.740   4.325
  333POPC   GL1 4480   2.678   4.651   4.415
  333POPC   GL2 4481   2.511   4.276   4.388
  333POPC   C1A 4482   2.499   4.558   4.813
  333POPC   D2A 4483   2.753   4.386   5.161
  333POPC   C3A 4484   2.599   4.494   5.570
  333POPC   C4A 4485   2.678   4.730   5.955
  333POPC   C1B 4486   2.573   4.021   4.797
  333POPC   C2B 4487   2.775   3.869   5.207
  333POPC   C3B 4488   2.695   3.953   5.661
  333POPC   C4B 4489   2.874   4.227   5.961
  334POPC   NC3 4490   8.898   9.752   3.939
  334POPC   PO4 4491   8.441   9.401   4.234
  334POPC   GL1 4492   8.802   9.503   4.388
  334POPC   GL2 4493   8.815   9.865   4.405
  334POPC   C1A 4494   8.729   9.529   4.819
  334POPC   D2A 4495   8.743   9.470   5.227
  334POPC   C3A 4496   8.509   9.439   5.574
  334POPC   C4A 4497   8.806   9.457   5.900
  334POPC   C1B 4498   8.848  10.035   4.780
  334POPC   C2B 4499   8.956   9.907   5.138
  334POPC   C3B 4500   8.824   9.850   5.545
  334POPC   C4B 4501   8.967   9.929   5.933
  335POPC   NC3 4502   0.303   7.040   3.981
  335POPC   PO4 4503   0.039   7.626   3.840
  335POPC   GL1 4504   0.142   7.532   4.258
  335POPC   GL2 4505   0.483   7.499   4.245
  335POPC   C1A 4506   0.318   7.591   4.698
  335POPC   D2A 4507   0.317   7.345   5.056
  335POPC   C3A 4508   0.346   7.533   5.461
  335POPC   C4A 4509   0.198   7.335   5.853
  335POPC   C1B 4510   0.544   7.132   4.573
  335POPC   C2B 4511   0.663   6.950   4.983
  335POPC   C3B 4512   0.731   7.197   5.373
  335POPC   C4B 4513   0.713   7.377   5.813
  336POPC   NC3 4514   4.435   1.467   3.505
  336POPC   PO4 4515   4.483   1.520   4.134
  336POPC   GL1 4516   4.407   1.395   4.505
  336POPC   GL2 4517   4.277   1.076   4.433
  336POPC   C1A 4518   4.516   1.220   4.882
  336POPC   D2A 4519   4.296   1.067   5.216
  336POPC   C3A 4520   4.441   1.217   5.609
  336POPC   C4A 4521   4.448   1.423   6.014
  336POPC   C1B 4522   3.938   1.053   4.767
  336POPC   C2B 4523   3.780   1.008   5.213
  336POPC   C3B 4524   3.943   1.128   5.626
  336POPC   C4B 4525   3.963   1.263   6.050
  337POPC   NC3 4526   2.797   0.102   4.047
  337POPC   PO4 4527   2.920   0.713   3.776
  337POPC   GL1 4528   2.943   0.619   4.286
  337POPC   GL2 4529   2.911   0.277   4.496
  337POPC   C1A 4530   2.861   0.721   4.760
  337POPC   D2A 4531   2.626   0.789   5.180
  337POPC   C3A 4532   2.855   0.764   5.600
  337POPC   C4A 4533   2.784   0.563   6.022
  337POPC   C1B 4534   2.551   0.312   4.808
  337POPC   C2B 4535   2.473   0.305   5.262
  337POPC   C3B 4536   2.721   0.230   5.623
  337POPC   C4B 4537   2.595  11.490   5.985
  338W        W 4538   4.568   7.137   1.920
  339W        W 4539   5.150   6.008   0.001
  340W        W 4540   7.841   4.660  10.355
  341W        W 4541  10.037   0.248  10.614
  342W        W 4542   0.207   4.722   3.450
  343W        W 4543   7.474   3.857  10.486
  344W        W 4544  10.858   8.802  11.749
  345W        W 4545   8.568   3.195   8.906
  346W        W 4546   1.422   0.910   0.922
  347W        W 4547   1.253   6.506  10.832
  348W        W 4548   4.357   9.012   2.221
  349W        W 4549   7.677   6.481   2.704
  350W        W 4550  11.371   0.995   2.136
  351W        W 4551  10.010   2.851   3.680
  352W        W 4552   0.456  11.282   3.225
  353W        W 4553   2.240  10.432  10.450
  354W        W 4554  10.722   5.810  11.471
  355W        W 4555   3.823   7.631   0.897
  356W        W 4556  11.492   8.165  11.812
  357W        W 4557  11.098   7.992   2.216
  358W        W 4558   5.986   3.665   7.927
  359W        W 4559   5.976   4.102   3.954
  360W        W 4560   2.539   3.018   0.092
  361W        W 4561   9.164   5.266   2.895
  362W        W 4562   2.431  10.322   0.432
  363W        W 4563   2.523  10.865   3.543
  364W        W 4564   4.636   0.368   0.465
  365W        W 4565   6.219   0.386   2.797
  366W        W 4566   2.365   5.769   0.955
  367W        W 4567   9.339  11.139  10.280
  368W        W 4568   7.259   6.144  10.492
  369W        W 4569   5.810   6.832  11.486
  370W        W 4570  11.293  10.569  11.302
  371W        W 4571   2.185  10.947   3.177
  372W        W 4572   7.958   8.414   1.840
  373W        W 4573   7.019   4.745   1.435
  374W        W 4574   0.876   1.389  10.465
  375W        W 4575   5.657   0.500   0.015
  376W        W 4576  10.433   2.788   3.158
  377W        W 4577   2.543   8.866   3.647
  378W        W 4578   3.276   8.581   0.824
  379W        W 4579   5.243   2.432  10.773
  380W        W 4580   2.715   2.578   9.872
  381W        W 4581   2.645   4.705   3.370
  382W        W 4582   3.868   8.938   2.967
  383W        W 4583   6.083   0.485   9.303
  384W        W 4584   6.753   6.495   1.961
  385W        W 4585   5.838   4.149   8.150
  386W        W 4586   0.606   2.471  11.828
  387W        W 4587   1.741   5.367  10.387
  388W        W 4588   0.596   2.801   0.693
  389W        W 4589   3.236   1.518   0.021
  390W        W 4590   6.603   1.009   0.879
  391W        W 4591   6.068   7.411  10.279
  392W        W 4592   4.400   8.906   0.755
  393W        W 4593   2.653   4.130   9.789
  394W        W 4594   3.701   4.743  11.658
  395W        W 4595  10.776   6.741  11.093
  396W        W 4596   0.931  10.509   2.729
  397W        W 4597   9.574   0.310   1.978
  398W        W 4598   8.923   2.466  10.960
  399W        W 4599   9.202   8.942   3.018
  400W        W 4600   9.149  10.821   9.945
  401W        W 4601   8.992  11.304   1.675
  402W        W 4602   9.039   9.536   9.898
  403W        W 4603   5.219   9.235   1.283
  404W        W 4604   9.379  10.422  11.435
  405W        W 4605   7.676   5.235   0.731
  406W        W 4606   1.496   2.814   1.471
  407W        W 4607   3.852   4.649   2.743
  408W        W 4608   5.692  10.344  11.325
  409W        W 4609  10.479   3.221   9.040
  410W        W 4610   9.859  10.605  11.445
  411W        W 4611   4.257   1.766  10.589
  412W        W 4612   3.203   8.199   9.574
  413W        W 4613  10.508   4.633   1.466
  414W        W 4614   1.099   8.376   8.865
  415W        W 4615  11.360   4.369   0.565
  416W        W 4616  10.437   7.408   1.676
  417W        W 4617   6.583   7.594  11.453
  418W        W 4618   5.533   6.168   0.298
  419W        W 4619   4.200   2.824   0.451
  420W        W 4620   4.713   6.220   0.149
  421W        W 4621   8.051   9.987  10.873
  422W        W 4622   9.463  11.303   1.897
  423W        W 4623   4.315   0.165   9.750
  424W        W 4624   7.098   4.294   0.086
  425W        W 4625   9.131   7.277   3.452
  426W        W 4626   9.466   4.232  11.526
  427W        W 4627   5.428   3.578   9.111
  428W        W 4628  10.610   8.874   0.394
  429W        W 4629   5.619  11.237   2.192
  430W        W 4630   5.697   4.511   2.971
  431W        W 4631   5.102  11.487  10.599
  432W        W 4632   5.763   3.260  10.307
  433W        W 4633  10.936   8.061  11.107
  434W        W 4634   1.806   3.244   3.121
  435W        W 4635  11.236   0.406  10.814
  436W        W 4636   6.012  10.071  11.698
  437W        W 4637   3.646   5.151   8.095
  438W        W 4638   4.736   8.875   8.142
  439W        W 4639   2.236  10.247   9.869
  440W        W 4640   1.767   9.824   0.027
  441W        W 4641   6.977   2.665   1.626
  442W        W 4642  10.018   2.370  10.843
  443W        W 4643   0.349   0.400   9.015
  444W        W 4644   6.464   0.176  11.025
  445W        W 4645   6.487   3.826   9.843
  446W        W 4646   1.003   6.286   3.887
  447W        W 4647   9.291   9.397   8.931
  448W        W 4648   5.259   7.350   1.704
  449W        W 4649  10.239   7.653   0.841
  450W        W 4650   9.140   5.039  11.931
  451W        W 4651   4.983  10.548  10.642
  452W        W 4652   1.336   3.414  10.644
  453W        W 4653   2.690   4.028  11.951
  454W        W 4654   4.480   0.357   8.829
  455W        W 4655   4.746   3.133   2.771
  456W        W 4656   4.049   4.276  11.413
  457W        W 4657   2.622  10.308   0.910
  458W        W 4658  10.794   1.799  10.929
  459W        W 4659   6.964   9.741   3.490
  460W        W 4660  10.894   0.915   0.261
  461W        W 4661   9.829   1.263   9.793
  462W        W 4662   8.451   9.140   8.958
  463W        W 4663   2.461   5.357   1.659
  464W        W 4664   7.722   3.859   4.054
  465W        W 4665   1.061   6.605   8.368
  466W        W 4666   7.398   7.519  10.748
  467W        W 4667   2.165   6.514   3.254
  468W        W 4668   8.774   9.459   1.794
  469W        W 4669   9.534   0.568   9.812
  470W        W 4670   8.124   4.634  10.774
  471W        W 4671   2.110   2.302   0.232
  472W        W 4672  11.167   4.969  11.149
  473W        W 4673   8.367   5.589   0.322
  474W        W 4674   1.344   3.384  11.644
  475W        W 4675   2.340   3.731  10.008
  476W        W 4676   6.226   1.037   9.905
  477W        W 4677   6.590   6.947   2.199
  478W        W 4678  11.045  11.295   2.197
  479W        W 4679   3.511   6.166   1.765
  480W        W 4680   4.669   2.215  11.294
  481W        W 4681   9.484   0.316  11.372
  482W        W 4682   9.436   9.118  10.284
  483W        W 4683  10.434   8.679  11.445
  484W        W 4684   5.996   6.924   0.812
  485W        W 4685   2.505   8.189   9.101
  486W        W 4686   2.884  10.514   3.360
  487W        W 4687   5.753   3.650  11.376
  488W        W 4688   9.628   7.209   9.493
  489W        W 4689  10.564   7.024  11.905
  490W        W 4690   3.331   6.954  11.476
  491W        W 4691  11.299  11.131   0.070
  492W        W 4692   2.735   4.537   0.063
  493W        W 4693   6.572   4.075   9.378
  494W        W 4694   3.975   8.299   3.496
  495W        W 4695   1.231   9.936  10.752
  496W        W 4696   7.623  11.067   1.685
  497W        W 4697  10.010   3.749  11.621
  498W        W 4698  11.119   5.469  10.883
  499W        W 4699   7.219   4.012   2.466
  500W        W 4700   1.850   6.126  11.340
  501W        W 4701   9.755   9.023   0.893
  502W        W 4702   8.462   1.630  10.856
  503W        W 4703   9.629  11.209   2.753
  504W        W 4704   1.374   1.735   0.690
  505W        W 4705   4.306   9.135   1.207
  506W        W 4706   0.343   4.732  11.691
  507W        W 4707   0.581   4.228   0.717
  508W        W 4708  10.488  10.224   0.676
  509W        W 4709   0.793   0.311  11.838
  510W        W 4710   8.472   5.464   3.781
  511W        W 4711   0.856  10.775   9.860
  512W        W 4712   4.690   0.878   2.155
  513W        W 4713   3.597   8.553  11.732
  514W        W 4714   3.380   8.077   3.132
  515W        W 4715   4.282   3.348   2.822
  516W        W 4716   1.176   7.820   1.065
  517W        W 4717   8.767   1.512   2.982
  518W        W 4718   5.266   8.686   8.622
  519W        W 4719   8.092   1.201   9.321
  520W        W 4720   0.935  11.358   0.887
  521W        W 4721   6.680   5.598   2.491
  522W        W 4722   4.364   1.357   9.485
  523W        W 4723   2.166   6.584   1.308
  524W        W 4724   0.902   7.956   9.100
  525W        W 4725   3.538   0.445   2.349
  526W        W 4726   1.979   3.732   8.496
  527W        W 4727   7.160   1.398  11.452
  528W        W 4728   3.682   6.552   3.102
  529W        W 4729   0.828   6.601  10.016
  530W        W 4730   1.597   5.320   0.835
  531W        W 4731   1.613   2.698  11.662
  532W        W 4732   6.410   8.878  10.249
  533W        W 4733   3.071  10.999   3.428
  534W        W 4734  10.630   0.328   1.747
  535W        W 4735  10.014   8.604   9.701
  536W        W 4736   5.252   3.574  11.340
  537W        W 4737  10.578   3.095  11.568
  538W        W 4738   1.677   0.508   2.619
  539W        W 4739   5.529   3.516   4.280
  540W        W 4740   2.455   8.497  10.754
  541W        W 4741   1.787   7.928   3.019
  542W        W 4742   7.981   3.456   2.112
  543W        W 4743   9.659   9.629   0.089
  544W        W 4744   7.950  11.295   2.946
  545W        W 4745   9.996   7.437   0.458
  546W        W 4746   5.557   8.568  10.680
  547W        W 4747   2.116   0.974   9.390
  548W        W 4748   7.235   1.262   2.281
  549W        W 4749   7.151  10.391  10.868
  550W        W 4750   0.722   6.470   2.768
  551W        W 4751   2.306   1.721   2.448
  552W        W 4752   5.707   4.224   0.118
  553W        W 4753   2.048   5.232  11.743
  554W        W 4754   0.501   5.111   2.816
  555W        W 4755   4.137   8.544  10.513
  556W        W 4756   3.354   9.394   1.912
  557W        W 4757   5.272   8.229   2.972
  558W        W 4758  10.041   3.517   0.062
  559W        W 4759   0.695   3.619   2.805
  560W        W 4760   9.602   1.421  10.595
  561W        W 4761   4.342   6.573   1.735
  562W        W 4762  11.146   9.513   9.528
  563W        W 4763   9.257   9.438   3.100
  564W        W 4764   4.042  11.007   3.157
  565W        W 4765   7.028  11.047   1.541
  566W        W 4766   2.177   9.859  10.757
  567W        W 4767   4.093   2.636   2.323
  568W        W 4768   6.208   4.129   8.638
  569W        W 4769   3.194  11.478   2.196
  570W        W 4770   6.058   7.168   3.966
  571W        W 4771  10.470   6.498   2.857
  572W        W 4772   3.439   8.990   3.334
  573W        W 4773   6.718  11.065   0.548
  574W        W 4774   6.128   3.027   8.620
  575W        W 4775   5.579   5.564  10.001
  576W        W 4776   1.342   4.211   2.935
  577W        W 4777   7.630   0.500  11.561
  578W        W 4778   6.918   6.535   0.709
  579W        W 4779   2.309   4.823  10.951
  580W        W 4780   0.497   1.313   9.870
  581W        W 4781   5.936   0.590   9.841
  582W        W 4782   7.594   2.471   1.217
  583W        W 4783   3.807   2.319  11.771
  584W        W 4784   8.239   1.313   1.746
  585W        W 4785   0.787   9.027   3.038
  586W        W 4786   9.958  11.414   9.867
  587W        W 4787   4.893   1.839   3.297
  588W        W 4788   3.641   1.630   9.037
  589W        W 4789   7.376   7.134  11.493
  590W        W 4790   3.159   4.231   2.774
  591W        W 4791   5.622   7.550  10.479
  592W        W 4792  10.461   4.712   1.956
  593W        W 4793   5.151   5.589   0.307
  594W        W 4794   9.437   7.701   9.413
  595W        W 4795   4.957   1.411  11.550
  596W        W 4796   4.922   3.125   8.639
  597W        W 4797   0.306   9.044   9.269
  598W        W 4798   3.769   5.167   2.652
  599W        W 4799  10.347   4.753   2.434
  600W        W 4800   4.346   1.708  11.508
  601W        W 4801   2.237   3.609   1.745
  602W        W 4802  10.898   8.461  11.397
  603W        W 4803   3.732  11.330  10.870
  604W        W 4804   5.729   0.117   1.840
  605W        W 4805   1.641   1.879   1.766
  606W        W 4806   6.214   3.395   0.012
  607W        W 4807   5.055   8.108  11.270
  608W        W 4808   2.861   7.395   0.671
  609W        W 4809   3.528   2.872  11.267
  610W        W 4810   4.235   9.567   8.920
  611W        W 4811   5.655   6.573   1.159
  612W        W 4812  10.716   9.451  11.113
  613W        W 4813   3.707   7.501   3.086
  614W        W 4814   1.306   8.663  11.933
  615W        W 4815   0.198   3.015   9.276
  616W        W 4816   2.716   3.598   1.526
  617W        W 4817   3.152   2.974   2.346
  618W        W 4818   1.915   8.536   9.899
  619W        W 4819   4.659   2.913  11.834
  620W        W 4820   1.913   9.440   2.540
  621W        W 4821   4.085  10.270  11.830
  622W        W 4822   3.643   6.261  11.898
  623W        W 4823   1.259   9.046   0.726
  624W        W 4824   5.170   1.022   9.953
  625W        W 4825   9.073   8.063   2.939
  626W        W 4826   2.774   8.346   1.502
  627W        W 4827   0.871   3.039  11.028
  628W        W 4828   9.154   0.960   8.627
  629W        W 4829   4.303   8.047  11.979
  630W        W 4830   6.087   8.702   3.638
  631W        W 4831   7.780   2.062  11.873
  632W        W 4832   1.338   9.831   3.037
  633W        W 4833   3.272   0.384   1.897
  634W        W 4834   4.203   5.912   8.245
  635W        W 4835   3.150   6.177   0.726
  636W        W 4836   7.573   6.883   9.939
  637W        W 4837  11.222   5.669   2.757
  638W        W 4838   1.408   9.507  10.481
  639W        W 4839   7.422  11.176  11.869
  640W        W 4840   2.007   2.290  10.446
  641W        W 4841   9.298   9.925  11.369
  642W        W 4842   2.346  11.046   9.108
  643W        W 4843   8.352   6.139   3.156
  644W        W 4844   3.381   3.467   4.183
  645W        W 4845   6.518   1.827   0.452
  646W        W 4846   5.293   7.622   0.824
  647W        W 4847  10.839   6.393   3.523
  648W        W 4848   9.451   0.880   9.050
  649W        W 4849   3.605   4.981  10.791
  650W        W 4850   6.032   9.943  11.193
  651W        W 4851   1.703   4.103   9.420
  652W        W 4852   1.643   7.102   0.998
  653W        W 4853   8.138   3.388   2.617
  654W        W 4854   7.360   0.931  11.410
  655W        W 4855   7.061   1.857   1.633
  656W        W 4856   5.221   2.663  11.782
  657W        W 4857   7.921   9.007   0.831
  658W        W 4858  10.059   4.320   9.364
  659W        W 4859   9.879   3.917   3.047
  660W        W 4860   7.436   5.978   9.859
  661W        W 4861   8.530   1.401  11.464
  662W        W 4862   1.446   8.177   1.311
  663W        W 4863   8.008  10.787   0.567
  664W        W 4864   5.225   0.643   0.933
  665W        W 4865   8.224   6.096   0.385
  666W        W 4866   9.101   8.064  10.747
  667W        W 4867   5.476   6.523   9.164
  668W        W 4868   6.220   9.913   8.591
  669W        W 4869   9.938   5.637   9.024
  670W        W 4870  11.211   3.794   2.678
  671W        W 4871   7.537   4.701   1.658
  672W        W 4872   8.543   8.988  11.978
  673W        W 4873   2.689   6.156   1.982
  674W        W 4874   1.251   6.554  10.314
  675W        W 4875   4.743   9.422   1.199
  676W        W 4876   5.193   9.407   9.986
  677W        W 4877   5.186   8.559   2.057
  678W        W 4878  11.392   2.968   8.868
  679W        W 4879   0.800   9.088   0.504
  680W        W 4880   6.028   2.061   2.765
  681W        W 4881   4.079   2.887  11.093
  682W        W 4882   7.046   0.083   9.235
  683W        W 4883   1.763   7.949   0.374
  684W        W 4884  10.876   6.374   9.296
  685W        W 4885   1.289   6.486   9.783
  686W        W 4886   9.007  10.837   2.024
  687W        W 4887   8.057   7.163   0.677
  688W        W 4888   1.203  10.898   9.501
  689W        W 4889   1.415   6.954  10.996
  690W        W 4890   8.593   9.809   9.805
  691W        W 4891   8.847   4.061  11.748
  692W        W 4892   6.255   2.196   3.212
  693W        W 4893   6.020   9.499   0.797
  694W        W 4894   1.116   0.301  10.884
  695W        W 4895   4.738   5.658   0.629
  696W        W 4896   4.206   7.544  10.501
  697W        W 4897   8.936   8.662   8.494
  698W        W 4898   2.959   5.287   1.594
  699W        W 4899   6.358   3.300   1.335
  700W        W 4900   6.525   8.380  11.008
  701W        W 4901   4.048   7.228   2.799
  702W        W 4902  10.762   4.187  10.052
  703W        W 4903   2.678   1.214  10.822
  704W        W 4904   9.170   5.918  10.768
  705W        W 4905   7.001   0.612  11.205
  706W        W 4906   7.134   6.162   2.271
  707W        W 4907   3.090   3.114   9.522
  708W        W 4908   4.954   5.215  11.484
  709W        W 4909   4.125   0.270   1.539
  710W        W 4910   0.871   1.298   1.415
  711W        W 4911   4.677   2.821   3.454
  712W        W 4912  10.402   6.466   9.014
  713W        W 4913   2.608   6.148   2.852
  714W        W 4914   9.968   8.878  11.576
  715W        W 4915   8.250   0.307  10.499
  716W        W 4916   8.819   0.253   1.827
  717W        W 4917   6.525   8.217   1.998
  718W        W 4918   4.143   6.055   0.832
  719W        W 4919   6.281   1.438  11.644
  720W        W 4920   8.008   6.459   0.013
  721W        W 4921   2.659   3.285   0.537
  722W        W 4922   1.240   0.789   9.938
  723W        W 4923   4.703   5.680  11.510
  724W        W 4924   2.991   3.740   2.835
  725W        W 4925  11.029   1.615   2.818
  726W        W 4926   6.906   7.513  11.863
  727W        W 4927   3.779  10.877   8.984
  728W        W 4928   4.925  10.699   3.545
  729W        W 4929   4.395   0.714  11.667
  730W        W 4930  10.436   6.890  10.736
  731W        W 4931   6.646   1.565   0.868
  732W        W 4932   0.223   3.508   9.906
  733W        W 4933   5.001  10.366  11.966
  734W        W 4934   0.823   7.134   0.482
  735W        W 4935   6.106   2.697   1.219
  736W        W 4936   8.891   1.463   1.733
  737W        W 4937   1.234  10.073   3.523
  738W        W 4938  10.925   1.313  10.654
  739W        W 4939   1.641  11.444  10.111
  740W        W 4940   1.141   7.303   1.048
  741W        W 4941   2.119   6.212   0.930
  742W        W 4942   4.511   3.203   2.252
  743W        W 4943  10.044  10.798  10.897
  744W        W 4944  10.363   8.837  10.936
  745W        W 4945   8.099  10.167  10.409
  746W        W 4946   9.994   7.193   1.884
  747W        W 4947   5.472   8.432   9.034
  748W        W 4948   3.809  10.438   1.416
  749W        W 4949   4.803   0.995  11.794
  750W        W 4950   1.284  10.674   1.923
  751W        W 4951   1.819   2.413   2.856
  752W        W 4952   6.696   5.211   1.399
  753W        W 4953  10.011   8.471   9.220
  754W        W 4954   3.354   4.680   2.614
  755W        W 4955   4.586   3.698   1.992
  756W        W 4956   4.295   2.436  10.979
  757W        W 4957   8.594   1.968   9.373
  758W        W 4958  11.306   4.253   9.389
  759W        W 4959   9.445   5.537  10.023
  760W        W 4960   8.383   8.079  10.010
  761W        W 4961   6.948   4.187   0.580
  762W        W 4962   1.254   5.333   1.274
  763W        W 4963   3.460   3.206  10.381
  764W        W 4964   4.714   0.378   9.385
  765W        W 4965   9.753   6.714   8.215
  766W        W 4966   8.189   0.436   9.974
  767W        W 4967   6.325   6.116  11.468
  768W        W 4968   5.179   4.821  11.733
  769W        W 4969   2.239   3.831   8.945
  770W        W 4970   0.005  11.221   0.981
  771W        W 4971   9.945   6.169   8.909
  772W        W 4972   1.137   9.535   8.990
  773W        W 4973   6.287   5.288   1.775
  774W        W 4974   7.920   9.802  11.801
  775W        W 4975   4.561   2.290  10.023
  776W        W 4976   0.443   0.338   1.931
  777W        W 4977   7.487   1.001   3.015
  778W        W 4978   7.479   1.475  10.485
  779W        W 4979   0.058   7.326   0.371
  780W        W 4980  10.740   2.959   9.441
  781W        W 4981   8.484   2.390  11.240
  782W        W 4982   5.749   3.684   2.294
  783W        W 4983   7.231   8.446  11.943
  784W        W 4984   7.802   4.223   1.591
  785W        W 4985   0.161   6.138   9.878
  786W        W 4986   4.782   4.128   9.597
  787W        W 4987   7.673   9.548   9.764
  788W        W 4988   5.573   0.286  11.548
  789W        W 4989   5.565   9.893   8.557
  790W        W 4990  11.240   2.249  10.598
  791W        W 4991   7.821   7.951   0.591
  792W        W 4992  11.054   7.008  11.954
  793W        W 4993   7.973   4.294   2.827
  794W        W 4994   6.742   8.064   0.246
  795W        W 4995  11.273   0.330   9.930
  796W        W 4996   7.523  10.582   2.619
  797W        W 4997   4.543   0.843  10.340
  798W        W 4998   7.443   5.210  11.761
  799W        W 4999   7.219   0.868   9.805
  800W        W 5000   6.633  11.340   9.071
  801W        W 5001   7.939   6.162   8.719
  802W        W 5002   4.612   3.084   0.308
  803W        W 5003   3.070   9.017  11.517
  804W        W 5004   7.539   1.701  11.076
  805W        W 5005   8.847   7.983   2.006
  806W        W 5006  11.307  10.788   0.767
  807W        W 5007   0.791   7.511  11.779
  808W        W 5008   4.735   7.495  11.317
  809W        W 5009   1.021   7.971   9.608
  810W        W 5010   9.842   6.542  11.771
  811W        W 5011   0.087  11.437  11.758
  812W        W 5012  10.541   0.319   9.286
  813W        W 5013   5.348   6.610   2.090
  814W        W 5014   2.889  10.117   1.817
  815W        W 5015   5.333   6.755  11.617
  816W        W 5016  10.235   5.673   9.436
  817W        W 5017  11.071   4.480  10.370
  818W        W 5018   6.458   3.771   8.943
  819W        W 5019   4.200   6.537   2.223
  820W        W 5020   4.040   6.705  10.019
  821W        W 5021   8.872   9.936  11.126
  822W        W 5022   8.956   1.105  11.438
  823W        W 5023   9.713   8.150   1.751
  824W        W 5024   3.765   9.549   2.249
  825W        W 5025   0.261   7.516   1.923
  826W        W 5026   4.707   9.806   8.834
  827W        W 5027   7.089   9.369  11.692
  828W        W 5028   5.431  10.344  10.324
  829W        W 5029   5.491   3.799   8.639
  830W        W 5030  10.460  11.343   9.854
  831W        W 5031  11.478   8.470  10.821
  832W        W 5032   1.271  10.800   3.033
  833W        W 5033   8.898   1.440  10.677
  834W        W 5034   7.248   0.083   9.706
  835W        W 5035  10.328   5.654   0.406
  836W        W 5036   8.577   3.792   8.198
  837W        W 5037  10.397   7.251  10.356
  838W        W 5038  10.353   2.906   9.751
  839W        W 5039   0.456   2.206  10.783
  840W        W 5040  10.908   0.061   0.792
  841W        W 5041   7.872   5.706   0.348
  842W        W 5042  10.890   0.699   9.926
  843W        W 5043   4.068   5.522  11.791
  844W        W 5044   3.731   8.937  10.079
  845W        W 5045   9.541  10.561  11.890
  846W        W 5046   4.674   0.487   0.965
  847W        W 5047   1.009   2.697   2.142
  848W        W 5048   1.970   0.442  11.054
  849W        W 5049  10.908   6.176  11.804
  850W        W 5050   9.356   5.665   0.680
  851W        W 5051   5.928   3.657   8.940
  852W        W 5052   1.631   9.327   2.125
  853W        W 5053   0.039   7.160   3.514
  854W        W 5054   8.018   7.196   2.541
  855W        W 5055   0.860   3.284  11.467
  856W        W 5056   6.566   0.283   1.997
  857W        W 5057   8.094   0.490   3.321
  858W        W 5058  10.701   9.785  11.514
  859W        W 5059   7.723   2.230   2.172
  860W        W 5060   5.107   7.002  10.445
  861W        W 5061   9.645   2.061   1.807
  862W        W 5062   6.639  11.266  10.768
  863W        W 5063   4.417   9.761   0.903
  864W        W 5064   5.937   6.623  10.421
  865W        W 5065   1.236   7.579   9.227
  866W        W 5066   1.873  10.613   9.848
  867W        W 5067  10.756   8.369   0.364
  868W        W 5068   8.867   9.945   1.061
  869W        W 5069   0.678   5.972   2.837
  870W        W 5070  10.804   9.584  10.047
  871W        W 5071   9.993  10.079   1.679
  872W        W 5072   2.749   2.263   3.635
  873W        W 5073   5.607   0.020   3.141
  874W        W 5074  11.009  11.165   8.992
  875W        W 5075   7.978   1.846   1.939
  876W        W 5076   2.977   0.672   9.547
  877W        W 5077  10.869   9.144   9.759
  878W        W 5078   4.619   1.943   2.509
  879W        W 5079   5.459   7.159  11.920
  880W        W 5080   8.572   3.217  11.296
  881W        W 5081   9.965   9.988   9.237
  882W        W 5082   0.343   6.083   9.405
  883W        W 5083   4.119   1.607  11.947
  884W        W 5084   8.517   1.723   8.924
  885W        W 5085  10.502   9.800   0.406
  886W        W 5086   4.206   7.228  10.892
  887W        W 5087   5.506   9.910   2.409
  888W        W 5088   4.983   6.911  11.940
  889W        W 5089   5.038   4.529   1.240
  890W        W 5090   4.422  11.288   2.945
  891W        W 5091   7.162   7.395   2.626
  892W        W 5092  11.142  10.289   2.310
  893W        W 5093   0.510   9.996   1.884
  894W        W 5094   0.814   0.686   9.111
  895W        W 5095   5.649   0.892  11.679
  896W        W 5096   7.848  10.399   0.276
  897W        W 5097   6.722   7.330   1.799
  898W        W 5098   9.426   7.330   1.864
  899W        W 5099   6.433   3.208   9.552
  900W        W 5100   6.195   7.033   3.086
  901W        W 5101   6.183   3.554  10.291
  902W        W 5102   3.385   9.345   0.286
  903W        W 5103   3.874   1.655  10.910
  904W        W 5104   2.014   0.463   9.523
  905W        W 5105   1.912   1.553   2.715
  906W        W 5106   5.166   6.941   9.223
  907W        W 5107  10.603   5.049  10.376
  908W        W 5108   8.959   9.313   9.334
  909W        W 5109   1.344   3.148   9.782
  910W        W 5110   3.818   3.721   2.174
  911W        W 5111   5.892   7.482   9.313
  912W        W 5112   6.793   7.832   3.267
  913W        W 5113   6.373  10.036   2.926
  914W        W 5114   0.900   3.640   9.306
  915W        W 5115   5.682  10.363  10.795
  916W        W 5116   3.537   0.806  10.473
  917W        W 5117   7.086   6.918   9.764
  918W        W 5118   9.741  11.437  10.348
  919W        W 5119   4.960   8.362   0.263
  920W        W 5120   7.057   0.500   2.718
  921W        W 5121   0.320   7.343  10.334
  922W        W 5122   3.537  10.407   2.562
  923W        W 5123   6.965   7.421   9.816
  924W        W 5124   9.030   6.461   8.383
  925W        W 5125   3.932   9.825  11.559
  926W        W 5126  10.423   7.654  11.527
  927W        W 5127   9.910   6.681  10.761
  928W        W 5128   2.831   1.395   3.367
  929W        W 5129   2.966   9.872   9.476
  930W        W 5130   7.637   6.683   0.318
  931W        W 5131   9.357  10.589   0.363
  932W        W 5132   0.233   4.615   0.831
  933W        W 5133  11.065   2.686  10.793
  934W        W 5134   1.850  10.456   2.649
  935W        W 5135   2.432   0.666   1.672
  936W        W 5136   9.816   4.148  11.916
  937W        W 5137  10.031   3.685  11.127
  938W        W 5138   1.414   7.615   3.322
  939W        W 5139   5.049   3.637  10.061
  940W        W 5140   8.640  10.536   0.884
  941W        W 5141   1.921   8.390   1.560
  942W        W 5142   9.334   2.897   1.558
  943W        W 5143   9.240   5.749   8.443
  944W        W 5144   6.771   7.580   0.765
  945W        W 5145   3.137   7.454   0.216
  946W        W 5146   4.804   9.420   3.346
  947W        W 5147   4.479   1.202  11.465
  948W        W 5148   7.609   3.341   2.459
  949W        W 5149   3.153  10.380  11.798
  950W        W 5150   6.693   8.983   9.827
  951W        W 5151   0.338   2.618   9.996
  952W        W 5152   2.331   7.202   9.047
  953W        W 5153   6.251   3.771  11.445
  954W        W 5154   0.720   7.272   2.665
  955W        W 5155   3.630   9.413   0.739
  956W        W 5156   0.483   1.695   9.075
  957W        W 5157  11.462   0.004   8.879
  958W        W 5158   6.759   9.788   0.367
  959W        W 5159   5.882   7.289  11.678
  960W        W 5160   4.957   7.983  10.671
  961W        W 5161   3.286   2.142   9.205
  962W        W 5162   3.731   1.973  11.296
  963W        W 5163   7.247   3.119  10.131
  964W        W 5164   7.727   9.544   0.247
  965W        W 5165   9.937   5.117   9.245
  966W        W 5166   4.448  11.004   0.909
  967W        W 5167   9.775   2.394  11.295
  968W        W 5168  10.805   9.398   9.094
  969W        W 5169   5.284   5.097   0.375
  970W        W 5170   9.140   5.935  10.230
  971W        W 5171   6.089   9.450   2.939
  972W        W 5172  11.289   6.526  11.874
  973W        W 5173   1.014   0.306   9.584
  974W        W 5174   1.019   0.499  10.415
  975W        W 5175   7.347   7.950  10.438
  976W        W 5176   0.267   0.772   2.863
  977W        W 5177   6.101   7.559  11.274
  978W        W 5178   4.542   4.541   1.346
  979W        W 5179  10.372  10.817   1.956
  980W        W 5180   3.062   0.832   1.227
  981W        W 5181   8.607   4.720   1.742
  982W        W 5182   4.704   7.583  10.314
  983W        W 5183   8.628   4.849  11.966
  984W        W 5184   3.212   7.393  11.714
  985W        W 5185   7.286   2.318   1.850
  986W        W 5186   8.436   2.712   3.560
  987W        W 5187   5.688  10.823   9.461
  988W        W 5188  11.374   8.651  11.635
  989W        W 5189   8.988   4.554   8.329
  990W        W 5190   9.332   0.350   1.065
  991W        W 5191   7.056   5.514  11.985
  992W        W 5192   3.925   2.113   2.907
  993W        W 5193   8.121   6.569   1.352
  994W        W 5194   3.910   6.654   8.970
  995W        W 5195   5.272  11.476   9.694
  996W        W 5196   6.925   8.576   1.332
  997W        W 5197  10.910  10.092  11.892
  998W        W 5198   1.857   5.031  10.767
  999W        W 5199   4.293   8.152   1.381
 1000W        W 5200   0.963   5.012   2.613
 1001W        W 5201  10.387   8.961  11.873
 1002W        W 5202   2.680   1.190  10.314
 1003W        W 5203   8.888   2.797   1.812
 1004W        W 5204   8.004   9.036   2.634
 1005W        W 5205   7.146   3.087  10.663
 1006W        W 5206  11.024   5.675  11.862
 1007W        W 5207   2.704   3.114   9.872
 1008W        W 5208   3.927   0.761   1.593
 1009W        W 5209   7.230   9.014  11.263
 1010W        W 5210   7.578   3.621  10.944
 1011W        W 5211   2.685   4.112   1.525
 1012W        W 5212   1.379   3.872   3.396
 1013W        W 5213  10.883  10.632   1.717
 1014W        W 5214   0.810   6.064   2.350
 1015W        W 5215  10.134   8.135   8.850
 1016W        W 5216   3.766  10.470   1.927
 1017W        W 5217  10.809   2.388   9.296
 1018W        W 5218   0.541   0.478   9.500
 1019W        W 5219   6.134  11.436   3.344
 1020W        W 5220   5.263   7.259   2.800
 1021W        W 5221   9.489  10.697   3.257
 1022W        W 5222   0.089   5.870   3.598
 1023W        W 5223   5.978   9.887   3.225
 1024W        W 5224   5.179   6.544   9.590
 1025W        W 5225   6.730  10.956  10.318
 1026W        W 5226   7.895   2.226  10.255
 1027W        W 5227   0.190  10.923   1.769
 1028W        W 5228   9.103   5.076   8.128
 1029W        W 5229   5.638   3.741   0.269
 1030W        W 5230   0.884   2.831   3.146
 1031W        W 5231   1.299   2.538  10.412
 1032W        W 5232   9.084   2.128   9.431
 1033W        W 5233   6.871   8.108  10.691
 1034W        W 5234   2.927   8.066   0.004
 1035W        W 5235   4.050   0.173   2.314
 1036W        W 5236   9.451   3.740   8.956
 1037W        W 5237  10.791   6.585   0.096
 1038W        W 5238   8.259   4.876   0.568
 1039W        W 5239   0.885  11.166   8.979
 1040W        W 5240  10.979   9.732   8.710
 1041W        W 5241   8.880   7.629   3.168
 1042W        W 5242   1.015   2.070   8.617
 1043W        W 5243   5.926   1.283   1.199
 1044W        W 5244   5.739   5.788   2.503
 1045W        W 5245   7.456   8.575   9.633
 1046W        W 5246  11.244   0.723   2.547
 1047W        W 5247   9.007   9.010  10.726
 1048W        W 5248   5.571   4.534  11.194
 1049W        W 5249   2.860   0.436   0.765
 1050W        W 5250   4.185  10.093   8.743
 1051W        W 5251   3.182   6.718  10.768
 1052W        W 5252   0.484  11.474   8.738
 1053W        W 5253   7.095   0.747   1.841
 1054W        W 5254   5.284  11.476   3.554
 1055W        W 5255   1.591   7.215  10.217
 1056W        W 5256   4.756   8.620   8.591
 1057W        W 5257   3.521   0.291   3.236
 1058W        W 5258   3.202   5.734   1.537
 1059W        W 5259   7.292   6.080   1.435
 1060W        W 5260   6.130   2.164   1.268
 1061W        W 5261   3.666   8.514   3.145
 1062W        W 5262   7.596   9.742   2.310
 1063W        W 5263   4.828   9.614  10.279
 1064W        W 5264   5.496   7.582   1.269
 1065W        W 5265   7.429   4.953   9.459
 1066W        W 5266  11.370   0.830  10.020
 1067W        W 5267   3.233   9.444   3.241
 1068W        W 5268   5.762   7.429   1.657
 1069W        W 5269   2.782   4.577  11.183
 1070W        W 5270   9.828   1.875  11.375
 1071W        W 5271   0.159   1.311   8.902
 1072W        W 5272   9.528   3.139  11.059
 1073W        W 5273   1.431   3.925  10.432
 1074W        W 5274   4.306   4.169   0.640
 1075W        W 5275   5.750  10.338   2.275
 1076W        W 5276   9.140   3.197   2.596
 1077W        W 5277   5.808  11.093   1.744
 1078W        W 5278   1.220   2.787   3.519
 1079W        W 5279  10.962  11.450  10.854
 1080W        W 5280   7.650  11.316   2.137
 1081W        W 5281   7.050   1.017   2.688
 1082W        W 5282   2.529   4.368  11.586
 1083W        W 5283   0.998   4.584  10.910
 1084W        W 5284   2.043   1.485   8.473
 1085W        W 5285   7.298   2.211  11.883
 1086W        W 5286   0.765   3.752   1.315
 1087W        W 5287   9.752   9.507   2.001
 1088W        W 5288   7.766   3.875  11.369
 1089W        W 5289   6.436   7.462   3.207
 1090W        W 5290   8.632   5.137   0.401
 1091W        W 5291   4.707   9.015   3.652
 1092W        W 5292   4.264   6.508   9.529
 1093W        W 5293   4.169   4.159   1.211
 1094W        W 5294   8.080   5.175   3.954
 1095W        W 5295   7.093   3.946   9.505
 1096W        W 5296   2.852   1.271   9.285
 1097W        W 5297   5.529   3.244   3.061
 1098W        W 5298   6.954   0.973   9.355
 1099W        W 5299   7.999   9.428   2.988
 1100W        W 5300   4.541   6.530   9.955
 1101W        W 5301   5.140   2.391   1.367
 1102W        W 5302   4.541   6.559  11.458
 1103W        W 5303   7.710   7.513   0.821
 1104W        W 5304   5.447  10.363   0.280
 1105W        W 5305  10.947   2.283  11.969
 1106W        W 5306   5.115   2.050  10.446
 1107W        W 5307   4.665   5.590  11.002
 1108W        W 5308   2.891   0.859   2.627
 1109W        W 5309   1.176   0.425   0.219
 1110W        W 5310  10.472   0.801   1.894
 1111W        W 5311   6.040   7.884  10.514
 1112W        W 5312   5.139   4.455   3.453
 1113W        W 5313   0.529   6.166   8.911
 1114W        W 5314   3.813   4.076   0.846
 1115W        W 5315   4.837   2.784   8.991
 1116W        W 5316   3.258   9.139  10.563
 1117W        W 5317   6.706   9.004  11.707
 1118W        W 5318   5.812   3.242  11.679
 1119W        W 5319   5.106   4.670   2.202
 1120W        W 5320   5.348   6.096   9.982
 1121W        W 5321   4.613   5.111  10.695
 1122W        W 5322   5.250   0.312   1.822
 1123W        W 5323   2.633  10.963   1.607
 1124W        W 5324   1.808   7.784  10.923
 1125W        W 5325   3.632   0.739   0.216
 1126W        W 5326   9.358   0.369  11.880
 1127W        W 5327   4.977   0.225   8.830
 1128W        W 5328   8.159   8.924  11.236
 1129W        W 5329   7.470   0.168  11.939
 1130W        W 5330  10.387  10.332   3.174
 1131W        W 5331   0.610   8.793   1.306
 1132W        W 5332   7.535   9.381   3.300
 1133W        W 5333   0.486   8.173   2.164
 1134W        W 5334  10.447   6.929   1.868
 1135W        W 5335   6.435   0.051  11.904
 1136W        W 5336   5.668   7.531   2.157
 1137W        W 5337   6.993   6.516  11.805
 1138W        W 5338   9.889   8.089   1.285
 1139W        W 5339   6.064   9.620   9.139
 1140W        W 5340   7.220  10.868   3.348
 1141W        W 5341   5.246  11.280   0.465
 1142W        W 5342   4.599  11.405  10.607
 1143W        W 5343  10.477   0.996   8.785
 1144W        W 5344   6.187   2.965   1.709
 1145W        W 5345  11.263   2.703   1.394
 1146W        W 5346   0.925   7.034  11.968
 1147W        W 5347   9.466  10.734   2.749
 1148W        W 5348  10.883   1.135  10.169
 1149W        W 5349   3.428   0.814   1.674
 1150W        W 5350   8.843   2.459   0.917
 1151W        W 5351   8.474  10.243   1.284
 1152W        W 5352   0.975   7.105   9.264
 1153W        W 5353   7.394   1.128   0.742
 1154W        W 5354   6.609   7.571   0.283
 1155W        W 5355   5.091   9.865  11.814
 1156W        W 5356  11.052   3.225   1.330
 1157W        W 5357   1.405   1.459  10.639
 1158W        W 5358   5.012   1.698   2.291
 1159W        W 5359   0.118   6.490   0.523
 1160W        W 5360   0.375   6.631  11.517
 1161W        W 5361   4.818   3.314  11.461
 1162W        W 5362   4.802  11.322  11.575
 1163W        W 5363   7.958   4.427   2.051
 1164W        W 5364   5.182   0.892   2.485
 1165W        W 5365   9.818   0.887   1.062
 1166W        W 5366   8.746   3.593   8.630
 1167W        W 5367   4.112   2.369   9.800
 1168W        W 5368   2.463   1.880   0.966
 1169W        W 5369   0.368  10.803   3.474
 1170W        W 5370   0.116   8.202  10.414
 1171W        W 5371   2.287   9.666   8.945
 1172W        W 5372   5.042   5.670   1.361
 1173W        W 5373   9.309   4.218   9.085
 1174W        W 5374  11.262   5.235   0.544
 1175W        W 5375   1.751   1.057   8.816
 1176W        W 5376   3.563   7.229   1.029
 1177W        W 5377   3.616   4.948   9.438
 1178W        W 5378   7.378  10.869   1.232
 1179W        W 5379   3.135   1.189  11.061
 1180W        W 5380   9.891   8.991  11.079
 1181W        W 5381   3.433   7.465   9.851
 1182W        W 5382  11.226   1.853  11.896
 1183W        W 5383  11.469   1.289   9.798
 1184W        W 5384   7.871   4.601   1.272
 1185W        W 5385   7.877  10.680  10.483
 1186W        W 5386  10.013   5.237   2.950
 1187W        W 5387   7.490   4.116  10.927
 1188W        W 5388   0.069   0.857  11.740
 1189W        W 5389   5.821   1.336  11.862
 1190W        W 5390   2.773   4.073  10.977
 1191W        W 5391   6.780   8.183  11.620
 1192W        W 5392   9.209   1.144  10.426
 1193W        W 5393   4.814   0.164   9.855
 1194W        W 5394   8.018   5.223   1.429
 1195W        W 5395   5.043  10.893   1.768
 1196W        W 5396   8.309  10.983   0.938
 1197W        W 5397  10.278   8.961   0.996
 1198W        W 5398  11.293   5.043   3.391
 1199W        W 5399   1.736   5.224   9.007
 1200W        W 5400   2.566   8.015   0.945
 1201W        W 5401   6.146   6.697   3.778
 1202W        W 5402   7.033   5.645   1.444
 1203W        W 5403   8.728   4.067   2.276
 1204W        W 5404  11.456   1.895   9.054
 1205W        W 5405   9.061   2.376   2.986
 1206W        W 5406   1.423   1.755   0.185
 1207W        W 5407   1.758   2.379   1.794
 1208W        W 5408   0.816   9.814   9.887
 1209W        W 5409   6.895   9.935  10.921
 1210W        W 5410   4.524   4.781   8.245
 1211W        W 5411   7.925   8.940  10.388
 1212W        W 5412   4.654   3.817   0.860
 1213W        W 5413   8.963   9.878  10.608
 1214W        W 5414   1.982   7.556  11.356
 1215W        W 5415   6.024   3.604   4.121
 1216W        W 5416   0.015   0.370  10.401
 1217W        W 5417   7.995  10.782  11.545
 1218W        W 5418   5.843   3.114   1.379
 1219W        W 5419   2.292   4.096  10.579
 1220W        W 5420   0.672   8.738   9.020
 1221W        W 5421   6.220   4.557   9.394
 1222W        W 5422  11.386   9.806   1.620
 1223W        W 5423   1.855  10.088  11.571
 1224W        W 5424   0.880   1.932   9.385
 1225W        W 5425   8.456   9.515   2.768
 1226W        W 5426   5.488   0.838   9.584
 1227W        W 5427   5.423   3.359   1.103
 1228W        W 5428   9.229   2.046   0.390
 1229W        W 5429   5.672   8.995   2.008
 1230W        W 5430  10.008   9.921   2.702
 1231W        W 5431   6.649   4.185   3.164
 1232W        W 5432   9.939   9.844   1.213
 1233W        W 5433   9.190   0.628  10.407
 1234W        W 5434   3.789   8.037  10.004
 1235W        W 5435   8.716   2.196   0.259
 1236W        W 5436   9.091   9.484   1.375
 1237W        W 5437   1.821   2.645  10.116
 1238W        W 5438   8.898   7.179   9.988
 1239W        W 5439   5.622   9.536   8.906
 1240W        W 5440   3.098   2.367  10.138
 1241W        W 5441   1.257   4.728   0.133
 1242W        W 5442  11.443   1.892   1.992
 1243W        W 5443   9.442   5.133   9.041
 1244W        W 5444  11.226  11.254   0.550
 1245W        W 5445   2.606  10.764   9.583
 1246W        W 5446   8.549   9.545   0.809
 1247W        W 5447   3.874   0.435   9.691
 1248W        W 5448   5.957   4.750  11.892
 1249W        W 5449   0.788   0.074   0.304
 1250W        W 5450   7.199   2.295   9.347
 1251W        W 5451   2.581   2.329   0.417
 1252W        W 5452   3.187   1.761   2.509
 1253W        W 5453  10.859   7.989  11.600
 1254W        W 5454   8.487   1.759   1.877
 1255W        W 5455   9.370   7.620   3.090
 1256W        W 5456   8.513   5.748  11.828
 1257W        W 5457   5.636   2.127  10.888
 1258W        W 5458   2.156   6.564   8.511
 1259W        W 5459  10.879   4.122   9.104
 1260W        W 5460   4.809  10.252   9.159
 1261W        W 5461   3.358   6.090  10.198
 1262W        W 5462  11.238   2.360   2.952
 1263W        W 5463   1.138   1.787  10.310
 1264W        W 5464   8.914   9.925   2.053
 1265W        W 5465   3.221   1.605   9.606
 1266W        W 5466   0.740  10.696   8.798
 1267W        W 5467  10.526   1.375  11.027
 1268W        W 5468  11.355   8.822  11.155
 1269W        W 5469   8.758   3.199   3.544
 1270W        W 5470   2.195  11.374   1.379
 1271W        W 5471   3.473  11.191   2.545
 1272W        W 5472   5.898   4.155  11.455
 1273W        W 5473   2.321   8.987   1.004
 1274W        W 5474   0.889   0.306   2.663
 1275W        W 5475   7.650  11.075   2.574
 1276W        W 5476   3.797   8.151   8.709
 1277W        W 5477   6.131   6.515   0.291
 1278W        W 5478  11.348   7.419  11.930
 1279W        W 5479   1.554   4.386   9.002
 1280W        W 5480   5.500  11.430   2.650
 1281W        W 5481  11.436   7.592   1.108
 1282W        W 5482   6.123   4.850   0.854
 1283W        W 5483   4.667   3.581  10.970
 1284W        W 5484   8.516   2.470   1.356
 1285W        W 5485   1.951  10.884  10.939
 1286W        W 5486   7.717   4.372   3.269
 1287W        W 5487   6.681   8.365   8.987
 1288W        W 5488   7.732   2.245   2.690
 1289W        W 5489   1.599   7.048  11.521
 1290W        W 5490   7.079   1.870  11.276
 1291W        W 5491   5.555   6.595   2.635
 1292W        W 5492   9.016   3.323   1.143
 1293W        W 5493   9.401   7.452   0.421
 1294W        W 5494   8.007   2.936  11.882
 1295W        W 5495   0.504   7.099  11.721
 1296W        W 5496  10.902  10.929   2.657
 1297W        W 5497   5.445   2.376   3.517
 1298W        W 5498   1.102   2.455  11.669
 1299W        W 5499   9.929   9.456   2.478
 1300W        W 5500   0.948   8.344   8.339
 1301W        W 5501   9.183   4.206   2.127
 1302W        W 5502   6.193  10.412   1.991
 1303W        W 5503   5.682   4.127   3.541
 1304W        W 5504   3.774   9.820   8.922
 1305W        W 5505  11.006  10.998  10.436
 1306W        W 5506   3.844   9.791  10.599
 1307W        W 5507   2.534   7.530   1.152
 1308W        W 5508  10.889  10.018   0.885
 1309W        W 5509   0.959   3.649   1.812
 1310W        W 5510   2.136   0.854   9.882
 1311W        W 5511   7.014   1.269   1.030
 1312W        W 5512   6.695   4.321  11.765
 1313W        W 5513  10.944   8.528   1.887
 1314W        W 5514   1.042   0.829  10.879
 1315W        W 5515   3.604  11.236  10.380
 1316W        W 5516   9.335   1.045   2.577
 1317W        W 5517   9.496   2.413   0.101
 1318W        W 5518   1.754  10.819   0.148
 1319W        W 5519  10.026   6.100  11.977
 1320W        W 5520   6.557   4.762   1.133
 1321W        W 5521   2.774   7.409   8.889
 1322W        W 5522   8.950  11.468   3.247
 1323W        W 5523  11.079   9.974   3.706
 1324W        W 5524   1.107   5.639   3.356
 1325W        W 5525   2.394   7.964   1.448
 1326W        W 5526   0.420   3.158   2.791
 1327W        W 5527   6.429   6.685   0.681
 1328W        W 5528   3.199   9.975   3.334
 1329W        W 5529   3.628   0.379   1.427
 1330W        W 5530   2.559   1.101   9.691
 1331W        W 5531   3.314   7.145   0.576
 1332W        W 5532  11.004   1.629   9.218
 1333W        W 5533   2.621   3.504  11.798
 1334W        W 5534   5.736   5.247   1.206
 1335W        W 5535   6.154   2.887  11.809
 1336W        W 5536   6.018   1.315  10.295
 1337W        W 5537   4.627   7.955  11.549
 1338W        W 5538  11.323   9.295   9.101
 1339W        W 5539  11.311   9.767   0.714
 1340W        W 5540   7.468   6.853   9.414
 1341W        W 5541   3.319  10.619   9.120
 1342W        W 5542   2.262   6.935   2.290
 1343W        W 5543   8.728   4.677  10.605
 1344W        W 5544   8.974   3.279   3.081
 1345W        W 5545   7.534   6.963   2.636
 1346W        W 5546   9.090   6.477   0.940
 1347W        W 5547   5.337   0.027   9.163
 1348W        W 5548   0.926   9.788  11.821
 1349W        W 5549  10.726  11.138   1.801
 1350W        W 5550   5.769  10.492   2.799
 1351W        W 5551   3.916   1.602   2.065
 1352W        W 5552   3.222   4.650  11.862
 1353W        W 5553   7.086   9.493   3.038
 1354W        W 5554   4.064   1.287  10.613
 1355W        W 5555   3.594  10.721  10.346
 1356W        W 5556   5.398   4.048  11.417
 1357W        W 5557   6.969   9.011   1.100
 1358W        W 5558   8.911   1.429  10.133
 1359W        W 5559   1.930   3.865  10.288
 1360W        W 5560   0.231   5.008   9.479
 1361W        W 5561   3.358   7.641  11.292
 1362W        W 5562   6.493   2.586   1.828
 1363W        W 5563   4.164  11.284   9.415
 1364W        W 5564   1.250   4.378   3.447
 1365W        W 5565   4.111   8.190   2.248
 1366W        W 5566   5.628   1.198  10.905
 1367W        W 5567   1.832   7.095   9.781
 1368W        W 5568   1.801   3.601  11.717
 1369W        W 5569   3.137   8.684   1.323
 1370W        W 5570   8.194   7.665   0.796
 1371W        W 5571   4.583   1.858   9.412
 1372W        W 5572   7.718   1.456   2.189
 1373W        W 5573   7.637   1.397   9.240
 1374W        W 5574   9.338   0.354   8.201
 1375W        W 5575   3.289   2.572   3.556
 1376W        W 5576   2.955   9.625   1.710
 1377W        W 5577   1.302   0.303  10.034
 1378W        W 5578   3.977   4.058  10.557
 1379W        W 5579   2.187   5.315   1.137
 1380W        W 5580   5.098   3.627   3.963
 1381W        W 5581   3.740   8.806  11.095
 1382W        W 5582   7.110   8.928   9.525
 1383W        W 5583   9.045  10.336   9.286
 1384W        W 5584   6.595   1.403   3.363
 1385W        W 5585   2.187  10.011   3.154
 1386W        W 5586   4.150   6.218  10.781
 1387W        W 5587   4.138   9.355   0.764
 1388W        W 5588   4.491  11.451   2.450
 1389W        W 5589   1.433   1.138  11.046
 1390W        W 5590   2.691  11.137  11.748
 1391W        W 5591   8.479   1.012   1.088
 1392W        W 5592   5.080   3.270  10.986
 1393W        W 5593   9.333   0.775   3.000
 1394W        W 5594   3.286   2.621   2.947
 1395W        W 5595  11.228   2.189   3.445
 1396W        W 5596   8.535   9.603   3.618
 1397W        W 5597   5.983   7.293   8.596
 1398W        W 5598   3.082   2.359   0.466
 1399W        W 5599   3.624  10.613  11.756
 1400W        W 5600   2.347   4.143   0.868
 1401W        W 5601   8.448   0.745  10.711
 1402W        W 5602  10.290  10.477   9.755
 1403W        W 5603   2.750   7.853   0.458
 1404W        W 5604   8.411   8.813   8.542
 1405W        W 5605   8.183   5.980   8.273
 1406W        W 5606   5.736  10.305   1.745
 1407W        W 5607   6.607   8.082   0.720
 1408W        W 5608   5.679   2.314   8.681
 1409W        W 5609   3.491   1.913   2.134
 1410W        W 5610   3.314   5.714  10.550
 1411W        W 5611  11.307   2.726   3.500
 1412W        W 5612   6.034   2.826   3.656
 1413W        W 5613   6.190  10.532   1.506
 1414W        W 5614   9.688   1.453  11.106
 1415W        W 5615  10.437   0.701   0.469
 1416W        W 5616   2.581   5.659   2.618
 1417W        W 5617   6.086   8.849   2.782
 1418W        W 5618   5.583   8.641   9.919
 1419W        W 5619  10.990   9.900   0.363
 1420W        W 5620   6.539   4.374   8.958
 1421W        W 5621   8.681   8.103   0.048
 1422W        W 5622   7.439   4.323  10.305
 1423W        W 5623   4.652   5.626  10.488
 1424W        W 5624   8.818   4.803   0.792
 1425W        W 5625   4.785   9.675   3.824
 1426W        W 5626   2.391   7.065   1.433
 1427W        W 5627   9.946   2.834  11.092
 1428W        W 5628   1.343   1.671   9.336
 1429W        W 5629   9.699   9.201   0.416
 1430W        W 5630  10.418   1.660   0.215
 1431W        W 5631   4.189   4.697   9.352
 1432W        W 5632   2.233   6.401   9.393
 1433W        W 5633   9.554   6.513   9.085
 1434W        W 5634   7.713   9.414  10.268
 1435W        W 5635   2.436   8.200   1.911
 1436W        W 5636   8.085   8.604   8.913
 1437W        W 5637   9.764   2.106   0.762
 1438W        W 5638   8.975   7.511  11.504
 1439W        W 5639   8.460   4.749   2.684
 1440W        W 5640   8.614   6.479   9.634
 1441W        W 5641   1.663  11.001   1.872
 1442W        W 5642   8.143   6.427   9.451
 1443W        W 5643  11.333   6.026   3.159
 1444W        W 5644   8.042   0.265  11.332
 1445W        W 5645   7.560   7.164   0.493
 1446W        W 5646   0.332   5.853   2.270
 1447W        W 5647   5.219  10.811  10.252
 1448W        W 5648   7.426   7.786   2.315
 1449W        W 5649   6.060   1.999   8.868
 1450W        W 5650   6.344   6.062  10.106
 1451W        W 5651   8.694   4.078   3.350
 1452W        W 5652   5.597   9.306  11.293
 1453W        W 5653   7.270   9.755   0.036
 1454W        W 5654   8.663   3.724   0.421
 1455W        W 5655   8.880  11.184  11.895
 1456W        W 5656   4.964  11.162   0.898
 1457W        W 5657   4.900   3.281   9.166
 1458W        W 5658   1.930   4.763   8.926
 1459W        W 5659   5.443   6.611  10.356
 1460W        W 5660   1.250   1.242   0.051
 1461W        W 5661   6.214   8.002   0.251
 1462W        W 5662   9.782   8.618   0.579
 1463W        W 5663  10.763   2.801   1.207
 1464W        W 5664   0.285  10.357  11.323
 1465W        W 5665   6.014   0.882   0.042
 1466W        W 5666   1.346   9.073  11.657
 1467W        W 5667   2.291   1.444  10.601
 1468W        W 5668   2.079   9.360   9.335
 1469W        W 5669   5.246   9.191   3.271
 1470W        W 5670   6.477   9.513   2.362
 1471W        W 5671   6.000   5.515  10.347
 1472W        W 5672   8.465   3.059   3.114
 1473W        W 5673   3.913   0.422  10.932
 1474W        W 5674   7.265   5.075   9.950
 1475W        W 5675   7.596   5.887  11.213
 1476W        W 5676   2.950   1.275   0.406
 1477W        W 5677   8.420   9.751   1.295
 1478W        W 5678  10.711   5.259  11.785
 1479W        W 5679   3.191   4.570   3.453
 1480W        W 5680   0.566   0.792  11.760
 1481W        W 5681   8.576   6.946  10.289
 1482W        W 5682   0.694   8.147  10.042
 1483W        W 5683   0.343   0.762  11.299
 1484W        W 5684   5.970   9.042   1.015
 1485W        W 5685   4.757   0.473   1.843
 1486W        W 5686   2.841   0.458   8.961
 1487W        W 5687   7.792   3.082   2.878
 1488W        W 5688   9.132   3.295   9.481
 1489W        W 5689   2.815   4.228   3.505
 1490W        W 5690   1.746   2.700  10.630
 1491W        W 5691  10.870   9.889   9.214
 1492W        W 5692   0.296   7.638  10.846
 1493W        W 5693   9.139   6.208   2.285
 1494W        W 5694   7.488   5.740  11.720
 1495W        W 5695   5.950   5.185  11.376
 1496W        W 5696   1.461   6.178   1.667
 1497W        W 5697   1.898   6.141   1.406
 1498W        W 5698  10.937   4.074   0.606
 1499W        W 5699   9.486   5.958   9.759
 1500W        W 5700   2.576   5.252  11.819
 1501W        W 5701   7.906   1.339   3.137
 1502W        W 5702   2.381   0.968  11.992
 1503W        W 5703   6.128   1.266  10.797
 1504W        W 5704   5.240   1.563  10.591
 1505W        W 5705   0.062   0.305   9.499
 1506W        W 5706   0.395   8.436   0.973
 1507W        W 5707   2.083   4.043  11.403
 1508W        W 5708   2.884   0.328   9.923
 1509W        W 5709   0.267   5.575   2.703
 1510W        W 5710   6.457   2.064  11.856
 1511W        W 5711   4.255   2.558  11.886
 1512W        W 5712   3.548   2.088   9.998
 1513W        W 5713   1.016   2.079   0.070
 1514W        W 5714   6.567   8.142   9.485
 1515W        W 5715   0.124  10.413   2.425
 1516W        W 5716   1.307   4.001   1.954
 1517W        W 5717   4.334  10.984   9.011
 1518W        W 5718  10.942   6.718   9.724
 1519W        W 5719   1.445  10.521   3.463
 1520W        W 5720   2.510   5.790  10.005
 1521W        W 5721   4.906   2.338   3.453
 1522W        W 5722   3.297   5.014  10.045
 1523W        W 5723   2.113   4.579  11.397
 1524W        W 5724  11.341   3.304  10.584
 1525W        W 5725   1.673   7.476   1.718
 1526W        W 5726   6.583   0.765   8.899
 1527W        W 5727   7.837   9.871  11.304
 1528W        W 5728  10.664   4.290  11.778
 1529W        W 5729   6.823   1.000  11.513
 1530W        W 5730   3.169   9.766   0.471
 1531W        W 5731   3.755   2.784   1.184
 1532W        W 5732   7.362   5.596  10.811
 1533W        W 5733   7.153   4.852  11.169
 1534W        W 5734   8.533   8.606   4.144
 1535W        W 5735   7.980   5.723  10.046
 1536W        W 5736  10.539   5.992   2.754
 1537W        W 5737   6.454   4.727  10.175
 1538W        W 5738   2.455   0.472   8.605
 1539W        W 5739   3.298   2.727  10.444
 1540W        W 5740   5.691   1.804   8.533
 1541W        W 5741   5.832   6.106   1.372
 1542W        W 5742   1.857   7.438   9.056
 1543W        W 5743   9.964   9.840  11.731
 1544W        W 5744   1.484   3.298   2.715
 1545W        W 5745   7.740   0.078   0.376
 1546W        W 5746   8.484  11.426   2.127
 1547W        W 5747   5.191   3.960   3.588
 1548W        W 5748   3.788   8.509   0.715
 1549W        W 5749   7.946   1.447   2.651
 1550W        W 5750   3.812   0.736   0.863
 1551W        W 5751   8.022   8.514   2.364
 1552W        W 5752  10.483   2.300   2.992
 1553W        W 5753   2.204   8.091   9.919
 1554W        W 5754  10.979   7.189  10.992
 1555W        W 5755   4.564   3.531   8.634
 1556W        W 5756   5.052   3.583   8.777
 1557W        W 5757   3.834   1.256   1.682
 1558W        W 5758  11.090   0.394   2.924
 1559W        W 5759  10.562   5.212   2.252
 1560W        W 5760   7.196   5.262  10.434
 1561W        W 5761   4.785   3.567   2.473
 1562W        W 5762   8.976   1.959   8.938
 1563W        W 5763   8.616   3.339   0.794
 1564W        W 5764   5.686   2.721   0.016
 1565W        W 5765   4.584  10.769   9.432
 1566W        W 5766   0.827   4.709  10.450
 1567W        W 5767   2.814   1.342   2.838
 1568W        W 5768   5.268   5.095   1.970
 1569W        W 5769   3.292   7.491   8.982
 1570W        W 5770   5.562   2.690   1.422
 1571W        W 5771   4.259   0.765   9.080
 1572W        W 5772   5.556   4.962  10.872
 1573W        W 5773  10.350   4.746  10.727
 1574W        W 5774  10.893   9.844   2.180
 1575W        W 5775   7.968   6.554   2.284
 1576W        W 5776   0.368   5.667   1.045
 1577W        W 5777   8.601   0.747   9.875
 1578W        W 5778  10.499   2.383  11.033
 1579W        W 5779   8.016   7.904   1.814
 1580W        W 5780   5.545   3.857   1.097
 1581W        W 5781   9.114   8.395   0.035
 1582W        W 5782   9.688   5.092  10.003
 1583W        W 5783   9.941   9.096   9.582
 1584W        W 5784  11.283   7.225   0.796
 1585W        W 5785   4.678  10.709  11.022
 1586W        W 5786   9.505  10.092   0.357
 1587W        W 5787   0.713   0.628   0.232
 1588W        W 5788   2.778   6.636   1.783
 1589W        W 5789   3.185   0.434  10.525
 1590W        W 5790   4.803   5.139   0.518
 1591W        W 5791   0.783   4.524   9.886
 1592W        W 5792   1.530   1.883   1.142
 1593W        W 5793   3.981   2.637   9.085
 1594W        W 5794   4.423   6.616   9.057
 1595W        W 5795   9.481   0.074   9.934
 1596W        W 5796  10.572   8.547   0.834
 1597W        W 5797  10.790   2.687   0.709
 1598W        W 5798   0.766  10.859   3.161
 1599W        W 5799   9.007  11.336   2.201
 1600W        W 5800  10.420   3.817  10.843
 1601W        W 5801   1.755   7.256  10.700
 1602W        W 5802   0.863  11.365   2.395
 1603W        W 5803   4.008   1.089   1.203
 1604W        W 5804   0.101   4.621   9.185
 1605W        W 5805  11.385  10.834   1.318
 1606W        W 5806   1.249   8.624  11.424
 1607W        W 5807   1.845   3.386   8.881
 1608W        W 5808   4.346   2.273  10.500
 1609W        W 5809   0.677   3.286   3.188
 1610W        W 5810   3.025   9.473   2.753
 1611W        W 5811   7.606   7.198  11.977
 1612W        W 5812   1.633   0.167  10.757
 1613W        W 5813   7.411   9.844  11.554
 1614W        W 5814  11.392   4.548  11.485
 1615W        W 5815  10.878   2.024   8.918
 1616W        W 5816   8.613   6.456  10.172
 1617W        W 5817   0.263  10.990  11.958
 1618W        W 5818   2.486   6.934   4.127
 1619W        W 5819   4.634   7.053  11.586
 1620W        W 5820   9.852   1.223   1.689
 1621W        W 5821   5.183   1.356   2.787
 1622W        W 5822   1.709   4.882   1.863
 1623W        W 5823   3.821   9.993   2.687
 1624W        W 5824   8.858   2.820   2.326
 1625W        W 5825   4.470   8.207   9.035
 1626W        W 5826   6.731   3.593   9.436
 1627W        W 5827   9.808   6.973   9.083
 1628W        W 5828   4.433   2.756   9.276
 1629W        W 5829   8.620   8.892   2.452
 1630W        W 5830   2.205   0.973  10.359
 1631W        W 5831   2.526   4.513   0.551
 1632W        W 5832   6.055   7.947   9.526
 1633W        W 5833   1.555   1.311   2.250
 1634W        W 5834   4.319   1.445   1.743
 1635W        W 5835   1.479   8.651   1.509
 1636W        W 5836   2.895   2.354  11.601
 1637W        W 5837   8.360   1.376   3.396
 1638W        W 5838   5.020   7.219   9.624
 1639W        W 5839   2.534   3.531   2.601
 1640W        W 5840  10.304   7.934   0.415
 1641W        W 5841   3.839   5.974   0.441
 1642W        W 5842   3.810   0.923  10.896
 1643W        W 5843   5.430   3.292   1.610
 1644W        W 5844   7.269   3.824  11.338
 1645W        W 5845   3.591   0.904   3.342
 1646W        W 5846   2.186   1.776  11.000
 1647W        W 5847   2.250   5.235   0.210
 1648W        W 5848   0.023   4.217  10.260
 1649W        W 5849   2.828   5.049   2.568
 1650W        W 5850   7.940   5.050   9.511
 1651W        W 5851   2.882   9.875   0.902
 1652W        W 5852   4.035   9.834   0.063
 1653W        W 5853   9.093   3.946  11.265
 1654W        W 5854  10.760  10.766   9.154
 1655W        W 5855  11.273  11.417   3.811
 1656W        W 5856   0.533   7.485   0.238
 1657W        W 5857   4.711   2.098  10.796
 1658W        W 5858   8.084   3.165   1.180
 1659W        W 5859   9.148   6.215   2.808
 1660W        W 5860   1.641   8.324   8.829
 1661W        W 5861  10.908   5.749  10.004
 1662W        W 5862   5.527   0.259   0.465
 1663W        W 5863   2.221   8.150   2.774
 1664W        W 5864   0.287  11.329   3.693
 1665W        W 5865   1.054   2.253   2.361
 1666W        W 5866   8.009   7.553   2.165
 1667W        W 5867   9.082   1.996   2.639
 1668W        W 5868   2.334   5.572  11.438
 1669W        W 5869   6.306   8.306  10.337
 1670W        W 5870   8.082   7.996  11.578
 1671W        W 5871   0.286   4.205   3.404
 1672W        W 5872  11.466   5.194   2.809
 1673W        W 5873   2.922  10.200   0.443
 1674W        W 5874   6.093   3.021   2.378
 1675W        W 5875   2.025   4.811   2.740
 1676W        W 5876   9.021  11.152  11.329
 1677W        W 5877   4.781   9.939   2.960
 1678W        W 5878   8.353   7.619  10.737
 1679W        W 5879   4.740   9.401   9.747
 1680W        W 5880   8.100   0.662  11.654
 1681W        W 5881   1.664   9.559   9.619
 1682W        W 5882   7.572   2.000   3.469
 1683W        W 5883   8.938   1.433   8.795
 1684W        W 5884   1.978   7.615   9.928
 1685W        W 5885  11.498  10.962  10.618
 1686W        W 5886   0.210   0.315  11.037
 1687W        W 5887   4.323  10.458   9.085
 1688W        W 5888   6.604   4.406   8.441
 1689W        W 5889   8.592  11.400  11.448
 1690W        W 5890   4.697   2.098   8.502
 1691W        W 5891   9.435   4.141   3.132
 1692W        W 5892   9.003   8.772   9.384
 1693W        W 5893   2.098   7.226   1.875
 1694W        W 5894   9.548   2.630  10.858
 1695W        W 5895   3.272   2.909   1.345
 1696W        W 5896   7.068   1.810   9.462
 1697W        W 5897   3.556   3.842  11.806
 1698W        W 5898  11.097   4.982  10.484
 1699W        W 5899   8.936   9.106   3.435
 1700W        W 5900  11.228   9.349   2.433
 1701W        W 5901   4.191   2.499   3.147
 1702W        W 5902   0.309   7.538   0.761
 1703W        W 5903   3.063   6.183   9.353
 1704W        W 5904   1.307   0.326  11.733
 1705W        W 5905  10.462   9.386   1.266
 1706W        W 5906   9.002   3.764  10.802
 1707W        W 5907   6.000   2.308  10.096
 1708W        W 5908  11.286   3.309  10.080
 1709W        W 5909   8.820   7.096   2.548
 1710W        W 5910   8.373   9.889  11.304
 1711W        W 5911   2.758  11.389   0.711
 1712W        W 5912   7.521   2.708   2.675
 1713W        W 5913  10.470   9.566   8.734
 1714W        W 5914   4.635   8.578   3.308
 1715W        W 5915   0.385   1.929   3.305
 1716W        W 5916   2.358   2.833   1.317
 1717W        W 5917   6.068   9.345  11.054
 1718W        W 5918   7.323   7.802   1.438
 1719W        W 5919   6.146   0.487   8.780
 1720W        W 5920   6.479  10.891   8.819
 1721W        W 5921   7.948   0.490   8.836
 1722W        W 5922   7.128   7.267   9.359
 1723W        W 5923   5.966   7.549   0.238
 1724W        W 5924   1.717   7.410   2.993
 1725W        W 5925  10.457   3.122   2.371
 1726W        W 5926   1.445   9.747   3.838
 1727W        W 5927  10.679   6.967   1.393
 1728W        W 5928   8.367   6.878   9.321
 1729W        W 5929   7.084  10.027   9.085
 1730W        W 5930   4.420   8.103   3.209
 1731W        W 5931   4.576   7.094  10.511
 1732W        W 5932   2.898   9.472  10.864
 1733W        W 5933   3.111   9.954  11.056
 1734W        W 5934   8.148   6.654  10.414
 1735W        W 5935  11.282   1.412   1.825
 1736W        W 5936   4.210   7.619   3.136
 1737W        W 5937   2.147   7.145   0.987
 1738W        W 5938   0.316   1.295   9.399
 1739W        W 5939  11.049  11.253   1.264
 1740W        W 5940   4.479   5.292   0.947
 1741W        W 5941   5.232   7.833   1.635
 1742W        W 5942   9.717   5.528   9.495
 1743W        W 5943   9.119   4.884   8.697
 1744W        W 5944  11.315   5.464  10.396
 1745W        W 5945  10.748   0.584   2.547
 1746W        W 5946   8.247   1.482   2.227
 1747W        W 5947   9.636   7.141  11.830
 1748W        W 5948   1.754   0.579  11.502
 1749W        W 5949   8.530   0.447   2.241
 1750W        W 5950  10.967   7.211   3.124
 1751W        W 5951  10.863   9.160   2.731
 1752W        W 5952   1.728   2.673  11.147
 1753W        W 5953   2.591   7.226   2.780
 1754W        W 5954   6.495   0.161   0.963
 1755W        W 5955   8.621   1.014   1.575
 1756W        W 5956   7.086   8.909  10.768
 1757W        W 5957   8.999   7.437   9.097
 1758W        W 5958   4.898   3.248   3.661
 1759W        W 5959   0.363   8.604  11.850
 1760W        W 5960   5.629   2.760   2.365
 1761W        W 5961  11.432   5.980   0.554
 1762W        W 5962   1.444   2.754   2.503
 1763W        W 5963   1.468   7.137   8.538
 1764W        W 5964   7.171   3.351  11.111
 1765W        W 5965  10.832   7.469  11.811
 1766W        W 5966   6.672   0.547   0.677
 1767W        W 5967   4.345   2.063  11.929
 1768W        W 5968  10.087   6.852  10.314
 1769W        W 5969   1.793  11.284  11.928
 1770W        W 5970   2.211   5.678   0.479
 1771W        W 5971   3.110  11.437  10.131
 1772W        W 5972   3.178   6.463   1.167
 1773W        W 5973  10.887   3.838   3.105
 1774W        W 5974   3.672   9.813   0.405
 1775W        W 5975   3.327   3.751   2.048
 1776W        W 5976   3.397  11.170  11.537
 1777W        W 5977   3.358   4.250   1.789
 1778W        W 5978   3.603   4.809   0.164
 1779W        W 5979   2.965   4.245   0.435
 1780W        W 5980   2.466  11.398   1.828
 1781W        W 5981   8.376   3.126   2.212
 1782W        W 5982   6.273  10.926   1.829
 1783W        W 5983   3.290  11.014   2.002
 1784W        W 5984   0.865   3.212   9.979
 1785W        W 5985   7.991  10.482  10.028
 1786W        W 5986   7.411   8.994  10.377
 1787W        W 5987   8.150   5.172   2.722
 1788W        W 5988   5.686  10.330   9.365
 1789W        W 5989   6.647   7.309   9.172
 1790W        W 5990   2.091   5.610   2.437
 1791W        W 5991   5.436   5.126  11.344
 1792W        W 5992   6.260   0.862   1.412
 1793W        W 5993   7.864   4.553   0.704
 1794W        W 5994   4.135   5.137  10.024
 1795W        W 5995   6.169   3.302  11.260
 1796W        W 5996  10.437   0.311   2.235
 1797W        W 5997   4.255  10.568   0.544
 1798W        W 5998   2.831   5.049   9.876
 1799W        W 5999   7.674   7.548   2.732
 1800W        W 6000   0.493   1.488  10.810
 1801W        W 6001   2.462   9.857   9.378
 1802W        W 6002   9.075   0.381   9.956
 1803W        W 6003   8.953  10.501  10.306
 1804W        W 6004   9.391   1.471   9.586
 1805W        W 6005  11.312   0.925   8.830
 1806W        W 6006   8.604   3.340   9.406
 1807W        W 6007   0.283   5.766  11.340
 1808W        W 6008   4.322   8.329  10.079
 1809W        W 6009   1.537   7.780  11.480
 1810W        W 6010   6.881   3.309   0.484
 1811W        W 6011   8.059   0.680   1.004
 1812W        W 6012   9.940  10.986   9.456
 1813W        W 6013   2.837   3.930   1.988
 1814W        W 6014   5.475   5.302   0.784
 1815W        W 6015   9.515   7.071   4.263
 1816W        W 6016   8.124  10.569   9.174
 1817W        W 6017   5.612   5.722  11.976
 1818W        W 6018   9.999  10.002   0.219
 1819W        W 6019   3.710  11.341   2.138
 1820W        W 6020   3.758   1.237  11.946
 1821W        W 6021   6.286   4.328   1.756
 1822W        W 6022   1.910   2.656   2.267
 1823W        W 6023   3.725   0.206   0.799
 1824W        W 6024  11.478   2.148   0.314
 1825W        W 6025   0.823   9.581   0.304
 1826W        W 6026   9.314   5.521  10.503
 1827W        W 6027   4.258   9.568   1.468
 1828W        W 6028   7.881   4.941  11.887
 1829W        W 6029   7.768   8.605   1.270
 1830W        W 6030   0.401   5.204   2.323
 1831W        W 6031   5.044   0.995   9.409
 1832W        W 6032   2.091   7.474   1.401
 1833W        W 6033   5.088   8.478   3.487
 1834W        W 6034   0.585   8.361  10.504
 1835W        W 6035   6.109   4.049  10.131
 1836W        W 6036   9.993   4.616  11.077
 1837W        W 6037   6.004   3.294   0.932
 1838W        W 6038   7.613  10.467   0.723
 1839W        W 6039   5.294   6.965   0.361
 1840W        W 6040   6.014   2.379  11.750
 1841W        W 6041   4.675   4.784  11.569
 1842W        W 6042   1.552   0.837  11.906
 1843W        W 6043   3.620   5.093  11.288
 1844W        W 6044   5.433   5.729   9.146
 1845W        W 6045  10.264   0.437  11.031
 1846W        W 6046   6.232   6.581   3.287
 1847W        W 6047   6.498   5.567  11.034
 1848W        W 6048   8.007   0.562   2.429
 1849W        W 6049   8.665   2.469   9.444
 1850W        W 6050  11.300   7.016  10.270
 1851W        W 6051   9.538   3.288   1.304
 1852W        W 6052   9.099   6.036   4.068
 1853W        W 6053  11.405  10.353   1.517
 1854W        W 6054   7.154   6.861   0.404
 1855W        W 6055   1.950   5.538  10.814
 1856W        W 6056   8.680   3.250  10.787
 1857W        W 6057   9.082   3.710   2.479
 1858W        W 6058   4.112   0.347  11.479
 1859W        W 6059   3.343   2.375   1.311
 1860W        W 6060   0.395   4.168   2.014
 1861W        W 6061   5.196   6.713   1.625
 1862W        W 6062   6.568   6.869   1.626
 1863W        W 6063  10.098   8.160   0.811
 1864W        W 6064   3.115   1.238   8.835
 1865W        W 6065   4.529   9.462   8.475
 1866W        W 6066   6.153   2.195   0.253
 1867W        W 6067  10.752   0.427  10.923
 1868W        W 6068   8.591   9.971   8.841
 1869W        W 6069   1.185   5.267   9.035
 1870W        W 6070   3.723   9.310   8.962
 1871W        W 6071   5.022  11.276   0.020
 1872W        W 6072  10.329   3.094   0.027
 1873W        W 6073   6.877   2.230  11.621
 1874W        W 6074   2.281   1.276  11.156
 1875W        W 6075   7.112   2.699  11.744
 1876W        W 6076   4.163   3.334   0.380
 1877W        W 6077   4.486   3.520   1.251
 1878W        W 6078   5.316   2.100   3.119
 1879W        W 6079   3.525   2.865   9.465
 1880W        W 6080   9.639   6.228   1.884
 1881W        W 6081   3.112   8.767   8.677
 1882W        W 6082   2.619   9.609  11.449
 1883W        W 6083  10.300  10.037  10.487
 1884W        W 6084   0.295   6.731  11.012
 1885W        W 6085   2.339   9.875   0.881
 1886W        W 6086  10.088   9.526   0.378
 1887W        W 6087   0.369   2.306   0.640
 1888W        W 6088   1.926   0.150   0.388
 1889W        W 6089   9.471   9.394   2.656
 1890W        W 6090  11.408   6.618   9.951
 1891W        W 6091   3.102   8.394   2.313
 1892W        W 6092   3.083   8.523  11.812
 1893W        W 6093   5.620   1.675   0.224
 1894W        W 6094   3.073   4.917   3.859
 1895W        W 6095   4.734   6.116  10.252
 1896W        W 6096   1.634   6.782  10.571
 1897W        W 6097   2.261   6.230   1.739
 1898W        W 6098   1.175   3.689   2.965
 1899W        W 6099   4.315   3.158  11.490
 1900W        W 6100   7.435   6.112   8.618
 1901W        W 6101   9.922  10.932  10.402
 1902W        W 6102   5.862   7.073   3.461
 1903W        W 6103   2.303   8.670   1.758
 1904W        W 6104   1.779   6.216   2.480
 1905W        W 6105   1.288   0.980   1.501
 1906W        W 6106   6.979   4.266  11.329
 1907W        W 6107   6.107   1.298   2.616
 1908W        W 6108   8.609   5.330   1.478
 1909W        W 6109   5.808   3.819  10.527
 1910W        W 6110   3.195   0.711  11.470
 1911W        W 6111   4.710   3.710   3.494
 1912W        W 6112   5.907   4.581   3.446
 1913W        W 6113   0.418   1.454   1.235
 1914W        W 6114   9.518  10.058  11.816
 1915W        W 6115   2.788   8.087  10.809
 1916W        W 6116   2.248   3.513  11.437
 1917W        W 6117   3.627   5.242  11.833
 1918W        W 6118   2.490   4.740  10.097
 1919W        W 6119   8.013   9.591   3.477
 1920W        W 6120   1.104   2.218  10.024
 1921W        W 6121   1.618   9.419   9.122
 1922W        W 6122   7.206   4.226   3.256
 1923W        W 6123   2.263   1.471   9.471
 1924W        W 6124   7.338  11.340   3.070
 1925W        W 6125   3.249   5.264   9.614
 1926W        W 6126   2.498   7.683   9.874
 1927W        W 6127   1.419   8.299   2.811
 1928W        W 6128   2.033   5.626   9.975
 1929W        W 6129   2.373   2.324   1.204
 1930W        W 6130   2.187   6.663   9.905
 1931W        W 6131   0.755   9.959  10.529
 1932W        W 6132   4.694   7.960   2.379
 1933W        W 6133   2.093   6.172  10.029
 1934W        W 6134  10.740   5.886   9.416
 1935W        W 6135   0.337   8.442   3.567
 1936W        W 6136   1.441   2.325   1.381
 1937W        W 6137   3.096   5.070   3.368
 1938W        W 6138   0.711   8.601   2.751
 1939W        W 6139   1.392   4.867   1.441
 1940W        W 6140   9.070   8.467   8.971
 1941W        W 6141   3.182   4.029   3.238
 1942W        W 6142   5.616   8.072   3.970
 1943W        W 6143   9.982   4.657   8.993
 1944W        W 6144   8.158   9.755   9.551
 1945W        W 6145  10.757  11.368   9.417
 1946W        W 6146   0.325   6.586   1.612
 1947W        W 6147   7.364   2.180   9.853
 1948W        W 6148   9.519   9.155   8.467
 1949W        W 6149   8.117   5.230   9.963
 1950W        W 6150   3.968   9.522   2.802
 1951W        W 6151   0.378   6.567   0.970
 1952W        W 6152  10.956   9.080   3.214
 1953W        W 6153   0.435   2.843   8.849
 1954W        W 6154   3.295  11.435   0.408
 1955W        W 6155   0.779   5.872  11.274
 1956W        W 6156   6.451   8.452   0.419
 1957W        W 6157   6.452   1.739   2.561
 1958W        W 6158   6.594   2.728  11.092
 1959W        W 6159   2.837   8.402  10.413
 1960W        W 6160   6.058   5.533   2.190
 1961W        W 6161   0.935   2.203  10.538
 1962W        W 6162   4.695  10.478   2.795
 1963W        W 6163   4.659   9.339   0.702
 1964W        W 6164   8.908  10.397   9.778
 1965W        W 6165   2.016   2.174   2.436
 1966W        W 6166   8.641  10.763  10.776
 1967W        W 6167   1.271   0.493   1.368
 1968W        W 6168   5.659   0.956   3.248
 1969W        W 6169   8.369  10.340   2.133
 1970W        W 6170   4.384   1.336   0.363
 1971W        W 6171   0.406   1.264   2.969
 1972W        W 6172   1.186   5.843   8.484
 1973W        W 6173   4.172   3.691   0.734
 1974W        W 6174   7.461   5.080   8.933
 1975W        W 6175   4.766   4.405  11.911
 1976W        W 6176   2.681   3.514  10.869
 1977W        W 6177   3.110   9.516  11.332
 1978W        W 6178   5.616   8.503   1.260
 1979W        W 6179  10.577   0.019  11.783
 1980W        W 6180   9.010   4.421   3.130
 1981W        W 6181  11.119   4.572   9.034
 1982W        W 6182  11.110   0.531   0.887
 1983W        W 6183   1.510   0.635  10.950
 1984W        W 6184   2.783   5.390  10.274
 1985W        W 6185   3.117   5.109   1.146
 1986W        W 6186   8.241   5.242   1.880
 1987W        W 6187   9.825   0.924   3.483
 1988W        W 6188   1.862   7.963   9.127
 1989W        W 6189   2.210   4.334  11.982
 1990W        W 6190   2.816   2.256   0.896
 1991W        W 6191   4.367   9.515  10.083
 1992W        W 6192   8.538   9.899   2.384
 1993W        W 6193   0.089  10.430   1.015
 1994W        W 6194   5.166   7.663  11.075
 1995W        W 6195   1.865   1.376  10.874
 1996W        W 6196   4.130   3.146   1.406
 1997W        W 6197   7.267   9.273   0.161
 1998W        W 6198   6.747   1.391   9.586
 1999W        W 6199  10.204   1.799  11.735
 2000W        W 6200  10.491  10.922   9.562
 2001W        W 6201   1.869   1.360  10.350
 2002W        W 6202   4.761   6.711   0.392
 2003W        W 6203   0.235   6.981   0.710
 2004W        W 6204  11.273   4.569   2.385
 2005W        W 6205  10.058   8.114   2.150
 2006W        W 6206   3.350   5.127   2.360
 2007W        W 6207  10.099   8.745   1.504
 2008W        W 6208   5.676  10.991   2.966
 2009W        W 6209  11.024  11.404   2.795
 2010W        W 6210  10.900  10.309   1.323
 2011W        W 6211   5.026  10.961  11.295
 2012W        W 6212   8.147   8.946   1.300
 2013W        W 6213   8.691   8.144   9.132
 2014W        W 6214   6.042   8.235   1.215
 2015W        W 6215   8.851   3.788   0.921
 2016W        W 6216   2.295   3.806  11.005
 2017W        W 6217   9.799   2.557   1.804
 2018W        W 6218   1.187   4.736   3.077
 2019W        W 6219   4.247   4.592   0.918
 2020W        W 6220   7.110  10.961   0.210
 2021W        W 6221   8.994  11.365   9.994
 2022W        W 6222  11.337   2.381   9.973
 2023W        W 6223   7.234   4.114   1.548
 2024W        W 6224   1.225   6.945   9.998
 2025W        W 6225   3.212   8.929   2.849
 2026W        W 6226   2.447   0.183   0.993
 2027W        W 6227   3.758   5.730   1.949
 2028W        W 6228   9.974   3.634   9.067
 2029W        W 6229   6.079   0.873   1.923
 2030W        W 6230  10.011   3.688  10.023
 2031W        W 6231   8.463  10.047   0.777
 2032W        W 6232   4.801   2.083   0.167
 2033W        W 6233   6.679   8.650   9.419
 2034W        W 6234   1.684   8.841   0.313
 2035W        W 6235   4.389   5.908   2.493
 2036W        W 6236  10.840   1.152   9.115
 2037W        W 6237  11.029   7.390   0.325
 2038W        W 6238  11.128   5.574   9.533
 2039W        W 6239   9.072   7.940  11.239
 2040W        W 6240   5.796   4.872   9.566
 2041W        W 6241   5.752   3.844   9.381
 2042W        W 6242   0.278   5.531   0.551
 2043W        W 6243   9.601   8.858   9.887
 2044W        W 6244   1.831   6.254   0.514
 2045W        W 6245   3.866   7.527  10.111
 2046W        W 6246   7.183   1.699   9.946
 2047W        W 6247   0.164   5.143   0.067
 2048W        W 6248   3.493   0.782   9.547
 2049W        W 6249   3.637   3.283   1.346
 2050W        W 6250  10.450  10.564   8.743
 2051W        W 6251   6.918   4.920  10.722
 2052W        W 6252   9.114   8.585   1.353
 2053W        W 6253   9.588   3.250   8.976
 2054W        W 6254   1.412   5.238  10.969
 2055W        W 6255   4.660   3.695   2.960
 2056W        W 6256   0.595   5.998  11.738
 2057W        W 6257   2.336   4.316  11.035
 2058W        W 6258   1.836   4.630   2.310
 2059W        W 6259   6.498   8.857   8.930
 2060W        W 6260   8.184   3.297  10.952
 2061W        W 6261   9.206   5.551  11.761
 2062W        W 6262   8.306   4.395   1.471
 2063W        W 6263   3.272   4.669  11.339
 2064W        W 6264   9.548   5.053  10.502
 2065W        W 6265   8.510   0.586   0.783
 2066W        W 6266   8.340   8.020   0.438
 2067W        W 6267   5.454   3.274   2.111
 2068W        W 6268   8.147  10.445   0.933
 2069W        W 6269   6.846   0.770  10.748
 2070W        W 6270   8.305   3.764   3.512
 2071W        W 6271   7.545  10.248   2.198
 2072W        W 6272   9.120   5.199   0.969
 2073W        W 6273   8.805  10.039   3.507
 2074W        W 6274   0.094   8.004   8.657
 2075W        W 6275   3.751   7.653   8.826
 2076W        W 6276   9.889   5.156   8.736
 2077W        W 6277   3.525  11.366   3.540
 2078W        W 6278   7.999   3.121  11.399
 2079W        W 6279  10.110   0.432   1.836
 2080W        W 6280   1.038   4.103   1.024
 2081W        W 6281   7.765  11.163  10.527
 2082W        W 6282   9.974   3.724  10.566
 2083W        W 6283   6.615   3.199   8.661
 2084W        W 6284   7.594   8.073   2.773
 2085W        W 6285   4.481   1.374  10.328
 2086W        W 6286   8.346   2.397   0.874
 2087W        W 6287   3.250  10.573   2.977
 2088W        W 6288   4.046   8.658  11.494
 2089W        W 6289  11.201   6.962   1.328
 2090W        W 6290  10.864   2.120   2.699
 2091W        W 6291   5.745   6.568   3.121
 2092W        W 6292   6.214   9.430   4.079
 2093W        W 6293   6.249  10.529   2.992
 2094W        W 6294   2.335   9.549   2.961
 2095W        W 6295   8.923   4.066   8.496
 2096W        W 6296   3.313   8.943  11.979
 2097W        W 6297   4.788   4.788  10.318
 2098W        W 6298   0.293   6.245   3.322
 2099W        W 6299   1.654   3.051   3.580
 2100W        W 6300   9.576   8.040  11.776
 2101W        W 6301   2.246   9.574   2.147
 2102W        W 6302   8.620   8.035  10.964
 2103W        W 6303   2.707   8.178   9.981
 2104W        W 6304   2.900   9.462   1.205
 2105W        W 6305   6.115   1.672   1.524
 2106W        W 6306   6.584   1.902   3.475
 2107W        W 6307  10.352   2.674   2.630
 2108W        W 6308   3.149   3.413   1.249
 2109W        W 6309   7.980   2.599  11.294
 2110W        W 6310   5.985   6.213  11.076
 2111W        W 6311   2.767   3.311   3.020
 2112W        W 6312   0.465  10.473   9.652
 2113W        W 6313  11.357   9.524   1.175
 2114W        W 6314   6.328   7.104  11.503
 2115W        W 6315   0.332   2.610   0.242
 2116W        W 6316   9.429   6.057   1.010
 2117W        W 6317   2.597   8.478  11.995
 2118W        W 6318   4.664   8.093   0.999
 2119W        W 6319   6.849   3.485   0.006
 2120W        W 6320   2.013   5.593   8.749
 2121W        W 6321  10.885   0.288  11.405
 2122W        W 6322   9.096   7.586  10.647
 2123W        W 6323   5.312   0.852   0.408
 2124W        W 6324   7.339  10.508   0.275
 2125W        W 6325  10.705   1.841  11.825
 2126W        W 6326   5.664   6.710   0.068
 2127W        W 6327   9.828   4.141   8.899
 2128W        W 6328   7.676   6.437   9.689
 2129W        W 6329   9.396   2.943   0.380
 2130W        W 6330   7.935   7.214  10.059
 2131W        W 6331   1.788   8.085   2.525
 2132W        W 6332   5.567   3.526  10.896
 2133W        W 6333   9.813   1.711   1.054
 2134W        W 6334   1.384   6.221   0.238
 2135W        W 6335   5.286   8.661   9.469
 2136W        W 6336   3.440   0.518   8.766
 2137W        W 6337   3.378   9.495   1.398
 2138W        W 6338   8.020   2.635   2.856
 2139W        W 6339   2.349   1.582   1.954
 2140W        W 6340   9.865   9.389  11.506
 2141W        W 6341   5.000   3.787   8.309
 2142W        W 6342   0.278   1.335   0.394
 2143W        W 6343   2.572   4.238   9.270
 2144W        W 6344   3.690   5.266   9.852
 2145W        W 6345   5.939   5.810  10.765
 2146W        W 6346   5.598   6.216   2.282
 2147W        W 6347   2.157   0.748   2.292
 2148W        W 6348   8.940   6.702   2.214
 2149W        W 6349   3.710   5.581  11.377
 2150W        W 6350   5.762   1.650  10.668
 2151W        W 6351   0.802   7.919   0.231
 2152W        W 6352  11.301   1.921   2.494
 2153W        W 6353   6.974   5.050   1.014
 2154W        W 6354  11.196   2.429  11.523
 2155W        W 6355   7.061   8.147   2.907
 2156W        W 6356   9.482   6.422   1.371
 2157W        W 6357   1.206   3.632   9.943
 2158W        W 6358   7.697   5.629   2.070
 2159W        W 6359   3.395   9.062   1.062
 2160W        W 6360   2.931   3.882   1.138
 2161W        W 6361   9.476   9.960   0.882
 2162W        W 6362   5.240   8.725   3.079
 2163W        W 6363   8.820   8.243   0.521
 2164W        W 6364   6.970   9.392   2.015
 2165W        W 6365   5.645   1.521   0.742
 2166W        W 6366   7.447   8.062   9.550
 2167W        W 6367   2.032  10.659   3.635
 2168W        W 6368   8.363   1.193   2.908
 2169W        W 6369   9.238   5.556   9.344
 2170W        W 6370  10.481   9.331   0.689
 2171W        W 6371   8.600   5.951   3.601
 2172W        W 6372   2.261   6.325  10.864
 2173W        W 6373   7.967   4.771   3.044
 2174W        W 6374   5.317   2.416   0.345
 2175W        W 6375   9.531   6.498   3.078
 2176W        W 6376  11.279   3.983   0.230
 2177W        W 6377  10.809   3.643   1.500
 2178W        W 6378   6.563   7.368  10.535
 2179W        W 6379   9.543  10.763  11.067
 2180W        W 6380   5.665   0.498   8.988
 2181W        W 6381   1.866   5.866  10.386
 2182W        W 6382   6.939   9.718   9.994
 2183W        W 6383   3.705   1.942   1.156
 2184W        W 6384   6.405   4.249  11.359
 2185W        W 6385   2.447  10.747   2.222
 2186W        W 6386   1.892   8.948   9.038
 2187W        W 6387   5.342   4.165   1.454
 2188W        W 6388   6.144   5.469   3.165
 2189W        W 6389  10.825  10.029  10.462
 2190W        W 6390   4.547   0.871   9.484
 2191W        W 6391   5.773   2.389   3.113
 2192W        W 6392   1.688   6.676  10.073
 2193W        W 6393   4.645   5.699   9.961
 2194W        W 6394   3.064   8.019   2.705
 2195W        W 6395   1.393  10.222   1.717
 2196W        W 6396   0.829   3.163   1.922
 2197W        W 6397   7.832   8.582   2.834
 2198W        W 6398   8.985   3.138  11.619
 2199W        W 6399  10.489   4.183   0.410
 2200W        W 6400   9.076   7.951  11.755
 2201W        W 6401  10.031   1.571   2.928
 2202W        W 6402   0.696   8.844   9.535
 2203W        W 6403   9.297   9.942   1.353
 2204W        W 6404   6.246   2.371   9.158
 2205W        W 6405   8.862   5.544   0.631
 2206W        W 6406  10.597   1.520   8.834
 2207W        W 6407   3.697  10.030   3.516
 2208W        W 6408   3.732   8.561   1.736
 2209W        W 6409   8.719   0.992  10.312
 2210W        W 6410   5.182   7.660   2.118
 2211W        W 6411   7.188  10.049  10.488
 2212W        W 6412  10.325   6.190   9.465
 2213W        W 6413   2.831   1.503   9.930
 2214W        W 6414  10.359   6.041   1.689
 2215W        W 6415  10.068   2.471   3.318
 2216W        W 6416   5.591   2.212  10.386
 2217W        W 6417   0.856   2.686  10.168
 2218W        W 6418   5.659   8.973   1.476
 2219W        W 6419   9.087   6.270   0.385
 2220W        W 6420  11.020   8.349  11.921
 2221W        W 6421  10.856   1.628  10.045
 2222W        W 6422  10.998   8.055   8.819
 2223W        W 6423   3.655   1.677  11.710
 2224W        W 6424  10.027  10.309  11.059
 2225W        W 6425  10.860   4.764   1.142
 2226W        W 6426   9.968   0.881   2.053
 2227W        W 6427   7.453   4.809   3.282
 2228W        W 6428   1.607   7.566   1.200
 2229W        W 6429   7.156   2.852   9.335
 2230W        W 6430  10.531  11.307   1.373
 2231W        W 6431   1.259   9.107   0.209
 2232W        W 6432   1.303   2.921  10.780
 2233W        W 6433   5.614   9.685  11.954
 2234W        W 6434   2.385   9.998   1.853
 2235W        W 6435   5.643  11.033  11.855
 2236W        W 6436   8.886   1.962  10.845
 2237W        W 6437   3.841   6.239   9.990
 2238W        W 6438   7.465   1.515   3.310
 2239W        W 6439   7.264   1.419   1.792
 2240W        W 6440  10.026   3.227   8.710
 2241W        W 6441   3.229   8.130  11.110
 2242W        W 6442   6.569   0.762   1.810
 2243W        W 6443   7.615   1.379   0.335
 2244W        W 6444   6.394   3.187   0.491
 2245W        W 6445   6.130   5.556   1.245
 2246W        W 6446   3.336   0.718  10.969
 2247W        W 6447   4.153   2.401   1.877
 2248W        W 6448   9.855   3.097   0.922
 2249W        W 6449   4.077   9.958   3.203
 2250W        W 6450   3.440   6.079  11.438
 2251W        W 6451   4.951   4.122   4.067
 2252W        W 6452   0.600   6.534   0.442
 2253W        W 6453  10.001   7.655   8.655
 2254W        W 6454   4.774   8.953   2.535
 2255W        W 6455   8.150   9.165  10.786
 2256W        W 6456   3.704   2.389   9.474
 2257W        W 6457   3.958   3.824   9.279
 2258W        W 6458   5.252   2.137   2.305
 2259W        W 6459   9.968   4.767   9.652
 2260W        W 6460   9.385   0.008   9.014
 2261W        W 6461   4.804  10.750   8.990
 2262W        W 6462   3.723   1.255  10.262
 2263W        W 6463   5.950   3.674   9.822
 2264W        W 6464   9.695   4.196   3.583
 2265W        W 6465   0.411   8.151  10.931
 2266W        W 6466   0.151   4.173  10.761
 2267W        W 6467   0.123   8.814   1.420
 2268W        W 6468   3.801   8.087   1.258
 2269W        W 6469   8.178  11.257   0.338
 2270W        W 6470   5.725  11.333   9.470
 2271W        W 6471   2.692  10.042   3.231
 2272W        W 6472  10.327   5.481  11.486
 2273W        W 6473   5.981   0.791   3.620
 2274W        W 6474   1.519   0.545  10.436
 2275W        W 6475   8.235  10.321   8.685
 2276W        W 6476   1.873   6.030   3.352
 2277W        W 6477   5.629   7.954   0.452
 2278W        W 6478   0.648   6.995  11.256
 2279W        W 6479   5.849   5.314   2.689
 2280W        W 6480   6.670   4.150  10.914
 2281W        W 6481   2.178   2.801  10.926
 2282W        W 6482   9.278  10.867   0.789
 2283W        W 6483   8.988   7.044   1.829
 2284W        W 6484   6.487   0.646  11.249
 2285W        W 6485   5.199   0.927  10.919
 2286W        W 6486   3.189   0.846   2.127
 2287W        W 6487   8.092   5.950  11.052
 2288W        W 6488   3.660   2.618   9.926
 2289W        W 6489   5.551   0.415   2.270
 2290W        W 6490   6.066   1.909  11.497
 2291W        W 6491   0.989   1.748   1.055
 2292W        W 6492  10.728   6.281  11.288
 2293W        W 6493   0.786   7.520   9.503
 2294W        W 6494   0.277   8.535   3.030
 2295W        W 6495   3.848   9.421   1.197
 2296W        W 6496   2.275   2.337  10.022
 2297W        W 6497   4.878   4.310   1.699
 2298W        W 6498   6.024   4.567   0.383
 2299W        W 6499  10.218   7.000   0.270
 2300W        W 6500   3.168   4.241   9.639
 2301W        W 6501   0.831   7.624   0.708
 2302W        W 6502   1.095   7.495   0.226
 2303W        W 6503   0.193   4.789   2.569
 2304W        W 6504   6.980   6.597  10.410
 2305W        W 6505   8.402   1.913   1.010
 2306W        W 6506   2.334   0.237   3.014
 2307W        W 6507   9.784   5.765   0.259
 2308W        W 6508   9.988  11.431   0.637
 2309W        W 6509   5.086   0.218  11.733
 2310W        W 6510   1.452   3.002  10.282
 2311W        W 6511   7.649  11.200   3.424
 2312W        W 6512   3.136   9.970   1.367
 2313W        W 6513  10.448  10.997   2.916
 2314W        W 6514   4.013   5.045   1.026
 2315W        W 6515   9.437  11.022   2.314
 2316W        W 6516   2.789   6.756  11.375
 2317W        W 6517   4.391   0.722   1.362
 2318W        W 6518   9.989   5.698  10.859
 2319W        W 6519   0.785   6.567   2.276
 2320W        W 6520   5.638   8.514   2.303
 2321W        W 6521   4.128   9.388  11.847
 2322W        W 6522   2.853   1.827  10.818
 2323W        W 6523   1.915   2.586   1.338
 2324W        W 6524   2.851   2.610   1.280
 2325W        W 6525   2.804   2.834  10.302
 2326W        W 6526  11.384   5.643   9.083
 2327W        W 6527  10.324  10.974   0.951
 2328W        W 6528   1.821   4.615   9.420
 2329W        W 6529  10.863   1.370   0.512
 2330W        W 6530   4.430   7.106   3.125
 2331W        W 6531   4.186   0.295   9.273
 2332W        W 6532   9.030   4.923   3.266
 2333W        W 6533  10.518   8.937   2.423
 2334W        W 6534   8.486   0.719   2.686
 2335W        W 6535   8.180   5.645   2.211
 2336W        W 6536  10.716   0.781   3.009
 2337W        W 6537  10.391   6.130   1.161
 2338W        W 6538   1.000   7.934  10.435
 2339W        W 6539   8.610   6.480  11.170
 2340W        W 6540   0.536   1.011  10.890
 2341W        W 6541   6.015   2.364   9.599
 2342W        W 6542   6.475   8.588  11.499
 2343W        W 6543   3.178  10.766   2.455
 2344W        W 6544  10.846   6.550  10.205
 2345W        W 6545   6.121   7.824   2.792
 2346W        W 6546   0.879   4.061  10.073
 2347W        W 6547   9.422   5.253   8.544
 2348W        W 6548   7.711  11.273   1.236
 2349W        W 6549   6.349  10.743   0.325
 2350W        W 6550   7.859   5.047   3.503
 2351W        W 6551   2.944   7.259  11.292
 2352W        W 6552   9.128   1.816   9.854
 2353W        W 6553   3.650  10.420  10.854
 2354W        W 6554   0.483  10.266   2.834
 2355W        W 6555   0.081   3.714  10.370
 2356W        W 6556   4.685  10.912  10.366
 2357W        W 6557   1.816   1.805  10.592
 2358W        W 6558   1.971   1.830   0.908
 2359W        W 6559   9.236   7.013   0.099
 2360W        W 6560   3.216   9.099  10.037
 2361W        W 6561   5.172   8.837   1.617
 2362W        W 6562   3.162  10.337   9.535
 2363W        W 6563   1.211   6.310   1.239
 2364W        W 6564  11.211   3.425   3.478
 2365W        W 6565   3.390   3.890   0.377
 2366W        W 6566   0.068   2.499   9.034
 2367W        W 6567   0.219   9.766  10.404
 2368W        W 6568   2.141   1.338   8.984
 2369W        W 6569   7.765  10.500   8.801
 2370W        W 6570   7.864   4.045   0.623
 2371W        W 6571  11.192   6.165  10.065
 2372W        W 6572   5.248   1.271   2.164
 2373W        W 6573   9.726   7.611   0.052
 2374W        W 6574   2.691   5.506   0.268
 2375W        W 6575   7.330   3.273   2.875
 2376W        W 6576   5.214   9.064   2.258
 2377W        W 6577   2.843   5.358   4.081
 2378W        W 6578   7.112   8.590   3.934
 2379W        W 6579   3.859   4.196   1.665
 2380W        W 6580  10.332   8.539   2.166
 2381W        W 6581   0.366   9.288   0.308
 2382W        W 6582  11.376   2.182   1.358
 2383W        W 6583   7.594   4.333   0.274
 2384W        W 6584   2.291   1.342   1.502
 2385W        W 6585   3.646   6.733   1.171
 2386W        W 6586   1.137  10.990   8.540
 2387W        W 6587   9.520   2.973   9.427
 2388W        W 6588   1.426  10.429   0.023
 2389W        W 6589   4.271   3.628   2.400
 2390W        W 6590   0.447   5.043  10.609
 2391W        W 6591   3.225   7.387  10.378
 2392W        W 6592   4.120   5.592   9.748
 2393W        W 6593  10.400   5.902   9.868
 2394W        W 6594   2.610   5.061   1.269
 2395W        W 6595   0.854   6.648   9.012
 2396W        W 6596   4.426   3.648  11.420
 2397W        W 6597   2.365   6.621   2.738
 2398W        W 6598   1.636   7.461   0.279
 2399W        W 6599   2.337   9.383   0.264
 2400W        W 6600   0.861   3.529   2.316
 2401W        W 6601   8.171   6.079   2.490
 2402W        W 6602   7.672  10.084   2.679
 2403W        W 6603   6.433   5.185   2.260
 2404W        W 6604   7.148   4.865   1.960
 2405W        W 6605   1.568   7.015   2.734
 2406W        W 6606   4.188   1.707   2.697
 2407W        W 6607   3.651  10.778  11.247
 2408W        W 6608   1.548   2.296   2.259
 2409W        W 6609   6.455   0.669  10.189
 2410W        W 6610   4.641   9.903   1.335
 2411W        W 6611   5.472   9.182   8.570
 2412W        W 6612   0.883   6.672   9.522
 2413W        W 6613   9.579  10.193   3.337
 2414W        W 6614   1.355   4.387  11.731
 2415W        W 6615   1.054   5.913  11.968
 2416W        W 6616   0.554   1.411   2.480
 2417W        W 6617   8.517   9.597   9.207
 2418W        W 6618   7.178   4.537   2.358
 2419W        W 6619   0.960   1.200  10.002
 2420W        W 6620   5.147   2.927   1.235
 2421W        W 6621   0.417   7.914   1.139
 2422W        W 6622   9.469   9.671  10.359
 2423W        W 6623   9.061  11.363   2.734
 2424W        W 6624  10.641   8.092   1.977
 2425W        W 6625   9.422   7.644   2.277
 2426W        W 6626   9.564   8.360   8.993
 2427W        W 6627  10.795  10.192   2.661
 2428W        W 6628   3.374   0.506   1.017
 2429W        W 6629   7.224   8.067  11.440
 2430W        W 6630   7.556   2.754   3.582
 2431W        W 6631   8.374  10.675  10.350
 2432W        W 6632   9.527   2.433   1.357
 2433W        W 6633   5.511  10.511   3.262
 2434W        W 6634  11.381   2.875   9.842
 2435W        W 6635   5.214   2.864   1.798
 2436W        W 6636   7.108   9.014   3.216
 2437W        W 6637  11.409   3.315  11.089
 2438W        W 6638   4.626   2.737   2.485
 2439W        W 6639   6.442   0.853   9.385
 2440W        W 6640   0.781  10.256   1.399
 2441W        W 6641   8.632   4.879   8.560
 2442W        W 6642   2.348   1.193   3.305
 2443W        W 6643  10.268   3.390   0.978
 2444W        W 6644   2.614   8.857   0.449
 2445W        W 6645   5.519   8.960  10.341
 2446W        W 6646   6.532   4.253   1.264
 2447W        W 6647  10.900   6.267   3.019
 2448W        W 6648   8.419   3.784  11.914
 2449W        W 6649   8.932   0.407   0.213
 2450W        W 6650   4.615   3.020   1.195
 2451W        W 6651   9.297   2.208   0.930
 2452W        W 6652   1.943   9.533   1.757
 2453W        W 6653   1.041   9.057   9.177
 2454W        W 6654   4.799   8.069  10.176
 2455W        W 6655   2.376   5.027  11.401
 2456W        W 6656   1.007   2.771   1.630
 2457W        W 6657   4.322   6.073   9.807
 2458W        W 6658   0.564   2.670   1.913
 2459W        W 6659   9.494   3.993   2.649
 2460W        W 6660   3.877   3.785  11.413
 2461W        W 6661   2.228   7.962   2.305
 2462W        W 6662   0.272   4.911  11.179
 2463W        W 6663   8.406   6.969  11.504
 2464W        W 6664   3.439   3.919   9.319
 2465W        W 6665   0.966   3.712  11.734
 2466W        W 6666   8.137   8.183  11.035
 2467W        W 6667   6.527   9.918  11.339
 2468W        W 6668   1.108   1.866   2.742
 2469W        W 6669  10.124  10.947   9.934
 2470W        W 6670   2.719   4.157   8.797
 2471W        W 6671   0.630   8.071   8.659
 2472W        W 6672   4.962   3.361   1.420
 2473W        W 6673   9.805   3.686   8.574
 2474W        W 6674   5.992   8.491  11.358
 2475W        W 6675   5.194   9.321  10.494
 2476W        W 6676  11.072   5.935  10.503
 2477W        W 6677  10.870  10.254  11.377
 2478W        W 6678   4.345   4.316   1.743
 2479W        W 6679   1.340   1.446   1.292
 2480W        W 6680   6.494   3.455   2.716
 2481W        W 6681   7.456  10.091   1.693
 2482W        W 6682   9.991   7.451   9.143
 2483W        W 6683   4.141   3.407   1.920
 2484W        W 6684   6.895   2.048   0.162
 2485W        W 6685   6.265   2.689   0.265
 2486W        W 6686  11.354   6.090  10.888
 2487W        W 6687   2.609   3.881  11.436
 2488W        W 6688   1.712   1.288   9.288
 2489W        W 6689   8.906   2.820   1.290
 2490W        W 6690   6.586   1.818   1.366
 2491W        W 6691   2.902   6.609   2.687
 2492W        W 6692   8.455   4.539  11.566
 2493W        W 6693   0.303   4.583   0.342
 2494W        W 6694   1.845  11.192   9.072
 2495W        W 6695   0.489   4.321  11.960
 2496W        W 6696  10.709   2.260  11.509
 2497W        W 6697   8.345   7.260  11.941
 2498W        W 6698   2.722   1.755   9.487
 2499W        W 6699   6.249   3.032  10.333
 2500W        W 6700  10.016   8.083   3.235
 2501W        W 6701   2.830   2.238  11.110
 2502W        W 6702   9.206  11.444   9.517
 2503W        W 6703   2.681   3.797   3.240
 2504W        W 6704   6.632   8.684   2.110
 2505W        W 6705   1.889   1.617   1.379
 2506W        W 6706   7.133  11.142  10.922
 2507W        W 6707   4.200   3.049  11.978
 2508W        W 6708   1.664  10.741   1.395
 2509W        W 6709   4.787   8.855  10.988
 2510W        W 6710   3.211   5.111  11.576
 2511W        W 6711   5.678  10.473   0.715
 2512W        W 6712   6.491   3.844  11.884
 2513W        W 6713   3.535   4.994   3.638
 2514W        W 6714   2.273  10.791   2.698
 2515W        W 6715   4.751   2.417  11.765
 2516W        W 6716   3.112   8.418   0.340
 2517W        W 6717   0.780   6.585   1.317
 2518W        W 6718  10.029  11.308   1.220
 2519W        W 6719   7.596   2.858  10.513
 2520W        W 6720   7.928  10.298   1.871
 2521W        W 6721   5.445   1.415   1.204
 2522W        W 6722   1.029   6.861   2.616
 2523W        W 6723   3.138   2.730  10.956
 2524W        W 6724   3.070   4.263  10.583
 2525W        W 6725   5.573   1.876   3.642
 2526W        W 6726  10.011   6.644   2.707
 2527W        W 6727   6.656   9.933   1.299
 2528W        W 6728   8.218   7.643  10.227
 2529W        W 6729   4.298  10.136  11.322
 2530W        W 6730   3.532   0.968   1.214
 2531W        W 6731  10.776   1.412   1.936
 2532W        W 6732   3.283   5.755   9.526
 2533W        W 6733   0.973   3.669   0.264
 2534W        W 6734   2.946   1.763   1.023
 2535W        W 6735  10.019   2.821  10.588
 2536W        W 6736   7.095   9.021   2.710
 2537W        W 6737   8.488   6.249  11.931
 2538W        W 6738   2.434   0.246   0.477
 2539W        W 6739  11.258   3.612   1.786
 2540W        W 6740  10.277   9.407   9.796
 2541W        W 6741   7.482   6.681  11.825
 2542W        W 6742   5.464   7.210   8.527
 2543W        W 6743   3.619   4.460  10.718
 2544W        W 6744   0.919   3.273   1.434
 2545W        W 6745   6.290   3.288   3.734
 2546W        W 6746   1.418   1.389  10.130
 2547W        W 6747  10.206   7.092  11.262
 2548W        W 6748   6.691   9.156   9.329
 2549W        W 6749   3.132  10.471  10.865
 2550W        W 6750   2.647   1.905   3.250
 2551W        W 6751   3.669   2.626  10.791
 2552W        W 6752   9.498   4.613   9.959
 2553W        W 6753   8.116   0.875   1.475
 2554W        W 6754   2.387   6.568  10.372
 2555W        W 6755   5.840   6.102   9.127
 2556W        W 6756   0.905   6.021   1.515
 2557W        W 6757   6.973   5.251  11.541
 2558W        W 6758   9.997   2.241   9.886
 2559W        W 6759   3.355   6.983   2.385
 2560W        W 6760   4.612   0.249   1.402
 2561W        W 6761  11.055   0.532   1.983
 2562W        W 6762  10.446   9.955   1.912
 2563W        W 6763   6.457   5.239  11.463
 2564W        W 6764   5.934  11.460  11.770
 2565W        W 6765   9.554   0.132  10.796
 2566W        W 6766   1.276   8.408   1.926
 2567W        W 6767   6.443   4.908   9.697
 2568W        W 6768   5.021   9.030   0.264
 2569W        W 6769  11.221   3.996   1.431
 2570W        W 6770  10.031   6.286   3.096
 2571W        W 6771   1.114   7.106  11.399
 2572W        W 6772   8.669  10.032   0.246
 2573W        W 6773   7.543   2.977   1.193
 2574W        W 6774   2.645   4.612   9.630
 2575W        W 6775   8.304  11.010   9.634
 2576W        W 6776   0.247   7.001   8.541
 2577W        W 6777   7.528   1.206  10.928
 2578W        W 6778   5.332  10.610  11.619
 2579W        W 6779  10.935   0.962   1.729
 2580W        W 6780  10.556   3.510  11.241
 2581W        W 6781   6.902   3.710   0.773
 2582W        W 6782   8.127   2.944   8.727
 2583W        W 6783   1.908   8.810   1.272
 2584W        W 6784   1.732   0.673   1.237
 2585W        W 6785   2.551   9.406   2.520
 2586W        W 6786  10.796   2.783   8.959
 2587W        W 6787   1.222   5.721  11.483
 2588W        W 6788   4.988   5.296   0.995
 2589W        W 6789  10.782   6.233   9.780
 2590W        W 6790  10.747   5.134  10.852
 2591W        W 6791   0.622   9.474  11.464
 2592W        W 6792   7.663   6.079   2.386
 2593W        W 6793   1.409   7.124   1.455
 2594W        W 6794   5.631   2.203  11.418
 2595W        W 6795   5.765  11.137   9.940
 2596W        W 6796   0.328   0.975   2.380
 2597W        W 6797   6.056   5.699  11.242
 2598W        W 6798   0.762   1.494   3.308
 2599W        W 6799   6.713   1.750   3.003
 2600W        W 6800   8.642   6.108   2.748
 2601W        W 6801   4.077   5.144   9.526
 2602W        W 6802   0.002   2.401  11.044
 2603W        W 6803  11.431   4.584  10.977
 2604W        W 6804   1.399   3.255   1.220
 2605W        W 6805   9.422  10.619   9.552
 2606W        W 6806   1.928   4.412   0.938
 2607W        W 6807   8.538   0.230   3.482
 2608W        W 6808   4.944   7.649   9.354
 2609W        W 6809   5.264   2.783   9.821
 2610W        W 6810   8.573   2.337  11.748
 2611W        W 6811   5.781   8.741   8.613
 2612W        W 6812   6.954   2.622   2.145
 2613W        W 6813   4.753   9.419   2.799
 2614W        W 6814   8.942   6.378   3.708
 2615W        W 6815   2.800   8.955  11.967
 2616W        W 6816  10.525   7.468   0.391
 2617W        W 6817   3.071   6.508   9.925
 2618W        W 6818  10.775   4.778   3.113
 2619W        W 6819   0.324  10.109  11.786
 2620W        W 6820   7.542   4.198   8.744
 2621W        W 6821   1.393   3.647   1.547
 2622W        W 6822  10.951   4.403   0.207
 2623W        W 6823   1.206  10.541   1.360
 2624W        W 6824   6.586   6.147   9.659
 2625W        W 6825   3.619   1.192   8.720
 2626W        W 6826   3.326   1.000  11.858
 2627W        W 6827  10.420   6.674   0.995
 2628W        W 6828   2.112   3.225   0.406
 2629W        W 6829   8.987   4.771   2.759
 2630W        W 6830   2.473   9.424   9.647
 2631W        W 6831   1.706   8.368   0.088
 2632W        W 6832   1.221   7.359   9.699
 2633W        W 6833   0.314   5.755   3.159
 2634W        W 6834  10.921   4.834   2.125
 2635W        W 6835   3.509  10.703   0.695
 2636W        W 6836   6.651   6.220   8.740
 2637W        W 6837   1.503   2.230  11.932
 2638W        W 6838   3.844   2.323   1.465
 2639W        W 6839   8.439   5.574  11.310
 2640W        W 6840   7.901   3.601  11.826
 2641W        W 6841   7.988  11.488  10.197
 2642W        W 6842   0.245   0.907   3.370
 2643W        W 6843   6.724   3.092   0.922
 2644W        W 6844   9.900  10.374   3.006
 2645W        W 6845  11.033   0.308   9.477
 2646W        W 6846   2.096   6.884   3.637
 2647W        W 6847   6.465   9.077   0.902
 2648W        W 6848   5.611   5.583  11.479
 2649W        W 6849   8.144   1.774   1.470
 2650W        W 6850   4.703   4.599   9.423
 2651W        W 6851   7.597   9.401  11.775
 2652W        W 6852   8.754   6.858   3.602
 2653W        W 6853   5.695   0.454   0.898
 2654W        W 6854  10.483   5.077   2.794
 2655W        W 6855   0.516   2.114   0.178
 2656W        W 6856   1.446   6.146  10.534
 2657W        W 6857   0.380   0.832   1.891
 2658W        W 6858   5.460   2.896   0.460
 2659W        W 6859   6.180   1.344   0.224
 2660W        W 6860   7.095   3.533  10.402
 2661W        W 6861   6.035   6.111   3.234
 2662W        W 6862   5.017   2.803   0.226
 2663W        W 6863  10.881   0.460  11.902
 2664W        W 6864  10.380   5.181   0.155
 2665W        W 6865   6.368   6.044   0.368
 2666W        W 6866  11.109   3.951  10.385
 2667W        W 6867   5.616   8.042   2.621
 2668W        W 6868   5.964   8.103   2.253
 2669W        W 6869   4.059   5.980  11.987
 2670W        W 6870   1.825   6.903  11.968
 2671W        W 6871  11.165   6.385   0.361
 2672W        W 6872   6.801   2.192   1.897
 2673W        W 6873   1.053   0.793  11.867
 2674W        W 6874   8.194   7.179  10.506
 2675W        W 6875   1.730   2.240  10.851
 2676W        W 6876   6.230   9.975   2.271
 2677W        W 6877   9.091   0.891   9.979
 2678W        W 6878   6.893   9.103  10.318
 2679W        W 6879   6.779   0.752   2.279
 2680W        W 6880   9.973   4.210  11.408
 2681W        W 6881   9.935   6.691   1.740
 2682W        W 6882   8.540  10.909  11.257
 2683W        W 6883   7.206   4.666   4.143
 2684W        W 6884  10.896   2.144  10.117
 2685W        W 6885   9.297   4.146  10.144
 2686W        W 6886   3.822   6.627   1.652
 2687W        W 6887   5.614   1.801  11.735
 2688W        W 6888   4.343   6.970   9.725
 2689W        W 6889   2.983  11.387   1.711
 2690W        W 6890   8.475   8.899  10.425
 2691W        W 6891   3.882  11.073  11.668
 2692W        W 6892   6.511   7.868  11.865
 2693W        W 6893   4.197   2.207  11.473
 2694W        W 6894   8.062   3.797  10.907
 2695W        W 6895   5.715   2.907   1.866
 2696W        W 6896   6.448   7.795   1.103
 2697W        W 6897   8.706   5.141  11.118
 2698W        W 6898   0.721   5.569   2.505
 2699W        W 6899   3.651   0.525  11.350
 2700W        W 6900   4.976  11.042  10.777
 2701W        W 6901   2.881   8.968   0.944
 2702W        W 6902   8.044   2.717  10.273
 2703W        W 6903   7.107   0.769   0.945
 2704W        W 6904   4.739   7.155   2.702
 2705W        W 6905   6.707   3.692   2.240
 2706W        W 6906  10.083   1.499  10.755
 2707W        W 6907   4.522   9.860   3.418
 2708W        W 6908   8.875   5.629   2.650
 2709W        W 6909   8.226   4.225   3.253
 2710W        W 6910   1.764   6.535  11.017
 2711W        W 6911   0.796   1.832   2.357
 2712W        W 6912   1.318   7.519  10.533
 2713W        W 6913   8.816   7.092  11.805
 2714W        W 6914   0.017   3.761   2.232
 2715W        W 6915   4.717   6.648   1.417
 2716W        W 6916   7.506   4.081   2.880
 2717W        W 6917   7.784  10.693  11.093
 2718W        W 6918   7.948   7.677   1.248
 2719W        W 6919   0.783   6.445  10.512
 2720W        W 6920   7.532   4.650   9.936
 2721W        W 6921   6.522   0.888   3.259
 2722W        W 6922   6.085   5.612   0.275
 2723W        W 6923   9.064   6.717   3.206
 2724W        W 6924   5.485   8.907   0.982
 2725W        W 6925   5.529  10.913  11.250
 2726W        W 6926   6.548  10.929   1.416
 2727W        W 6927   9.041   9.947   9.607
 2728W        W 6928   2.861   6.069   3.309
 2729W        W 6929   3.226   5.546  10.063
 2730W        W 6930   8.425   5.964   9.597
 2731W        W 6931   2.156   5.601   3.490
 2732W        W 6932   5.057   3.790   1.170
 2733W        W 6933   5.582   9.317   9.365
 2734W        W 6934   7.571  10.004   0.393
 2735W        W 6935  10.611   4.511   8.899
 2736W        W 6936   2.616   9.065   1.861
 2737W        W 6937   2.789   7.686  11.698
 2738W        W 6938  11.266  11.434  10.314
 2739W        W 6939   7.557  10.581   1.689
 2740W        W 6940   0.452   9.159   2.252
 2741W        W 6941   4.749  10.219  11.008
 2742W        W 6942   1.881   0.077  11.506
 2743W        W 6943   9.022   6.722  10.964
 2744W        W 6944   3.805   2.723   0.120
 2745W        W 6945   7.883   9.800   1.740
 2746W        W 6946  10.255   5.017  11.664
 2747W        W 6947  10.965   2.970   3.209
 2748W        W 6948   7.110   8.715  10.028
 2749W        W 6949  10.343   7.687   2.095
 2750W        W 6950   6.955   1.263  10.038
 2751W        W 6951   9.113   0.367   2.216
 2752W        W 6952   4.672  11.402   3.377
 2753W        W 6953   8.888   3.570  10.350
 2754W        W 6954   0.002   8.018   1.399
 2755W        W 6955   7.466   7.219   3.078
 2756W        W 6956   5.250  10.788   0.638
 2757W        W 6957  10.678   7.135  11.424
 2758W        W 6958   1.791   9.814   0.537
 2759W        W 6959   2.217   1.870  10.277
 2760W        W 6960   8.463   7.656   1.848
 2761W        W 6961   8.410   4.183  10.770
 2762W        W 6962   2.129   9.848   1.410
 2763W        W 6963   5.065   7.779   0.412
 2764W        W 6964   3.171  11.415  10.627
 2765W        W 6965   5.288   6.924   9.954
 2766W        W 6966   8.655   5.851   1.379
 2767W        W 6967   1.780   8.607  11.359
 2768W        W 6968   1.871   9.395   1.245
 2769W        W 6969   7.549   9.175   9.438
 2770W        W 6970   2.368   6.967   3.159
 2771W        W 6971   1.924   9.028   3.299
 2772W        W 6972   0.873   9.069   2.540
 2773W        W 6973   2.619  11.363  10.890
 2774W        W 6974   6.218  10.438  11.357
 2775W        W 6975   1.255  11.491   1.323
 2776W        W 6976   8.001   7.597   8.836
 2777W        W 6977   6.523   6.693  11.726
 2778W        W 6978   4.224   3.892   8.813
 2779W        W 6979   2.696  10.173  11.981
 2780W        W 6980   6.843   6.550   2.474
 2781W        W 6981   1.111   7.107   1.869
 2782W        W 6982   0.730   8.344   9.371
 2783W        W 6983   7.510   2.555   0.706
 2784W        W 6984   3.521  10.001   9.684
 2785W        W 6985   9.746   1.485   3.351
 2786W        W 6986   9.042   6.168   1.357
 2787W        W 6987   7.663   4.274   2.427
 2788W        W 6988   5.622   5.692   0.490
 2789W        W 6989   2.656   5.070   8.895
 2790W        W 6990  10.124  11.252   2.572
 2791W        W 6991   4.770   0.660   9.910
 2792W        W 6992   1.297   4.404  10.198
 2793W        W 6993   1.333   1.795   9.825
 2794W        W 6994   3.911   8.066   3.034
 2795W        W 6995   3.957   6.452   2.670
 2796W        W 6996  11.298   8.573   9.519
 2797W        W 6997   2.179   7.731   1.857
 2798W        W 6998   5.671   4.284  10.249
 2799W        W 6999   5.208  10.745   8.693
 2800W        W 7000  11.271   2.852  11.237
 2801W        W 7001  10.930   8.465   9.152
 2802W        W 7002   2.521   5.527   8.709
 2803W        W 7003   0.185   9.128  10.855
 2804W        W 7004   8.941   5.651   8.923
 2805W        W 7005   2.738   9.526   3.267
 2806W        W 7006   5.790   8.876  11.005
 2807W        W 7007   0.391   8.939   0.816
 2808W        W 7008   8.553   9.791  10.304
 2809W        W 7009   4.529   3.978  11.786
 2810W        W 7010   6.836   2.284  11.117
 2811W        W 7011   0.348   4.033   9.887
 2812W        W 7012   4.195   0.419   0.034
 2813W        W 7013   4.900   2.810  11.413
 2814W        W 7014   1.774   0.939  10.650
 2815W        W 7015   6.027   5.096   9.983
 2816W        W 7016   9.558   9.876   2.429
 2817W        W 7017  11.493   0.345   1.665
 2818W        W 7018   8.904   1.772   2.185
 2819W        W 7019  11.065   0.041   1.714
 2820W        W 7020   2.852   8.517  11.081
 2821W        W 7021   6.532   3.645  10.873
 2822W        W 7022  10.322   9.168  11.332
 2823W        W 7023   3.886   1.388   3.430
 2824W        W 7024   5.225   4.135  11.900
 2825W        W 7025   1.876   1.948   3.058
 2826W        W 7026   3.291   8.595  11.337
 2827W        W 7027   6.654   6.664   3.576
 2828W        W 7028   2.706   0.013   2.401
 2829W        W 7029   1.110   5.419   0.765
 2830W        W 7030   9.977   1.186  10.320
 2831W        W 7031   2.877   5.902  10.361
 2832W        W 7032   4.849   9.519   0.232
 2833W        W 7033   6.225   5.855   9.408
 2834W        W 7034   5.524   1.921   9.544
 2835W        W 7035   0.457   0.963   1.374
 2836W        W 7036   9.081   5.068   4.278
 2837W        W 7037   6.736   2.581   4.042
 2838W        W 7038   3.308   0.533   2.828
 2839W        W 7039   0.235   2.171   2.816
 2840W        W 7040   6.444  11.166   0.974
 2841W        W 7041   4.516   8.596   0.224
 2842W        W 7042   8.127  10.034   9.113
 2843W        W 7043   0.759  11.135   3.605
 2844W        W 7044  10.027  10.342  11.832
 2845W        W 7045   2.679   8.123   3.005
 2846W        W 7046   9.946   6.237   1.467
 2847W        W 7047   3.352   9.243   2.398
 2848W        W 7048   8.338   0.776   8.988
 2849W        W 7049   0.035   0.672   1.191
 2850W        W 7050   5.217  10.131  10.799
 2851W        W 7051   8.899   9.520   0.404
 2852W        W 7052   9.332   2.249  10.093
 2853W        W 7053   5.646   7.052   9.013
 2854W        W 7054   6.598   9.575   2.891
 2855W        W 7055   8.465   9.016   1.718
 2856W        W 7056   4.584   9.743  10.994
 2857W        W 7057   4.380   9.586  11.455
 2858W        W 7058   4.167  10.050   0.522
 2859W        W 7059   7.948  10.036   0.728
 2860W        W 7060   4.317   1.431  11.040
 2861W        W 7061   8.954   0.645   9.506
 2862W        W 7062   7.585  10.370   1.231
 2863W        W 7063   0.454   9.922   9.516
 2864W        W 7064  10.825   0.228   1.280
 2865W        W 7065   2.759   7.368  10.182
 2866W        W 7066   9.905   6.519   0.282
 2867W        W 7067  10.360   1.303   9.253
 2868W        W 7068   8.377   5.042  11.487
 2869W        W 7069   7.434   0.923   9.150
 2870W        W 7070   8.757   7.555  11.042
 2871W        W 7071   0.728   2.327   9.667
 2872W        W 7072   2.173   9.094   2.797
 2873W        W 7073   8.388   3.253   8.414
 2874W        W 7074   0.290   1.727  10.069
 2875W        W 7075   8.345   4.138   0.482
 2876W        W 7076   6.261   5.764   0.796
 2877W        W 7077   6.087   0.967   8.994
 2878W        W 7078   6.056   7.432   9.786
 2879W        W 7079   2.334   0.247  11.346
 2880W        W 7080   4.329   6.807   2.691
 2881W        W 7081   2.094   7.860   1.047
 2882W        W 7082   8.043   9.255   9.557
 2883W        W 7083   7.633   6.707  11.336
 2884W        W 7084  10.849  11.429   0.226
 2885W        W 7085   2.212   7.462   3.061
 2886W        W 7086   2.398   5.261   2.159
 2887W        W 7087   3.300   4.712   8.942
 2888W        W 7088   2.153   2.885   9.327
 2889W        W 7089  10.572   9.901   3.440
 2890W        W 7090   8.860   0.627   8.963
 2891W        W 7091   3.422  10.867   3.821
 2892W        W 7092   0.118   1.450   2.226
 2893W        W 7093   6.809   7.978  11.172
 2894W        W 7094   2.694  10.697  10.409
 2895W        W 7095   4.586   4.031   2.560
 2896W        W 7096   8.161   3.664   0.333
 2897W        W 7097   2.378   7.565   0.685
 2898W        W 7098   6.469   9.388  10.400
 2899W        W 7099   4.104   6.427  11.241
 2900W        W 7100  10.896   5.358  11.328
 2901W        W 7101   0.886   6.689  11.583
 2902W        W 7102   0.269   0.424   9.955
 2903W        W 7103   7.144  11.340   3.543
 2904W        W 7104   5.958   8.053  11.007
 2905W        W 7105   7.417   9.606   1.849
 2906W        W 7106   5.672  11.347   1.332
 2907W        W 7107   7.944   3.695  10.414
 2908W        W 7108   2.272   1.135   2.786
 2909W        W 7109   0.072   4.174   2.550
 2910W        W 7110   4.049   3.408   8.751
 2911W        W 7111   9.410   6.568   3.576
 2912W        W 7112   5.325  11.310   1.732
 2913W        W 7113   9.027   2.283   1.359
 2914W        W 7114   8.956   9.027   1.551
 2915W        W 7115   9.936   0.443   2.331
 2916W        W 7116   0.346   9.257   1.213
 2917W        W 7117   0.684   9.522   1.973
 2918W        W 7118   5.116   9.602   8.542
 2919W        W 7119   0.425   8.053   3.230
 2920W        W 7120   8.039   9.515   2.468
 2921W        W 7121  11.450  11.381   2.505
 2922W        W 7122   7.109   2.941   4.106
 2923W        W 7123   4.827  10.823   9.886
 2924W        W 7124   6.443   2.347  10.805
 2925W        W 7125   5.164   6.886   3.596
 2926W        W 7126   4.078  11.060  11.181
 2927W        W 7127   2.791  11.107   2.086
 2928W        W 7128  10.598   0.467   0.896
 2929W        W 7129   5.234   2.627   0.832
 2930W        W 7130   0.221   6.977   1.258
 2931W        W 7131   0.604   1.762   2.861
 2932W        W 7132   0.894   7.666  10.003
 2933W        W 7133   1.541   2.112  10.285
 2934W        W 7134   0.154   9.569   2.085
 2935W        W 7135   2.876   2.126   0.055
 2936W        W 7136   8.421   6.758  11.980
 2937W        W 7137  10.615   8.567  10.470
 2938W        W 7138   1.908   9.326  11.812
 2939W        W 7139   6.310  10.468  11.884
 2940W        W 7140   0.350   3.395   2.356
 2941W        W 7141   7.275   2.412  11.357
 2942W        W 7142   3.339   5.691   2.847
 2943W        W 7143   3.573   4.335   3.063
 2944W        W 7144  11.057   0.899  10.958
 2945W        W 7145   3.229   5.179   2.863
 2946W        W 7146   0.849   9.499  10.304
 2947W        W 7147  10.382   0.429   0.032
 2948W        W 7148   5.067  10.127   2.554
 2949W        W 7149   9.568   5.040   2.674
 2950W        W 7150   9.522   6.968   8.633
 2951W        W 7151   2.674   1.980   1.860
 2952W        W 7152   3.868   1.445   9.460
 2953W        W 7153  10.890   5.673   0.751
 2954W        W 7154   3.962  11.300   9.985
 2955W        W 7155   2.672  10.275  10.714
 2956W        W 7156   0.275   5.212   3.259
 2957W        W 7157   7.574   3.356  10.496
 2958W        W 7158   9.871   9.610   9.553
 2959W        W 7159   5.159   9.325   8.983
 2960W        W 7160   5.516   6.321  11.814
 2961W        W 7161   1.231   3.239   0.181
 2962W        W 7162   5.973   1.749   2.376
 2963W        W 7163   0.889  10.351   1.883
 2964W        W 7164   3.808   1.255   2.422
 2965W        W 7165   9.355   2.760   1.013
 2966W        W 7166   7.418   5.014   3.787
 2967W        W 7167   5.059   6.089   0.503
 2968W        W 7168   4.933  10.086   1.694
 2969W        W 7169   9.374   8.139   1.363
 2970W        W 7170   7.947   9.068   9.090
 2971W        W 7171   3.842   5.509   0.242
 2972W        W 7172   1.711   3.151  10.954
 2973W        W 7173   8.956   8.821   0.280
 2974W        W 7174   2.887  10.296   9.113
 2975W        W 7175   9.092   1.496   2.586
 2976W        W 7176   5.108   7.340   8.892
 2977W        W 7177  10.775   3.278   0.903
 2978W        W 7178   2.732   1.852   2.707
 2979W        W 7179   5.863   3.307   9.387
 2980W        W 7180  10.018   9.460   0.870
 2981W        W 7181   8.945   2.943   0.767
 2982W        W 7182   0.178   4.049  11.660
 2983W        W 7183   5.203   1.444  11.083
 2984W        W 7184   2.174   4.271   9.587
 2985W        W 7185   6.781   2.116   2.402
 2986W        W 7186   0.519   0.394  10.387
 2987W        W 7187  10.144   7.084   9.491
 2988W        W 7188   3.555   6.704   9.828
 2989W        W 7189   6.127   6.511   9.953
 2990W        W 7190   2.706   6.756   8.260
 2991W        W 7191   0.357   0.067   1.165
 2992W        W 7192   2.076   4.291   9.076
 2993W        W 7193  11.400   3.899   0.764
 2994W        W 7194   3.722   0.852   9.087
 2995W        W 7195   6.526   4.597  10.694
 2996W        W 7196   8.630  10.466   9.005
 2997W        W 7197   0.074   0.418   3.210
 2998W        W 7198   8.861   4.869  11.512
 2999W        W 7199   9.808  11.356  11.692
 3000W        W 7200   0.455   3.344   8.898
 3001W        W 7201   2.242   0.009   0.007
 3002W        W 7202  10.917   0.427   0.423
 3003W        W 7203   4.879   1.459   9.565
 3004W        W 7204   0.924   1.351   2.835
 3005W        W 7205   4.316   2.335   2.652
 3006W        W 7206   7.267   2.810   3.115
 3007W        W 7207   3.533   9.306   2.864
 3008W        W 7208   4.346   3.698  10.575
 3009W        W 7209  10.772   0.798  10.547
 3010W        W 7210   9.885   7.671   2.976
 3011W        W 7211   1.222   5.759   1.841
 3012W        W 7212   0.771   8.505  11.236
 3013W        W 7213   2.983   6.000   9.863
 3014W        W 7214   1.304   3.176   1.748
 3015W        W 7215   7.403   2.099   0.932
 3016W        W 7216   1.396   8.588   0.962
 3017W        W 7217   4.098   9.196  10.432
 3018W        W 7218   0.853   8.497   3.772
 3019W        W 7219   3.747   4.946  10.292
 3020W        W 7220   9.591   5.174  11.699
 3021W        W 7221  10.007   8.098   2.691
 3022W        W 7222   2.279   1.959   9.251
 3023W        W 7223   5.663   9.010   2.520
 3024W        W 7224   5.128   3.811  10.911
 3025W        W 7225   6.705   2.684   8.550
 3026W        W 7226   4.246   1.118  11.917
 3027W        W 7227   6.537   1.678   8.776
 3028W        W 7228   3.222   5.290  11.035
 3029W        W 7229   2.619   0.626   1.195
 3030W        W 7230   3.866   5.858   1.482
 3031W        W 7231   3.629   4.347   1.230
 3032W        W 7232   5.096   5.706  10.205
 3033W        W 7233   0.699   7.993  11.349
 3034W        W 7234   8.674   7.451  10.373
 3035W        W 7235   4.615   7.958  11.045
 3036W        W 7236  11.206  11.035   1.777
 3037W        W 7237  10.064   5.179   2.451
 3038W        W 7238   6.263   3.276   9.059
 3039W        W 7239   1.386   5.723  10.212
 3040W        W 7240   2.664   1.693  10.369
 3041W        W 7241  10.141   9.593   1.641
 3042W        W 7242   2.661   0.193  11.815
 3043W        W 7243   0.152   2.640   0.956
 3044W        W 7244   3.133   7.538   1.669
 3045W        W 7245   3.615   9.753   3.101
 3046W        W 7246   0.976  10.794   0.006
 3047W        W 7247   6.272   7.674   0.639
 3048W        W 7248   6.020   1.354   8.456
 3049W        W 7249   9.886   5.131  11.294
 3050W        W 7250   9.184   7.941   9.029
 3051W        W 7251   7.963   4.707   2.526
 3052W        W 7252   6.766   8.836  11.155
 3053W        W 7253   7.717   3.629   2.837
 3054W        W 7254   3.162  10.901  11.909
 3055W        W 7255   7.737   7.585  10.374
 3056W        W 7256  11.103   0.024   3.320
 3057W        W 7257   7.056   0.564   9.070
 3058W        W 7258   0.449  10.850  11.523
 3059W        W 7259   9.915   7.609   9.625
 3060W        W 7260   0.899   0.449   0.672
 3061W        W 7261   2.327   7.197   9.927
 3062W        W 7262   1.181   1.207   9.171
 3063W        W 7263   4.418   2.666  11.415
 3064W        W 7264   3.690  11.383   9.077
 3065W        W 7265  10.409   8.170  11.477
 3066W        W 7266  10.938   2.742   0.209
 3067W        W 7267   9.936   4.857   3.459
 3068W        W 7268   8.893   7.256   0.345
 3069W        W 7269   2.768   1.816  11.636
 3070W        W 7270   7.483  10.382   9.793
 3071W        W 7271   9.495   8.888   8.943
 3072W        W 7272   7.492   6.699   3.124
 3073W        W 7273   5.495  10.735   1.948
 3074W        W 7274   1.472   5.271  11.496
 3075W        W 7275   0.020  10.084   2.024
 3076W        W 7276   5.532   0.620  10.155
 3077W        W 7277   5.804   7.570   0.786
 3078W        W 7278   5.237   3.718   2.289
 3079W        W 7279  10.532   1.404   2.916
 3080W        W 7280   8.176   5.044  10.452
 3081W        W 7281   6.654  10.461   1.241
 3082W        W 7282   6.752   3.781  11.319
 3083W        W 7283   6.057  11.012   1.286
 3084W        W 7284   9.864   4.693  11.569
 3085W        W 7285  11.373   9.227   3.533
 3086W        W 7286   0.509   5.915  10.845
 3087W        W 7287   7.476   8.519  11.472
 3088W        W 7288   5.194   5.723   9.668
 3089W        W 7289   8.050   0.005   3.420
 3090W        W 7290   2.649  10.222  10.215
 3091W        W 7291   8.331   0.790  11.208
 3092W        W 7292   9.432   7.372   1.056
 3093W        W 7293   8.963   1.609   9.318
 3094W        W 7294   5.602   4.468   1.090
 3095W        W 7295   2.898   4.651   8.610
 3096W        W 7296   5.306  10.979   9.771
 3097W        W 7297   1.852   6.592   2.819
 3098W        W 7298   4.160  11.453   8.883
 3099W        W 7299   6.590   9.862   8.941
 3100W        W 7300   5.819   6.048  11.537
 3101W        W 7301   0.853   2.663  10.700
 3102W        W 7302   4.603   5.439   1.429
 3103W        W 7303   4.289   7.829  10.072
 3104W        W 7304   2.848   7.494   2.085
 3105W        W 7305   1.432   8.212  10.529
 3106W        W 7306   7.509   2.756   1.656
 3107W        W 7307  11.379   1.277   0.030
 3108W        W 7308   8.032   0.831   1.984
 3109W        W 7309   6.131   0.452  11.780
 3110W        W 7310   5.256  10.507   1.062
 3111W        W 7311   8.114   2.445  11.935
 3112W        W 7312   7.052   4.078   1.079
 3113W        W 7313   3.261   8.657   9.352
 3114W        W 7314   3.596   5.763  11.853
 3115W        W 7315   5.797  10.764   0.282
 3116W        W 7316   4.046   0.781  10.441
 3117W        W 7317  11.359   5.203   9.764
 3118W        W 7318   6.445   4.769  11.695
 3119W        W 7319   1.192   8.594   9.331
 3120W        W 7320   3.263   7.924   0.370
 3121W        W 7321   3.288   8.191   1.269
 3122W        W 7322   1.805  11.224  10.563
 3123W        W 7323   4.568   0.007   0.892
 3124W        W 7324   8.460  11.337   2.645
 3125W        W 7325   6.169   1.303   0.735
 3126W        W 7326   0.866   7.242   4.061
 3127W        W 7327   0.368   3.809   0.984
 3128W        W 7328   3.736   3.205  11.881
 3129W        W 7329   1.629  10.305   9.012
 3130W        W 7330   3.577  11.304   3.036
 3131W        W 7331  11.054   8.729   0.587
 3132W        W 7332   5.701   2.296   9.207
 3133W        W 7333   2.577   5.025   3.774
 3134W        W 7334   6.756  10.530   9.071
 3135W        W 7335   5.726   2.832  10.007
 3136W        W 7336   4.005   4.648   9.820
 3137W        W 7337   4.511   9.107   0.277
 3138W        W 7338   7.767   8.321   9.239
 3139W        W 7339   0.248   0.820  10.353
 3140W        W 7340  11.471   1.214   1.302
 3141W        W 7341  11.089  10.761   3.542
 3142W        W 7342   1.296  11.328  10.491
 3143W        W 7343   6.959   7.872   2.473
 3144W        W 7344   6.505   4.507   2.620
 3145W        W 7345   1.025   4.509   1.314
 3146W        W 7346   4.259  10.319   1.952
 3147W        W 7347   0.635  10.047   0.176
 3148W        W 7348   1.392   9.529  11.007
 3149W        W 7349   8.979   1.082   9.176
 3150W        W 7350   2.911   0.277   0.265
 3151W        W 7351  11.367   8.764   3.294
 3152W        W 7352  11.213   4.553   3.422
 3153W        W 7353  11.225   4.339   9.880
 3154W        W 7354   1.904   1.869   0.042
 3155W        W 7355   6.970   9.800   0.903
 3156W        W 7356   5.288   8.956  10.984
 3157W        W 7357   1.891   3.885   0.881
 3158W        W 7358  10.492   8.439  11.921
 3159W        W 7359   4.384   9.947   9.227
 3160W        W 7360   2.565   1.217   2.381
 3161W        W 7361   8.423   5.553   8.973
 3162W        W 7362   1.571  10.382   0.988
 3163W        W 7363   3.743   1.781  10.418
 3164W        W 7364   5.616   1.680   1.616
 3165W        W 7365   8.171   1.038   2.448
 3166W        W 7366  10.545   9.340   0.172
 3167W        W 7367   6.235   5.065  10.473
 3168W        W 7368   3.599  10.988   9.450
 3169W        W 7369   8.488   2.667   9.967
 3170W        W 7370   2.309   8.663   9.097
 3171W        W 7371  10.979   9.551   3.433
 3172W        W 7372   9.322   4.238   9.639
 3173W        W 7373   5.742   7.994   9.090
 3174W        W 7374   3.153   6.945   1.061
 3175W        W 7375   9.997   4.587  10.140
 3176W        W 7376   2.827   2.801   0.473
 3177W        W 7377   5.588   2.840   3.371
 3178W        W 7378   6.957   0.778  10.248
 3179W        W 7379  11.454  10.942   2.265
 3180W        W 7380   2.119   6.118  11.759
 3181W        W 7381  11.331   7.606   1.641
 3182W        W 7382   1.697   0.697   9.169
 3183W        W 7383  10.604   8.869   1.386
 3184W        W 7384   3.234   8.888   1.982
 3185W        W 7385   6.066   8.339   1.776
 3186W        W 7386   0.369  11.061   1.313
 3187W        W 7387   6.004  10.917  11.441
 3188W        W 7388   9.867   2.225  11.778
 3189W        W 7389   8.935   0.880  10.755
 3190W        W 7390   8.613   3.790   2.678
 3191W        W 7391   1.227   6.567   3.515
 3192W        W 7392   8.896   1.234   9.666
 3193W        W 7393   3.834   7.790  11.410
 3194W        W 7394   8.315   9.588   2.007
 3195W        W 7395   9.312   7.841   1.834
 3196W        W 7396   0.945   9.863   9.370
 3197W        W 7397   8.800   4.578   1.278
 3198W        W 7398   1.069  11.323  11.933
 3199W        W 7399   1.241   1.025   2.586
 3200W        W 7400   5.728   3.279   8.383
 3201W        W 7401   9.949   6.182   9.841
 3202W        W 7402   5.644   0.936   2.205
 3203W        W 7403   2.695   7.173  11.743
 3204W        W 7404   5.754  11.273   0.415
 3205W        W 7405   2.640   2.860   9.445
 3206W        W 7406   3.734   2.730   3.292
 3207W        W 7407  10.946   8.950   9.290
 3208W        W 7408   2.239  11.291   2.768
 3209W        W 7409   9.072   4.681   9.668
 3210W        W 7410   8.127   9.381   1.576
 3211W        W 7411   7.566   9.037   2.905
 3212W        W 7412   2.006   7.630   2.626
 3213W        W 7413   8.705  11.339   0.384
 3214W        W 7414   0.782   1.589  11.349
 3215W        W 7415   8.432   0.570   1.745
 3216W        W 7416   7.511   7.984   0.997
 3217W        W 7417   4.017   2.814   9.571
 3218W        W 7418   0.829   8.812   0.061
 3219W        W 7419  10.769   4.863  11.449
 3220W        W 7420  11.280   8.183   0.371
 3221W        W 7421   2.737   1.519  11.224
 3222W        W 7422   6.593   0.774   2.754
 3223W        W 7423   4.241   0.968   3.439
 3224W        W 7424  10.826  10.799  10.880
 3225W        W 7425   7.258   1.340   9.583
 3226W        W 7426  10.937   2.568   9.747
 3227W        W 7427   9.425   6.619   0.331
 3228W        W 7428   1.878   2.902   2.727
 3229W        W 7429   3.480   4.398   0.459
 3230W        W 7430   9.568   6.551   0.817
 3231W        W 7431  10.213   1.254   3.322
 3232W        W 7432   7.517   9.431  11.289
 3233W        W 7433   9.900   9.474  10.521
 3234W        W 7434   3.912  10.064   9.354
 3235W        W 7435   3.443   7.960   1.743
 3236W        W 7436  10.511   1.811   9.233
 3237W        W 7437  10.768   0.871   3.496
 3238W        W 7438   3.598   8.957   0.556
 3239W        W 7439   6.981   4.321   2.787
 3240W        W 7440   3.144   3.214   0.454
 3241W        W 7441   6.518   9.194   8.465
 3242W        W 7442   6.091   5.236  11.896
 3243W        W 7443   4.334   8.621   2.566
 3244W        W 7444   6.277  11.294   0.377
 3245W        W 7445   3.663   6.505   2.149
 3246W        W 7446   2.816   4.332   0.930
 3247W        W 7447   1.233  10.049   1.249
 3248W        W 7448  11.311  10.282   9.940
 3249W        W 7449   8.081  10.318  11.275
 3250W        W 7450   0.943   5.607   9.943
 3251W        W 7451   8.409   7.070   9.815
 3252W        W 7452   0.790   7.768  10.883
 3253W        W 7453   3.951   3.209   0.898
 3254W        W 7454   6.410   5.756  10.558
 3255W        W 7455  10.413   9.784   0.923
 3256W        W 7456   0.801   9.972   0.665
 3257W        W 7457   0.397  11.017   9.948
 3258W        W 7458   4.659   4.395  10.013
 3259W        W 7459   0.856   1.264  11.731
 3260W        W 7460  11.472   0.164   0.706
 3261W        W 7461  10.922   1.249   3.203
 3262W        W 7462   1.872  10.435   3.169
 3263W        W 7463   6.310   6.040   1.231
 3264W        W 7464   0.304  11.435  10.248
 3265W        W 7465  10.272   0.500   2.728
 3266W        W 7466   5.353  10.083   0.764
 3267W        W 7467   5.990  11.401   2.834
 3268W        W 7468   2.784   9.390   9.253
 3269W        W 7469   8.397   9.251   3.278
 3270W        W 7470   9.921   2.828   0.459
 3271W        W 7471   9.402   0.024   1.443
 3272W        W 7472   5.000  11.478   2.554
 3273W        W 7473   9.679   0.016   0.151
 3274W        W 7474   8.400   8.637   2.054
 3275W        W 7475   3.360   8.439   2.757
 3276W        W 7476   0.383   6.099   0.743
 3277W        W 7477   4.210   6.531   8.563
 3278W        W 7478   5.066   2.354  10.004
 3279W        W 7479   1.194   8.747   2.894
 3280W        W 7480   2.634   8.570   3.256
 3281W        W 7481   0.359  11.054   8.442
 3282W        W 7482   7.510   1.412   1.192
 3283W        W 7483   1.415   2.209   3.236
 3284W        W 7484   9.962   7.189   9.944
 3285W        W 7485   1.232   0.581   2.390
 3286W        W 7486   2.692   3.462   1.016
 3287W        W 7487  11.297   6.888   0.375
 3288W        W 7488   7.479   8.191   0.304
 3289W        W 7489   6.981  10.175   0.056
 3290W        W 7490   0.465   0.469   1.456
 3291W        W 7491   5.512   3.260   0.099
 3292W        W 7492   8.650   5.954  10.063
 3293W        W 7493   2.218   4.118   1.757
 3294W        W 7494   0.389   2.959  11.859
 3295W        W 7495   7.664   0.071   1.671
 3296W        W 7496   1.926   5.128   2.319
 3297W        W 7497   7.474   2.674   2.170
 3298W        W 7498   1.403   6.919   9.514
 3299W        W 7499   8.513   0.284   2.974
 3300W        W 7500   1.563   9.445   0.837
 3301W        W 7501  11.337   1.625   0.412
 3302W        W 7502   6.594   7.110   9.648
 3303W        W 7503   9.052   8.888  11.239
 3304W        W 7504   3.744   4.653   0.822
 3305W        W 7505   1.808   0.462  10.016
 3306W        W 7506   8.390   8.893   9.408
 3307W        W 7507   1.043   7.939  11.743
 3308W        W 7508   0.430   5.553  10.476
 3309W        W 7509   2.957   9.489   9.807
 3310W        W 7510  10.858   0.664   8.940
 3311W        W 7511   3.238   8.204  10.092
 3312W        W 7512   7.461   0.532   0.273
 3313W        W 7513  11.327   6.464  10.452
 3314W        W 7514   3.189   1.253   1.548
 3315W        W 7515   3.193   7.683  10.800
 3316W        W 7516   6.689   9.066   2.421
 3317W        W 7517   8.023   0.511   0.290
 3318W        W 7518   1.888   3.080   1.274
 3319W        W 7519   4.976  10.361   0.488
 3320W        W 7520  10.345   3.647   8.711
 3321W        W 7521   3.896   2.348   0.914
 3322W        W 7522   7.539   5.625   1.571
 3323W        W 7523   1.357   8.910   1.949
 3324W        W 7524   6.218  10.139   1.182
 3325W        W 7525  10.582   6.087   0.682
 3326W        W 7526   4.014   2.196   3.527
 3327W        W 7527   9.769   3.066   1.861
 3328W        W 7528   0.195   4.516   2.992
 3329W        W 7529   0.542   3.896  10.568
 3330W        W 7530   6.045  10.589   1.029
 3331W        W 7531  10.477  11.204   0.499
 3332W        W 7532  10.363  10.467   9.239
 3333W        W 7533   4.361   5.994  11.179
 3334W        W 7534   9.352   0.972   9.547
 3335W        W 7535   3.072   1.444  10.555
 3336W        W 7536   4.736   6.785   9.479
 3337W        W 7537   4.689   1.107   2.897
 3338W        W 7538  10.726   3.618   2.660
 3339W        W 7539   0.624   9.027  10.526
 3340W        W 7540   8.548   1.452   8.446
 3341W        W 7541   0.910   0.468   3.164
 3342W        W 7542   0.558   2.336   8.837
 3343W        W 7543   6.179  11.469   9.877
 3344W        W 7544   4.086   1.616   1.305
 3345W        W 7545   9.935   6.654  11.277
 3346W        W 7546   4.055   5.037   0.048
 3347W        W 7547   8.053  10.519   1.432
 3348W        W 7548   7.272   5.451   1.039
 3349W        W 7549  11.365   6.006   2.393
 3350W        W 7550   9.460   8.406   2.781
 3351W        W 7551   0.577   7.494  11.279
 3352W        W 7552   7.469   6.052   1.908
 3353W        W 7553   3.062   9.604   3.687
 3354W        W 7554   6.775   4.216   2.282
 3355W        W 7555   3.431   6.551   2.645
 3356W        W 7556   4.988   7.530   1.274
 3357W        W 7557   0.860   8.416  11.733
 3358W        W 7558   7.415   9.899  10.039
 3359W        W 7559   0.929   5.682  10.455
 3360W        W 7560   8.013   8.932   3.174
 3361W        W 7561   5.700   3.122  11.174
 3362W        W 7562  11.445   2.841   2.948
 3363W        W 7563   5.213  10.534  11.104
 3364W        W 7564   2.250   8.534   0.773
 3365W        W 7565   0.377   1.763  11.600
 3366W        W 7566   2.899   7.158  10.787
 3367W        W 7567   8.351   5.663   2.754
 3368W        W 7568   0.946   8.029   1.479
 3369W        W 7569   6.734   9.132   4.141
 3370W        W 7570   1.142  11.207   0.444
 3371W        W 7571   6.591   3.048   0.040
 3372W        W 7572   9.177   6.427   1.804
 3373W        W 7573   2.840   2.962   1.924
 3374W        W 7574   6.511   4.371   9.806
 3375W        W 7575   3.201   3.511   3.235
 3376W        W 7576   4.750   0.765  11.307
 3377W        W 7577   9.364   4.079  10.644
 3378W        W 7578   7.813   3.362   8.708
 3379W        W 7579   3.775   6.462   9.435
 3380W        W 7580  10.323   9.500  11.739
 3381W        W 7581   3.812   4.127   2.645
 3382W        W 7582   4.546   7.303   9.408
 3383W        W 7583   6.936   0.485   9.585
 3384W        W 7584   1.049   6.224   8.807
 3385W        W 7585   1.281   2.441  10.921
 3386W        W 7586   4.896   6.550  10.595
 3387W        W 7587   9.365   2.317  11.618
 3388W        W 7588  10.933   6.727   2.676
 3389W        W 7589   4.274   5.304   1.863
 3390W        W 7590   5.017   2.381   1.878
 3391W        W 7591   5.473   4.969   2.809
 3392W        W 7592   9.788   9.928  11.271
 3393W        W 7593   4.394   7.006   0.629
 3394W        W 7594   8.263   6.977   3.370
 3395W        W 7595  10.843  11.043  11.835
 3396W        W 7596  10.494   6.105   3.260
 3397W        W 7597   5.252   2.232   8.949
 3398W        W 7598   7.036   1.011   8.816
 3399W        W 7599   7.049   2.870  11.250
 3400W        W 7600   6.787   7.036  10.178
 3401W        W 7601   5.224   5.734   0.843
 3402W        W 7602  10.012   7.176  10.804
 3403W        W 7603   9.025   6.186   9.763
 3404W        W 7604   4.182   1.932   1.704
 3405W        W 7605   2.943   8.634   9.928
 3406W        W 7606   0.408   9.587   8.509
 3407W        W 7607   9.923   8.656   8.747
 3408W        W 7608   6.502   9.641   9.408
 3409W        W 7609   3.122   1.674   1.876
 3410W        W 7610   8.362   2.491   8.519
 3411W        W 7611   5.250   1.433   9.206
 3412W        W 7612   4.174   3.142   9.919
 3413W        W 7613   9.518  10.268  10.962
 3414W        W 7614   3.022   3.153  10.646
 3415W        W 7615   3.589   8.573   0.238
 3416W        W 7616   1.346   2.641   9.893
 3417W        W 7617   1.792   7.674  10.412
 3418W        W 7618   4.109   6.740  10.839
 3419W        W 7619   7.830   6.936   1.540
 3420W        W 7620   1.948   2.851   1.780
 3421W        W 7621   8.427   6.300   0.820
 3422W        W 7622   6.664  11.295   2.380
 3423W        W 7623   2.741   2.583   9.036
 3424W        W 7624   2.355   6.908   9.490
 3425W        W 7625   4.319   0.370  10.611
 3426W        W 7626   3.121  10.840   9.556
 3427W        W 7627   7.096   5.018   0.093
 3428W        W 7628  10.814   9.017   0.941
 3429W        W 7629   9.601   1.476   2.637
 3430W        W 7630   4.315   9.913   2.764
 3431W        W 7631   0.780   0.828   2.726
 3432W        W 7632   6.705  10.598   3.240
 3433W        W 7633  10.924  10.906   0.328
 3434W        W 7634  10.929   8.081   2.721
 3435W        W 7635   5.822   6.672  10.932
 3436W        W 7636   8.971   4.406  11.385
 3437W        W 7637   2.195   8.369   9.486
 3438W        W 7638   4.133   3.064   3.227
 3439W        W 7639   2.511   2.175   2.318
 3440W        W 7640   4.178   3.617  10.114
 3441W        W 7641   6.548  10.498  10.168
 3442W        W 7642   3.507   8.767   2.408
 3443W        W 7643   6.612   5.191  11.990
 3444W        W 7644   9.915   2.686   9.580
 3445W        W 7645  10.826   8.946  11.232
 3446W        W 7646   1.336   5.209   0.358
 3447W        W 7647   7.229   6.980   0.903
 3448W        W 7648   2.329   1.079   1.933
 3449W        W 7649   8.673   7.784   0.940
 3450W        W 7650   6.997   3.913  11.760
 3451W        W 7651   7.116   8.536   3.415
 3452W        W 7652   9.806   4.559   1.019
 3453W        W 7653   8.630  11.229   1.284
 3454W        W 7654   1.676   0.835   9.652
 3455W        W 7655   8.077   0.973   3.435
 3456W        W 7656   8.191  10.482  10.809
 3457W        W 7657  10.861   5.752   3.112
 3458W        W 7658   2.077   4.950   3.606
 3459W        W 7659   5.282   7.879  10.282
 3460W        W 7660   1.759   2.696   9.596
 3461W        W 7661   0.101   1.741  10.559
 3462W        W 7662   9.394   2.740   3.030
 3463W        W 7663   3.408   1.240   9.283
 3464W        W 7664   7.101   3.929   1.991
 3465W        W 7665   8.785   5.160   8.969
 3466W        W 7666   0.276   8.286   0.244
 3467W        W 7667   7.699   8.043  11.257
 3468W        W 7668   5.131   6.856   2.510
 3469W        W 7669   2.384   9.452  10.155
 3470W        W 7670   6.707   6.911  10.705
 3471W        W 7671   5.058   4.206   2.395
 3472W        W 7672   0.053   9.637  10.916
 3473W        W 7673   5.915   7.502   3.150
 3474W        W 7674  11.379   8.782   9.063
 3475W        W 7675   7.741   8.541  11.937
 3476W        W 7676   5.184   9.329   1.815
 3477W        W 7677   1.797   9.491   3.032
 3478W        W 7678   3.032   5.265   0.650
 3479W        W 7679   5.971   6.071   0.057
 3480W        W 7680  10.851   4.512   9.482
 3481W        W 7681   9.017   6.699   1.403
 3482W        W 7682   0.796  10.789   1.206
 3483W        W 7683   5.979   0.809  10.333
 3484W        W 7684  11.459   1.301  10.812
 3485W        W 7685   9.576   5.410  10.946
 3486W        W 7686   4.299   9.453   9.445
 3487W        W 7687  10.287   2.786   8.797
 3488W        W 7688   4.036   5.548   2.363
 3489W        W 7689  10.828   8.186  10.137
 3490W        W 7690   4.727   0.808   3.302
 3491W        W 7691   1.369   6.098  11.131
 3492W        W 7692   6.038   6.473  11.776
 3493W        W 7693   9.772   4.130  10.317
 3494W        W 7694   8.331   1.445   0.849
 3495W        W 7695   5.733   5.760   0.987
 3496W        W 7696   3.593   8.308   2.176
 3497W        W 7697   8.541   4.688   3.201
 3498W        W 7698   1.225   8.634   0.444
 3499W        W 7699   8.870  10.466   0.447
 3500W        W 7700   0.812   4.729   2.182
 3501W        W 7701   0.535  10.580  10.924
 3502W        W 7702  10.048   1.796   9.553
 3503W        W 7703   4.313   3.715   9.634
 3504W        W 7704   2.420   3.031   3.290
 3505W        W 7705   3.302   9.589   8.842
 3506W        W 7706   2.390   5.330  10.974
 3507W        W 7707   9.348   7.019   0.681
 3508W        W 7708   7.504   4.586   2.807
 3509W        W 7709  11.066  11.393   8.530
 3510W        W 7710   1.623   8.609   3.192
 3511W        W 7711  10.854   8.372   1.302
 3512W        W 7712   6.792   5.227   1.895
 3513W        W 7713  11.316   5.752   1.904
 3514W        W 7714   8.304  11.188  10.494
 3515W        W 7715   2.791   5.041  10.876
 3516W        W 7716   2.257   6.633  11.278
 3517W        W 7717   1.584   8.515   2.338
 3518W        W 7718   3.035  10.559   0.773
 3519W        W 7719   3.261   5.595   9.022
 3520W        W 7720   1.022  10.714  11.025
 3521W        W 7721   1.824   6.590  11.551
 3522W        W 7722   8.163   8.420   3.209
 3523W        W 7723   4.597   9.029   9.379
 3524W        W 7724  11.362   3.316   9.555
 3525W        W 7725   3.187   4.159  11.988
 3526W        W 7726   9.045   2.302   2.227
 3527W        W 7727   1.269   0.735  11.390
 3528W        W 7728   3.138   4.759   9.537
 3529W        W 7729   5.255   1.403   0.428
 3530W        W 7730   9.329   4.685   2.307
 3531W        W 7731   0.478   0.228   2.955
 3532W        W 7732   0.744   6.395  11.140
 3533W        W 7733   3.773   2.581   2.777
 3534W        W 7734   1.093  10.394   0.845
 3535W        W 7735   6.136   7.682   8.908
 3536W        W 7736   0.731   3.321  11.978
 3537W        W 7737   1.748   9.828   8.836
 3538W        W 7738   4.311   1.851   0.385
 3539W        W 7739   3.341   4.627  10.352
 3540W        W 7740  10.426  10.888   0.088
 3541W        W 7741   6.567   9.302  11.182
 3542W        W 7742   8.143   2.157  11.524
 3543W        W 7743   0.939   3.758  11.236
 3544W        W 7744   4.621   1.490  11.932
 3545W        W 7745   5.228  10.622   9.288
 3546W        W 7746   8.847  10.398   2.274
 3547W        W 7747  11.157   5.198   0.017
 3548W        W 7748   8.051  10.373   2.958
 3549W        W 7749   9.357   5.520   2.461
 3550W        W 7750   1.636   1.852  11.602
 3551W        W 7751   6.444   9.367   8.935
 3552W        W 7752   5.992  10.426  10.357
 3553W        W 7753   7.883   8.926   1.742
 3554W        W 7754  10.973   7.422   1.333
 3555W        W 7755   1.880   8.937   2.398
 3556W        W 7756   4.954   8.301  11.741
 3557W        W 7757  10.181  11.394   0.109
 3558W        W 7758   6.701  11.277   1.863
 3559W        W 7759   4.762   9.889   9.553
 3560W        W 7760   8.583  10.352  11.096
 3561W        W 7761   5.385   7.276   3.313
 3562W        W 7762   6.282   3.811   1.388
 3563W        W 7763   2.729   3.055  11.063
 3564W        W 7764  11.379   5.584   0.890
 3565W        W 7765   7.944   3.224   9.582
 3566W        W 7766   5.267  10.988   3.274
 3567W        W 7767   1.331   0.093   2.380
 3568W        W 7768   1.305   9.183   3.149
 3569W        W 7769   7.125   7.412   2.111
 3570W        W 7770   4.096   6.473  11.771
 3571W        W 7771  10.974   1.873   1.748
 3572W        W 7772   9.279  11.459   3.669
 3573W        W 7773   6.178   2.493   8.644
 3574W        W 7774   6.713   9.944   2.536
 3575W        W 7775   3.614   3.592   8.969
 3576W        W 7776   3.097  10.051   9.992
 3577W        W 7777   8.083   0.239   0.743
 3578W        W 7778   9.994  10.329   8.867
 3579W        W 7779   8.709   2.400   2.593
 3580W        W 7780   0.357   2.303   1.282
 3581W        W 7781   3.668   0.374   9.232
 3582W        W 7782  11.405  11.019   8.684
 3583W        W 7783  11.032   2.299   2.259
 3584W        W 7784   1.831   6.035  10.855
 3585W        W 7785   3.438   8.604   9.827
 3586W        W 7786   2.587   7.094   1.924
 3587W        W 7787   9.947   4.832   0.618
 3588W        W 7788   7.602   8.808   2.401
 3589W        W 7789  11.344  10.571   1.954
 3590W        W 7790   0.892   5.416   1.626
 3591W        W 7791   6.980   1.890   0.661
 3592W        W 7792   1.978   2.288  11.751
 3593W        W 7793   6.543   5.683   1.507
 3594W        W 7794   9.124   3.447  11.215
 3595W        W 7795   3.508   7.461   2.614
 3596W        W 7796   3.582   7.075  10.183
 3597W        W 7797   7.277   6.220  11.001
 3598W        W 7798   4.003   9.332   8.510
 3599W        W 7799   6.144   2.827   0.740
 3600W        W 7800   9.541   9.064  11.764
 3601W        W 7801   2.397   9.158   8.977
 3602W        W 7802   9.238   5.757   3.033
 3603W        W 7803   4.994   6.660  11.234
 3604W        W 7804   4.255   4.725  11.236
 3605W        W 7805   5.364   8.870  11.917
 3606W        W 7806   3.241   7.907   2.229
 3607W        W 7807   8.456   1.806   0.501
 3608W        W 7808   0.002   7.831   3.029
 3609W        W 7809   0.972   8.254  10.832
 3610W        W 7810   1.134   4.266  11.277
 3611W        W 7811   6.108   5.272   9.463
 3612W        W 7812   6.679  10.211   0.810
 3613W        W 7813   6.800   0.297  10.062
 3614W        W 7814   5.635   4.065   9.811
 3615W        W 7815   4.637   1.611   2.921
 3616W        W 7816   8.070   8.126   0.996
 3617W        W 7817   1.931  10.327   0.211
 3618W        W 7818   1.315   2.710   9.330
 3619W        W 7819   6.491   2.632   2.341
 3620W        W 7820   4.127   7.552   9.639
 3621W        W 7821   2.302   5.556  10.434
 3622W        W 7822   9.554   8.272  10.741
 3623W        W 7823   1.898   6.979   9.267
 3624W        W 7824   9.964   0.863   0.567
 3625W        W 7825   6.150   8.569   2.255
 3626W        W 7826  11.323   1.104   0.514
 3627W        W 7827   7.485   7.671   0.247
 3628W        W 7828  11.065   6.162   0.868
 3629W        W 7829   2.138   8.977   0.516
 3630W        W 7830   8.393   6.882   2.303
 3631W        W 7831   3.242   4.705   2.098
 3632W        W 7832  10.957   1.375   1.442
 3633W        W 7833   4.668   1.905   0.918
 3634W        W 7834   5.646   0.638   1.780
 3635W        W 7835   3.196   7.586   3.022
 3636W        W 7836   1.069   7.625  11.329
 3637W        W 7837  10.041   9.943   3.239
 3638W        W 7838   5.757   2.222   2.353
 3639W        W 7839   9.037  10.822   1.529
 3640W        W 7840   6.546   8.180   2.911
 3641W        W 7841   1.826  10.403  10.738
 3642W        W 7842   9.953   8.750   0.085
 3643W        W 7843   1.735   4.247   9.919
 3644W        W 7844   4.248   8.464   0.938
 3645W        W 7845   9.858   5.640  11.346
 3646W        W 7846   0.184   1.720   0.055
 3647W        W 7847   3.658  10.477   9.482
 3648W        W 7848   8.513  10.864   0.439
 3649W        W 7849   5.016   3.885   9.198
 3650W        W 7850   8.016   0.036   2.431
 3651W        W 7851   5.460   7.455   0.375
 3652W        W 7852  10.504   0.873  10.968
 3653W        W 7853   8.213   1.896   0.062
 3654W        W 7854   0.678   0.069  11.052
 3655W        W 7855   8.093  10.326   3.463
 3656W        W 7856   8.547   6.624   3.130
 3657W        W 7857  10.968   8.570  10.892
 3658W        W 7858   1.321   0.235   2.897
 3659W        W 7859   5.051   5.239  10.434
 3660W        W 7860   8.535   4.638  11.082
 3661W        W 7861   2.335   5.215   2.668
 3662W        W 7862   9.429   2.335   9.100
 3663W        W 7863   4.062   1.235   9.039
 3664W        W 7864   2.615   6.559   2.274
 3665W        W 7865   7.296   7.976  10.948
 3666W        W 7866   5.099   3.882   2.765
 3667W        W 7867   4.472   9.877   1.823
 3668W        W 7868   8.374  11.442   9.264
 3669W        W 7869   8.447   0.296   8.913
 3670W        W 7870   0.840   2.319   1.472
 3671W        W 7871   2.907  10.553   9.936
 3672W        W 7872   5.115   3.269   0.454
 3673W        W 7873   9.645   3.483   9.435
 3674W        W 7874  10.051   7.178   2.822
 3675W        W 7875  10.604   2.665  11.838
 3676W        W 7876   5.069   3.076   3.194
 3677W        W 7877   6.326   6.592  10.842
 3678W        W 7878   0.375  10.829   0.869
 3679W        W 7879  11.384   3.084   0.073
 3680W        W 7880   1.266   0.365   9.099
 3681W        W 7881  11.227   2.343   1.804
 3682W        W 7882   3.779   5.216   2.068
 3683W        W 7883   2.379   3.114   1.753
 3684W        W 7884   4.310   9.245  10.941
 3685W        W 7885   6.019   5.313  10.867
 3686W        W 7886   5.669   1.361   3.584
 3687W        W 7887   3.286   8.673  10.835
 3688W        W 7888   8.727   5.148   1.954
 3689W        W 7889   6.281   3.992  10.608
 3690W        W 7890   2.311  10.331   1.309
 3691W        W 7891   4.902   4.104   3.165
 3692W        W 7892   8.143  10.755   0.075
 3693W        W 7893   7.297   2.133  10.908
 3694W        W 7894   2.841  11.049   9.941
 3695W        W 7895   6.532   5.673   2.008
 3696W        W 7896   7.087   7.568  11.327
 3697W        W 7897   4.373   6.029   1.536
 3698W        W 7898   9.740   0.123   3.354
 3699W        W 7899   4.173   9.029   1.726
 3700W        W 7900   9.500   4.522   2.775
 3701W        W 7901   3.383   2.261  11.015
 3702W        W 7902   6.136   5.608   9.867
 3703W        W 7903   2.371   7.958  11.513
 3704W        W 7904   2.283   5.682  11.962
 3705W        W 7905   0.359   6.586   9.174
 3706W        W 7906   9.993   1.034  11.014
 3707W        W 7907   0.455  11.365   1.750
 3708W        W 7908  11.366   2.712  10.358
 3709W        W 7909   7.995   6.668   3.754
 3710W        W 7910   2.669   6.646  10.818
 3711W        W 7911   3.149   5.891   2.017
 3712W        W 7912   5.726   6.656   1.670
 3713W        W 7913  11.365   9.085   2.876
 3714W        W 7914   1.106   2.954  11.771
 3715W        W 7915  11.043   7.948   9.341
 3716W        W 7916   5.686   9.437   1.725
 3717W        W 7917   3.835   2.461  11.237
 3718W        W 7918   9.574   5.210   0.728
 3719W        W 7919   8.530   7.438   1.370
 3720W        W 7920   9.516   3.267  11.565
 3721W        W 7921   2.297   3.579  10.521
 3722W        W 7922   9.669   9.648   3.464
 3723W        W 7923   8.580  11.311  10.926
 3724W        W 7924   7.112   2.669  10.319
 3725W        W 7925   3.133   6.182   2.873
 3726W        W 7926   1.129   0.889   0.419
 3727W        W 7927   8.540   5.658   1.849
 3728W        W 7928  10.071   6.138   2.599
 3729W        W 7929   4.162   7.739  10.973
 3730W        W 7930  10.411  11.492   0.927
 3731W        W 7931   0.113   2.651   8.508
 3732W        W 7932   6.122   2.781  11.306
 3733W        W 7933   4.253   0.053   0.440
 3734W        W 7934   6.263   6.905   1.233
 3735W        W 7935   6.068   4.817   1.783
 3736W        W 7936   7.769   5.567   1.119
 3737W        W 7937   7.285   9.386   0.989
 3738W        W 7938   5.158   9.190   0.735
 3739W        W 7939   1.874  10.035   1.839
 3740W        W 7940   5.288   4.636  10.273
 3741W        W 7941   4.302   3.805   0.227
 3742W        W 7942   3.093   2.582   9.438
 3743W        W 7943   6.917   4.707   9.847
 3744W        W 7944   5.033   9.671   0.724
 3745W        W 7945   5.166   0.880   3.001
 3746W        W 7946   9.389   3.561   2.912
 3747W        W 7947   0.284   6.341  10.669
 3748W        W 7948   0.802  11.290   1.383
 3749W        W 7949   3.261   4.236  11.049
 3750W        W 7950   4.050   0.310  10.172
 3751W        W 7951   0.472   5.761   1.559
 3752W        W 7952  10.839   3.236   0.017
 3753W        W 7953   8.142   8.179   2.760
 3754W        W 7954   6.235   8.312  11.846
 3755W        W 7955   9.086   6.511   9.369
 3756W        W 7956   2.160   3.878   2.652
 3757W        W 7957   3.553  10.841   1.203
 3758W        W 7958   9.625   1.880   9.835
 3759W        W 7959   8.299   4.314   2.437
 3760W        W 7960   9.488  10.770   1.850
 3761W        W 7961   9.535   8.555  11.788
 3762W        W 7962   3.305   1.941   0.288
 3763W        W 7963   3.910   9.109   2.488
 3764W        W 7964   9.275   1.381   3.064
 3765W        W 7965   6.109   0.313  10.254
 3766W        W 7966   7.615   4.612  10.963
 3767W        W 7967  10.839  11.051   0.828
 3768W        W 7968   6.061   8.130   0.716
 3769W        W 7969   6.668   4.666  11.210
 3770W        W 7970   2.210   4.243  10.091
 3771W        W 7971   8.513   3.624   9.964
 3772W        W 7972   0.744   9.788   1.165
 3773W        W 7973   3.029   0.429   2.391
 3774W        W 7974   8.422   3.605  10.539
 3775W        W 7975   2.908   5.160   2.083
 3776W        W 7976   6.098   4.120   9.125
 3777W        W 7977   9.399   5.487   3.461
 3778W        W 7978   2.583   5.657   3.122
 3779W        W 7979   6.919  10.683   8.601
 3780W        W 7980   4.193   5.636  10.242
 3781W        W 7981   6.675   3.144   2.330
 3782W        W 7982   0.799  11.241   9.489
 3783W        W 7983   0.286   7.496   8.786
 3784W        W 7984   8.028   1.900   2.437
 3785W        W 7985   9.776   7.905   0.475
 3786W        W 7986   9.837   6.026   9.377
 3787W        W 7987   3.355   3.322  11.564
 3788W        W 7988   5.638   0.907   2.731
 3789W        W 7989  10.970   9.981   3.106
 3790W        W 7990   2.155   8.193   8.720
 3791W        W 7991   8.588  10.079   9.365
 3792W        W 7992   1.829   5.970   9.095
 3793W        W 7993  11.265   7.488   2.141
 3794W        W 7994  10.054   5.336   1.499
 3795W        W 7995   7.948   8.175   9.707
 3796W        W 7996   8.036   1.926   8.962
 3797W        W 7997   9.833   0.901   2.547
 3798W        W 7998   5.694   9.895   0.430
 3799W        W 7999  10.786   2.727  11.271
 3800W        W 8000   9.787   1.532  11.788
 3801W        W 8001   8.998   2.975  11.091
 3802W        W 8002   3.414   5.677   0.573
 3803W        W 8003   0.680   1.197   9.062
 3804W        W 8004   2.561   2.231  10.440
 3805W        W 8005   1.849   3.589   1.313
 3806W        W 8006   3.649   7.849   9.564
 3807W        W 8007   7.890   7.401  10.833
 3808W        W 8008   5.212   3.481  10.534
 3809W        W 8009   4.711  10.033  10.537
 3810W        W 8010   7.950   3.809   9.066
 3811W        W 8011   3.630   8.579   1.211
 3812W        W 8012   6.658   7.465   2.322
 3813W        W 8013   7.597   7.546  11.238
 3814W        W 8014   3.141  10.457  10.365
 3815W        W 8015   0.636   2.794   1.224
 3816W        W 8016   9.798   2.360  10.368
 3817W        W 8017   8.484   9.381  11.135
 3818W        W 8018   8.516  10.560   9.506
 3819W        W 8019   4.465  11.340  10.122
 3820W        W 8020  11.211   9.144  11.536
 3821W        W 8021   1.627   9.395   3.493
 3822W        W 8022   8.104   5.438   8.213
 3823W        W 8023   2.014   8.883   9.539
 3824W        W 8024   8.741   5.334   3.371
 3825W        W 8025   8.439   8.198   1.798
 3826W        W 8026  10.943   1.279   9.641
 3827W        W 8027   9.104   8.100   2.433
 3828W        W 8028   3.950   9.965   1.773
 3829W        W 8029   8.195   5.501   9.459
 3830W        W 8030  10.688   2.318   1.871
 3831W        W 8031   7.391   4.466   1.229
 3832W        W 8032   9.470   6.966  10.841
 3833W        W 8033   0.459   6.848   2.556
 3834W        W 8034  10.379   6.551   0.477
 3835W        W 8035   1.774   4.104  11.822
 3836W        W 8036   4.667   4.097  10.888
 3837W        W 8037   0.562   5.000   3.671
 3838W        W 8038   1.807  10.247   1.395
 3839W        W 8039   7.227  11.435   0.339
 3840W        W 8040   6.292   6.987  10.043
 3841W        W 8041   9.996   9.779   8.768
 3842W        W 8042   2.447  10.501   1.774
 3843W        W 8043   8.918   2.971   0.184
 3844W        W 8044   9.465   0.426   9.321
 3845W        W 8045  10.277   1.290   1.996
 3846W        W 8046   0.798   3.497  10.823
 3847W        W 8047   6.938   1.531   2.603
 3848W        W 8048   8.438  10.513  11.564
 3849W        W 8049  10.996  10.321  10.864
 3850W        W 8050   9.495   1.914  11.946
 3851W        W 8051   3.505   3.336   2.350
 3852W        W 8052  10.002   0.368   0.361
 3853W        W 8053   3.816   8.974  11.967
 3854W        W 8054   8.971  10.364   1.346
 3855W        W 8055   3.767   0.245   0.287
 3856W        W 8056   2.300   1.417  10.034
 3857W        W 8057   9.416   3.626  10.329
 3858W        W 8058   6.984   9.478   9.562
 3859W        W 8059   8.580   5.109   4.139
 3860W        W 8060  10.128   0.813   1.479
 3861W        W 8061   1.418   1.473   2.699
 3862W        W 8062   0.792   9.381   1.494
 3863W        W 8063   7.304  10.935   0.705
 3864W        W 8064   6.472   2.311   2.749
 3865W        W 8065   9.584   1.826   3.012
 3866W        W 8066   4.990   3.370   1.928
 3867W        W 8067   2.448   1.342  11.633
 3868W        W 8068   7.178   3.472   2.213
 3869W        W 8069   8.512  10.950   9.170
 3870W        W 8070  10.431  10.956  10.582
 3871W        W 8071   9.821   3.569   1.825
 3872W        W 8072  11.417   6.691   8.901
 3873W        W 8073   0.325   9.624   3.599
 3874W        W 8074   3.565   5.416   1.363
 3875W        W 8075   6.002   1.853   9.354
 3876W        W 8076   4.703   4.311   0.927
 3877W        W 8077   6.035   1.751   0.509
 3878W        W 8078   3.135   3.470   9.151
 3879W        W 8079   6.106   7.455  10.774
 3880W        W 8080   4.489   8.899  10.573
 3881W        W 8081  10.952   9.389   0.503
 3882W        W 8082   5.119   4.675   0.701
 3883W        W 8083   4.476   8.709   8.999
 3884W        W 8084   5.774   1.875   3.161
 3885W        W 8085  10.317  10.135  11.446
 3886W        W 8086   5.742   4.378   9.410
 3887W        W 8087   9.504   7.395   8.990
 3888W        W 8088   4.769   0.691  10.773
 3889W        W 8089   4.288   4.234   9.548
 3890W        W 8090   7.223   1.828   2.954
 3891W        W 8091   1.319  10.441  11.503
 3892W        W 8092   4.465   1.259   1.282
 3893W        W 8093   4.806   3.631   9.589
 3894W        W 8094   3.364   7.138   3.267
 3895W        W 8095   9.044  10.735  11.724
 3896W        W 8096  11.238   5.769  11.337
 3897W        W 8097   4.795  10.647   0.865
 3898W        W 8098  11.320   0.150   0.198
 3899W        W 8099   4.192   9.862   9.742
 3900W        W 8100   3.569   7.998   2.630
 3901W        W 8101   3.142   9.900  11.987
 3902W        W 8102   2.686   9.075   9.932
 3903W        W 8103   9.441   9.292  10.750
 3904W        W 8104   5.531   4.704   0.171
 3905W        W 8105   8.465   0.502  11.965
 3906W        W 8106  10.861  11.273  11.357
 3907W        W 8107   8.863   5.863  11.460
 3908W        W 8108   9.547   3.623  10.852
 3909W        W 8109   6.338   5.210   2.759
 3910W        W 8110   5.221  10.131   9.447
 3911W        W 8111   0.475   3.299   0.882
 3912W        W 8112  11.411   1.362   3.127
 3913W        W 8113   8.367   1.262  10.544
 3914W        W 8114   4.915  10.852  11.779
 3915W        W 8115   1.767   0.188   9.138
 3916W        W 8116   4.623   8.426  10.726
 3917W        W 8117   5.598  11.273  10.800
 3918W        W 8118   8.544   1.751   2.555
 3919W        W 8119   6.385   7.297   0.957
 3920W        W 8120   0.232   9.006   8.775
 3921W        W 8121  10.509   2.251   2.348
 3922W        W 8122   4.220   9.464   1.987
 3923W        W 8123  10.375   8.513   2.685
 3924W        W 8124  11.314   3.821   9.942
 3925W        W 8125   7.154   0.335  11.590
 3926W        W 8126   2.240   5.747   1.957
 3927W        W 8127   0.459   3.651   1.927
 3928W        W 8128   8.048   2.216   1.248
 3929W        W 8129   7.221   7.838   9.946
 3930W        W 8130   2.737   7.934   2.309
 3931W        W 8131   7.411   5.232   2.237
 3932W        W 8132   8.423   6.433   3.586
 3933W        W 8133   7.636   5.078   2.691
 3934W        W 8134   9.668  10.259   2.045
 3935W        W 8135   5.983   7.831   1.836
 3936W        W 8136  10.467   0.003  10.778
 3937W        W 8137   5.650   1.723  11.186
 3938W        W 8138   7.214   5.198   1.580
 3939W        W 8139   8.577   1.838  11.743
 3940W        W 8140   3.276   2.708   1.837
 3941W        W 8141   0.507   4.340  10.318
 3942W        W 8142   1.225  11.023   1.541
 3943W        W 8143   3.892   4.102   0.351
 3944W        W 8144   9.465   4.771   8.327
 3945W        W 8145   9.035   4.755  11.033
 3946W        W 8146   7.665   1.020   2.498
 3947W        W 8147   4.569  10.875   8.551
 3948W        W 8148   7.199   8.416   0.913
 3949W        W 8149   7.583   8.345   3.219
 3950W        W 8150   5.427   7.742   3.078
 3951W        W 8151   6.285  11.353  11.409
 3952W        W 8152   3.798   2.789   1.690
 3953W        W 8153   7.532   3.109  11.850
 3954W        W 8154   3.255   1.833   1.399
 3955W        W 8155   7.950   3.155   1.658
 3956W        W 8156   1.969   9.476  10.450
 3957W        W 8157   1.016   5.572  10.948
 3958W        W 8158   9.334   2.854   2.072
 3959W        W 8159   2.697   7.593   3.178
 3960W        W 8160   8.456   4.293  11.994
 3961W        W 8161   7.199   7.344   1.619
 3962W        W 8162   7.153   4.570   3.639
 3963W        W 8163   6.661   3.088   1.806
 3964W        W 8164   4.176   3.848   2.862
 3965W        W 8165   4.259   8.859  10.088
 3966W        W 8166   7.867   4.457  11.731
 3967W        W 8167   2.196   7.442  10.877
 3968W        W 8168   9.528   4.600  11.934
 3969W        W 8169   2.097   6.148   2.871
 3970W        W 8170   1.369   8.739  10.593
 3971W        W 8171   8.327   5.081   9.160
 3972W        W 8172   4.808  10.408   1.322
 3973W        W 8173   6.063   3.208   9.890
 3974W        W 8174   9.038   5.570   1.627
 3975W        W 8175   8.476   7.135   1.856
 3976W        W 8176   9.075   4.684   0.341
 3977W        W 8177   5.850   2.657  10.462
 3978W        W 8178   2.097   5.647   2.965
 3979W        W 8179   1.780   8.821  11.817
 3980W        W 8180  11.439   9.021   0.456
 3981W        W 8181   0.729   7.703   2.945
 3982W        W 8182   5.141   9.955   9.925
 3983W        W 8183   8.626   9.300  10.123
 3984W        W 8184   4.797   0.744   9.007
 3985W        W 8185   7.698   2.186   9.253
 3986W        W 8186   4.839   0.820   0.625
 3987W        W 8187   7.646  11.199  11.064
 3988W        W 8188   2.363   3.813   2.190
 3989W        W 8189   8.111   7.186   1.189
 3990W        W 8190   6.732   4.994   0.552
 3991W        W 8191   6.645  10.922   2.748
 3992W        W 8192   1.305   3.767   2.479
 3993W        W 8193   0.732   5.735   0.665
 3994W        W 8194   4.696   1.752   8.925
 3995W        W 8195   8.968   9.552   2.705
 3996W        W 8196   2.028   0.489  10.536
 3997W        W 8197   6.580   1.256   9.092
 3998W        W 8198   6.125   6.944  11.980
 3999W        W 8199   8.898   7.753   0.455
 4000W        W 8200   5.283   8.039   0.039
 4001W        W 8201   2.194   0.902   1.246
 4002W        W 8202   9.479   4.621   3.309
 4003W        W 8203  10.429   0.536   9.737
 4004W        W 8204   7.407   9.276   2.366
 4005W        W 8205  11.295   1.695   1.249
 4006W        W 8206   7.615   8.462  10.983
 4007W        W 8207   1.925  10.805   2.281
 4008W        W 8208   4.359   9.498   3.108
 4009W        W 8209   4.219   2.850   2.769
 4010W        W 8210   9.622   5.985   2.348
 4011W        W 8211   7.978   3.743   9.917
 4012W        W 8212   3.333   5.417   1.926
 4013W        W 8213   4.645   4.374   2.154
 4014W        W 8214   5.914   4.056   3.071
 4015W        W 8215   7.176  10.973   2.775
 4016W        W 8216   9.322   4.622   1.354
 4017W        W 8217   2.657   7.592  10.706
 4018W        W 8218  10.722   2.190  10.606
 4019W        W 8219   1.325   2.280   0.419
 4020W        W 8220   6.095   6.416   0.952
 4021W        W 8221   3.357   1.385   3.343
 4022W        W 8222   6.601   6.976   3.986
 4023W        W 8223   5.702   8.210  10.339
 4024W        W 8224   1.318   5.186   3.342
 4025W        W 8225   2.881   9.283   8.754
 4026W        W 8226   8.252   5.657   3.343
 4027W        W 8227   0.387   2.889   3.396
 4028W        W 8228   2.926   0.728   1.696
 4029W        W 8229   5.692  10.826   8.556
 4030W        W 8230   5.938   1.312  11.295
 4031W        W 8231   6.432   6.141   1.749
 4032W        W 8232   1.276   0.821   8.857
 4033W        W 8233   9.531   4.144   0.858
 4034W        W 8234   3.874   6.888   2.422
 4035W        W 8235   4.312   8.518   9.461
 4036W        W 8236   4.606   8.040   0.493
 4037W        W 8237   3.018   5.108   0.041
 4038W        W 8238   9.378   1.409   9.070
 4039W        W 8239   6.892  10.594   0.517
 4040W        W 8240   5.692   1.158   1.675
 4041W        W 8241  11.321   6.632   1.787
 4042W        W 8242   3.986  10.479   3.444
 4043W        W 8243   3.725   0.262  11.785
 4044W        W 8244   4.044   8.501   0.001
 4045W        W 8245   2.493   0.562   9.661
 4046W        W 8246   2.738  11.402   9.029
 4047W        W 8247   1.790   3.622  11.205
 4048W        W 8248   3.653   6.428   8.577
 4049W        W 8249   1.192   1.904   1.513
 4050W        W 8250  11.303   7.483  10.057
 4051W        W 8251   6.742   7.869   8.262
 4052W        W 8252   0.426  11.248  10.727
 4053W        W 8253   8.771   7.585  11.971
 4054W        W 8254   5.512   3.031  10.685
 4055W        W 8255   6.641   1.869  10.876
 4056W        W 8256  11.277   5.144   9.251
 4057W        W 8257   8.090   9.316  11.934
 4058W        W 8258   7.453   0.525   9.489
 4059W        W 8259   3.245   4.631   0.934
 4060W        W 8260   7.686   9.986   9.513
 4061W        W 8261   4.017   8.468   9.050
 4062W        W 8262   1.757  11.178   0.493
 4063W        W 8263   9.451  11.060   8.722
 4064W        W 8264   0.552   6.192   1.878
 4065W        W 8265   5.010   3.819   1.690
 4066W        W 8266   5.519   5.194  11.864
 4067W        W 8267   2.123   8.398  11.748
 4068W        W 8268   2.357   3.405   8.644
 4069W        W 8269  10.787   5.524  10.482
 4070W        W 8270   4.002   0.941   9.520
 4071W        W 8271   7.600   3.760   1.671
 4072W        W 8272   4.732   9.118  10.184
 4073W        W 8273  10.807   3.902   0.073
 4074W        W 8274   7.945  11.189  11.880
 4075W        W 8275   5.632   0.224  10.495
 4076W        W 8276   3.084   5.120   9.175
 4077W        W 8277   6.771  10.631   0.020
 4078W        W 8278   2.209   9.742  11.761
 4079W        W 8279   4.010   3.159   2.373
 4080W        W 8280   3.179   6.344   4.046
 4081W        W 8281   7.538   0.062   2.665
 4082W        W 8282   3.090   9.998  10.554
 4083W        W 8283   2.924  10.635   1.919
 4084W        W 8284   6.828   1.958   8.418
 4085W        W 8285   8.466   7.491  11.498
 4086W        W 8286   9.520   4.580   8.799
 4087W        W 8287   6.317   8.056  11.391
 4088W        W 8288   1.036   6.282   1.922
 4089W        W 8289  11.009   1.827  11.415
 4090W        W 8290   2.645   7.503   9.385
 4091W        W 8291   8.315   7.763  11.955
 4092W        W 8292   9.534   4.899   0.335
 4093W        W 8293   0.045   2.886  10.808
 4094W        W 8294   6.724  10.284  10.584
 4095W        W 8295   3.764   3.882   8.567
 4096W        W 8296   5.758   8.847   9.462
 4097W        W 8297   3.529   5.358   3.251
 4098W        W 8298   6.639   6.810  11.200
 4099W        W 8299   0.562   9.501   0.762
 4100W        W 8300   3.650   1.728   3.100
 4101W        W 8301   0.552   3.830   0.001
 4102W        W 8302   9.766   1.927  10.856
 4103W        W 8303   5.679   2.174   0.087
 4104W        W 8304   6.501   6.673   2.851
 4105W        W 8305   2.321   4.806  11.857
 4106W        W 8306   0.785   8.499   1.769
 4107W        W 8307  11.064  10.577  11.815
 4108W        W 8308   5.012   4.746   9.848
 4109W        W 8309   3.006   0.781   8.582
 4110W        W 8310   4.490   4.833   9.818
 4111W        W 8311   0.562   7.508   3.731
 4112W        W 8312  10.875   9.527   0.974
 4113W        W 8313   9.824   9.494  11.014
 4114W        W 8314   4.014   0.036   3.202
 4115W        W 8315   9.605   5.970  10.477
 4116W        W 8316   1.935   0.806   1.739
 4117W        W 8317  11.227   2.738   2.429
 4118W        W 8318   3.182   6.668   3.113
 4119W        W 8319   9.942   7.668  10.121
 4120W        W 8320   6.866  11.195   8.611
 4121W        W 8321   2.193   1.357   0.987
 4122W        W 8322   5.277   0.967   1.383
 4123W        W 8323   0.371  10.568   1.423
 4124W        W 8324   8.448   6.201   8.645
 4125W        W 8325  10.856  10.317   8.963
 4126W        W 8326   1.723   8.510   9.318
 4127W        W 8327  10.835   7.882   0.463
 4128W        W 8328   0.064   6.212   1.964
 4129W        W 8329  11.436   7.617   9.578
 4130W        W 8330  10.010   8.487  11.226
 4131W        W 8331  11.351   4.110  11.237
 4132W        W 8332   0.011  10.054   2.895
 4133W        W 8333   6.040   3.758  10.983
 4134W        W 8334   9.795   4.097  10.931
 4135W        W 8335  10.965   6.824  10.619
 4136W        W 8336   2.424  10.513   9.195
 4137W        W 8337   4.335   4.311   0.145
 4138W        W 8338   2.782   0.748  10.984
 4139W        W 8339   6.558   1.266   2.873
 4140W        W 8340   9.429   4.093   8.574
 4141W        W 8341   6.743   2.742   3.169
 4142W        W 8342   6.575  11.050   9.838
 4143W        W 8343   8.797  11.028   0.830
 4144W        W 8344   0.169   2.672  11.504
 4145W        W 8345   6.809   0.831   0.263
 4146W        W 8346   0.313   4.372  11.266
 4147W        W 8347   1.065   4.951   1.808
 4148W        W 8348   6.713  10.345  11.601
 4149W        W 8349   4.020   4.604   0.396
 4150W        W 8350   0.957   3.334   8.862
 4151W        W 8351   0.870  10.856   0.709
 4152W        W 8352   8.210   6.661   1.838
 4153W        W 8353   1.779   9.875   1.039
 4154W        W 8354   7.719   9.583   0.788
 4155W        W 8355  10.092   1.755   0.624
 4156W        W 8356   7.580   3.993   1.169
 4157W        W 8357   9.515   6.209   0.036
 4158W        W 8358   2.821  10.839   9.122
 4159W        W 8359   1.655   4.314  11.304
 4160W        W 8360   7.024   3.227   3.297
 4161W        W 8361   3.646   6.094   2.849
 4162W        W 8362   9.448  11.228   3.223
 4163W        W 8363  10.691   7.119   9.483
 4164W        W 8364   8.152  10.980  10.917
 4165W        W 8365   5.628   7.665   3.561
 4166W        W 8366   2.987   6.498   3.586
 4167W        W 8367  10.513   6.147   0.174
 4168W        W 8368   2.674   3.444   2.008
 4169W        W 8369   6.574   1.817  11.401
 4170W        W 8370  11.290   8.931  10.604
 4171W        W 8371   8.774   6.975   9.027
 4172W        W 8372  10.673  10.356   2.146
 4173W        W 8373  10.005   8.980   3.233
 4174W        W 8374   2.793   6.129  10.843
 4175W        W 8375   9.839   1.072  11.594
 4176W        W 8376   9.616  10.565   8.562
 4177W        W 8377   9.131  10.371   0.871
 4178W        W 8378  10.426   2.173   1.441
 4179W        W 8379   3.519   1.504  11.224
 4180W        W 8380   5.616   1.370   2.497
 4181W        W 8381   4.057   0.681   2.448
 4182W        W 8382  10.825   4.171   8.579
 4183W        W 8383   7.645  10.710  11.909
 4184W        W 8384   7.715   9.025   0.093
 4185W        W 8385  10.690  10.139   8.525
 4186W        W 8386   6.056   4.287  10.970
 4187W        W 8387   8.962   2.773   3.344
 4188W        W 8388   9.891   8.547   2.457
 4189W        W 8389   3.137   3.723  10.863
 4190W        W 8390   2.388   4.666   8.314
 4191W        W 8391   1.924   7.058  11.135
 4192W        W 8392   2.060   1.265   2.319
 4193W        W 8393   2.768   0.477  11.402
 4194W        W 8394   9.940  11.079   1.809
 4195W        W 8395   1.804  10.259  10.211
 4196W        W 8396   9.616   8.580   1.462
 4197W        W 8397  10.709  10.291   9.998
 4198W        W 8398   9.501   6.986   3.265
 4199W        W 8399   5.564   5.264  10.448
 4200W        W 8400   5.705   7.698   8.380
 4201W        W 8401  11.392   6.759  11.398
 4202W        W 8402   9.729   8.304   0.182
 4203W        W 8403   3.770  11.487  11.349
 4204W        W 8404  10.307   8.156  10.587
 4205W        W 8405  10.795   0.934   0.777
 4206W        W 8406   0.815   7.430  10.465
 4207W        W 8407   8.138   6.561   8.428
 4208W        W 8408  10.859   5.175   0.848
 4209W        W 8409   7.589   2.590  10.970
 4210W        W 8410   4.647   7.505  10.814
 4211W        W 8411  10.353   6.438  10.501
 4212W        W 8412   6.065   0.371  10.765
 4213W        W 8413   3.977  11.284   2.687
 4214W        W 8414   2.829   4.538   2.502
 4215W        W 8415   5.010  11.202   8.834
 4216W        W 8416   1.693  11.247   1.432
 4217W        W 8417   2.887   6.065   2.434
 4218W        W 8418   9.883   1.650   2.037
 4219W        W 8419   4.701   1.258   9.114
 4220W        W 8420   4.232   2.770   0.955
 4221W        W 8421   6.621   0.300   2.510
 4222W        W 8422   7.505   0.744   8.673
 4223W        W 8423   7.924   8.271   3.620
 4224W        W 8424   9.452   0.039   2.413
 4225W        W 8425   6.746   5.671   0.999
 4226W        W 8426   9.630   3.419   0.394
 4227W        W 8427  10.844   2.671   2.789
 4228W        W 8428   2.713   9.798   2.203
 4229W        W 8429   8.021   9.401  11.403
 4230W        W 8430   8.352   9.910   3.241
 4231W        W 8431  10.009   3.121   9.257
 4232W        W 8432   4.912   0.009   2.058
 4233W        W 8433   0.016   8.075   0.866
 4234W        W 8434   8.839   6.910   0.960
 4235W        W 8435   3.687   4.484   3.559
 4236W        W 8436  10.403   2.252   9.008
 4237W        W 8437   2.861   7.766  11.190
 4238W        W 8438   3.694   8.442  10.275
 4239W        W 8439   9.118   4.171   1.218
 4240W        W 8440   1.725   5.710   1.642
 4241W        W 8441   8.266   8.395   9.339
 4242W        W 8442  10.891   1.837   0.298
 4243W        W 8443   9.507   7.887   9.886
 4244W        W 8444   7.803   6.090   1.514
 4245W        W 8445   9.717   7.198   1.446
 4246W        W 8446   1.218   4.947   0.951
 4247W        W 8447  10.821   4.976   9.047
 4248W        W 8448   5.053   7.028   2.031
 4249W        W 8449   4.051  10.923   1.336
 4250W        W 8450   4.340   9.623  10.577
 4251W        W 8451  11.127   4.226  10.804
 4252W        W 8452   9.138   0.857   0.323
 4253W        W 8453   0.954   3.126  10.469
 4254W        W 8454   6.840   6.203  11.366
 4255W        W 8455   4.286   1.138   2.581
 4256W        W 8456   8.079   1.165  11.645
 4257W        W 8457   8.369   6.096  11.459
 4258W        W 8458   0.861  10.447   0.390
 4259W        W 8459   0.362   4.671   8.465
 4260W        W 8460   3.879   8.845   8.712
 4261W        W 8461   5.390   9.873   1.691
 4262W        W 8462   0.823   8.165   0.965
 4263W        W 8463   3.451   1.301   2.024
 4264W        W 8464   9.132   1.375   0.479
 4265W        W 8465   8.437   4.312   1.955
 4266W        W 8466  10.270   9.554   9.212
 4267W        W 8467   0.983   8.489   9.792
 4268W        W 8468   7.257   2.326   2.885
 4269W        W 8469   9.481   4.402   0.421
 4270W        W 8470  10.413   6.668  11.480
 4271W        W 8471   2.918   9.022   3.300
 4272W        W 8472   6.036   4.794   2.665
 4273W        W 8473   5.356   3.133   9.350
 4274W        W 8474   0.798   0.153   9.136
 4275W        W 8475   7.238   1.935  10.386
 4276W        W 8476   1.443   7.119   9.047
 4277W        W 8477   4.221   7.434  11.403
 4278W        W 8478  10.965   5.698   2.287
 4279W        W 8479   9.162   9.794   0.086
 4280W        W 8480   7.999   4.077   0.073
 4281W        W 8481  11.055   8.051   1.670
 4282W        W 8482  10.985   5.225   2.994
 4283W        W 8483   1.352   6.611  11.869
 4284W        W 8484   7.946   4.328   9.055
 4285W        W 8485   0.270   8.509   2.500
 4286W        W 8486   0.308   1.832  11.099
 4287W        W 8487   8.886   0.939   0.763
 4288W        W 8488   6.276   2.157   2.268
 4289W        W 8489  10.225   0.996   2.873
 4290W        W 8490   0.044   3.817   9.494
 4291W        W 8491   7.923   7.796   3.800
 4292W        W 8492   9.540   9.102   2.227
 4293W        W 8493  11.243   6.984   2.192
 4294W        W 8494   7.101  10.353   1.962
 4295W        W 8495   7.107  10.132   0.544
 4296W        W 8496   0.928   7.982   1.985
 4297W        W 8497   4.250   8.458   8.598
 4298W        W 8498  10.081   8.997   2.694
 4299W        W 8499   2.417   9.119   3.245
 4300W        W 8500   0.481   0.307   3.535
 4301W        W 8501   8.249   3.222   3.571
 4302W        W 8502   4.070   7.160   1.022
 4303W        W 8503   4.700   6.073   3.535
 4304W        W 8504  10.840   8.613   2.898
 4305W        W 8505   8.170   9.518  10.003
 4306W        W 8506   3.131   6.534   2.180
 4307W        W 8507   0.287   6.523   0.016
 4308W        W 8508   1.684   1.400   0.937
 4309W        W 8509   2.764   8.485   0.993
 4310W        W 8510   7.682   5.140  10.243
 4311W        W 8511   8.160   7.694   2.638
 4312W        W 8512   4.635   0.290  11.490
 4313W        W 8513   6.547   6.214  11.915
 4314W        W 8514   7.061   1.194  10.533
 4315W        W 8515  10.938   1.114   2.707
 4316W        W 8516   0.621   4.679   9.424
 4317W        W 8517   9.482  10.942  11.537
 4318W        W 8518   9.392   9.858   1.866
 4319W        W 8519   9.041   3.619   9.872
 4320W        W 8520   9.978   4.761   2.805
 4321W        W 8521   3.882   5.977   9.509
 4322W        W 8522   8.966   8.992   8.907
 4323W        W 8523   6.809   2.227   3.104
 4324W        W 8524   7.707   6.189   0.464
 4325W        W 8525   4.563   3.439  11.929
 4326W        W 8526   6.466   3.192   3.215
 4327W        W 8527   4.504   2.042   3.567
 4328W        W 8528   7.543   1.893   1.402
 4329W        W 8529   9.837   3.593   2.652
 4330W        W 8530  11.150   9.459   1.935
 4331W        W 8531   9.139   8.558   9.885
 4332W        W 8532   4.509  10.292   0.206
 4333W        W 8533   2.782   4.259   7.755
 4334W        W 8534   2.735  10.635  11.658
 4335W        W 8535  10.450   5.962  10.730
 4336W        W 8536   6.049   3.712   3.618
 4337W        W 8537   6.232   3.672   9.394
 4338W        W 8538   1.183   7.025  10.517
 4339W        W 8539   6.161   0.919  11.558
 4340W        W 8540   7.194  10.518  11.731
 4341W        W 8541   4.695   2.462   1.112
 4342W        W 8542   3.166  11.289  11.107
 4343W        W 8543  10.212   4.138   8.521
 4344W        W 8544   8.427  10.025  11.799
 4345W        W 8545   9.149   3.144  10.231
 4346W        W 8546   6.461   9.780   3.382
 4347W        W 8547   6.252  10.278   3.418
 4348W        W 8548   1.284   5.332   2.847
 4349W        W 8549   9.358   4.744  11.470
 4350W        W 8550   1.756   2.561   0.477
 4351W        W 8551   8.914   4.273  10.888
 4352W        W 8552   2.768   0.296   1.966
 4353W        W 8553   0.675   8.681   2.246
 4354W        W 8554   4.453   0.828   0.280
 4355W        W 8555  10.376   7.929  10.150
 4356W        W 8556   6.975  11.298  10.015
 4357W        W 8557   6.700   0.167  11.466
 4358W        W 8558  10.011   8.391  11.725
 4359W        W 8559   4.065   8.830   0.390
 4360W        W 8560  10.913   6.553   1.185
 4361W        W 8561   8.885   0.530   8.430
 4362W        W 8562   5.040   3.228   9.748
 4363W        W 8563   1.153  10.536   9.107
 4364W        W 8564   3.874  10.348   0.892
 4365W        W 8565   2.987   3.166  11.893
 4366W        W 8566   5.881   6.612   8.862
 4367W        W 8567   8.746   6.865   8.152
 4368W        W 8568   9.838   1.379   9.296
 4369W        W 8569  11.301  10.326   3.316
 4370W        W 8570   2.391   1.993  11.946
 4371W        W 8571   6.133  10.038   9.437
 4372W        W 8572  10.269   2.641   1.290
 4373W        W 8573   5.188   2.592   3.124
 4374W        W 8574   7.569   3.403  11.430
 4375W        W 8575   4.061   7.043  10.410
 4376W        W 8576   4.532   6.642  11.947
 4377W        W 8577   3.784   2.226   2.422
 4378W        W 8578   3.191   1.015   3.017
 4379W        W 8579   6.201   9.050  11.551
 4380W        W 8580   0.756   0.980   3.209
 4381W        W 8581   8.301   6.050   9.105
 4382W        W 8582   2.797  10.515   2.746
 4383W        W 8583   8.119   3.307   9.115
 4384W        W 8584  11.271   9.576   2.930
 4385W        W 8585  11.365   8.464   1.149
 4386W        W 8586   4.423   0.078   1.930
 4387W        W 8587   8.113   7.407   3.062
 4388W        W 8588  11.435   3.255   2.631
 4389W        W 8589   4.795   2.586  10.970
 4390W        W 8590  10.335   7.647   3.231
 4391W        W 8591   9.399   2.680  10.385
 4392W        W 8592  10.960   7.123   1.780
 4393W        W 8593   9.329   8.811   1.829
 4394W        W 8594   0.880   4.123   3.182
 4395W        W 8595   6.061   2.272  11.129
 4396W        W 8596   7.835  10.814   1.053
 4397W        W 8597   7.210  11.358  11.398
 4398W        W 8598   3.086   4.067  10.109
 4399W        W 8599   7.531   7.085  10.997
 4400W        W 8600   9.860   0.046   1.637
 4401W        W 8601  11.426   5.036  11.613
 4402W        W 8602   9.554   6.171   3.874
 4403W        W 8603   3.696   6.773  11.917
 4404W        W 8604  10.916  10.805   2.178
 4405W        W 8605   9.956   6.696   9.824
 4406W        W 8606   4.683   9.421   1.722
 4407W        W 8607   0.567   6.030  10.325
 4408W        W 8608   4.584   2.538   0.274
 4409W        W 8609   4.967   0.351   3.361
 4410W        W 8610   7.743   4.550   9.494
 4411W        W 8611   3.142   1.294   1.036
 4412W        W 8612   8.470   2.220   8.944
 4413W        W 8613   0.802   2.841   0.163
 4414W        W 8614   4.340   9.072   2.801
 4415W        W 8615   7.992   2.852   3.317
 4416W        W 8616   0.331   3.125   1.939
 4417W        W 8617   3.468   6.706   3.553
 4418W        W 8618   0.156   2.579   9.533
 4419W        W 8619   8.919   2.473   8.996
 4420W        W 8620   9.220   8.328   1.830
 4421W        W 8621   9.854   9.939  10.733
 4422W        W 8622  10.351   8.997  10.430
 4423W        W 8623   6.425   7.990   3.751
 4424W        W 8624   5.602   3.359   0.621
 4425W        W 8625   9.947   4.408   3.177
 4426W        W 8626  11.024   3.587   2.244
 4427W        W 8627  10.875   1.954   9.624
 4428W        W 8628   3.471   7.680   1.294
 4429W        W 8629   3.251   1.971  11.742
 4430W        W 8630   8.993   6.111  11.889
 4431W        W 8631   0.734   1.227   1.914
 4432W        W 8632   3.799   9.490   1.701
 4433W        W 8633   5.753   1.384   2.990
 4434W        W 8634  10.732   2.715   2.247
 4435W        W 8635   8.740   9.111   2.905
 4436W        W 8636   1.174   1.560   8.465
 4437W        W 8637  10.294  10.968   9.074
 4438W        W 8638   6.641   0.016   3.417
 4439W        W 8639   1.443   4.840   9.172
 4440W        W 8640   4.592  11.397   8.586
 4441W        W 8641   9.792   3.619   0.852
 4442W        W 8642   2.781   2.476   1.794
 4443W        W 8643   6.851   6.238   9.220
 4444W        W 8644   2.343   8.415  11.263
 4445W        W 8645   3.190   0.058   0.901
 4446W        W 8646   3.062   3.734  11.733
 4447W        W 8647   7.592   0.317   2.225
 4448W        W 8648   0.215   2.858   2.427
 4449W        W 8649   5.156   8.188   2.441
 4450W        W 8650  11.334   0.481   9.081
 4451W        W 8651   1.329   1.818   2.221
 4452W        W 8652   1.203   3.210   9.302
 4453W        W 8653   9.990   4.327   0.403
 4454W        W 8654   9.448   1.574   1.777
 4455W        W 8655   2.636   8.341   0.500
 4456W        W 8656   9.811  10.559   9.961
 4457W        W 8657   1.306   3.310   0.709
 4458W        W 8658   1.636   1.454   3.498
 4459W        W 8659   1.954   9.865   9.310
 4460W        W 8660   2.368   5.827  10.901
 4461W        W 8661   1.077   5.021   9.553
 4462W        W 8662   7.576   3.165   9.160
 4463W        W 8663   0.068   5.951  10.385
 4464W        W 8664   9.261   4.590  10.589
 4465W        W 8665   3.117   0.617   3.298
 4466W        W 8666   9.259   1.191  10.992
 4467W        W 8667  10.397   6.765   2.399
 4468W        W 8668   9.012   1.191   1.306
 4469W        W 8669   4.754   1.715  11.197
 4470W        W 8670   9.392   6.368  10.114
 4471W        W 8671   1.875   3.728   3.318
 4472W        W 8672   9.504   5.020   9.536
 4473W        W 8673  10.909   4.375  11.321
 4474W        W 8674   6.107   9.226   1.508
 4475W        W 8675   4.458   7.807   9.346
 4476W        W 8676   7.017   8.924   9.013
 4477W        W 8677   8.209   0.848  10.269
 4478W        W 8678   8.611   6.683   8.626
 4479W        W 8679   2.914   9.336   2.158
 4480W        W 8680   6.030   6.818   2.655
 4481W        W 8681   3.428   6.213   9.701
 4482W        W 8682   6.755   9.332   0.113
 4483W        W 8683   7.065   3.227  11.614
 4484W        W 8684   1.516   6.089  11.737
 4485W        W 8685   1.206   8.354   3.344
 4486W        W 8686   8.909   6.607   0.012
 4487W        W 8687   3.165   6.130   8.768
 4488W        W 8688   8.039   2.817  10.798
 4489W        W 8689  11.373  10.834   9.167
 4490W        W 8690   1.298   2.225   9.533
 4491W        W 8691   2.602   6.846   3.625
 4492W        W 8692   2.281   3.346   9.142
 4493W        W 8693   0.958   1.693   1.897
 4494W        W 8694   4.067   5.085  11.533
 4495W        W 8695   3.775   0.815  10.006
 4496W        W 8696  10.947   3.979   9.633
 4497W        W 8697   5.690   0.143   9.975
 4498W        W 8698   8.630   1.774   9.861
 4499W        W 8699   7.465   1.851   1.951
 4500W        W 8700  10.785   4.306   3.286
 4501W        W 8701   0.960   2.825   8.957
 4502W        W 8702   4.778   8.034   1.493
 4503W        W 8703   9.083   1.230   2.148
 4504W        W 8704   9.971   5.090  10.793
 4505W        W 8705   5.908   4.115   1.308
 4506W        W 8706   2.163   8.452   0.280
 4507W        W 8707   8.800   3.079   9.809
 4508W        W 8708  10.836   1.829   2.267
 4509W        W 8709   4.284   4.693  10.264
 4510W        W 8710   5.530   5.465  10.927
 4511W        W 8711   1.742   4.234   3.272
 4512W        W 8712   0.454   2.668  11.032
 4513W        W 8713   4.358   0.892   0.847
 4514W        W 8714   4.505  10.562  11.801
 4515W        W 8715  10.430   0.030  11.292
 4516W        W 8716   4.896   6.178   1.519
 4517W        W 8717   8.886   0.681   1.222
 4518W        W 8718  10.803   0.792  11.381
 4519W        W 8719   8.116   2.459   2.380
 4520W        W 8720   7.631  10.871   3.036
 4521W        W 8721   5.677   7.620  10.973
 4522W        W 8722   8.415   2.825   2.611
 4523W        W 8723   4.304   0.766   2.957
 4524W        W 8724   8.541   9.329   9.635
 4525W        W 8725   3.107   1.919  10.353
 4526W        W 8726   8.855   2.927   9.250
 4527W        W 8727   3.372   6.081   0.281
 4528W        W 8728   1.949   9.347   8.724
 4529W        W 8729   3.577   9.027  11.525
 4530W        W 8730   6.099   4.550   8.366
 4531W        W 8731   9.395   5.740   1.972
 4532W        W 8732   4.729  11.325   0.441
 4533W        W 8733   6.308   1.658  10.526
 4534W        W 8734   3.580   1.031  11.385
 4535W        W 8735   0.002   3.166  11.581
 4536W        W 8736   3.909   4.394   8.585
 4537W        W 8737   6.505   2.355   9.841
 4538W        W 8738   5.212   9.138   2.771
 4539W        W 8739   1.881   0.940  11.168
 4540W        W 8740   3.953   0.523   3.401
 4541W        W 8741   6.981   3.640   9.906
 4542W        W 8742   2.135   2.044   1.942
 4543W        W 8743   3.504   4.570   9.861
 4544W        W 8744   6.538   7.300  11.044
 4545W        W 8745   7.138   6.399   9.625
 4546W        W 8746   2.189   3.312  10.973
 4547W        W 8747   7.264   4.868   8.282
 4548W        W 8748   8.569   4.122  11.269
 4549W        W 8749  10.753   9.522  10.583
 4550W        W 8750   4.140   7.076  11.807
 4551W        W 8751   6.879   2.229  10.589
 4552W        W 8752  10.523   1.770  11.356
 4553W        W 8753   3.900   9.342   0.306
 4554W        W 8754   6.514   7.452  10.040
 4555W        W 8755   7.139   0.344   0.636
 4556W        W 8756   4.586   4.172   9.099
 4557W        W 8757   6.942   3.520   1.744
 4558W        W 8758   9.670   3.992   9.358
 4559W        W 8759   9.081  11.015   3.500
 4560W        W 8760   3.595   3.801   3.032
 4561W        W 8761   7.833   3.541   0.696
 4562W        W 8762   4.182   9.909   2.264
 4563W        W 8763   7.207   0.452  10.575
 4564W        W 8764   9.441   6.845   1.668
 4565W        W 8765   2.899   6.543   9.043
 4566W        W 8766   0.042   0.666   0.650
 4567W        W 8767   2.686  10.302   2.266
 4568W        W 8768   3.153   8.569   3.221
 4569W        W 8769   8.595   8.644   9.017
 4570W        W 8770  11.362   7.521  11.103
 4571W        W 8771   4.184   3.365  10.955
 4572W        W 8772   7.137   2.262   1.337
 4573W        W 8773   5.279   3.144   4.013
 4574W        W 8774   6.565   8.796   3.348
 4575W        W 8775   8.877   1.943   0.771
 4576W        W 8776  10.084   7.948  11.949
 4577W        W 8777  11.321   6.814   3.160
 4578W        W 8778   3.287   9.498   9.359
 4579W        W 8779   0.058   7.036   9.269
 4580W        W 8780   4.644  11.257  11.101
 4581W        W 8781  10.001   9.900   2.179
 4582W        W 8782  10.896   3.110  10.437
 4583W        W 8783  10.302  10.339   2.667
 4584W        W 8784   2.391   9.471   1.184
 4585W        W 8785   2.331   7.325   3.528
 4586W        W 8786  10.798   6.751   3.165
 4587W        W 8787  11.253   7.575   3.390
 4588W        W 8788   6.565   4.250  10.288
 4589W        W 8789   9.527   9.461   1.021
 4590W        W 8790   2.145   7.381   9.488
 4591W        W 8791   8.992   1.706   8.353
 4592W        W 8792   0.332   3.121   0.363
 4593W        W 8793   9.075  10.018   2.529
 4594W        W 8794   0.476   3.434   3.622
 4595W        W 8795   8.730   2.860   8.557
 4596W        W 8796  11.390   7.480  10.571
 4597W        W 8797  10.313   2.868   0.825
 4598W        W 8798   5.078   4.791  11.215
 4599W        W 8799   2.839   5.534   9.712
 4600W        W 8800   1.481   2.763   1.988
 4601W        W 8801   6.411   3.542   1.802
 4602W        W 8802   5.186   1.692   8.759
 4603W        W 8803   3.406   3.822   2.544
 4604W        W 8804   9.619  10.441   0.778
 4605W        W 8805   5.630   6.263  10.706
 4606W        W 8806   8.701   8.466  10.161
 4607W        W 8807   1.758   2.230   9.279
 4608W        W 8808  10.510   3.793   9.825
 4609W        W 8809   3.810   4.713   8.992
 4610W        W 8810   5.391   7.392   9.302
 4611W        W 8811   5.526   2.435   1.943
 4612W        W 8812   5.571   0.713  11.217
 4613W        W 8813   6.697   8.506  11.979
 4614W        W 8814   1.851   6.659   0.840
 4615W        W 8815   2.799   9.284  10.390
 4616W        W 8816  10.456   1.156   0.261
 4617W        W 8817   6.986   7.802   9.460
 4618W        W 8818   1.379  10.372  10.992
 4619W        W 8819   3.449   0.929   2.560
 4620W        W 8820  10.800   5.452   0.292
 4621W        W 8821   8.162   3.150   0.684
 4622W        W 8822   3.136   1.399  11.540
 4623W        W 8823   8.280   3.150   9.948
 4624W        W 8824   1.850  10.558  11.740
 4625W        W 8825  10.846   7.526   0.823
 4626W        W 8826   0.028  10.492  10.847
 4627W        W 8827  11.004   2.248  11.075
 4628W        W 8828  11.160   4.147  11.737
 4629W        W 8829   1.487   2.290  11.376
 4630W        W 8830   8.880   0.178  11.770
 4631W        W 8831  10.806   5.747   1.792
 4632W        W 8832   9.227   0.124  10.395
 4633W        W 8833   5.160   7.720   2.629
 4634W        W 8834   9.028   6.744  10.420
 4635W        W 8835   3.538   9.080   9.612
 4636W        W 8836   4.236   6.136  10.299
 4637W        W 8837   2.333   2.588   2.582
 4638W        W 8838   6.687   9.316   3.351
 4639W        W 8839   6.090   8.837   9.848
 4640W        W 8840   8.176   4.087  11.584
 4641W        W 8841   1.343  10.861   0.956
 4642W        W 8842   3.205   2.968   9.054
 4643W        W 8843   6.984   0.137  10.988
 4644W        W 8844   3.793   1.956   0.137
 4645W        W 8845   5.733   2.631  10.968
 4646W        W 8846   3.616   4.896   8.553
 4647W        W 8847  10.350   3.368   9.527
 4648W        W 8848  10.500   7.386   1.170
 4649W        W 8849   2.675   9.671  11.960
 4650W        W 8850  10.440   3.339  10.020
 4651W        W 8851   9.853   2.589   0.962
 4652W        W 8852   6.458   6.599  10.351
 4653W        W 8853  10.768  10.547  10.430
 4654W        W 8854   3.605  10.115  11.947
 4655W        W 8855   4.752   4.071   0.358
 4656W        W 8856  11.245   7.674   2.624
 4657W        W 8857   7.266   9.626   0.530
 4658W        W 8858  10.705   3.421   3.334
 4659W        W 8859  10.299   9.339  10.824
 4660W        W 8860   1.853   6.064   1.989
 4661W        W 8861   8.991   3.749   1.961
 4662W        W 8862  10.253  10.867   1.447
 4663W        W 8863   0.332   6.360   2.395
 4664W        W 8864   5.209   0.688  11.897
 4665W        W 8865   5.755   5.260   1.787
 4666W        W 8866   3.462   1.206   0.352
 4667W        W 8867   9.540   7.761  10.937
 4668W        W 8868   9.996   6.556   9.328
 4669W        W 8869   9.934   0.615  11.412
 4670W        W 8870   2.256   8.883   0.037
 4671W        W 8871  10.009   5.236   0.988
 4672W        W 8872  10.101   6.103   0.494
 4673W        W 8873   9.509   9.888   8.989
 4674W        W 8874   7.726   0.258   9.835
 4675W        W 8875   7.992   0.833   2.916
 4676W        W 8876   4.317   5.370   2.748
 4677W        W 8877   1.329   4.784  10.574
 4678W        W 8878   2.695   4.279   2.999
 4679W        W 8879   1.104   4.879  10.073
 4680W        W 8880   4.783   1.374   1.943
 4681W        W 8881  11.026   9.057   0.139
 4682W        W 8882   9.699   7.150  11.285
 4683W        W 8883   2.648   6.400   8.623
 4684W        W 8884   6.220   7.701   8.355
 4685W        W 8885  10.478   6.664   9.492
 4686W        W 8886   4.846   8.804  11.834
 4687W        W 8887   5.168   2.682   4.202
 4688W        W 8888   5.653   2.740   9.484
 4689W        W 8889   5.923   9.999   2.697
 4690W        W 8890   9.599   6.908   2.783
 4691W        W 8891   5.031   3.246  11.948
 4692W        W 8892   8.876   0.354  10.761
 4693W        W 8893  11.363   8.361   9.980
 4694W        W 8894   1.033   9.268  10.730
 4695W        W 8895   2.623   7.440   0.197
 4696W        W 8896   4.041   3.316   9.410
 4697W        W 8897   5.629   7.551   8.867
 4698W        W 8898   2.520   3.061  11.560
 4699W        W 8899   6.631  11.109   0.047
 4700W        W 8900   8.129   9.612  10.508
 4701W        W 8901  10.212   7.986   1.677
 4702W        W 8902   0.766   0.961   9.546
 4703W        W 8903   7.610   4.863   0.355
 4704W        W 8904   6.489   1.052  11.936
 4705W        W 8905   4.602   3.065  11.062
 4706W        W 8906  10.510   4.148   9.468
 4707W        W 8907   1.431  10.873  11.259
 4708W        W 8908   5.205   0.880   3.512
 4709W        W 8909   9.090  10.294   0.007
 4710W        W 8910  10.014   3.834   2.229
 4711W        W 8911   0.268   6.590   2.959
 4712W        W 8912   3.530   3.387   9.447
 4713W        W 8913   3.696   3.343   3.301
 4714W        W 8914   8.363   4.607   8.908
 4715W        W 8915   3.753   4.108  11.041
 4716W        W 8916   6.858   3.122   2.831
 4717W        W 8917   0.989   1.651   8.958
 4718W        W 8918   8.471   6.385   2.194
 4719W        W 8919   5.263   4.231   9.506
 4720W        W 8920   3.390  10.079   8.657
 4721W        W 8921   5.687   6.596   0.575
 4722W        W 8922   0.281   8.620   1.939
 4723W        W 8923   8.128   8.366   8.447
 4724W        W 8924   1.421   4.316  10.801
 4725W        W 8925   3.570   1.221   9.783
 4726W        W 8926   5.204   8.930   3.688
 4727W        W 8927  10.895   4.417   1.810
 4728W        W 8928  10.479   5.001   9.879
 4729W        W 8929  11.290   7.746  11.555
 4730W        W 8930   0.796   0.812   2.212
 4731W        W 8931   5.566   4.480  10.693
 4732W        W 8932   8.175  11.472   1.165
 4733W        W 8933  11.256   0.910  10.495
 4734W        W 8934   7.033   1.130  11.048
 4735W        W 8935   0.813   0.173  10.043
 4736W        W 8936   1.963  11.396   3.175
 4737W        W 8937   9.019   1.712   1.285
 4738W        W 8938   4.731   2.341   9.544
 4739W        W 8939   9.867   2.926   3.198
 4740W        W 8940   3.810   3.636   0.199
 4741W        W 8941   7.648   0.273   1.177
 4742W        W 8942   8.216   9.009   9.973
 4743W        W 8943  10.035   9.239   8.650
 4744W        W 8944   7.404  10.869   9.554
 4745W        W 8945  11.452   1.169   2.654
 4746W        W 8946  10.954   5.932   0.315
 4747W        W 8947   5.584   2.176   1.496
 4748W        W 8948   4.606   3.275   3.227
 4749W        W 8949   8.575   5.230   0.949
 4750W        W 8950   8.309   7.090   8.836
 4751W        W 8951   3.293  10.489   0.263
 4752W        W 8952  10.364   6.545   1.484
 4753W        W 8953   7.927   2.935   2.406
 4754W        W 8954   3.180   3.871   8.829
 4755W        W 8955   5.538   5.780  10.469
 4756W        W 8956   3.236   8.086   8.662
 4757W        W 8957   8.997   0.172  11.250
 4758W        W 8958   4.205   6.746   1.273
 4759W        W 8959   0.826   0.030  10.558
 4760W        W 8960  10.826   4.718   2.612
 4761W        W 8961  11.056   6.853   9.238
 4762W        W 8962  11.451   3.973   8.993
 4763W        W 8963  10.886   5.366   1.449
 4764W        W 8964  11.410   6.551   9.443
 4765W        W 8965   9.988   1.368   0.262
 4766W        W 8966   4.134   7.011   9.269
 4767W        W 8967   1.802   3.333   1.760
 4768W        W 8968  10.101  10.540   0.750
 4769W        W 8969   8.356   2.205   9.760
 4770W        W 8970   6.737   4.558   9.397
 4771W        W 8971  10.564   2.797   1.700
 4772W        W 8972   4.958   7.014   3.141
 4773W        W 8973   0.236   2.146   9.790
 4774W        W 8974   7.867   8.027   2.322
 4775W        W 8975   3.952   6.019  11.506
 4776W        W 8976  11.343   4.643   1.858
 4777W        W 8977   4.592   7.554   0.336
 4778W        W 8978   5.592   4.599   2.472
 4779W        W 8979  10.420   7.542   9.396
 4780W        W 8980   7.492   4.324  11.392
 4781W        W 8981   8.339   8.714   2.829
 4782W        W 8982   3.652   3.245   1.872
 4783W        W 8983   2.039   6.985  10.291
 4784W        W 8984  10.302   1.775   1.145
 4785W        W 8985  11.376   8.687   8.547
 4786W        W 8986  10.159   2.172   1.904
 4787W        W 8987   7.191   9.905   2.737
 4788W        W 8988   0.242   6.252  11.169
 4789W        W 8989   1.215   0.997   2.013
 4790W        W 8990  10.463   9.887   2.932
 4791W        W 8991   8.717  11.496  10.444
 4792W        W 8992   9.348   2.203  11.109
 4793W        W 8993   8.519   3.449   1.286
 4794W        W 8994   9.135   5.185  10.820
 4795W        W 8995   4.786   7.914   0.025
 4796W        W 8996  11.467  11.444  10.791
 4797W        W 8997   0.693   9.389   3.368
 4798W        W 8998   0.455   0.005   9.735
 4799W        W 8999   1.941   7.918  11.821
 4800W        W 9000  10.431   8.557   8.918
 4801W        W 9001   3.817   2.856  10.354
 4802W        W 9002   4.876   4.989   1.407
 4803W        W 9003   1.151   2.811   0.583
 4804W        W 9004   7.396   3.785   0.734
 4805W        W 9005   8.524   6.781  10.768
 4806W        W 9006   2.138   4.751   0.333
 4807W        W 9007   4.738   1.594  10.714
 4808W        W 9008   1.544   2.861   0.924
 4809W        W 9009   9.028  10.965   0.349
 4810W        W 9010   0.700   7.097   2.178
 4811W        W 9011   1.251   2.819  11.296
 4812W        W 9012  11.021  10.144   1.800
 4813W        W 9013   4.799   1.274   2.449
 4814W        W 9014   9.607   9.788   2.971
 4815W        W 9015  10.803   4.572   0.673
 4816W        W 9016   5.930   6.076   9.761
 4817W        W 9017   9.954   5.300   0.411
 4818W        W 9018   9.182   4.708   9.169
 4819W        W 9019   9.096   7.650  10.130
 4820W        W 9020   0.245   2.271   1.791
 4821W        W 9021   9.961  11.082  11.302
 4822W        W 9022   9.507  10.119   9.464
 4823W        W 9023   9.425   6.620  11.264
 4824W        W 9024   1.162   9.576   3.433
 4825W        W 9025   9.811   8.599   1.958
 4826W        W 9026   8.065   4.571   0.215
 4827W        W 9027   9.955   1.882   0.156
 4828W        W 9028   6.570   7.498   8.687
 4829W        W 9029   7.133   4.558   8.678
 4830W        W 9030   0.497   7.931   9.609
 4831W        W 9031   3.455   6.059   1.251
 4832W        W 9032   1.580   6.162  10.041
 4833W        W 9033   1.660   0.815   2.187
 4834W        W 9034   5.962   1.348   2.080
 4835W        W 9035   1.096   8.478   2.436
 4836W        W 9036   1.859   4.046  10.892
 4837W        W 9037   6.702   2.391   3.567
 4838W        W 9038   6.523   8.547   1.628
 4839W        W 9039   0.905   3.643   0.805
 4840W        W 9040   6.858  11.151   3.145
 4841W        W 9041   1.195   5.530   9.469
 4842W        W 9042   6.841   1.181   1.951
 4843W        W 9043  10.422   9.973  11.924
 4844W        W 9044   6.703   4.681   0.143
 4845W        W 9045   1.625   7.962   0.864
 4846W        W 9046   0.281   3.505  10.794
 4847W        W 9047  10.028   7.567  11.126
 4848W        W 9048   7.116  10.190  11.324
 4849W        W 9049   7.996   5.201   0.311
 4850W        W 9050   5.617   1.367   8.806
 4851W        W 9051   8.926   6.139   8.803
 4852W        W 9052   2.256   4.186   8.525
 4853W        W 9053   5.142   5.630  11.237
 4854W        W 9054   4.731   8.577  10.247
 4855W        W 9055   7.754   1.823   2.981
 4856W        W 9056   0.177   9.471   9.492
 4857W        W 9057   7.685   1.348  11.401
 4858W        W 9058   6.299   4.030   2.246
 4859W        W 9059   0.615   2.220  10.145
 4860W        W 9060   7.588   6.193  11.947
 4861W        W 9061   0.771   5.221  10.266
 4862W        W 9062   7.968   2.455   8.862
 4863W        W 9063   7.417   4.294   0.752
 4864W        W 9064   8.368   3.281  11.772
 4865W        W 9065   8.582   4.572   9.795
 4866W        W 9066   0.372   0.301  11.525
 4867W        W 9067   3.011   3.494   2.383
 4868W        W 9068   8.979   0.414   0.718
 4869W        W 9069   0.330   8.340  11.425
 4870W        W 9070   3.075   5.601   3.263
 4871W        W 9071   1.987   1.018  11.680
 4872W        W 9072  10.509   8.366  11.013
 4873W        W 9073   5.867  10.048   8.949
 4874W        W 9074   2.601   5.995   9.514
 4875W        W 9075   4.136   0.524   0.545
 4876W        W 9076   4.319   8.118   2.709
 4877W        W 9077   8.731   7.116   3.159
 4878W        W 9078   8.043   1.874  11.041
 4879W        W 9079   3.970   8.675   2.199
 4880W        W 9080   2.688  10.915   3.070
 4881W        W 9081   9.672   4.250   2.248
 4882W        W 9082   5.588   1.825   9.043
 4883W        W 9083   3.764   4.622  11.162
 4884W        W 9084   0.414   5.245  11.563
 4885W        W 9085   5.637   4.809   0.674
 4886W        W 9086   7.913   8.752   9.512
 4887W        W 9087   0.782   3.007   8.498
 4888W        W 9088   2.880   7.062   1.489
 4889W        W 9089   5.771  10.878  10.400
 4890W        W 9090   1.265  11.399   9.312
 4891W        W 9091   2.436   2.555   3.081
 4892W        W 9092   0.592   2.629   9.280
 4893W        W 9093   9.766   9.067   1.747
 4894W        W 9094   1.396   6.083   2.193
 4895W        W 9095   9.362   2.832  11.833
 4896W        W 9096   6.128  11.031   9.612
 4897W        W 9097   1.809   3.588  10.697
 4898W        W 9098   1.705   9.919  10.571
 4899W        W 9099   4.396  10.486  10.076
 4900W        W 9100   7.713   0.832  11.945
 4901W        W 9101   5.131   8.514   1.091
 4902W        W 9102   3.203   2.180   1.766
 4903W        W 9103   0.665   9.138  11.069
 4904W        W 9104   9.537   2.335   9.612
 4905W        W 9105   9.946   2.167   1.272
 4906W        W 9106   9.300  11.409  11.674
 4907W        W 9107   7.915   5.506  10.522
 4908W        W 9108  10.605   3.098   0.460
 4909W        W 9109   5.660   8.481   0.736
 4910W        W 9110   5.104   6.341   2.437
 4911W        W 9111   7.473   1.302   8.760
 4912W        W 9112   6.544   1.148  10.339
 4913W        W 9113   7.601   6.510   1.309
 4914W        W 9114   0.593  10.368   0.934
 4915W        W 9115   3.997   7.610   1.368
 4916W        W 9116   5.784   9.955  10.305
 4917W        W 9117   8.491   2.665  10.509
 4918W        W 9118   9.319   7.940   0.225
 4919W        W 9119   3.052   9.128   1.566
 4920W        W 9120   1.827   4.506   3.700
 4921W        W 9121   1.705   0.178   1.179
 4922W        W 9122   7.499   0.917  10.462
 4923W        W 9123   7.374   7.332  10.122
 4924W        W 9124   1.864   1.237   3.108
 4925W        W 9125   9.491   7.634  11.460
 4926W        W 9126   6.576   3.970   2.698
 4927W        W 9127   1.118   5.156  11.870
 4928W        W 9128  11.356   7.216   8.827
 4929W        W 9129   2.089   5.952   9.578
 4930W        W 9130   9.390   9.783  10.880
 4931W        W 9131   1.785   4.895   1.038
 4932W        W 9132   2.726  11.013   2.573
 4933W        W 9133   0.437   1.742   9.578
 4934W        W 9134  10.371   2.226  11.949
 4935W        W 9135   7.023   9.570  11.239
 4936W        W 9136  11.291   6.711   0.855
 4937W        W 9137   6.953   6.077  10.042
 4938W        W 9138   4.616   4.535   3.149
 4939W        W 9139   3.340   3.327   3.691
 4940W        W 9140   5.138   8.892   9.965
 4941W        W 9141   3.883  10.869  10.734
 4942W        W 9142   4.342   0.944  10.849
 4943W        W 9143   4.738   2.803   0.721
 4944W        W 9144   9.831   7.679   1.899
 4945W        W 9145   2.778  11.469  11.372
 4946W        W 9146   7.226  11.386   1.861
 4947W        W 9147  10.863   2.612  10.299
 4948W        W 9148   9.879   6.383  10.300
 4949W        W 9149   2.643   3.085   2.377
 4950W        W 9150   6.425   8.727   8.253
 4951W        W 9151  10.967   9.572  11.960
 4952W        W 9152   0.834   2.423   0.437
 4953W        W 9153   5.472   4.115   9.051
 4954W        W 9154   2.898  10.936  10.812
 4955W        W 9155   8.609   6.420   1.278
 4956W        W 9156   5.148   9.566   2.519
 4957W        W 9157   5.841   6.659   2.203
 4958W        W 9158   9.971   1.973   3.419
 4959W        W 9159   0.817   6.246   0.929
 4960W        W 9160   0.714  10.833   1.724
 4961W        W 9161   5.750   9.203  11.793
 4962W        W 9162   2.659   2.269   9.482
 4963W        W 9163   0.267   1.428   3.480
 4964W        W 9164   9.954   4.263   2.679
 4965W        W 9165   3.825   8.103  11.794
 4966W        W 9166   3.001   5.658   8.575
 4967W        W 9167   9.984   6.187  10.771
 4968W        W 9168   5.517   0.969   9.102
 4969W        W 9169  11.376   2.659   0.505
 4970W        W 9170   9.792  10.923   0.926
 4971W        W 9171   9.987  10.801   2.753
 4972W        W 9172   2.736   7.993   9.512
 4973W        W 9173  10.772   7.629   2.393
 4974W        W 9174   4.771   7.585   1.759
 4975W        W 9175  10.774   4.912   3.594
 4976W        W 9176  10.282   1.925  10.949
 4977W        W 9177   1.622   6.169   0.981
 4978W        W 9178  10.356   6.988   9.046
 4979W        W 9179   8.115   9.947   0.251
 4980W        W 9180   6.932   4.417   1.835
 4981W        W 9181   4.677   4.731   3.613
 4982W        W 9182   6.532   5.467   0.479
 4983W        W 9183   7.918   9.967   9.981
 4984W        W 9184   5.053   4.626   3.950
 4985W        W 9185   2.203   3.312   2.196
 4986W        W 9186   5.671   9.036   3.031
 4987W        W 9187   5.530   4.119   2.593
 4988W        W 9188   2.540   2.669   0.865
 4989W        W 9189  10.255   7.256   2.342
 4990W        W 9190   5.683   3.185   8.897
 4991W        W 9191   8.428  11.003  11.746
 4992W        W 9192   1.036   4.091   0.518
 4993W        W 9193   3.399   6.590  10.313
 4994W        W 9194  10.305   6.572  11.971
 4995W        W 9195   4.159   9.087   9.082
 4996W        W 9196   9.929   5.685   9.937
 4997W        W 9197   3.493   8.499   8.922
 4998W        W 9198   4.362  10.995  10.759
 4999W        W 9199  10.011   1.654  10.070
 5000W        W 9200  10.067   1.319   8.828
 5001W        W 9201  10.054   0.853   0.046
 5002W        W 9202   6.078   5.762   1.714
 5003W        W 9203   1.265   9.460   9.987
 5004W        W 9204   2.509   7.729   2.713
 5005W        W 9205   9.962   0.799   8.883
 5006W        W 9206   3.979   1.350  11.472
 5007W        W 9207   2.100   1.636   3.374
 5008W        W 9208   8.635   3.114  10.301
 5009W        W 9209  10.515  10.800   3.384
 5010W        W 9210   2.212   9.324  11.317
 5011W        W 9211   8.453   2.646   2.045
 5012W        W 9212   7.336  11.333   8.819
 5013W        W 9213   8.125   0.861   8.462
 5014W        W 9214   0.190   6.075   2.786
 5015W        W 9215   8.689   9.992   2.868
 5016W        W 9216   4.556   5.304   9.653
 5017W        W 9217   5.944   6.247   2.723
 5018W        W 9218   3.705  10.815   2.816
 5019W        W 9219   1.598   5.627   3.163
 5020W        W 9220   4.715   4.530   2.635
 5021W        W 9221   8.120   4.616   3.537
 5022W        W 9222   6.850   9.357   0.662
 5023W        W 9223   0.083   5.645  10.828
 5024W        W 9224   0.619   1.457   0.761
 5025W        W 9225   2.348   0.697   0.778
 5026W        W 9226   8.366   2.145   3.726
 5027W        W 9227   4.906   6.094   0.999
 5028W        W 9228  10.227  11.408   9.399
 5029W        W 9229   7.104   2.644   9.795
 5030W        W 9230  10.876   7.556   9.657
 5031W        W 9231   5.531   6.423  11.275
 5032W        W 9232   0.999   2.342   9.118
 5033W        W 9233   5.487   0.007   0.019
 5034W        W 9234   1.615   3.475  10.217
 5035W        W 9235   4.753   2.832   2.016
 5036W        W 9236   4.963   8.094   1.974
 5037W        W 9237   8.532   5.511   9.844
 5038W        W 9238   0.703   4.151  10.998
 5039W        W 9239  11.292   2.231   9.454
 5040W        W 9240   9.614   8.367   9.916
 5041W        W 9241   5.806   9.870   2.001
 5042W        W 9242   6.973   4.555   0.928
 5043W        W 9243   4.791   1.649   0.431
 5044W        W 9244   2.284  11.255  11.436
 5045W        W 9245   1.289   0.498   1.889
 5046W        W 9246   4.087   2.330   0.320
 5047W        W 9247   7.236   4.456   9.533
 5048W        W 9248   9.887  10.474   9.407
 5049W        W 9249   1.917   6.378  10.467
 5050W        W 9250   7.004   8.303   9.712
 5051W        W 9251   0.758   8.406   0.406
 5052W        W 9252   9.390   3.916   1.683
 5053W        W 9253   9.857   2.616   2.810
 5054W        W 9254   6.749  10.740   1.870
 5055W        W 9255   5.490   8.087   2.026
 5056W        W 9256   9.405   0.940  11.874
 5057W        W 9257   5.503  11.035   9.030
 5058W        W 9258   6.211   2.743   9.890
 5059W        W 9259   2.275   7.093   0.069
 5060W        W 9260  11.308  11.370   9.349
 5061W        W 9261   5.663   0.697  10.715
 5062W        W 9262  10.880   8.333   9.649
 5063W        W 9263  10.286   5.962  11.211
 5064W        W 9264   6.982   3.172   1.375
 5065W        W 9265   2.752   8.506   9.461
 5066W        W 9266  10.849   7.625   1.874
 5067W        W 9267   9.398   4.394  11.056
 5068W        W 9268   7.488  11.353   9.321
 5069W        W 9269  10.811   3.922   1.916
 5070W        W 9270   2.587   6.301   9.980
 5071W        W 9271  10.586   7.886   0.003
 5072W        W 9272   0.447  11.340   0.708
 5073W        W 9273  11.433   5.020   2.175
 5074W        W 9274   4.627  11.422   9.126
 5075W        W 9275   8.924   5.341   8.517
 5076W        W 9276   8.890   2.835   2.839
 5077W        W 9277   0.473   3.603  11.541
 5078W        W 9278   8.452   2.947   1.545
 5079W        W 9279   8.058   3.932   1.938
 5080W        W 9280   0.509   5.391  11.021
 5081W        W 9281   2.460   2.513  11.889
 5082W        W 9282   2.782   3.103   1.425
 5083W        W 9283   6.155  10.564   9.408
 5084W        W 9284   4.671  10.895   1.365
 5085W        W 9285   1.050   9.510   0.760
 5086W        W 9286   4.657   6.831   2.306
 5087W        W 9287   5.209   9.847   9.016
 5088W        W 9288   0.285   9.940   0.892
 5089W        W 9289   5.803   7.082   0.371
 5090W        W 9290   7.911   6.940   2.974
 5091W        W 9291   3.841  10.787   9.882
 5092W        W 9292   2.611   6.202  11.862
 5093W        W 9293   1.391   2.022   8.967
 5094W        W 9294   0.824   1.865  10.913
 5095W        W 9295   4.087   0.868  11.305
 5096W        W 9296   2.008  11.100  10.061
 5097W        W 9297   1.368   7.880   8.814
 5098W        W 9298   2.162   4.944   1.494
 5099W        W 9299   2.630   9.769  10.505
 5100W        W 9300  10.544  11.258   2.284
 5101W        W 9301   6.225   0.453   3.315
 5102W        W 9302   3.856   7.347   2.232
 5103W        W 9303   3.863   8.440   2.656
 5104W        W 9304  10.032   3.311   1.432
 5105W        W 9305   3.477   2.230  10.501
 5106W        W 9306   0.349   9.599   1.593
 5107W        W 9307   8.868   4.120   9.877
 5108W        W 9308   0.200   3.671   2.753
 5109W        W 9309   0.500   3.069  10.686
 5110W        W 9310   4.188  10.809   1.835
 5111W        W 9311   4.147  10.908  10.298
 5112W        W 9312   5.349   9.440   0.332
 5113W        W 9313   0.164  10.600   3.052
 5114W        W 9314  10.569   0.878  11.852
 5115W        W 9315   2.875   8.544   2.793
 5116W        W 9316   9.519   2.721   3.516
 5117W        W 9317   5.734   7.760  10.031
 5118W        W 9318   8.546   1.476   1.332
 5119W        W 9319   8.109   9.426   1.066
 5120W        W 9320   9.368   2.727  11.325
 5121W        W 9321   6.720   7.892   9.899
 5122W        W 9322   5.778   4.809  10.344
 5123W        W 9323   7.660  10.300  10.796
 5124W        W 9324   5.104   5.720  10.735
 5125W        W 9325   9.159   3.741   0.211
 5126W        W 9326   2.187   0.801   8.914
 5127W        W 9327   0.341   7.527   3.272
 5128W        W 9328   6.856   8.615   2.973
 5129W        W 9329   0.644  10.325   2.343
 5130W        W 9330   2.938   0.260  10.958
 5131W        W 9331   2.993   4.566   9.993
 5132W        W 9332   6.492   4.038   0.783
 5133W        W 9333   3.878   4.676   8.150
 5134W        W 9334   4.788   2.720   1.543
 5135W        W 9335   8.157   1.804  10.021
 5136W        W 9336   3.367   2.375   0.020
 5137W        W 9337   8.504   1.890  11.260
 5138W        W 9338   3.760  10.353   8.958
 5139W        W 9339   9.597   0.623   0.237
 5140W        W 9340   8.590   5.009  10.131
 5141W        W 9341   6.662  10.365  11.093
 5142W        W 9342   9.550   2.369   2.208
 5143W        W 9343  10.702   1.305  11.525
 5144W        W 9344   1.412   3.879  11.479
 5145W        W 9345   8.055   2.765   0.376
 5146W        W 9346   0.439   5.709   9.951
 5147W        W 9347   4.193   7.471   9.049
 5148W        W 9348  10.363   4.555  11.451
 5149W        W 9349   4.692   3.559   0.434
 5150W        W 9350   6.778   3.150   9.170
 5151W        W 9351   7.694   5.762   8.309
 5152W        W 9352   4.592   6.377   2.518
 5153W        W 9353   5.568   8.968   0.426
 5154W        W 9354   2.751   3.398  10.297
 5155W        W 9355   2.835   2.342   2.754
 5156W        W 9356   5.449   2.405   2.712
 5157W        W 9357   6.725   2.803   0.467
 5158W        W 9358   3.189   0.808   9.111
 5159W        W 9359   8.988  10.007  10.118
 5160W        W 9360  11.396   5.591   0.226
 5161W        W 9361   4.531   3.206   9.522
 5162W        W 9362   8.066   1.836   3.438
 5163W        W 9363   8.484   6.967   0.451
 5164W        W 9364  10.468   8.066   2.952
 5165W        W 9365   7.623   0.722   3.416
 5166W        W 9366   4.090  11.392  10.500
 5167W        W 9367   1.927   5.230  11.241
 5168W        W 9368   4.550   5.457   2.276
 5169W        W 9369   5.585   3.685   3.807
 5170W        W 9370   7.378   4.789  10.522
 5171W        W 9371  11.322   6.411   2.798
 5172W        W 9372   1.713   2.324   0.937
 5173W        W 9373   5.072   9.777   2.078
 5174W        W 9374   0.003  11.436   2.000
 5175W        W 9375   9.195   9.534   2.248
 5176W        W 9376   0.778   7.169   9.926
 5177W        W 9377   6.958   1.253  11.946
 5178W        W 9378   0.770   7.494   1.796
 5179W        W 9379   0.857   9.148   1.045
 5180W        W 9380   5.169   5.573  11.757
 5181W        W 9381  10.106   5.059  10.285
 5182W        W 9382  10.126   1.963  10.468
 5183W        W 9383   4.997   1.503  10.115
 5184W        W 9384   8.845   6.936   9.522
 5185W        W 9385   0.805   2.037  11.607
 5186W        W 9386   0.771   5.503   3.001
 5187W        W 9387   6.254   5.037   0.367
 5188W        W 9388   1.244   5.273  10.456
 5189W        W 9389   5.327   6.719  10.845
 5190W        W 9390   1.622   5.071  11.967
 5191W        W 9391   0.283  11.430   0.228
 5192W        W 9392   0.484   4.577  10.822
 5193W        W 9393  11.338   8.894   1.904
 5194W        W 9394   8.733  11.260   9.572
 5195W        W 9395  10.502   7.361  10.950
 5196W        W 9396   9.106   9.059   2.517
 5197W        W 9397  11.253   4.803   0.817
 5198W        W 9398   3.276   2.635   0.862
 5199W        W 9399   8.536   0.953   9.422
 5200W        W 9400   7.021   8.391   1.910
 5201W        W 9401   5.108  11.435   3.068
 5202W        W 9402   2.995   3.810   4.151
 5203W        W 9403   1.211   8.153   0.640
 5204W        W 9404   1.361   9.583   0.379
 5205W        W 9405   0.737   0.909  10.435
 5206W        W 9406  10.336   2.670   9.293
 5207W        W 9407  10.503   1.581   9.672
 5208W        W 9408  10.247   8.465   0.403
 5209W        W 9409   2.343  10.297   2.670
 5210W        W 9410   9.973   8.060  10.955
 5211W        W 9411   2.282  11.257   0.466
 5212W        W 9412   7.656   2.454   3.173
 5213W        W 9413  10.115   0.334  10.109
 5214W        W 9414   8.447  11.296   3.168
 5215W        W 9415   9.456   6.684   2.143
 5216W        W 9416   4.126   8.080   9.637
 5217W        W 9417   9.830   0.841   9.417
 5218W        W 9418   7.152  10.367   3.404
 5219W        W 9419   0.685   6.938  10.372
 5220W        W 9420  11.302   1.820  10.963
 5221W        W 9421   2.152   2.942   8.808
 5222W        W 9422   7.719   7.742   9.883
 5223W        W 9423   8.608   5.999  11.009
 5224W        W 9424   7.489   6.982   1.910
 5225W        W 9425   1.797  10.985   2.788
 5226W        W 9426   1.800  10.498  11.246
 5227W        W 9427   2.961   7.865  10.381
 5228W        W 9428   1.822   3.698   2.308
 5229W        W 9429   9.456   8.792   0.223
 5230W        W 9430   0.401   6.075   0.234
 5231W        W 9431   0.506   3.889   2.410
 5232W        W 9432   4.667   2.656   2.986
 5233W        W 9433   0.724   0.680   9.975
 5234W        W 9434  10.398   7.472   9.892
 5235W        W 9435   3.220   0.161   9.132
 5236W        W 9436   3.797   0.674   2.910
 5237W        W 9437   1.193   5.664   2.379
 5238W        W 9438   7.550   1.029   1.948
 5239W        W 9439   7.432   8.321   2.336
 5240W        W 9440   8.595   6.452   0.378
 5241W        W 9441  10.244   2.298   0.856
 5242W        W 9442   6.646   9.850   2.025
 5243W        W 9443   3.695  11.465   9.577
 5244W        W 9444   4.667   4.624  10.929
 5245W        W 9445   4.796   8.989   3.064
 5246W        W 9446   2.668   1.158   1.223
 5247W        W 9447   4.771   7.006  10.026
 5248W        W 9448   1.392   9.510  11.888
 5249W        W 9449   2.384   3.800   9.473
 5250W        W 9450   4.655   4.759   1.809
 5251W        W 9451   2.904  10.025  11.522
 5252W        W 9452   9.241   7.356  11.086
 5253W        W 9453   8.761   8.692   0.748
 5254W        W 9454   8.098   1.456   8.714
 5255W        W 9455   9.624   9.559   1.508
 5256W        W 9456   0.719   4.684  11.317
 5257W        W 9457   8.122   8.838  11.755
 5258W        W 9458   1.818   7.406  11.817
 5259W        W 9459   4.719   8.506   0.711
 5260W        W 9460   6.336   7.428   1.475
 5261W        W 9461   3.708   8.868  10.581
 5262W        W 9462  10.365   5.028  11.164
 5263W        W 9463   1.415   5.201   2.348
 5264W        W 9464   1.900   0.466   0.795
 5265W        W 9465   2.824   7.030   2.373
 5266W        W 9466   7.901   5.212  11.446
 5267W        W 9467   1.797   5.264   2.802
 5268W        W 9468   6.370   1.260   1.744
 5269W        W 9469   1.641   3.047   0.444
 5270W        W 9470  11.067   0.897   1.239
 5271W        W 9471   1.461   0.020   0.214
 5272W        W 9472   4.097   3.532  11.792
 5273W        W 9473   5.179   0.819   1.925
 5274W        W 9474  10.060   8.986   9.105
 5275W        W 9475   1.984  10.386   9.400
 5276W        W 9476   2.744   4.599   1.360
 5277W        W 9477   4.548   5.133  11.204
 5278W        W 9478   9.013   5.681   9.775
 5279W        W 9479   4.636   4.015   1.362
 5280W        W 9480   7.813   9.529  10.899
 5281W        W 9481   4.254   1.314   3.059
 5282W        W 9482   9.383   8.622   2.314
 5283W        W 9483   1.444   5.563  11.929
 5284W        W 9484   3.791   1.183   2.945
 5285W        W 9485   9.988   2.743  10.082
 5286W        W 9486   1.179   7.332   2.868
 5287W        W 9487   5.951   5.598   9.052
 5288W        W 9488   6.543   2.868   3.632
 5289W        W 9489   9.731   1.124   2.997
 5290W        W 9490   4.084  11.354   0.873
 5291W        W 9491   0.900  11.026  10.656
 5292W        W 9492   8.324   6.789   0.928
 5293W        W 9493   7.122   7.034  11.936
 5294W        W 9494   9.939  10.892  11.901
 5295W        W 9495   3.736   6.919  11.163
 5296W        W 9496   2.220   8.034   0.568
 5297W        W 9497   9.636   4.215   1.350
 5298W        W 9498  10.620   0.700   1.381
 5299W        W 9499   7.583   7.306   2.285
 5300W        W 9500   1.983   5.314   1.842
 5301W        W 9501  10.555  10.486  11.759
 5302W        W 9502   1.614   7.003   1.915
 5303W        W 9503   8.330   4.026  10.278
 5304W        W 9504   5.648   3.236   2.562
 5305W        W 9505   6.090   0.319   2.245
 5306W        W 9506   9.576   7.684   1.440
 5307W        W 9507   9.935   3.191   9.780
 5308W        W 9508   9.609   4.903   1.721
 5309W        W 9509   8.218   3.664   9.489
 5310W        W 9510   6.672   3.981   1.710
 5311W        W 9511   9.997   8.533  10.719
 5312W        W 9512   8.476  10.267  10.033
 5313W        W 9513   0.335  11.450   9.243
 5314W        W 9514   3.693   3.616  10.949
 5315W        W 9515  11.459  10.705   9.674
 5316W        W 9516   0.174   7.181  11.332
 5317W        W 9517   8.949   9.361  11.412
 5318W        W 9518   2.602   0.833   9.237
 5319W        W 9519   0.536   3.446  10.320
 5320W        W 9520  10.230   2.709   2.093
 5321W        W 9521   5.614   8.547   1.776
 5322W        W 9522   3.961   8.001   1.753
 5323W        W 9523   8.252   3.854   4.016
 5324W        W 9524   1.219   4.054   9.220
 5325W        W 9525   2.255   1.896   9.762
 5326W        W 9526   9.903  10.804   2.239
 5327W        W 9527   5.017   9.868   3.407
 5328W        W 9528   1.966   2.160  11.276
 5329W        W 9529   7.978  10.431   2.436
 5330W        W 9530   1.924   3.203   8.403
 5331W        W 9531   0.400  10.017  10.934
 5332W        W 9532   8.570   3.568   3.138
 5333W        W 9533   9.917   7.674   2.408
 5334W        W 9534   6.543  10.919   9.334
 5335W        W 9535   2.799   5.293  11.341
 5336W        W 9536   4.975   2.528   8.607
 5337W        W 9537   6.728   8.623   0.832
 5338W        W 9538   1.871   6.919   8.762
 5339W        W 9539   3.708   0.200   2.752
 5340W        W 9540   4.992   8.302   8.922
 5341W        W 9541   7.035   9.340   8.570
 5342W        W 9542   1.243   7.574   2.060
 5343W        W 9543   7.990   5.908   0.802
 5344W        W 9544   5.626  10.949   0.963
 5345W        W 9545   0.684   8.803  10.069
 5346W        W 9546   4.008   6.208   1.858
 5347W        W 9547  10.739   7.467   3.497
 5348W        W 9548   1.635   6.656   8.347
 5349W        W 9549   0.302  10.998   9.459
 5350W        W 9550   5.213   4.687   1.681
 5351W        W 9551   2.796   4.820  11.630
 5352W        W 9552   3.147   3.340   1.766
 5353W        W 9553   0.145   7.898  10.001
 5354W        W 9554   6.326   6.495   2.401
 5355W        W 9555   2.178  10.978   1.848
 5356W        W 9556   0.474   0.503   2.453
 5357W        W 9557   9.715   7.034   0.323
 5358W        W 9558   0.878   7.083   1.420
 5359W        W 9559   5.216   1.384   1.678
 5360W        W 9560   1.757   4.813  10.306
 5361W        W 9561   5.769   5.195   0.313
 5362W        W 9562   1.769   8.073   9.630
 5363W        W 9563   1.187   1.900  11.272
 5364W        W 9564  10.973   9.959   9.716
 5365W        W 9565   3.905   9.331   3.299
 5366W        W 9566   6.896   2.622   2.674
 5367W        W 9567   6.361   2.531  10.340
 5368W        W 9568   2.212   1.464   0.066
 5369W        W 9569   1.156   1.321   3.633
 5370W        W 9570   7.782   0.352   3.730
 5371W        W 9571   2.304   5.776   9.137
 5372W        W 9572   8.948   7.473   2.174
 5373W        W 9573  11.250   5.158   1.192
 5374W        W 9574   1.394  10.316   2.879
 5375W        W 9575   2.856   3.218   3.524
 5376W        W 9576  10.475   8.958   2.997
 5377W        W 9577   8.605   7.376   9.451
 5378W        W 9578   1.891   4.542  10.894
 5379W        W 9579  10.088   1.302   1.218
 5380W        W 9580   7.571   1.785   9.581
 5381W        W 9581   3.166   5.609   0.098
 5382W        W 9582   4.054   5.162  11.019
 5383W        W 9583   2.712   3.121   8.989
 5384W        W 9584   0.190   1.818   1.527
 5385W        W 9585   9.784   1.312   0.767
 5386W        W 9586   8.946   0.766   1.885
 5387W        W 9587   7.577   5.059   1.255
 5388W        W 9588   6.669  10.416   2.725
 5389W        W 9589   0.839  10.298  10.096
 5390W        W 9590   0.095   9.369   0.760
 5391W        W 9591   7.657   1.021   9.596
 5392W        W 9592   7.726   6.508   1.817
 5393W        W 9593   8.082   6.684   9.918
 5394W        W 9594   3.728   9.070   2.008
 5395W        W 9595   1.732   8.938  10.886
 5396W        W 9596   7.024   6.000  11.826
 5397W        W 9597   6.193   0.812   2.428
 5398W        W 9598   8.074  10.830   2.757
 5399W        W 9599   0.245   5.477   1.909
 5400W        W 9600   8.083   3.696   1.458
 5401W        W 9601  10.860   1.384   0.005
 5402W        W 9602   8.970   8.578   2.710
 5403W        W 9603   8.480   1.474   9.480
 5404W        W 9604   0.281   7.568  11.723
 5405W        W 9605   7.117   6.688  11.329
 5406W        W 9606   2.316   7.952  10.986
 5407W        W 9607   0.355   1.281  11.836
 5408W        W 9608   3.948   6.303   1.262
 5409W        W 9609   6.657   7.512   3.710
 5410W        W 9610  11.348   8.453   2.201
 5411W        W 9611   9.117  11.409   0.719
 5412W        W 9612   0.168   5.160   0.924
 5413W        W 9613   9.899   0.357  11.843
 5414W        W 9614   5.074   0.241   0.241
 5415W        W 9615   6.231   3.499   2.272
 5416W        W 9616  10.801  10.351   3.485
 5417W        W 9617  11.190   5.252   8.760
 5418W        W 9618   5.689   8.590   3.320
 5419W        W 9619   8.976   3.667   3.457
 5420W        W 9620  11.106   1.381   8.735
 5421W        W 9621   2.745  11.266   0.228
 5422W        W 9622   5.716   2.397   1.019
 5423W        W 9623   5.094   7.742  11.642
 5424W        W 9624   1.194   8.226   0.135
 5425W        W 9625  10.629   7.842   1.424
 5426W        W 9626   7.658   3.069   0.713
 5427W        W 9627  11.410   3.759   3.141
 5428W        W 9628   4.362   5.006   1.419
 5429W        W 9629   0.194   9.229  10.334
 5430W        W 9630   8.751   7.975  10.385
 5431W        W 9631   1.698  10.830   9.405
 5432W        W 9632   9.359   6.635  11.789
 5433W        W 9633   9.132   7.353   9.589
 5434W        W 9634  11.480  11.375   9.824
 5435W        W 9635  10.778   0.212   9.921
 5436W        W 9636   1.979  10.695   8.980
 5437W        W 9637   7.751   6.280   8.235
 5438W        W 9638   0.193   5.530   9.517
 5439W        W 9639  10.832   7.140   8.881
 5440W        W 9640   6.442   2.804   8.977
 5441W        W 9641  10.120   0.749  10.581
 5442W        W 9642   6.804   6.092   1.305
 5443W        W 9643   9.506   3.290   2.271
 5444W        W 9644   5.249   5.806   2.362
 5445W        W 9645   7.302   0.441  10.069
 5446W        W 9646   8.915   0.806   2.397
 5447W        W 9647   3.667   3.597   0.712
 5448W        W 9648   0.214   3.065  10.239
 5449W        W 9649   0.433   8.680  10.883
 5450W        W 9650   7.571   6.456   3.563
 5451W        W 9651   1.303   7.859  10.902
 5452W        W 9652   3.991   1.013   0.462
 5453W        W 9653   9.502   2.777   9.904
 5454W        W 9654   7.284   1.006   0.273
 5455W        W 9655   6.798   0.756   8.407
 5456W        W 9656   5.502   3.760   1.837
 5457W        W 9657   9.535   1.367   1.307
 5458W        W 9658   0.504   7.054   8.993
 5459W        W 9659   0.225   8.709  10.376
 5460W        W 9660   0.297   3.867  11.151
 5461W        W 9661   1.425  10.878  11.778
 5462W        W 9662  10.756   9.354   2.253
 5463W        W 9663   2.111   8.416   3.203
 5464W        W 9664   1.637  10.360   2.179
 5465W        W 9665   4.634   8.133   9.694
 5466W        W 9666   9.478   6.895   9.887
 5467W        W 9667   3.704   5.458  10.329
 5468W        W 9668  11.375   6.049   0.040
 5469W        W 9669   3.353   7.202  10.976
 5470W        W 9670  10.882   8.555   8.649
 5471W        W 9671  10.732   6.986   0.404
 5472W        W 9672   3.323   9.131  11.069
 5473W        W 9673   1.657   9.627  11.451
 5474W        W 9674   5.890   1.519   9.805
 5475W        W 9675   4.904  10.384  10.181
 5476W        W 9676   1.287   5.727   0.381
 5477W        W 9677   2.148   1.753  11.557
 5478W        W 9678   9.838   0.617   3.029
 5479W        W 9679   7.700   9.049   9.908
 5480W        W 9680   7.137   7.135  10.541
 5481W        W 9681  11.480   9.856   8.690
 5482W        W 9682   1.354  10.430   9.974
 5483W        W 9683   5.508  10.785   2.460
 5484W        W 9684   5.004   7.971   3.350
 5485W        W 9685   3.255   0.189  11.465
 5486W        W 9686   2.261   7.476  10.355
 5487W        W 9687   1.484   4.243   2.383
 5488W        W 9688  10.485   2.466   9.957
 5489W        W 9689   4.961   6.408  11.716
 5490W        W 9690   7.079   1.758   1.141
 5491W        W 9691   0.408   0.339   0.517
 5492W        W 9692   8.365   7.200  11.023
 5493W        W 9693   2.359   3.060   2.794
 5494W        W 9694  10.573   6.006   2.191
 5495W        W 9695   4.296  11.377  11.524
 5496W        W 9696   2.405  10.179  11.532
 5497W        W 9697   0.966  11.479   8.553
 5498W        W 9698   9.417   0.782   2.132
 5499W        W 9699   7.680   6.606   8.665
 5500W        W 9700   6.575   8.594   3.830
 5501W        W 9701   2.373   0.385   9.161
 5502W        W 9702   8.491   5.055   9.630
 5503W        W 9703   3.721   0.850   2.087
 5504W        W 9704   1.711   0.352   1.645
 5505W        W 9705   4.271   2.261   9.291
 5506W        W 9706   0.367   8.027   9.115
 5507W        W 9707   9.978  10.024   0.726
 5508W        W 9708   0.416   3.370   1.480
 5509W        W 9709   4.222   0.019  11.000
 5510W        W 9710  11.123   1.417   2.333
 5511W        W 9711   5.098   7.018   1.059
 5512W        W 9712  11.492   5.592   1.421
 5513W        W 9713   1.384   7.062   0.141
 5514W        W 9714   1.411   3.735   1.025
 5515W        W 9715   3.300   7.629   0.794
 5516W        W 9716   6.112   1.725   3.504
 5517W        W 9717   8.421   8.495   3.652
 5518W        W 9718  10.043  10.386   3.537
 5519W        W 9719   9.527   7.733  10.412
 5520W        W 9720   8.048  10.990  10.084
 5521W        W 9721  10.869   8.689  10.018
 5522W        W 9722   2.497   4.317   2.149
 5523W        W 9723   8.682   8.536  11.754
 5524W        W 9724   2.389   6.064  10.438
 5525W        W 9725   2.827   8.928  10.772
 5526W        W 9726   7.129   5.740  11.350
 5527W        W 9727   2.866   9.338   0.297
 5528W        W 9728   5.116   9.081  11.467
 5529W        W 9729   3.439   0.220  10.983
 5530W        W 9730   4.627   4.562   0.497
 5531W        W 9731   0.639   0.527  10.848
 5532W        W 9732   8.414   7.857   3.089
 5533W        W 9733  10.394   5.595   0.910
 5534W        W 9734   1.854   5.690  11.645
 5535W        W 9735   2.035   4.681   9.885
 5536W        W 9736  11.046   5.302   1.951
 5537W        W 9737   4.849  10.456  11.452
 5538W        W 9738   4.408   4.070   3.253
 5539W        W 9739   7.280   2.262   8.810
 5540W        W 9740   3.683   1.829   1.665
 5541W        W 9741   8.396   4.153   9.255
 5542W        W 9742   7.866   3.260   0.250
 5543W        W 9743   4.379   3.265   3.668
 5544W        W 9744   9.039   5.046   1.455
 5545W        W 9745   4.251   7.017   8.760
 5546W        W 9746   7.773   0.915   0.454
 5547W        W 9747   6.104   4.572   1.321
 5548W        W 9748  10.367   6.432   9.988
 5549W        W 9749   5.857   9.402   0.324
 5550W        W 9750   4.178   1.382   0.826
 5551W        W 9751  11.219   9.845  10.188
 5552W        W 9752   7.220   9.537  10.371
 5553W        W 9753   6.024   4.282   2.621
 5554W        W 9754   4.924   2.346   2.672
 5555W        W 9755  10.349   9.487  10.292
 5556W        W 9756   2.609   9.895  11.039
 5557W        W 9757   1.414   1.719   3.132
 5558W        W 9758   5.552   5.381   2.267
 5559W        W 9759   4.869   7.106   1.516
 5560W        W 9760   0.359   1.307  11.298
 5561W        W 9761   5.577   4.641   9.015
 5562W        W 9762   5.921   6.497   9.450
 5563W        W 9763   0.244   6.775   2.087
 5564W        W 9764   9.913  10.496   1.236
 5565W        W 9765   2.308   3.350   1.317
 5566W        W 9766   4.951   9.107   8.549
 5567W        W 9767   8.536   3.863   1.750
 5568W        W 9768   1.512   4.816   2.685
 5569W        W 9769   6.228  11.469   1.384
 5570W        W 9770   1.862   6.947   3.173
 5571W        W 9771   3.160   3.605   0.770
 5572W        W 9772   7.686   9.209   1.301
 5573W        W 9773   7.877   8.077  10.222
 5574W        W 9774   9.578  11.392   0.978
 5575W        W 9775   6.755   6.555   9.945
 5576W        W 9776   3.046   5.527   2.459
 5577W        W 9777   7.330   8.567   2.788
 5578W        W 9778   3.396  10.926  10.807
 5579W        W 9779   8.044   1.320   1.257
 5580W        W 9780   5.928   3.067   0.323
 5581W        W 9781  11.273   1.043   3.560
 5582W        W 9782  10.312   3.711   1.712
 5583W        W 9783   4.619   3.364  10.020
 5584W        W 9784   8.505   7.660   9.041
 5585W        W 9785   7.719   5.243   8.513
 5586W        W 9786   1.720   3.148   2.262
 5587W        W 9787   3.138   7.032   9.878
 5588W        W 9788   2.276   2.450   1.679
 5589W        W 9789   9.503   7.398   9.957
 5590W        W 9790   7.486   0.238  11.146
 5591W        W 9791   6.628   2.337   1.384
 5592W        W 9792   8.635   7.638   9.891
 5593W        W 9793  10.974   3.595   0.463
 5594W        W 9794   3.596   2.340   0.477
 5595W        W 9795   8.134   6.600  11.286
 5596W        W 9796   6.946   0.327   1.119
 5597W        W 9797   0.922   5.723   8.988
 5598W        W 9798  10.283   5.658   2.441
 5599W        W 9799   4.206   6.922  11.326
 5600W        W 9800   0.080   0.787  10.861
 5601W        W 9801   1.460  11.364   0.859
 5602W        W 9802  10.011   0.302   9.112
 5603W        W 9803   2.247   1.920   8.717
 5604W        W 9804   1.375   1.434   1.792
 5605W        W 9805   9.139   9.950   3.133
 5606W        W 9806   8.628   1.164  11.023
 5607W        W 9807   9.304   2.674   2.546
 5608W        W 9808   9.180  11.466   0.206
 5609W        W 9809   7.519   8.767   9.139
 5610W        W 9810   2.779   1.585   1.500
 5611W        W 9811  10.797  10.573   3.015
 5612W        W 9812  10.487   8.169   3.442
 5613W        W 9813   8.374   7.925   1.374
 5614W        W 9814   2.129   0.655   2.798
 5615W        W 9815   6.441   1.177  11.210
 5616W        W 9816   7.221   6.484   1.735
 5617W        W 9817   5.404   5.267   9.538
 5618W        W 9818   0.133   1.626   2.731
 5619W        W 9819   3.188   2.809   9.914
 5620W        W 9820   3.011   4.711   2.988
 5621W        W 9821   2.048   5.141   0.667
 5622W        W 9822   6.039   9.376   9.602
 5623W        W 9823   9.025   5.118   2.394
 5624W        W 9824   8.459   0.406   1.244
 5625W        W 9825  10.341   6.454  11.012
 5626W        W 9826   7.082   8.440  11.054
 5627W        W 9827   4.047   4.754  10.704
 5628W        W 9828   2.325   7.720   8.960
 5629W        W 9829   6.562   3.079   4.142
 5630W        W 9830  11.218  11.058  11.061
 5631W        W 9831  11.500   3.455   9.075
 5632W        W 9832   2.999   8.370   9.025
 5633W        W 9833   6.233   9.345  11.986
 5634W        W 9834   2.251   2.818   9.831
 5635W        W 9835   9.886   6.149  11.458
 5636W        W 9836   8.698   6.599   1.776
 5637W        W 9837  10.432  10.459  10.795
 5638W        W 9838  10.049   4.086   0.894
 5639W        W 9839   7.022   0.781   3.166
 5640W        W 9840  10.414   4.502   2.870
 5641W        W 9841   8.756   2.307   1.810
 5642W        W 9842   9.206   3.795   9.407
 5643W        W 9843   5.484   5.038   9.986
 5644W        W 9844   6.941  10.772   2.363
 5645W        W 9845   3.517   7.729  11.948
 5646W        W 9846   0.247   2.747   1.525
 5647W        W 9847   1.827   8.185   2.005
 5648W        W 9848   9.146   9.064   9.778
 5649W        W 9849   1.197   4.815  11.486
 5650W        W 9850  11.378   9.816   9.204
 5651W        W 9851   8.591   9.345  10.626
 5652W        W 9852   7.968   2.313  10.780
 5653W        W 9853   0.497   8.032  11.828
 5654W        W 9854   4.454   2.813  10.650
 5655W        W 9855   8.925   1.574  11.184
 5656W        W 9856   3.487   3.799   1.174
 5657W        W 9857   6.444   3.529   0.870
 5658W        W 9858   6.579   2.843   1.362
 5659W        W 9859  10.446   3.293  10.617
 5660W        W 9860   3.709   8.287  11.288
 5661W        W 9861   4.118   6.574   0.771
 5662W        W 9862   4.738   0.314  10.339
 5663W        W 9863   9.930   0.112  11.248
 5664W        W 9864  10.981  11.237   9.934
 5665W        W 9865   0.814   5.056   3.235
 5666W        W 9866  10.078   1.356   2.463
 5667W        W 9867   8.882   4.171   0.257
 5668W        W 9868   0.811   9.898   3.247
 5669W        W 9869  10.855   9.675   2.666
 5670W        W 9870   3.435   3.145   0.883
 5671W        W 9871  11.016   7.000   3.582
 5672W        W 9872   1.304   2.354   2.780
 5673W        W 9873   2.185  10.833   1.363
 5674W        W 9874   7.107  10.310   2.466
 5675W        W 9875   3.420  11.073   9.926
 5676W        W 9876   2.226   3.328   9.647
 5677W        W 9877   3.487   3.981  10.620
 5678W        W 9878   1.892   5.540   9.364
 5679W        W 9879   8.660   5.195   2.873
 5680W        W 9880   5.544   7.349   9.782
 5681W        W 9881   4.309   7.501   0.756
 5682W        W 9882   0.951   2.696   2.658
 5683W        W 9883   0.209   6.836  10.510
 5684W        W 9884   5.459   4.101   4.051
 5685W        W 9885   8.183   8.071   8.966
 5686W        W 9886   8.886   5.466  10.221
 5687W        W 9887   7.476   2.372  10.501
 5688W        W 9888   7.706  11.234   9.780
 5689W        W 9889   0.207   5.218   8.995
 5690W        W 9890   1.892   6.995   1.464
 5691W        W 9891   0.931   5.268   2.160
 5692W        W 9892   7.634   0.565   1.775
 5693W        W 9893  11.419   5.691   9.945
 5694W        W 9894   2.618  11.256   9.515
 5695W        W 9895  10.861   7.165  10.000
 5696W        W 9896   3.740   4.750   2.260
 5697W        W 9897   4.680   9.932   0.494
 5698W        W 9898   7.867   1.541  11.931
 5699W        W 9899   0.748   0.430   8.671
 5700W        W 9900  11.317   0.041  11.290
 5701W        W 9901   0.469   8.007   0.621
 5702W        W 9902  10.237  11.352  10.319
 5703W        W 9903   1.443   4.243   0.230
 5704W        W 9904   4.927   1.311   3.274
 5705W        W 9905   7.670   8.986  10.919
 5706W        W 9906   6.890   8.851   8.518
 5707W        W 9907   3.680   5.490  10.850
 5708W        W 9908   4.939   4.330  10.498
 5709W        W 9909   0.385   8.781   0.329
 5710W        W 9910   6.948   4.585  10.335
 5711W        W 9911   8.222   9.596   8.787
 5712W        W 9912   5.013   2.911  10.634
 5713W        W 9913   9.784   4.599  10.611
 5714W        W 9914  11.148   8.475  10.420
 5715W        W 9915   4.460   7.995   1.892
 5716W        W 9916   6.422   1.321   1.239
 5717W        W 9917   1.436   9.074   1.205
 5718W        W 9918   9.918   6.446   3.581
 5719W        W 9919   1.321   7.154   2.326
 5720W        W 9920   8.054   4.140   1.094
 5721W        W 9921   4.798   5.248   1.868
 5722W        W 9922   0.396   3.478   9.421
 5723W        W 9923   6.946   1.697   2.112
 5724W        W 9924   4.411  10.294   0.943
 5725W        W 9925  10.030   8.087   9.822
 5726W        W 9926  10.295   3.975  11.987
 5727W        W 9927   8.409   6.168   1.707
 5728W        W 9928  11.283   3.410   0.863
 5729W        W 9929   4.457   6.320   1.134
 5730W        W 9930   0.029   8.551   0.648
 5731W        W 9931   8.831   1.165   3.382
 5732W        W 9932   3.874   7.108   1.490
 5733W        W 9933   9.039   4.311   0.725
 5734W        W 9934   7.750   1.469   1.660
 5735W        W 9935  11.335  10.115  11.618
 5736W        W 9936   4.179   5.061   2.342
 5737W        W 9937   8.929   7.557   1.678
 5738W        W 9938   3.170   7.709   9.429
 5739W        W 9939   2.294   4.783   0.967
 5740W        W 9940   1.412  11.445   8.813
 5741W        W 9941   1.432  11.324  11.555
 5742W        W 9942   7.133   2.943   8.823
 5743W        W 9943  11.186   9.275  11.000
 5744W        W 9944   0.426   3.740   3.229
 5745W        W 9945   1.023   8.494  10.324
 5746W        W 9946   8.799   6.001   8.326
 5747W        W 9947   6.353   0.806  10.685
 5748W        W 9948   5.517   3.720   8.133
 5749W        W 9949   9.545   8.645   3.252
 5750W        W 9950   5.909   3.383   1.881
 5751W        W 9951   2.278   8.425  10.285
 5752W        W 9952   5.690   9.066   3.560
 5753W        W 9953   3.623   1.891   9.504
 5754W        W 9954   1.342   4.720   2.193
 5755W        W 9955   6.086   8.320   2.699
 5756W        W 9956  10.376   6.595   3.381
 5757W        W 9957   0.302  10.557   9.159
 5758W        W 9958   9.572   5.542   1.129
 5759W        W 9959   8.521   0.973   2.079
 5760W        W 9960   2.895   7.872   1.325
 5761W        W 9961   0.066  10.565  11.749
 5762W        W 9962   5.188   0.958  11.446
 5763W        W 9963   9.072   7.604   2.662
 5764W        W 9964   2.273   0.856  10.848
 5765W        W 9965   6.295  10.508  10.768
 5766W        W 9966   3.518   3.793   3.557
 5767W        W 9967  10.580   9.987  10.989
 5768W        W 9968   6.148   1.754  11.012
 5769W        W 9969   8.107   7.680  11.188
 5770W        W 9970   2.254   8.892  11.032
 5771W        W 9971   8.932   6.025   0.798
 5772W        W 9972  10.174   4.250  10.615
 5773W        W 9973   3.274   9.085   9.064
 5774W        W 9974  10.504   9.058   8.837
 5775W        W 9975  10.053   9.011   2.181
 5776W        W 9976  10.308   5.416  10.600
 5777W        W 9977   1.681   3.803   2.841
 5778W        W 9978  11.282  10.270   0.627
 5779W        W 9979   1.948  11.439   1.838
 5780W        W 9980   4.519  10.916  11.446
 5781W        W 9981   2.771   2.064   9.035
 5782W        W 9982   6.157   9.086   2.311
 5783W        W 9983   8.957   0.400   2.714
 5784W        W 9984   9.544   6.447   9.606
 5785W        W 9985   1.373   3.833  10.954
 5786W        W 9986   7.419   7.606  11.722
 5787W        W 9987   0.981   3.676  10.388
 5788W        W 9988   4.892   7.195   0.577
 5789W        W 9989  10.433  10.776   2.452
 5790W        W 9990   3.311   3.747   9.774
 5791W        W 9991   1.797  11.328   3.633
 5792W        W 9992   7.228   7.511   0.966
 5793W        W 9993   3.128  10.804  11.292
 5794W        W 9994   0.304  10.059   1.386
 5795W        W 9995   8.625   1.978   1.453
 5796W        W 9996   5.166   1.942  10.949
 5797W        W 9997   4.695   6.056  10.764
 5798W        W 9998  10.068   7.590   1.352
 5799W        W 9999   2.255   9.833   2.566
 5800W        W10000  10.359   4.958   8.840
 5801W        W10001   4.682  10.558   1.804
 5802W        W10002   6.990   0.376   0.128
 5803W        W10003   0.590  11.328  11.739
 5804W        W10004   9.206   5.215  11.327
 5805W        W10005   8.031   5.665   8.676
 5806W        W10006   8.568  11.036   1.775
 5807W        W10007   2.514   4.762   2.867
 5808W        W10008   3.737   3.087   9.044
 5809W        W10009   3.576   9.530   3.628
 5810W        W10010   2.593   9.340   0.731
 5811W        W10011   2.665   4.301  10.274
 5812W        W10012   3.698   4.240   2.163
 5813W        W10013   8.459   9.573   0.155
 5814W        W10014   7.716   6.446   9.157
 5815W        W10015   1.907   0.980   0.736
 5816W        W10016   8.991  10.878   2.522
 5817W        W10017   2.838   5.562  10.768
 5818W        W10018  10.883  10.529   0.861
 5819W        W10019   5.651  10.134   9.836
 5820W        W10020   5.652   9.501   3.266
 5821W        W10021   6.546   1.243   2.357
 5822W        W10022   6.102   1.491   8.981
 5823W        W10023   0.868   4.847   8.508
 5824W        W10024   8.696   4.738   9.275
 5825W        W10025   6.213   1.635   3.011
 5826W        W10026   6.666   0.582  11.763
 5827W        W10027   4.689   1.311   0.800
 5828W        W10028   9.448   8.777  10.832
 5829W        W10029   2.679   9.140  11.217
 5830W        W10030   3.647   2.365   1.951
 5831W        W10031   0.026   8.938   2.376
 5832W        W10032   1.815   8.705   1.931
 5833W        W10033   8.945   8.444  11.036
 5834W        W10034   8.060   4.791   1.717
 5835W        W10035   7.103   6.496   1.183
 5836W        W10036   5.967   8.486   0.319
 5837W        W10037   9.906   1.859   2.499
 5838W        W10038   8.644   6.468   9.104
 5839W        W10039   6.225   3.652   3.148
 5840W        W10040   2.648   8.844   1.391
 5841W        W10041   3.653   9.937   1.351
 5842W        W10042   0.874   4.599  11.799
 5843W        W10043  11.411   3.661  11.465
 5844W        W10044  10.489   5.703  11.925
 5845W        W10045   7.500   4.085   9.805
 5846W        W10046   7.919   7.937   3.191
 5847W        W10047   1.451   9.887   9.276
 5848W        W10048  10.511   0.024   2.803
 5849W        W10049   2.241  10.658   0.874
 5850W        W10050   2.886   3.436  11.356
 5851W        W10051  11.407   1.068  11.299
 5852W        W10052   8.295   3.742   0.839
 5853W        W10053   5.226   9.764   1.197
 5854W        W10054   0.333   7.493   9.288
 5855W        W10055  10.408   4.219   1.793
 5856W        W10056   8.919   0.127   8.763
 5857W        W10057   0.377   8.361   1.478
 5858W        W10058  10.797   1.825   1.260
 5859W        W10059   1.162  10.331   2.319
 5860W        W10060  10.069   3.254  11.439
 5861W        W10061   6.418   7.833  10.899
 5862W        W10062   6.063   4.334   0.854
 5863W        W10063   6.641   1.290   0.433
 5864W        W10064   7.988   4.255  11.109
 5865W        W10065   8.719   5.821  10.549
 5866W        W10066   7.415   8.290  10.061
 5867W        W10067   8.937   8.073   9.901
 5868W        W10068   6.733  11.415   1.352
 5869W        W10069   1.628   6.157   9.526
 5870W        W10070   1.688   0.940  10.146
 5871W        W10071   1.651   2.504   3.558
 5872W        W10072   6.848   1.405   1.495
 5873W        W10073   5.219   2.157  11.856
 5874W        W10074  11.364   0.393  11.729
 5875W        W10075   2.116   9.111   1.994
 5876W        W10076   8.906   8.515   2.195
 5877W        W10077   3.890   7.021   3.265
 5878W        W10078  10.804   5.874   3.607
 5879W        W10079   2.508   7.046  10.494
 5880W        W10080  10.464   5.633   1.415
 5881W        W10081   3.206   5.618  11.525
 5882W        W10082   7.937   7.007   9.570
 5883W        W10083   6.673   0.376   3.051
 5884W        W10084   9.469   3.283   8.445
 5885W        W10085   4.706   7.040   9.014
 5886W        W10086   5.088   7.161  10.985
 5887W        W10087   8.328   4.818   2.176
 5888W        W10088  11.336   4.800   0.296
 5889W        W10089   2.377   8.636   2.811
 5890W        W10090   6.469   8.011   8.670
 5891W        W10091  11.048   2.828   1.854
 5892W        W10092   6.529   8.476   9.901
 5893W        W10093   5.562   3.280   9.799
 5894W        W10094  10.521   5.547  11.030
 5895W        W10095  10.287   0.285   1.349
 5896W        W10096   3.421  10.188   0.654
 5897W        W10097   4.918   1.153  10.525
 5898W        W10098   2.661  10.975  11.258
 5899W        W10099   7.532  10.181  11.920
 5900W        W10100   2.117   6.661   0.358
 5901W        W10101  10.460   1.052   9.699
 5902W        W10102   7.337   8.321   1.436
 5903W        W10103   2.569   8.827  10.343
 5904W        W10104   2.700   5.810   1.610
 5905W        W10105   7.551   9.555   2.794
 5906W        W10106   8.643   3.282   2.660
 5907W        W10107   6.492  11.419   2.882
 5908W        W10108   5.290   4.762   9.418
 5909W        W10109   1.689   9.739  10.099
 5910W        W10110   0.295   7.548   2.725
 5911W        W10111   2.852  10.407   1.405
 5912W        W10112  10.403   3.814   1.219
 5913W        W10113   6.218   8.167   9.087
 5914W        W10114   9.508   0.224   0.581
 5915W        W10115   6.069   7.036   1.692
 5916W        W10116   4.482  10.498  10.589
 5917W        W10117   0.360  11.024   8.957
 5918W        W10118  11.070   1.819   0.800
 5919W        W10119   3.374   9.778   0.957
 5920W        W10120   5.425   1.051  10.439
 5921W        W10121   6.570   9.533   1.628
 5922W        W10122   6.217   1.855   8.409
 5923W        W10123   0.292   8.470   8.796
 5924W        W10124   1.668   3.136  11.941
 5925W        W10125   9.051   8.508   3.237
 5926W        W10126   4.653   8.747   9.785
 5927W        W10127   9.282   2.841   8.978
 5928W        W10128   7.250  11.463   1.330
 5929W        W10129   6.307   8.828   0.026
 5930W        W10130   9.435   6.140   8.742
 5931W        W10131   9.999   4.569   1.800
 5932W        W10132   1.747   1.985   3.557
 5933W        W10133   1.054   2.312   3.588
 5934W        W10134  11.271   9.460  10.521
 5935W        W10135   2.610   1.101   8.802
 5936W        W10136  10.889   4.720   9.961
 5937W        W10137   2.130   6.803  10.755
 5938W        W10138   7.138   7.953  11.966
 5939W        W10139   1.436  10.876  10.748
 5940W        W10140   9.260   7.488  11.921
 5941W        W10141   4.242   8.464   1.820
 5942W        W10142  10.013   5.782   1.219
 5943W        W10143   4.482  10.652   2.284
 5944W        W10144  10.078   2.655  11.961
 5945W        W10145   2.779   8.595   1.964
 5946W        W10146  10.507   4.563  10.286
 5947W        W10147   7.409   9.876  10.992
 5948W        W10148   4.166  11.121   2.240
 5949W        W10149   8.213   8.591   0.839
 5950W        W10150   8.963   6.766   0.493
 5951W        W10151   6.714   1.871   9.813
 5952W        W10152   1.602   0.666   0.416
 5953W        W10153   9.149   6.717   2.692
 5954W        W10154   9.000   7.398   0.819
 5955W        W10155   7.112   5.564   9.960
 5956W        W10156   2.633   9.915   1.369
 5957W        W10157  11.314   0.661   0.164
 5958W        W10158   7.124   2.532   0.254
 5959W        W10159   5.306   5.239   1.489
 5960W        W10160   5.219   0.220  10.176
 5961W        W10161  11.023   8.884   2.317
 5962W        W10162   0.690   9.250   8.822
 5963W        W10163   7.503   1.833   2.476
 5964W        W10164  10.985   5.977   8.961
 5965W        W10165   2.717  11.401   2.904
 5966W        W10166   0.693   4.120  11.533
 5967W        W10167   8.901   5.586  11.028
 5968W        W10168  11.179   7.216  11.489
 5969W        W10169   5.786   6.986  10.071
 5970W        W10170   9.199   2.331   3.492
 5971W        W10171   1.763  11.298   2.296
 5972W        W10172   6.928   2.245  10.092
 5973W        W10173  10.455   7.519   8.891
 5974W        W10174   0.902   0.219   1.655
 5975W        W10175   8.602   8.985  11.477
 5976W        W10176   1.412   9.804   2.006
 5977W        W10177   4.265   4.336   2.823
 5978W        W10178  10.064   5.074   1.950
 5979W        W10179  10.386  11.065  11.598
 5980W        W10180  10.616   3.162   2.877
 5981W        W10181  10.977   7.674  10.798
 5982W        W10182   7.030   7.136  11.050
 5983W        W10183   9.359   9.533  11.684
 5984W        W10184  10.601   8.005   0.908
 5985W        W10185   5.055   5.228  10.953
 5986W        W10186   1.597   1.957   2.641
 5987W        W10187   1.458   4.506   1.085
 5988W        W10188   9.248   7.070  11.524
 5989W        W10189   0.187   9.449   2.611
 5990W        W10190   1.074   6.675   0.319
 5991W        W10191  11.423   1.512  11.554
 5992W        W10192   6.242   8.965   9.373
 5993W        W10193   3.734  10.831   2.287
 5994W        W10194   6.157   5.709  11.744
 5995W        W10195   5.549   1.858   2.678
 5996W        W10196   2.505   8.964   9.462
 5997W        W10197  10.032  10.954   0.437
 5998W        W10198   9.972   8.518   3.513
 5999W        W10199   7.148   6.958   3.414
 6000W        W10200   4.210  10.017  10.282
 6001W        W10201   3.311  10.341  11.319
 6002W        W10202   3.024   6.221   1.603
 6003W        W10203   2.831   0.397   2.929
 6004W        W10204   6.143  11.003  11.935
 6005W        W10205   8.000   6.099   2.000
 6006W        W10206   4.546   4.320  11.361
 6007W        W10207   5.042   0.181   0.753
 6008W        W10208   4.068   9.683  11.065
 6009W        W10209   9.953   8.535   2.971
 6010W        W10210   5.133   3.604   3.213
 6011W        W10211  10.428   1.951  10.035
 6012W        W10212   2.703   5.470   3.582
 6013W        W10213   7.667   9.860  10.515
 6014W        W10214   8.269   5.582   1.201
 6015W        W10215   3.872   0.764  11.761
 6016W        W10216   1.051   7.019   3.650
 6017W        W10217   2.282   7.932   3.251
 6018W        W10218   0.623   8.046   3.710
 6019W        W10219   7.915   1.431   9.757
 6020W        W10220   1.354   2.525   8.773
 6021W        W10221   8.266   8.066  10.548
 6022W        W10222  10.857   0.968   2.226
 6023W        W10223   0.496   1.903   1.003
 6024W        W10224   9.378   9.621   9.420
 6025W        W10225   7.928   5.176   2.267
 6026W        W10226   8.796   4.597   2.270
 6027W        W10227   5.128   3.723   0.206
 6028W        W10228   9.293   7.122   2.359
 6029W        W10229   8.370   0.456   9.426
 6030W        W10230   7.901  11.251   0.764
 6031W        W10231   1.007   7.299  10.932
 6032W        W10232   9.142   5.152   9.892
 6033W        W10233   6.534  10.259   0.317
 6034W        W10234   6.991   3.613   2.683
 6035W        W10235   6.205  11.431   1.884
 6036W        W10236   6.066   9.474   3.572
 6037W        W10237   1.497   8.898   3.590
 6038W        W10238   5.516   9.559   0.784
 6039W        W10239  11.015   3.233   9.118
 6040W        W10240   0.711   6.514   3.494
 6041W        W10241   0.008   5.350  11.233
 6042W        W10242   2.721   4.023   2.511
 6043W        W10243   9.777   3.085   0.022
 6044W        W10244   7.096   4.444  10.834
 6045W        W10245   3.802   6.973   0.618
 6046W        W10246   7.432   6.578   2.240
 6047W        W10247  11.038  10.957   9.524
 6048W        W10248   6.993   8.623  11.539
 6049W        W10249   4.627   7.207   1.039
 6050W        W10250   1.731   0.306   2.148
 6051W        W10251   5.504   4.549   9.834
 6052W        W10252  10.399   3.056  11.086
 6053W        W10253  10.189   7.047   1.405
 6054W        W10254   2.434   8.625   9.852
 6055W        W10255   8.428   0.306  10.994
 6056W        W10256  10.920   5.387   3.472
 6057W        W10257  10.596   1.381   2.416
 6058W        W10258   9.598   8.231   0.892
 6059W        W10259   3.636   9.484  11.305
 6060W        W10260   6.597   0.347  10.561
 6061W        W10261   3.655   5.771   9.914
 6062W        W10262   6.975   1.752  11.760
 6063W        W10263   9.850   8.144  10.330
 6064W        W10264  10.376   3.986   2.570
 6065W        W10265   8.248   2.185   2.779
 6066W        W10266  10.224   2.186  11.409
 6067W        W10267   2.406  10.495   3.117
 6068W        W10268   3.801   9.800  10.079
 6069W        W10269   8.639   0.956   8.598
 6070W        W10270   2.597   4.872   1.789
 6071W        W10271   6.050   3.256   2.864
 6072W        W10272   2.693   3.396   9.432
 6073W        W10273  10.019   7.676  10.621
 6074W        W10274   6.912   5.873  10.905
 6075W        W10275   5.940  10.818   2.201
 6076W        W10276   4.488   7.669   1.251
 6077W        W10277   9.613  11.058   1.417
 6078W        W10278   5.939   5.041   2.235
 6079W        W10279   9.943   2.257   9.287
 6080W        W10280   4.563   4.485   4.058
 6081W        W10281   9.077   8.232   0.963
 6082W        W10282   6.069   8.493  10.768
 6083W        W10283  10.177  10.369   2.150
 6084W        W10284   6.269   8.486   8.669
 6085W        W10285   7.684   3.482   1.177
 6086W        W10286   1.840   1.733   2.223
 6087W        W10287   3.127  11.350   9.599
 6088W        W10288   8.967   0.683  11.751
 6089W        W10289   0.784   9.285   9.830
 6090W        W10290   9.351   4.739   0.813
 6091W        W10291   2.214   5.742   1.450
 6092W        W10292   0.765   4.312   9.085
 6093W        W10293   8.914   3.917   8.998
 6094W        W10294   0.277   9.787   0.413
 6095W        W10295   1.870   7.740   8.655
 6096W        W10296   4.838   8.934   1.024
 6097W        W10297  10.881   5.043   9.555
 6098W        W10298   7.380   9.642   9.292
 6099W        W10299   4.334   9.456   2.477
 6100W        W10300  11.083   4.311   1.033
 6101W        W10301   0.894   4.189   2.178
 6102W        W10302   5.788   6.167  10.234
 6103W        W10303   3.458   9.520   9.844
 6104W        W10304   9.945   1.716   1.540
 6105W        W10305   9.498   5.370   0.158
 6106W        W10306   2.844   5.737   0.710
 6107W        W10307   6.981   4.736  11.654
 6108W        W10308   8.771   8.581   1.718
 6109W        W10309   3.891   9.829   0.887
 6110W        W10310   9.566   3.747  11.357
 6111W        W10311   3.672   0.242  10.524
 6112W        W10312   4.624   6.990  11.045
 6113W        W10313   7.836   0.873  11.244
 6114W        W10314   8.487  11.280  10.037
 6115W        W10315   2.781  10.649   0.178
 6116W        W10316   8.961   2.831  10.602
 6117W        W10317   4.447  10.907   3.469
 6118W        W10318  10.351  10.629  11.298
 6119W        W10319   3.736   8.089   0.299
 6120W        W10320   2.832   8.194  11.489
 6121W        W10321   4.693   3.298  10.535
 6122W        W10322   1.162   8.964   9.738
 6123W        W10323  10.128   1.449  11.346
 6124W        W10324   6.248   1.364   9.482
 6125W        W10325   0.489   7.839  10.413
 6126W        W10326   3.111   8.919   0.458
 6127W        W10327   3.341   0.431   0.518
 6128W        W10328   5.194   8.160   9.410
 6129W        W10329  11.216   2.780   9.339
 6130W        W10330   9.332  10.511   2.317
 6131W        W10331   9.021  10.481   3.329
 6132W        W10332   0.344   8.845  11.368
 6133W        W10333   2.171   2.394   9.534
 6134W        W10334   8.024   0.377   1.483
 6135W        W10335   9.704  11.461   9.431
 6136W        W10336   1.703   4.814  11.537
 6137W        W10337   1.921  10.548   1.795
 6138W        W10338   8.140   8.920   0.341
 6139W        W10339   6.256   6.628   1.930
 6140W        W10340   4.210   4.622  11.756
 6141W        W10341   7.090   8.919   0.617
 6142W        W10342   4.207   2.749   3.611
 6143W        W10343   2.984   3.726   3.651
 6144W        W10344   3.729   8.846   9.217
 6145W        W10345   6.440   0.465   0.208
 6146W        W10346   6.136  11.285   2.356
 6147W        W10347   5.170   6.590   0.678
 6148W        W10348   5.190  11.037   2.764
 6149W        W10349   2.740   0.204  10.436
 6150W        W10350   7.708  10.768   2.150
 6151W        W10351   8.136  11.031   1.428
 6152W        W10352   5.463   8.035  10.760
 6153W        W10353  10.282   1.292   0.703
 6154W        W10354   5.514   8.545   3.799
 6155W        W10355   9.534   2.508   0.588
 6156W        W10356   5.188   4.471   2.847
 6157W        W10357   0.916   3.175   3.615
 6158W        W10358   2.374  11.146   0.965
 6159W        W10359   3.642   6.905  10.662
 6160W        W10360   6.603   5.611  10.098
 6161W        W10361   6.434   2.388  11.450
 6162W        W10362   1.965   8.472  10.909
 6163W        W10363   1.191   9.431   9.490
 6164W        W10364   6.302   7.171   0.444
 6165W        W10365   8.852   1.681   0.183
 6166W        W10366   9.788   2.833   2.342
 6167W        W10367   4.026   4.626   1.397
 6168W        W10368   5.450  10.068   2.897
 6169W        W10369   6.306  10.299   8.987
 6170W        W10370   7.037  10.965   9.049
 6171W        W10371   5.739   2.836   2.877
 6172W        W10372   1.162   1.679  11.747
 6173W        W10373  11.496   9.098  11.953
 6174W        W10374   7.877   5.461  11.902
 6175W        W10375   5.579   7.122  11.128
 6176W        W10376   4.280   2.053   8.797
 6177W        W10377   6.161   6.477   1.462
 6178W        W10378   3.276  10.011   2.790
 6179W        W10379   0.720   1.139   0.194
 6180W        W10380   0.289  10.049   9.042
 6181W        W10381   7.149   9.983   9.597
 6182W        W10382  10.920   6.228   2.503
 6183W        W10383   6.646  10.345   2.217
 6184W        W10384  10.854   3.443   9.625
 6185W        W10385   7.938   1.299  10.256
 6186W        W10386   9.829   4.227   9.805
 6187W        W10387   7.293   0.726   2.312
 6188W        W10388   0.895   7.999   2.516
 6189W        W10389  10.379   9.897   9.983
 6190W        W10390   3.725   6.486   0.362
 6191W        W10391   5.367   5.501   2.758
 6192W        W10392   1.861   4.092   1.358
 6193W        W10393   9.102  10.736   8.952
 6194W        W10394  10.017   1.811   9.030
 6195W        W10395  10.294   0.727   3.318
 6196W        W10396   1.346   6.586  11.347
 6197W        W10397   6.517   1.754   9.292
 6198W        W10398   9.321   0.468   8.749
 6199W        W10399   6.610  10.536   9.669
 6200W        W10400   1.812   8.569  10.419
 6201W        W10401   6.569   4.198   0.251
 6202W        W10402   0.706   4.557   3.421
 6203W        W10403   9.317   4.143  11.991
 6204W        W10404   6.718   9.445   1.155
 6205W        W10405   9.949  10.581   1.746
 6206W        W10406   2.121   7.590   0.255
 6207W        W10407   8.887   1.005   2.885
 6208W        W10408   8.530  10.401   3.157
 6209W        W10409   6.970  11.447  11.872
 6210W        W10410   3.403   9.896   1.804
 6211W        W10411   6.204   8.600   0.858
 6212W        W10412  11.207   7.914  10.361
 6213W        W10413  11.278   0.870   3.048
 6214W        W10414   7.728   0.751  10.028
 6215W        W10415   8.143   5.413   0.744
 6216W        W10416   9.077   5.679   1.134
 6217W        W10417   6.127   7.568   3.617
 6218W        W10418   8.838   1.438   0.893
 6219W        W10419   5.971  11.345  10.378
 6220W        W10420   5.958   8.083   8.624
 6221W        W10421   8.464   7.404   2.318
 6222W        W10422   4.580   0.059  11.994
 6223W        W10423  10.006   3.312   2.270
 6224W        W10424   8.712   8.392   9.583
 6225W        W10425  11.340   3.188   2.139
 6226W        W10426   0.700   1.655   0.028
 6227W        W10427   4.890   2.295   0.629
 6228W        W10428   9.337   8.346   3.652
 6229W        W10429  10.283   2.686  11.445
 6230W        W10430  10.578   8.097   9.152
 6231W        W10431   8.595   8.765   3.264
 6232W        W10432   0.949  10.299  11.855
 6233W        W10433   8.193   5.963  10.480
 6234W        W10434   2.195   9.933   3.686
 6235W        W10435   3.623   7.239   0.075
 6236W        W10436   4.752   9.931  11.445
 6237W        W10437   0.367  10.296  10.501
 6238W        W10438   9.291   0.566  10.939
 6239W        W10439   5.050   1.858   2.777
 6240W        W10440   2.007  10.232   0.728
 6241W        W10441   0.993   6.065  10.785
 6242W        W10442   4.910   7.530   3.063
 6243W        W10443   5.446   0.492   3.240
 6244W        W10444   7.929   0.492  10.886
 6245W        W10445   4.564   3.213   1.691
 6246W        W10446   2.259   6.737   1.795
 6247W        W10447   9.339   1.433   0.021
 6248W        W10448   3.789   0.346   1.913
 6249W        W10449   7.490   3.575  10.009
 6250W        W10450   4.541   7.513  11.813
 6251W        W10451   4.607   3.890  10.027
 6252W        W10452   5.750   5.654   9.528
 6253W        W10453   8.890  10.285  11.518
 6254W        W10454   5.469   1.369  11.504
 6255W        W10455   5.202   0.478   9.747
 6256W        W10456  11.459   6.889   2.658
 6257W        W10457   1.911   8.108  11.318
 6258W        W10458   5.989   5.343   0.749
 6259W        W10459  10.904   7.301  10.484
 6260W        W10460   5.660   8.071   1.523
 6261W        W10461   0.896  10.997   2.706
 6262W        W10462   0.810   6.388  11.988
 6263W        W10463   1.337  11.225   2.737
 6264W        W10464   7.302   6.901   1.418
 6265W        W10465   4.752   9.324  11.217
 6266W        W10466   8.903   9.011   2.045
 6267W        W10467   8.597   4.567   0.394
 6268W        W10468   8.899   4.232   1.691
 6269W        W10469   7.865   3.545   3.664
 6270W        W10470   5.630   8.020   0.988
 6271W        W10471   0.868   9.677  11.032
 6272W        W10472   9.900  11.450   2.163
 6273W        W10473   1.822   0.392   3.116
 6274W        W10474   9.065   6.238  11.147
 6275W        W10475   9.869  10.441  10.596
 6276W        W10476   7.833   5.602   2.586
 6277W        W10477  11.332   6.508   2.305
 6278W        W10478   0.153   2.184  10.318
 6279W        W10479   3.537   4.253  11.494
 6280W        W10480  10.499   0.383  10.437
 6281W        W10481   9.673   0.716   1.678
 6282W        W10482   3.978   3.650   1.204
 6283W        W10483   2.614   6.195   0.767
 6284W        W10484  11.088   4.720  11.840
 6285W        W10485   1.650   4.811   0.507
 6286W        W10486   4.167  10.552  11.012
 6287W        W10487   1.643   1.834   8.516
 6288W        W10488   3.686   8.349   9.419
 6289W        W10489   1.406  10.724   2.534
 6290W        W10490   4.288  10.346   9.587
 6291W        W10491   7.287   3.698   3.162
 6292W        W10492   1.207   4.561   0.627
 6293W        W10493   7.598  10.358  11.441
 6294W        W10494   8.998   9.814   9.119
 6295W        W10495   3.301   2.102   0.863
 6296W        W10496   4.194   2.008   2.227
 6297W        W10497   3.382   1.798  10.793
 6298W        W10498   1.353   8.037   2.286
 6299W        W10499   3.100   4.269   9.132
 6300W        W10500   7.140   3.045   1.926
 6301W        W10501   2.705   9.040   2.832
 6302W        W10502   7.663   3.652   9.499
 6303W        W10503  10.938  11.053   3.156
 6304W        W10504   7.714   0.386  10.410
 6305W        W10505   2.323   4.358   2.634
 6306W        W10506   8.391   2.898   9.504
 6307W        W10507   3.368   4.445   8.490
 6308W        W10508   9.161   6.775   3.993
 6309W        W10509   6.691   2.829  10.056
 6310W        W10510   7.886   1.019   8.898
 6311W        W10511   3.874   6.488  10.449
 6312W        W10512   5.700   1.866   1.114
 6313W        W10513   9.563   1.877   9.327
 6314W        W10514   8.954  11.221   9.098
 6315W        W10515   1.362   0.729   2.986
 6316W        W10516   2.677   8.698  11.530
 6317W        W10517   6.853  10.064   3.095
 6318W        W10518   6.922   1.944   9.000
 6319W        W10519   3.639   9.380  10.330
 6320W        W10520   9.446   0.525   3.420
 6321W        W10521   5.046   4.646   8.178
 6322W        W10522   9.996   2.335   0.362
 6323W        W10523   2.148   4.608   1.890
 6324W        W10524   6.758   8.369   8.456
 6325W        W10525  10.642   6.082  10.277
 6326W        W10526   7.482   1.250  10.032
 6327W        W10527   4.123   1.888   9.620
 6328W        W10528   5.953   9.130   8.994
 6329W        W10529   1.369   3.589   8.991
 6330W        W10530   9.570   6.086  11.042
 6331W        W10531   1.085   4.517   2.585
 6332W        W10532   1.737   3.922   8.918
 6333W        W10533   1.924   2.106   1.381
 6334W        W10534   3.731   3.131  10.809
 6335W        W10535   5.646   1.006   0.841
 6336W        W10536   9.414   0.829  11.363
 6337W        W10537   5.503   7.037   1.383
 6338W        W10538   3.620   9.550  11.876
 6339W        W10539  10.421   7.111   3.253
 6340W        W10540   0.149   2.420   3.271
 6341W        W10541  10.392   4.053   3.090
 6342W        W10542   9.428   3.179   3.262
 6343W        W10543   0.923   4.051   2.670
 6344W        W10544   8.189   3.844   2.931
 6345W        W10545   7.913   7.993   0.108
 6346W        W10546   0.751   4.689   0.907
 6347W        W10547   8.163   2.372   9.335
 6348W        W10548   5.612   4.734   1.997
 6349W        W10549   3.901   8.945   0.968
 6350W        W10550   8.901   6.013   1.851
 6351W        W10551   6.706   0.892   9.809
 6352W        W10552   8.802   3.453  11.990
 6353W        W10553   6.562   2.589   0.919
 6354W        W10554   6.929   6.019   1.810
 6355W        W10555   9.530   8.634   9.435
 6356W        W10556   1.302  10.728   0.429
 6357W        W10557   3.716   8.391  10.787
 6358W        W10558   0.806   1.779   9.922
 6359W        W10559   1.807   9.341   0.322
 6360W        W10560   2.363   5.234  10.002
 6361W        W10561   9.331   1.685   0.877
 6362W        W10562   9.850   0.171   2.766
 6363W        W10563   9.436  11.041   9.257
 6364W        W10564   1.970   2.755   3.233
 6365W        W10565   9.323   1.087   1.714
 6366W        W10566  10.416   5.948   9.020
 6367W        W10567   3.088   1.123   9.699
 6368W        W10568   8.452   7.494   0.394
 6369W        W10569   5.502   9.991   3.388
 6370W        W10570   9.109   1.908   3.184
 6371W        W10571   9.457   3.299   9.878
 6372W        W10572   9.338   5.713  11.297
 6373W        W10573   0.547   7.023   3.517
 6374W        W10574  10.244   3.219   3.379
 6375W        W10575   3.659   3.144   9.893
 6376W        W10576   1.381   8.112   9.271
 6377W        W10577   0.449   9.759   2.924
 6378W        W10578   1.399   0.387   3.394
 6379W        W10579   6.676   7.138   2.700
 6380W        W10580   7.354   3.573  11.881
 6381W        W10581   7.646  11.059   0.320
 6382W        W10582   4.809   8.919   1.998
 6383W        W10583   4.235   4.389   3.642
 6384W        W10584   5.465   8.474   0.240
 6385W        W10585   1.761   2.214   9.816
 6386W        W10586   8.615   5.908   2.287
 6387W        W10587   1.209   9.937  10.245
 6388W        W10588   3.039   7.417   1.168
 6389W        W10589   9.813   2.858   1.386
 6390W        W10590   6.089   0.407   1.194
 6391W        W10591   4.350  11.328   1.328
 6392W        W10592   5.932   6.237   1.869
 6393W        W10593   0.792  10.500  11.417
 6394W        W10594   7.074   2.735   1.118
 6395W        W10595   5.331   4.183   8.291
 6396W        W10596   1.380  10.976   9.015
 6397W        W10597   4.617   9.200   8.900
 6398W        W10598   1.145  10.020   0.247
 6399W        W10599   4.926   3.354   0.913
 6400W        W10600  11.124   1.639   3.480
 6401W        W10601   4.919   2.826   9.469
 6402W        W10602  10.130   7.960   9.330
 6403W        W10603   5.223  10.101  11.351
 6404W        W10604   2.755   3.860  10.498
 6405W        W10605   7.180   3.010   2.442
 6406W        W10606   2.843   6.044   0.295
 6407W        W10607   9.455   5.638   8.896
 6408W        W10608   8.477   4.111   8.750
 6409W        W10609  11.006   2.288   0.482
 6410W        W10610   5.235   2.395   9.445
 6411W        W10611   2.139   9.007  10.038
 6412W        W10612   4.034  10.405   2.413
 6413W        W10613   0.409   6.974   0.220
 6414W        W10614   9.581   5.035   1.216
 6415W        W10615   3.325  10.400   1.653
 6416W        W10616   3.391   6.658   0.712
 6417W        W10617   3.270   1.592   0.651
 6418W        W10618   4.623   8.424  11.241
 6419W        W10619   7.955   2.827   9.236
 6420W        W10620  10.392   1.812   3.202
 6421W        W10621   3.674   1.283   0.815
 6422W        W10622   1.651   9.101   9.857
 6423W        W10623   4.591   5.231  10.181
 6424W        W10624   5.145   0.435  11.268
 6425W        W10625   8.158  10.756   1.886
 6426W        W10626   2.393   9.364  10.787
 6427W        W10627  10.437   3.985  11.423
 6428W        W10628   6.141   2.837   9.391
 6429W        W10629   1.356   7.555   0.674
 6430W        W10630   4.022   2.886   8.594
 6431W        W10631  10.112   3.812   0.469
 6432W        W10632  11.327   1.385  10.286
 6433W        W10633   8.014   6.998   0.206
 6434W        W10634   1.130   9.477  11.441
 6435W        W10635  11.335   9.840   2.461
 6436W        W10636   9.567  11.120  10.722
 6437W        W10637   4.188   8.158  11.426
 6438W        W10638   9.413   6.884   1.161
 6439W        W10639   4.738   5.756   1.795
 6440W        W10640   3.145  10.966  10.351
 6441W        W10641   7.175   2.916   0.635
 6442W        W10642   6.678   0.022   9.631
 6443W        W10643   7.144  10.471   0.947
 6444W        W10644   9.613   1.248   2.173
 6445W        W10645   3.821  11.267   0.440
 6446W        W10646   6.697   7.938   4.187
 6447W        W10647   1.257   9.384   1.740
 6448W        W10648   4.196   6.611   3.141
 6449W        W10649   9.536   8.704  11.318
 6450W        W10650   1.200   5.926   0.836
 6451W        W10651   0.027   0.475   2.184
 6452W        W10652   2.910   7.978   1.832
 6453W        W10653   4.752   4.446   8.577
 6454W        W10654  10.445   3.741  10.345
 6455W        W10655   6.071   4.583   8.891
 6456W        W10656   3.394   0.010   8.654
 6457W        W10657   0.919   5.082  10.813
 6458W        W10658   0.214  10.558  10.094
 6459W        W10659   9.146  10.840  10.722
 6460W        W10660   7.580   6.072   1.035
 6461W        W10661   9.538   9.144   3.398
 6462W        W10662   7.692   2.151  11.280
 6463W        W10663   0.462   9.108  11.799
 6464W        W10664  10.397   5.464  10.115
 6465W        W10665   8.866   3.305   2.166
 6466W        W10666   0.363   8.984   2.761
 6467W        W10667   9.171   3.297  10.717
 6468W        W10668   4.805   8.497   9.361
 6469W        W10669  11.246   4.746   2.906
 6470W        W10670   7.189  11.244   2.348
 6471W        W10671   6.105   4.049   0.401
 6472W        W10672   1.844   3.704   9.810
 6473W        W10673  11.305   8.620   2.707
 6474W        W10674   1.517   8.253  11.651
 6475W        W10675   8.005  11.475   8.890
 6476W        W10676   0.709   5.266   8.788
 6477W        W10677   3.794   9.294  10.851
 6478W        W10678   2.800   7.011   9.259
 6479W        W10679   8.049   5.951  11.931
 6480W        W10680   3.903   2.350  10.287
 6481W        W10681   8.412   1.306   9.999
 6482W        W10682   0.467  11.048   2.184
 6483W        W10683   0.861   2.341  11.164
 6484W        W10684   9.615   6.080   3.373
 6485W        W10685   2.722   5.181   3.057
 6486W        W10686   1.750   8.951   0.818
 6487W        W10687   7.000  10.716  11.258
 6488W        W10688  11.063   7.217   2.621
 6489W        W10689   9.825   5.485  10.409
 6490W        W10690   1.266   3.262   3.244
 6491W        W10691   7.548   2.841   0.271
 6492W        W10692   4.386   0.504  11.093
 6493W        W10693   0.901   9.990   2.724
 6494W        W10694  10.322   0.881   0.995
 6495W        W10695   5.572   6.902   9.520
 6496W        W10696   0.223   6.642   3.665
 6497W        W10697   6.457   8.012   2.443
 6498W        W10698   5.607   3.683   2.811
 6499W        W10699   5.278   3.135  10.194
 6500W        W10700   1.355   5.824   1.312
 6501W        W10701   8.389   7.920   9.497
 6502W        W10702   5.736   0.875   8.615
 6503W        W10703   7.439   0.009  10.697
 6504W        W10704   9.021   2.041  11.873
 6505W        W10705   8.826   9.927   1.565
 6506W        W10706   4.181   8.239  10.926
 6507W        W10707  10.042   8.629  10.211
 6508W        W10708   6.412   0.447   9.721
 6509W        W10709   5.128  11.081   2.241
 6510W        W10710   2.859   6.982   0.355
 6511W        W10711   1.814   1.762   9.524
 6512W        W10712   7.894   0.200   9.339
 6513W        W10713   9.312   1.717  10.885
 6514W        W10714   4.037  11.301   1.749
 6515W        W10715   0.476   0.583   0.959
 6516W        W10716  11.383   9.504   0.270
 6517W        W10717   2.211  10.991  11.885
 6518W        W10718  10.437   0.831  10.170
 6519W        W10719   8.795   9.479   8.773
 6520W        W10720   0.027   8.117   9.533
 6521W        W10721   9.585   1.661   0.430
 6522W        W10722   5.236   4.266   0.389
 6523W        W10723   0.657   4.997   0.043
 6524W        W10724   3.490   7.822  10.357
 6525W        W10725  10.095   6.981  11.743
 6526W        W10726   4.078  11.410  11.992
 6527W        W10727   4.175   0.349   1.036
 6528W        W10728   1.747   8.111  10.139
 6529W        W10729   7.560   8.828   3.394
 6530W        W10730  10.446   9.894   2.420
 6531W        W10731   6.084   7.122   2.210
 6532W        W10732  10.333   4.686   0.949
 6533W        W10733  10.471   5.129   1.202
 6534W        W10734   7.848   9.917   3.129
 6535W        W10735  11.471   7.124   1.749
 6536W        W10736   6.145  10.331   9.873
 6537W        W10737   7.634   0.236   3.214
 6538W        W10738   2.882   6.638   0.761
 6539W        W10739   2.745  10.415  11.202
 6540W        W10740   4.187   3.587   3.298
 6541W        W10741  10.484   8.472   1.688
 6542W        W10742   0.198   0.840   9.217
 6543W        W10743   5.567   8.814  11.444
 6544W        W10744   5.981   8.311   9.921
 6545W        W10745   7.355   2.096   0.414
 6546W        W10746   3.114   1.748   3.028
 6547W        W10747   1.425   5.301   1.796
 6548W        W10748   5.961   8.611   9.064
 6549W        W10749   0.329   1.815   0.530
 6550W        W10750   0.312   4.681   2.082
 6551W        W10751   1.732   9.900   3.399
 6552W        W10752   1.284   6.654   2.165
 6553W        W10753   0.537   4.406   2.477
 6554W        W10754   5.758   0.797   1.300
 6555W        W10755   1.565   6.148   2.942
 6556W        W10756   0.420   8.060   2.709
 6557W        W10757   9.021   7.209   1.326
 6558W        W10758   1.700  10.936   3.301
 6559W        W10759   9.793   5.611   8.497
 6560W        W10760   0.622   7.624   2.287
 6561W        W10761   6.265   7.942   3.267
 6562W        W10762   4.383   5.381   0.256
 6563W        W10763   4.932   5.197   0.012
 6564W        W10764   6.583   0.354   9.224
 6565W        W10765   0.852   6.812  10.847
 6566W        W10766   6.526   9.149   1.942
 6567W        W10767   2.708   2.032   9.976
 6568W        W10768   5.034   8.405   9.845
 6569W        W10769   9.289   3.291   0.028
 6570W        W10770   8.371   7.984   3.580
 6571W        W10771   1.231   6.800   1.121
 6572W        W10772   8.922   2.133  11.382
 6573W        W10773   8.519   3.982   1.255
 6574W        W10774  10.134   5.924  10.336
 6575W        W10775   1.753   1.024   2.660
 6576W        W10776   4.216   4.342  10.914
 6577W        W10777   6.003  11.448   0.898
 6578W        W10778   1.051   6.211  11.546
 6579W        W10779   8.942   6.650  11.500
 6580W        W10780   5.472   6.193   0.808
 6581W        W10781   0.817   0.496  11.335
 6582W        W10782   2.615   0.217   1.482
 6583W        W10783   6.878   2.537   9.027
 6584W        W10784   7.829   9.365   2.024
 6585W        W10785   9.520   7.911   2.702
 6586W        W10786   5.599   5.662   1.493
 6587W        W10787   4.174   8.300   0.456
 6588W        W10788   7.733   6.897   0.986
 6589W        W10789   1.264   1.824   3.610
 6590W        W10790   6.174   6.206  10.564
 6591W        W10791   9.469   1.923   1.352
 6592W        W10792   2.320   3.128   0.872
 6593W        W10793   2.224   9.118   1.506
 6594W        W10794   7.116   3.806   0.289
 6595W        W10795   4.061   4.287   9.084
 6596W        W10796   2.816   0.680  11.865
 6597W        W10797   4.154  10.392   2.926
 6598W        W10798   9.534   4.888  10.997
 6599W        W10799   8.979   9.476  10.927
 6600W        W10800  11.220   1.849   8.554
 6601W        W10801   8.032  11.483  10.860
 6602W        W10802   8.634   1.787  10.387
 6603W        W10803   4.745   8.487   1.752
 6604W        W10804   8.628   0.216   9.795
 6605W        W10805   4.100   5.131   9.018
 6606W        W10806   3.248   7.220   9.423
 6607W        W10807   3.718   7.295  11.575
 6608W        W10808   5.524   7.134   0.815
 6609W        W10809   4.941   1.400   1.259
 6610W        W10810   9.520   7.056   3.753
 6611W        W10811   0.994   0.087   3.518
 6612W        W10812   3.793   9.566   9.419
 6613W        W10813  11.331   0.191   1.193
 6614W        W10814   0.935   8.761  10.829
 6615W        W10815   1.459  10.390   9.483
 6616W        W10816   6.201  10.423   2.505
 6617W        W10817   9.427  11.044   0.028
 6618W        W10818   0.371   2.160   9.292
 6619W        W10819   7.379   3.358   0.397
 6620W        W10820   2.425   4.595   8.808
 6621W        W10821   9.921   7.236   0.971
 6622W        W10822   0.463   3.841   9.059
 6623W        W10823   9.536   3.804   9.834
 6624W        W10824   8.623   1.299   0.440
 6625W        W10825   0.303   9.055   9.828
 6626W        W10826   8.010  10.324  11.794
 6627W        W10827   6.224   7.875  10.007
 6628W        W10828   2.804   0.948   0.777
 6629W        W10829   2.887   4.442   1.851
 6630W        W10830   6.085  10.056  10.716
 6631W        W10831  10.454   1.706   1.664
 6632W        W10832   0.421  11.242   2.724
 6633W        W10833   2.129   6.449   2.192
 6634W        W10834   5.406   4.091   3.116
 6635W        W10835   3.109   0.811   0.276
 6636W        W10836   7.654  10.658   3.510
 6637W        W10837   4.556   7.106   0.130
 6638W        W10838  10.827   6.596   1.695
 6639W        W10839   2.458  10.711   8.721
 6640W        W10840   7.003   6.926   1.865
 6641W        W10841   0.314   1.931   2.372
 6642W        W10842   2.662   7.059   0.995
 6643W        W10843   1.553   6.187   8.708
 6644W        W10844   6.061   9.273  10.116
 6645W        W10845   6.114   0.830   0.918
 6646W        W10846   6.158  10.228   0.672
 6647W        W10847   3.658   7.889  10.903
 6648W        W10848   7.424   4.661  11.917
 6649W        W10849   9.788   0.550  10.945
 6650W        W10850   7.129   7.903   0.561
 6651W        W10851   1.429   3.058   8.863
 6652W        W10852  10.832   9.032   1.849
 6653W        W10853   8.576   8.895  10.950
 6654W        W10854   9.061   8.893  11.773
 6655W        W10855   1.754   6.746   2.339
 6656W        W10856   7.460  10.888  11.446
 6657W        W10857   1.784   3.853   1.817
 6658W        W10858   1.500   5.646   8.838
 6659W        W10859   5.467   8.140   3.469
 6660W        W10860   9.406   9.601   0.527
 6661W        W10861   0.835   1.945   0.596
 6662W        W10862   4.862   3.928  11.318
 6663W        W10863  10.171   4.323   2.221
 6664W        W10864   8.532   0.934  11.683
 6665W        W10865   2.201   4.595  10.486
 6666W        W10866   1.114   9.040  10.258
 6667W        W10867   7.959   2.717   0.922
 6668W        W10868   2.244   0.003  10.432
 6669W        W10869   7.073   1.430   9.113
 6670W        W10870   1.027   8.493   1.302
 6671W        W10871   7.442   0.708  10.944
 6672W        W10872   6.504   8.612   2.613
 6673W        W10873  10.248   4.140  10.110
 6674W        W10874   1.478   1.485   8.861
 6675W        W10875   2.264  10.682  11.414
 6676W        W10876   0.980   0.022  11.451
 6677W        W10877   1.248   8.138  10.035
 6678W        W10878   2.320   4.309   3.544
 6679W        W10879   1.647   6.578   1.303
 6680W        W10880   1.361   6.674   8.790
 6681W        W10881   9.268   2.435   1.787
 6682W        W10882   8.371   4.104   9.778
 6683W        W10883   5.026   5.280   9.909
 6684W        W10884   0.253   4.064   0.363
 6685W        W10885   4.145   1.883   0.858
 6686W        W10886   7.038   4.262   9.092
 6687W        W10887   2.369   6.655   0.835
 6688W        W10888   7.012   4.084  10.465
 6689W        W10889   8.879   2.647  11.464
 6690W        W10890   8.984   2.687  10.094
 6691W        W10891  10.502   3.551   0.263
 6692W        W10892   4.027   4.028  11.852
 6693W        W10893   9.860   5.556   2.140
 6694W        W10894   7.941   7.157  11.299
 6695W        W10895   8.244   8.180   4.037
 6696W        W10896   8.713   5.523   9.377
 6697W        W10897   7.535   9.173   0.563
 6698W        W10898   8.006   6.525   3.246
 6699W        W10899   5.445   8.136   8.618
 6700W        W10900   0.078   4.229   1.136
 6701W        W10901   1.215   2.195   0.903
 6702W        W10902   9.968   9.223   1.317
 6703W        W10903   1.361   8.972   2.446
 6704W        W10904   3.695   1.874   0.645
 6705W        W10905   5.098   8.603  11.356
 6706W        W10906  10.867  10.398   0.316
 6707W        W10907   6.172   7.135   9.051
 6708W        W10908   0.923   6.140   0.431
 6709W        W10909   6.188   8.482   3.175
 6710W        W10910  11.295   0.762   9.529
 6711W        W10911   0.921   0.822   1.138
 6712W        W10912   7.503   8.080   1.875
 6713W        W10913   7.609  10.025   9.000
 6714W        W10914   5.213   8.783   4.174
 6715W        W10915  11.135   0.546   3.410
 6716W        W10916   6.056   3.553   0.478
 6717W        W10917   5.257  10.456   1.577
 6718W        W10918   8.508  11.295   8.782
 6719W        W10919   6.674   3.227  11.130
 6720W        W10920  10.883   3.770  11.575
 6721W        W10921   9.812  10.109  10.231
 6722W        W10922   0.416   5.678   9.069
 6723W        W10923   8.599   9.288   1.301
 6724W        W10924   7.567   2.577   9.548
 6725W        W10925   0.785   4.130   1.665
 6726W        W10926   8.703   3.647  11.505
 6727W        W10927   3.975   7.708   2.669
 6728W        W10928   5.766  11.361  11.297
 6729W        W10929   7.077   7.377   0.369
 6730W        W10930   7.418   1.815   9.056
 6731W        W10931   8.824   0.200   9.278
 6732W        W10932   7.425   9.256   8.944
 6733W        W10933   4.229  10.840   2.689
 6734W        W10934  11.180   2.415   0.949
 6735W        W10935   3.052   2.240   3.210
 6736W        W10936  10.961   9.280   1.412
 6737W        W10937   1.402   3.781  11.989
 6738W        W10938   1.579   1.248   8.383
 6739W        W10939   2.797   0.219   9.426
 6740W        W10940   8.442   2.709   9.031
 6741W        W10941   7.025  10.771   9.909
 6742W        W10942   2.383   2.734   2.088
 6743W        W10943   9.111   1.947   1.749
 6744W        W10944   1.594   5.700   9.745
 6745W        W10945   2.012   8.102  10.577
 6746W        W10946   1.051   6.113  10.176
 6747W        W10947  11.180   4.050   3.470
 6748W        W10948   7.492   5.682  10.292
 6749W        W10949   7.900   6.064   2.924
 6750W        W10950   7.651   4.711   8.609
 6751W        W10951   9.436   9.058   1.341
 6752W        W10952   4.050   4.586   3.208
 6753W        W10953   3.193   6.696   9.457
 6754W        W10954   7.814   1.856   0.385
 6755W        W10955   9.299   3.724   0.694
 6756W        W10956  10.550   1.675  10.495
 6757W        W10957   4.143   4.781   1.899
 6758W        W10958   8.105  11.058   2.311
 6759W        W10959   4.577   2.133   3.036
 6760W        W10960   1.778  10.680   0.631
 6761W        W10961   2.013   2.768   0.003
 6762W        W10962  10.663   9.526   1.755
 6763W        W10963  10.858   5.478   9.113
 6764W        W10964   9.823   5.603   2.640
 6765W        W10965   2.820   4.676   8.049
 6766W        W10966  10.092   5.263   9.721
 6767W        W10967   4.337   7.312  10.074
 6768W        W10968   4.225   3.820   1.628
 6769W        W10969   7.945   2.689   1.944
 6770W        W10970   6.166   4.560   2.213
 6771W        W10971   2.892   4.885  10.382
 6772W        W10972   0.683   6.148   9.809
 6773W        W10973   5.214   8.184   0.682
 6774W        W10974   5.194   9.623   9.509
 6775W        W10975   3.780   4.157   9.660
 6776W        W10976  11.050   9.787  10.885
 6777W        W10977   7.083   6.892   2.876
 6778W        W10978   3.352   7.428   2.133
 6779W        W10979   3.744   5.735   0.974
 6780W        W10980   8.718   5.942   0.307
 6781W        W10981   0.299  10.331   0.489
 6782W        W10982   0.139   6.184  11.650
 6783W        W10983   1.663   7.572   9.520
 6784W        W10984   5.109   8.439  10.873
 6785W        W10985   7.502   5.721   0.683
 6786W        W10986  10.815   8.127  10.633
 6787W        W10987   5.660   2.908   0.938
 6788W        W10988  10.670   4.357   2.270
 6789W        W10989  11.046   1.393  11.147
 6790W        W10990   3.705   7.417  10.592
 6791W        W10991   1.317   1.953  10.756
 6792W        W10992   6.753  11.193  11.269
 6793W        W10993   4.132   1.231   9.941
 6794W        W10994   5.812   2.537   0.485
 6795W        W10995   0.050   0.337   2.689
 6796W        W10996   4.321  10.493   1.439
 6797W        W10997   6.974   7.591  10.317
 6798W        W10998   5.751   5.755   3.002
 6799W        W10999   6.805   1.652  10.355
 6800W        W11000   8.828  11.010  10.357
 6801W        W11001   8.424   9.052   0.895
 6802W        W11002  10.948   3.151   2.495
 6803W        W11003   1.857   3.145  11.451
 6804W        W11004   6.229  11.485   9.370
 6805W        W11005   0.871   5.445   0.248
 6806W        W11006   9.954   7.950  11.450
 6807W        W11007   9.738   5.649   3.124
 6808W        W11008   5.577   7.658  11.924
 6809W        W11009   5.195   9.625   3.017
 6810W        W11010   5.254   0.649   8.693
 6811W        W11011   4.098   8.970   9.580
 6812W        W11012   5.181   9.926   0.301
 6813W        W11013  10.797   6.147   1.470
 6814W        W11014   9.634   3.929   0.366
 6815W        W11015   9.896   5.785   1.703
 6816W        W11016   9.097   4.698   1.842
 6817W        W11017   5.395   3.288   3.544
 6818W        W11018   4.114   5.478   1.268
 6819W        W11019   1.756   2.702   9.060
 6820W        W11020   7.855   1.294   0.792
 6821W        W11021  11.105   0.248   2.412
 6822W        W11022   0.366  10.485   1.945
 6823W        W11023   2.128   8.967  10.551
 6824W        W11024   9.963   9.144  10.107
 6825W        W11025   0.870   8.189   2.992
 6826W        W11026   2.373   4.787   2.345
 6827W        W11027   6.956   5.339  11.023
 6828W        W11028   5.807   8.115   3.094
 6829W        W11029   1.832   4.319   2.765
 6830W        W11030   9.845   8.983  10.573
 6831W        W11031  10.897   2.339   1.395
 6832W        W11032   8.847   0.669  11.204
 6833W        W11033   2.231   6.216   8.890
 6834W        W11034   0.692   0.943   0.666
 6835W        W11035  10.032   3.252  10.299
 6836W        W11036   8.016   2.690   1.434
 6837W        W11037   0.140   9.315  11.337
 6838W        W11038   5.218   9.085   8.118
 6839W        W11039   6.198   2.810  10.795
 6840W        W11040   8.414   2.231  10.251
 6841W        W11041   8.435  11.480  11.946
 6842W        W11042   6.666  10.261   1.704
 6843W        W11043   6.466   7.617   9.548
 6844W        W11044   8.476   2.878   1.014
 6845W        W11045   7.435   1.415   2.746
 6846W        W11046   9.643   5.790  11.774
 6847W        W11047   3.168   3.830   1.579
 6848W        W11048   4.551   9.830  11.928
 6849W        W11049   2.281   4.400   1.329
 6850W        W11050   8.871   7.145  10.730
 6851W        W11051   5.375   1.437   9.714
 6852W        W11052   4.267   0.714   9.913
 6853W        W11053   6.107   0.880   2.951
 6854W        W11054   1.879   8.549   2.757
 6855W        W11055   7.034   1.338   3.090
 6856W        W11056   8.481   2.136   2.221
 6857W        W11057   7.251   6.708  10.827
 6858W        W11058  11.356  10.328   9.002
 6859W        W11059   4.387   2.329   0.726
 6860W        W11060   8.830   6.024   9.299
 6861W        W11061   1.429   3.646   9.490
 6862W        W11062  11.259   5.712   8.520
 6863W        W11063   7.453   9.999   0.897
 6864W        W11064  11.412   1.726   9.539
 6865W        W11065   1.663   5.608   2.144
 6866W        W11066   0.995   8.976   3.500
 6867W        W11067  11.322   1.222   9.283
 6868W        W11068  10.867   7.588  11.288
 6869W        W11069   0.712   5.717   9.495
 6870W        W11070   4.472   6.108  11.701
 6871W        W11071   9.317   1.170   0.896
 6872W        W11072   1.455   8.434  10.992
 6873W        W11073   1.318   1.210   3.148
 6874W        W11074   9.945  11.003   8.532
 6875W        W11075   0.773   7.488   8.971
 6876W        W11076   9.006   3.893   2.982
 6877W        W11077  10.465   3.547  11.756
 6878W        W11078   7.144   4.649   0.448
 6879W        W11079  10.847   6.637   2.187
 6880W        W11080   1.234  10.988   3.513
 6881W        W11081   8.403   4.906   1.335
 6882W        W11082   8.710   3.818   9.499
 6883W        W11083   1.853   1.781   9.013
 6884W        W11084   8.082  10.958   8.848
 6885W        W11085   7.866   9.572   9.178
 6886W        W11086   5.927   6.095   0.597
 6887W        W11087   9.370  10.161  10.475
 6888W        W11088   0.869   7.348   3.284
 6889W        W11089   2.817   8.860   9.085
 6890W        W11090   9.534   8.181  11.263
 6891W        W11091   1.199   7.571   1.530
 6892W        W11092   1.273   3.352  11.145
 6893W        W11093   6.115   8.708   1.362
 6894W        W11094   1.434  11.382   3.244
 6895W        W11095   8.688   0.482  10.295
 6896W        W11096  10.487   2.132   0.436
 6897W        W11097   9.451   5.905   1.494
 6898W        W11098  10.907   6.683  11.586
 6899W        W11099   1.716   3.170   9.367
 6900W        W11100   5.906  10.831  10.914
 6901W        W11101   2.150  10.308   2.201
 6902W        W11102   2.274   2.721  10.373
 6903W        W11103   8.505   9.800  10.817
 6904W        W11104   6.411   1.510  10.006
 6905W        W11105  11.429   0.856   1.656
 6906W        W11106   0.411   2.256  11.365
 6907W        W11107   8.142   1.289  11.141
 6908W        W11108   9.634   6.046   2.854
 6909W        W11109   7.045   2.794   3.613
 6910W        W11110   9.640   1.871  10.350
 6911W        W11111   1.877   7.078   0.510
 6912W        W11112   5.137   2.779   3.656
 6913W        W11113   4.867   6.143   9.753
 6914W        W11114   8.016   3.874   2.456
 6915W        W11115   4.654   1.149   9.906
 6916W        W11116   8.385   2.799  11.532
 6917W        W11117   2.775   5.782  11.232
 6918W        W11118   8.413   0.049   1.617
 6919W        W11119   3.820  11.410   1.295
 6920W        W11120  11.367  10.613   0.240
 6921W        W11121   5.819   0.694   0.468
 6922W        W11122   1.776   4.320  10.433
 6923W        W11123   5.109   4.779  10.714
 6924W        W11124  10.583   1.726   0.727
 6925W        W11125   3.571  11.217   0.867
 6926W        W11126   0.090   4.664  10.507
 6927W        W11127   6.231   9.631   1.245
 6928W        W11128  11.425   7.741   9.072
 6929W        W11129   4.547   6.490  10.964
 6930W        W11130   5.274  10.261   2.068
 6931W        W11131   1.491   7.593   2.555
 6932W        W11132   5.978   7.745   1.288
 6933W        W11133   7.340   5.868   0.229
 6934W        W11134   0.190   7.236   2.337
 6935W        W11135   6.097   7.050  11.071
 6936W        W11136   9.571   0.951  10.134
 6937W        W11137   9.919   9.657  10.055
 6938W        W11138   0.935   3.873   8.830
 6939W        W11139   0.743  10.763   9.320
 6940W        W11140   8.664   7.921   2.646
 6941W        W11141  11.185   9.651  11.360
 6942W        W11142   3.361   3.789  11.316
 6943W        W11143  10.425   2.634   0.339
 6944W        W11144   5.701   7.063   2.960
 6945W        W11145   7.259   2.273   2.383
 6946W        W11146   2.498   5.033   7.892
 6947W        W11147  10.014   2.346   2.405
 6948W        W11148   9.605   5.137   2.191
 6949W        W11149   5.236  10.990   1.306
 6950W        W11150   4.395   2.537   8.814
 6951W        W11151  11.484   4.415  11.996
 6952W        W11152   9.017   3.354   0.484
 6953W        W11153   7.547  10.819  10.082
 6954W        W11154   8.885   4.282   9.375
 6955W        W11155  10.291   3.208   1.868
 6956W        W11156   7.429   6.510   0.769
 6957W        W11157  11.049   5.784   1.228
 6958W        W11158   3.250   5.215  10.514
 6959W        W11159  10.708   5.517   2.681
 6960W        W11160  11.414   9.362   8.586
 6961W        W11161   5.201   4.203   0.903
 6962W        W11162   9.009   7.019   8.578
 6963W        W11163   7.437   4.797   0.851
 6964W        W11164   3.148   1.856  11.258
 6965W        W11165  11.048   5.186   2.482
 6966W        W11166   3.647   4.675   1.752
 6967W        W11167   0.748   2.361   0.957
 6968W        W11168   2.694   6.624   1.266
 6969W        W11169   2.281   3.517   3.066
 6970W        W11170   5.712   1.062   9.966
 6971W        W11171   9.569   8.150   2.243
 6972W        W11172   8.095   1.664  11.508
 6973W        W11173  10.425   8.406   9.940
 6974W        W11174   0.367   7.463   9.823
 6975W        W11175   7.220   8.472  10.534
 6976W        W11176  11.461   9.265   1.588
 6977W        W11177  10.483  11.436   8.942
 6978W        W11178   5.128   1.663  11.983
 6979W        W11179  10.842   2.489   3.320
 6980W        W11180   7.883  10.746   9.619
 6981W        W11181   7.428   5.309  11.250
 6982W        W11182   1.713   9.986  11.070
 6983W        W11183  10.489   3.605   2.189
 6984W        W11184  11.245   6.071   9.549
 6985W        W11185   4.201   4.076   2.176
 6986W        W11186   8.216   5.171   8.666
 6987W        W11187   3.257   5.812  11.042
 6988W        W11188   6.055  11.052   9.114
 6989W        W11189   7.348   6.254  11.503
 6990W        W11190   3.229   5.614   1.035
 6991W        W11191   0.691   1.821   1.481
 6992W        W11192   7.465   4.577   9.077
 6993W        W11193   1.157   0.825   3.469
 6994W        W11194   6.929   8.389   2.446
 6995W        W11195   5.622   9.137   9.860
 6996W        W11196   3.023   2.875  11.454
 6997W        W11197   8.598   8.298   8.639
 6998W        W11198   6.027   3.298  10.749
 6999W        W11199  11.482   9.837   9.759
 7000W        W11200   8.467   3.684   9.049
 7001W        W11201   2.335   0.775  11.357
 7002W        W11202   0.286  11.347  11.294
 7003W        W11203   5.336   2.650  10.321
 7004W        W11204   7.999   8.422   0.377
 7005W        W11205   8.852   8.074   3.408
 7006W        W11206  11.487   5.119  10.776
 7007W        W11207   0.512   7.044   9.509
 7008W        W11208   0.856   6.194   9.309
 7009W        W11209   9.363   2.210  10.615
 7010W        W11210   8.627  10.557   0.020
 7011W        W11211   4.182   5.686  10.780
 7012W        W11212   4.858   1.162   0.260
 7013W        W11213  10.935   8.432   3.394
 7014W        W11214   1.518   8.995   9.377
 7015W        W11215   6.104   4.447  10.461
 7016W        W11216  10.421  10.025   8.967
 7017W        W11217  10.436   9.961   1.395
 7018W        W11218   0.394   3.157  11.220
 7019W        W11219   7.621   0.891   1.152
 7020W        W11220   3.403   2.130   2.794
 7021W        W11221   0.607   1.819  10.446
 7022W        W11222   4.719   4.216   3.631
 7023W        W11223   3.094  11.441  11.888
 7024W        W11224   1.187   6.293   2.603
 7025W        W11225   4.724   6.699   8.635
 7026W        W11226   2.590   8.400   2.406
 7027W        W11227   2.361   5.516   9.570
 7028W        W11228   1.363   4.149   1.454
 7029W        W11229  11.460   4.817   8.733
 7030W        W11230   2.411   3.590   0.238
 7031W        W11231   7.057   3.788  10.869
 7032W        W11232   2.605   7.523   1.644
 7033W        W11233   4.594   2.257   1.627
 7034W        W11234   3.684   9.023   1.489
 7035W        W11235   3.941   8.537   9.821
 7036W        W11236  11.451   6.510   1.283
 7037W        W11237   6.965   0.271   1.672
 7038W        W11238   7.229   3.653   1.317
 7039W        W11239  11.066   1.786  10.489
 7040W        W11240   9.663   0.462  10.330
 7041W        W11241   5.463   4.821   3.317
 7042W        W11242   5.716   0.390   2.782
 7043W        W11243   4.131   7.781   0.379
 7044W        W11244   8.005   0.299   2.864
 7045W        W11245   9.378   8.687   0.938
 7046W        W11246   5.976   9.559   2.427
 7047W        W11247   9.248   7.196  10.361
 7048W        W11248   4.515  10.388   3.311
 7049W        W11249   3.079   1.274   2.382
 7050W        W11250  10.924   9.800   1.400
 7051W        W11251   8.475   7.473   3.449
 7052W        W11252  10.726   2.195   0.918
 7053W        W11253   8.122   1.429   0.369
 7054W        W11254   8.545  10.817   2.269
 7055W        W11255   0.208   9.365   3.143
 7056W        W11256   8.865   3.272   1.639
 7057W        W11257   5.976   2.471   1.643
 7058W        W11258   4.290   1.937  11.057
 7059W        W11259   6.700   6.602   0.237
 7060W        W11260   1.414   0.639   3.874
 7061W        W11261   2.528   5.308   0.744
 7062W        W11262   3.916   4.064   3.338
 7063W        W11263   3.790   3.588  10.442
 7064W        W11264   5.261  10.476   9.823
 7065W        W11265   0.696   9.996  11.419
 7066W        W11266   9.001  10.670  11.193
 7067W        W11267   7.937   7.500  11.693
 7068W        W11268   8.231   8.347  11.906
 7069W        W11269  10.867   1.974   3.180
 7070W        W11270  11.447   7.069  10.868
 7071W        W11271   4.308   8.917  11.865
 7072W        W11272   4.980  11.260  10.115
 7073W        W11273   5.219   0.446  10.748
 7074W        W11274   3.697   5.481   9.381
 7075W        W11275   6.862   8.094   1.523
 7076W        W11276   2.950   8.161   3.448
 7077W        W11277   1.826   9.883   2.307
 7078W        W11278   2.930   6.006   1.154
 7079W        W11279   1.885   1.362   1.840
 7080W        W11280   6.065   9.057  10.607
 7081W        W11281   6.063   1.777  11.988
 7082W        W11282   7.588   3.803   2.180
 7083W        W11283   7.568   2.634  10.052
 7084W        W11284   2.002   4.168   2.240
 7085W        W11285  11.022   3.306  11.433
 7086W        W11286  10.740  11.423  10.350
 7087W        W11287   2.604   6.522   0.351
 7088W        W11288  10.531   7.692  10.566
 7089W        W11289   2.283   3.618   0.736
 7090W        W11290   5.947   3.747   8.439
 7091W        W11291   5.275   2.134   0.930
 7092W        W11292   6.946   9.498   9.050
 7093W        W11293  10.591   3.698   9.241
 7094W        W11294   3.398   6.113   2.393
 7095W        W11295   7.231   6.385   0.255
 7096W        W11296   2.895   6.417  10.403
 7097W        W11297   2.679   6.551   3.171
 7098W        W11298   6.747   3.649   3.136
 7099W        W11299   5.150   4.166  10.019
 7100W        W11300   9.602   0.907  10.650
 7101W        W11301   9.026  10.343  10.811
 7102W        W11302   0.984   4.139   0.004
 7103W        W11303   8.001   6.106   3.528
 7104W        W11304   9.274   6.974   9.187
 7105W        W11305   9.476   0.524   2.577
 7106W        W11306   4.980   8.841   9.030
 7107W        W11307   3.316   0.914   0.734
 7108W        W11308   6.705   6.162  10.486
 7109W        W11309   5.709   9.431   1.222
 7110W        W11310   3.802  10.283  11.378
 7111W        W11311   2.535   0.482   2.532
 7112W        W11312   9.501  11.319  11.196
 7113W        W11313   9.572   5.109   3.180
 7114W        W11314   7.591   7.318   1.291
 7115W        W11315   6.560   9.017   1.418
 7116W        W11316   1.360   9.903   2.515
 7117W        W11317  11.369   9.063   9.563
 7118W        W11318   6.578   1.590   0.017
 7119W        W11319   0.340   9.931   2.430
 7120W        W11320   3.331   8.089  11.616
 7121W        W11321   2.762   5.540   9.190
 7122W        W11322  10.124   3.287   0.506
 7123W        W11323   3.524   4.839   3.127
 7124W        W11324   7.875   2.210   0.761
 7125W        W11325   2.222   0.002   8.853
 7126W        W11326   1.140   4.515   9.460
 7127W        W11327   1.856   1.297   9.792
 7128W        W11328   8.194   6.197   9.991
 7129W        W11329   4.115   8.672   1.372
 7130W        W11330   1.513   4.735   9.813
 7131W        W11331   6.116   4.116   9.631
 7132W        W11332   7.206   5.151   0.578
 7133W        W11333   9.914   7.294   3.322
 7134W        W11334   3.050   8.101   0.805
 7135W        W11335   8.481   8.493  11.268
 7136W        W11336   3.664   6.252   0.830
 7137W        W11337   8.386   6.987   2.814
 7138W        W11338  10.810   8.431   2.376
 7139W        W11339   0.482   7.906   1.677
 7140W        W11340  10.266   1.304  11.821
 7141W        W11341   5.285   2.820  11.101
 7142W        W11342  11.428   3.139   1.643
 7143W        W11343   7.600   7.400   9.136
 7144W        W11344   7.578  10.911   9.062
 7145W        W11345   4.639   1.872   1.964
 7146W        W11346   2.363  10.725  10.027
 7147W        W11347   2.891   6.234  11.432
 7148W        W11348  11.331   3.761  10.847
 7149W        W11349   8.516   2.560   3.038
 7150W        W11350   8.620   8.744   1.257
 7151W        W11351   5.652   8.552   2.814
 7152W        W11352   1.768   0.359  11.962
 7153W        W11353   2.367   7.444   2.288
 7154W        W11354   2.197   8.864  11.531
 7155W        W11355   5.676   7.050  10.599
 7156W        W11356   0.979   1.347  10.953
 7157W        W11357   0.371   8.943   3.402
 7158W        W11358   1.287   9.936   9.749
 7159W        W11359   2.216   9.896   0.254
 7160W        W11360  10.543   7.958   9.670
 7161W        W11361   2.647   2.645  10.761
 7162W        W11362   6.132   6.182   8.697
 7163W        W11363   0.046   2.346   2.306
 7164W        W11364  11.355   4.666   1.329
 7165W        W11365   9.890  11.298   8.984
 7166W        W11366   6.203   9.830   0.325
 7167W        W11367   6.071   6.989   9.551
 7168W        W11368   4.666   4.929   2.299
 7169W        W11369   7.955  11.160   9.311
 7170W        W11370   8.979   1.555  11.691
 7171W        W11371   5.239  10.539   2.818
 7172W        W11372   3.860   5.082   0.525
 7173W        W11373   3.083  11.497   3.248
 7174W        W11374   6.937   8.900   1.748
 7175W        W11375  10.439   2.904  10.256
 7176W        W11376   4.456   7.981  10.550
 7177W        W11377  10.963  10.736   8.675
 7178W        W11378   9.493   3.781   2.166
 7179W        W11379   0.123   3.295   3.183
 7180W        W11380   0.448   6.184   1.295
 7181W        W11381   4.318  10.941   9.825
 7182W        W11382   2.849   1.181  11.915
 7183W        W11383   7.353   9.908   3.224
 7184W        W11384   5.253   7.853   9.012
 7185W        W11385   6.713   8.578  10.543
 7186W        W11386   9.064  10.921   3.017
 7187W        W11387   2.136   9.512   3.419
 7188W        W11388  10.046   4.844   1.371
 7189W        W11389  10.469   8.051   2.449
 7190W        W11390   6.053   4.654  11.372
 7191W        W11391   6.553  10.009   9.832
 7192W        W11392   4.711   6.710   0.909
 7193W        W11393   3.107   1.829   3.521
 7194W        W11394   1.658   1.787  11.092
 7195W        W11395   3.666  10.293   3.068
 7196W        W11396   1.300   7.406  11.760
 7197W        W11397   3.907   6.055   2.336
 7198W        W11398   8.487   2.775   0.024
 7199W        W11399   9.037   9.417  10.402
 7200W        W11400   8.504   8.563   0.285
 7201W        W11401   0.269   8.536   9.312
 7202W        W11402   0.826   3.229   0.492
 7203W        W11403   9.122   2.646   9.584
 7204W        W11404   9.367   0.217   2.990
 7205W        W11405   6.499   9.459   9.886
 7206W        W11406   9.323   1.033   3.453
 7207W        W11407   7.012   8.440   0.429
 7208W        W11408   5.603   9.492   2.751
 7209W        W11409  11.391   8.148   3.634
 7210W        W11410   1.457   5.681  10.713
 7211W        W11411   6.981  11.495   2.748
 7212W        W11412   0.458  10.743   2.621
 7213W        W11413   8.717   2.291   3.400
 7214W        W11414  11.400   7.969  10.848
 7215W        W11415   9.144  11.176   1.181
 7216W        W11416   5.221   3.323   8.277
 7217W        W11417  10.399   4.508   9.793
 7218W        W11418   4.657   6.679   3.405
 7219W        W11419   8.513   7.280   0.876
 7220W        W11420   5.662   4.828   1.477
 7221W        W11421   2.817   2.109   1.391
 7222W        W11422   9.550   9.361   9.855
 7223W        W11423   3.280   0.449  11.940
 7224W        W11424   9.388   3.235   0.811
 7225W        W11425   7.778   3.127  10.076
 7226W        W11426   6.982   7.970   1.053
 7227W        W11427   9.450   0.718   0.723
 7228W        W11428   5.871  10.598   8.976
 7229W        W11429  10.736   4.154   1.405
 7230W        W11430   9.926   6.223   0.953
 7231W        W11431   5.328   4.918   1.095
 7232W        W11432   1.345   1.221  11.549
 7233W        W11433   9.806  10.368   2.510
 7234W        W11434   3.677   6.530  11.471
 7235W        W11435  10.153   4.283   1.351
 7236W        W11436   3.175   0.055   2.725
 7237W        W11437   0.679   9.416   9.328
 7238W        W11438   2.118  11.450  10.945
 7239W        W11439  10.417   1.355  10.108
 7240W        W11440   5.211   8.389  10.335
 7241W        W11441   6.178  10.842  10.082
 7242W        W11442   7.627  10.446   9.304
 7243W        W11443   0.434   9.087   1.732
 7244W        W11444  10.414   1.854   2.682
 7245W        W11445   8.521   1.981   8.478
 7246W        W11446   4.738   0.528  11.980
 7247W        W11447  10.289   9.481   2.122
 7248W        W11448   4.819   0.924   1.132
 7249W        W11449   8.464   3.224   0.293
 7250W        W11450   8.360   7.959   2.241
 7251W        W11451   0.737   8.581   3.278
 7252W        W11452   3.786   8.647   3.961
 7253W        W11453   5.922   4.991   3.115
 7254W        W11454   2.318   2.116   2.847
 7255W        W11455   5.271  10.824   0.136
 7256W        W11456  10.419   6.940   9.918
 7257W        W11457   3.231   6.522  11.734
 7258W        W11458   3.600   6.998   1.939
 7259W        W11459   6.464   5.243   0.935
 7260W        W11460   4.659   7.599   9.800
 7261W        W11461   2.026   2.734   0.878
 7262W        W11462   1.703   9.111   1.641
 7263W        W11463   5.140   4.318  10.983
 7264W        W11464   6.361   7.108   3.563
 7265W        W11465   0.487   7.176  10.806
 7266W        W11466   5.667   2.067   0.612
 7267W        W11467   5.486   8.935   9.031
 7268W        W11468   8.631   0.805   0.326
 7269W        W11469   0.844   6.753   0.818
 7270W        W11470   1.293   7.012   0.646
 7271W        W11471   9.680   8.147   9.459
 7272W        W11472   0.106   3.092   1.167
 7273W        W11473   2.768   1.660   2.238
 7274W        W11474   8.507   5.620   8.477
 7275W        W11475   8.576   8.455  10.674
 7276W        W11476   0.625   7.189   0.978
 7277W        W11477   2.114   9.734   9.790
 7278W        W11478   7.774   6.356  11.005
 7279W        W11479   5.137   0.024   1.258
 7280W        W11480   2.360   6.054   2.386
 7281W        W11481  10.030   9.466   3.007
 7282W        W11482   5.586   7.049   1.947
 7283W        W11483   3.634   6.921   9.322
 7284W        W11484   7.121   0.278   3.273
 7285W        W11485   4.748   2.255   9.040
 7286W        W11486   2.317   3.852   1.276
 7287W        W11487  10.958   3.781   1.034
 7288W        W11488   0.420   5.037   0.508
 7289W        W11489   4.100  10.656  11.507
 7290W        W11490   0.818   1.006  11.314
 7291W        W11491   6.385   2.502   8.178
 7292W        W11492   3.675   7.501   1.753
 7293W        W11493   0.940   5.229  11.326
 7294W        W11494   3.131  10.956   0.430
 7295W        W11495   4.336   4.971   0.577
 7296W        W11496   1.518  10.964   9.908
 7297W        W11497   3.919   2.815  11.599
 7298W        W11498   5.327   3.998  10.487
 7299W        W11499   6.673   4.727   2.167
 7300W        W11500   6.634   7.664   2.797
 7301W        W11501   9.017   6.672   9.913
 7302W        W11502   8.118  11.245  11.354
 7303W        W11503   7.581   3.238   3.328
 7304W        W11504   9.490   1.869   8.822
 7305W        W11505   3.057   0.936  10.602
 7306W        W11506   1.746   5.253   1.392
 7307W        W11507   8.773   5.350  11.614
 7308W        W11508   6.211   1.932   9.801
 7309W        W11509   2.911   7.874   9.030
 7310W        W11510   9.539   2.226   2.694
 7311W        W11511   8.539   6.399   8.156
 7312W        W11512   7.905   4.834   9.043
 7313W        W11513   4.733   8.474   2.285
 7314W        W11514   9.501   3.710   3.411
 7315W        W11515   0.369  10.079  10.010
 7316W        W11516   4.798   1.167   3.743
 7317W        W11517   6.418   2.899   2.764
 7318W        W11518   1.994   3.393   2.663
 7319W        W11519   1.428   7.950   1.775
 7320W        W11520   3.123   6.526   0.275
 7321W        W11521   4.258   0.590   1.933
 7322W        W11522   7.017   2.396   0.743
 7323W        W11523   1.712   8.418   0.593
 7324W        W11524   0.017   2.040   0.883
 7325W        W11525   5.585   2.727   3.889
 7326W        W11526   6.548   3.378  11.611
 7327W        W11527   5.594   4.624   8.245
 7328W        W11528   7.452   8.865   0.960
 7329W        W11529   0.451   9.620  11.928
 7330W        W11530   5.738   1.395   9.330
 7331W        W11531   5.560   2.360   9.849
 7332W        W11532   0.807   5.533  11.719
 7333W        W11533   3.614  10.869   0.210
 7334W        W11534   5.283   9.828  10.400
 7335W        W11535   8.865   9.369  11.911
 7336W        W11536  10.866   3.674   8.805
 7337W        W11537   4.270   7.704   2.271
 7338W        W11538   9.558   6.442   2.564
 7339W        W11539   4.476   8.457  11.724
 7340W        W11540   4.117   5.536   0.685
 7341W        W11541  11.350   8.978   0.997
 7342W        W11542   2.998   9.711   8.425
 7343W        W11543   4.187   1.808   3.215
 7344W        W11544  11.400   1.880   3.096
 7345W        W11545   0.489   3.620   0.470
 7346W        W11546   8.945   3.743   1.447
 7347W        W11547   0.885  10.501  10.561
 7348W        W11548   7.675   1.922  10.637
 7349W        W11549   3.104  11.030   0.942
 7350W        W11550   0.763   4.123   3.700
 7351W        W11551   1.708  11.328   9.580
 7352W        W11552   1.080   1.271   0.876
 7353W        W11553   4.469   4.667   8.937
 7354W        W11554   3.668   3.182   0.393
 7355W        W11555   8.155   7.523   9.723
 7356W        W11556   2.233  10.279  11.049
 7357W        W11557   1.921   3.789   0.267
 7358W        W11558  10.866   3.593  10.660
 7359W        W11559   3.567  10.878   3.313
 7360W        W11560   9.425   1.836   2.255
 7361W        W11561   3.300   0.625  10.030
 7362W        W11562   0.002  11.340   1.501
 7363W        W11563   2.281   2.744   0.438
 7364W        W11564  11.354   8.873  10.057
 7365W        W11565   4.737   5.963   4.057
 7366W        W11566   6.388  10.900  11.084
 7367W        W11567   6.653   5.717  11.528
 7368W        W11568   7.855   2.199   9.751
 7369W        W11569  11.109   3.702   9.262
 7370W        W11570  10.841   4.953   0.350
 7371W        W11571   2.442   9.261  11.766
 7372W        W11572   1.716   5.250   8.491
 7373W        W11573   0.946   9.505   2.929
 7374W        W11574   1.853   7.907   1.498
 7375W        W11575   1.829   5.699   1.125
 7376W        W11576   1.870   7.528   0.739
 7377W        W11577   3.829   3.549   2.666
 7378W        W11578   6.157   9.503   1.947
 7379W        W11579   7.655   4.561   3.748
 7380W        W11580   1.265   6.662   1.635
 7381W        W11581   9.851  10.492   0.300
 7382W        W11582   1.814   4.583   1.450
 7383W        W11583   1.635   5.663  11.190
 7384W        W11584   9.364  10.332   9.979
 7385W        W11585   2.747   5.528   1.185
 7386W        W11586   5.702   7.532   2.680
 7387W        W11587   0.975   4.197  10.559
 7388W        W11588   9.508   4.411   1.799
 7389W        W11589   2.661  10.266   9.596
 7390W        W11590   5.332   4.248   1.967
 7391W        W11591   0.460   1.713   1.946
 7392W        W11592   3.702   1.742   2.574
 7393W        W11593   0.857   0.745   1.681
 7394W        W11594   2.311   7.067   8.546
 7395W        W11595   8.351   5.270  11.934
 7396W        W11596  10.393   2.191   9.544
 7397W        W11597   1.168   5.832   2.879
 7398W        W11598   6.040   2.587   2.112
 7399W        W11599   3.562   5.175   8.974
 7400W        W11600   8.034   5.708   3.852
 7401W        W11601   2.365   6.059   3.307
 7402W        W11602  11.028   8.272   0.802
 7403W        W11603   4.428   0.366   3.294
 7404W        W11604   9.231   0.463   1.602
 7405W        W11605   5.600   4.040  10.954
 7406W        W11606   9.587   7.393   2.680
 7407W        W11607   0.038  10.242   9.470
 7408W        W11608   5.955  10.272   0.191
 7409W        W11609   2.745   9.942   2.713
 7410W        W11610   1.834   7.250   2.321
 7411W        W11611   1.436   8.648  10.062
 7412W        W11612   9.005   5.117   9.415
 7413W        W11613   4.065  10.775   9.404
 7414W        W11614   6.364   8.008   1.544
 7415W        W11615  10.379   4.689   0.386
 7416W        W11616   7.314   5.696   2.433
 7417W        W11617   3.275   8.210  10.609
 7418W        W11618   2.694   0.870   3.113
 7419W        W11619  10.574   9.440   3.143
 7420W        W11620   6.647   3.753  10.332
 7421W        W11621   3.241   6.961   8.976
 7422W        W11622   8.465   0.184   8.412
 7423W        W11623   3.751   2.776   0.676
 7424W        W11624   2.515  11.345   3.369
 7425W        W11625  11.146   7.932   9.844
 7426W        W11626   5.023   3.119   2.349
 7427W        W11627   6.750   9.797  10.448
 7428W        W11628   3.532   4.461   9.347
 7429W        W11629  11.108   8.801   1.448
 7430W        W11630   3.120  10.867   1.487
 7431W        W11631   6.985  11.142   9.519
 7432W        W11632   6.383   9.381   0.469
 7433W        W11633   8.349  10.026   1.735
 7434W        W11634   4.958   3.713  11.746
 7435W        W11635   7.661   1.780  10.106
 7436W        W11636   3.678  10.937   1.695
 7437W        W11637   0.314   4.308   8.829
 7438W        W11638   4.716   5.704   0.031
 7439W        W11639  10.794   0.764   9.434
 7440W        W11640   1.185  11.347   9.825
 7441W        W11641   2.427   8.911   2.359
 7442W        W11642  10.553   4.220   0.939
 7443W        W11643   0.164   2.198  11.827
 7444W        W11644   2.943   2.662   0.002
 7445W        W11645  10.718   5.252   8.555
 7446W        W11646   7.594   8.096  11.758
 7447W        W11647   0.554   5.084   1.848
 7448W        W11648   2.230   3.841  11.842
 7449W        W11649  10.312   0.975  11.421
 7450W        W11650  11.382  10.088  11.121
 7451W        W11651  10.521  11.338   3.306
 7452W        W11652   7.080   1.850   3.455
 7453W        W11653   3.009   2.131   2.230
 7454W        W11654   8.171   9.940   2.733
 7455W        W11655   3.179   9.595  10.267
 7456W        W11656  10.687   0.336   3.259
 7457W        W11657   3.283   4.119   0.839
 7458W        W11658   4.098   6.975   1.946
 7459W        W11659  11.022  10.696   9.965
 7460W        W11660   5.129   7.222  11.515
 7461W        W11661   8.101  10.859   3.283
 7462W        W11662   2.212   5.083   8.632
 7463W        W11663  10.795   0.346   8.513
 7464W        W11664   5.531   7.200   3.822
 7465W        W11665  10.388   5.459   8.887
 7466W        W11666   2.857   2.720   3.307
 7467W        W11667  10.740   9.276  11.615
 7468W        W11668  10.346   5.608   3.065
 7469W        W11669   8.115  10.262   9.588
 7470W        W11670   1.761  10.088   9.737
 7471W        W11671   5.533   4.546   3.795
 7472W        W11672   4.672   9.301  11.781
 7473W        W11673   7.607   4.768   2.172
 7474W        W11674   7.131   8.444   9.241
 7475W        W11675   1.080   4.849   3.648
 7476W        W11676   1.692   8.161   3.474
 7477W        W11677   4.024   7.600  11.886
 7478W        W11678   9.167   3.660  11.686
 7479W        W11679   5.628   0.337   9.488
 7480W        W11680   8.606   8.016  11.519
 7481W        W11681  11.321  10.027   1.148
 7482W        W11682  11.396   8.268   9.065
 7483W        W11683   3.368  10.365   1.131
 7484W        W11684   1.871   8.347   1.064
 7485W        W11685   1.258   9.042  11.137
 7486W        W11686   2.649   9.775   0.464
 7487W        W11687   5.041   5.311   2.374
 7488W        W11688   7.740   2.373   0.275
 7489W        W11689  10.328   9.125   1.747
 7490W        W11690   8.950  10.448   2.809
 7491W        W11691   1.098   4.402   8.701
 7492W        W11692   2.943   8.879   2.402
 7493W        W11693   1.704   1.419  11.890
 7494W        W11694   3.496   2.558   9.015
 7495W        W11695   7.120   8.829   2.226
 7496W        W11696   6.836   7.546   1.321
 7497W        W11697   2.676   0.352   3.424
 7498W        W11698   1.212   9.533   1.237
 7499W        W11699   7.819   8.578   9.999
 7500W        W11700   6.196   7.327   2.695
 7501W        W11701   2.626   0.709   0.352
 7502W        W11702   3.113   1.673   9.113
 7503W        W11703   8.037   4.721  11.291
 7504W        W11704   4.641   8.519   1.259
 7505W        W11705   5.066   6.088   1.996
 7506W        W11706   4.703   4.837   0.948
 7507W        W11707   1.230   0.762   9.418
 7508W        W11708   7.512   2.638   9.054
 7509W        W11709   6.566   9.023  10.728
 7510W        W11710   1.799   6.610   9.586
 7511W        W11711  10.465   0.195   0.472
 7512W        W11712   8.202   8.496  10.311
 7513W        W11713   4.502   5.256  11.740
 7514W        W11714   0.943   3.100   0.968
 7515W        W11715   9.992   6.797   0.707
 7516W        W11716   2.404   7.995   0.064
 7517W        W11717   0.734   5.713   1.997
 7518W        W11718   8.682   2.038   2.951
 7519W        W11719   5.038   4.383  11.491
 7520W        W11720   9.310   8.389   0.508
 7521W        W11721   8.891   2.302  10.436
 7522W        W11722   3.919   2.386   8.617
 7523W        W11723  10.942   5.240  10.049
 7524W        W11724   6.782   5.120  10.125
 7525W        W11725   9.052   2.540   0.457
 7526W        W11726   8.871   4.443   8.857
 7527W        W11727   3.225   8.415   1.774
 7528W        W11728   3.570   4.873   1.261
 7529W        W11729  10.548   3.745   0.729
 7530W        W11730   6.572   3.335  10.028
 7531W        W11731   0.966   4.800   9.048
 7532W        W11732   5.447   8.393  11.702
 7533W        W11733   1.916   3.649   9.315
 7534W        W11734   3.893   2.153  10.793
 7535W        W11735  10.428   1.171  10.570
 7536W        W11736   3.448   5.230   4.131
 7537W        W11737   6.163   2.748   3.170
 7538W        W11738   4.059   9.165  11.376
 7539W        W11739   6.031   4.782  10.856
 7540W        W11740   8.235   8.433   1.391
 7541W        W11741   9.331   1.819  11.441
 7542W        W11742   1.668   6.490   3.295
 7543W        W11743   8.132   7.348   9.252
 7544W        W11744   8.266   1.703   2.982
 7545W        W11745   8.577  10.860   2.842
 7546W        W11746   2.222   4.072   3.107
 7547W        W11747  11.462   9.612  11.782
 7548W        W11748   0.446   2.655   2.874
 7549W        W11749   6.192   5.062   1.338
 7550W        W11750   6.559   9.057   2.911
 7551W        W11751   7.686  11.455  11.525
 7552W        W11752   6.317   0.890   0.453
 7553W        W11753   0.857   8.942  11.511
 7554W        W11754   2.152   9.813  11.262
 7555W        W11755   5.020   7.414   0.049
 7556W        W11756  10.747  10.834   1.279
 7557W        W11757   3.982   7.956   9.168
 7558W        W11758   5.070   4.084   8.725
 7559W        W11759   9.055   3.383   8.989
 7560W        W11760   4.349   9.580   0.356
 7561W        W11761   2.371   6.700   8.989
 7562W        W11762   6.126   6.033   2.279
 7563W        W11763   6.225   4.498   3.053
 7564W        W11764   0.865   5.658   1.164
 7565W        W11765   0.370   9.557   9.963
 7566W        W11766   8.576   5.205   8.161
 7567W        W11767   3.329   2.484   2.420
 7568W        W11768  10.394   0.481   8.809
 7569W        W11769   8.554   3.684  11.022
 7570W        W11770  11.356   8.249  11.299
 7571W        W11771  10.196   0.245   3.165
 7572W        W11772   6.211   6.593  11.323
 7573W        W11773  10.810   3.283   1.877
 7574W        W11774   5.134   7.406  10.090
 7575W        W11775   0.478  10.821  10.442
 7576W        W11776   5.211   8.666   2.571
 7577W        W11777  10.015  11.300  10.837
 7578W        W11778   7.120   9.338   1.493
 7579W        W11779   9.182   8.247   9.451
 7580W        W11780   5.219   1.927   0.424
 7581W        W11781   4.217   4.554   2.367
 7582W        W11782   8.964   8.920  10.233
 7583W        W11783   0.652   2.393   3.276
 7584W        W11784   7.552   6.381   4.073
 7585W        W11785   9.014   6.473   7.875
 7586W        W11786   7.975   6.849  10.864
 7587W        W11787   2.789  11.306   1.235
 7588W        W11788   9.614   4.546   9.354
 7589W        W11789   6.903   7.606  10.832
 7590W        W11790   5.629   9.816  10.830
 7591W        W11791   0.390   6.560   9.679
 7592W        W11792   2.143   0.391   1.354
 7593W        W11793   3.015   2.324  10.650
 7594W        W11794  10.829  10.773  11.395
 7595W        W11795   1.231   7.843   2.915
 7596W        W11796   0.398   7.081   3.021
 7597W        W11797   5.042   8.841  10.538
 7598W        W11798   7.449   1.646   0.734
 7599W        W11799   5.605   0.248  11.012
 7600W        W11800   7.881   7.797   9.357
 7601W        W11801   6.437   9.694  10.865
 7602W        W11802   5.255   2.891   2.731
 7603W        W11803   5.195   6.159  10.456
 7604W        W11804   5.214   2.109   8.464
 7605W        W11805   1.451   0.230  11.252
 7606W        W11806   2.705   1.627   0.117
 7607W        W11807   0.877   6.845   3.120
 7608W        W11808   8.212   3.692   8.608
 7609W        W11809   0.885   9.061   1.989
 7610W        W11810   6.106  11.331  10.902
 7611W        W11811   5.626   9.465  10.280
 7612W        W11812   3.567   0.151  10.037
 7613W        W11813  11.235  10.476   2.781
 7614W        W11814   6.609   8.931   0.431
 7615W        W11815   0.334   4.217   9.371
 7616W        W11816   1.505   7.421  11.130
 7617W        W11817   8.512   2.817  10.994
 7618W        W11818   2.839   9.802   8.959
 7619W        W11819   4.817   2.473  10.448
 7620W        W11820   3.524   1.299  10.726
 7621W        W11821   4.787   7.646   0.815
 7622W        W11822   1.585   5.171   9.510
 7623W        W11823   3.480   5.431   8.496
 7624W        W11824  10.329   5.580   1.932
 7625W        W11825   2.753   5.716  11.750
 7626W        W11826   9.214   5.191   1.914
 7627W        W11827   2.702   3.658   8.977
 7628W        W11828   5.948  10.344   8.519
 7629W        W11829   6.668  10.130   9.365
 7630W        W11830   2.224   2.435   9.027
 7631W        W11831   6.320   8.201   8.222
 7632W        W11832   6.976   0.011  10.473
 7633W        W11833   8.643  10.798   9.936
 7634W        W11834   6.021   4.544   9.924
 7635W        W11835   5.651   2.714  11.495
 7636W        W11836   4.100  10.638   8.655
 7637W        W11837   5.785   3.220   3.872
 7638W        W11838   5.061   0.701  10.337
 7639W        W11839   2.665   4.557  10.700
 7640W        W11840  11.083  11.481  11.766
 7641W        W11841   7.453   1.253  11.846
 7642W        W11842   5.557   5.933  11.093
 7643W        W11843   1.814   6.401   0.027
 7644W        W11844   5.453  11.272  10.304
 7645W        W11845   2.958   8.389   8.355
 7646W        W11846   4.234   5.532  11.314
 7647W        W11847   4.755   7.452   2.282
 7648W        W11848   6.055   2.121  10.595
 7649W        W11849   9.285   8.161  10.268
 7650W        W11850   2.828   1.230   1.918
 7651W        W11851   8.888   1.156  11.995
 7652W        W11852   4.743   9.316  10.698
 7653W        W11853   0.930  11.263   1.902
 7654W        W11854   1.129   2.654   1.134
 7655W        W11855   8.214   6.081   1.227
 7656W        W11856   9.963   0.366   9.610
 7657W        W11857   0.290   6.966   9.989
 7658W        W11858   2.622   8.541   8.716
 7659W        W11859   2.686   5.065   8.391
 7660W        W11860   2.738   4.244   8.298
 7661W        W11861  11.392   4.806  10.072
 7662W        W11862   4.272   2.698  10.197
 7663W        W11863   5.047   4.434   9.087
 7664W        W11864   5.637   9.829   9.343
 7665W        W11865   5.816   3.614   1.436
 7666W        W11866   9.496  10.410   9.049
 7667W        W11867   6.202   5.712   2.692
 7668W        W11868  10.437   5.199   9.320
 7669W        W11869   9.296   7.445   8.519
 7670W        W11870  11.331   8.291   3.110
 7671W        W11871   0.007   6.036   1.085
 7672W        W11872  11.291   4.739   9.568
 7673W        W11873  11.313   1.865  10.030
 7674W        W11874   3.005   6.923  10.348
 7675W        W11875   6.838   7.134  11.530
 7676W        W11876   6.432   6.628   9.555
 7677W        W11877   5.156   2.362  11.321
 7678W        W11878   7.741   5.069  10.762
 7679W        W11879   6.741   3.673   1.269
 7680W        W11880   2.648   1.446   0.769
 7681W        W11881   2.817   2.597   2.312
 7682W        W11882   7.117  10.505   2.932
 7683W        W11883   9.778   9.425   9.086
 7684W        W11884  10.603   4.770  11.935
 7685W        W11885   7.571  10.360   3.106
 7686W        W11886   0.871   1.449   9.511
 7687W        W11887   3.618   3.990  10.125
 7688W        W11888  10.516   5.155   1.716
 7689W        W11889   0.684   9.556   2.493
 7690W        W11890   1.839   5.157   9.949
 7691W        W11891   3.830   3.281  11.346
 7692W        W11892   9.947  10.084   9.745
 7693W        W11893  10.314  11.437   1.841
 7694W        W11894   7.113   2.606  10.830
 7695W        W11895   4.772   9.509   9.245
 7696W        W11896   5.157   9.586  11.392
 7697W        W11897  10.013   2.122   2.921
 7698W        W11898   7.988   5.718  11.489
 7699W        W11899   9.940   4.927   0.048
 7700W        W11900   1.195  10.826  10.282
 7701W        W11901   7.630   0.514   0.743
 7702W        W11902   6.800   7.029   1.195
 7703W        W11903  10.316   0.777   9.257
 7704W        W11904   0.045   6.962  11.843
 7705W        W11905   6.510   4.541   0.644
 7706W        W11906   8.156  11.490   9.716
 7707W        W11907   0.688   3.017   2.377
 7708W        W11908   5.155   8.001   1.156
 7709W        W11909  10.357   0.899   2.387
 7710W        W11910   0.219   9.814  11.383
 7711W        W11911   8.464   9.498  11.636
 7712W        W11912   2.231   0.680   3.307
 7713W        W11913   2.321  10.500  11.933
 7714W        W11914   0.076   1.527   0.857
 7715W        W11915   2.330   8.453   1.270
 7716W        W11916   3.739   3.081   2.852
 7717W        W11917   4.375   9.396   3.630
 7718W        W11918   2.280  11.241   2.272
 7719W        W11919   3.655   7.580   0.430
 7720W        W11920   2.646   4.971   0.355
 7721W        W11921   1.379  10.000  11.757
 7722W        W11922   7.922   1.483  10.737
 7723W        W11923  10.484   1.188   1.540
 7724W        W11924   0.711   3.122   9.289
 7725W        W11925   7.103   1.639  10.805
 7726W        W11926   6.140   7.631   2.307
 7727W        W11927   6.589   6.532   1.163
 7728W        W11928   1.760   2.037   0.501
 7729W        W11929   9.403   1.324  11.509
 7730W        W11930   3.688   3.711   1.655
 7731W        W11931   7.448   4.301   1.972
 7732W        W11932   1.892   1.534   0.471
 7733W        W11933   1.134   9.433   2.253
 7734W        W11934   9.954   6.648   8.720
 7735W        W11935   5.970  10.733   3.380
 7736W        W11936   0.265   9.508   8.991
 7737W        W11937   7.866   5.495  11.025
 7738W        W11938   8.238   9.105   2.178
 7739W        W11939   0.984   3.201   2.775
 7740W        W11940   3.014   4.215  11.504
 7741W        W11941  10.186   4.487  11.934
 7742W        W11942   7.573  10.323  10.289
 7743W        W11943   1.670   9.008   2.853
 7744W        W11944  10.829   6.567   0.678
 7745W        W11945   6.709   0.071   0.431
 7746W        W11946  11.299   6.108   1.545
 7747W        W11947   9.598   3.683  11.917
 7748W        W11948   2.009  11.470   0.849
 7749W        W11949   3.746   7.822   2.180
 7750W        W11950   1.715   5.785   0.644
 7751W        W11951   8.856   8.124   1.471
 7752W        W11952   4.940   6.509   9.082
 7753W        W11953   0.026   2.722   1.974
 7754W        W11954  10.449  11.076  11.078
 7755W        W11955   6.692   2.218   9.390
 7756W        W11956   4.394   1.528   2.259
 7757W        W11957   3.570   4.209   8.914
 7758W        W11958   4.786   0.222  10.962
 7759W        W11959   2.850   7.093   3.257
 7760W        W11960   5.724  10.631   9.946
 7761W        W11961  10.950   4.783   8.578
 7762W        W11962   9.252   9.089   0.629
 7763W        W11963  10.575   2.771  10.716
 7764W        W11964   6.186   1.739   1.002
 7765W        W11965   6.485  10.681   0.812
 7766W        W11966   3.171   4.214   2.267
 7767W        W11967   5.266   6.775   8.751
 7768W        W11968   0.410   5.597   0.042
 7769W        W11969  11.462   6.185   9.070
 7770W        W11970  10.884   5.903  10.988
 7771W        W11971   4.239  10.090  10.797
 7772W        W11972   8.989   9.035   1.054
 7773W        W11973   5.054  11.109   9.335
 7774W        W11974   8.523   5.312   2.385
 7775W        W11975   3.169   3.305   9.984
 7776W        W11976   8.193   0.965   0.104
 7777W        W11977   1.378  10.373  10.484
 7778W        W11978   1.918   4.292   0.435
 7779W        W11979   6.547   3.695   0.380
 7780W        W11980   6.441  10.825   2.293
 7781W        W11981   0.697   9.775   8.921
 7782W        W11982   6.191   4.292  11.888
 7783W        W11983   9.564  11.079   9.794
 7784W        W11984   2.416   5.063  10.507
 7785W        W11985   8.215   5.104  10.983
 7786W        W11986   9.400   3.753   1.190
 7787W        W11987   7.102   6.970   2.358
 7788W        W11988   1.761   7.718   2.152
 7789W        W11989  11.343   9.385   9.985
 7790W        W11990   2.484   3.107  10.615
 7791W        W11991   8.880   9.808  11.655
 7792W        W11992   5.151   1.891   1.835
 7793W        W11993   4.808  11.325   1.599
 7794W        W11994   2.922   3.662   0.241
 7795W        W11995   5.359   2.730   9.023
 7796W        W11996   7.983   0.214  11.871
 7797W        W11997   6.403   9.104   3.729
 7798W        W11998   8.382   3.391   1.781
 7799W        W11999   5.994   0.193   0.223
 7800W        W12000   6.507  10.842  11.586
 7801W        W12001  10.455   2.220   3.540
 7802W        W12002   0.785   6.711   1.805
 7803W        W12003   8.428   1.406  11.964
 7804W        W12004   1.800   1.746  10.034
 7805W        W12005   3.260   8.683  10.328
 7806W        W12006   6.590   6.158   0.812
 7807W        W12007   9.498   8.116   3.215
 7808W        W12008   1.425   3.530   2.058
 7809W        W12009   6.273   8.845  11.092
 7810W        W12010   8.861   6.237   3.229
 7811W        W12011   8.767   9.584   3.172
 7812W        W12012   5.702   5.146   9.138
 7813W        W12013   9.340   3.388   1.786
 7814W        W12014   7.639   5.410   9.798
 7815W        W12015   3.126   2.111   9.687
 7816W        W12016   0.943   1.968   3.216
 7817W        W12017   8.945   0.507   3.236
 7818W        W12018  10.395   6.442   1.993
 7819W        W12019   7.924   4.252  10.045
 7820W        W12020   6.665   2.529  11.984
 7821W        W12021   4.501   5.793   1.077
 7822W        W12022  10.842   7.016   0.923
 7823W        W12023   4.447   3.246   0.782
 7824W        W12024  10.658   9.580   9.551
 7825W        W12025  11.358   5.524   3.234
 7826W        W12026   6.656   2.735   9.496
 7827W        W12027   5.509  10.167  11.812
 7828W        W12028   2.791   4.847   0.840
 7829W        W12029   2.464   9.525   1.689
 7830W        W12030   5.144   6.508   1.170
 7831W        W12031   1.816   3.356   0.839
 7832W        W12032  10.465   9.105   9.405
 7833W        W12033   4.308   8.634   3.683
 7834W        W12034   0.850   0.287   1.155
 7835W        W12035   5.963   8.197   3.599
 7836W        W12036   7.641   6.545  10.539
 7837W        W12037   4.445   4.213  10.442
 7838W        W12038   8.961  10.824   9.452
 7839W        W12039   7.857   6.947   9.062
 7840W        W12040   8.533   6.922   1.390
 7841W        W12041   2.687  10.786   1.126
 7842W        W12042  10.023  11.275   3.078
 7843W        W12043   3.094   7.031   1.941
 7844W        W12044   3.774   5.965  11.026
 7845W        W12045   4.818   6.144  11.297
 7846W        W12046   9.546   8.615  10.352
 7847W        W12047   3.370  10.025   9.178
 7848W        W12048   2.241   7.867   9.455
 7849W        W12049   3.353   3.463   0.072
 7850W        W12050   1.468   7.830  11.985
 7851W        W12051   4.511   2.751   9.769
 7852W        W12052   8.594   9.136   0.447
 7853W        W12053   9.098  11.356  10.828
 7854W        W12054   7.198   2.361   3.389
 7855W        W12055   2.577   2.633  11.280
 7856W        W12056   0.353   4.816   1.263
 7857W        W12057   4.717   0.210   2.905
 7858W        W12058   5.762   4.376   1.693
 7859W        W12059   6.630   6.100   2.258
 7860W        W12060   5.876   2.721   8.974
 7861W        W12061   8.276   5.153   3.215
 7862W        W12062   6.936   5.124   2.385
 7863W        W12063   9.125   8.412  11.510
 7864W        W12064   2.247   5.269   9.104
 7865W        W12065   1.281   4.103   9.742
 7866W        W12066   0.887   0.301   2.151
 7867W        W12067   7.461  11.463  10.181
 7868W        W12068   0.724   2.168   1.965
 7869W        W12069   7.168   0.772  11.849
 7870W        W12070   8.349   4.541  10.286
 7871W        W12071  11.105   4.099   2.297
 7872W        W12072   9.904   3.790   1.340
 7873W        W12073   3.120   9.362   0.750
 7874W        W12074   3.810   1.644   9.930
 7875W        W12075  10.855   4.643  10.853
 7876W        W12076   8.259   6.355  10.812
 7877W        W12077  10.104   3.822   9.529
 7878W        W12078  10.678   4.163  10.563
 7879W        W12079   5.127   7.496  10.597
 7880W        W12080  11.408  10.966   2.794
 7881W        W12081   0.427   5.291   1.393
 7882W        W12082  10.170   3.756   3.438
 7883W        W12083   6.344   3.972   8.170
 7884W        W12084   3.210   5.421   3.720
 7885W        W12085   8.504   0.783   3.208
 7886W        W12086   1.807   6.496   9.069
 7887W        W12087   2.310   1.845   0.447
 7888W        W12088  10.866   3.902  11.086
 7889W        W12089   5.212   1.844  11.439
 7890W        W12090   5.469   8.162   9.892
 7891W        W12091   5.876   2.017   1.908
 7892W        W12092   2.308   7.535  11.792
 7893W        W12093   3.112   0.301   1.406
 7894W        W12094   7.649   3.118  10.966
 7895W        W12095   2.440  10.710  10.882
 7896W        W12096   4.176   3.212  10.447
 7897W        W12097   8.581   4.268   2.868
 7898W        W12098   1.377   0.395   0.849
 7899W        W12099   0.286   0.399   0.017
 7900W        W12100   7.055   0.247   2.224
 7901W        W12101   9.106   6.606   8.862
 7902W        W12102   4.189   7.498   1.829
 7903W        W12103   8.612   1.797   3.375
 7904W        W12104   1.523   0.328   9.570
 7905W        W12105   1.441   2.881   8.338
 7906W        W12106   7.342   6.452  10.089
 7907W        W12107  10.573   7.118   2.756
 7908W        W12108  11.424   9.811   3.353
 7909W        W12109   6.456   9.764   0.804
 7910W        W12110   1.922   7.684   3.500
 7911W        W12111   2.841   1.886   0.535
 7912W        W12112   7.034   4.840   9.111
 7913W        W12113   3.299   6.212  10.698
 7914W        W12114   9.613   3.112   2.758
 7915W        W12115   6.458   6.082  10.973
 7916W        W12116  10.348  10.387   0.222
 7917W        W12117   3.129   6.045  11.844
 7918W        W12118   5.382   1.911  10.030
 7919W        W12119   7.708   5.953  10.702
 7920W        W12120   7.497   5.375   0.242
 7921W        W12121   9.427  10.241   2.827
 7922W        W12122   0.992   9.845   1.668
 7923W        W12123   4.608   1.765   1.434
 7924W        W12124   6.150   2.259   0.761
 7925W        W12125   1.814   2.264   8.751
 7926W        W12126   2.180   7.074  11.569
 7927W        W12127   9.462   9.131   9.387
 7928W        W12128   4.668   1.882  10.299
 7929W        W12129   1.353   7.041   3.241
 7930W        W12130   9.980   3.277  10.836
 7931W        W12131   8.945   5.090   3.764
 7932W        W12132   6.481   9.957  11.899
 7933W        W12133   5.203   8.330   1.567
 7934W        W12134   6.593   2.324   0.468
 7935W        W12135  11.281  10.536  10.396
 7936W        W12136   4.776   0.965   1.633
 7937W        W12137   7.718   8.981  11.461
 7938W        W12138   5.527   7.553  11.439
 7939W        W12139   7.622   3.118   2.025
 7940W        W12140   7.949   6.879  11.719
 7941W        W12141   4.777   9.366   2.222
 7942W        W12142   2.267   6.149   0.256
 7943W        W12143   3.956   0.434   8.803
 7944W        W12144   5.952   0.955   9.482
 7945W        W12145   7.517   4.099   9.259
 7946W        W12146   9.497   1.906   3.557
 7947W        W12147   4.629  11.076   2.027
 7948W        W12148   5.714   1.182   0.351
 7949W        W12149   5.417  10.801  10.736
 7950W        W12150   6.988   4.192   9.953
 7951W        W12151   7.661   7.069  10.486
 7952W        W12152   3.680   6.459  10.934
 7953W        W12153  10.041   8.316   8.385
 7954W        W12154  11.003   0.390  10.358
 7955W        W12155  10.820   4.195   2.742
 7956W        W12156   1.337   6.628   2.948
 7957W        W12157   2.307   4.706   9.277
 7958W        W12158   2.365   1.600   2.953
 7959W        W12159   2.982   7.526   2.562
 7960W        W12160   5.487  11.452   0.876
 7961W        W12161   9.557   5.402   1.616
 7962W        W12162   0.988   7.060   8.728
 7963W        W12163   7.094   3.035   0.117
 7964W        W12164   1.790   5.415   0.305
 7965W        W12165   6.834   3.277   3.762
 7966W        W12166   6.675   5.335  10.575
 7967W        W12167   3.588   1.465   1.285
 7968W        W12168   4.178   7.977   0.879
 7969W        W12169   4.333   4.848   2.799
 7970W        W12170   2.240   0.331   1.997
 7971W        W12171   8.333  10.391   0.432
 7972W        W12172   5.196   9.364  11.866
 7973W        W12173   7.632   2.582  11.803
 7974W        W12174   2.843   2.853   2.793
 7975W        W12175   4.828   2.891  10.142
 7976W        W12176   0.770   7.585   1.267
 7977W        W12177   8.631  10.862   3.357
 7978W        W12178   0.798   4.111   9.555
 7979W        W12179   6.127   0.415   1.709
 7980W        W12180  10.526  10.715   0.563
 7981W        W12181   4.991  10.606   2.359
 7982W        W12182   5.612   9.637   9.807
 7983W        W12183   8.060   7.392   1.661
 7984W        W12184   3.020   9.046   9.548
 7985W        W12185  10.301   3.571   2.951
 7986W        W12186   5.125   1.656   0.853
 7987W        W12187   5.119   1.139   8.813
 7988W        W12188  10.002  10.812   3.274
 7989W        W12189   8.524   0.404  11.484
 7990W        W12190   8.575   7.453   2.814
 7991W        W12191   4.512   0.429   2.333
 7992W        W12192   7.475   3.051   9.681
 7993W        W12193   7.241  10.871   1.971
 7994W        W12194   0.005   5.543  11.725
 7995W        W12195   5.022  10.326   3.216
 7996W        W12196   8.684   9.393   2.312
 7997W        W12197   9.563   1.118   0.359
 7998W        W12198   6.578   9.498  11.648
 7999W        W12199   1.812   5.894   0.133
 8000W        W12200   5.644   3.677   3.308
 8001W        W12201   8.655   1.252   2.485
 8002W        W12202   9.013   4.530  11.868
 8003W        W12203  11.028   9.041   8.765
 8004W        W12204   2.472   7.047  11.061
 8005W        W12205   0.924   9.909   2.195
 8006W        W12206   9.652  10.979   3.664
 8007W        W12207   8.818   7.090  11.248
 8008W        W12208   6.556   2.205   8.781
 8009W        W12209   3.244   6.512  11.211
 8010W        W12210   0.704   3.660   9.799
 8011W        W12211   8.090   6.221   4.018
 8012W        W12212  10.478   8.577   9.441
 8013W        W12213  10.787   9.037  10.735
 8014W        W12214   6.559   4.781   1.661
 8015W        W12215   7.957   4.129   3.679
 8016W        W12216   7.532   2.875  11.400
 8017W        W12217   3.344   2.776   0.337
 8018W        W12218   2.712   6.535   9.535
 8019W        W12219   7.124   6.615   3.815
 8020W        W12220   1.457   2.805   3.042
 8021W        W12221   1.366   6.059   3.408
 8022W        W12222   0.675   5.221   0.930
 8023W        W12223   8.350   5.573  10.814
 8024W        W12224   8.678  10.488   1.765
 8025W        W12225   2.647   8.030   8.600
 8026W        W12226   6.923   9.864  11.663
 8027W        W12227   9.141   1.811  10.387
 8028W        W12228   2.718   6.032   8.993
 8029W        W12229   2.263   6.614  11.847
 8030W        W12230   5.271   6.027  11.503
 8031W        W12231   5.811   2.711   8.363
 8032W        W12232   0.306   7.470   1.422
 8033W        W12233  10.814   7.667  10.145
 8034W        W12234   3.417   5.233   0.332
 8035W        W12235   9.295   9.315   1.810
 8036W        W12236   7.000   9.823   1.677
 8037W        W12237   5.933   8.668  10.303
 8038W        W12238   5.855   0.027   9.014
 8039W        W12239  10.944   7.956   3.221
 8040W        W12240   3.219  10.286   2.173
 8041W        W12241   6.493  11.411  10.277
 8042W        W12242   5.300   9.522   3.650
 8043W        W12243   4.500   1.641   9.883
 8044W        W12244   2.430   2.183  11.465
 8045W        W12245   6.135   8.847   1.842
 8046W        W12246   0.340  10.138   3.327
 8047W        W12247   3.421  10.488   9.935
 8048W        W12248   9.077  10.216   8.781
 8049W        W12249   6.988  10.978  11.691
 8050W        W12250   8.721   5.763   3.122
 8051W        W12251  10.313   2.432  10.423
 8052W        W12252   5.029   6.509  10.089
 8053W        W12253   6.900   8.969   3.677
 8054W        W12254   9.901   4.071   1.787
 8055W        W12255   9.337   6.062   9.261
 8056W        W12256   0.349   1.312  10.365
 8057W        W12257  11.265   4.228   2.987
 8058W        W12258   7.225  11.075  10.405
 8059W        W12259  10.344   1.774   2.181
 8060W        W12260   8.652   5.200  10.618
 8061W        W12261   7.568   4.823  11.455
 8062W        W12262   3.120   4.766   0.421
 8063W        W12263   3.449   8.003   9.113
 8064W        W12264   7.805   3.867   3.270
 8065W        W12265   2.477   7.473  11.322
 8066W        W12266   4.202   3.864  11.027
 8067W        W12267   0.414   0.853   8.755
 8068W        W12268   7.930   0.707   9.312
 8069W        W12269   9.800   2.826  11.576
 8070W        W12270  11.394   8.626   0.144
 8071W        W12271   3.406   9.889  11.531
 8072W        W12272   1.764   4.588   0.010
 8073W        W12273   0.921  11.412   3.024
 8074W        W12274   5.216   5.591   1.869
 8075W        W12275   6.727   0.504   3.563
 8076W        W12276   2.404   7.076   0.550
 8077W        W12277   9.550  11.175   0.505
 8078W        W12278   2.766   6.924   8.740
 8079W        W12279  10.392   5.091   3.300
 8080W        W12280   1.450   3.730   0.489
 8081W        W12281  10.391   5.132   0.660
 8082W        W12282  11.392   8.432   1.670
 8083W        W12283   4.145   4.126  10.029
 8084W        W12284   4.768   0.666   2.694
 8085W        W12285   9.607   2.302   3.202
 8086W        W12286   7.602   7.569   1.837
 8087W        W12287   6.597   2.078   0.932
 8088W        W12288  10.139   8.997   0.500
 8089W        W12289   6.548   0.417   1.422
 8090W        W12290   3.304   6.649   1.656
 8091W        W12291   3.563   8.068   0.800
 8092W        W12292   3.236   3.236   2.797
 8093W        W12293   0.765   2.241   2.800
 8094W        W12294   5.958   3.824  11.872
 8095W        W12295   0.422   3.054   9.738
 8096W        W12296  10.422  10.025   9.491
 8097W        W12297   9.059   5.003  10.361
 8098W        W12298   5.534   9.450   2.207
 8099W        W12299   3.112   5.146   8.679
 8100W        W12300   3.626   9.942  11.054
 8101W        W12301   4.276   2.650   1.446
 8102W        W12302   8.459  10.397   2.633
 8103W        W12303   2.186   2.271   0.735
 8104W        W12304   4.754   0.324   8.350
 8105W        W12305   9.812   7.011   2.338
 8106W        W12306   0.434   4.815  10.132
 8107W        W12307   3.781   5.957  10.493
 8108W        W12308  11.057   2.883  11.712
 8109W        W12309   2.816   0.810  10.027
 8110W        W12310   0.520   9.499  10.712
 8111W        W12311   6.944  11.388   0.865
 8112W        W12312   6.863   6.065   0.344
 8113W        W12313   0.821  11.183  10.176
 8114W        W12314   7.336   8.926  11.770
 8115W        W12315  10.468   8.692   3.434
 8116W        W12316   3.823   2.119   9.062
 8117W        W12317   4.170   1.952  10.126
 8118W        W12318   6.328   6.309   9.165
 8119W        W12319   5.172   1.149   0.854
 8120W        W12320   0.672   5.225   9.293
 8121W        W12321   8.057   5.681   1.675
 8122W        W12322   9.071   8.532  10.542
 8123W        W12323  10.946   9.138  10.265
 8124W        W12324   6.331  10.035  10.286
 8125W        W12325   8.178   6.567   8.937
 8126W        W12326   2.082   7.086   2.736
 8127W        W12327   7.082  10.548   1.497
 8128W        W12328   6.085   9.793   9.907
 8129W        W12329  10.965   4.896   1.618
 8130W        W12330   0.380   2.616  10.495
 8131W        W12331  10.006   0.798   9.908
 8132W        W12332   1.854  11.004  11.493
 8133W        W12333   0.222   4.530   9.760
 8134W        W12334   2.474   6.161   1.289
 8135W        W12335   7.514   9.713   1.335
 8136W        W12336  11.109   7.849   0.034
 8137W        W12337   4.370   8.964   8.525
 8138W        W12338   8.117   3.198  10.453
 8139W        W12339   1.230   9.960  11.279
 8140W        W12340   3.959  10.865   0.833
 8141W        W12341   6.274  10.971  10.564
 8142W        W12342   5.096   9.644  10.885
 8143W        W12343   5.141   2.632   2.299
 8144W        W12344   3.661   4.347  11.977
 8145W        W12345   2.697  11.204  10.413
 8146W        W12346   7.526   4.055  11.828
 8147W        W12347   9.048   9.510   0.878
 8148W        W12348   7.975   8.476  11.427
 8149W        W12349   2.242  10.963  10.492
 8150W        W12350   2.817   3.653   9.862
 8151W        W12351   7.448  10.782  10.737
 8152W        W12352   1.255   0.997  10.438
 8153W        W12353   6.022   3.819   0.909
 8154W        W12354   5.715   4.283   8.637
 8155W        W12355   2.930   3.021   0.930
 8156W        W12356  10.458   7.862  11.046
 8157W        W12357   1.520  10.267   0.492
 8158W        W12358   6.089   8.960   0.501
 8159W        W12359   2.679   0.771   2.145
 8160W        W12360   1.043   1.391   2.307
 8161W        W12361   5.540   1.474  10.200
 8162W        W12362   2.549  11.460   9.996
 8163W        W12363   7.262  10.499   8.953
 8164W        W12364  10.397   8.918   9.901
 8165W        W12365   1.659   9.073  10.359
 8166W        W12366   9.575   6.132   0.533
 8167W        W12367   3.600   6.994   2.842
 8168W        W12368   7.895   5.349   9.056
 8169W        W12369   8.503   1.242   9.001
 8170W        W12370  11.273   6.583  10.945
 8171W        W12371   3.639   2.836   2.201
 8172W        W12372  11.385   2.586  11.981
 8173W        W12373   3.561  10.168  10.346
 8174W        W12374  10.780   7.610   2.901
 8175W        W12375  10.248   9.669  11.246
 8176W        W12376   3.734   7.426   9.304
 8177W        W12377  11.416  10.975  10.120
 8178W        W12378   3.206   6.965  11.990
 8179W        W12379   5.561   4.477  11.695
 8180W        W12380   4.790  10.923   3.090
 8181W        W12381   4.593   6.285   0.646
 8182W        W12382   5.908   7.258   1.189
 8183W        W12383   5.634   6.654   3.647
 8184W        W12384   2.080   0.068   9.860
 8185W        W12385   3.893   5.105   1.580
 8186W        W12386   6.644   8.303   3.398
 8187W        W12387   8.903   7.805   9.461
 8188W        W12388   3.382   1.399   2.777
 8189W        W12389  10.643   5.469   9.681
 8190W        W12390   1.272   6.445   0.730
 8191W        W12391   8.119   6.597   0.491
 8192W        W12392   6.717  10.186   3.598
 8193W        W12393   3.458   8.450   3.607
 8194W        W12394   6.213   7.008  10.565
 8195W        W12395   0.187  10.899  11.096
 8196W        W12396   7.500   0.302   9.021
 8197W        W12397  11.189   2.916   0.938
 8198W        W12398   8.064   0.285   1.984
 8199W        W12399   0.349   8.483   9.820
 8200W        W12400   1.480   1.238   0.505
 8201W        W12401   7.697   8.433   0.784
 8202W        W12402   8.253   2.246   1.751
 8203W        W12403  11.119   1.314   0.943
 8204W        W12404   6.895  10.908   1.041
 8205W        W12405  11.478   0.530   3.778
 8206W        W12406   1.888   9.462  10.954
 8207W        W12407   9.939   6.507   2.223
 8208W        W12408   8.001   2.715   9.764
 8209W        W12409   2.191   9.926  10.260
 8210W        W12410   6.648   1.363  10.787
 8211W        W12411   8.669   6.594   2.631
 8212W        W12412   2.201   5.144   3.150
 8213W        W12413   8.104   8.647  10.805
 8214W        W12414   7.487   8.605   1.900
 8215W        W12415   5.164   6.235  10.952
 8216W        W12416   6.108  10.907   2.694
 8217W        W12417   5.346   6.047   1.262
 8218W        W12418  10.009   5.443  11.902
 8219W        W12419   7.114  10.574  10.384
 8220W        W12420   3.143  11.068   2.913
 8221W        W12421   4.508   3.625   9.156
 8222W        W12422   2.140  10.175   8.940
 8223W        W12423   7.228   3.324   0.924
 8224W        W12424   7.402   9.105   1.884
 8225W        W12425   2.146  10.991   9.581
 8226W        W12426   7.571   0.567   2.742
 8227W        W12427   8.961   4.549  10.154
 8228W        W12428   3.383   9.597  10.766
 8229W        W12429   7.172   5.587   1.945
 8230W        W12430   0.460   4.104   2.887
 8231W        W12431  10.324   7.620   2.701
 8232W        W12432   0.681  11.066  11.125
 8233W        W12433   2.299   2.288  10.902
 8234W        W12434   7.106   1.485   0.384
 8235W        W12435   2.212  10.769   0.362
 8236W        W12436   3.239   9.754   2.296
 8237W        W12437  11.057   7.911   1.153
 8238W        W12438   6.547   7.856  10.394
 8239W        W12439   0.075   3.777   3.615
 8240W        W12440  10.901   3.156  10.955
 8241W        W12441  10.946   0.161   8.987
 8242W        W12442   5.464   3.672  11.795
 8243W        W12443   6.219   4.166   3.469
 8244W        W12444   2.379   4.065   0.367
 8245W        W12445   2.122   2.697  11.486
 8246W        W12446  10.335   4.073   9.005
 8247W        W12447   1.383   2.711   0.127
 8248W        W12448   8.247   0.988   0.621
 8249W        W12449   7.946   4.095   9.524
 8250W        W12450   5.797   7.602   4.048
 8251W        W12451   8.072   4.724   9.891
 8252W        W12452   4.137   5.222  10.523
 8253W        W12453   1.148   4.461   1.806
 8254W        W12454  11.378  10.070  10.610
 8255W        W12455  11.223   6.279  11.376
 8256W        W12456   7.045   6.214   4.151
 8257W        W12457   5.017   4.711   0.206
 8258W        W12458   9.971   9.238  11.983
 8259W        W12459   0.911   3.668   3.418
 8260W        W12460   5.256   4.564   8.637
 8261W        W12461  11.479   3.521   0.399
 8262W        W12462   1.408  11.473   1.847
 8263W        W12463   1.291  11.105   2.222
 8264W        W12464   9.562   6.777  10.379
 8265W        W12465   5.618   6.518   9.874
 8266W        W12466   3.377   7.135   1.493
 8267W        W12467   1.315   5.970   9.182
 8268W        W12468   1.328   9.918   0.779
 8269W        W12469   0.392   0.034   2.317
 8270W        W12470   6.468   2.044  10.253
 8271W        W12471  10.267  10.533  10.274
 8272W        W12472   7.965   0.975  10.728
 8273W        W12473   6.607   7.818   9.104
 8274W        W12474   1.705   7.237   3.542
 8275W        W12475   4.082  10.744   0.043
 8276W        W12476   8.548  10.737   1.341
 8277W        W12477   6.585   5.716   0.038
 8278W        W12478   6.764   7.070   0.664
 8279W        W12479   6.656   3.282  10.543
 8280W        W12480   7.927   6.414   0.911
 8281W        W12481  10.086   5.881   3.427
 8282W        W12482   4.621   9.998  10.013
 8283W        W12483   9.404  10.644   1.215
 8284W        W12484   9.054   4.272   2.624
 8285W        W12485   8.950   5.566   2.145
 8286W        W12486   9.961   6.800   3.185
 8287W        W12487  11.074   0.954  11.771
 8288W        W12488   3.825   4.447  10.258
 8289W        W12489   9.239   5.808   0.216
 8290W        W12490   5.447   6.237   1.717
 8291W        W12491  11.438   7.305   2.985
 8292W        W12492  10.409   9.413   2.646
 8293W        W12493   6.534   8.305   1.169
 8294W        W12494   9.749   7.264  10.396
 8295W        W12495   4.318   7.205   2.370
 8296W        W12496  11.108   6.346   8.372
 8297W        W12497   4.133   4.859   8.582
 8298W        W12498  11.111   3.117   0.489
 8299W        W12499   1.587   6.676   0.389
 8300W        W12500   8.134   9.400   0.530
 8301W        W12501   8.040   9.962   2.227
 8302W        W12502   4.746  10.793   0.300
 8303W        W12503   8.688   8.861   9.816
 8304W        W12504   3.806  10.386   0.341
 8305W        W12505   9.594   8.893   2.711
 8306W        W12506   6.088   3.777   2.670
 8307W        W12507   0.725  10.268   9.150
 8308W        W12508   1.791   6.541   1.797
 8309W        W12509  11.484   5.102   1.652
 8310W        W12510   3.942   9.353   9.870
 8311W        W12511   1.668  11.286  11.094
 8312W        W12512   3.538   5.611   2.385
 8313W        W12513   2.179   0.204   3.520
 8314W        W12514   9.441   9.222  11.260
 8315W        W12515   6.400   1.683   2.045
 8316W        W12516  10.431   5.513   3.588
 8317W        W12517   1.945   3.141  10.491
 8318W        W12518   1.746   0.015   2.748
 8319W        W12519   6.910   8.234  10.205
 8320W        W12520   9.280   9.268   0.148
 8321W        W12521   2.461   7.953  10.381
 8322W        W12522   2.349   1.864   1.482
 8323W        W12523   4.810   8.006   2.875
 8324W        W12524  11.422  10.081   0.138
 8325W        W12525   7.686   5.172   1.807
 8326W        W12526   2.620   0.699  10.496
 8327W        W12527   3.421   6.480   9.052
 8328W        W12528   5.715  11.171   3.480
 8329W        W12529   4.696   9.800   2.461
 8330W        W12530   2.157   3.281  11.888
 8331W        W12531   3.849   7.134   9.744
 8332W        W12532   3.788   7.417  11.088
 8333W        W12533   7.718   8.475  10.491
 8334W        W12534   0.118   7.804   0.184
 8335W        W12535   1.634   5.732   2.649
 8336W        W12536  10.396   4.702   9.320
 8337W        W12537   6.117   1.223   3.345
 8338W        W12538   1.750   9.123  11.357
 8339W        W12539   8.556   2.709   0.521
 8340W        W12540   3.907  10.282   9.935
 8341W        W12541   9.046   9.974   0.576
 8342W        W12542   2.292   3.222  10.145
 8343W        W12543   8.605   0.045   0.862
 8344W        W12544   7.785   7.931  10.751
 8345W        W12545   1.575   9.768   1.507
 8346W        W12546  10.375   4.579   3.415
 8347W        W12547   6.135   9.052   3.263
 8348W        W12548   7.970  10.016   1.259
 8349W        W12549   8.852   5.475   0.110
 8350W        W12550  11.030   6.188   1.987
 8351W        W12551  11.300   7.711   0.607
 8352W        W12552   5.537   3.681  10.126
 8353W        W12553   8.465   2.210  10.767
 8354W        W12554   3.164   4.796   1.581
 8355W        W12555   1.470   4.749  11.073
 8356W        W12556   3.099   7.092   2.814
 8357W        W12557  10.820   6.346  10.733
 8358W        W12558   3.376  10.443   3.469
 8359W        W12559   6.256   9.965   1.705
 8360W        W12560   1.812   1.401  11.385
 8361W        W12561  10.891   6.591   8.819
 8362W        W12562   6.923   4.652   3.184
 8363W        W12563  10.346   8.303   1.241
 8364W        W12564   2.340   1.144   0.485
 8365W        W12565   0.557   2.456   2.383
 8366W        W12566   6.634   2.866  11.571
 8367W        W12567  10.798   2.888   3.692
 8368W        W12568   2.608   9.848   9.894
 8369W        W12569   2.233   0.508  11.793
 8370W        W12570   7.793   8.120   1.426
 8371W        W12571   0.263   1.303   1.718
 8372W        W12572  11.043  10.427   9.466
 8373W        W12573   5.496   6.131   9.501
 8374W        W12574   3.564   2.229   3.273
 8375W        W12575   0.466   7.084   1.719
 8376W        W12576   3.892   1.501   0.385
 8377W        W12577   5.551   7.812   9.533
 8378W        W12578   9.096   7.728   1.227
 8379W        W12579   7.474   8.688   0.379
 8380W        W12580  10.430  10.403   1.657
 8381W        W12581   4.184   8.544   3.066
 8382W        W12582   4.324   9.003   3.303
 8383W        W12583   8.622   8.315   2.999
 8384W        W12584   5.536   0.337   1.376
 8385W        W12585  11.088   3.387   2.966
 8386W        W12586   5.828  10.568  11.778
 8387W        W12587   4.536   4.864   0.090
 8388W        W12588   1.715   4.894   3.185
 8389W        W12589   8.095   1.834   9.475
 8390W        W12590   9.847   3.426   3.143
 8391W        W12591   7.886   1.762   1.012
 8392W        W12592  11.326  11.023  11.565
 8393W        W12593   5.177   6.500   0.170
 8394W        W12594   2.174  11.467   9.372
 8395W        W12595   0.652  11.068   0.291
 8396W        W12596   5.188   1.847   1.338
 8397W        W12597   6.465   5.058  10.959
 8398W        W12598   3.144   4.299   1.335
 8399W        W12599   1.797   9.963   2.819
 8400W        W12600   4.640   8.194   3.658
 8401W        W12601   6.997   8.864   0.125
 8402W        W12602   5.073   1.904   9.286
 8403W        W12603   2.072  11.062   8.607
 8404W        W12604   7.438   3.282   1.589
 8405W        W12605   0.256   1.061   0.893
 8406W        W12606   0.991  10.994  11.518
 8407W        W12607   4.476  11.070  11.936
 8408W        W12608   1.146  10.057   8.907
 8409W        W12609   5.620   9.803  11.452
 8410W        W12610   5.203   0.394   2.788
 8411W        W12611   3.288   3.273  11.062
 8412W        W12612  10.073   6.026   2.107
 8413W        W12613   0.509  10.542   0.018
 8414W        W12614   2.134   4.592   3.179
 8415W        W12615   3.384   2.425  11.495
 8416W        W12616   4.281   2.166   1.241
 8417W        W12617   5.854   8.674  11.847
 8418W        W12618   6.037   0.333  11.289
 8419W        W12619   4.225   0.280   2.785
 8420W        W12620   0.805   4.523   0.318
 8421W        W12621   9.938   8.575   1.060
 8422W        W12622   6.031   0.835  11.069
 8423W        W12623   5.209   0.532   9.229
 8424W        W12624   8.987   2.531  11.954
 8425W        W12625   7.745   6.152  10.232
 8426W        W12626   2.105   5.071   9.544
 8427W        W12627   2.439   0.356  10.843
 8428W        W12628   9.971   5.361   3.432
 8429W        W12629   5.100   9.127   9.475
 8430W        W12630   4.365   7.201   1.463
 8431W        W12631   8.461   0.266   0.402
 8432W        W12632   0.879  10.210  10.989
 8433W        W12633   2.079   9.431   0.763
 8434W        W12634   4.829   3.820  10.486
 8435W        W12635   3.533   5.235   0.869
 8436W        W12636   1.197   3.144   2.294
 8437W        W12637   7.291   0.556   1.397
 8438W        W12638   0.285   3.933   1.521
 8439W        W12639   8.846   2.247   9.891
 8440W        W12640   0.152  10.988   0.450
 8441W        W12641   9.472   9.854   9.889
 8442W        W12642  10.405   6.174  11.662
 8443W        W12643   1.304   6.478   9.260
 8444W        W12644   8.838   4.100  10.410
 8445W        W12645   7.959   7.507   0.291
 8446W        W12646   0.723   2.782  11.451
 8447W        W12647   6.305   7.611   4.091
 8448W        W12648   0.489   4.801   8.931
 8449W        W12649   5.030   0.448   2.289
 8450W        W12650   6.993  10.247  10.010
 8451W        W12651   3.883   8.825   3.488
 8452W        W12652   4.535   8.908  11.422
 8453W        W12653   4.586   2.348   2.167
 8454W        W12654   0.570   4.293   1.227
 8455W        W12655   3.745   7.136   8.869
 8456W        W12656   0.361   6.482  10.187
 8457W        W12657   0.283   0.874   9.722
 8458W        W12658   5.784   8.134  11.992
 8459W        W12659   5.625   9.299  10.768
 8460W        W12660   1.890   1.074   0.217
 8461W        W12661   2.814   4.674   9.144
 8462W        W12662  10.740   7.142   2.239
 8463W        W12663  10.372   7.136   0.748
 8464W        W12664  10.618   1.339   1.070
 8465W        W12665   6.172   0.387   0.657
 8466W        W12666  11.424   8.147   2.618
 8467W        W12667   2.578   1.595   9.001
 8468W        W12668   4.398   6.602  10.444
 8469W        W12669   8.585  10.247  10.565
 8470W        W12670   3.321   0.311   9.618
 8471W        W12671   3.213   3.646  10.356
 8472W        W12672   7.102   6.055   0.845
 8473W        W12673   7.048   7.595   8.960
 8474W        W12674   8.159   1.874  10.525
 8475W        W12675  11.400   4.134   1.882
 8476W        W12676   4.779   1.907  11.686
 8477W        W12677   6.979   5.722  10.430
 8478W        W12678   6.028   9.574  10.569
 8479W        W12679   5.095   7.842   9.805
 8480W        W12680   3.816   3.651   9.769
 8481W        W12681   1.054   8.949   1.521
 8482W        W12682   5.181   8.692   0.615
 8483W        W12683   7.973   7.052   2.047
 8484W        W12684   9.134   5.172   0.454
 8485W        W12685   4.791  10.367   9.673
 8486W        W12686   8.379   5.508  10.312
 8487W        W12687   2.650  10.882   0.617
 8488W        W12688   9.373   0.823   1.270
 8489W        W12689   9.793   2.713   9.062
 8490W        W12690  10.856   3.033   9.940
 8491W        W12691  11.314   0.577  11.276
 8492W        W12692   2.787   1.021  11.421
 8493W        W12693   2.215   2.179   3.403
 8494W        W12694   9.447   1.461  10.098
 8495W        W12695   5.917   1.822  10.209
 8496W        W12696   4.500   7.606   2.720
 8497W        W12697   5.429   6.100   2.771
 8498W        W12698   4.783   8.512   2.819
 8499W        W12699   4.242   2.901   1.917
 8500W        W12700   6.058  10.962   0.694
 8501W        W12701   7.896   4.193  10.583
 8502W        W12702   4.283  11.053   0.417
 8503W        W12703   5.188  11.426  11.104
 8504W        W12704   7.231   9.246   9.939
 8505W        W12705   9.374   6.172  11.542
 8506W        W12706  10.683   3.891   3.608
 8507W        W12707   3.956   8.019  10.491
 8508W        W12708   6.793  10.764  10.781
 8509W        W12709   4.882  10.105   0.933
 8510W        W12710   1.681   0.845   3.414
 8511W        W12711   7.088  10.474   9.458
 8512W        W12712   9.816  10.794   8.994
 8513W        W12713   2.117   0.211   2.481
 8514W        W12714   2.394   6.122  11.331
 8515W        W12715   4.167   1.720   9.147
 8516W        W12716  10.483   4.310  11.021
 8517W        W12717   9.784   0.410   1.288
 8518W        W12718   0.921   4.985   0.513
 8519W        W12719   1.348   5.292   9.941
 8520W        W12720   8.477   5.802   0.795
 8521W        W12721   1.174   8.139  11.297
 8522W        W12722   0.222   3.452  11.957
 8523W        W12723   2.730   3.856   0.670
 8524W        W12724   2.627   5.093   9.419
 8525W        W12725   9.882   5.695   0.744
 8526W        W12726   8.573   8.277   1.023
 8527W        W12727   6.037   9.426   8.587
 8528W        W12728   9.597   3.132  10.520
 8529W        W12729   6.336   2.098   1.736
 8530W        W12730   5.834   9.864   1.461
 8531W        W12731   7.125   9.877   2.192
 8532W        W12732   4.657  11.254   9.622
 8533W        W12733   5.700   8.334   9.477
 8534W        W12734   5.654   5.810   1.989
 8535ION    NA+12735   2.774   6.691  11.900
 8536ION    NA+12736   4.179   1.082   2.076
 8537ION    NA+12737   0.975  10.377   3.213
 8538ION    NA+12738   6.815   0.888   1.368
 8539ION    NA+12739   7.201   3.409   9.450
 8540ION    NA+12740  10.211   9.559   3.528
 8541ION    NA+12741  11.462   2.018  11.409
 8542ION    NA+12742   5.636   4.079   0.650
 8543ION    NA+12743  11.230   7.145   9.647
 8544ION    NA+12744   8.230   4.615   9.413
 8545ION    NA+12745   6.824   6.437  10.897
 8546ION    NA+12746   7.756   2.276   1.668
 8547ION    NA+12747   8.041   4.964   0.991
 8548ION    NA+12748   8.135   2.317   3.257
 8549ION    NA+12749   1.856  11.015   1.001
 8550ION    NA+12750   0.918   9.292  11.886
 8551ION    NA+12751   7.867   6.230  11.516
 8552ION    NA+12752   5.350   1.597   3.230
 8553ION    NA+12753   3.996  10.435  10.462
 8554ION    NA+12754   1.835   3.123   9.910
 8555ION    NA+12755   9.853   4.718   2.301
 8556ION    NA+12756   0.868   8.675   0.836
 8557ION    NA+12757   6.325   7.415  11.896
 8558ION    NA+12758   8.054   3.407   3.140
 8559ION    NA+12759   8.861   6.327  10.667
 8560ION    NA+12760   9.742   7.740   0.945
 8561ION    NA+12761   6.367  10.993   3.158
 8562ION    NA+12762   8.233   2.276   0.399
 8563ION    NA+12763   0.916   2.816   9.652
 8564ION    NA+12764   2.113   0.626   0.307
 8565ION    NA+12765   3.401   2.841  11.802
 8566ION    NA+12766   6.472   7.729   1.941
 8567ION    NA+12767   3.210   4.908   8.247
 8568ION    NA+12768   4.713  11.036   2.596
 8569ION    NA+12769   5.690  10.292   1.220
 8570ION    NA+12770   3.169   4.711  10.832
 8571ION    NA+12771  10.419   0.479  11.532
 8572ION    NA+12772   7.258   7.697   3.023
 8573ION    NA+12773   7.641   3.770   0.259
 8574ION    NA+12774  10.237   7.444  11.971
 8575ION    NA+12775   3.680  10.053   2.206
 8576ION    NA+12776   3.232   1.126  10.176
 8577ION    NA+12777   1.456   7.677  10.018
 8578ION    NA+12778   1.432   8.794   8.821
 8579ION    NA+12779   3.109   9.408  11.839
 8580ION    NA+12780   8.912   0.157   1.290
 8581ION    NA+12781   0.552   5.222   9.806
 8582ION    NA+12782   5.614   7.077   2.450
 8583ION    NA+12783   2.916   3.866   9.401
 8584ION    NA+12784   7.015   5.616   0.545
 8585ION    NA+12785   3.496  11.456   1.703
 8586ION    NA+12786   0.890  10.771   2.242
 8587ION    NA+12787   4.825   6.532   1.940
 8588ION    NA+12788   1.025   6.278   3.116
 8589ION    NA+12789   9.992   2.366   8.743
 8590ION    NA+12790   6.692   7.007   3.195
 8591ION    NA+12791   9.173  10.342   1.832
 8592ION    NA+12792   1.502   4.163   0.734
 8593ION    NA+12793   1.667   4.360   1.886
 8594ION    NA+12794   3.345   6.228   3.351
 8595ION    NA+12795   9.647   7.698   3.486
 8596ION    NA+12796   5.760   8.034  11.480
 8597ION    NA+12797   1.168   6.000   9.686
 8598ION    NA+12798   8.446   3.642   2.226
 8599ION    NA+12799   9.822   2.334   3.780
 8600ION    NA+12800   7.400   1.737   0.042
 8601ION    NA+12801   8.522   8.382   2.488
 8602ION    NA+12802  11.454  11.088   3.302
 8603ION    NA+12803   6.745   7.408   4.236
 8604ION    NA+12804   5.321  11.288  11.573
 8605ION    NA+12805   6.050   2.551   2.622
 8606ION    NA+12806   8.292   8.542   9.816
 8607ION    NA+12807   7.350   8.845   1.453
 8608ION    NA+12808   4.733  10.174   2.143
 8609ION    NA+12809   4.276   5.810   2.000
 8610ION    NA+12810   0.032   8.008   1.928
 8611ION    NA+12811   4.144  10.036   1.290
 8612ION    NA+12812   8.135   0.931   9.759
 8613ION    NA+12813   4.358   5.911   0.381
 8614ION    NA+12814  10.081   0.421   0.863
 8615ION    NA+12815   9.715   7.873   9.024
 8616ION    NA+12816   5.995   3.907   1.846
 8617ION    NA+12817   7.322   9.366  10.830
 8618ION    NA+12818   5.919   3.246   3.355
 8619ION    NA+12819   1.759   1.144   1.384
 8620ION    NA+12820   7.635   2.867   8.623
 8621ION    NA+12821   6.191   8.477   9.495
 8622ION    NA+12822   0.664   4.660   1.616
 8623ION    NA+12823   3.169   6.618   8.586
 8624ION    NA+12824   4.130   6.802   0.247
 8625ION    CL-12825   5.522   1.717   2.136
 8626ION    CL-12826   0.206   7.858  11.302
 8627ION    CL-12827  11.333   4.320   8.630
 8628ION    CL-12828   2.112   8.483   2.301
 8629ION    CL-12829   6.904   7.843   1.959
 8630ION    CL-12830   4.667   8.957   1.513
 8631ION    CL-12831   8.201   3.602  11.391
 8632ION    CL-12832   0.138   7.812   2.313
 8633ION    CL-12833   9.159   5.924   3.525
 8634ION    CL-12834   0.266   0.869   0.223
 8635ION    CL-12835   7.446  11.465   0.815
 8636ION    CL-12836   3.319  11.309   1.323
 8637ION    CL-12837   6.936   3.149   9.699
 8638ION    CL-12838   5.034   0.525   1.401
 8639ION    CL-12839   0.007  11.431   3.008
 8640ION    CL-12840   4.770   1.189  11.035
 8641ION    CL-12841   5.808   9.944   0.951
 8642ION    CL-12842  11.124   7.358   9.266
 8643ION    CL-12843   0.258   4.459   1.624
 8644ION    CL-12844   6.043   7.762  11.738
 8645ION    CL-12845  10.597  10.920  10.104
 8646ION    CL-12846   3.572  11.326  11.993
 8647ION    CL-12847   7.223   1.053   1.444
 8648ION    CL-12848   9.127   1.567   3.546
 8649ION    CL-12849   3.228  11.148   9.125
 8650ION    CL-12850   0.967  10.339   9.595
 8651ION    CL-12851   3.281   3.003   3.291
 8652ION    CL-12852   6.960   7.362   3.103
 8653ION    CL-12853   6.699   2.784  10.599
 8654ION    CL-12854  11.466   3.558   1.303
 8655ION    CL-12855   2.355   0.437  10.137
 8656ION    CL-12856   9.468  10.656  10.364
 8657ION    CL-12857   0.951   7.853   3.403
 8658ION    CL-12858   6.376   7.196   4.399
 8659ION    CL-12859   8.458   4.971   3.649
 8660ION    CL-12860   5.358   2.874   8.510
 8661ION    CL-12861   8.186   6.509   2.765
 8662ION    CL-12862   6.972   9.493   2.526
 8663ION    CL-12863   5.191   3.393   2.749
 8664ION    CL-12864  11.213   3.570  11.932
 8665ION    CL-12865  10.529   3.223   1.395
 8666ION    CL-12866   7.553   7.330   9.644
 8667ION    CL-12867   1.016   1.502   0.416
 8668ION    CL-12868   3.335   1.554  10.105
 8669ION    CL-12869  10.875   3.584  10.125
 8670ION    CL-12870   1.342   1.239   9.652
 8671ION    CL-12871  11.441   5.494   2.328
 8672ION    CL-12872   2.664   6.821   9.990
 8673ION    CL-12873   6.884   9.415  10.763
 8674ION    CL-12874   8.296   4.588   0.973
 8675ION    CL-12875   4.255   8.737  11.011
 8676ION    CL-12876   5.304   3.774   0.669
 8677ION    CL-12877   0.223   5.269  10.108
 8678ION    CL-12878   5.811   4.176   2.154
 8679ION    CL-12879   9.106   9.569   3.547
 8680ION    CL-12880  10.973   5.535   8.099
 8681ION    CL-12881   3.012   7.758   9.900
 8682ION    CL-12882   5.311   1.184  11.962
 8683ION    CL-12883   9.898   6.689   1.207
 8684ION    CL-12884   9.184   7.180   2.925
 8685ION    CL-12885   4.092   7.258   0.293
 8686ION    CL-12886   9.307   6.398  10.676
 8687ION    CL-12887   0.698   4.626   2.913
 8688ION    CL-12888  10.429  10.450   1.138
 8689ION    CL-12889   7.139  10.096   1.283
 8690ION    CL-12890   5.315   3.700   9.613
 8691ION    CL-12891   4.541   6.182   2.016
 8692ION    CL-12892   4.226   6.344   0.297
 8693ION    CL-12893  10.904   0.864   8.464
 8694ION    CL-12894   5.534   8.317  11.197
 8695ION    CL-12895   5.318   3.115  11.541
 8696ION    CL-12896   4.435   3.070   8.843
 8697ION    CL-12897   9.962   7.465  11.620
 8698ION    CL-12898   0.739   5.991   3.352
 8699ION    CL-12899  10.115   3.115   2.774
 8700ION    CL-12900   9.334   7.815   0.773
 8701ION    CL-12901   7.476   1.773  11.603
 8702ION    CL-12902   2.710   5.653   2.104
 8703ION    CL-12903   5.671  10.702   1.419
 8704ION    CL-12904   1.222   2.306   1.854
 8705ION    CL-12905   1.158  11.280  11.027
 8706ION    CL-12906   4.929   1.917   9.794
 8707ION    CL-12907   8.066  11.279   1.858
 8708ION    CL-12908   1.405   9.425   2.693
 8709ION    CL-12909   6.623   7.101   0.040
 8710ION    CL-12910   1.746  10.751  10.348
 8711ION    CL-12911   0.860   4.981   1.353
 8712ION    CL-12912   6.071   9.559  11.539
 8713ION    CL-12913   5.448  10.323   8.885
 8714ION    CL-12914   9.535  10.320   1.570
  11.50000  11.50000  12.00000
