Protein in INSANE! Membrane UpperLeaflet>POPC=1.0 LowerLeaflet>POPC=1.0
11530
    1AU     AUC    1   5.995   2.591   6.137  0.0098  0.0187  0.0277
    1AU     AUC    2   5.767   2.754   6.322  0.0843 -0.0231 -0.0539
    1AU     AUC    3   5.896   2.852   6.021  0.0500  0.1045  0.0298
    1AU     AUC    4   6.138   2.292   6.286  0.1022 -0.0301 -0.0098
    1AU     AUC    5   6.241   2.442   5.982 -0.0026  0.0223 -0.0190
    1AU     AUC    6   6.281   2.599   6.305 -0.0106  0.0389 -0.0018
    1AU     AUC    7   6.073   2.827   6.311 -0.0297 -0.0036 -0.0081
    1AU     AUC    8   5.954   2.297   6.013  0.0573  0.0261  0.0001
    1AU     AUC    9   5.718   2.592   6.027  0.0481 -0.0124  0.0268
    1AU     AUC   10   5.973   2.579   5.833 -0.0743 -0.0546  0.0358
    1AU     AUC   11   6.241   2.793   5.987 -0.0019  0.0070  0.0606
    1AU     AUC   12   5.812   2.386   6.309 -0.0266  0.0064 -0.0978
    1AU     AUC   13   5.980   2.556   6.469  0.0469 -0.0577 -0.0279
    1AU     AUC   14   5.467   2.936   6.464  0.1130  0.0317  0.0485
    1AU     AUC   15   5.584   3.062   6.203  0.0043  0.0083 -0.0408
    1AU     AUC   16   5.784   3.155   5.869  0.0939  0.0177  0.0448
    1AU     AUC   17   6.284   1.980   6.396  0.0706 -0.0697  0.0880
    1AU     AUC   18   6.439   2.123   6.116 -0.0285  0.0046 -0.0302
    1AU     AUC   19   6.525   2.321   5.852 -0.0360  0.0691  0.0520
    1AU     AUC   20   6.597   2.591   6.518 -0.0309  0.0147 -0.0116
    1AU     AUC   21   6.362   2.889   6.535 -0.0618  0.0682  0.0185
    1AU     AUC   22   6.136   3.109   6.497  0.0410 -0.0215  0.0091
    1AU     AUC   23   5.887   2.013   5.850 -0.0598 -0.0266 -0.0835
    1AU     AUC   24   5.611   2.258   5.886 -0.0429  0.0522 -0.0474
    1AU     AUC   25   5.377   2.519   5.899 -0.0649 -0.0733 -0.0376
    1AU     AUC   26   5.962   2.622   5.503 -0.0165  0.0231 -0.0134
    1AU     AUC   27   6.229   2.836   5.618  0.0033  0.0607  0.0377
    1AU     AUC   28   6.457   2.989   5.884  0.0573 -0.0445 -0.0547
    1AU     AUC   29   5.581   2.172   6.455 -0.0817  0.0690 -0.0015
    1AU     AUC   30   5.778   2.361   6.653  0.0180  0.0279  0.1554
    1AU     AUC   31   5.950   2.556   6.821  0.0349  0.0359  0.0579
    1AU     AUC   32   5.853   2.893   5.658  0.0256 -0.0180  0.0226
    1AU     AUC   33   6.123   3.084   5.797 -0.0771  0.0334 -0.0583
    1AU     AUC   34   5.514   2.534   6.475  0.1018  0.0989 -0.1299
    1AU     AUC   35   5.678   2.736   6.690  0.0220  0.0848  0.0187
    1AU     AUC   36   6.285   2.474   5.637  0.0245 -0.0688  0.0209
    1AU     AUC   37   6.528   2.651   5.859  0.0129 -0.0464 -0.0892
    1AU     AUC   38   5.948   2.049   6.409  0.0275 -0.0710 -0.0195
    1AU     AUC   39   6.136   2.243   6.646  0.0366 -0.1207 -0.0664
    1AU     AUC   40   5.775   3.051   6.484  0.0013  0.0631  0.0849
    1AU     AUC   41   5.986   3.154   6.176 -0.0272  0.1111  0.0240
    1AU     AUC   42   6.443   2.268   6.480  0.0225  0.0255  0.0033
    1AU     AUC   43   6.577   2.490   6.174 -0.0815  0.0736  0.0300
    1AU     AUC   44   5.425   2.750   6.165 -0.1423  0.0513  0.0404
    1AU     AUC   45   5.549   2.840   5.895  0.0467 -0.0052 -0.0892
    1AU     AUC   46   6.143   1.964   6.092  0.0242 -0.0029 -0.0164
    1AU     AUC   47   6.215   2.137   5.805  0.0085 -0.0820  0.0345
    1AU     AUC   48   6.565   2.805   6.241  0.0709 -0.0692  0.0363
    1AU     AUC   49   6.328   3.063   6.194 -0.1075 -0.0025 -0.0006
    1AU     AUC   50   5.901   2.332   5.663  0.1520 -0.0713 -0.0679
    1AU     AUC   51   5.638   2.566   5.673 -0.1106 -0.0261  0.1522
    1AU     AUC   52   6.259   2.546   6.687  0.0229 -0.0917  0.0383
    1AU     AUC   53   6.012   2.828   6.705 -0.0342 -0.0024  0.0525
    1AU     AUC   54   5.746   2.040   6.141 -0.0895  0.0012 -0.0599
    1AU     AUC   55   5.463   2.330   6.201  0.0275  0.0011 -0.0243
    1AU    AUSL   56   5.865   3.224   5.535  0.0307  0.0007  0.1103
    1AU    AUSL   57   5.664   2.822   5.361  0.0517  0.0047  0.0380
    1AU     AUL   58   5.615   3.193   5.285 -0.0819 -0.0172  0.0443
    1AU       S   59   5.163   2.959   5.274 -0.1121  0.2897  0.0900
    1AU     LIG   60   5.066   3.284   4.922 -0.1295 -0.0880 -0.2079
    1AU     LIG   61   4.862   3.455   4.616  0.3802 -0.1287 -0.2386
    1AU       S   62   6.068   3.213   5.078 -0.3651  0.2409 -0.0627
    1AU     LIG   63   6.320   3.102   4.745 -0.0574 -0.1321 -0.0314
    1AU     LIG   64   6.787   3.192   4.615 -0.2910 -0.2068 -0.3494
    1AU    AUSL   65   6.086   2.857   5.373 -0.0880 -0.0355 -0.0099
    1AU    AUSL   66   6.509   2.877   5.574 -0.0246 -0.0047 -0.0465
    1AU     AUL   67   6.547   2.980   5.200 -0.0041 -0.0393  0.0703
    1AU       S   68   6.058   2.924   5.110 -0.1200  0.3141 -0.0994
    1AU     LIG   69   5.865   2.550   4.989 -0.1160  0.0725  0.1383
    1AU     LIG   70   5.649   2.269   4.704  0.0150 -0.0888  0.0458
    1AU       S   71   6.764   2.694   4.888  0.1303  0.0878  0.1900
    1AU     LIG   72   7.207   2.753   4.748 -0.0314  0.0169  0.1311
    1AU     LIG   73   7.376   2.769   5.143  0.2679  0.0846  0.0162
    1AU    AUSL   74   6.288   3.232   5.488 -0.0238 -0.0779 -0.0980
    1AU    AUSL   75   6.088   3.443   5.832  0.1285 -0.0726 -0.0679
    1AU     AUL   76   6.021   3.525   5.461 -0.0357 -0.1349 -0.0065
    1AU       S   77   6.462   3.433   5.309  0.2342 -0.0569  0.1511
    1AU     LIG   78   6.297   3.647   5.012  0.5681 -0.2066  0.0512
    1AU     LIG   79   6.123   3.832   4.733 -0.0151  0.1044 -0.0871
    1AU       S   80   6.335   3.670   5.758 -0.0951 -0.1848 -0.4327
    1AU     LIG   81   6.068   3.989   5.868 -0.0218 -0.3615 -0.1887
    1AU     LIG   82   6.293   4.358   6.015  0.0961 -0.1060  0.1900
    1AU    AUSL   83   5.352   2.713   6.817  0.0083 -0.0092  0.0349
    1AU    AUSL   84   5.714   2.886   7.021  0.0119  0.0155 -0.0049
    1AU     AUL   85   5.324   2.757   7.135 -0.0189  0.0082 -0.0428
    1AU       S   86   5.130   2.361   7.057  0.4695  0.2207  0.5316
    1AU     LIG   87   5.050   2.388   7.516  0.2797 -0.2742  0.1799
    1AU     LIG   88   4.734   2.360   7.908  0.2753 -0.2799 -0.4363
    1AU       S   89   5.561   3.169   7.198  0.2646 -0.0921  0.3836
    1AU     LIG   90   5.515   3.208   7.614  0.1455  0.1222 -0.0483
    1AU     LIG   91   5.231   3.186   7.932  0.2956  0.4222  0.0123
    1AU    AUSL   92   5.457   2.334   6.681 -0.0027  0.0605 -0.0290
    1AU    AUSL   93   5.325   2.688   6.377 -0.0337 -0.0734  0.0701
    1AU     AUL   94   5.106   2.636   6.696 -0.0651  0.0117 -0.0950
    1AU       S   95   4.516   2.311   6.267 -0.0514 -0.1380  0.2338
    1AU     LIG   96   4.324   2.087   6.730 -0.1424 -0.0815 -0.3804
    1AU     LIG   97   4.116   1.951   7.148 -0.0287 -0.0013  0.1841
    1AU       S   98   5.091   2.188   6.825 -0.2055  0.2286  0.1545
    1AU     LIG   99   5.133   1.877   6.878 -0.1323  0.1641 -0.0852
    1AU     LIG  100   5.171   1.571   6.569  0.3172  0.0116 -0.0730
    1AU    AUSL  101   5.681   2.452   7.030  0.0111 -0.0533  0.0632
    1AU    AUSL  102   5.598   1.944   6.709 -0.0655  0.0835 -0.1120
    1AU     AUL  103   5.562   2.128   7.008 -0.0074 -0.0917 -0.0650
    1AU       S  104   5.711   1.642   7.050  0.0020 -0.1901 -0.0993
    1AU     LIG  105   5.325   1.623   7.287 -0.0590  0.0141  0.0780
    1AU     LIG  106   5.103   1.482   7.551 -0.1809  0.1576  0.2041
    1AU       S  107   4.794   2.260   6.887 -0.2734 -0.0997 -0.2129
    1AU     LIG  108   4.792   1.901   6.481  0.1503 -0.2430 -0.1045
    1AU     LIG  109   4.518   1.578   6.271  0.0943  0.1591 -0.1470
    1AU    AUSL  110   6.707   2.490   5.612  0.0256  0.0087 -0.0045
    1AU    AUSL  111   6.790   2.896   5.896 -0.0951  0.0010 -0.0223
    1AU     AUL  112   6.864   2.844   5.564  0.0399  0.0407  0.0858
    1AU       S  113   6.874   2.633   5.182 -0.2919  0.0685  0.0135
    1AU     LIG  114   7.207   2.329   5.353 -0.0966  0.0561  0.3562
    1AU     LIG  115   7.635   2.326   5.536 -0.2447  0.3744  0.0212
    1AU       S  116   7.169   2.853   5.920 -0.2438  0.4364  0.0654
    1AU     LIG  117   7.334   3.277   5.839  0.0921  0.2650 -0.2888
    1AU     LIG  118   7.181   3.650   5.771  0.3406 -0.1032 -0.1183
    1AU    AUSL  119   6.395   2.568   5.294  0.0725 -0.0195  0.0577
    1AU    AUSL  120   6.369   2.237   5.603 -0.0055  0.0295 -0.0200
    1AU     AUL  121   6.647   2.276   5.395 -0.0965 -0.0100  0.0845
    1AU       S  122   6.321   2.101   5.126  0.0131 -0.2104  0.0495
    1AU     LIG  123   6.668   1.808   5.161  0.1319 -0.3209  0.0128
    1AU     LIG  124   6.677   1.573   4.790 -0.1388  0.1370  0.0466
    1AU       S  125   6.514   2.518   5.034 -0.1394  0.1536 -0.1125
    1AU     LIG  126   6.356   2.596   4.632 -0.1920 -0.0798 -0.0559
    1AU     LIG  127   5.961   2.585   4.474 -0.2666  0.2017 -0.0382
    1AU    AUSL  128   6.027   1.823   6.708  0.0454  0.0469 -0.0207
    1AU    AUSL  129   5.771   1.939   6.316  0.0884  0.0033 -0.0568
    1AU     AUL  130   5.735   1.657   6.546 -0.0942  0.0034  0.0581
    1AU       S  131   6.033   1.533   6.936 -0.2274  0.2145  0.0615
    1AU     LIG  132   6.204   1.263   6.783  0.1170  0.0301  0.1221
    1AU     LIG  133   6.209   0.868   6.529  0.0797 -0.0044  0.2478
    1AU       S  134   5.936   1.252   6.364  0.0917  0.0032 -0.0870
    1AU     LIG  135   5.895   0.780   6.145 -0.1513  0.0411 -0.0506
    1AU     LIG  136   5.859   0.416   5.870 -0.0158  0.1711 -0.4214
    1AU    AUSL  137   5.934   2.230   6.785 -0.0111  0.0445 -0.0532
    1AU    AUSL  138   6.342   2.108   6.681  0.0453  0.0017 -0.0900
    1AU     AUL  139   6.024   1.976   7.006  0.0213  0.0010  0.0337
    1AU       S  140   6.464   1.878   6.962 -0.2844  0.0356 -0.1528
    1AU     LIG  141   6.794   1.623   7.021  0.3732 -0.1621 -0.0567
    1AU     LIG  142   7.223   1.401   6.924 -0.0964 -0.1228 -0.1876
    1AU       S  143   5.657   1.434   6.927 -0.3153 -0.3954 -0.1624
    1AU     LIG  144   5.519   1.204   6.692  0.1959 -0.1260 -0.0574
    1AU     LIG  145   5.489   1.093   6.283  0.1027  0.2986 -0.1907
    1AU    AUSL  146   5.941   3.445   6.497 -0.1009  0.0135  0.0455
    1AU    AUSL  147   5.514   3.078   6.692  0.0061  0.0136 -0.0205
    1AU     AUL  148   5.728   3.437   6.837 -0.0017 -0.0506 -0.0306
    1AU       S  149   5.327   3.236   6.928 -0.0122 -0.3627 -0.2867
    1AU     LIG  150   5.138   3.491   6.708 -0.0702 -0.3237 -0.4450
    1AU     LIG  151   4.734   3.551   6.562  0.1132  0.0124  0.2232
    1AU       S  152   5.646   3.887   6.070  0.1600  0.0677  0.0883
    1AU     LIG  153   5.283   3.992   5.915  0.2071 -0.1713 -0.3353
    1AU     LIG  154   5.009   3.795   5.597  0.0343 -0.0463 -0.2228
    1AU    AUSL  155   5.518   3.375   6.406  0.1380  0.0156 -0.0717
    1AU    AUSL  156   5.365   3.284   5.972 -0.0486 -0.0545 -0.0654
    1AU     AUL  157   5.241   3.535   6.190 -0.0763  0.0020 -0.0992
    1AU       S  158   5.614   3.750   6.358  0.1161 -0.0655 -0.2216
    1AU     LIG  159   5.521   4.211   6.465 -0.0491  0.1282  0.3178
    1AU     LIG  160   5.621   4.427   6.035  0.1480  0.3616 -0.2387
    1AU       S  161   4.946   3.307   5.923  0.1136 -0.2207  0.0584
    1AU     LIG  162   4.734   3.705   6.049 -0.1636  0.1342  0.0002
    1AU     LIG  163   4.350   3.927   5.891  0.1368 -0.3016 -0.0363
    1AU    AUSL  164   5.777   3.292   6.088  0.0293  0.0096 -0.1027
    1AU    AUSL  165   6.195   3.241   6.204 -0.0215  0.0200 -0.0547
    1AU     AUL  166   6.047   3.600   6.190 -0.0352 -0.0600 -0.0585
    1AU       S  167   6.611   3.684   5.713  0.2557  0.1722 -0.1411
    1AU     LIG  168   6.618   3.947   6.096 -0.0519  0.2708 -0.1571
    1AU     LIG  169   6.922   4.060   6.443 -0.2813  0.0367  0.1882
    1AU       S  170   5.660   3.663   5.953  0.0585 -0.0731 -0.0929
    1AU     LIG  171   5.502   3.615   5.591 -0.2571  0.3797  0.6432
    1AU     LIG  172   5.293   3.545   5.296  0.1387  0.1827  0.0847
    1AU    AUSL  173   6.774   2.351   6.423 -0.0253 -0.0606 -0.0003
    1AU    AUSL  174   6.894   2.494   5.989  0.0066  0.0229 -0.0487
    1AU     AUL  175   7.105   2.287   6.219 -0.0414 -0.0969  0.0585
    1AU       S  176   7.163   2.563   5.803  0.0798  0.1305  0.1186
    1AU     LIG  177   7.589   2.562   5.973 -0.0279  0.0468 -0.0583
    1AU     LIG  178   7.727   2.959   6.088 -0.1720 -0.1869  0.0691
    1AU       S  179   7.057   2.476   6.674 -0.0471 -0.0498  0.1280
    1AU     LIG  180   7.505   2.417   6.507 -0.3671  0.4156 -0.2953
    1AU     LIG  181   7.643   2.135   6.166 -0.0293  0.0593  0.0122
    1AU    AUSL  182   6.631   1.930   6.436 -0.0057  0.0163 -0.0090
    1AU    AUSL  183   6.657   2.371   6.818  0.0183 -0.0650  0.0026
    1AU     AUL  184   6.811   2.061   6.680  0.0066 -0.0038 -0.0757
    1AU       S  185   6.572   1.638   6.540 -0.0381  0.1619  0.3364
    1AU     LIG  186   6.932   1.360   6.442  0.1333 -0.0295 -0.0408
    1AU     LIG  187   7.230   1.144   6.187 -0.3212 -0.1601 -0.0749
    1AU       S  188   6.791   2.283   7.113 -0.0659  0.4959  0.1637
    1AU     LIG  189   7.022   2.079   7.201  0.2369  0.2208  0.4417
    1AU     LIG  190   7.329   1.736   7.410 -0.1495 -0.2946 -0.0897
    1AU    AUSL  191   6.614   2.197   6.058 -0.0386 -0.0363  0.0033
    1AU    AUSL  192   6.507   1.747   6.080 -0.0360  0.0940 -0.0142
    1AU     AUL  193   6.850   1.889   6.184 -0.0122 -0.0258  0.0479
    1AU       S  194   6.789   1.504   5.956 -0.1134  0.2062 -0.1549
    1AU     LIG  195   6.850   1.032   5.889  0.1493 -0.2082  0.1955
    1AU     LIG  196   6.911   0.617   5.745  0.0686  0.1239 -0.3021
    1AU       S  197   7.075   2.057   5.797  0.4120 -0.0719 -0.2529
    1AU     LIG  198   7.290   1.762   6.076  0.2923  0.0058 -0.1634
    1AU     LIG  199   7.353   1.606   6.487 -0.2279  0.0429 -0.0751
    1AU    AUSL  200   5.219   2.871   5.967 -0.0249  0.0771 -0.0188
    1AU    AUSL  201   5.588   2.999   5.750 -0.0480  0.0390  0.0545
    1AU     AUL  202   5.298   3.192   5.662  0.0515 -0.0846  0.1578
    1AU       S  203   4.873   3.054   5.849 -0.0657 -0.3813  0.4341
    1AU     LIG  204   4.580   2.838   5.995  0.1289  0.1370  0.0762
    1AU     LIG  205   4.260   2.710   6.210 -0.0006 -0.0647  0.2237
    1AU       S  206   4.898   2.834   5.350 -0.2863  0.3178 -0.0970
    1AU     LIG  207   4.525   2.830   5.520 -0.4190 -0.2013 -0.0794
    1AU     LIG  208   4.054   3.056   5.640  0.1170  0.5226  0.0574
    1AU    AUSL  209   5.192   3.077   6.352 -0.0020  0.0034 -0.0084
    1AU    AUSL  210   5.052   2.492   6.010  0.1003 -0.0484  0.0299
    1AU     AUL  211   4.981   2.795   6.248  0.0061  0.0749  0.0066
    1AU       S  212   4.862   3.217   6.217 -0.4317 -0.0093  0.1425
    1AU     LIG  213   4.490   3.127   6.401 -0.1825  0.0864 -0.2707
    1AU     LIG  214   4.107   3.196   6.145  0.1756  0.2646 -0.4760
    1AU       S  215   4.741   2.371   6.075 -0.2517 -0.4199  0.1482
    1AU     LIG  216   4.717   1.955   5.904  0.4356  0.0792 -0.0897
    1AU     LIG  217   4.896   1.965   5.511 -0.0051 -0.1882 -0.0230
    1AU    AUSL  218   6.157   1.885   5.845 -0.0018 -0.0334  0.0333
    1AU    AUSL  219   6.161   1.752   6.313  0.0917 -0.1189  0.1237
    1AU     AUL  220   6.295   1.563   5.929  0.0229  0.0110  0.0293
    1AU       S  221   6.110   1.448   6.346 -0.1670 -0.4228 -0.1353
    1AU     LIG  222   6.516   1.181   6.278 -0.0050  0.0142 -0.0895
    1AU     LIG  223   6.774   0.862   6.414  0.3700 -0.1818  0.1284
    1AU       S  224   6.950   1.563   5.772  0.3003 -0.2449  0.0423
    1AU     LIG  225   7.322   1.343   5.712 -0.0543  0.2901  0.0425
    1AU     LIG  226   7.815   1.378   5.695 -0.0454 -0.0408  0.1216
    1AU    AUSL  227   6.613   1.934   5.722  0.0697 -0.0451  0.1314
    1AU    AUSL  228   6.070   1.951   5.449  0.0144  0.0580 -0.0224
    1AU     AUL  229   6.360   1.811   5.526  0.0343 -0.0514 -0.0966
    1AU       S  230   6.156   1.921   5.074  0.1359 -0.0791  0.0440
    1AU     LIG  231   6.248   1.523   5.097  0.2086  0.3589  0.2149
    1AU     LIG  232   6.236   1.068   5.140 -0.0586  0.0407 -0.5451
    1AU       S  233   6.820   1.683   5.688  0.1741 -0.0496 -0.3392
    1AU     LIG  234   6.577   1.372   5.492 -0.0143  0.3095  0.2029
    1AU     LIG  235   6.629   0.927   5.432 -0.0018  0.0255 -0.0215
    1AU    AUSL  236   6.638   3.115   6.242  0.0608 -0.0796  0.0050
    1AU    AUSL  237   6.883   2.759   6.323 -0.0490  0.0355  0.0420
    1AU     AUL  238   6.913   3.158   6.130  0.0643  0.0289 -0.0444
    1AU       S  239   7.208   2.780   6.284  0.3000  0.0228 -0.2890
    1AU     LIG  240   7.382   3.268   6.307  0.3842  0.0247 -0.3159
    1AU     LIG  241   7.395   3.641   6.674  0.1024  0.1120 -0.3350
    1AU       S  242   6.869   3.368   6.545 -0.5098  0.1116 -0.0838
    1AU     LIG  243   7.018   3.624   6.205  0.3414  0.2679  0.2364
    1AU     LIG  244   7.399   3.835   6.201 -0.0018  0.0999  0.1372
    1AU    AUSL  245   6.715   2.965   6.658  0.0386 -0.0065  0.0586
    1AU    AUSL  246   6.322   3.049   6.903 -0.0100 -0.0201  0.0253
    1AU     AUL  247   6.679   3.159   6.967  0.0226 -0.0066 -0.0191
    1AU       S  248   6.883   3.492   6.719  0.1342  0.1771  0.0619
    1AU     LIG  249   7.162   3.367   7.066 -0.4113  0.3293  0.3722
    1AU     LIG  250   7.348   3.041   7.238  0.0917 -0.1353 -0.2351
    1AU       S  251   6.335   3.000   7.312 -0.1371  0.0178  0.0313
    1AU     LIG  252   6.185   3.333   7.542 -0.0199  0.2506 -0.1949
    1AU     LIG  253   5.846   3.574   7.420  0.0751 -0.0821 -0.1415
    1AU    AUSL  254   6.399   3.286   6.563  0.0571 -0.0464 -0.0251
    1AU    AUSL  255   6.490   3.243   5.862 -0.0094  0.0334  0.0001
    1AU     AUL  256   6.506   3.489   6.200  0.0476  0.0584  0.0500
    1AU       S  257   6.667   3.485   5.801 -0.3188 -0.0348  0.3172
    1AU     LIG  258   6.907   3.324   5.459  0.1376  0.0405 -0.1734
    1AU     LIG  259   7.051   3.138   5.053  0.0898  0.1035  0.0899
    1AU       S  260   6.685   3.483   6.621  0.1077  0.5287 -0.2181
    1AU     LIG  261   6.458   3.817   6.609  0.0732  0.1276  0.2291
    1AU     LIG  262   6.458   4.238   6.520 -0.1075  0.1324  0.1563
    1AU    AUSL  263   5.616   2.399   5.371  0.0728  0.0797  0.1289
    1AU    AUSL  264   5.349   2.658   5.619  0.0055 -0.0904 -0.0476
    1AU     AUL  265   5.416   2.572   5.242 -0.0338 -0.0862  0.0969
    1AU       S  266   5.610   1.536   5.356  0.3013  0.0613  0.0715
    1AU     LIG  267   5.653   1.134   5.348 -0.1448  0.1212  0.0268
    1AU     LIG  268   5.927   0.778   5.504 -0.0456 -0.0957 -0.0286
    1AU       S  269   5.073   2.726   5.546 -0.3177  0.1045 -0.2440
    1AU     LIG  270   4.732   2.416   5.595  0.4999  0.0637  0.3319
    1AU     LIG  271   4.383   2.198   5.579 -0.3707 -0.0768 -0.2634
    1AU    AUSL  272   5.749   2.112   5.665  0.0343 -0.0578  0.0832
    1AU    AUSL  273   6.031   2.380   5.382  0.0045 -0.0873 -0.0399
    1AU     AUL  274   5.775   2.087   5.248  0.0144 -0.0728 -0.0938
    1AU       S  275   5.744   1.631   5.558  0.4941  0.0323 -0.1812
    1AU     LIG  276   6.094   1.336   5.530  0.0206  0.2211 -0.2879
    1AU     LIG  277   6.252   1.061   5.765  0.0695 -0.0509 -0.2147
    1AU       S  278   6.132   2.147   4.883  0.2232 -0.1555  0.0578
    1AU     LIG  279   6.535   2.151   4.640 -0.0646 -0.3676 -0.0869
    1AU     LIG  280   6.943   2.209   4.849  0.3973  0.2933  0.0000
    1AU    AUSL  281   5.307   2.238   5.644  0.1396  0.0781 -0.0528
    1AU    AUSL  282   5.498   1.882   5.895  0.0964 -0.0141 -0.0392
    1AU     AUL  283   5.406   1.928   5.517 -0.0017 -0.0526  0.0135
    1AU       S  284   5.173   1.677   5.826 -0.4019  0.0170  0.2554
    1AU     LIG  285   4.927   1.510   6.078 -0.1711 -0.3955 -0.1283
    1AU     LIG  286   4.771   1.093   6.293 -0.0336 -0.1549 -0.0063
    1AU       S  287   5.754   1.630   5.193  0.2530  0.3414 -0.1529
    1AU     LIG  288   5.811   1.764   4.799  0.0198 -0.0954  0.0705
    1AU     LIG  289   5.593   1.835   4.368  0.0110  0.0274  0.1417
    1AU    AUSL  290   6.087   2.721   6.980  0.0630 -0.0929  0.0663
    1AU    AUSL  291   5.956   3.070   6.669 -0.0337  0.0456 -0.0044
    1AU     AUL  292   6.006   3.127   7.044  0.0064  0.0047  0.0292
    1AU       S  293   6.073   2.741   7.305 -0.1325  0.1011  0.3137
    1AU     LIG  294   5.710   2.732   7.446  0.0608 -0.0298 -0.2186
    1AU     LIG  295   5.541   2.374   7.481 -0.2375  0.0493  0.0924
    1AU       S  296   5.237   3.229   7.186  0.1083 -0.2721 -0.2444
    1AU     LIG  297   4.812   3.466   7.141  0.1053 -0.0432  0.0289
    1AU     LIG  298   4.453   3.611   7.101  0.2819  0.0911 -0.1352
    1AU    AUSL  299   6.414   2.673   6.690 -0.1136 -0.0075  0.0095
    1AU    AUSL  300   6.276   2.356   7.031  0.0749  0.0157  0.0055
    1AU     AUL  301   6.490   2.619   7.052  0.1084  0.0045  0.0088
    1AU       S  302   6.161   2.846   7.487 -0.0386 -0.3038 -0.0097
    1AU     LIG  303   5.967   2.636   7.824 -0.1381 -0.3062 -0.1841
    1AU     LIG  304   5.594   2.393   7.943  0.4906 -0.2234  0.0786
    1AU       S  305   6.457   2.125   7.178  0.2114  0.1346 -0.1602
    1AU     LIG  306   6.259   1.828   7.459  0.1492 -0.1031 -0.3046
    1AU     LIG  307   6.394   1.452   7.335  0.8293  0.3324  0.1098
    1AU    AUSL  308   5.364   1.945   6.327 -0.0500 -0.0583  0.0367
    1AU    AUSL  309   5.841   1.642   6.002 -0.0002  0.0549  0.0773
    1AU     AUL  310   5.504   1.660   6.141  0.0514  0.1521 -0.0363
    1AU       S  311   5.940   1.326   6.082 -0.1875  0.2091 -0.5743
    1AU     LIG  312   5.642   1.088   5.802  0.1210 -0.1708 -0.3233
    1AU     LIG  313   5.458   0.704   5.701 -0.0162  0.3116  0.2387
    1AU       S  314   5.107   1.527   5.621 -0.0959  0.3730 -0.0354
    1AU     LIG  315   5.107   1.630   5.161  0.3330  0.5021 -0.1625
    1AU     LIG  316   5.327   1.743   4.815  0.0703  0.0648  0.1417
    1AU    AUSL  317   5.422   2.287   6.045  0.0632 -0.0698 -0.0214
    1AU    AUSL  318   5.141   2.305   6.390 -0.0564  0.0846  0.0149
    1AU     AUL  319   5.095   2.078   6.128  0.0348 -0.0314 -0.0441
    1AU       S  320   5.252   1.400   5.732  0.3410 -0.0830 -0.1314
    1AU     LIG  321   5.064   1.045   5.724 -0.0246 -0.1588  0.2062
    1AU     LIG  322   4.908   0.764   5.947  0.4140 -0.0362 -0.0912
    1AU       S  323   4.754   2.388   6.400 -0.3316 -0.0846 -0.2850
    1AU     LIG  324   4.534   2.697   6.640  0.0081  0.0880  0.2600
    1AU     LIG  325   4.093   2.832   6.682 -0.1412  0.0242 -0.0858
    2POPC   NC3  326   7.578   5.697   7.701 -0.2270  0.2693  0.0003
    2POPC   PO4  327   8.073   5.912   7.709  0.3175  0.0684  0.0896
    2POPC   GL1  328   7.706   6.156   7.434 -0.0805 -0.0941  0.0675
    2POPC   GL2  329   7.655   6.407   7.379 -0.1698 -0.0717 -0.1516
    2POPC   C1A  330   7.411   6.152   7.039 -0.4892 -0.2043 -0.3477
    2POPC   D2A  331   7.329   6.057   6.650 -0.0757  0.1306  0.0152
    2POPC   C3A  332   7.333   5.884   6.159 -0.0907  0.0870  0.2298
    2POPC   C4A  333   7.377   5.655   5.724 -0.2465  0.0524 -0.1119
    2POPC   C1B  334   7.727   6.755   7.040 -0.0602  0.0253 -0.0701
    2POPC   C2B  335   7.833   6.860   6.618 -0.1084 -0.0689  0.0368
    2POPC   C3B  336   7.825   6.901   6.148  0.2626 -0.1585 -0.0177
    2POPC   C4B  337   7.523   6.853   5.746  0.2270 -0.5387 -0.0324
    3POPC   NC3  338  10.362   7.300   7.627 -0.1261  0.1905 -0.0435
    3POPC   PO4  339  10.663   7.000   7.680 -0.1378 -0.0629 -0.1405
    3POPC   GL1  340  10.637   6.949   7.235  0.1980 -0.0217  0.1154
    3POPC   GL2  341  10.784   7.076   7.008  0.0147 -0.3797 -0.0164
    3POPC   C1A  342  10.673   6.584   6.889 -0.2949  0.0490  0.0700
    3POPC   D2A  343  10.691   6.303   6.544 -0.0169  0.0578  0.0469
    3POPC   C3A  344  10.382   6.252   6.225 -0.1382  0.0221  0.1659
    3POPC   C4A  345  10.134   6.000   5.914 -0.0482  0.1843  0.0083
    3POPC   C1B  346  10.594   7.202   6.519  0.0536 -0.0520  0.3618
    3POPC   C2B  347  10.909   7.276   6.213 -0.1710 -0.1975  0.0557
    3POPC   C3B  348  11.090   7.394   5.923  0.0556 -0.1361  0.1009
    3POPC   C4B  349  11.594   7.365   5.842 -0.0106  0.0270 -0.1879
    4POPC   NC3  350   2.738   7.297   7.250 -0.3026 -0.0606 -0.0259
    4POPC   PO4  351   2.390   7.430   7.515  0.1643  0.0791  0.2291
    4POPC   GL1  352   2.272   7.090   7.142  0.0875 -0.1108  0.2589
    4POPC   GL2  353   2.024   7.319   7.091  0.0887 -0.0860 -0.2819
    4POPC   C1A  354   2.031   6.877   6.768  0.0880 -0.1827 -0.0511
    4POPC   D2A  355   2.276   7.007   6.328 -0.2318 -0.0711  0.0745
    4POPC   C3A  356   2.226   7.323   6.104  0.0845  0.0901  0.2633
    4POPC   C4A  357   2.047   7.730   6.113  0.3249 -0.2093 -0.0750
    4POPC   C1B  358   1.699   7.286   6.789  0.2506  0.0129  0.0038
    4POPC   C2B  359   1.511   6.880   6.698  0.4221  0.2043 -0.4221
    4POPC   C3B  360   1.448   6.589   6.420 -0.0831 -0.2357  0.2264
    4POPC   C4B  361   1.657   6.290   6.065  0.2310  0.0792 -0.0131
    5POPC   NC3  362   5.457   7.622   7.375 -0.0930  0.2013  0.0156
    5POPC   PO4  363   5.414   7.123   7.323  0.2181 -0.1432  0.1452
    5POPC   GL1  364   5.566   7.116   6.964  0.2639  0.0727 -0.1630
    5POPC   GL2  365   5.451   6.752   6.950 -0.2486  0.1033 -0.0493
    5POPC   C1A  366   5.514   7.093   6.592 -0.1558  0.0617 -0.2816
    5POPC   D2A  367   5.515   6.957   6.135  0.1337  0.1178  0.1166
    5POPC   C3A  368   5.775   6.686   6.079 -0.2814  0.1667  0.1674
    5POPC   C4A  369   5.931   6.277   6.133  0.0151 -0.0059 -0.1456
    5POPC   C1B  370   5.371   6.595   6.494 -0.1005 -0.3392  0.2021
    5POPC   C2B  371   5.416   6.386   6.159  0.2391 -0.0483  0.0935
    5POPC   C3B  372   5.600   6.009   5.940  0.4155  0.0985  0.1350
    5POPC   C4B  373   5.903   5.894   5.714 -0.4888  0.0196  0.1831
    6POPC   NC3  374   9.835   1.023   7.939 -0.0893 -0.2183  0.3242
    6POPC   PO4  375   9.473   1.075   7.709 -0.2786 -0.3779  0.0631
    6POPC   GL1  376   9.187   0.998   7.342 -0.1083 -0.0456  0.1312
    6POPC   GL2  377   9.048   1.300   7.491 -0.0853  0.1413 -0.1247
    6POPC   C1A  378   8.785   1.095   7.081  0.0800  0.5104 -0.0870
    6POPC   D2A  379   8.539   0.871   6.861  0.0006 -0.1150  0.2101
    6POPC   C3A  380   8.621   1.019   6.497  0.0147 -0.1170  0.3574
    6POPC   C4A  381   8.569   1.157   6.108 -0.1349  0.1162  0.2553
    6POPC   C1B  382   9.166   1.530   7.128 -0.1504  0.0769  0.0110
    6POPC   C2B  383   8.978   1.784   6.846  0.2655 -0.3694  0.1296
    6POPC   C3B  384   8.852   2.204   6.733  0.6154  0.0424 -0.2130
    6POPC   C4B  385   8.887   2.540   6.538  0.0615  0.0744 -0.0794
    7POPC   NC3  386  10.334   8.946   7.895 -0.0322  0.2673  0.1714
    7POPC   PO4  387  10.527   8.704   7.544 -0.0365  0.1434  0.0296
    7POPC   GL1  388  10.418   8.991   7.117 -0.2358  0.0737 -0.0699
    7POPC   GL2  389  10.233   8.791   6.921 -0.0021  0.2566 -0.0958
    7POPC   C1A  390  10.490   9.200   6.596 -0.2311  0.1271 -0.0452
    7POPC   D2A  391  10.706   9.375   6.324 -0.1745 -0.3515  0.0817
    7POPC   C3A  392  10.653   9.200   5.880  0.3146 -0.2514 -0.1377
    7POPC   C4A  393  10.973   8.986   5.680 -0.3448 -0.1777 -0.0492
    7POPC   C1B  394   9.981   8.973   6.665  0.0144  0.1168  0.0315
    7POPC   C2B  395   9.838   9.089   6.305 -0.0675  0.2941  0.2666
    7POPC   C3B  396   9.848   9.310   5.898 -0.2729  0.1492 -0.3484
    7POPC   C4B  397   9.797   9.436   5.504 -0.0909 -0.1004 -0.0197
    8POPC   NC3  398   6.563  10.422   8.337 -0.1844 -0.0609  0.1110
    8POPC   PO4  399   6.707  10.173   7.998 -0.0331 -0.0115  0.0230
    8POPC   GL1  400   6.715  10.537   7.802  0.0407  0.1543 -0.0063
    8POPC   GL2  401   6.698  10.942   7.724 -0.0803  0.0772 -0.0796
    8POPC   C1A  402   6.783  10.551   7.324 -0.1813 -0.4170  0.1996
    8POPC   D2A  403   7.167  10.475   7.121  0.2103  0.0812 -0.1462
    8POPC   C3A  404   7.202  10.419   6.671  0.3012 -0.3150 -0.0712
    8POPC   C4A  405   7.217  10.479   6.328  0.3983  0.0342  0.1776
    8POPC   C1B  406   6.490  11.319   8.040  0.2760 -0.0094  0.1658
    8POPC   C2B  407   6.466  11.791   8.101  0.0887  0.2273 -0.1686
    8POPC   C3B  408   6.867  11.986   8.338  0.0140  0.4874  0.0377
    8POPC   C4B  409   7.159  12.225   8.364  0.0755 -0.2364  0.2072
    9POPC   NC3  410   0.980   1.000   7.719 -0.0872  0.4538  0.0860
    9POPC   PO4  411   1.116   1.398   7.596 -0.3281  0.0060  0.0440
    9POPC   GL1  412   1.231   1.493   7.149 -0.1590 -0.2414 -0.3946
    9POPC   GL2  413   1.546   1.538   7.054 -0.3246 -0.1723  0.0444
    9POPC   C1A  414   1.262   1.151   6.932  0.1983  0.1602  0.1990
    9POPC   D2A  415   1.269   0.788   6.717 -0.0564 -0.1679  0.1545
    9POPC   C3A  416   1.411   0.464   6.424 -0.4105 -0.0437 -0.1880
    9POPC   C4A  417   1.722   0.389   6.127 -0.1898 -0.1168  0.4108
    9POPC   C1B  418   1.377   1.678   6.684 -0.1678  0.2678 -0.1103
    9POPC   C2B  419   1.098   1.852   6.460 -0.4050  0.0002 -0.2582
    9POPC   C3B  420   0.732   2.100   6.528 -0.1443  0.0143  0.4156
    9POPC   C4B  421   0.503   2.432   6.632  0.2077 -0.3735 -0.0160
   10POPC   NC3  422   4.209   6.563   7.680  0.0922  0.2454  0.1832
   10POPC   PO4  423   3.831   6.410   7.798 -0.4351  0.3383 -0.1684
   10POPC   GL1  424   3.523   6.343   7.531 -0.3140  0.3780 -0.2277
   10POPC   GL2  425   3.562   6.437   7.195 -0.2425 -0.1046  0.2505
   10POPC   C1A  426   3.451   5.934   7.336  0.0570 -0.0487  0.1041
   10POPC   D2A  427   3.337   5.603   7.027 -0.3917  0.0318  0.0902
   10POPC   C3A  428   3.641   5.262   6.919  0.0398  0.4378  0.0079
   10POPC   C4A  429   3.783   4.880   7.095 -0.0488  0.0410 -0.0453
   10POPC   C1B  430   3.639   6.770   6.884 -0.0065 -0.1588  0.1486
   10POPC   C2B  431   3.792   6.876   6.561 -0.1714 -0.1174  0.0518
   10POPC   C3B  432   3.997   6.699   6.171  0.1480  0.1655 -0.1803
   10POPC   C4B  433   4.481   6.709   6.030  0.0746 -0.1917 -0.1483
   11POPC   NC3  434   9.762   2.977   8.048 -0.1502 -0.0906  0.1920
   11POPC   PO4  435  10.145   3.077   7.946 -0.0151  0.0570 -0.0123
   11POPC   GL1  436   9.997   2.955   7.548 -0.1149  0.1249  0.0862
   11POPC   GL2  437   9.630   2.969   7.441 -0.1724  0.1672 -0.1095
   11POPC   C1A  438  10.234   2.949   7.155  0.1016  0.2382  0.0467
   11POPC   D2A  439  10.215   2.890   6.770  0.0658 -0.2370 -0.0603
   11POPC   C3A  440  10.234   3.053   6.392  0.0655  0.2869  0.1609
   11POPC   C4A  441  10.046   2.897   6.053 -0.0963 -0.2860 -0.3035
   11POPC   C1B  442   9.754   2.886   7.070  0.0451  0.0570  0.2402
   11POPC   C2B  443   9.608   3.209   6.838 -0.1254  0.0018 -0.2204
   11POPC   C3B  444   9.241   3.278   6.590  0.2569  0.0762  0.0779
   11POPC   C4B  445   9.081   3.241   6.196  0.1784  0.0081  0.3427
   12POPC   NC3  446   6.555   9.963   7.592  0.1144 -0.0658  0.1597
   12POPC   PO4  447   6.196   9.803   7.520  0.2819  0.0917  0.0364
   12POPC   GL1  448   6.125  10.027   7.195 -0.2522 -0.0964  0.1287
   12POPC   GL2  449   6.336  10.128   7.019 -0.0085 -0.2153  0.4154
   12POPC   C1A  450   5.880  10.131   6.878  0.0459  0.1099  0.1611
   12POPC   D2A  451   5.718  10.333   6.467 -0.3574 -0.0118  0.1120
   12POPC   C3A  452   5.527  10.676   6.448  0.1217  0.1008 -0.2507
   12POPC   C4A  453   5.489  11.027   6.209 -0.0743 -0.0264  0.3648
   12POPC   C1B  454   6.324   9.955   6.711  0.2775 -0.1429 -0.2750
   12POPC   C2B  455   6.168   9.702   6.453  0.1182 -0.1422 -0.0603
   12POPC   C3B  456   5.860   9.390   6.404 -0.0836 -0.0907 -0.1436
   12POPC   C4B  457   5.493   9.354   6.345 -0.0866 -0.1626  0.1478
   13POPC   NC3  458   7.114   5.081   7.776 -0.2538  0.2264  0.1097
   13POPC   PO4  459   7.086   5.542   7.616 -0.0128 -0.0925 -0.0764
   13POPC   GL1  460   7.323   5.476   7.198 -0.1857 -0.1993 -0.0776
   13POPC   GL2  461   7.699   5.563   7.173  0.0137 -0.0512 -0.1090
   13POPC   C1A  462   7.080   5.364   6.870  0.0765 -0.0764  0.0756
   13POPC   D2A  463   7.138   5.033   6.443  0.4065  0.4862 -0.0127
   13POPC   C3A  464   7.098   4.749   6.020 -0.0358 -0.0049 -0.0864
   13POPC   C4A  465   6.923   4.592   5.740  0.0464 -0.0757 -0.3373
   13POPC   C1B  466   7.836   5.909   6.902 -0.2493  0.1422  0.2082
   13POPC   C2B  467   7.767   5.941   6.405  0.3616 -0.1192 -0.0025
   13POPC   C3B  468   7.767   6.003   5.953 -0.1763 -0.1323 -0.1155
   13POPC   C4B  469   7.548   6.076   5.616 -0.1246 -0.2300 -0.1047
   14POPC   NC3  470   3.517   2.160   8.818  0.0170 -0.0556 -0.1692
   14POPC   PO4  471   3.840   2.467   8.788 -0.1304 -0.2888  0.1691
   14POPC   GL1  472   4.174   2.468   8.483 -0.4297  0.1137  0.1037
   14POPC   GL2  473   4.342   2.257   8.539 -0.0402 -0.0922  0.1299
   14POPC   C1A  474   4.319   2.687   8.128  0.2172  0.3771 -0.0762
   14POPC   D2A  475   4.439   2.686   7.653 -0.2623  0.1023  0.1719
   14POPC   C3A  476   4.694   2.794   7.519  0.1394  0.1456 -0.0433
   14POPC   C4A  477   4.826   2.744   7.128 -0.3321  0.1303 -0.0083
   14POPC   C1B  478   4.775   2.225   8.430 -0.1091  0.2002  0.2671
   14POPC   C2B  479   5.117   2.343   8.538 -0.1027  0.0660  0.0935
   14POPC   C3B  480   5.572   2.268   8.474 -0.3021  0.3116 -0.3545
   14POPC   C4B  481   5.877   2.531   8.305  0.2631  0.0313  0.3151
   15POPC   NC3  482   5.099   7.758   8.120 -0.0135 -0.0416 -0.0368
   15POPC   PO4  483   4.977   7.770   7.674 -0.1647  0.0462 -0.1652
   15POPC   GL1  484   4.924   7.917   7.321 -0.0540 -0.0906  0.4061
   15POPC   GL2  485   4.722   7.767   7.161 -0.0189  0.1974  0.0470
   15POPC   C1A  486   5.052   8.051   6.910  0.0321 -0.1711  0.2356
   15POPC   D2A  487   4.887   8.119   6.517 -0.2521  0.0727 -0.3521
   15POPC   C3A  488   4.857   8.516   6.267  0.1366  0.3394 -0.0748
   15POPC   C4A  489   4.700   8.836   6.160 -0.1113 -0.2350 -0.3401
   15POPC   C1B  490   4.501   7.996   6.813  0.1087 -0.0499 -0.1203
   15POPC   C2B  491   4.417   8.180   6.351  0.2418 -0.2204 -0.2885
   15POPC   C3B  492   4.387   8.463   6.009 -0.1312 -0.0086 -0.1196
   15POPC   C4B  493   4.586   8.708   5.704 -0.0882  0.2326  0.1730
   16POPC   NC3  494   3.009   9.244   7.769 -0.1626  0.3872 -0.2006
   16POPC   PO4  495   3.324   9.210   7.733  0.2526 -0.1355 -0.0910
   16POPC   GL1  496   3.689   9.226   7.502 -0.1682 -0.0946 -0.2757
   16POPC   GL2  497   3.911   9.100   7.451  0.1600 -0.1481 -0.0417
   16POPC   C1A  498   3.580   9.340   7.007 -0.0953  0.1285 -0.1196
   16POPC   D2A  499   3.515   9.297   6.578  0.0968  0.0783  0.1904
   16POPC   C3A  500   3.800   9.289   6.234  0.1281 -0.2778  0.0624
   16POPC   C4A  501   3.624   9.586   5.914 -0.1519 -0.1058 -0.0264
   16POPC   C1B  502   4.023   9.148   7.041 -0.0634 -0.0934 -0.1786
   16POPC   C2B  503   4.031   9.376   6.633  0.0413  0.1859  0.0373
   16POPC   C3B  504   4.072   9.631   6.499 -0.1252  0.0277 -0.1943
   16POPC   C4B  505   4.180   9.868   6.159 -0.1279 -0.1597 -0.2196
   17POPC   NC3  506   1.603  10.023   7.715  0.0839  0.4212 -0.0441
   17POPC   PO4  507   1.706   9.711   7.837  0.0009  0.1395 -0.5113
   17POPC   GL1  508   1.819   9.674   7.430  0.1104 -0.0902  0.0051
   17POPC   GL2  509   1.593   9.642   7.169 -0.0721 -0.1818  0.4412
   17POPC   C1A  510   2.169   9.627   7.091 -0.2501  0.1155 -0.4025
   17POPC   D2A  511   2.385   9.396   6.777 -0.0406 -0.2142  0.0068
   17POPC   C3A  512   2.562   9.439   6.381  0.1600 -0.4167  0.0885
   17POPC   C4A  513   2.803   9.492   6.043  0.0833  0.1225 -0.0342
   17POPC   C1B  514   1.789   9.591   6.733 -0.5329 -0.0673  0.0127
   17POPC   C2B  515   2.105   9.665   6.321 -0.0890  0.0520 -0.2706
   17POPC   C3B  516   2.023  10.011   5.980  0.1400  0.3354  0.0206
   17POPC   C4B  517   2.040  10.561   5.976  0.0118  0.1071  0.0364
   18POPC   NC3  518   0.708   3.145   8.364  0.2552  0.0659 -0.0844
   18POPC   PO4  519   0.417   3.216   8.068 -0.1941  0.0649 -0.1693
   18POPC   GL1  520   0.322   3.082   7.605  0.2543  0.0952 -0.1121
   18POPC   GL2  521   0.604   2.873   7.388 -0.1041  0.0669 -0.4104
   18POPC   C1A  522   0.099   3.100   7.247 -0.2881  0.1235  0.0152
   18POPC   D2A  523   0.060   3.109   6.806  0.1294  0.1884 -0.1796
   18POPC   C3A  524  -0.034   3.393   6.604 -0.0304 -0.0708  0.0896
   18POPC   C4A  525  -0.413   3.602   6.386 -0.0450 -0.0578  0.1458
   18POPC   C1B  526   0.436   2.851   6.952  0.2513 -0.3268  0.0651
   18POPC   C2B  527   0.524   2.987   6.577  0.0147  0.0255 -0.0368
   18POPC   C3B  528   0.619   2.681   6.217 -0.1067  0.0161  0.1457
   18POPC   C4B  529   0.841   2.401   5.896  0.0176  0.1394  0.0237
   19POPC   NC3  530   4.420   9.822   7.987  0.3357  0.1930 -0.2871
   19POPC   PO4  531   4.318   9.437   7.834 -0.0100 -0.0186  0.1643
   19POPC   GL1  532   4.265   9.443   7.358  0.0218 -0.3892  0.2075
   19POPC   GL2  533   4.620   9.432   7.176  0.0548  0.3010  0.0929
   19POPC   C1A  534   4.063   9.765   7.064  0.1501  0.4118  0.0205
   19POPC   D2A  535   3.739   9.807   6.826  0.1319  0.3333 -0.2895
   19POPC   C3A  536   3.922  10.165   6.587  0.2451 -0.0187  0.0419
   19POPC   C4A  537   3.729  10.544   6.384 -0.1328 -0.1933  0.3109
   19POPC   C1B  538   4.621   9.502   6.732  0.2907 -0.1342 -0.0006
   19POPC   C2B  539   4.870   9.392   6.367  0.2487  0.0013 -0.2127
   19POPC   C3B  540   5.063   9.320   5.900  0.0771 -0.0182 -0.0732
   19POPC   C4B  541   4.966   9.484   5.633  0.1207  0.0734 -0.0650
   20POPC   NC3  542   3.193   1.269   8.124 -0.0599  0.2838  0.3401
   20POPC   PO4  543   3.349   0.906   7.859 -0.2155  0.1147 -0.1593
   20POPC   GL1  544   3.511   1.043   7.447  0.1687  0.2341  0.2606
   20POPC   GL2  545   3.343   0.738   7.359  0.0846 -0.0315 -0.1512
   20POPC   C1A  546   3.652   1.037   6.987 -0.2373  0.0311  0.2786
   20POPC   D2A  547   3.943   1.085   6.545  0.2322 -0.0254 -0.0049
   20POPC   C3A  548   4.333   1.196   6.551  0.1392  0.2137  0.1330
   20POPC   C4A  549   4.657   1.416   6.727  0.0299 -0.1650 -0.1519
   20POPC   C1B  550   3.204   0.578   6.983 -0.0362 -0.1138 -0.1325
   20POPC   C2B  551   3.055   0.657   6.507 -0.3463 -0.0490 -0.0521
   20POPC   C3B  552   3.106   0.658   6.107 -0.1334 -0.0208 -0.2050
   20POPC   C4B  553   3.183   0.312   5.966  0.1014 -0.2896 -0.0528
   21POPC   NC3  554   3.704   9.142   8.020  0.1483  0.2288 -0.0654
   21POPC   PO4  555   3.479   8.690   8.147 -0.0497 -0.2280 -0.1331
   21POPC   GL1  556   3.626   8.762   7.718 -0.1212  0.0148 -0.0343
   21POPC   GL2  557   3.796   8.470   7.610  0.1068 -0.0145 -0.0461
   21POPC   C1A  558   3.526   8.751   7.340 -0.0606 -0.2354  0.2923
   21POPC   D2A  559   3.253   8.476   7.174  0.1176  0.1784 -0.0511
   21POPC   C3A  560   2.971   8.549   6.864 -0.1121  0.0173 -0.0152
   21POPC   C4A  561   2.971   8.943   6.675 -0.1867 -0.0712 -0.0579
   21POPC   C1B  562   3.752   8.180   7.308  0.0424  0.0269 -0.0535
   21POPC   C2B  563   3.541   8.200   6.848  0.0449  0.1608  0.2130
   21POPC   C3B  564   3.522   8.358   6.511 -0.1214  0.1305 -0.6176
   21POPC   C4B  565   3.281   8.640   6.286  0.1596  0.0164  0.2368
   22POPC   NC3  566   3.502   6.805   7.813 -0.0620 -0.1044  0.0077
   22POPC   PO4  567   3.821   6.874   7.555  0.0262  0.0902 -0.2451
   22POPC   GL1  568   3.997   6.654   7.242  0.1825 -0.0566  0.0196
   22POPC   GL2  569   4.202   6.962   7.118  0.1312 -0.0037 -0.2042
   22POPC   C1A  570   4.027   6.441   6.822  0.0999  0.0191  0.1269
   22POPC   D2A  571   3.891   6.267   6.501 -0.2443  0.0618  0.2316
   22POPC   C3A  572   3.616   6.012   6.301  0.0159 -0.0963 -0.0663
   22POPC   C4A  573   3.310   5.724   6.095  0.2374  0.4639  0.0725
   22POPC   C1B  574   3.973   7.206   6.879 -0.1293  0.1018  0.1141
   22POPC   C2B  575   3.864   7.303   6.408 -0.0275  0.0247  0.0167
   22POPC   C3B  576   3.615   7.060   6.112  0.2084 -0.2617  0.2944
   22POPC   C4B  577   3.565   6.592   5.940  0.1189  0.1678 -0.0399
   23POPC   NC3  578   2.163   2.288   7.312 -0.0903 -0.0723  0.0733
   23POPC   PO4  579   2.027   1.829   7.362 -0.4725  0.0369  0.1431
   23POPC   GL1  580   2.251   1.936   6.995  0.1165  0.1004  0.2697
   23POPC   GL2  581   2.471   1.762   6.920 -0.1983  0.0905  0.0195
   23POPC   C1A  582   2.285   1.828   6.503 -0.0017 -0.1342  0.1337
   23POPC   D2A  583   2.589   1.708   6.206  0.0589  0.1668 -0.1171
   23POPC   C3A  584   2.658   2.080   6.047 -0.1957 -0.0467  0.0926
   23POPC   C4A  585   2.573   2.363   5.784 -0.2151 -0.1995  0.3191
   23POPC   C1B  586   2.375   1.393   6.716 -0.0983  0.0643 -0.2011
   23POPC   C2B  587   2.232   1.211   6.369  0.1344 -0.0675 -0.3140
   23POPC   C3B  588   1.921   1.080   6.120  0.0659 -0.0683  0.0054
   23POPC   C4B  589   1.731   0.728   5.806  0.0598 -0.2261 -0.5087
   24POPC   NC3  590   2.899   4.090   7.999  0.0987 -0.0404  0.1961
   24POPC   PO4  591   2.561   3.823   8.153  0.1428  0.1220  0.1722
   24POPC   GL1  592   2.523   3.903   7.686 -0.0777 -0.0762  0.0137
   24POPC   GL2  593   2.817   3.954   7.508 -0.2703 -0.1382  0.2114
   24POPC   C1A  594   2.316   4.012   7.231  0.0985  0.0229  0.3966
   24POPC   D2A  595   2.506   3.992   6.849  0.1186  0.1378 -0.2582
   24POPC   C3A  596   2.232   3.872   6.560 -0.1196 -0.1897  0.1869
   24POPC   C4A  597   1.864   3.729   6.339 -0.1327 -0.0088  0.2243
   24POPC   C1B  598   2.809   3.740   7.141  0.2201  0.2643  0.2915
   24POPC   C2B  599   2.750   3.534   6.787 -0.3528 -0.0011 -0.3109
   24POPC   C3B  600   2.819   3.141   6.430  0.2930 -0.0005 -0.0015
   24POPC   C4B  601   3.185   2.907   6.201 -0.0457  0.1333 -0.0521
   25POPC   NC3  602   1.899   7.630   7.887  0.0094  0.1094  0.2628
   25POPC   PO4  603   1.490   7.789   7.831 -0.4208  0.0919  0.0472
   25POPC   GL1  604   1.397   7.898   7.420 -0.0219  0.1457 -0.0886
   25POPC   GL2  605   1.109   7.979   7.232  0.0565 -0.4103  0.0908
   25POPC   C1A  606   1.449   7.769   6.967 -0.0695 -0.1267  0.1490
   25POPC   D2A  607   1.739   7.848   6.519  0.2063  0.0869  0.0884
   25POPC   C3A  608   1.681   8.283   6.275  0.1453 -0.1078 -0.2666
   25POPC   C4A  609   1.259   8.380   6.060  0.1254  0.1713 -0.1937
   25POPC   C1B  610   1.004   8.312   6.882  0.0369  0.0937 -0.0525
   25POPC   C2B  611   1.076   8.558   6.533  0.0598 -0.0413 -0.1873
   25POPC   C3B  612   0.729   8.739   6.189 -0.1374  0.0602  0.1803
   25POPC   C4B  613   0.508   8.475   5.920  0.0061  0.1707 -0.0396
   26POPC   NC3  614   1.686   1.530   7.506  0.0052 -0.0008 -0.1921
   26POPC   PO4  615   2.019   1.161   7.584  0.0755 -0.1039 -0.0364
   26POPC   GL1  616   1.753   1.079   7.247 -0.1173 -0.1100 -0.0736
   26POPC   GL2  617   1.442   1.019   7.344 -0.1174  0.1075 -0.3381
   26POPC   C1A  618   1.726   0.789   7.003 -0.1340  0.2378  0.1582
   26POPC   D2A  619   1.835   0.764   6.508 -0.3533  0.3483  0.0933
   26POPC   C3A  620   2.213   0.608   6.211 -0.1179 -0.2146 -0.2506
   26POPC   C4A  621   2.155   0.403   5.888  0.0225 -0.3977 -0.1017
   26POPC   C1B  622   1.332   0.607   7.197 -0.4524  0.2033  0.0302
   26POPC   C2B  623   1.557   0.337   6.887 -0.1643 -0.3582  0.0059
   26POPC   C3B  624   1.852   0.243   6.544  0.1787  0.0540 -0.1597
   26POPC   C4B  625   2.222   0.154   6.408  0.0808 -0.0143 -0.0273
   27POPC   NC3  626   1.141   4.910   8.075  0.0110 -0.0174  0.0824
   27POPC   PO4  627   1.271   4.601   7.747  0.0850 -0.1580  0.0402
   27POPC   GL1  628   1.292   4.442   7.329 -0.0621  0.1783 -0.1018
   27POPC   GL2  629   1.230   4.087   7.398 -0.1021 -0.3233  0.1032
   27POPC   C1A  630   1.409   4.331   6.979 -0.1196  0.0079  0.2277
   27POPC   D2A  631   1.553   4.525   6.609 -0.4554 -0.2895 -0.1705
   27POPC   C3A  632   1.885   4.561   6.293  0.0797  0.3924  0.1072
   27POPC   C4A  633   2.064   4.112   6.101  0.0419 -0.1205  0.0374
   27POPC   C1B  634   1.044   3.999   6.960  0.2111 -0.1335  0.0889
   27POPC   C2B  635   1.057   4.315   6.585  0.1939  0.0971 -0.0823
   27POPC   C3B  636   0.847   4.400   6.249  0.0162 -0.1141  0.0710
   27POPC   C4B  637   0.721   4.658   5.988 -0.2825 -0.1901  0.1297
   28POPC   NC3  638   5.182   4.595   8.691 -0.1253 -0.0115 -0.1361
   28POPC   PO4  639   4.851   4.598   8.325 -0.0476 -0.0523 -0.4198
   28POPC   GL1  640   5.012   4.581   7.914 -0.3525  0.1828  0.0405
   28POPC   GL2  641   4.747   4.470   7.779 -0.1280 -0.2007 -0.3292
   28POPC   C1A  642   5.076   4.641   7.393  0.1560  0.0358  0.2784
   28POPC   D2A  643   4.882   4.704   6.956 -0.1404 -0.0186  0.0274
   28POPC   C3A  644   4.669   4.443   6.639  0.3281 -0.0185 -0.1094
   28POPC   C4A  645   4.575   4.138   6.276  0.4260 -0.2177 -0.0006
   28POPC   C1B  646   4.475   4.422   7.403 -0.0520 -0.0110 -0.0572
   28POPC   C2B  647   4.388   4.263   7.008  0.0389  0.0430 -0.2673
   28POPC   C3B  648   4.527   3.988   6.767 -0.0355  0.0810 -0.1111
   28POPC   C4B  649   4.980   3.998   6.537  0.1803 -0.1533 -0.1116
   29POPC   NC3  650   9.882   9.671   7.957  0.1209  0.0130  0.0523
   29POPC   PO4  651  10.187   9.363   7.729  0.1624 -0.2207  0.2090
   29POPC   GL1  652  10.219   9.484   7.334  0.1895  0.2340  0.2059
   29POPC   GL2  653   9.855   9.344   7.217  0.0891 -0.2112  0.0274
   29POPC   C1A  654  10.004   9.871   7.101  0.1246 -0.0204 -0.0851
   29POPC   D2A  655  10.043  10.117   6.739 -0.0620 -0.3138 -0.0266
   29POPC   C3A  656  10.030  10.112   6.234 -0.1205 -0.1314  0.0732
   29POPC   C4A  657   9.962   9.847   5.869  0.1344  0.0900  0.2641
   29POPC   C1B  658   9.747   9.549   6.794 -0.2502 -0.0807 -0.1040
   29POPC   C2B  659   9.693   9.633   6.365 -0.2330  0.2480 -0.1519
   29POPC   C3B  660   9.435   9.625   6.022  0.0692  0.0409 -0.1598
   29POPC   C4B  661   9.219   9.889   5.754  0.4756  0.0298 -0.2384
   30POPC   NC3  662   0.432   3.568   7.692 -0.1078 -0.1391  0.0307
   30POPC   PO4  663   0.372   4.000   7.893  0.0572 -0.4011  0.3633
   30POPC   GL1  664   0.406   4.039   7.369 -0.2445  0.1010 -0.1265
   30POPC   GL2  665   0.703   4.044   7.362 -0.0354  0.0066  0.1609
   30POPC   C1A  666   0.300   3.943   6.976  0.0167 -0.1207  0.0509
   30POPC   D2A  667   0.606   3.952   6.708  0.1613 -0.0506  0.2094
   30POPC   C3A  668   0.591   3.932   6.319  0.0409 -0.1768 -0.0432
   30POPC   C4A  669   0.518   3.627   5.915  0.1062 -0.0914  0.3521
   30POPC   C1B  670   0.802   4.343   7.173  0.4370  0.1135 -0.0654
   30POPC   C2B  671   0.675   4.462   6.840  0.1253 -0.2850 -0.0694
   30POPC   C3B  672   0.535   4.837   6.590  0.1194  0.2090  0.0050
   30POPC   C4B  673   0.707   5.154   6.300 -0.0335  0.1596 -0.0178
   31POPC   NC3  674   6.142   9.341   7.580  0.2414  0.1815 -0.1141
   31POPC   PO4  675   5.658   9.385   7.810 -0.0616 -0.0624 -0.0533
   31POPC   GL1  676   5.704   9.566   7.416 -0.1939 -0.0054 -0.1647
   31POPC   GL2  677   5.649   9.911   7.487  0.0993 -0.2619 -0.1292
   31POPC   C1A  678   5.728   9.612   6.908  0.1379 -0.1492 -0.2054
   31POPC   D2A  679   5.595   9.763   6.604 -0.0074 -0.1636 -0.3343
   31POPC   C3A  680   5.770   9.844   6.220 -0.0398  0.0484 -0.2370
   31POPC   C4A  681   5.582  10.140   5.993  0.1442  0.1145 -0.0713
   31POPC   C1B  682   5.466  10.040   7.098  0.0846  0.0018  0.0979
   31POPC   C2B  683   5.354  10.220   6.717  0.0305 -0.0641  0.0953
   31POPC   C3B  684   5.232  10.119   6.334 -0.0061 -0.1554  0.0150
   31POPC   C4B  685   5.168   9.740   6.185  0.0351  0.0765 -0.0701
   32POPC   NC3  686   3.318   8.316   7.786  0.0414 -0.1615  0.2054
   32POPC   PO4  687   3.080   8.106   7.445 -0.1832 -0.0565  0.3806
   32POPC   GL1  688   3.007   8.065   7.046  0.0327  0.0150  0.1529
   32POPC   GL2  689   2.737   8.064   6.840  0.3150  0.1988 -0.1691
   32POPC   C1A  690   3.102   8.151   6.503  0.1048  0.2034  0.0787
   32POPC   D2A  691   3.114   8.105   6.043 -0.1169  0.0686  0.0982
   32POPC   C3A  692   3.454   8.380   5.897  0.1569  0.3078 -0.1494
   32POPC   C4A  693   3.895   8.498   5.871  0.2333  0.3054 -0.0577
   32POPC   C1B  694   2.626   8.404   6.494 -0.3686 -0.0852  0.1148
   32POPC   C2B  695   2.731   8.432   6.164  0.1088 -0.1421  0.2008
   32POPC   C3B  696   2.788   8.301   5.721  0.0519  0.0459 -0.5812
   32POPC   C4B  697   3.188   8.152   5.485 -0.0952 -0.0102  0.0649
   33POPC   NC3  698   3.683   1.087   8.680  0.2659  0.1770  0.0398
   33POPC   PO4  699   3.664   1.304   8.293 -0.3839  0.0362  0.3183
   33POPC   GL1  700   4.013   1.313   7.899 -0.0464  0.0290  0.0598
   33POPC   GL2  701   4.187   1.011   7.815  0.0717  0.1042  0.2053
   33POPC   C1A  702   4.206   1.354   7.483  0.0806  0.0795  0.2053
   33POPC   D2A  703   4.209   1.262   7.002 -0.0186  0.0108  0.1367
   33POPC   C3A  704   4.124   1.666   6.730  0.3885 -0.4427  0.1671
   33POPC   C4A  705   4.051   1.939   6.398 -0.1825 -0.0476 -0.3449
   33POPC   C1B  706   4.125   0.834   7.301 -0.3078  0.2694 -0.4215
   33POPC   C2B  707   4.132   0.713   6.914 -0.3018 -0.2871  0.1191
   33POPC   C3B  708   4.259   0.607   6.419 -0.0066 -0.1736  0.3020
   33POPC   C4B  709   4.379   0.507   6.045  0.2474 -0.1353 -0.0142
   34POPC   NC3  710   9.021   5.957   7.783  0.1087 -0.1151  0.1026
   34POPC   PO4  711   9.390   5.791   8.039 -0.0468  0.0314  0.1631
   34POPC   GL1  712   9.382   5.759   7.478  0.0376  0.0240 -0.2789
   34POPC   GL2  713   9.690   5.722   7.301  0.2047 -0.0072  0.3175
   34POPC   C1A  714   9.103   5.502   7.135 -0.2393 -0.3382  0.0120
   34POPC   D2A  715   8.912   5.100   7.072 -0.0810 -0.1439 -0.0095
   34POPC   C3A  716   8.906   4.877   6.716  0.0417 -0.0521 -0.0617
   34POPC   C4A  717   8.660   4.642   6.360 -0.1799 -0.2638 -0.2367
   34POPC   C1B  718   9.604   5.491   6.863 -0.1155  0.3912 -0.0074
   34POPC   C2B  719   9.274   5.299   6.657  0.2399  0.3192 -0.0695
   34POPC   C3B  720   9.133   5.305   6.268  0.0231 -0.4119 -0.0544
   34POPC   C4B  721   8.890   5.559   5.927  0.0175  0.0619 -0.0967
   35POPC   NC3  722   4.291   7.061   7.565 -0.2372 -0.2735  0.1043
   35POPC   PO4  723   4.619   7.127   7.641 -0.1072 -0.1026  0.0726
   35POPC   GL1  724   4.689   7.174   7.184 -0.2402  0.5397  0.1913
   35POPC   GL2  725   4.965   7.271   7.162  0.1300 -0.0672  0.0104
   35POPC   C1A  726   4.556   7.056   6.804 -0.2559 -0.0245  0.0839
   35POPC   D2A  727   4.328   7.120   6.453  0.2428 -0.2213 -0.0637
   35POPC   C3A  728   4.591   7.274   6.133  0.0167 -0.3128 -0.1838
   35POPC   C4A  729   4.485   7.555   5.803  0.0821 -0.0252 -0.3246
   35POPC   C1B  730   4.935   7.386   6.727  0.0315  0.2292  0.0990
   35POPC   C2B  731   4.795   7.668   6.388  0.4173  0.3543  0.1129
   35POPC   C3B  732   4.823   7.882   6.054 -0.4118  0.3064 -0.0911
   35POPC   C4B  733   4.754   8.198   5.764  0.2776  0.0791  0.0163
   36POPC   NC3  734   6.463   3.059   8.763  0.0925 -0.0432  0.0598
   36POPC   PO4  735   6.113   3.072   9.007  0.0504 -0.3241 -0.0405
   36POPC   GL1  736   5.714   2.980   8.742 -0.0587 -0.0523  0.1557
   36POPC   GL2  737   5.604   2.655   8.788  0.0415 -0.0263  0.3282
   36POPC   C1A  738   5.507   3.267   8.418  0.0129 -0.1625 -0.2585
   36POPC   D2A  739   5.039   3.258   8.421  0.1276  0.0610 -0.0760
   36POPC   C3A  740   4.885   3.557   8.011 -0.0512  0.0060  0.2102
   36POPC   C4A  741   4.485   3.665   8.104 -0.4068 -0.0006  0.0491
   36POPC   C1B  742   5.133   2.718   8.879  0.0506 -0.0328  0.1340
   36POPC   C2B  743   4.969   2.813   8.578 -0.0089 -0.1692  0.0325
   36POPC   C3B  744   4.660   2.930   8.511  0.3712  0.1398 -0.0386
   36POPC   C4B  745   4.245   2.939   8.558 -0.0424  0.2939 -0.1001
   37POPC   NC3  746   4.947   5.934   8.189 -0.0681 -0.0261 -0.2696
   37POPC   PO4  747   4.666   6.113   8.001 -0.1354 -0.1203  0.0267
   37POPC   GL1  748   4.549   5.883   7.642  0.1077  0.3534  0.1870
   37POPC   GL2  749   4.527   6.110   7.479 -0.0639 -0.2551  0.0027
   37POPC   C1A  750   4.520   5.422   7.465 -0.0191 -0.0990 -0.1522
   37POPC   D2A  751   4.770   5.347   7.040  0.1376  0.0712  0.0627
   37POPC   C3A  752   4.635   5.074   6.627 -0.1697  0.0117  0.0321
   37POPC   C4A  753   4.686   4.781   6.228 -0.2899 -0.3558  0.0494
   37POPC   C1B  754   4.425   5.707   7.077 -0.0095 -0.4149 -0.0381
   37POPC   C2B  755   4.477   5.803   6.565  0.2254  0.0020 -0.0481
   37POPC   C3B  756   4.235   5.697   6.141  0.1699  0.1775 -0.4303
   37POPC   C4B  757   4.145   5.444   5.815  0.0945 -0.2084  0.0737
   38POPC   NC3  758   9.146   1.968   8.384 -0.1438 -0.0158  0.0852
   38POPC   PO4  759   9.267   2.263   8.006  0.4062  0.2608  0.1177
   38POPC   GL1  760   9.273   2.591   7.691 -0.0064 -0.1988 -0.0567
   38POPC   GL2  761   9.020   2.410   7.456  0.3593  0.3543 -0.4214
   38POPC   C1A  762   9.528   2.464   7.307 -0.0513 -0.0678 -0.2878
   38POPC   D2A  763   9.575   2.333   6.878  0.0027 -0.4154  0.0133
   38POPC   C3A  764   9.343   2.338   6.391 -0.2152  0.2334  0.0829
   38POPC   C4A  765   9.007   2.415   6.088 -0.1596 -0.0412  0.2299
   38POPC   C1B  766   9.203   2.137   7.079  0.0982 -0.0245  0.0752
   38POPC   C2B  767   9.482   1.776   6.746  0.0007 -0.3304 -0.1721
   38POPC   C3B  768   9.617   1.866   6.246 -0.2723 -0.0747 -0.2227
   38POPC   C4B  769   9.440   2.119   5.943 -0.0358 -0.3402  0.2433
   39POPC   NC3  770   9.011   1.054   7.906  0.0799 -0.0425  0.1158
   39POPC   PO4  771   8.706   1.438   7.853  0.1748  0.1692  0.1596
   39POPC   GL1  772   8.543   1.374   7.538  0.0392  0.1672  0.3074
   39POPC   GL2  773   8.201   1.370   7.620 -0.1567 -0.2455  0.3834
   39POPC   C1A  774   8.534   1.500   7.157 -0.2524 -0.1179 -0.3624
   39POPC   D2A  775   8.608   1.453   6.698  0.0507 -0.0037  0.0616
   39POPC   C3A  776   8.282   1.483   6.401 -0.0003 -0.0629 -0.1191
   39POPC   C4A  777   8.208   1.611   5.986  0.1496 -0.0894 -0.3135
   39POPC   C1B  778   8.207   1.104   7.282  0.1103  0.0810  0.0888
   39POPC   C2B  779   8.154   1.243   6.920  0.1145 -0.0228  0.1636
   39POPC   C3B  780   8.107   1.048   6.452 -0.0490 -0.1834 -0.2159
   39POPC   C4B  781   8.068   1.101   6.092 -0.0618 -0.3876 -0.3048
   40POPC   NC3  782   8.700   9.455   7.247 -0.1273 -0.1316 -0.3951
   40POPC   PO4  783   8.422   9.878   7.370 -0.0651  0.0060 -0.1634
   40POPC   GL1  784   8.637   9.919   6.926 -0.0417  0.1249  0.3371
   40POPC   GL2  785   8.639  10.207   6.884 -0.5295  0.0747  0.0819
   40POPC   C1A  786   8.748   9.825   6.581 -0.1195  0.0399 -0.1332
   40POPC   D2A  787   8.706   9.711   6.166  0.2422  0.1614 -0.0691
   40POPC   C3A  788   8.292   9.647   5.928  0.0592 -0.2116 -0.0266
   40POPC   C4A  789   8.122   9.833   5.562  0.0936 -0.2317  0.1875
   40POPC   C1B  790   8.772  10.334   6.424  0.0207  0.3592 -0.1339
   40POPC   C2B  791   8.760  10.730   6.218  0.2125  0.0102  0.0306
   40POPC   C3B  792   9.036  10.851   5.909  0.2031  0.1272  0.0110
   40POPC   C4B  793   9.212  11.141   5.705 -0.1405  0.0071 -0.2108
   41POPC   NC3  794   1.727   4.057   8.216  0.0894 -0.0596  0.4354
   41POPC   PO4  795   1.590   4.139   7.765 -0.0053 -0.4024  0.1578
   41POPC   GL1  796   1.753   4.148   7.276 -0.3164  0.1956  0.1373
   41POPC   GL2  797   1.562   3.857   7.058 -0.3118 -0.2391  0.2897
   41POPC   C1A  798   1.986   4.173   6.873  0.2512  0.0273 -0.0199
   41POPC   D2A  799   2.240   4.360   6.552  0.2551  0.2526 -0.0054
   41POPC   C3A  800   2.630   4.270   6.422 -0.0934 -0.2833 -0.1849
   41POPC   C4A  801   3.003   4.309   6.281 -0.3743  0.1837 -0.0112
   41POPC   C1B  802   1.539   4.017   6.650  0.1705 -0.0959  0.0281
   41POPC   C2B  803   1.531   4.079   6.209 -0.0132  0.3346 -0.0091
   41POPC   C3B  804   1.731   3.914   5.808  0.1094  0.3444  0.0272
   41POPC   C4B  805   2.049   3.552   5.665  0.1449 -0.2452 -0.0268
   42POPC   NC3  806   7.391   0.356   8.311 -0.1230 -0.2169 -0.1078
   42POPC   PO4  807   7.094   0.452   8.560  0.2410  0.1074 -0.0475
   42POPC   GL1  808   6.995   0.597   8.068 -0.2910 -0.1759 -0.1423
   42POPC   GL2  809   6.986   0.972   8.156  0.3604  0.2437 -0.2156
   42POPC   C1A  810   7.151   0.532   7.641  0.0306  0.3958  0.2055
   42POPC   D2A  811   7.073   0.373   7.199 -0.2355  0.0118  0.0496
   42POPC   C3A  812   7.400   0.274   6.951  0.0329 -0.1036 -0.2054
   42POPC   C4A  813   7.437   0.263   6.480  0.3764 -0.0046 -0.0615
   42POPC   C1B  814   6.759   0.898   7.674  0.3965 -0.1091 -0.0300
   42POPC   C2B  815   6.810   0.827   7.295 -0.1822 -0.2309  0.0157
   42POPC   C3B  816   6.790   0.631   6.842 -0.2100 -0.1659  0.1859
   42POPC   C4B  817   6.497   0.462   6.536  0.0287 -0.3667  0.0501
   43POPC   NC3  818   8.169   9.219   7.354 -0.0642 -0.2061 -0.3812
   43POPC   PO4  819   7.988   8.768   7.471 -0.2553 -0.0038 -0.1489
   43POPC   GL1  820   8.092   8.656   7.141  0.0265  0.4978 -0.1377
   43POPC   GL2  821   8.366   8.566   7.023 -0.1623  0.3091 -0.1599
   43POPC   C1A  822   8.025   8.739   6.705  0.0680  0.0531 -0.2794
   43POPC   D2A  823   8.074   8.759   6.286  0.1455  0.1677  0.1321
   43POPC   C3A  824   7.644   8.591   6.117 -0.2232 -0.1185  0.0913
   43POPC   C4A  825   7.408   8.257   5.972  0.1000  0.2085 -0.0526
   43POPC   C1B  826   8.527   9.004   6.804  0.2587  0.1085 -0.1070
   43POPC   C2B  827   8.523   9.387   6.474  0.5171  0.0755 -0.3703
   43POPC   C3B  828   8.170   9.714   6.444 -0.0926  0.2766  0.1667
   43POPC   C4B  829   8.282  10.103   6.440 -0.1125 -0.1942 -0.1541
   44POPC   NC3  830   3.245   2.645   8.087 -0.0567  0.0580  0.0522
   44POPC   PO4  831   3.301   2.169   8.179 -0.1495  0.0346  0.1613
   44POPC   GL1  832   3.530   2.217   7.894 -0.0595  0.2205  0.0702
   44POPC   GL2  833   3.504   1.978   7.621 -0.1386  0.2651 -0.0692
   44POPC   C1A  834   3.848   2.318   7.563  0.1011  0.0217 -0.3698
   44POPC   D2A  835   3.932   2.672   7.306  0.0976  0.1817  0.0969
   44POPC   C3A  836   3.947   2.417   6.982  0.2067 -0.0165 -0.3784
   44POPC   C4A  837   4.002   2.384   6.499  0.0756  0.1735  0.0574
   44POPC   C1B  838   3.658   2.022   7.189  0.1854 -0.0499 -0.0834
   44POPC   C2B  839   3.727   2.032   6.790  0.0191  0.0766  0.0862
   44POPC   C3B  840   3.544   1.818   6.367 -0.2050 -0.3550 -0.0918
   44POPC   C4B  841   3.734   1.797   5.991 -0.1510 -0.0426 -0.0486
   45POPC   NC3  842   2.596   2.450   7.537  0.0109  0.0006  0.2654
   45POPC   PO4  843   2.534   2.840   7.473  0.1345  0.1301 -0.0699
   45POPC   GL1  844   2.366   3.065   7.228 -0.0733  0.2623 -0.0572
   45POPC   GL2  845   2.634   2.989   6.961  0.2350 -0.2393  0.0351
   45POPC   C1A  846   2.289   3.406   6.906 -0.1273 -0.0863  0.3230
   45POPC   D2A  847   2.325   3.391   6.479  0.0951 -0.2230 -0.5284
   45POPC   C3A  848   2.096   3.252   6.115  0.1304 -0.4427 -0.0757
   45POPC   C4A  849   1.731   3.160   6.017 -0.3684  0.1407  0.0824
   45POPC   C1B  850   2.402   2.888   6.538 -0.0743 -0.2926  0.0928
   45POPC   C2B  851   2.294   2.498   6.248  0.2650 -0.1395  0.0307
   45POPC   C3B  852   1.976   2.150   6.308 -0.0303  0.1571 -0.0270
   45POPC   C4B  853   1.588   1.990   6.280  0.0363  0.1891  0.1132
   46POPC   NC3  854   9.547   1.985   7.729  0.2204  0.1172  0.5042
   46POPC   PO4  855   9.971   1.994   7.669 -0.1494  0.2293  0.2521
   46POPC   GL1  856  10.030   2.386   7.297 -0.0396 -0.0747 -0.1015
   46POPC   GL2  857  10.326   2.490   7.304 -0.1214  0.0284  0.0802
   46POPC   C1A  858  10.044   2.378   6.804  0.1617  0.0753 -0.0055
   46POPC   D2A  859   9.754   2.696   6.559 -0.1062 -0.1508  0.1557
   46POPC   C3A  860   9.739   3.129   6.361  0.1263 -0.2271 -0.3106
   46POPC   C4A  861   9.610   3.524   6.323 -0.1291 -0.3080  0.0531
   46POPC   C1B  862  10.646   2.630   7.171 -0.1896 -0.0570 -0.2011
   46POPC   C2B  863  10.632   2.571   6.740 -0.2324 -0.1076 -0.1369
   46POPC   C3B  864  10.769   2.419   6.265 -0.1018 -0.3607  0.0011
   46POPC   C4B  865  10.742   2.191   5.816  0.2514 -0.2147 -0.0878
   47POPC   NC3  866   0.280  10.041   7.668 -0.0610 -0.1225 -0.1382
   47POPC   PO4  867   0.740  10.101   7.660 -0.0996 -0.1121 -0.1696
   47POPC   GL1  868   0.682  10.123   7.202 -0.0893 -0.3649  0.0658
   47POPC   GL2  869   0.791   9.911   6.908 -0.0514 -0.0825  0.3492
   47POPC   C1A  870   0.671  10.541   7.035 -0.1990  0.1835 -0.1111
   47POPC   D2A  871   0.531  10.882   6.825 -0.1957 -0.0301  0.0409
   47POPC   C3A  872   0.832  11.251   6.604 -0.2808  0.1032  0.1605
   47POPC   C4A  873   1.014  11.253   6.233  0.5553  0.1428 -0.0008
   47POPC   C1B  874   0.528  10.164   6.548 -0.1877 -0.2754 -0.0430
   47POPC   C2B  875   0.387  10.081   6.099 -0.0728 -0.2490 -0.0536
   47POPC   C3B  876   0.169  10.214   5.810 -0.2962 -0.0555  0.2850
   47POPC   C4B  877   0.018  10.489   5.521  0.3863 -0.1814  0.3012
   48POPC   NC3  878   7.349   2.027   9.124  0.4167  0.1756 -0.0366
   48POPC   PO4  879   7.780   2.048   8.998  0.2732  0.2557 -0.1633
   48POPC   GL1  880   7.502   2.087   8.668 -0.0903 -0.0255 -0.0020
   48POPC   GL2  881   7.601   2.218   8.330 -0.1569  0.0959 -0.0379
   48POPC   C1A  882   7.091   2.053   8.340 -0.5522  0.2664  0.0194
   48POPC   D2A  883   6.660   1.789   8.384 -0.1046 -0.0948 -0.0655
   48POPC   C3A  884   6.498   1.826   7.947 -0.0080 -0.1391  0.2619
   48POPC   C4A  885   6.728   1.791   7.566 -0.3563 -0.4369  0.0321
   48POPC   C1B  886   7.499   2.178   7.908  0.2510  0.1811  0.1813
   48POPC   C2B  887   7.392   2.230   7.497 -0.2253  0.1368  0.1353
   48POPC   C3B  888   7.475   2.383   7.052 -0.0602 -0.1386  0.3872
   48POPC   C4B  889   7.551   2.743   6.889 -0.0477  0.1166  0.1229
   49POPC   NC3  890   0.577   2.768   7.913 -0.0038 -0.1278  0.2836
   49POPC   PO4  891   0.785   2.402   7.733  0.2514 -0.1257  0.0344
   49POPC   GL1  892   0.677   2.305   7.368  0.1141  0.0201 -0.3081
   49POPC   GL2  893   0.549   2.049   7.310  0.3094  0.1130 -0.3973
   49POPC   C1A  894   0.809   2.509   7.021  0.0152 -0.1586  0.1888
   49POPC   D2A  895   0.975   2.680   6.644  0.0632  0.1014  0.0530
   49POPC   C3A  896   0.873   3.077   6.273  0.0183 -0.0915  0.2672
   49POPC   C4A  897   0.886   3.444   6.113  0.0611 -0.1090  0.2050
   49POPC   C1B  898   0.288   2.115   6.950 -0.1002 -0.1927 -0.2568
   49POPC   C2B  899   0.366   1.802   6.593  0.1167  0.2593 -0.2579
   49POPC   C3B  900   0.700   1.639   6.272 -0.4362  0.1771 -0.0637
   49POPC   C4B  901   0.597   1.440   5.869 -0.1076 -0.5823 -0.1131
   50POPC   NC3  902   4.052   7.795   7.715 -0.3815  0.1051 -0.1189
   50POPC   PO4  903   3.951   7.410   7.599 -0.2009 -0.2064  0.0983
   50POPC   GL1  904   3.970   7.615   7.199 -0.0143 -0.0377 -0.4300
   50POPC   GL2  905   4.298   7.540   7.038 -0.1935  0.0669  0.0238
   50POPC   C1A  906   3.837   7.711   6.818 -0.2991 -0.0211 -0.2388
   50POPC   D2A  907   3.427   7.748   6.651 -0.0443 -0.3187  0.4394
   50POPC   C3A  908   3.553   7.832   6.187  0.0824  0.1020  0.1893
   50POPC   C4A  909   3.721   7.567   5.948  0.0171  0.1703  0.2169
   50POPC   C1B  910   4.265   7.587   6.622  0.1111  0.1850  0.1818
   50POPC   C2B  911   4.170   7.683   6.231 -0.0688  0.0156  0.1883
   50POPC   C3B  912   4.053   7.995   5.921  0.2243  0.2584 -0.0482
   50POPC   C4B  913   3.766   8.096   5.637 -0.1146  0.2930 -0.0034
   51POPC   NC3  914   2.227   9.577   7.799 -0.5253  0.2400  0.1244
   51POPC   PO4  915   2.639   9.535   7.620 -0.1680 -0.3743 -0.2758
   51POPC   GL1  916   2.483   9.281   7.256 -0.1091 -0.0542  0.2324
   51POPC   GL2  917   2.147   9.125   7.330 -0.1778  0.2012 -0.2706
   51POPC   C1A  918   2.555   8.916   6.944 -0.0335 -0.2568 -0.2865
   51POPC   D2A  919   2.466   8.846   6.546 -0.0569  0.3530  0.3984
   51POPC   C3A  920   2.608   9.008   6.175 -0.0329  0.0780 -0.1080
   51POPC   C4A  921   2.356   9.039   5.854 -0.2065  0.0325  0.0423
   51POPC   C1B  922   2.023   9.051   6.874 -0.0796  0.3743 -0.0783
   51POPC   C2B  923   1.945   9.040   6.477 -0.0126  0.3355 -0.2624
   51POPC   C3B  924   1.867   9.070   6.068 -0.1427  0.3205  0.2283
   51POPC   C4B  925   1.702   8.656   5.940 -0.1770  0.0183 -0.0519
   52POPC   NC3  926   8.013   1.147   8.059 -0.2245 -0.2019 -0.3541
   52POPC   PO4  927   7.769   1.312   8.432  0.2550  0.1197  0.2161
   52POPC   GL1  928   7.432   1.191   8.054 -0.0796  0.1573  0.0779
   52POPC   GL2  929   7.387   1.008   7.852 -0.0474  0.0835 -0.0779
   52POPC   C1A  930   7.528   1.381   7.614 -0.0689 -0.0906  0.0948
   52POPC   D2A  931   7.767   1.471   7.212 -0.3307  0.0854 -0.4264
   52POPC   C3A  932   7.694   1.926   7.110  0.0413  0.0890 -0.1254
   52POPC   C4A  933   7.364   1.995   6.772  0.0986  0.0725  0.1182
   52POPC   C1B  934   7.377   0.920   7.458  0.2796  0.1280  0.6250
   52POPC   C2B  935   7.184   0.882   7.025 -0.1083 -0.2868  0.0073
   52POPC   C3B  936   7.321   0.727   6.595 -0.1726 -0.0344  0.3926
   52POPC   C4B  937   7.096   0.470   6.241  0.1242  0.4419 -0.3168
   53POPC   NC3  938   1.136   9.941   7.367 -0.3382  0.0566  0.1759
   53POPC   PO4  939   1.307   9.636   7.611 -0.1263 -0.1982  0.0204
   53POPC   GL1  940   1.163   9.457   7.098 -0.1871  0.1705 -0.1043
   53POPC   GL2  941   0.862   9.347   6.998  0.0295 -0.0623  0.0068
   53POPC   C1A  942   1.269   9.738   6.660  0.1503 -0.0120 -0.3544
   53POPC   D2A  943   1.126   9.668   6.187 -0.3253 -0.1832 -0.0693
   53POPC   C3A  944   0.873   9.783   5.987  0.3315  0.0507  0.5965
   53POPC   C4A  945   0.666   9.637   5.532 -0.2250 -0.1995  0.0112
   53POPC   C1B  946   0.878   9.314   6.634  0.1398 -0.0696 -0.0898
   53POPC   C2B  947   0.967   9.142   6.317 -0.0167  0.0362  0.2432
   53POPC   C3B  948   0.948   9.047   5.890 -0.0913 -0.1507  0.0021
   53POPC   C4B  949   0.903   9.163   5.497 -0.0489  0.4581 -0.0349
   54POPC   NC3  950   8.370   8.590   7.701 -0.0427 -0.3235  0.1745
   54POPC   PO4  951   8.235   8.212   7.459  0.1778  0.1193  0.0066
   54POPC   GL1  952   8.139   8.066   6.955  0.1415  0.2385 -0.2938
   54POPC   GL2  953   7.926   8.267   6.834  0.1594 -0.1408 -0.3484
   54POPC   C1A  954   8.163   7.846   6.579  0.1627  0.1844 -0.1487
   54POPC   D2A  955   8.221   7.865   6.129  0.0659  0.0519  0.1068
   54POPC   C3A  956   8.569   7.641   6.065  0.2012  0.0996  0.2688
   54POPC   C4A  957   9.010   7.662   6.176  0.2339  0.3672  0.2607
   54POPC   C1B  958   7.905   8.284   6.412  0.2041 -0.0769  0.0003
   54POPC   C2B  959   8.051   8.295   5.912 -0.5014  0.1973 -0.0779
   54POPC   C3B  960   8.236   8.387   5.581  0.2732  0.1349 -0.2670
   54POPC   C4B  961   7.975   8.533   5.128 -0.0269  0.0461 -0.0950
   55POPC   NC3  962   2.677   7.773   7.308  0.1768  0.0082 -0.1119
   55POPC   PO4  963   2.667   8.150   7.704 -0.0270  0.1580  0.1656
   55POPC   GL1  964   2.556   8.272   7.289 -0.1344  0.1757 -0.2554
   55POPC   GL2  965   2.412   8.612   7.445 -0.1351  0.0229 -0.1575
   55POPC   C1A  966   2.403   8.463   6.938 -0.0849 -0.0008 -0.1003
   55POPC   D2A  967   2.019   8.388   6.653 -0.0270 -0.1572 -0.0673
   55POPC   C3A  968   2.142   8.572   6.270 -0.0698  0.0467 -0.1073
   55POPC   C4A  969   2.370   8.548   5.823  0.3595  0.3065 -0.4003
   55POPC   C1B  970   2.800   8.766   7.304 -0.0414 -0.1140 -0.2020
   55POPC   C2B  971   3.088   9.004   7.146  0.1082 -0.0080  0.0997
   55POPC   C3B  972   3.459   8.847   6.806  0.0617 -0.0736 -0.0651
   55POPC   C4B  973   3.938   8.669   6.885 -0.2629 -0.1117 -0.1888
   56POPC   NC3  974   5.611   5.377   7.498 -0.0898 -0.2804 -0.3146
   56POPC   PO4  975   5.625   5.855   7.545 -0.0296  0.0962  0.0210
   56POPC   GL1  976   5.356   5.828   7.300 -0.2006 -0.2036  0.0285
   56POPC   GL2  977   5.226   5.598   7.302  0.1087  0.1358  0.3799
   56POPC   C1A  978   5.284   6.118   6.851  0.1048  0.2162 -0.1789
   56POPC   D2A  979   5.619   6.130   6.551 -0.0581  0.3168 -0.0080
   56POPC   C3A  980   5.821   6.575   6.587  0.0669  0.1581  0.1585
   56POPC   C4A  981   5.986   6.812   6.850  0.2495 -0.0326 -0.3042
   56POPC   C1B  982   5.259   5.397   6.931 -0.2397 -0.0337  0.1719
   56POPC   C2B  983   5.222   5.100   6.645 -0.0725  0.4133 -0.0726
   56POPC   C3B  984   5.387   4.817   6.308  0.1639 -0.0873 -0.1016
   56POPC   C4B  985   5.118   4.404   6.291  0.3178  0.1235 -0.0197
   57POPC   NC3  986   1.050   7.702   7.673  0.1285  0.0501  0.1575
   57POPC   PO4  987   0.934   7.412   7.341  0.0834 -0.3594  0.0743
   57POPC   GL1  988   1.040   7.395   6.866 -0.1213  0.1339 -0.2395
   57POPC   GL2  989   1.188   7.184   6.936 -0.0248  0.0626  0.0829
   57POPC   C1A  990   1.289   7.472   6.523 -0.1828 -0.1569 -0.0323
   57POPC   D2A  991   1.289   7.608   6.151  0.0198 -0.3128 -0.1069
   57POPC   C3A  992   1.559   7.887   6.000 -0.0520 -0.2299  0.0374
   57POPC   C4A  993   1.859   7.693   5.646 -0.2701  0.0555 -0.1244
   57POPC   C1B  994   1.062   7.051   6.563  0.1610  0.2933 -0.1820
   57POPC   C2B  995   1.289   7.056   6.121 -0.0004 -0.0905  0.0606
   57POPC   C3B  996   1.377   7.047   5.654  0.0239 -0.1055  0.1764
   57POPC   C4B  997   1.685   7.041   5.476 -0.0825 -0.1051 -0.1590
   58POPC   NC3  998   2.452   1.519   7.513 -0.0298  0.1336  0.0947
   58POPC   PO4  999   2.623   1.955   7.359 -0.0136  0.1320  0.1563
   58POPC   GL1 1000   2.968   2.275   7.072  0.3428  0.1821 -0.2835
   58POPC   GL2 1001   2.992   2.687   7.131  0.1162 -0.1379 -0.2234
   58POPC   C1A 1002   3.279   2.219   6.658 -0.1596 -0.2998 -0.0260
   58POPC   D2A 1003   3.340   2.412   6.372 -0.0149 -0.1997 -0.0400
   58POPC   C3A 1004   3.669   2.254   6.111  0.1098 -0.1290 -0.0172
   58POPC   C4A 1005   4.086   2.263   6.004 -0.0271 -0.2010  0.0372
   58POPC   C1B 1006   2.910   2.654   6.654 -0.4990  0.3768 -0.3004
   58POPC   C2B 1007   2.817   2.508   6.299  0.0432  0.0726 -0.0590
   58POPC   C3B 1008   2.655   2.800   6.026  0.5360  0.0238 -0.0799
   58POPC   C4B 1009   2.297   2.800   5.798 -0.2297 -0.0280  0.0994
   59POPC   NC3 1010   8.923   3.521   8.129 -0.0898 -0.1313 -0.3709
   59POPC   PO4 1011   9.199   3.557   7.849  0.3943  0.1712 -0.1340
   59POPC   GL1 1012   9.190   3.436   7.411  0.0042 -0.0411  0.3932
   59POPC   GL2 1013   9.448   3.415   7.291  0.4152 -0.2952 -0.2332
   59POPC   C1A 1014   9.003   3.370   7.030 -0.0288  0.2609  0.3289
   59POPC   D2A 1015   8.757   3.117   6.674  0.0036  0.0014  0.0899
   59POPC   C3A 1016   8.532   3.198   6.292  0.0982 -0.1221 -0.2214
   59POPC   C4A 1017   8.215   3.051   5.965  0.3237  0.1387  0.1242
   59POPC   C1B 1018   9.285   3.719   6.915  0.1499  0.2244 -0.0976
   59POPC   C2B 1019   9.351   3.968   6.617  0.0550 -0.0268 -0.1590
   59POPC   C3B 1020   9.347   3.910   6.163 -0.0260  0.1272 -0.0270
   59POPC   C4B 1021   9.426   3.493   5.879  0.0756  0.0063 -0.0746
   60POPC   NC3 1022   2.131   0.142   7.578  0.0721  0.1077 -0.2632
   60POPC   PO4 1023   1.804  -0.218   7.935 -0.0610 -0.4639  0.2851
   60POPC   GL1 1024   1.768  -0.227   7.468  0.0113  0.1481 -0.1000
   60POPC   GL2 1025   1.590  -0.392   7.244  0.0987  0.1317 -0.0967
   60POPC   C1A 1026   1.811  -0.067   6.957  0.2180  0.0731 -0.0190
   60POPC   D2A 1027   1.950  -0.215   6.501  0.1057  0.2071  0.1900
   60POPC   C3A 1028   1.555  -0.485   6.222 -0.1036  0.1583  0.0227
   60POPC   C4A 1029   1.320  -0.621   5.811 -0.2329  0.1987  0.0904
   60POPC   C1B 1030   1.475  -0.471   6.783 -0.3150 -0.1959  0.1429
   60POPC   C2B 1031   1.443  -0.078   6.491  0.4432 -0.0338  0.0331
   60POPC   C3B 1032   1.391   0.002   6.103  0.3143 -0.2243  0.0961
   60POPC   C4B 1033   1.199  -0.140   5.671  0.1801  0.1201 -0.0644
   61POPC   NC3 1034   0.819   5.926   8.094  0.0615  0.0277  0.0128
   61POPC   PO4 1035   0.493   6.134   7.728 -0.0100  0.0533 -0.0932
   61POPC   GL1 1036   0.534   5.886   7.316 -0.0835  0.3526 -0.2566
   61POPC   GL2 1037   0.478   6.105   7.119  0.0854 -0.0980  0.0077
   61POPC   C1A 1038   0.679   5.721   6.925  0.3520  0.1450  0.1183
   61POPC   D2A 1039   0.613   5.629   6.532 -0.0690 -0.0210 -0.1985
   61POPC   C3A 1040   0.301   5.891   6.287 -0.1025  0.1161 -0.0491
   61POPC   C4A 1041   0.097   5.919   5.960  0.0973  0.3006  0.0547
   61POPC   C1B 1042   0.542   6.141   6.641 -0.3961 -0.2686 -0.2906
   61POPC   C2B 1043   0.805   6.015   6.327  0.3919 -0.2576 -0.0328
   61POPC   C3B 1044   0.628   6.111   5.930  0.4087  0.0991 -0.2047
   61POPC   C4B 1045   0.490   5.905   5.497  0.1826  0.2272 -0.0903
   62POPC   NC3 1046   5.026   8.785   8.034  0.0808 -0.1281  0.2338
   62POPC   PO4 1047   5.124   9.168   7.804 -0.0642  0.0477  0.3168
   62POPC   GL1 1048   5.022   8.849   7.405 -0.3743 -0.1049 -0.0319
   62POPC   GL2 1049   4.927   9.045   7.034 -0.0707 -0.0904 -0.0437
   62POPC   C1A 1050   4.830   8.607   7.128 -0.2890  0.1224 -0.0715
   62POPC   D2A 1051   4.612   8.525   6.702  0.1339  0.1878  0.0874
   62POPC   C3A 1052   4.261   8.659   6.429  0.1117  0.2227  0.1724
   62POPC   C4A 1053   3.809   8.767   6.420 -0.0428 -0.2052 -0.2940
   62POPC   C1B 1054   4.998   8.983   6.630  0.1219  0.0858  0.1446
   62POPC   C2B 1055   5.167   8.898   6.144 -0.1136  0.1061 -0.1382
   62POPC   C3B 1056   5.129   8.726   5.761 -0.4935 -0.0157 -0.1790
   62POPC   C4B 1057   4.936   8.969   5.456  0.1231 -0.1430 -0.1663
   63POPC   NC3 1058   2.893   0.720   7.853 -0.0374  0.0597  0.0437
   63POPC   PO4 1059   2.546   0.502   7.858 -0.3719  0.0040 -0.2461
   63POPC   GL1 1060   2.656   0.415   7.447  0.0339 -0.0020  0.0838
   63POPC   GL2 1061   2.854   0.634   7.360 -0.1504  0.0253  0.1032
   63POPC   C1A 1062   2.778   0.267   6.868 -0.4657  0.2940 -0.2047
   63POPC   D2A 1063   2.605   0.538   6.490  0.3411 -0.0832  0.0935
   63POPC   C3A 1064   2.646   0.378   6.151  0.0161 -0.3389 -0.0500
   63POPC   C4A 1065   2.537  -0.030   6.071  0.2116 -0.0871 -0.0399
   63POPC   C1B 1066   2.732   0.807   6.937 -0.1468 -0.0293  0.2388
   63POPC   C2B 1067   2.671   0.997   6.587  0.0241  0.2053  0.0812
   63POPC   C3B 1068   2.673   0.929   6.212 -0.2335 -0.2981  0.3487
   63POPC   C4B 1069   2.977   1.037   5.833 -0.6167 -0.2699 -0.0204
   64POPC   NC3 1070  10.309   5.228   8.473 -0.1009  0.1277  0.1462
   64POPC   PO4 1071  10.093   5.216   8.009 -0.0358  0.1389 -0.0477
   64POPC   GL1 1072  10.128   4.993   7.566 -0.0179  0.1207 -0.0531
   64POPC   GL2 1073   9.896   4.840   7.531  0.3652 -0.2843 -0.0017
   64POPC   C1A 1074  10.296   4.859   7.149  0.3230  0.3427 -0.2126
   64POPC   D2A 1075  10.181   4.569   6.765  0.2126 -0.2510 -0.0220
   64POPC   C3A 1076   9.983   4.118   6.600  0.0401  0.0174 -0.2346
   64POPC   C4A 1077   9.805   3.750   6.732  0.2852  0.0475 -0.3423
   64POPC   C1B 1078   9.768   4.689   7.230  0.1740  0.0255 -0.0538
   64POPC   C2B 1079   9.395   4.830   6.962  0.1492  0.1478  0.1227
   64POPC   C3B 1080   9.406   4.750   6.492  0.3030  0.1024  0.0443
   64POPC   C4B 1081   9.193   4.760   6.179 -0.0685 -0.1514 -0.0701
   65POPC   NC3 1082   1.165   0.058   8.010  0.1618 -0.1463 -0.1399
   65POPC   PO4 1083   1.214  -0.275   7.670 -0.0174 -0.2437  0.0156
   65POPC   GL1 1084   1.069   0.012   7.427 -0.1748 -0.1497  0.0112
   65POPC   GL2 1085   1.001   0.346   7.532 -0.1846 -0.0554 -0.3319
   65POPC   C1A 1086   1.284  -0.071   7.020 -0.2813  0.3156 -0.2605
   65POPC   D2A 1087   0.982  -0.345   6.748  0.0784 -0.1588  0.0702
   65POPC   C3A 1088   1.036  -0.372   6.293 -0.0302  0.0470  0.1471
   65POPC   C4A 1089   0.841  -0.322   5.948  0.2843 -0.0289 -0.3996
   65POPC   C1B 1090   0.906   0.404   7.079  0.0284  0.1909 -0.0995
   65POPC   C2B 1091   1.061   0.152   6.663  0.1581  0.0960  0.0452
   65POPC   C3B 1092   0.752   0.013   6.356  0.0538  0.0939  0.0964
   65POPC   C4B 1093   0.437  -0.052   6.088 -0.3266  0.2405  0.1656
   66POPC   NC3 1094   9.914   3.965   8.097 -0.0095  0.0821  0.2672
   66POPC   PO4 1095   9.609   3.752   8.057 -0.1962  0.1977 -0.1654
   66POPC   GL1 1096   9.495   3.865   7.584  0.3179  0.0492  0.0676
   66POPC   GL2 1097   9.374   4.066   7.723 -0.0817  0.0261  0.2264
   66POPC   C1A 1098   9.770   3.876   7.210 -0.1779  0.1478  0.5111
   66POPC   D2A 1099  10.048   4.170   7.109 -0.0391 -0.0278 -0.1604
   66POPC   C3A 1100  10.410   4.057   6.824 -0.3103 -0.0056  0.0079
   66POPC   C4A 1101  10.567   3.977   6.467  0.0311 -0.1722 -0.1723
   66POPC   C1B 1102   9.089   3.962   7.381  0.1799  0.0941  0.3811
   66POPC   C2B 1103   8.916   4.073   6.955 -0.1246  0.1442 -0.2873
   66POPC   C3B 1104   9.001   4.393   6.694  0.2836 -0.2410 -0.2523
   66POPC   C4B 1105   9.128   4.322   6.304 -0.0277 -0.1883 -0.1314
   67POPC   NC3 1106   5.043  10.439   8.389 -0.1180 -0.1850 -0.0993
   67POPC   PO4 1107   4.733  10.419   8.090  0.1056  0.1566 -0.3118
   67POPC   GL1 1108   4.759  10.682   7.777 -0.0697 -0.1592  0.0213
   67POPC   GL2 1109   4.606  11.085   7.690  0.0507  0.3270 -0.0956
   67POPC   C1A 1110   4.935  10.834   7.383  0.0065 -0.3763  0.0472
   67POPC   D2A 1111   5.132  10.682   6.945  0.0715  0.4704  0.4555
   67POPC   C3A 1112   5.016  10.594   6.501 -0.2486  0.2184  0.1456
   67POPC   C4A 1113   5.216  10.605   6.087  0.0264  0.2053 -0.3346
   67POPC   C1B 1114   4.761  11.429   7.427  0.1657  0.2739 -0.2493
   67POPC   C2B 1115   4.644  11.625   7.049  0.2274 -0.0432  0.2436
   67POPC   C3B 1116   4.623  11.405   6.664 -0.1977 -0.1880  0.0303
   67POPC   C4B 1117   4.992  11.170   6.401 -0.1311 -0.1880  0.0534
   68POPC   NC3 1118   5.512   8.685   7.561  0.3303  0.0253 -0.0835
   68POPC   PO4 1119   5.440   8.164   7.518  0.0107  0.2554  0.0142
   68POPC   GL1 1120   5.293   8.384   7.161  0.2431  0.2797 -0.1042
   68POPC   GL2 1121   5.478   8.766   7.075  0.0767  0.0806 -0.1039
   68POPC   C1A 1122   5.158   8.545   6.777  0.0632 -0.1952 -0.1345
   68POPC   D2A 1123   5.288   8.437   6.426 -0.1379 -0.2631  0.2737
   68POPC   C3A 1124   5.571   8.596   6.018 -0.2797  0.4541 -0.1545
   68POPC   C4A 1125   5.924   9.011   6.102 -0.3585 -0.0231 -0.0011
   68POPC   C1B 1126   5.455   9.113   6.802 -0.0609 -0.0499 -0.0132
   68POPC   C2B 1127   5.251   9.461   6.975  0.2795  0.1669  0.3162
   68POPC   C3B 1128   5.081   9.728   6.758 -0.2047  0.0129 -0.0568
   68POPC   C4B 1129   4.881  10.190   6.776 -0.1042  0.3347  0.0794
   69POPC   NC3 1130   6.191   1.400   9.046  0.1232 -0.0278  0.2634
   69POPC   PO4 1131   6.174   1.074   8.829  0.2401  0.3605  0.1939
   69POPC   GL1 1132   6.131   1.275   8.513  0.0862 -0.0251  0.0680
   69POPC   GL2 1133   5.809   1.422   8.676 -0.1033 -0.0981  0.0152
   69POPC   C1A 1134   6.103   1.574   8.158  0.1556  0.0857 -0.1164
   69POPC   D2A 1135   5.980   1.993   7.902 -0.2802  0.0294  0.1519
   69POPC   C3A 1136   6.363   2.285   7.784  0.0331 -0.0046 -0.4609
   69POPC   C4A 1137   6.576   2.479   7.488  0.1792 -0.2048 -0.0280
   69POPC   C1B 1138   5.882   1.869   8.608 -0.0919  0.0591 -0.2027
   69POPC   C2B 1139   6.241   2.097   8.341 -0.0864 -0.0608 -0.1988
   69POPC   C3B 1140   6.668   2.236   8.177 -0.2603  0.2441 -0.0779
   69POPC   C4B 1141   6.877   2.297   7.769  0.1541 -0.0509 -0.1757
   70POPC   NC3 1142   6.640   7.168   7.636  0.1787  0.1830 -0.0716
   70POPC   PO4 1143   6.812   7.604   7.456 -0.2530 -0.1359 -0.0479
   70POPC   GL1 1144   7.098   7.701   7.072  0.0677 -0.0262 -0.1300
   70POPC   GL2 1145   6.976   7.954   7.054  0.1576  0.0104 -0.1378
   70POPC   C1A 1146   7.191   7.586   6.690  0.0498  0.0673  0.3682
   70POPC   D2A 1147   7.054   7.523   6.296  0.1234 -0.0266 -0.2699
   70POPC   C3A 1148   7.220   7.729   5.889 -0.0924 -0.0406 -0.1937
   70POPC   C4A 1149   7.333   7.826   5.425 -0.0934  0.3651  0.3044
   70POPC   C1B 1150   6.755   7.970   6.717 -0.0106  0.0967 -0.0108
   70POPC   C2B 1151   6.400   7.893   6.527  0.1194 -0.2442 -0.3298
   70POPC   C3B 1152   6.069   7.882   6.323  0.0434  0.0550  0.0279
   70POPC   C4B 1153   5.856   7.675   6.106  0.0258 -0.4680 -0.4105
   71POPC   NC3 1154   3.029   5.022   7.738  0.1395 -0.1849 -0.3083
   71POPC   PO4 1155   3.461   4.779   7.744  0.0468 -0.1779  0.0703
   71POPC   GL1 1156   3.347   4.774   7.329 -0.2468 -0.1798 -0.1573
   71POPC   GL2 1157   3.214   4.410   7.465  0.1390 -0.3143  0.1763
   71POPC   C1A 1158   3.289   4.661   6.988  0.2265  0.2405 -0.1131
   71POPC   D2A 1159   2.977   4.670   6.670 -0.0609 -0.1464 -0.3594
   71POPC   C3A 1160   3.341   4.652   6.356 -0.0249  0.1688 -0.1260
   71POPC   C4A 1161   3.510   4.277   6.089  0.0503 -0.1437 -0.1284
   71POPC   C1B 1162   3.488   4.214   7.099  0.3320  0.4271 -0.0077
   71POPC   C2B 1163   3.427   4.223   6.719  0.0004 -0.0896  0.2720
   71POPC   C3B 1164   3.513   3.900   6.469 -0.3753  0.0415 -0.3904
   71POPC   C4B 1165   3.309   3.492   6.337 -0.1299  0.0529  0.0919
   72POPC   NC3 1166  10.203   8.227   7.583 -0.1562 -0.1396  0.1232
   72POPC   PO4 1167  10.132   7.798   7.681 -0.0103 -0.3701 -0.4345
   72POPC   GL1 1168  10.412   7.762   7.457 -0.0118  0.1235  0.3662
   72POPC   GL2 1169  10.254   7.829   7.195  0.3948 -0.1851 -0.1885
   72POPC   C1A 1170  10.746   7.850   7.073 -0.0355  0.1066  0.0026
   72POPC   D2A 1171  10.612   7.979   6.616 -0.1191  0.1289 -0.2567
   72POPC   C3A 1172  10.525   7.685   6.267  0.0917  0.1502 -0.1315
   72POPC   C4A 1173  10.207   7.628   5.897 -0.0474  0.0543 -0.1632
   72POPC   C1B 1174  10.198   7.671   6.680  0.1446  0.3706 -0.0405
   72POPC   C2B 1175  10.073   7.309   6.384  0.1015 -0.0784 -0.2360
   72POPC   C3B 1176   9.943   7.059   6.052 -0.2925 -0.0057  0.0761
   72POPC   C4B 1177  10.096   6.931   5.754  0.3036  0.0465  0.2897
   73POPC   NC3 1178   5.713   4.312   8.341 -0.2199 -0.2616  0.0007
   73POPC   PO4 1179   5.962   4.806   8.243  0.0878 -0.2516  0.1296
   73POPC   GL1 1180   5.816   4.526   7.847 -0.0863  0.1080  0.0369
   73POPC   GL2 1181   5.597   4.329   7.829  0.2126  0.0964 -0.1135
   73POPC   C1A 1182   6.046   4.393   7.530 -0.1472 -0.1191  0.0055
   73POPC   D2A 1183   6.353   4.656   7.308 -0.0669  0.0774  0.0605
   73POPC   C3A 1184   6.286   4.919   6.913  0.1825  0.0931  0.0729
   73POPC   C4A 1185   6.238   5.153   6.499 -0.0413 -0.0742  0.0528
   73POPC   C1B 1186   5.787   4.005   7.643  0.2247  0.2134 -0.0841
   73POPC   C2B 1187   5.875   3.981   7.120  0.1226 -0.1394 -0.3340
   73POPC   C3B 1188   5.975   3.907   6.759  0.0219  0.0249 -0.1206
   73POPC   C4B 1189   6.019   4.047   6.382  0.1136 -0.2703  0.0240
   74POPC   NC3 1190   8.480   2.292   7.839  0.0386  0.0842  0.0782
   74POPC   PO4 1191   8.751   2.710   7.813  0.2620  0.2090  0.4101
   74POPC   GL1 1192   8.713   2.789   7.323  0.0791 -0.1023  0.2926
   74POPC   GL2 1193   9.015   2.920   7.371  0.2469  0.1590 -0.3196
   74POPC   C1A 1194   8.562   2.745   6.925  0.2058  0.0013 -0.3091
   74POPC   D2A 1195   8.381   2.373   6.752  0.4204  0.1224  0.1846
   74POPC   C3A 1196   7.942   2.260   6.722 -0.2056  0.1657  0.0574
   74POPC   C4A 1197   7.813   1.854   6.590  0.1896  0.1650  0.1644
   74POPC   C1B 1198   9.148   2.666   7.040  0.0396 -0.0021  0.2200
   74POPC   C2B 1199   9.304   2.757   6.696  0.0092  0.4283 -0.0713
   74POPC   C3B 1200   9.405   2.853   6.213  0.1217  0.0642  0.2914
   74POPC   C4B 1201   9.602   2.976   5.772  0.1139 -0.3385  0.0558
   75POPC   NC3 1202   9.984   0.021   7.865 -0.1473 -0.0704 -0.0520
   75POPC   PO4 1203  10.415  -0.271   7.937 -0.2069  0.1463  0.1437
   75POPC   GL1 1204  10.508  -0.261   7.458 -0.2190  0.3342 -0.1263
   75POPC   GL2 1205  10.298  -0.395   7.233  0.2316 -0.1833 -0.0656
   75POPC   C1A 1206  10.769  -0.084   7.077  0.3014  0.0299 -0.0030
   75POPC   D2A 1207  10.803  -0.063   6.606  0.0555  0.2010  0.1885
   75POPC   C3A 1208  10.573   0.279   6.427  0.0778 -0.3002 -0.1117
   75POPC   C4A 1209  10.639   0.468   5.999 -0.1811 -0.0694  0.1435
   75POPC   C1B 1210  10.274  -0.098   6.860  0.0847 -0.0730 -0.4962
   75POPC   C2B 1211  10.327  -0.110   6.400 -0.0997 -0.0022 -0.1137
   75POPC   C3B 1212  10.324  -0.132   5.922 -0.1071 -0.2559  0.0336
   75POPC   C4B 1213  10.399  -0.524   5.571  0.1279  0.3100  0.0160
   76POPC   NC3 1214   0.829   6.351   7.423 -0.1175  0.2156 -0.3078
   76POPC   PO4 1215   1.055   6.071   7.701 -0.3370  0.0462  0.3270
   76POPC   GL1 1216   1.042   5.805   7.212 -0.1385 -0.3530  0.0938
   76POPC   GL2 1217   0.975   6.184   6.943 -0.0396  0.1529 -0.2547
   76POPC   C1A 1218   1.281   5.796   6.821 -0.0653 -0.1455 -0.1881
   76POPC   D2A 1219   1.390   6.006   6.428  0.2149 -0.1078 -0.1350
   76POPC   C3A 1220   1.184   6.242   6.086  0.3765  0.1148 -0.0431
   76POPC   C4A 1221   1.250   6.623   5.896 -0.0213  0.0962  0.0859
   76POPC   C1B 1222   1.069   6.556   6.807 -0.0289  0.0091  0.3234
   76POPC   C2B 1223   0.943   6.586   6.363  0.1875  0.2622  0.0293
   76POPC   C3B 1224   0.594   6.549   6.170 -0.0888 -0.0833  0.2541
   76POPC   C4B 1225   0.243   6.414   6.053  0.0907  0.2147 -0.0458
   77POPC   NC3 1226   7.685   9.127   7.626 -0.0860 -0.0624 -0.2880
   77POPC   PO4 1227   7.498   9.061   7.253 -0.1682  0.0591 -0.4729
   77POPC   GL1 1228   7.546   9.125   6.873 -0.2781 -0.0804  0.0595
   77POPC   GL2 1229   7.863   9.166   6.951 -0.0019  0.1284  0.3244
   77POPC   C1A 1230   7.615   9.019   6.437 -0.0987  0.0599  0.4331
   77POPC   D2A 1231   7.577   9.099   5.974 -0.0110 -0.2314 -0.0677
   77POPC   C3A 1232   7.343   9.454   5.813  0.2299 -0.1127 -0.0043
   77POPC   C4A 1233   6.937   9.688   5.810 -0.0748 -0.0124  0.1335
   77POPC   C1B 1234   8.087   9.222   6.649 -0.1680  0.0819  0.0057
   77POPC   C2B 1235   8.090   9.245   6.143 -0.0899  0.0599 -0.0360
   77POPC   C3B 1236   7.999   8.881   5.815 -0.0462 -0.1239  0.1253
   77POPC   C4B 1237   7.783   8.619   5.594  0.1332 -0.4882 -0.0553
   78POPC   NC3 1238   3.964  10.002   7.982 -0.0127 -0.0781  0.2756
   78POPC   PO4 1239   3.781   9.605   7.807 -0.1292 -0.1588 -0.0015
   78POPC   GL1 1240   4.128   9.881   7.530 -0.2160  0.1991  0.0372
   78POPC   GL2 1241   4.093  10.173   7.368 -0.5376  0.0805  0.0429
   78POPC   C1A 1242   4.553   9.928   7.276  0.0466 -0.1992  0.0802
   78POPC   D2A 1243   4.986   9.897   7.278 -0.0132  0.1141 -0.2345
   78POPC   C3A 1244   5.099  10.296   7.334 -0.0636  0.2654  0.1170
   78POPC   C4A 1245   5.263  10.588   7.704  0.2413  0.0043 -0.0444
   78POPC   C1B 1246   4.184  10.234   7.007  0.0166  0.2541  0.1709
   78POPC   C2B 1247   4.425   9.977   6.715  0.1250  0.1216 -0.0137
   78POPC   C3B 1248   4.678   9.868   6.406  0.0801 -0.2843  0.2582
   78POPC   C4B 1249   4.683   9.767   6.006  0.3122  0.1079  0.3420
   79POPC   NC3 1250   1.055   9.193   7.565 -0.0181  0.0206 -0.1450
   79POPC   PO4 1251   0.638   9.107   7.673 -0.0862  0.0850 -0.0699
   79POPC   GL1 1252   0.419   9.158   7.243  0.0096 -0.2643  0.2467
   79POPC   GL2 1253   0.288   8.916   7.066  0.3950  0.2292 -0.0954
   79POPC   C1A 1254   0.244   9.336   6.858  0.1968 -0.2492  0.2263
   79POPC   D2A 1255   0.302   9.782   6.667 -0.1618  0.2708  0.2346
   79POPC   C3A 1256   0.484   9.683   6.347 -0.0634 -0.0885  0.4792
   79POPC   C4A 1257   0.580   9.421   6.024  0.2605  0.2662 -0.2508
   79POPC   C1B 1258   0.143   8.583   6.860 -0.2153 -0.2245  0.2605
   79POPC   C2B 1259  -0.059   8.722   6.515  0.1792  0.1184  0.0718
   79POPC   C3B 1260  -0.337   8.918   6.252  0.0276 -0.0888  0.1229
   79POPC   C4B 1261  -0.375   9.018   5.732  0.0861 -0.0658 -0.0286
   80POPC   NC3 1262   0.488   4.888   7.334 -0.0829 -0.1819 -0.2880
   80POPC   PO4 1263   0.248   4.964   7.668 -0.1251  0.0584 -0.1618
   80POPC   GL1 1264   0.042   5.135   7.257  0.0730 -0.0777 -0.0056
   80POPC   GL2 1265   0.183   4.906   6.984  0.2344  0.2019  0.1787
   80POPC   C1A 1266  -0.174   5.295   6.909  0.2661  0.1080 -0.1535
   80POPC   D2A 1267  -0.188   5.280   6.406 -0.0930  0.2201 -0.0659
   80POPC   C3A 1268   0.244   5.367   6.215  0.0824  0.0036  0.0853
   80POPC   C4A 1269   0.557   5.583   6.010 -0.2773 -0.0077  0.2157
   80POPC   C1B 1270  -0.047   4.884   6.603  0.2447 -0.0167 -0.1371
   80POPC   C2B 1271  -0.162   4.508   6.378  0.0834  0.0565  0.1514
   80POPC   C3B 1272  -0.406   4.342   6.102  0.0405 -0.2150 -0.2764
   80POPC   C4B 1273  -0.615   4.624   5.866 -0.4352  0.0844 -0.2328
   81POPC   NC3 1274   1.468   6.974   7.504 -0.3715 -0.1295  0.0080
   81POPC   PO4 1275   1.096   6.928   7.370  0.1731 -0.1114 -0.1173
   81POPC   GL1 1276   0.729   6.935   7.082 -0.3048 -0.1084 -0.3177
   81POPC   GL2 1277   0.670   6.544   7.050 -0.2632  0.0331  0.3520
   81POPC   C1A 1278   0.578   7.200   6.729 -0.1170  0.2690 -0.0538
   81POPC   D2A 1279   0.293   7.531   6.678 -0.0354 -0.0699 -0.2205
   81POPC   C3A 1280   0.355   7.891   6.317 -0.0732  0.1997  0.1252
   81POPC   C4A 1281   0.610   7.935   5.931  0.0049 -0.0021  0.0886
   81POPC   C1B 1282   0.533   6.709   6.663  0.1086  0.1289 -0.0588
   81POPC   C2B 1283   0.261   6.833   6.401 -0.0467 -0.0877  0.2654
   81POPC   C3B 1284   0.283   6.862   5.893  0.0210 -0.1740  0.2653
   81POPC   C4B 1285  -0.044   6.863   5.560 -0.1530  0.0322 -0.1877
   82POPC   NC3 1286   5.012   6.837   7.480  0.1760 -0.0387  0.0519
   82POPC   PO4 1287   4.601   6.615   7.426  0.1164 -0.1163 -0.1007
   82POPC   GL1 1288   4.547   6.457   7.035  0.2210  0.0064  0.0950
   82POPC   GL2 1289   4.505   6.255   6.994 -0.0938 -0.0929  0.1068
   82POPC   C1A 1290   4.478   6.606   6.635 -0.1599 -0.0963  0.1034
   82POPC   D2A 1291   4.355   6.269   6.327  0.1158  0.0909  0.0818
   82POPC   C3A 1292   4.051   6.243   5.896  0.3571 -0.1969 -0.0853
   82POPC   C4A 1293   4.076   6.343   5.461 -0.2331 -0.1177 -0.1231
   82POPC   C1B 1294   4.753   6.195   6.645  0.2549 -0.0778  0.0936
   82POPC   C2B 1295   4.927   6.364   6.309 -0.0732  0.1324  0.2577
   82POPC   C3B 1296   5.009   6.306   5.884 -0.0953  0.2307  0.1705
   82POPC   C4B 1297   5.214   6.107   5.569  0.3554  0.0419 -0.2876
   83POPC   NC3 1298   4.274   0.072   8.205 -0.4324  0.2240 -0.0625
   83POPC   PO4 1299   4.288  -0.473   8.327 -0.3974 -0.1725  0.0937
   83POPC   GL1 1300   4.269  -0.320   7.805 -0.1929 -0.0057 -0.1112
   83POPC   GL2 1301   4.237   0.008   7.703  0.0165 -0.0125 -0.1438
   83POPC   C1A 1302   4.567  -0.163   7.416  0.1385 -0.2567  0.0455
   83POPC   D2A 1303   4.631  -0.048   7.019 -0.1481  0.3619  0.1512
   83POPC   C3A 1304   4.496  -0.198   6.555 -0.1706 -0.2054  0.0900
   83POPC   C4A 1305   4.713  -0.338   6.101  0.2591  0.1209  0.0430
   83POPC   C1B 1306   4.216   0.322   7.373  0.0871  0.2338  0.0199
   83POPC   C2B 1307   4.560   0.466   7.184 -0.1942  0.0938 -0.1393
   83POPC   C3B 1308   5.048   0.536   6.951  0.2192 -0.1925 -0.3165
   83POPC   C4B 1309   5.122   0.914   6.685 -0.0942 -0.0589  0.0483
   84POPC   NC3 1310   9.021   0.044   7.224  0.0177  0.0174 -0.3664
   84POPC   PO4 1311   9.470   0.144   7.492 -0.1524  0.0555  0.2793
   84POPC   GL1 1312   9.497   0.195   6.972  0.1982 -0.1987 -0.0673
   84POPC   GL2 1313   9.396   0.512   7.004  0.0279 -0.2655 -0.1660
   84POPC   C1A 1314   9.695  -0.068   6.654  0.0371  0.0194 -0.0126
   84POPC   D2A 1315   9.823  -0.029   6.231  0.2119 -0.3245  0.0473
   84POPC   C3A 1316   9.589   0.355   6.025  0.1790 -0.0195 -0.2548
   84POPC   C4A 1317   9.567   0.797   6.197 -0.3700  0.1279 -0.1487
   84POPC   C1B 1318   9.169   0.874   6.770  0.0473 -0.1888  0.0735
   84POPC   C2B 1319   9.054   1.181   6.650  0.0676 -0.1366 -0.4181
   84POPC   C3B 1320   9.097   1.553   6.442 -0.0741 -0.0324  0.0322
   84POPC   C4B 1321   9.102   1.909   6.244 -0.0979 -0.1944  0.4529
   85POPC   NC3 1322   6.083   7.481   7.976  0.0969  0.0122 -0.1275
   85POPC   PO4 1323   6.282   7.594   7.599 -0.1149 -0.2762 -0.3400
   85POPC   GL1 1324   5.997   7.677   7.249  0.1202 -0.0082  0.1360
   85POPC   GL2 1325   5.871   7.521   7.005 -0.0169 -0.2523  0.0044
   85POPC   C1A 1326   6.034   7.964   6.837  0.0508  0.0484 -0.0137
   85POPC   D2A 1327   5.761   8.290   6.764 -0.0171  0.0607 -0.2509
   85POPC   C3A 1328   5.662   8.768   6.527 -0.1394  0.0204  0.0027
   85POPC   C4A 1329   5.978   8.988   6.666 -0.0024 -0.1148  0.1739
   85POPC   C1B 1330   5.725   7.639   6.607  0.0179 -0.1132  0.2332
   85POPC   C2B 1331   5.355   7.836   6.398 -0.0363  0.1985  0.1408
   85POPC   C3B 1332   5.341   7.647   5.945 -0.0729  0.0291 -0.2567
   85POPC   C4B 1333   5.571   7.355   5.832  0.0695  0.0593  0.0426
   86POPC   NC3 1334   1.286   5.566   7.633 -0.0359  0.0064 -0.3381
   86POPC   PO4 1335   1.381   5.110   7.560  0.2117  0.3257  0.1492
   86POPC   GL1 1336   1.413   4.900   7.167 -0.0683 -0.3467  0.0371
   86POPC   GL2 1337   1.702   4.808   7.019  0.2626 -0.0446 -0.0429
   86POPC   C1A 1338   1.185   4.848   6.865  0.2374 -0.1062  0.2178
   86POPC   D2A 1339   1.064   4.832   6.466  0.0527  0.1233 -0.2578
   86POPC   C3A 1340   1.323   5.020   6.107 -0.1990 -0.1934 -0.0912
   86POPC   C4A 1341   1.390   5.061   5.616 -0.2898  0.0572 -0.0993
   86POPC   C1B 1342   1.631   5.023   6.627 -0.1409  0.2381  0.1649
   86POPC   C2B 1343   1.717   5.280   6.291  0.1006  0.1020  0.1648
   86POPC   C3B 1344   1.713   5.333   5.919  0.2045 -0.2274 -0.0357
   86POPC   C4B 1345   1.772   5.236   5.418  0.0833 -0.1316  0.1580
   87POPC   NC3 1346   6.573   5.452   7.726  0.1512 -0.0177  0.0841
   87POPC   PO4 1347   6.746   5.891   7.739  0.0859 -0.0591  0.0764
   87POPC   GL1 1348   6.727   5.759   7.306 -0.1302  0.0677 -0.3005
   87POPC   GL2 1349   6.554   5.508   7.147  0.1742  0.3112 -0.4217
   87POPC   C1A 1350   6.959   5.844   6.884  0.0228  0.1953  0.0350
   87POPC   D2A 1351   7.028   5.677   6.476 -0.2742 -0.1118  0.0473
   87POPC   C3A 1352   7.358   5.436   6.281 -0.1864  0.4639 -0.1539
   87POPC   C4A 1353   7.344   5.143   6.005 -0.0627  0.0598 -0.2012
   87POPC   C1B 1354   6.603   5.429   6.690 -0.2484  0.2235  0.3524
   87POPC   C2B 1355   6.748   5.305   6.205  0.4073  0.2520 -0.0481
   87POPC   C3B 1356   6.639   4.913   5.971  0.0286 -0.0425 -0.1635
   87POPC   C4B 1357   6.722   4.511   6.220  0.1355  0.2518  0.0922
   88POPC   NC3 1358   2.679   5.033   8.075 -0.1237 -0.1769  0.1312
   88POPC   PO4 1359   2.598   4.854   7.626 -0.0649 -0.1953 -0.0919
   88POPC   GL1 1360   2.820   4.728   7.380 -0.1501 -0.0047  0.1816
   88POPC   GL2 1361   2.662   4.348   7.280  0.0169  0.2970  0.5437
   88POPC   C1A 1362   2.544   4.659   6.904  0.0022  0.2224  0.3260
   88POPC   D2A 1363   2.155   4.885   6.796 -0.1151 -0.0716  0.0670
   88POPC   C3A 1364   2.111   5.004   6.301 -0.0142 -0.1251  0.0490
   88POPC   C4A 1365   2.091   4.972   5.798 -0.0470  0.2454 -0.3013
   88POPC   C1B 1366   3.003   4.203   6.994  0.2291  0.0113  0.0196
   88POPC   C2B 1367   3.008   3.929   6.646 -0.0506 -0.0379  0.0312
   88POPC   C3B 1368   2.719   3.775   6.407  0.2645  0.2957 -0.1440
   88POPC   C4B 1369   2.412   3.698   6.090 -0.0255 -0.1907  0.3500
   89POPC   NC3 1370   8.856   9.986   7.891  0.0073 -0.3453  0.0669
   89POPC   PO4 1371   9.088  10.444   7.682 -0.0596 -0.2615 -0.3324
   89POPC   GL1 1372   9.238  10.256   7.333  0.0847  0.0132  0.0477
   89POPC   GL2 1373   9.513  10.196   7.262  0.1489 -0.0129 -0.3861
   89POPC   C1A 1374   9.146  10.260   6.798  0.2066 -0.0228  0.1313
   89POPC   D2A 1375   9.215  10.527   6.343  0.1268 -0.0913 -0.4678
   89POPC   C3A 1376   9.203  10.423   5.966  0.2889  0.2926  0.0972
   89POPC   C4A 1377   9.057  10.437   5.573  0.1821 -0.1975  0.1328
   89POPC   C1B 1378   9.543  10.026   6.789  0.2138 -0.1387 -0.3302
   89POPC   C2B 1379   9.573  10.105   6.421 -0.2564 -0.5243 -0.2293
   89POPC   C3B 1380   9.592  10.164   6.011 -0.2558  0.0762 -0.0994
   89POPC   C4B 1381   9.500  10.206   5.539 -0.0935 -0.1513 -0.1074
   90POPC   NC3 1382   7.474  10.480   8.170 -0.0440  0.0903 -0.0502
   90POPC   PO4 1383   7.624  10.814   7.889 -0.1227  0.0108  0.3038
   90POPC   GL1 1384   7.597  10.881   7.429 -0.0444  0.0228 -0.0501
   90POPC   GL2 1385   7.732  10.608   7.284  0.2949  0.1140  0.1984
   90POPC   C1A 1386   7.702  11.259   7.157 -0.0194 -0.0511  0.1489
   90POPC   D2A 1387   7.717  11.673   7.067 -0.2587  0.2059  0.0712
   90POPC   C3A 1388   7.674  11.855   6.655  0.0457  0.3095  0.0274
   90POPC   C4A 1389   7.762  12.089   6.243 -0.4301 -0.3788  0.1610
   90POPC   C1B 1390   7.673  10.475   6.905 -0.2683  0.1521  0.2161
   90POPC   C2B 1391   7.786  10.456   6.518  0.0212  0.1951  0.1668
   90POPC   C3B 1392   7.811  10.198   6.127  0.1821 -0.0466  0.2364
   90POPC   C4B 1393   8.186  10.127   5.936 -0.1056  0.3919  0.0471
   91POPC   NC3 1394  10.380   1.670   7.635 -0.2706  0.3492 -0.0982
   91POPC   PO4 1395  10.064   1.506   7.478 -0.0679  0.2151  0.2206
   91POPC   GL1 1396   9.984   1.706   7.112 -0.1846 -0.1601  0.0135
   91POPC   GL2 1397   9.825   1.552   7.033 -0.4665  0.1367  0.1607
   91POPC   C1A 1398  10.099   1.913   6.739 -0.0541 -0.3877  0.1451
   91POPC   D2A 1399  10.075   2.072   6.442  0.0160  0.0381 -0.2183
   91POPC   C3A 1400  10.239   2.480   6.369 -0.0742 -0.1305 -0.0126
   91POPC   C4A 1401  10.475   2.697   5.964 -0.1326  0.0037 -0.2871
   91POPC   C1B 1402   9.620   1.292   6.780  0.1006 -0.2462  0.3789
   91POPC   C2B 1403   9.564   1.285   6.364  0.2095 -0.0981  0.0173
   91POPC   C3B 1404   9.337   1.156   5.961 -0.1210 -0.2807  0.0339
   91POPC   C4B 1405   9.038   0.912   6.124 -0.1096 -0.2646 -0.0653
   92POPC   NC3 1406   2.606   9.985   7.992 -0.1335 -0.1572  0.1012
   92POPC   PO4 1407   2.842  10.119   7.618  0.2763 -0.4364  0.0284
   92POPC   GL1 1408   3.048   9.838   7.345  0.0432  0.0012  0.0685
   92POPC   GL2 1409   3.087   9.470   7.345  0.1700  0.0807 -0.2232
   92POPC   C1A 1410   3.254   9.785   6.924 -0.0739  0.0232 -0.0099
   92POPC   D2A 1411   3.424   9.793   6.420  0.1143 -0.1703 -0.2157
   92POPC   C3A 1412   3.617  10.056   6.151  0.2691 -0.0228 -0.1842
   92POPC   C4A 1413   3.498  10.172   5.715  0.1533  0.1192 -0.0660
   92POPC   C1B 1414   2.852   9.459   6.983  0.1872  0.0447 -0.0049
   92POPC   C2B 1415   2.983   9.394   6.553  0.4734 -0.1529 -0.1293
   92POPC   C3B 1416   3.183   9.254   6.221 -0.0322  0.3628  0.0178
   92POPC   C4B 1417   3.292   9.293   5.726  0.1959  0.0004  0.1993
   93POPC   NC3 1418   2.219   7.988   7.482  0.0102 -0.1857  0.0468
   93POPC   PO4 1419   1.934   7.695   7.413 -0.0918  0.0975  0.1090
   93POPC   GL1 1420   1.991   7.813   6.949 -0.0513 -0.0734 -0.4113
   93POPC   GL2 1421   2.109   8.045   7.008 -0.1758  0.4485  0.2702
   93POPC   C1A 1422   2.112   7.511   6.577 -0.1129  0.1673 -0.0839
   93POPC   D2A 1423   1.752   7.392   6.306  0.0416  0.4558  0.1198
   93POPC   C3A 1424   1.646   7.362   5.905 -0.2432  0.0674  0.1722
   93POPC   C4A 1425   1.428   7.543   5.572  0.0058  0.1797  0.1554
   93POPC   C1B 1426   2.207   7.994   6.476  0.0712 -0.1019  0.1631
   93POPC   C2B 1427   2.442   8.027   6.114  0.4490 -0.2035 -0.1241
   93POPC   C3B 1428   2.711   7.805   5.951  0.1044 -0.1931 -0.3346
   93POPC   C4B 1429   2.747   7.511   5.917 -0.0800 -0.0721  0.0167
   94POPC   NC3 1430   1.699   8.415   8.000  0.2254 -0.0999 -0.1012
   94POPC   PO4 1431   1.785   8.168   7.682  0.2169 -0.0344  0.1318
   94POPC   GL1 1432   1.712   8.226   7.149 -0.2737 -0.1242 -0.0106
   94POPC   GL2 1433   1.758   8.634   6.966  0.0538 -0.0147  0.0272
   94POPC   C1A 1434   1.516   8.224   6.749 -0.1901 -0.2722 -0.0818
   94POPC   D2A 1435   1.228   8.003   6.435  0.2839  0.3483  0.0466
   94POPC   C3A 1436   0.786   8.219   6.304 -0.3502  0.1293 -0.4042
   94POPC   C4A 1437   0.309   8.396   6.390  0.3674 -0.0749 -0.0393
   94POPC   C1B 1438   1.582   8.685   6.552 -0.2129 -0.1493 -0.1772
   94POPC   C2B 1439   1.351   8.870   6.213  0.0197 -0.3673 -0.1349
   94POPC   C3B 1440   1.408   9.170   5.886  0.1312 -0.1310  0.1898
   94POPC   C4B 1441   1.180   9.546   5.617 -0.0979  0.2221  0.1085
   95POPC   NC3 1442  10.372   6.616   7.586 -0.0198 -0.0166 -0.0401
   95POPC   PO4 1443  10.000   6.942   7.597 -0.3324 -0.1151 -0.0308
   95POPC   GL1 1444  10.125   6.797   7.193 -0.0336 -0.0376 -0.3126
   95POPC   GL2 1445  10.253   6.475   7.086  0.0152  0.0719  0.0741
   95POPC   C1A 1446  10.206   6.895   6.738 -0.0664 -0.2397 -0.0057
   95POPC   D2A 1447  10.228   6.721   6.409  0.2745 -0.1223 -0.0715
   95POPC   C3A 1448  10.486   6.797   6.090  0.0882  0.0314 -0.2385
   95POPC   C4A 1449  10.449   7.159   5.979 -0.2899 -0.1192 -0.0029
   95POPC   C1B 1450   9.822   6.383   6.939 -0.1441  0.0781  0.1584
   95POPC   C2B 1451   9.427   6.376   6.546  0.0463  0.1834 -0.2549
   95POPC   C3B 1452   9.420   6.355   6.129 -0.2217 -0.1304 -0.2073
   95POPC   C4B 1453   9.687   6.169   5.851 -0.0114 -0.0987  0.3684
   96POPC   NC3 1454  10.528   0.538   8.237  0.1842  0.1022  0.4419
   96POPC   PO4 1455  10.283   0.754   7.875  0.0505  0.5352  0.3718
   96POPC   GL1 1456  10.475   0.600   7.463  0.3637  0.1990  0.0182
   96POPC   GL2 1457  10.448   0.223   7.338  0.2300  0.2457  0.0413
   96POPC   C1A 1458  10.592   0.869   7.043  0.3269 -0.1018 -0.3212
   96POPC   D2A 1459  10.694   1.180   6.756  0.0682  0.1230  0.0002
   96POPC   C3A 1460  10.424   1.502   6.574 -0.0622 -0.1016  0.1025
   96POPC   C4A 1461   9.998   1.569   6.399 -0.0258  0.1322  0.1399
   96POPC   C1B 1462  10.525   0.437   6.897  0.1221  0.1718 -0.1234
   96POPC   C2B 1463  10.421   0.739   6.594  0.0005  0.1080  0.0571
   96POPC   C3B 1464  10.594   0.921   6.189 -0.1656  0.0797 -0.0914
   96POPC   C4B 1465  10.715   0.954   5.765 -0.2157  0.0083 -0.0522
   97POPC   NC3 1466   2.827   0.012   7.827  0.2979 -0.1118  0.2198
   97POPC   PO4 1467   3.167   0.284   7.868  0.0391 -0.1146  0.0693
   97POPC   GL1 1468   3.419   0.238   7.490 -0.0099  0.0562 -0.1291
   97POPC   GL2 1469   3.185   0.227   7.318 -0.1704  0.0382 -0.2340
   97POPC   C1A 1470   3.724   0.413   7.142 -0.0006  0.1086  0.1044
   97POPC   D2A 1471   3.692   0.574   6.772  0.0019  0.1863 -0.0894
   97POPC   C3A 1472   3.864   0.388   6.571  0.0860  0.1904 -0.0798
   97POPC   C4A 1473   4.190   0.104   6.302  0.3024 -0.1304 -0.1761
   97POPC   C1B 1474   3.325   0.110   6.920  0.0091 -0.2138  0.0975
   97POPC   C2B 1475   3.384   0.276   6.486  0.0844 -0.2459  0.2795
   97POPC   C3B 1476   3.608   0.485   6.140  0.1086  0.0332  0.2275
   97POPC   C4B 1477   3.985   0.796   6.105  0.2748 -0.2045  0.3464
   98POPC   NC3 1478   9.201   9.072   8.108  0.1519 -0.3192 -0.0282
   98POPC   PO4 1479   9.009   8.746   7.722 -0.2792 -0.2051 -0.4577
   98POPC   GL1 1480   8.998   8.834   7.283  0.1074  0.0853  0.2797
   98POPC   GL2 1481   9.146   8.588   7.242 -0.1688  0.2293  0.2611
   98POPC   C1A 1482   8.974   8.926   6.938  0.0410 -0.1662  0.0769
   98POPC   D2A 1483   8.949   9.283   6.750  0.0423 -0.2018  0.1281
   98POPC   C3A 1484   9.044   9.283   6.256 -0.1722 -0.1915 -0.0252
   98POPC   C4A 1485   9.264   9.141   5.908  0.2782 -0.0349 -0.1775
   98POPC   C1B 1486   9.257   8.593   6.742 -0.3714  0.1780  0.2980
   98POPC   C2B 1487   9.446   8.187   6.567 -0.0551  0.2039 -0.0246
   98POPC   C3B 1488   9.484   7.853   6.208  0.1299 -0.0278 -0.3300
   98POPC   C4B 1489   9.776   7.546   6.080 -0.3555  0.0525  0.2479
   99POPC   NC3 1490   7.914   2.662   8.324  0.1286 -0.1818 -0.2986
   99POPC   PO4 1491   8.271   2.750   7.980  0.0681 -0.0607 -0.0102
   99POPC   GL1 1492   8.305   3.024   7.685 -0.1060 -0.0043  0.2478
   99POPC   GL2 1493   8.237   2.760   7.478 -0.1491  0.0958  0.0104
   99POPC   C1A 1494   8.383   3.140   7.172 -0.0325  0.1094 -0.1247
   99POPC   D2A 1495   8.264   3.103   6.722 -0.1159 -0.1805 -0.1789
   99POPC   C3A 1496   8.373   2.770   6.452 -0.3620 -0.2854  0.1633
   99POPC   C4A 1497   8.513   2.386   6.264  0.0702 -0.2995 -0.0850
   99POPC   C1B 1498   8.069   2.747   7.005  0.2972  0.0408 -0.1644
   99POPC   C2B 1499   7.884   2.805   6.565  0.1569 -0.1782 -0.0372
   99POPC   C3B 1500   7.959   2.555   6.288  0.2908  0.3486  0.2551
   99POPC   C4B 1501   8.119   2.081   6.154 -0.0908  0.0395 -0.0241
  100POPC   NC3 1502   6.704   6.390   7.560  0.0394 -0.0802  0.2555
  100POPC   PO4 1503   6.756   6.703   7.827  0.0268  0.1144 -0.1921
  100POPC   GL1 1504   6.716   6.805   7.309  0.1461 -0.0804 -0.1191
  100POPC   GL2 1505   6.947   7.082   7.245  0.1962  0.2333  0.0590
  100POPC   C1A 1506   6.604   6.721   6.914 -0.3130 -0.1194  0.2805
  100POPC   D2A 1507   6.388   6.906   6.601 -0.0009  0.1302 -0.1705
  100POPC   C3A 1508   6.489   6.822   6.257 -0.1262  0.2757 -0.5183
  100POPC   C4A 1509   6.251   6.708   5.914 -0.0467  0.0902  0.2902
  100POPC   C1B 1510   6.693   7.220   6.907 -0.3462 -0.0148 -0.0185
  100POPC   C2B 1511   6.775   7.229   6.578  0.1687 -0.2679  0.0834
  100POPC   C3B 1512   6.554   7.326   6.229  0.0676  0.1694 -0.0983
  100POPC   C4B 1513   6.519   7.145   5.877 -0.1514  0.0035 -0.1129
  101POPC   NC3 1514   2.669   6.447   7.469  0.0655 -0.1576  0.1391
  101POPC   PO4 1515   2.289   6.643   7.380 -0.1600  0.0852 -0.1474
  101POPC   GL1 1516   2.148   6.257   7.160 -0.1736 -0.1085  0.1325
  101POPC   GL2 1517   2.370   6.106   7.257  0.2590  0.2649 -0.0279
  101POPC   C1A 1518   2.061   5.933   6.834  0.0373  0.3886 -0.4173
  101POPC   D2A 1519   2.175   5.579   6.538 -0.2096 -0.0059  0.0005
  101POPC   C3A 1520   2.536   5.590   6.273  0.1217 -0.0321 -0.4012
  101POPC   C4A 1521   2.811   5.531   6.081 -0.1765  0.0422  0.1566
  101POPC   C1B 1522   2.360   5.598   7.105  0.0359 -0.1408 -0.0399
  101POPC   C2B 1523   2.615   5.344   6.863  0.0711  0.1516 -0.0885
  101POPC   C3B 1524   2.637   5.006   6.409  0.0365  0.3779 -0.1162
  101POPC   C4B 1525   2.520   5.124   5.923  0.0374  0.0518 -0.2121
  102POPC   NC3 1526   0.284   0.495   7.823  0.0725 -0.0012  0.2623
  102POPC   PO4 1527   0.648   0.676   7.648  0.0176  0.1691  0.0044
  102POPC   GL1 1528   0.379   0.777   7.370  0.1212  0.0177 -0.0842
  102POPC   GL2 1529   0.306   1.154   7.281  0.0854 -0.0291  0.2731
  102POPC   C1A 1530   0.419   0.703   6.922  0.0745 -0.2120  0.1156
  102POPC   D2A 1531   0.279   0.614   6.579 -0.0592  0.2127 -0.3562
  102POPC   C3A 1532   0.510   0.437   6.132  0.1979 -0.0105  0.4086
  102POPC   C4A 1533   0.793   0.301   5.819 -0.0290  0.2632 -0.0103
  102POPC   C1B 1534   0.615   1.184   6.951 -0.1824 -0.2005  0.0465
  102POPC   C2B 1535   0.518   1.048   6.591 -0.2537  0.1619 -0.1743
  102POPC   C3B 1536   0.588   0.952   6.232  0.1104 -0.0016  0.2252
  102POPC   C4B 1537   0.681   0.957   5.779  0.1135  0.2437 -0.1144
  103POPC   NC3 1538   6.327   4.716   7.977  0.3036 -0.0362  0.2433
  103POPC   PO4 1539   6.547   4.895   7.690  0.0252  0.1707  0.2379
  103POPC   GL1 1540   6.703   5.030   7.356 -0.4276  0.1278  0.2001
  103POPC   GL2 1541   6.982   5.173   7.317  0.4456  0.3363  0.2465
  103POPC   C1A 1542   6.764   4.848   6.967 -0.3510 -0.0197  0.1938
  103POPC   D2A 1543   6.699   4.844   6.616  0.0772 -0.3355  0.0493
  103POPC   C3A 1544   6.351   4.698   6.512  0.3625 -0.1119 -0.1531
  103POPC   C4A 1545   5.853   4.793   6.492  0.0506  0.3251  0.3022
  103POPC   C1B 1546   7.358   4.986   7.120  0.1758  0.0973  0.4214
  103POPC   C2B 1547   7.315   4.613   6.955 -0.1012  0.3685  0.2117
  103POPC   C3B 1548   7.023   4.518   6.610  0.2447  0.0316  0.1590
  103POPC   C4B 1549   7.324   4.434   6.323 -0.1393 -0.0958  0.0504
  104POPC   NC3 1550   8.025   6.392   7.727 -0.1458 -0.2747 -0.3471
  104POPC   PO4 1551   8.323   6.735   7.822  0.1634 -0.1576 -0.5013
  104POPC   GL1 1552   8.345   6.436   7.378  0.0491 -0.3615  0.0794
  104POPC   GL2 1553   8.398   6.159   7.413  0.0700 -0.1934 -0.0199
  104POPC   C1A 1554   8.168   6.529   6.941  0.2448  0.0630  0.0667
  104POPC   D2A 1555   7.770   6.327   6.688  0.0512 -0.0889 -0.3105
  104POPC   C3A 1556   7.420   6.534   6.491  0.2056  0.1652  0.2320
  104POPC   C4A 1557   7.342   6.591   6.106 -0.1717 -0.0569 -0.0720
  104POPC   C1B 1558   8.309   5.967   7.058  0.0240 -0.4301  0.1205
  104POPC   C2B 1559   8.508   6.134   6.674  0.0180 -0.2597  0.1608
  104POPC   C3B 1560   8.257   6.281   6.385 -0.0309 -0.0937  0.1238
  104POPC   C4B 1561   7.862   6.468   6.227 -0.0170  0.1118  0.0069
  105POPC   NC3 1562   0.152   5.750   7.745  0.0894  0.0409 -0.1997
  105POPC   PO4 1563   0.413   5.427   7.521 -0.2312  0.2824 -0.1792
  105POPC   GL1 1564   0.765   5.363   7.280 -0.4057 -0.0604 -0.1693
  105POPC   GL2 1565   0.685   5.138   6.978 -0.1164 -0.2020 -0.0719
  105POPC   C1A 1566   1.132   5.358   6.997  0.0236  0.2326  0.2560
  105POPC   D2A 1567   1.258   5.297   6.582 -0.0079  0.1905  0.1642
  105POPC   C3A 1568   1.101   5.534   6.349  0.0949 -0.2900  0.0996
  105POPC   C4A 1569   1.386   5.713   6.044  0.1680 -0.2627 -0.0941
  105POPC   C1B 1570   0.347   5.260   6.681 -0.1686  0.1467  0.2523
  105POPC   C2B 1571   0.064   5.634   6.706 -0.0837 -0.2540  0.0807
  105POPC   C3B 1572  -0.149   5.844   6.478  0.2234  0.3553  0.0320
  105POPC   C4B 1573  -0.542   5.695   6.270 -0.2641  0.5387 -0.3026
  106POPC   NC3 1574   0.128   1.428   8.032  0.0351  0.0088  0.1077
  106POPC   PO4 1575   0.220   1.618   7.516 -0.3398  0.0541 -0.1270
  106POPC   GL1 1576  -0.063   1.445   7.181  0.0383  0.1371  0.1159
  106POPC   GL2 1577  -0.121   1.751   7.077 -0.0215 -0.1862  0.0259
  106POPC   C1A 1578  -0.421   1.201   6.897  0.0194  0.1595 -0.1232
  106POPC   D2A 1579  -0.521   1.086   6.419 -0.0174  0.1744  0.0100
  106POPC   C3A 1580  -0.245   1.326   6.048  0.0069 -0.0294 -0.2996
  106POPC   C4A 1581   0.228   1.338   6.223 -0.0896 -0.0279 -0.1867
  106POPC   C1B 1582  -0.075   1.990   6.631 -0.0546 -0.0584  0.0883
  106POPC   C2B 1583  -0.093   1.814   6.195  0.0610  0.1044 -0.1738
  106POPC   C3B 1584   0.073   1.685   5.789  0.2028  0.2435 -0.2381
  106POPC   C4B 1585  -0.033   1.844   5.363 -0.0861 -0.2416 -0.1310
  107POPC   NC3 1586   8.696   7.690   7.603 -0.2886  0.5692 -0.0013
  107POPC   PO4 1587   8.587   7.915   7.283 -0.4601  0.1240  0.1341
  107POPC   GL1 1588   8.643   8.153   6.902  0.0359 -0.0537 -0.1685
  107POPC   GL2 1589   8.899   8.220   6.951 -0.2983 -0.2325 -0.1015
  107POPC   C1A 1590   8.393   8.286   6.552  0.5209  0.0150 -0.2049
  107POPC   D2A 1591   8.477   8.482   6.086  0.1916 -0.1957  0.0891
  107POPC   C3A 1592   8.891   8.757   5.945 -0.0677  0.2086  0.1508
  107POPC   C4A 1593   9.320   8.612   5.619  0.0618  0.1960  0.0493
  107POPC   C1B 1594   8.777   8.563   6.672  0.1768  0.0958  0.0455
  107POPC   C2B 1595   8.680   8.854   6.388 -0.0115  0.1851 -0.0160
  107POPC   C3B 1596   8.478   9.064   5.904 -0.3614  0.1422 -0.2385
  107POPC   C4B 1597   8.217   9.297   5.625  0.2299  0.1450 -0.0037
  108POPC   NC3 1598   8.114  10.542   7.570 -0.1813  0.1326 -0.1907
  108POPC   PO4 1599   8.150  10.824   7.842 -0.0309 -0.1971  0.2015
  108POPC   GL1 1600   8.180  10.931   7.316  0.0569  0.2090  0.2262
  108POPC   GL2 1601   8.296  11.196   7.186  0.0128 -0.0054 -0.2041
  108POPC   C1A 1602   7.922  10.909   6.868 -0.2266 -0.0201 -0.0798
  108POPC   D2A 1603   7.975  10.918   6.419  0.1245  0.0587  0.0268
  108POPC   C3A 1604   7.684  11.013   6.092 -0.3874 -0.2394  0.3997
  108POPC   C4A 1605   7.393  10.840   5.929  0.2451  0.2540 -0.1431
  108POPC   C1B 1606   8.055  11.366   6.816  0.2387 -0.1871  0.0480
  108POPC   C2B 1607   7.781  11.347   6.436 -0.0569 -0.1558  0.0716
  108POPC   C3B 1608   7.605  11.509   5.984 -0.0311  0.3746 -0.2587
  108POPC   C4B 1609   7.332  11.457   5.757  0.1183 -0.0167 -0.1763
  109POPC   NC3 1610   4.140   1.129   8.307 -0.0387 -0.0928 -0.3218
  109POPC   PO4 1611   4.149   1.264   8.787 -0.1304  0.1182 -0.1209
  109POPC   GL1 1612   4.610   1.184   8.478 -0.1827 -0.1157 -0.1244
  109POPC   GL2 1613   4.634   0.877   8.441 -0.0372  0.0861  0.2701
  109POPC   C1A 1614   4.819   1.389   8.228 -0.0785  0.0703 -0.0131
  109POPC   D2A 1615   5.205   1.140   7.994  0.5132  0.0409 -0.0833
  109POPC   C3A 1616   5.242   1.003   7.569  0.2533 -0.2118 -0.3393
  109POPC   C4A 1617   5.381   0.887   7.065  0.1650  0.1310 -0.1013
  109POPC   C1B 1618   4.724   0.956   8.032 -0.0733 -0.0388  0.1157
  109POPC   C2B 1619   4.672   1.268   7.746  0.1912  0.0559 -0.1063
  109POPC   C3B 1620   4.661   1.399   7.376  0.0082 -0.1519 -0.1036
  109POPC   C4B 1621   5.068   1.343   6.999  0.4598  0.0015 -0.2551
  110POPC   NC3 1622   2.592   1.323   7.974  0.1341  0.0330  0.0842
  110POPC   PO4 1623   3.045   1.209   7.692  0.1467  0.0722  0.3875
  110POPC   GL1 1624   2.974   1.231   7.172  0.2930  0.2570 -0.0550
  110POPC   GL2 1625   2.705   1.298   7.068 -0.1023  0.0480  0.0698
  110POPC   C1A 1626   3.136   1.162   6.804  0.0714  0.2300 -0.1181
  110POPC   D2A 1627   3.094   1.144   6.334 -0.1163 -0.0556 -0.1532
  110POPC   C3A 1628   3.412   1.418   6.053 -0.0184  0.2045  0.0458
  110POPC   C4A 1629   3.765   1.346   5.721 -0.1932 -0.2584  0.0526
  110POPC   C1B 1630   2.821   1.538   6.611 -0.1165 -0.0004  0.2802
  110POPC   C2B 1631   3.084   1.744   6.340 -0.1553  0.0502 -0.1097
  110POPC   C3B 1632   3.181   2.098   6.055 -0.1107  0.1201 -0.1474
  110POPC   C4B 1633   3.028   2.477   5.749 -0.1940  0.1767 -0.0320
  111POPC   NC3 1634   9.621   0.615   7.499  0.2010 -0.4423 -0.1932
  111POPC   PO4 1635   9.991   0.501   7.535 -0.1802  0.0020  0.1291
  111POPC   GL1 1636   9.940   0.504   7.159 -0.0084  0.1548 -0.1929
  111POPC   GL2 1637  10.089   0.762   7.052 -0.0608  0.1714  0.3420
  111POPC   C1A 1638   9.993   0.371   6.672 -0.2322  0.3009 -0.2271
  111POPC   D2A 1639  10.026   0.560   6.233 -0.1372 -0.1994 -0.1896
  111POPC   C3A 1640  10.036   0.365   5.864  0.0403  0.0209  0.0798
  111POPC   C4A 1641   9.889  -0.035   5.662 -0.2981 -0.2082  0.1921
  111POPC   C1B 1642   9.783   0.796   6.716 -0.3762  0.2060 -0.0258
  111POPC   C2B 1643   9.533   0.404   6.543 -0.2640 -0.1789 -0.0627
  111POPC   C3B 1644   9.136   0.435   6.371  0.0489  0.0345 -0.0199
  111POPC   C4B 1645   8.636   0.593   6.101 -0.2324  0.1859  0.0417
  112POPC   NC3 1646   7.239   3.322   8.830  0.0614 -0.0005 -0.4253
  112POPC   PO4 1647   7.216   2.894   8.747  0.0894 -0.0258 -0.1332
  112POPC   GL1 1648   7.044   2.712   8.301 -0.3023  0.0781  0.0073
  112POPC   GL2 1649   7.288   2.639   8.203  0.0125 -0.0050 -0.2341
  112POPC   C1A 1650   6.767   2.758   7.975  0.2700  0.0173  0.3649
  112POPC   D2A 1651   6.837   2.936   7.522  0.3383 -0.0779 -0.1065
  112POPC   C3A 1652   6.667   3.390   7.427 -0.1548  0.0504  0.2157
  112POPC   C4A 1653   6.308   3.841   7.508 -0.0327 -0.1074  0.1751
  112POPC   C1B 1654   7.233   2.650   7.760 -0.1479  0.0751  0.0459
  112POPC   C2B 1655   7.083   2.557   7.329  0.1140  0.0214  0.0114
  112POPC   C3B 1656   6.963   2.807   7.043  0.0598 -0.0375  0.3490
  112POPC   C4B 1657   7.172   3.010   6.723 -0.0018 -0.1778  0.2527
  113POPC   NC3 1658   6.887   9.718   7.890 -0.2108  0.1118 -0.0343
  113POPC   PO4 1659   6.945   9.757   7.411 -0.2936 -0.2413 -0.0360
  113POPC   GL1 1660   6.800  10.072   7.134  0.0544 -0.2858  0.3609
  113POPC   GL2 1661   7.064   9.977   6.898 -0.0653 -0.0782 -0.1544
  113POPC   C1A 1662   6.699  10.380   6.804  0.0402  0.0865 -0.0689
  113POPC   D2A 1663   6.692  10.543   6.387  0.0893  0.0233 -0.1955
  113POPC   C3A 1664   6.388  10.820   6.087 -0.0684 -0.2785 -0.1697
  113POPC   C4A 1665   6.415  11.302   6.068 -0.0344 -0.2121 -0.0807
  113POPC   C1B 1666   6.906  10.024   6.495  0.0222 -0.0776 -0.0027
  113POPC   C2B 1667   6.851  10.186   6.032  0.1823 -0.1678 -0.0727
  113POPC   C3B 1668   6.923  10.609   5.860 -0.1346  0.2167 -0.3516
  113POPC   C4B 1669   6.932  10.728   5.459  0.1771 -0.1675 -0.0707
  114POPC   NC3 1670   3.308   6.395   8.047 -0.0781 -0.0120  0.1058
  114POPC   PO4 1671   3.001   6.696   7.860  0.2858 -0.0085 -0.0304
  114POPC   GL1 1672   3.123   6.817   7.421  0.0364 -0.0969  0.0575
  114POPC   GL2 1673   3.206   7.104   7.308 -0.1503 -0.0832 -0.1353
  114POPC   C1A 1674   3.095   6.708   6.923 -0.1208 -0.1415 -0.0845
  114POPC   D2A 1675   2.958   6.343   6.777 -0.3407 -0.3392 -0.1496
  114POPC   C3A 1676   3.103   5.915   6.582 -0.1950 -0.1924  0.2024
  114POPC   C4A 1677   3.002   5.499   6.608 -0.0533  0.3167  0.1591
  114POPC   C1B 1678   3.401   7.224   6.812  0.1021  0.2057 -0.0585
  114POPC   C2B 1679   3.322   7.370   6.331 -0.1554 -0.2575 -0.0756
  114POPC   C3B 1680   3.030   7.639   6.368 -0.0222 -0.1203  0.1260
  114POPC   C4B 1681   2.610   7.655   6.471  0.0313 -0.0598 -0.0836
  115POPC   NC3 1682   3.407   3.285   9.049 -0.0847 -0.4847 -0.1653
  115POPC   PO4 1683   3.142   3.496   8.756 -0.0963  0.0143 -0.0462
  115POPC   GL1 1684   3.526   3.509   8.390 -0.2705 -0.0496  0.2531
  115POPC   GL2 1685   3.898   3.406   8.445 -0.0950  0.0382 -0.2033
  115POPC   C1A 1686   3.712   3.533   7.971  0.1130 -0.0111 -0.1488
  115POPC   D2A 1687   4.045   3.551   7.602 -0.2427  0.0953  0.1720
  115POPC   C3A 1688   4.540   3.437   7.636  0.1351 -0.2902  0.1752
  115POPC   C4A 1689   4.940   3.186   7.588  0.1435  0.0256 -0.1937
  115POPC   C1B 1690   4.238   3.293   8.114  0.2161  0.2364 -0.0496
  115POPC   C2B 1691   4.540   3.126   8.008  0.2890  0.0326  0.3265
  115POPC   C3B 1692   4.915   2.843   8.072  0.1155  0.0249 -0.3544
  115POPC   C4B 1693   5.279   2.669   8.204 -0.1464  0.0481 -0.2233
  116POPC   NC3 1694   2.332   6.742   7.857 -0.0693  0.1590  0.1697
  116POPC   PO4 1695   2.594   6.980   7.604  0.1895  0.4172  0.3271
  116POPC   GL1 1696   2.674   6.839   7.157 -0.0397  0.1970 -0.1710
  116POPC   GL2 1697   2.576   6.617   6.882 -0.2280  0.0040  0.1041
  116POPC   C1A 1698   2.786   7.025   6.728  0.2887 -0.1859 -0.0937
  116POPC   D2A 1699   2.793   7.167   6.330  0.1092 -0.0338  0.1717
  116POPC   C3A 1700   3.111   7.134   5.934 -0.2760  0.1052  0.0856
  116POPC   C4A 1701   3.449   7.096   5.655 -0.0191 -0.0186  0.1358
  116POPC   C1B 1702   2.562   6.544   6.498  0.1444 -0.1082 -0.2700
  116POPC   C2B 1703   2.261   6.528   6.169  0.1963  0.0970 -0.1001
  116POPC   C3B 1704   2.064   6.256   5.865  0.0270  0.1752 -0.0177
  116POPC   C4B 1705   2.078   6.150   5.442 -0.1435  0.3164  0.1361
  117POPC   NC3 1706   2.230   6.066   7.711 -0.2286 -0.5073  0.1315
  117POPC   PO4 1707   1.905   5.892   7.861  0.2265  0.3926  0.1778
  117POPC   GL1 1708   1.801   5.778   7.398 -0.2180 -0.2351  0.1297
  117POPC   GL2 1709   1.608   5.480   7.255 -0.1473 -0.5636  0.0678
  117POPC   C1A 1710   1.590   6.083   7.058 -0.1686 -0.0681 -0.0035
  117POPC   D2A 1711   1.535   6.288   6.860 -0.3235  0.0080 -0.1200
  117POPC   C3A 1712   1.839   6.289   6.485 -0.1412  0.3190  0.0993
  117POPC   C4A 1713   2.290   6.069   6.397 -0.3396  0.1289 -0.4922
  117POPC   C1B 1714   1.667   5.416   6.886  0.3636 -0.1263  0.1295
  117POPC   C2B 1715   1.733   5.691   6.551  0.4083  0.1495  0.2927
  117POPC   C3B 1716   1.852   5.878   6.174 -0.2130 -0.0664  0.0543
  117POPC   C4B 1717   1.826   5.791   5.712  0.1740  0.2272  0.1026
  118POPC   NC3 1718   4.540   1.983   9.102  0.1318  0.1352  0.0025
  118POPC   PO4 1719   5.040   1.905   9.002  0.4283 -0.0757  0.2273
  118POPC   GL1 1720   5.077   1.742   8.639 -0.0985  0.2316 -0.0848
  118POPC   GL2 1721   5.333   1.832   8.570 -0.0904  0.0775 -0.3244
  118POPC   C1A 1722   5.004   1.849   8.191 -0.1553  0.1791 -0.1440
  118POPC   D2A 1723   4.738   1.830   7.850  0.0512 -0.0292 -0.0844
  118POPC   C3A 1724   4.452   2.161   7.495 -0.1583 -0.1925 -0.1272
  118POPC   C4A 1725   4.391   2.523   7.172  0.2836  0.0364  0.1197
  118POPC   C1B 1726   5.522   1.885   8.119  0.4555  0.2829  0.0588
  118POPC   C2B 1727   5.207   1.981   7.703 -0.3271 -0.0150 -0.0630
  118POPC   C3B 1728   4.896   1.907   7.399 -0.0306  0.1637 -0.0738
  118POPC   C4B 1729   4.603   1.863   7.086 -0.0255 -0.0544  0.0055
  119POPC   NC3 1730   1.313   2.302   7.819 -0.0048 -0.1715 -0.3013
  119POPC   PO4 1731   1.530   2.512   7.622  0.3367 -0.0138  0.0885
  119POPC   GL1 1732   1.633   2.453   7.144 -0.2539 -0.4475  0.3064
  119POPC   GL2 1733   1.751   2.068   6.954  0.0143 -0.3105  0.0973
  119POPC   C1A 1734   1.584   2.633   6.674  0.0207  0.2357  0.0405
  119POPC   D2A 1735   1.801   2.833   6.406 -0.0696  0.0471 -0.2496
  119POPC   C3A 1736   1.833   3.222   6.544  0.1169  0.3792 -0.0309
  119POPC   C4A 1737   1.830   3.551   6.846  0.2655  0.4740 -0.2273
  119POPC   C1B 1738   1.853   1.779   6.747 -0.0689 -0.1082  0.0996
  119POPC   C2B 1739   1.888   1.628   6.349 -0.1106 -0.0426 -0.0680
  119POPC   C3B 1740   2.056   1.508   5.933 -0.0304  0.3888  0.0379
  119POPC   C4B 1741   2.415   1.243   5.933 -0.0776  0.2823 -0.1894
  120POPC   NC3 1742   4.364   4.631   8.168  0.1522  0.2002 -0.0533
  120POPC   PO4 1743   4.493   4.890   7.834 -0.1024  0.0649 -0.0377
  120POPC   GL1 1744   4.200   4.767   7.605  0.1372 -0.0262  0.1001
  120POPC   GL2 1745   3.941   5.029   7.736  0.0627  0.0057 -0.0653
  120POPC   C1A 1746   3.955   4.448   7.396  0.0991  0.1611  0.1935
  120POPC   D2A 1747   3.925   4.359   6.948  0.2148 -0.0238 -0.0066
  120POPC   C3A 1748   3.742   4.590   6.683 -0.2968  0.1523  0.3731
  120POPC   C4A 1749   3.772   4.996   6.424  0.1308  0.0995 -0.1202
  120POPC   C1B 1750   4.104   5.211   7.375  0.0866 -0.1002 -0.1691
  120POPC   C2B 1751   4.219   5.268   6.872 -0.1386 -0.0260  0.3220
  120POPC   C3B 1752   4.236   5.328   6.428 -0.0877 -0.2088 -0.0929
  120POPC   C4B 1753   4.546   5.265   6.066  0.0387 -0.2632 -0.0055
  121POPC   NC3 1754   1.645   3.685   7.486  0.1675  0.0964 -0.3612
  121POPC   PO4 1755   1.379   3.355   7.695  0.1804  0.1627 -0.1231
  121POPC   GL1 1756   1.069   3.209   7.391 -0.1977  0.0337  0.2526
  121POPC   GL2 1757   1.307   3.401   7.189  0.5015  0.0234  0.5178
  121POPC   C1A 1758   0.844   3.090   7.001 -0.5041  0.0213  0.1001
  121POPC   D2A 1759   0.864   3.276   6.717 -0.0242 -0.2887  0.1860
  121POPC   C3A 1760   0.504   3.501   6.484  0.1587  0.0284 -0.1897
  121POPC   C4A 1761   0.125   3.633   6.217 -0.1764  0.0296 -0.0291
  121POPC   C1B 1762   1.290   3.603   6.698  0.1241  0.1018 -0.0010
  121POPC   C2B 1763   1.116   3.866   6.444 -0.1003  0.1611 -0.0308
  121POPC   C3B 1764   1.001   3.909   6.086 -0.3591  0.1954 -0.3839
  121POPC   C4B 1765   1.275   3.943   5.687  0.1619  0.0273  0.2478
  122POPC   NC3 1766   9.552   5.331   7.860  0.0893 -0.2448 -0.4239
  122POPC   PO4 1767   9.917   5.570   7.717 -0.0845 -0.3831 -0.0328
  122POPC   GL1 1768  10.126   5.473   7.270  0.1666 -0.0996 -0.0598
  122POPC   GL2 1769   9.940   5.234   7.150 -0.0227 -0.1328 -0.1421
  122POPC   C1A 1770  10.114   5.591   6.789  0.2508  0.0738  0.2864
  122POPC   D2A 1771   9.887   5.309   6.524  0.2437  0.0844  0.0367
  122POPC   C3A 1772   9.996   5.274   6.082  0.2894 -0.0418  0.1782
  122POPC   C4A 1773  10.159   5.069   5.646  0.2089 -0.1642 -0.1081
  122POPC   C1B 1774   9.871   4.959   6.818  0.0948  0.1553  0.0397
  122POPC   C2B 1775  10.091   4.879   6.356  0.1413  0.0526 -0.0395
  122POPC   C3B 1776  10.402   4.883   6.095 -0.1539  0.0568  0.5323
  122POPC   C4B 1777  10.618   4.845   5.746 -0.0248  0.1192 -0.2876
  123POPC   NC3 1778  10.622   9.182   7.556  0.1351 -0.0916 -0.3055
  123POPC   PO4 1779  10.869   9.538   7.573  0.1286 -0.0808 -0.0559
  123POPC   GL1 1780  10.629   9.769   7.287 -0.1002  0.1442  0.1361
  123POPC   GL2 1781  10.812  10.045   7.098  0.2214  0.0037 -0.0567
  123POPC   C1A 1782  10.425   9.623   6.858 -0.0428 -0.1665 -0.0273
  123POPC   D2A 1783  10.162   9.628   6.589 -0.1114  0.3526  0.1327
  123POPC   C3A 1784  10.268   9.463   6.169  0.4414 -0.1064  0.0020
  123POPC   C4A 1785  10.302   9.514   5.653 -0.1250  0.2648 -0.0989
  123POPC   C1B 1786  10.567  10.117   6.714 -0.1547  0.0285  0.2594
  123POPC   C2B 1787  10.497   9.930   6.350 -0.0672 -0.2612 -0.1714
  123POPC   C3B 1788  10.545   9.829   5.973 -0.3102 -0.1248 -0.0051
  123POPC   C4B 1789  10.830   9.637   5.762 -0.0393 -0.0218  0.1193
  124POPC   NC3 1790   9.326   8.318   7.589  0.1713  0.6623 -0.0175
  124POPC   PO4 1791   9.705   8.449   7.464 -0.4203  0.2226 -0.0476
  124POPC   GL1 1792   9.585   8.375   7.009  0.2999 -0.0283  0.0000
  124POPC   GL2 1793   9.950   8.391   7.038 -0.1376 -0.0941  0.2943
  124POPC   C1A 1794   9.751   8.537   6.538  0.0636  0.1697  0.0297
  124POPC   D2A 1795   9.965   8.580   6.161 -0.1101  0.1953 -0.2239
  124POPC   C3A 1796   9.730   8.705   5.810 -0.1243 -0.1288  0.0507
  124POPC   C4A 1797   9.748   8.344   5.536  0.1717 -0.2396  0.1294
  124POPC   C1B 1798   9.934   8.046   6.873  0.2075  0.2003 -0.1312
  124POPC   C2B 1799   9.919   8.077   6.355 -0.0277  0.0831  0.1712
  124POPC   C3B 1800   9.961   8.043   5.912 -0.1188 -0.1437  0.0545
  124POPC   C4B 1801   9.781   7.825   5.598  0.2581 -0.0405  0.1520
  125POPC   NC3 1802   3.484   5.279   7.574  0.3473  0.2855  0.1641
  125POPC   PO4 1803   3.237   5.519   7.869  0.0497 -0.1157  0.0777
  125POPC   GL1 1804   3.057   5.587   7.492 -0.0833 -0.5321  0.0131
  125POPC   GL2 1805   2.791   5.447   7.451 -0.0385  0.1370 -0.2633
  125POPC   C1A 1806   2.879   5.806   7.117 -0.0394 -0.1600  0.1293
  125POPC   D2A 1807   2.590   5.941   6.745  0.0859  0.0573 -0.3112
  125POPC   C3A 1808   2.788   6.133   6.312 -0.3936 -0.2234  0.1865
  125POPC   C4A 1809   3.198   6.208   5.975 -0.1627 -0.0148 -0.1136
  125POPC   C1B 1810   3.031   5.198   7.050  0.0318  0.2607 -0.2096
  125POPC   C2B 1811   3.288   5.106   6.641 -0.2162  0.0067  0.1785
  125POPC   C3B 1812   3.217   5.196   6.230 -0.2037 -0.1520  0.0627
  125POPC   C4B 1813   3.043   4.892   6.079  0.2138 -0.2360  0.1808
  126POPC   NC3 1814   8.600   0.425   7.831 -0.0202  0.1247 -0.2651
  126POPC   PO4 1815   8.637   0.203   7.500  0.0459 -0.0633  0.0737
  126POPC   GL1 1816   8.595   0.086   6.974 -0.1942  0.1625 -0.0664
  126POPC   GL2 1817   8.900   0.080   6.765  0.3632  0.0611 -0.1886
  126POPC   C1A 1818   8.334   0.018   6.644  0.0240  0.0542  0.2359
  126POPC   D2A 1819   8.201  -0.046   6.165  0.0924  0.0579  0.0853
  126POPC   C3A 1820   8.532  -0.114   5.770 -0.0984  0.2104 -0.2618
  126POPC   C4A 1821   8.621  -0.394   5.349  0.0088  0.3743  0.0643
  126POPC   C1B 1822   8.756   0.433   6.640 -0.0070 -0.1699  0.1775
  126POPC   C2B 1823   8.353   0.561   6.459  0.0466  0.1087  0.3211
  126POPC   C3B 1824   8.153   0.613   6.053 -0.2008 -0.1209 -0.3830
  126POPC   C4B 1825   8.306   0.845   5.794  0.1944  0.0016 -0.0022
  127POPC   NC3 1826   8.089   1.768   8.678 -0.1526  0.0379 -0.0995
  127POPC   PO4 1827   7.949   1.810   8.313 -0.0225  0.0100 -0.1231
  127POPC   GL1 1828   7.574   1.725   8.130 -0.0116  0.2004 -0.2755
  127POPC   GL2 1829   7.744   1.574   7.953  0.0042  0.0485 -0.0813
  127POPC   C1A 1830   7.194   1.737   7.854  0.1297 -0.0322 -0.2314
  127POPC   D2A 1831   6.942   1.371   7.766  0.2175 -0.5509 -0.2070
  127POPC   C3A 1832   6.967   1.320   7.388  0.0643  0.3348  0.1509
  127POPC   C4A 1833   6.739   1.195   6.899 -0.1108  0.3428 -0.2070
  127POPC   C1B 1834   7.794   1.853   7.649  0.2413 -0.0837 -0.1161
  127POPC   C2B 1835   8.112   1.900   7.365  0.1423 -0.0389  0.4108
  127POPC   C3B 1836   8.171   1.804   6.901  0.2419 -0.0979 -0.0499
  127POPC   C4B 1837   8.402   1.924   6.611  0.1404 -0.2510 -0.2478
  128POPC   NC3 1838   8.163   3.607   8.638  0.0025 -0.2648 -0.0518
  128POPC   PO4 1839   7.738   3.641   8.603  0.2428  0.1356  0.2336
  128POPC   GL1 1840   7.927   3.497   8.133  0.1584  0.1609 -0.0936
  128POPC   GL2 1841   7.820   3.164   8.086 -0.0531  0.6666  0.1960
  128POPC   C1A 1842   7.681   3.498   7.807  0.3421 -0.2897  0.2253
  128POPC   D2A 1843   7.542   3.622   7.394  0.3589  0.3174  0.0228
  128POPC   C3A 1844   7.629   3.852   7.028  0.2903  0.3238  0.2713
  128POPC   C4A 1845   7.472   4.096   6.651 -0.2464 -0.0512 -0.0733
  128POPC   C1B 1846   7.703   2.790   7.747 -0.3039  0.1721 -0.0294
  128POPC   C2B 1847   7.879   2.431   7.502  0.0678  0.1795  0.0721
  128POPC   C3B 1848   8.197   2.348   7.189 -0.1223  0.3320 -0.2965
  128POPC   C4B 1849   8.641   2.313   7.151 -0.1116 -0.0320 -0.1787
  129POPC   NC3 1850  10.271   5.915   7.554 -0.0159 -0.1907  0.0616
  129POPC   PO4 1851  10.594   6.197   7.396  0.1114  0.4219  0.2305
  129POPC   GL1 1852  10.489   6.068   7.009  0.0666  0.0353 -0.0559
  129POPC   GL2 1853  10.126   5.967   7.069 -0.0667 -0.1944 -0.0494
  129POPC   C1A 1854  10.200   6.168   6.644  0.0178  0.1017 -0.0872
  129POPC   D2A 1855   9.907   6.318   6.351  0.0933  0.1681  0.3451
  129POPC   C3A 1856  10.068   6.525   5.945  0.0431  0.0438  0.0407
  129POPC   C4A 1857  10.414   6.410   5.642  0.0330 -0.0085  0.3600
  129POPC   C1B 1858   9.775   5.937   6.661 -0.2970 -0.0328 -0.0810
  129POPC   C2B 1859   9.574   5.877   6.322  0.2191 -0.2372  0.3636
  129POPC   C3B 1860   9.558   5.586   6.040 -0.2634  0.3170  0.2095
  129POPC   C4B 1861   9.345   5.360   5.803 -0.0665 -0.1170 -0.2992
  130POPC   NC3 1862  10.308   7.562   8.098 -0.0547  0.2528  0.1066
  130POPC   PO4 1863   9.930   7.335   7.891 -0.0862  0.1610 -0.1741
  130POPC   GL1 1864   9.909   7.405   7.451  0.0754 -0.0000 -0.2200
  130POPC   GL2 1865   9.613   7.256   7.375 -0.1253 -0.0087  0.0894
  130POPC   C1A 1866   9.840   7.595   7.060  0.3689  0.1025  0.1638
  130POPC   D2A 1867   9.636   7.695   6.693 -0.1625 -0.0294  0.0226
  130POPC   C3A 1868   9.587   7.346   6.540  0.1705 -0.0164  0.1196
  130POPC   C4A 1869   9.364   7.343   6.274  0.2318  0.0811 -0.2723
  130POPC   C1B 1870   9.784   7.070   6.909 -0.0458 -0.0733 -0.1084
  130POPC   C2B 1871   9.740   6.800   6.522  0.0382 -0.1086  0.3231
  130POPC   C3B 1872   9.489   6.852   6.253 -0.0961 -0.3542  0.3478
  130POPC   C4B 1873   9.056   6.765   6.298  0.2456 -0.3282  0.1370
  131POPC   NC3 1874   9.469   8.942   7.537  0.1545 -0.0381  0.0301
  131POPC   PO4 1875   9.441   9.367   7.809 -0.1880  0.0116  0.0786
  131POPC   GL1 1876   9.213   9.397   7.298  0.2002  0.1263  0.2644
  131POPC   GL2 1877   9.338   9.252   7.066 -0.1804 -0.0603  0.1327
  131POPC   C1A 1878   9.195   9.714   6.991  0.0282  0.0360 -0.0697
  131POPC   D2A 1879   9.260   9.714   6.597 -0.0166 -0.2184  0.2007
  131POPC   C3A 1880   9.100  10.014   6.300 -0.2752  0.0265 -0.0754
  131POPC   C4A 1881   8.767  10.120   5.936 -0.1075  0.3974 -0.1239
  131POPC   C1B 1882   9.391   9.099   6.645  0.0457 -0.1566 -0.0676
  131POPC   C2B 1883   9.407   8.808   6.322  0.1866 -0.3077  0.0045
  131POPC   C3B 1884   9.295   8.371   6.142  0.3240 -0.1910 -0.2396
  131POPC   C4B 1885   9.382   8.127   5.738  0.3033  0.5330  0.0246
  132POPC   NC3 1886   2.962   3.450   8.247 -0.1002 -0.2083 -0.2017
  132POPC   PO4 1887   2.954   3.567   7.785  0.2144 -0.2430 -0.3516
  132POPC   GL1 1888   3.218   3.506   7.431 -0.0526 -0.2378  0.1973
  132POPC   GL2 1889   3.294   3.869   7.373  0.0914  0.0044 -0.2462
  132POPC   C1A 1890   3.633   3.398   7.423 -0.0089  0.0307  0.1395
  132POPC   D2A 1891   3.897   3.224   7.157  0.1477  0.0799  0.2343
  132POPC   C3A 1892   4.144   3.402   6.693 -0.4893 -0.3493  0.0528
  132POPC   C4A 1893   4.256   3.639   6.311 -0.0111  0.0420 -0.4097
  132POPC   C1B 1894   3.417   3.709   6.957 -0.1019 -0.1529 -0.0548
  132POPC   C2B 1895   3.697   3.457   6.722  0.0512  0.0693  0.2084
  132POPC   C3B 1896   3.650   3.164   6.360  0.1206  0.2497  0.1655
  132POPC   C4B 1897   3.605   3.166   5.894 -0.0224 -0.0707 -0.1190
  133POPC   NC3 1898   3.635   5.214   8.079 -0.0586 -0.1858 -0.0465
  133POPC   PO4 1899   3.802   5.525   7.911 -0.2311  0.2234  0.0195
  133POPC   GL1 1900   3.989   5.732   7.517  0.1884  0.1324  0.1178
  133POPC   GL2 1901   4.052   6.041   7.500  0.0153  0.1100  0.6683
  133POPC   C1A 1902   3.921   5.683   7.126 -0.0319 -0.1395 -0.4368
  133POPC   D2A 1903   3.980   5.699   6.636 -0.0794 -0.0534 -0.0631
  133POPC   C3A 1904   3.786   5.519   6.302  0.0439  0.0535 -0.1057
  133POPC   C4A 1905   3.694   5.292   6.001  0.4741  0.0032 -0.1081
  133POPC   C1B 1906   3.819   6.084   6.969  0.0703  0.0385  0.1951
  133POPC   C2B 1907   3.497   6.180   6.756  0.0681  0.2065 -0.1063
  133POPC   C3B 1908   3.464   6.521   6.440 -0.1727 -0.0709  0.2777
  133POPC   C4B 1909   3.237   6.902   6.405  0.2473 -0.0270  0.1201
  134POPC   NC3 1910   6.845   8.149   7.603 -0.0496  0.1793 -0.1925
  134POPC   PO4 1911   7.180   8.338   7.442  0.0343 -0.0293 -0.0868
  134POPC   GL1 1912   7.341   8.575   7.103  0.2806 -0.1170  0.1680
  134POPC   GL2 1913   7.584   8.639   6.981 -0.0263  0.0241 -0.3086
  134POPC   C1A 1914   7.132   8.882   6.769 -0.0761  0.0135  0.2564
  134POPC   D2A 1915   6.898   9.052   6.420  0.0973  0.2442  0.0332
  134POPC   C3A 1916   6.936   9.214   6.008 -0.2275 -0.0376  0.0047
  134POPC   C4A 1917   6.920   9.211   5.561 -0.2977 -0.2523 -0.1231
  134POPC   C1B 1918   7.485   8.498   6.596  0.1642  0.0772  0.0502
  134POPC   C2B 1919   7.236   8.709   6.299 -0.1240  0.1809 -0.3818
  134POPC   C3B 1920   6.795   8.661   6.086  0.1667  0.0793  0.1287
  134POPC   C4B 1921   6.398   8.734   6.240 -0.2527  0.1044 -0.2005
  135POPC   NC3 1922   7.687   8.245   7.356 -0.1433 -0.2900  0.2845
  135POPC   PO4 1923   7.692   7.807   7.224 -0.1782  0.0481 -0.0823
  135POPC   GL1 1924   7.707   7.759   6.854 -0.0308  0.0015 -0.2895
  135POPC   GL2 1925   7.467   8.030   6.903  0.1518  0.1465 -0.1624
  135POPC   C1A 1926   7.777   7.548   6.500 -0.2409  0.1236  0.0088
  135POPC   D2A 1927   8.107   7.245   6.356  0.1848 -0.2813  0.2973
  135POPC   C3A 1928   8.045   7.384   5.937  0.0121  0.0377  0.3381
  135POPC   C4A 1929   7.877   7.173   5.648  0.0517  0.3548  0.1648
  135POPC   C1B 1930   7.512   8.004   6.497 -0.1392  0.3975 -0.3377
  135POPC   C2B 1931   7.660   7.842   6.145 -0.2308 -0.0372  0.1388
  135POPC   C3B 1932   7.730   7.819   5.768  0.1395  0.2675  0.2527
  135POPC   C4B 1933   7.867   7.646   5.380  0.1520 -0.2900  0.1682
  136POPC   NC3 1934   1.014   1.922   7.501 -0.2417 -0.1511 -0.0596
  136POPC   PO4 1935   1.498   1.980   7.388  0.0210 -0.2784 -0.0021
  136POPC   GL1 1936   1.269   2.023   7.031 -0.3391  0.3568 -0.3507
  136POPC   GL2 1937   0.936   2.013   6.998 -0.2028  0.1072 -0.0632
  136POPC   C1A 1938   1.219   2.256   6.735 -0.0963 -0.2253 -0.1193
  136POPC   D2A 1939   1.195   2.308   6.328 -0.0880 -0.3018 -0.1546
  136POPC   C3A 1940   1.275   2.743   6.230 -0.1127 -0.2140 -0.3379
  136POPC   C4A 1941   1.289   2.901   5.939 -0.1152  0.0191 -0.4513
  136POPC   C1B 1942   0.864   1.632   6.839  0.2341 -0.1466  0.0915
  136POPC   C2B 1943   1.020   1.331   6.477 -0.0685  0.1015 -0.3771
  136POPC   C3B 1944   1.026   1.133   6.083 -0.0664 -0.0276 -0.3138
  136POPC   C4B 1945   1.211   0.913   5.717 -0.0401 -0.2681  0.3779
  137POPC   NC3 1946   0.793   8.254   7.490  0.1505  0.0237 -0.2284
  137POPC   PO4 1947   1.009   8.622   7.640  0.0983 -0.1542  0.0868
  137POPC   GL1 1948   0.871   8.708   7.197  0.1688  0.0986 -0.0412
  137POPC   GL2 1949   1.233   8.862   7.073 -0.0283  0.2120 -0.2902
  137POPC   C1A 1950   0.671   8.745   6.782  0.2395  0.3959  0.3577
  137POPC   D2A 1951   0.444   9.029   6.490 -0.2857 -0.2343 -0.0093
  137POPC   C3A 1952   0.277   8.852   6.186  0.0256  0.1188  0.0464
  137POPC   C4A 1953  -0.073   8.677   5.874  0.0146  0.0211 -0.2995
  137POPC   C1B 1954   1.445   9.152   6.766  0.0200 -0.4527 -0.0034
  137POPC   C2B 1955   1.468   9.367   6.385 -0.1572 -0.0496 -0.0241
  137POPC   C3B 1956   1.643   9.612   6.161  0.4283  0.1337 -0.3092
  137POPC   C4B 1957   1.886   9.512   5.863 -0.0747 -0.1379  0.3972
  138POPC   NC3 1958   7.331   7.379   7.362  0.2554 -0.1101  0.2192
  138POPC   PO4 1959   7.730   7.277   7.489  0.3304  0.1281  0.0087
  138POPC   GL1 1960   7.804   7.301   7.141  0.3429 -0.1130  0.2833
  138POPC   GL2 1961   7.565   7.278   6.918  0.0799 -0.0655  0.1188
  138POPC   C1A 1962   8.175   7.178   6.881  0.1978 -0.1370  0.2432
  138POPC   D2A 1963   8.529   7.168   6.677  0.3079  0.1916 -0.3655
  138POPC   C3A 1964   8.700   7.138   6.256  0.0371 -0.1471  0.4429
  138POPC   C4A 1965   8.989   7.035   5.859 -0.4419  0.1686  0.1773
  138POPC   C1B 1966   7.374   7.178   6.511  0.0708  0.0626 -0.2528
  138POPC   C2B 1967   7.497   7.300   6.117  0.0004 -0.0122 -0.0383
  138POPC   C3B 1968   7.397   7.340   5.619  0.2525 -0.1404 -0.2226
  138POPC   C4B 1969   7.103   7.322   5.280  0.0481  0.4967 -0.0742
  139POPC   NC3 1970   5.981   5.976   7.912  0.0410 -0.1071 -0.3248
  139POPC   PO4 1971   6.198   5.890   7.635 -0.0460  0.0405 -0.1404
  139POPC   GL1 1972   6.058   5.715   7.344 -0.0245  0.1298  0.1405
  139POPC   GL2 1973   5.935   5.922   7.082 -0.1191 -0.2463  0.0355
  139POPC   C1A 1974   6.007   5.353   7.040  0.0322 -0.1330 -0.3618
  139POPC   D2A 1975   5.703   5.120   6.797 -0.1414 -0.0438 -0.0875
  139POPC   C3A 1976   5.772   5.219   6.252 -0.0993 -0.1337  0.1832
  139POPC   C4A 1977   5.504   5.493   5.928 -0.3018  0.2827 -0.0416
  139POPC   C1B 1978   5.680   5.713   6.781  0.1962 -0.0464  0.0865
  139POPC   C2B 1979   5.457   5.607   6.400 -0.1460  0.0022 -0.0740
  139POPC   C3B 1980   5.197   5.889   6.249  0.0344 -0.1202 -0.0670
  139POPC   C4B 1981   4.738   5.824   6.115  0.0155 -0.0752  0.0847
  140POPC   NC3 1982   0.323   8.313   8.202 -0.2700 -0.0453  0.2717
  140POPC   PO4 1983   0.320   8.299   7.774 -0.0822  0.2904  0.0287
  140POPC   GL1 1984   0.137   8.291   7.384  0.4027  0.3327 -0.1565
  140POPC   GL2 1985   0.415   8.341   7.151  0.2072  0.2120 -0.2900
  140POPC   C1A 1986  -0.182   8.252   7.000 -0.0025 -0.2776 -0.3879
  140POPC   D2A 1987  -0.335   8.331   6.617 -0.0861 -0.2596  0.0755
  140POPC   C3A 1988  -0.276   8.224   6.225 -0.1187 -0.2389 -0.1654
  140POPC   C4A 1989   0.072   8.128   5.989 -0.2361 -0.1893  0.0852
  140POPC   C1B 1990   0.489   8.127   6.760 -0.1236 -0.1315 -0.0414
  140POPC   C2B 1991   0.724   7.758   6.655 -0.1207  0.2918  0.2401
  140POPC   C3B 1992   0.807   7.426   6.368 -0.1092  0.1829  0.0337
  140POPC   C4B 1993   0.757   7.000   6.140 -0.2082 -0.2577  0.0982
  141POPC   NC3 1994   5.938   0.280   8.780 -0.1852 -0.1785  0.1802
  141POPC   PO4 1995   5.771   0.252   8.382 -0.0365  0.4378  0.1650
  141POPC   GL1 1996   5.858   0.407   8.099  0.2728 -0.1818 -0.2602
  141POPC   GL2 1997   5.656   0.286   7.746  0.0419 -0.5980 -0.2430
  141POPC   C1A 1998   6.073   0.579   7.757 -0.2453 -0.1302 -0.2789
  141POPC   D2A 1999   5.881   0.589   7.310  0.0009  0.0552 -0.1779
  141POPC   C3A 2000   5.995   0.423   6.870  0.0101  0.2598 -0.0151
  141POPC   C4A 2001   5.996   0.361   6.386 -0.0448  0.3911  0.0227
  141POPC   C1B 2002   6.020   0.181   7.511  0.6144 -0.0323 -0.1016
  141POPC   C2B 2003   6.338   0.358   7.352  0.3310 -0.4041  0.1237
  141POPC   C3B 2004   6.580   0.213   7.015 -0.0938  0.1919  0.3757
  141POPC   C4B 2005   6.973   0.211   6.711  0.0819 -0.2094  0.1214
  142POPC   NC3 2006   7.223   4.283   8.653  0.3054  0.2163 -0.4272
  142POPC   PO4 2007   7.126   4.441   8.202  0.1850 -0.1746 -0.3186
  142POPC   GL1 2008   7.031   4.527   7.761  0.0988 -0.0988  0.1852
  142POPC   GL2 2009   6.664   4.347   7.729 -0.1393 -0.1094  0.0985
  142POPC   C1A 2010   6.971   4.570   7.355 -0.0153  0.0000  0.1589
  142POPC   D2A 2011   6.858   4.255   6.983  0.0503 -0.0544 -0.1432
  142POPC   C3A 2012   6.390   4.164   7.025 -0.2454  0.1542 -0.0130
  142POPC   C4A 2013   6.024   4.448   6.901  0.0696  0.1157 -0.0083
  142POPC   C1B 2014   6.804   4.037   7.477 -0.2250 -0.2027  0.0796
  142POPC   C2B 2015   7.073   3.682   7.504 -0.4785 -0.1423  0.0875
  142POPC   C3B 2016   7.146   3.359   7.588 -0.2069 -0.4012 -0.0631
  142POPC   C4B 2017   7.277   3.097   7.933 -0.0379  0.0414 -0.1552
  143POPC   NC3 2018   8.969   4.876   7.493  0.0004 -0.2404  0.0015
  143POPC   PO4 2019   9.323   4.895   7.727  0.1529 -0.1085 -0.1429
  143POPC   GL1 2020   9.514   4.557   7.623  0.0176  0.4007  0.0402
  143POPC   GL2 2021   9.327   4.453   7.428 -0.0086  0.0616 -0.2796
  143POPC   C1A 2022   9.862   4.285   7.582  0.0105 -0.0428  0.0477
  143POPC   D2A 2023  10.042   3.871   7.587  0.1058  0.4355  0.0178
  143POPC   C3A 2024   9.956   3.430   7.296 -0.4905 -0.1645  0.1575
  143POPC   C4A 2025  10.113   3.378   6.825 -0.1083  0.0875 -0.1640
  143POPC   C1B 2026   9.437   4.319   7.048  0.0526  0.0518 -0.0473
  143POPC   C2B 2027   9.676   4.466   6.749 -0.0116  0.1229 -0.5050
  143POPC   C3B 2028   9.762   4.496   6.293 -0.1112  0.1970 -0.0385
  143POPC   C4B 2029   9.512   4.447   5.925 -0.1243 -0.1287  0.1182
  144POPC   NC3 2030   8.761   6.707   7.570  0.2318  0.2556  0.1884
  144POPC   PO4 2031   9.010   6.508   7.799 -0.3324 -0.1177  0.0362
  144POPC   GL1 2032   8.899   6.263   7.394 -0.3501  0.1662 -0.2178
  144POPC   GL2 2033   8.933   5.946   7.293  0.1198  0.2784  0.2214
  144POPC   C1A 2034   8.751   6.344   7.048  0.2000  0.0313  0.0286
  144POPC   D2A 2035   8.925   6.442   6.667 -0.2799 -0.0859  0.2964
  144POPC   C3A 2036   8.697   6.375   6.267 -0.0550  0.3195  0.0886
  144POPC   C4A 2037   8.612   6.593   5.789 -0.3039 -0.2255 -0.0450
  144POPC   C1B 2038   8.792   5.853   6.969  0.0337 -0.1037  0.0136
  144POPC   C2B 2039   8.741   5.470   6.757  0.0402  0.0951  0.3265
  144POPC   C3B 2040   8.664   5.295   6.375  0.1246 -0.2644 -0.0401
  144POPC   C4B 2041   8.410   5.371   5.938  0.1292 -0.0105 -0.3167
  145POPC   NC3 2042   3.635   0.364   8.044  0.0294 -0.0556 -0.1709
  145POPC   PO4 2043   3.844  -0.093   8.032 -0.2217 -0.1899  0.0731
  145POPC   GL1 2044   3.731  -0.198   7.618  0.0270  0.0562  0.0764
  145POPC   GL2 2045   3.666  -0.458   7.637 -0.0290 -0.1569 -0.1071
  145POPC   C1A 2046   3.869  -0.048   7.332  0.0855 -0.1527  0.1866
  145POPC   D2A 2047   3.822  -0.040   6.925  0.2009  0.0823 -0.0852
  145POPC   C3A 2048   4.220   0.169   6.809  0.1875  0.0709  0.3531
  145POPC   C4A 2049   4.591   0.269   6.592 -0.3273 -0.1529 -0.0934
  145POPC   C1B 2050   3.637  -0.468   7.144  0.2246  0.0444 -0.1564
  145POPC   C2B 2051   3.421  -0.411   6.734 -0.1476  0.0083  0.1499
  145POPC   C3B 2052   3.276  -0.241   6.400  0.1401 -0.0022 -0.0595
  145POPC   C4B 2053   2.875  -0.002   6.433 -0.2571  0.0484  0.0332
  146POPC   NC3 2054   6.272   8.095   7.605  0.0484 -0.2461 -0.0308
  146POPC   PO4 2055   6.391   8.488   7.420 -0.0519  0.2729 -0.2901
  146POPC   GL1 2056   6.447   8.277   7.016 -0.2357  0.1931  0.2247
  146POPC   GL2 2057   6.476   7.973   7.128  0.0713 -0.1523  0.0881
  146POPC   C1A 2058   6.211   8.444   6.671  0.3288 -0.0074 -0.3274
  146POPC   D2A 2059   6.041   8.455   6.291  0.1558  0.0241 -0.1213
  146POPC   C3A 2060   5.692   8.156   6.274  0.0825  0.1970  0.1252
  146POPC   C4A 2061   5.223   8.121   6.007 -0.1713 -0.1817  0.0431
  146POPC   C1B 2062   6.368   7.667   6.972  0.0784  0.0181 -0.1388
  146POPC   C2B 2063   6.282   7.378   6.700 -0.1814  0.2457  0.0069
  146POPC   C3B 2064   6.088   7.208   6.282 -0.1324  0.0312  0.0327
  146POPC   C4B 2065   6.043   7.299   5.774  0.1370 -0.1091  0.0216
  147POPC   NC3 2066   7.185   6.695   8.096  0.0132  0.0194  0.0545
  147POPC   PO4 2067   7.180   6.387   7.800 -0.0446  0.0919  0.0659
  147POPC   GL1 2068   7.170   6.577   7.311  0.1108 -0.0101 -0.0168
  147POPC   GL2 2069   7.353   6.873   7.323 -0.2688  0.2890  0.1348
  147POPC   C1A 2070   7.000   6.409   6.927  0.0539  0.1374 -0.4209
  147POPC   D2A 2071   6.791   6.286   6.666  0.1538  0.2113  0.3095
  147POPC   C3A 2072   6.986   6.279   6.313 -0.1279  0.0040 -0.0464
  147POPC   C4A 2073   6.821   6.617   5.964  0.2560 -0.0433 -0.1734
  147POPC   C1B 2074   7.247   6.920   6.883 -0.1582  0.0413 -0.2085
  147POPC   C2B 2075   7.005   6.792   6.537 -0.0145 -0.0799  0.3011
  147POPC   C3B 2076   6.990   7.058   6.133 -0.2281 -0.0353  0.0941
  147POPC   C4B 2077   7.026   6.989   5.696  0.0196  0.1453  0.1772
  148POPC   NC3 2078   4.962   5.102   7.949 -0.1516  0.1887  0.1434
  148POPC   PO4 2079   5.198   5.424   7.756  0.5336  0.2597 -0.1382
  148POPC   GL1 2080   5.122   5.159   7.406 -0.0467  0.0469  0.2058
  148POPC   GL2 2081   4.879   5.054   7.456 -0.0070  0.3052 -0.1373
  148POPC   C1A 2082   5.359   4.906   7.082 -0.2122 -0.1467 -0.1950
  148POPC   D2A 2083   5.486   4.618   6.781  0.0156 -0.0495 -0.2185
  148POPC   C3A 2084   5.179   4.319   6.907 -0.2232 -0.0155 -0.2184
  148POPC   C4A 2085   4.963   3.942   7.082  0.2455 -0.0950  0.0303
  148POPC   C1B 2086   4.494   4.930   7.153  0.0272 -0.0477  0.0536
  148POPC   C2B 2087   4.255   4.805   6.738  0.2102  0.3652  0.1940
  148POPC   C3B 2088   4.200   4.379   6.522 -0.2115  0.1867  0.2171
  148POPC   C4B 2089   4.001   4.031   6.222 -0.0089  0.1125 -0.0966
  149POPC   NC3 2090   9.523   6.336   8.237 -0.0883  0.4014  0.1501
  149POPC   PO4 2091   9.554   6.184   7.741  0.3966  0.2313  0.0527
  149POPC   GL1 2092   9.431   6.222   7.281  0.0805 -0.1023 -0.0756
  149POPC   GL2 2093   9.262   6.451   7.074  0.0266 -0.1006  0.0897
  149POPC   C1A 2094   9.333   5.996   6.909 -0.0937  0.0419 -0.0762
  149POPC   D2A 2095   9.159   5.784   6.628 -0.2651  0.0752 -0.3380
  149POPC   C3A 2096   9.044   5.974   6.228  0.3976 -0.0572 -0.0314
  149POPC   C4A 2097   8.769   6.058   5.833 -0.1926 -0.0626 -0.2232
  149POPC   C1B 2098   9.290   6.722   6.870 -0.1718 -0.0034  0.3059
  149POPC   C2B 2099   9.168   7.054   6.675  0.1152 -0.1443 -0.0504
  149POPC   C3B 2100   9.101   7.496   6.643 -0.0871 -0.0792  0.0389
  149POPC   C4B 2101   8.644   7.763   6.571  0.1285  0.1207 -0.1678
  150POPC   NC3 2102   3.219   1.755   7.976  0.1656  0.2178 -0.3503
  150POPC   PO4 2103   2.826   1.729   7.774  0.1807  0.0073 -0.1192
  150POPC   GL1 2104   3.076   1.659   7.417  0.1324 -0.4788 -0.1149
  150POPC   GL2 2105   2.951   1.708   7.016 -0.0934 -0.1742 -0.1215
  150POPC   C1A 2106   3.403   1.540   7.241  0.0789 -0.3079 -0.1851
  150POPC   D2A 2107   3.847   1.497   7.219  0.0710 -0.0009  0.0387
  150POPC   C3A 2108   3.939   1.757   7.544  0.0775  0.1334  0.0944
  150POPC   C4A 2109   4.229   1.748   7.871  0.0680 -0.1659 -0.4464
  150POPC   C1B 2110   3.311   1.651   6.742  0.3568  0.0511 -0.2296
  150POPC   C2B 2111   3.526   1.340   6.599  0.0699  0.2217  0.3792
  150POPC   C3B 2112   3.516   0.919   6.427  0.1612  0.4478  0.1090
  150POPC   C4B 2113   3.509   0.956   5.989  0.2230 -0.0099  0.0218
  151POPC   NC3 2114   7.697   4.128   8.579 -0.1381  0.1611  0.1321
  151POPC   PO4 2115   7.615   4.336   8.183  0.1578 -0.0318 -0.1652
  151POPC   GL1 2116   7.429   4.279   7.809 -0.1820 -0.1599 -0.2900
  151POPC   GL2 2117   7.703   4.084   7.700  0.1397 -0.2151  0.3048
  151POPC   C1A 2118   7.316   4.163   7.371  0.1307 -0.3575 -0.0338
  151POPC   D2A 2119   7.103   3.822   7.041  0.0821  0.1906  0.0994
  151POPC   C3A 2120   6.671   3.715   7.079 -0.0778 -0.0185 -0.3857
  151POPC   C4A 2121   6.246   3.528   6.910  0.0861 -0.1735 -0.3058
  151POPC   C1B 2122   8.030   3.902   7.426  0.2595  0.0654 -0.2297
  151POPC   C2B 2123   8.077   3.664   6.997 -0.0653  0.1487  0.2857
  151POPC   C3B 2124   8.289   3.658   6.475  0.0533 -0.0328  0.0017
  151POPC   C4B 2125   8.243   3.590   6.088  0.0856  0.1483  0.1500
  152POPC   NC3 2126   6.573   9.047   7.470  0.2352 -0.0192 -0.0553
  152POPC   PO4 2127   6.619   9.433   7.583  0.2501 -0.2123  0.1072
  152POPC   GL1 2128   6.510   9.627   7.185 -0.2516  0.0851 -0.1382
  152POPC   GL2 2129   6.168   9.500   7.083  0.1078  0.1127 -0.3478
  152POPC   C1A 2130   6.709   9.638   6.716 -0.2723  0.0196  0.0299
  152POPC   D2A 2131   6.872   9.566   6.343  0.0071  0.1336  0.3141
  152POPC   C3A 2132   6.569   9.782   6.174  0.2906  0.3510  0.1470
  152POPC   C4A 2133   6.500   9.939   5.699  0.2631  0.0044 -0.3053
  152POPC   C1B 2134   6.461   9.257   6.705  0.0628 -0.4414  0.3528
  152POPC   C2B 2135   6.373   9.248   6.306 -0.1808  0.1437  0.3138
  152POPC   C3B 2136   6.166   9.445   5.983  0.0407  0.3442  0.4439
  152POPC   C4B 2137   6.033   9.772   5.680 -0.1968  0.0380  0.0218
  153POPC   NC3 2138   2.987   2.232   7.727 -0.1193 -0.0944  0.3430
  153POPC   PO4 2139   3.024   2.724   7.631 -0.2160 -0.4169 -0.1271
  153POPC   GL1 2140   3.328   2.572   7.523  0.0926 -0.1025  0.2089
  153POPC   GL2 2141   3.552   2.728   7.693 -0.0661 -0.0950 -0.1987
  153POPC   C1A 2142   3.488   2.540   7.195  0.0060  0.1245  0.1188
  153POPC   D2A 2143   3.585   2.694   6.722  0.2510 -0.2611 -0.2510
  153POPC   C3A 2144   3.343   3.009   6.688  0.3626 -0.0039  0.2580
  153POPC   C4A 2145   3.233   3.271   6.871 -0.1594 -0.2914 -0.5047
  153POPC   C1B 2146   4.002   2.992   7.668 -0.0398 -0.3402  0.1603
  153POPC   C2B 2147   4.281   3.121   7.391 -0.1733  0.1254  0.0561
  153POPC   C3B 2148   4.429   3.105   6.950 -0.1716  0.1916  0.0330
  153POPC   C4B 2149   4.819   3.090   6.776  0.0109 -0.3128 -0.0901
  154POPC   NC3 2150   1.676   2.946   7.819 -0.0712  0.0380  0.0432
  154POPC   PO4 2151   1.985   3.198   7.709 -0.0980  0.0582 -0.1514
  154POPC   GL1 2152   1.785   3.217   7.268  0.1099  0.0328 -0.1622
  154POPC   GL2 2153   1.536   2.953   7.356 -0.2166 -0.0653 -0.1426
  154POPC   C1A 2154   1.921   2.945   6.953  0.1445  0.0152 -0.0207
  154POPC   D2A 2155   2.060   2.477   6.854 -0.0369  0.2557  0.2051
  154POPC   C3A 2156   2.425   2.321   6.652 -0.0483 -0.2870 -0.1086
  154POPC   C4A 2157   2.795   2.103   6.600  0.2232 -0.1549  0.2168
  154POPC   C1B 2158   1.324   2.930   7.002  0.1383 -0.1656  0.1743
  154POPC   C2B 2159   1.319   3.054   6.641 -0.2677  0.1467 -0.3705
  154POPC   C3B 2160   1.346   3.314   6.347 -0.1599 -0.0872 -0.0424
  154POPC   C4B 2161   1.434   3.584   6.013 -0.1365 -0.0077  0.3077
  155POPC   NC3 2162   5.403   1.013   8.932 -0.3673 -0.1656  0.0923
  155POPC   PO4 2163   5.771   0.729   9.028  0.0488 -0.0992  0.0468
  155POPC   GL1 2164   5.697   0.969   8.566 -0.1963 -0.1825  0.1639
  155POPC   GL2 2165   5.543   0.824   8.362  0.1364  0.1666 -0.3314
  155POPC   C1A 2166   5.992   1.016   8.137  0.0784  0.0875 -0.0179
  155POPC   D2A 2167   6.094   1.298   7.729 -0.0554 -0.0512  0.0752
  155POPC   C3A 2168   6.246   0.951   7.362 -0.3229 -0.0012  0.0050
  155POPC   C4A 2169   6.337   0.796   6.991 -0.1176  0.2580  0.0972
  155POPC   C1B 2170   5.606   0.797   7.988 -0.0420  0.2289 -0.0235
  155POPC   C2B 2171   5.756   0.994   7.666 -0.0688  0.0914 -0.2679
  155POPC   C3B 2172   5.781   1.140   7.325  0.1451  0.3167 -0.0814
  155POPC   C4B 2173   5.847   0.948   6.919 -0.2522 -0.2053 -0.1090
  156POPC   NC3 2174   8.739   4.409   8.205  0.0429  0.2522 -0.1079
  156POPC   PO4 2175   9.047   4.463   7.823 -0.0609  0.0020 -0.1136
  156POPC   GL1 2176   8.819   4.361   7.469  0.0543  0.0473 -0.2073
  156POPC   GL2 2177   8.935   4.539   7.164 -0.0338 -0.4032 -0.0594
  156POPC   C1A 2178   8.523   4.076   7.254  0.0352 -0.0511 -0.1224
  156POPC   D2A 2179   8.116   4.218   7.045  0.0189  0.1444 -0.1272
  156POPC   C3A 2180   8.041   4.020   6.658 -0.0469  0.0207 -0.2335
  156POPC   C4A 2181   7.808   3.765   6.380 -0.2705  0.0020 -0.2239
  156POPC   C1B 2182   8.599   4.551   6.910 -0.1773  0.1781 -0.1675
  156POPC   C2B 2183   8.510   4.224   6.726  0.2073  0.0916 -0.0140
  156POPC   C3B 2184   8.511   4.123   6.348  0.0770 -0.2246 -0.1132
  156POPC   C4B 2185   8.352   4.222   6.038 -0.0525  0.1642  0.1265
  157POPC   NC3 2186   0.021   3.727   7.949  0.0246 -0.0360 -0.1803
  157POPC   PO4 2187  -0.172   4.190   8.052 -0.1653 -0.0095  0.0953
  157POPC   GL1 2188  -0.140   4.130   7.632  0.0684  0.1409  0.0487
  157POPC   GL2 2189  -0.233   4.520   7.505  0.1138  0.3078 -0.2564
  157POPC   C1A 2190  -0.114   3.932   7.264  0.0235 -0.0622 -0.1272
  157POPC   D2A 2191  -0.024   3.563   7.066  0.1784  0.0206  0.0006
  157POPC   C3A 2192   0.396   3.418   6.991 -0.0961  0.2553 -0.0004
  157POPC   C4A 2193   0.739   3.572   7.070 -0.1814 -0.0842 -0.2877
  157POPC   C1B 2194  -0.084   4.402   7.118 -0.1028  0.2864 -0.3164
  157POPC   C2B 2195   0.183   4.427   6.855 -0.1848 -0.0318  0.0358
  157POPC   C3B 2196   0.442   4.372   6.473  0.4181  0.0898 -0.0041
  157POPC   C4B 2197   0.284   4.597   6.190 -0.0657 -0.2849 -0.0727
  158POPC   NC3 2198   8.360   5.104   7.995  0.0352  0.1115  0.0545
  158POPC   PO4 2199   8.576   5.223   7.746 -0.3106 -0.2042 -0.4855
  158POPC   GL1 2200   8.464   4.999   7.373 -0.0398 -0.5248  0.1391
  158POPC   GL2 2201   8.533   5.299   7.202 -0.0758 -0.0643 -0.1765
  158POPC   C1A 2202   8.313   4.896   6.923  0.2341 -0.0487 -0.1352
  158POPC   D2A 2203   8.245   5.068   6.474  0.3634  0.0704 -0.3111
  158POPC   C3A 2204   7.861   5.407   6.493  0.0918 -0.0561  0.2628
  158POPC   C4A 2205   7.506   5.572   6.739  0.0044  0.1073  0.3241
  158POPC   C1B 2206   8.163   5.503   6.950 -0.3134  0.1307 -0.0098
  158POPC   C2B 2207   8.253   5.680   6.498 -0.1854 -0.1349  0.3196
  158POPC   C3B 2208   8.476   5.805   6.171 -0.1261  0.0833  0.0996
  158POPC   C4B 2209   8.312   6.189   5.871 -0.3035 -0.2822 -0.3874
  159POPC   NC3 2210   1.767   0.603   8.161 -0.1953  0.1011 -0.2025
  159POPC   PO4 2211   2.006   0.609   7.698 -0.5100  0.0901 -0.0111
  159POPC   GL1 2212   2.003   0.498   7.286 -0.1096  0.1747  0.1431
  159POPC   GL2 2213   2.366   0.761   7.238  0.2235  0.2482 -0.3471
  159POPC   C1A 2214   2.191   0.385   6.943 -0.1903  0.0170  0.1134
  159POPC   D2A 2215   2.301  -0.125   6.914 -0.1809 -0.0479 -0.0827
  159POPC   C3A 2216   2.611  -0.304   6.704 -0.1069 -0.2228  0.1550
  159POPC   C4A 2217   3.005  -0.334   6.949  0.1653 -0.0290  0.0633
  159POPC   C1B 2218   2.216   0.971   6.896  0.0474 -0.4453  0.0236
  159POPC   C2B 2219   1.870   1.277   6.753  0.3816 -0.0177  0.0742
  159POPC   C3B 2220   1.545   1.198   6.528  0.0948  0.0728 -0.3975
  159POPC   C4B 2221   1.417   0.893   6.175  0.4041  0.0746  0.0890
  160POPC   NC3 2222   1.749  10.110   8.300  0.1494 -0.2317 -0.0840
  160POPC   PO4 2223   2.147  10.031   8.069 -0.0435  0.2192 -0.0578
  160POPC   GL1 2224   2.138  10.071   7.598  0.0887  0.1909  0.0870
  160POPC   GL2 2225   2.446   9.934   7.421 -0.1830 -0.0651  0.0607
  160POPC   C1A 2226   2.024  10.112   7.114  0.0766  0.0617  0.3197
  160POPC   D2A 2227   2.063  10.035   6.716 -0.0510  0.0239 -0.2360
  160POPC   C3A 2228   2.412  10.051   6.310 -0.0195 -0.0991 -0.4157
  160POPC   C4A 2229   2.703  10.097   5.912  0.0671  0.2961  0.1610
  160POPC   C1B 2230   2.557   9.938   6.987 -0.0111 -0.2275  0.0189
  160POPC   C2B 2231   2.739   9.834   6.684 -0.1232 -0.1012  0.2281
  160POPC   C3B 2232   2.911   9.848   6.339 -0.0682 -0.2729 -0.1116
  160POPC   C4B 2233   3.154   9.987   6.045  0.0763  0.4430 -0.1909
  161POPC   NC3 2234   5.167   6.765   7.974  0.1416  0.1946 -0.1024
  161POPC   PO4 2235   5.053   6.427   7.774 -0.0432  0.0727 -0.1033
  161POPC   GL1 2236   5.006   6.251   7.389  0.0114  0.0175 -0.1432
  161POPC   GL2 2237   5.022   6.401   7.105  0.0185 -0.1592 -0.0614
  161POPC   C1A 2238   4.910   5.877   7.084  0.4929  0.1774 -0.1308
  161POPC   D2A 2239   4.998   5.657   6.628  0.2729  0.1980 -0.0705
  161POPC   C3A 2240   5.001   5.368   6.237 -0.0284 -0.0016  0.1252
  161POPC   C4A 2241   5.064   5.003   6.010 -0.2131  0.1095  0.3461
  161POPC   C1B 2242   4.965   6.644   6.789  0.1978  0.0037 -0.2763
  161POPC   C2B 2243   4.931   6.931   6.476 -0.3345 -0.0306 -0.2101
  161POPC   C3B 2244   4.979   6.839   6.096 -0.1049  0.0077  0.2157
  161POPC   C4B 2245   5.260   6.885   5.681  0.3568  0.0247  0.1034
  162POPC   NC3 2246   7.366   9.549   7.206 -0.2379 -0.1590 -0.1667
  162POPC   PO4 2247   7.814   9.597   7.239  0.1517  0.2231  0.0470
  162POPC   GL1 2248   7.820   9.671   6.799 -0.1362  0.0130 -0.2092
  162POPC   GL2 2249   7.930  10.010   6.818 -0.0030  0.1849  0.3500
  162POPC   C1A 2250   7.722   9.469   6.317 -0.1829 -0.0717 -0.0485
  162POPC   D2A 2251   7.811   9.676   5.997  0.0961  0.0968 -0.0578
  162POPC   C3A 2252   7.586   9.930   5.742 -0.0752  0.0626 -0.1171
  162POPC   C4A 2253   7.339   9.931   5.440 -0.1226  0.0623  0.0929
  162POPC   C1B 2254   7.498   9.994   6.622 -0.2728  0.4738 -0.0501
  162POPC   C2B 2255   7.313   9.978   6.158  0.1254 -0.1113  0.0109
  162POPC   C3B 2256   7.336  10.357   5.830  0.1167 -0.0764 -0.1923
  162POPC   C4B 2257   7.828  10.577   5.813 -0.1573  0.0503 -0.0723
  163POPC   NC3 2258   8.709   3.066   8.175  0.2729  0.1624  0.0340
  163POPC   PO4 2259   8.456   3.368   8.055  0.0811  0.0063 -0.1697
  163POPC   GL1 2260   8.336   3.522   7.625 -0.1339 -0.0148 -0.1337
  163POPC   GL2 2261   8.671   3.596   7.375  0.0738  0.2248  0.1166
  163POPC   C1A 2262   7.996   3.367   7.419 -0.0584  0.3403  0.0486
  163POPC   D2A 2263   7.858   3.075   7.292  0.2002  0.1964  0.0582
  163POPC   C3A 2264   7.838   3.212   6.922  0.0889  0.0707  0.3413
  163POPC   C4A 2265   7.853   3.298   6.472  0.1425  0.2951  0.1535
  163POPC   C1B 2266   8.604   3.625   6.916  0.0028 -0.2516 -0.1660
  163POPC   C2B 2267   8.774   3.703   6.562 -0.1083  0.1442 -0.2852
  163POPC   C3B 2268   8.867   3.687   6.081 -0.1149  0.1462 -0.1946
  163POPC   C4B 2269   8.963   3.547   5.706  0.1062 -0.1797 -0.1031
  164POPC   NC3 2270   3.300   4.268   8.785  0.0895 -0.1682 -0.1595
  164POPC   PO4 2271   3.727   4.372   8.795 -0.0095  0.1555 -0.2915
  164POPC   GL1 2272   3.985   4.419   8.368 -0.0869 -0.3049  0.1027
  164POPC   GL2 2273   3.905   4.482   7.962  0.1503 -0.1775 -0.2386
  164POPC   C1A 2274   4.180   4.057   8.039  0.0284  0.2072 -0.0684
  164POPC   D2A 2275   4.219   3.988   7.557 -0.0494 -0.0240  0.1697
  164POPC   C3A 2276   4.630   3.943   7.481 -0.2302 -0.2131 -0.0281
  164POPC   C4A 2277   5.003   3.681   7.496  0.0077 -0.0745 -0.1105
  164POPC   C1B 2278   3.707   4.166   7.813 -0.0938 -0.1237 -0.1764
  164POPC   C2B 2279   3.740   3.982   7.500 -0.1373  0.2618 -0.1194
  164POPC   C3B 2280   3.950   3.808   7.113  0.2382 -0.1279 -0.0327
  164POPC   C4B 2281   4.027   3.905   6.707  0.3364 -0.0486 -0.4215
  165POPC   NC3 2282   5.880   9.888   8.038 -0.0744  0.1212  0.1016
  165POPC   PO4 2283   6.222  10.174   7.916 -0.0944 -0.0557  0.2002
  165POPC   GL1 2284   6.031  10.327   7.649  0.1651 -0.1189 -0.1648
  165POPC   GL2 2285   6.316  10.429   7.414 -0.1356 -0.2085  0.0724
  165POPC   C1A 2286   5.766  10.418   7.385  0.2038 -0.3097 -0.0461
  165POPC   D2A 2287   5.683  10.589   6.944 -0.0041 -0.0242 -0.1696
  165POPC   C3A 2288   5.516  10.997   6.799  0.0594 -0.2408 -0.0022
  165POPC   C4A 2289   5.608  11.291   6.622  0.4761  0.3846  0.0936
  165POPC   C1B 2290   6.169  10.563   7.087  0.0870  0.0889 -0.1418
  165POPC   C2B 2291   6.140  10.592   6.704  0.0658  0.0296  0.1259
  165POPC   C3B 2292   6.252  10.339   6.385  0.1337 -0.1277 -0.1579
  165POPC   C4B 2293   6.168  10.147   6.095 -0.1164  0.3089 -0.3209
  166POPC   NC3 2294   7.116   8.948   7.611 -0.3158 -0.1375  0.2424
  166POPC   PO4 2295   6.782   8.714   7.749 -0.1634  0.0955 -0.0751
  166POPC   GL1 2296   6.859   8.712   7.224  0.1579 -0.0474 -0.2165
  166POPC   GL2 2297   6.860   8.498   7.135  0.0281 -0.2540  0.1034
  166POPC   C1A 2298   6.665   8.747   6.764  0.1890  0.1433  0.1330
  166POPC   D2A 2299   6.651   8.385   6.501  0.2613 -0.0288  0.2024
  166POPC   C3A 2300   6.512   8.275   6.068 -0.2406 -0.1685 -0.2981
  166POPC   C4A 2301   6.115   8.103   5.801  0.0264 -0.0498 -0.0656
  166POPC   C1B 2302   7.059   8.364   6.754  0.3760 -0.2098 -0.0656
  166POPC   C2B 2303   7.098   8.091   6.324 -0.0806 -0.0101 -0.2536
  166POPC   C3B 2304   6.680   7.852   6.145  0.0478  0.1308 -0.2441
  166POPC   C4B 2305   6.378   7.735   5.834 -0.0927  0.0673 -0.0617
  167POPC   NC3 2306   3.981   8.286   8.649  0.1338 -0.3506  0.0090
  167POPC   PO4 2307   4.288   8.340   8.225 -0.0013  0.1251  0.1214
  167POPC   GL1 2308   4.318   8.481   7.855 -0.0519  0.1668  0.0908
  167POPC   GL2 2309   4.580   8.641   7.809 -0.1432  0.1626  0.2821
  167POPC   C1A 2310   4.180   8.735   7.377 -0.2054 -0.1520  0.0127
  167POPC   D2A 2311   4.468   8.949   7.082 -0.2254 -0.2263 -0.0116
  167POPC   C3A 2312   4.384   9.077   6.617 -0.2346  0.0905 -0.0305
  167POPC   C4A 2313   4.410   9.382   6.266 -0.2083 -0.2285 -0.3717
  167POPC   C1B 2314   4.571   8.354   7.472 -0.4887 -0.0728  0.0728
  167POPC   C2B 2315   4.170   8.259   7.136 -0.1905 -0.0342  0.3939
  167POPC   C3B 2316   4.029   8.155   6.672  0.2003  0.3515  0.0530
  167POPC   C4B 2317   3.930   8.294   6.300  0.2105 -0.0868 -0.1815
  168POPC   NC3 2318   5.945   6.356   7.516 -0.0390  0.0708 -0.2639
  168POPC   PO4 2319   6.274   6.586   7.579  0.2777  0.5932  0.0086
  168POPC   GL1 2320   6.260   6.462   7.158  0.0381  0.0915 -0.2717
  168POPC   GL2 2321   6.397   6.172   7.268  0.3888 -0.1674  0.2193
  168POPC   C1A 2322   6.293   6.401   6.666 -0.2047 -0.0847  0.5711
  168POPC   D2A 2323   6.427   6.250   6.282 -0.3007  0.0133  0.2416
  168POPC   C3A 2324   6.553   6.230   5.757 -0.1896  0.4636 -0.0702
  168POPC   C4A 2325   6.591   6.043   5.403 -0.0315 -0.0268 -0.0950
  168POPC   C1B 2326   6.476   5.950   6.928 -0.0347  0.3701  0.0847
  168POPC   C2B 2327   6.311   5.837   6.512  0.0678  0.0181  0.2369
  168POPC   C3B 2328   6.235   5.718   6.119 -0.0000 -0.2371 -0.4346
  168POPC   C4B 2329   6.296   5.346   5.927  0.1663 -0.0258  0.1891
  169POPC   NC3 2330   6.240   3.656   9.032 -0.1010 -0.1247 -0.0587
  169POPC   PO4 2331   6.262   3.858   8.622 -0.2410 -0.2133 -0.0334
  169POPC   GL1 2332   6.371   3.985   8.144 -0.1923  0.2288  0.0542
  169POPC   GL2 2333   6.061   4.101   8.014  0.4038 -0.1887  0.2080
  169POPC   C1A 2334   6.652   3.711   7.892 -0.1757 -0.0046 -0.1897
  169POPC   D2A 2335   6.772   3.300   7.900 -0.0776 -0.3021 -0.1253
  169POPC   C3A 2336   6.411   3.076   7.955  0.0162 -0.0832  0.1272
  169POPC   C4A 2337   6.352   2.649   8.183  0.2391 -0.1280  0.0879
  169POPC   C1B 2338   6.054   3.679   7.895  0.1302  0.1749  0.0854
  169POPC   C2B 2339   5.840   3.300   7.975 -0.0579 -0.3544  0.1007
  169POPC   C3B 2340   5.635   2.932   8.017 -0.4138  0.0009  0.3388
  169POPC   C4B 2341   5.275   2.730   7.727  0.0026 -0.3042  0.2105
  170POPC   NC3 2342   5.860   3.886   8.882  0.2091  0.0995 -0.1467
  170POPC   PO4 2343   5.406   4.136   8.772 -0.2691  0.0285  0.2370
  170POPC   GL1 2344   5.201   4.100   8.298  0.1936  0.1335 -0.1784
  170POPC   GL2 2345   5.081   3.827   8.387 -0.0386  0.0058  0.0572
  170POPC   C1A 2346   5.025   4.047   7.887  0.1903  0.1533  0.1081
  170POPC   D2A 2347   5.256   4.145   7.479  0.0759  0.2117 -0.1036
  170POPC   C3A 2348   5.525   4.411   7.307  0.0650 -0.0287 -0.0073
  170POPC   C4A 2349   5.825   4.806   7.261 -0.0248  0.0549  0.0354
  170POPC   C1B 2350   5.390   3.611   8.104  0.1976 -0.2026  0.1014
  170POPC   C2B 2351   5.423   3.631   7.763 -0.1690 -0.2551  0.1355
  170POPC   C3B 2352   5.390   3.743   7.251 -0.2614 -0.0503 -0.0235
  170POPC   C4B 2353   5.459   3.903   6.851  0.1433  0.2481 -0.3208
  171POPC   NC3 2354   7.920   4.525   7.809  0.0395  0.1092  0.1561
  171POPC   PO4 2355   8.019   4.901   7.686  0.1684 -0.2083 -0.1318
  171POPC   GL1 2356   7.905   4.920   7.279 -0.3120 -0.0195  0.1455
  171POPC   GL2 2357   7.719   4.562   7.185 -0.3183  0.2764  0.0167
  171POPC   C1A 2358   7.834   5.119   6.902 -0.4652 -0.0121 -0.0612
  171POPC   D2A 2359   7.598   4.965   6.668  0.1744  0.0964  0.0363
  171POPC   C3A 2360   7.762   4.828   6.258  0.3480 -0.0777 -0.3125
  171POPC   C4A 2361   7.871   4.958   5.920 -0.0416  0.0628 -0.1817
  171POPC   C1B 2362   7.963   4.559   6.736 -0.0251  0.0604 -0.1007
  171POPC   C2B 2363   8.239   4.520   6.448  0.1143 -0.1738 -0.0462
  171POPC   C3B 2364   8.320   4.746   6.043 -0.2731 -0.2542  0.2208
  171POPC   C4B 2365   8.298   4.864   5.680  0.0767 -0.0911  0.0321
  172POPC   NC3 2366   4.533   1.397   9.206 -0.2801  0.0007  0.0923
  172POPC   PO4 2367   4.934   1.243   8.883 -0.1461  0.0875 -0.0407
  172POPC   GL1 2368   5.138   1.109   8.480  0.0726 -0.0727 -0.1212
  172POPC   GL2 2369   5.349   1.307   8.469 -0.0655  0.0871  0.0539
  172POPC   C1A 2370   5.046   0.691   8.233  0.0195 -0.0202  0.0271
  172POPC   D2A 2371   5.009   0.577   7.915  0.0649 -0.1002 -0.2753
  172POPC   C3A 2372   5.355   0.560   7.465  0.2409  0.0682  0.0334
  172POPC   C4A 2373   5.448   0.229   7.273 -0.0761  0.1741  0.1518
  172POPC   C1B 2374   5.623   1.313   8.160  0.0280 -0.1457 -0.0463
  172POPC   C2B 2375   5.568   1.494   7.696  0.0158 -0.1668  0.3500
  172POPC   C3B 2376   5.770   1.872   7.459 -0.2207  0.1143 -0.1253
  172POPC   C4B 2377   6.073   2.274   7.445  0.1918 -0.1697 -0.1710
  173POPC   NC3 2378   9.047   7.207   8.180 -0.1421  0.0827 -0.2055
  173POPC   PO4 2379   9.082   7.585   7.865 -0.1453  0.0568  0.0902
  173POPC   GL1 2380   9.119   7.408   7.452  0.1120  0.1497  0.2840
  173POPC   GL2 2381   9.321   7.567   7.123 -0.0797  0.3369  0.0239
  173POPC   C1A 2382   8.883   7.186   7.078  0.0125  0.2151  0.1570
  173POPC   D2A 2383   8.743   6.829   6.961 -0.0415 -0.1052 -0.1159
  173POPC   C3A 2384   8.471   6.672   6.567 -0.2436 -0.2553 -0.2565
  173POPC   C4A 2385   8.300   6.700   6.174  0.1992  0.0698 -0.0863
  173POPC   C1B 2386   9.215   7.872   6.874  0.0741 -0.2759 -0.1459
  173POPC   C2B 2387   8.981   8.143   6.449  0.1678 -0.0605  0.2002
  173POPC   C3B 2388   8.777   8.081   6.080  0.1138  0.1324  0.2035
  173POPC   C4B 2389   8.824   8.302   5.726 -0.0396  0.1519 -0.0461
  174POPC   NC3 2390   0.551   2.026   4.074 -0.1584  0.0068 -0.0862
  174POPC   PO4 2391   0.927   2.230   3.948 -0.0733 -0.1087 -0.0548
  174POPC   GL1 2392   0.980   2.068   4.378 -0.0844 -0.0758 -0.0553
  174POPC   GL2 2393   0.828   2.250   4.573  0.0411  0.0372  0.3171
  174POPC   C1A 2394   1.248   1.821   4.695  0.0117 -0.1615 -0.2095
  174POPC   D2A 2395   1.320   1.473   4.903 -0.0240  0.2258  0.2636
  174POPC   C3A 2396   1.407   1.283   5.318  0.1432  0.1368 -0.0243
  174POPC   C4A 2397   1.563   1.222   5.762  0.1822  0.2252  0.1539
  174POPC   C1B 2398   0.943   2.197   4.904  0.1205  0.2494 -0.0678
  174POPC   C2B 2399   0.976   1.924   5.105 -0.2222 -0.2869  0.1608
  174POPC   C3B 2400   1.046   1.937   5.591  0.2869 -0.1465 -0.6493
  174POPC   C4B 2401   1.018   1.925   5.973 -0.2853 -0.1123  0.0991
  175POPC   NC3 2402   8.744   0.562   3.564 -0.0461  0.1603  0.2530
  175POPC   PO4 2403   8.986   0.928   3.575 -0.3266  0.0191 -0.1158
  175POPC   GL1 2404   8.955   0.959   4.026 -0.2828  0.2794 -0.2595
  175POPC   GL2 2405   9.107   0.891   4.221  0.3914  0.0437 -0.2691
  175POPC   C1A 2406   8.634   0.937   4.400  0.1880  0.2805 -0.0450
  175POPC   D2A 2407   8.673   0.976   4.831 -0.0687 -0.0672  0.0103
  175POPC   C3A 2408   8.313   1.162   5.079  0.1423  0.1251  0.2015
  175POPC   C4A 2409   8.278   1.334   5.511  0.2041  0.0833 -0.0123
  175POPC   C1B 2410   9.097   0.785   4.646 -0.6439  0.0290 -0.0916
  175POPC   C2B 2411   8.974   0.752   5.105 -0.3633  0.2186 -0.3525
  175POPC   C3B 2412   9.216   0.922   5.485 -0.4309 -0.0108 -0.0606
  175POPC   C4B 2413   9.635   0.768   5.719  0.0546  0.2612  0.1866
  176POPC   NC3 2414  10.580   1.250   3.878  0.1235 -0.3275 -0.0330
  176POPC   PO4 2415  10.139   1.222   3.853 -0.0949  0.2891  0.2810
  176POPC   GL1 2416  10.098   1.380   4.222 -0.1221 -0.0866  0.1090
  176POPC   GL2 2417   9.839   1.507   4.348  0.0265  0.0027  0.1039
  176POPC   C1A 2418  10.311   1.133   4.599 -0.1954 -0.0083 -0.1548
  176POPC   D2A 2419  10.547   1.071   4.890  0.1207  0.0497  0.1305
  176POPC   C3A 2420  10.456   0.870   5.317 -0.1277 -0.1528  0.1428
  176POPC   C4A 2421  10.388   0.571   5.563  0.1818  0.4865  0.2497
  176POPC   C1B 2422   9.802   1.183   4.613 -0.1447 -0.0428  0.1288
  176POPC   C2B 2423  10.001   0.959   5.045  0.1719 -0.0887  0.0782
  176POPC   C3B 2424  10.018   0.973   5.448  0.1593  0.0451  0.2229
  176POPC   C4B 2425  10.119   0.875   5.863 -0.0858 -0.0213 -0.1494
  177POPC   NC3 2426   3.083   9.179   3.609  0.3638  0.1445  0.2786
  177POPC   PO4 2427   3.183   9.647   3.723 -0.0649  0.0540 -0.1680
  177POPC   GL1 2428   3.141   9.803   4.177  0.2815 -0.0576 -0.2122
  177POPC   GL2 2429   2.965   9.717   4.403  0.0815  0.0501  0.1738
  177POPC   C1A 2430   3.357   9.424   4.556  0.1101  0.0842 -0.2904
  177POPC   D2A 2431   3.373   9.289   5.065  0.0102 -0.3596  0.0195
  177POPC   C3A 2432   2.989   9.461   5.333 -0.0606  0.1423 -0.1702
  177POPC   C4A 2433   2.807   9.260   5.630 -0.2838  0.1810 -0.0864
  177POPC   C1B 2434   2.670   9.833   4.636 -0.0499  0.0433 -0.0582
  177POPC   C2B 2435   2.604   9.900   5.104 -0.2048  0.1233 -0.5948
  177POPC   C3B 2436   2.647   9.780   5.503 -0.0203  0.0694 -0.0664
  177POPC   C4B 2437   2.380   9.529   5.763 -0.1159  0.0351 -0.1652
  178POPC   NC3 2438   5.643   3.741   3.603  0.1344  0.3283 -0.2484
  178POPC   PO4 2439   5.263   3.909   3.919  0.1673 -0.2547  0.2966
  178POPC   GL1 2440   5.550   3.713   4.133  0.0831 -0.0750 -0.2723
  178POPC   GL2 2441   5.369   3.443   4.195 -0.0525 -0.2198  0.0940
  178POPC   C1A 2442   5.901   3.476   4.434  0.0046  0.0310  0.0648
  178POPC   D2A 2443   5.825   3.067   4.666  0.0755  0.1859  0.0351
  178POPC   C3A 2444   5.455   2.941   4.843 -0.0898  0.0775  0.0954
  178POPC   C4A 2445   5.250   2.549   4.648  0.3625  0.1202 -0.1153
  178POPC   C1B 2446   5.424   3.465   4.653 -0.0122 -0.2984 -0.1757
  178POPC   C2B 2447   5.716   3.550   4.905  0.0689 -0.0772  0.1903
  178POPC   C3B 2448   5.830   3.866   5.182  0.1113  0.0934  0.1479
  178POPC   C4B 2449   6.185   3.967   5.406  0.2190  0.0152 -0.0716
  179POPC   NC3 2450   4.640   4.422   3.991 -0.0426  0.1539 -0.1978
  179POPC   PO4 2451   4.194   4.598   3.904 -0.1184  0.0022 -0.0316
  179POPC   GL1 2452   4.251   4.676   4.347  0.0367 -0.0055 -0.0062
  179POPC   GL2 2453   4.093   4.569   4.566 -0.1777 -0.1108 -0.1259
  179POPC   C1A 2454   4.406   4.839   4.829  0.0990 -0.3118  0.1740
  179POPC   D2A 2455   4.724   4.839   5.160 -0.0956 -0.1724 -0.0434
  179POPC   C3A 2456   4.823   5.309   5.422 -0.0693 -0.1942  0.0994
  179POPC   C4A 2457   4.564   5.570   5.672  0.1694  0.0714  0.0984
  179POPC   C1B 2458   3.709   4.688   4.766 -0.0164 -0.1848 -0.0619
  179POPC   C2B 2459   3.580   4.672   5.192 -0.0890 -0.1495  0.1148
  179POPC   C3B 2460   3.426   4.416   5.504  0.1138  0.0171  0.0383
  179POPC   C4B 2461   3.103   4.413   5.811  0.0508 -0.1329 -0.2262
  180POPC   NC3 2462   3.838   0.994   3.842 -0.4128 -0.0725  0.2096
  180POPC   PO4 2463   4.019   1.329   3.602  0.0699  0.3106  0.0608
  180POPC   GL1 2464   3.868   1.537   4.006 -0.0013 -0.0175  0.4636
  180POPC   GL2 2465   4.166   1.714   4.029  0.1802  0.0676 -0.0228
  180POPC   C1A 2466   3.889   1.439   4.387 -0.1055  0.2791  0.3153
  180POPC   D2A 2467   3.766   1.318   4.799 -0.0719  0.0191  0.1665
  180POPC   C3A 2468   3.902   0.847   4.947 -0.0903  0.2560 -0.1267
  180POPC   C4A 2469   3.629   0.567   5.109  0.0666  0.1579  0.1586
  180POPC   C1B 2470   4.019   1.894   4.448 -0.0750  0.2098 -0.0725
  180POPC   C2B 2471   4.057   1.717   4.935  0.4488 -0.1647  0.0305
  180POPC   C3B 2472   3.767   1.591   5.280 -0.1800  0.2146  0.0002
  180POPC   C4B 2473   3.405   1.639   5.566 -0.0414 -0.0128  0.5141
  181POPC   NC3 2474   8.310   3.752   3.689 -0.1975  0.2471  0.3593
  181POPC   PO4 2475   7.821   3.764   3.803  0.0107  0.1728 -0.0431
  181POPC   GL1 2476   7.995   3.517   4.177 -0.0740  0.2161  0.0421
  181POPC   GL2 2477   8.064   3.260   4.247 -0.1554 -0.0613 -0.1070
  181POPC   C1A 2478   7.748   3.622   4.561  0.2611  0.2645  0.0618
  181POPC   D2A 2479   7.483   3.744   4.892 -0.2361  0.0293  0.1207
  181POPC   C3A 2480   7.141   3.630   5.045  0.2258 -0.1949  0.0924
  181POPC   C4A 2481   6.772   3.825   5.271 -0.1610 -0.0181  0.0812
  181POPC   C1B 2482   8.096   3.288   4.692  0.1390  0.1734 -0.0776
  181POPC   C2B 2483   8.411   3.539   4.948  0.1426  0.2660  0.0347
  181POPC   C3B 2484   8.454   3.482   5.393  0.5631  0.4088 -0.1825
  181POPC   C4B 2485   8.595   3.284   5.756 -0.0749  0.0934  0.1518
  182POPC   NC3 2486  10.041   3.716   3.899  0.1541 -0.3977  0.1235
  182POPC   PO4 2487  10.539   3.761   3.883 -0.0131 -0.0926 -0.1502
  182POPC   GL1 2488  10.433   3.582   4.289  0.1370  0.2048  0.0344
  182POPC   GL2 2489  10.358   3.824   4.387 -0.1321 -0.2525 -0.5492
  182POPC   C1A 2490  10.185   3.499   4.689 -0.3222  0.0669 -0.2930
  182POPC   D2A 2491  10.368   3.556   5.100  0.0216  0.3446  0.2309
  182POPC   C3A 2492  10.076   3.508   5.539  0.0164  0.1152  0.0699
  182POPC   C4A 2493   9.910   3.366   5.977 -0.1680 -0.3571  0.1805
  182POPC   C1B 2494  10.613   4.147   4.523  0.1046 -0.0429 -0.1569
  182POPC   C2B 2495  10.700   4.217   4.893 -0.0801 -0.0051  0.2054
  182POPC   C3B 2496  10.708   4.473   5.218  0.0123 -0.1437  0.1265
  182POPC   C4B 2497  10.979   4.500   5.597 -0.2535  0.0718  0.0409
  183POPC   NC3 2498   6.027   4.572   3.991 -0.1023  0.0168 -0.3255
  183POPC   PO4 2499   6.337   4.932   4.156  0.3297  0.0014  0.2587
  183POPC   GL1 2500   6.320   4.500   4.362  0.0122 -0.2224  0.0995
  183POPC   GL2 2501   6.316   4.157   4.208  0.4957 -0.3198  0.0938
  183POPC   C1A 2502   6.385   4.351   4.807  0.1446 -0.0224  0.0821
  183POPC   D2A 2503   6.393   4.528   5.246  0.1916  0.0276  0.0753
  183POPC   C3A 2504   6.632   4.849   5.362  0.3757  0.0659 -0.2033
  183POPC   C4A 2505   6.671   5.155   5.313  0.0098  0.2563 -0.4073
  183POPC   C1B 2506   5.985   3.887   4.223  0.1664 -0.0446 -0.0306
  183POPC   C2B 2507   5.684   4.003   4.661  0.0807  0.1450  0.0901
  183POPC   C3B 2508   5.459   4.409   4.799  0.4756  0.4189 -0.2709
  183POPC   C4B 2509   5.266   4.732   5.118 -0.3613 -0.0872 -0.0572
  184POPC   NC3 2510   8.243   1.961   3.939  0.2601 -0.2104  0.0904
  184POPC   PO4 2511   8.532   2.362   4.122  0.4228 -0.2283 -0.2277
  184POPC   GL1 2512   8.090   2.340   4.342 -0.3553 -0.0496 -0.3954
  184POPC   GL2 2513   7.852   2.460   4.164  0.1973  0.1130 -0.0451
  184POPC   C1A 2514   7.756   2.064   4.542  0.1637 -0.0035 -0.0418
  184POPC   D2A 2515   7.562   1.860   4.798 -0.3939  0.1787  0.0162
  184POPC   C3A 2516   7.657   1.837   5.270  0.3340  0.1833  0.0403
  184POPC   C4A 2517   7.634   1.836   5.712  0.3225 -0.1019 -0.0970
  184POPC   C1B 2518   7.726   2.691   4.526  0.2010 -0.1914 -0.3676
  184POPC   C2B 2519   7.706   3.021   4.849  0.1252  0.0779  0.0215
  184POPC   C3B 2520   7.702   3.341   5.083  0.1691 -0.0432 -0.0448
  184POPC   C4B 2521   7.575   3.581   5.363 -0.1526  0.3494  0.2335
  185POPC   NC3 2522   6.860   7.293   2.911  0.3974  0.1380  0.0314
  185POPC   PO4 2523   6.972   7.458   3.348  0.1705 -0.3139  0.3006
  185POPC   GL1 2524   6.615   7.353   3.726 -0.0193 -0.0140  0.0685
  185POPC   GL2 2525   6.587   7.584   3.942 -0.2003  0.2106  0.2041
  185POPC   C1A 2526   6.618   7.148   4.110 -0.0479 -0.0415 -0.0455
  185POPC   D2A 2527   6.934   6.978   4.371  0.2446 -0.2104 -0.1155
  185POPC   C3A 2528   6.852   6.749   4.704 -0.0644 -0.0727  0.1607
  185POPC   C4A 2529   6.770   6.911   5.119 -0.1631  0.1647 -0.1193
  185POPC   C1B 2530   6.481   7.658   4.303  0.0177 -0.0438 -0.1591
  185POPC   C2B 2531   6.516   7.816   4.712 -0.2253 -0.1387  0.1025
  185POPC   C3B 2532   6.497   7.588   5.012  0.2133 -0.3023 -0.0533
  185POPC   C4B 2533   6.548   7.328   5.344 -0.1131  0.0160  0.0757
  186POPC   NC3 2534   0.563   5.589   3.709  0.0708 -0.0373 -0.4073
  186POPC   PO4 2535   0.158   5.368   3.934 -0.0849 -0.1722  0.1520
  186POPC   GL1 2536   0.269   5.341   4.383 -0.0135 -0.2768  0.1689
  186POPC   GL2 2537   0.123   5.155   4.487 -0.0297  0.1213  0.0875
  186POPC   C1A 2538   0.031   5.658   4.666 -0.0978  0.3386  0.1057
  186POPC   D2A 2539  -0.209   5.675   4.920 -0.1044 -0.1030 -0.3778
  186POPC   C3A 2540  -0.540   6.010   4.948 -0.1038 -0.3256  0.1331
  186POPC   C4A 2541  -0.924   6.071   5.254  0.1311  0.0455 -0.2511
  186POPC   C1B 2542   0.154   5.184   4.872 -0.0281 -0.1315 -0.2431
  186POPC   C2B 2543   0.097   5.436   5.245 -0.1396 -0.2216 -0.0132
  186POPC   C3B 2544   0.157   5.426   5.654 -0.0104 -0.1913 -0.0877
  186POPC   C4B 2545  -0.173   5.480   5.925  0.1449  0.2956  0.2162
  187POPC   NC3 2546   9.503   9.068   3.627  0.2782  0.3102 -0.2781
  187POPC   PO4 2547   9.360   8.630   3.510 -0.3401  0.1591  0.1037
  187POPC   GL1 2548   9.440   8.781   3.990 -0.0677  0.1672 -0.1743
  187POPC   GL2 2549   9.458   9.037   4.146  0.1359  0.0943 -0.0267
  187POPC   C1A 2550   9.579   8.645   4.456  0.0939  0.1650 -0.3503
  187POPC   D2A 2551   9.550   8.423   4.888  0.1486  0.0342 -0.1422
  187POPC   C3A 2552   9.266   8.302   5.223 -0.1475 -0.3164 -0.0963
  187POPC   C4A 2553   8.870   8.165   5.203 -0.1158  0.0609 -0.3513
  187POPC   C1B 2554   9.696   9.091   4.489  0.0311 -0.1202  0.0249
  187POPC   C2B 2555   9.733   8.909   4.927  0.1402 -0.2600 -0.3143
  187POPC   C3B 2556   9.909   8.615   5.113 -0.1740  0.0000 -0.2197
  187POPC   C4B 2557  10.160   8.568   5.548  0.2241 -0.3118  0.6932
  188POPC   NC3 2558   1.607   8.278   3.785 -0.1680 -0.3188  0.1165
  188POPC   PO4 2559   1.766   7.914   3.761  0.1534  0.2216 -0.1621
  188POPC   GL1 2560   1.935   8.057   4.056  0.3064 -0.1450 -0.2115
  188POPC   GL2 2561   1.688   8.120   4.248  0.0518  0.1109  0.2044
  188POPC   C1A 2562   2.165   7.916   4.433  0.0560  0.0498 -0.4574
  188POPC   D2A 2563   2.046   7.579   4.581 -0.2144  0.1286 -0.3117
  188POPC   C3A 2564   2.178   7.177   4.709  0.0683 -0.0945 -0.0988
  188POPC   C4A 2565   2.152   6.763   4.488 -0.2037 -0.1471  0.0796
  188POPC   C1B 2566   1.756   8.198   4.666  0.1045 -0.0429  0.2372
  188POPC   C2B 2567   1.768   8.461   5.067  0.0228 -0.0972 -0.0325
  188POPC   C3B 2568   1.736   8.356   5.547  0.2021  0.0134  0.1659
  188POPC   C4B 2569   2.023   8.210   5.931 -0.0251 -0.0603  0.0709
  189POPC   NC3 2570  10.023   8.314   3.415  0.0853 -0.0950  0.0378
  189POPC   PO4 2571  10.303   7.993   3.370  0.2936  0.2559 -0.1290
  189POPC   GL1 2572  10.224   8.032   3.771  0.2000 -0.0457 -0.1554
  189POPC   GL2 2573  10.473   8.013   4.017  0.1219 -0.2548  0.0489
  189POPC   C1A 2574  10.071   7.744   4.161  0.0877  0.2913  0.0649
  189POPC   D2A 2575   9.833   7.467   4.244 -0.0987  0.1435 -0.0068
  189POPC   C3A 2576   9.839   7.298   4.723  0.2087  0.1822 -0.1846
  189POPC   C4A 2577   9.661   7.261   5.166  0.2937 -0.3124  0.0178
  189POPC   C1B 2578  10.506   7.848   4.423 -0.3040  0.0826 -0.1601
  189POPC   C2B 2579  10.470   7.823   4.858  0.2113  0.0436  0.1840
  189POPC   C3B 2580  10.644   7.835   5.273 -0.0190  0.1527  0.0461
  189POPC   C4B 2581  10.714   7.635   5.757  0.0039  0.2343  0.0645
  190POPC   NC3 2582   7.903   9.103   3.621  0.2439 -0.1244  0.0802
  190POPC   PO4 2583   7.826   8.741   3.819 -0.0704 -0.3396 -0.3645
  190POPC   GL1 2584   7.846   8.861   4.227  0.1731 -0.0150  0.1033
  190POPC   GL2 2585   7.936   9.180   4.120  0.2602 -0.0602  0.0732
  190POPC   C1A 2586   7.724   8.874   4.579  0.0216  0.0780  0.0898
  190POPC   D2A 2587   7.481   8.746   4.996 -0.1479  0.2085 -0.0823
  190POPC   C3A 2588   7.461   8.950   5.414 -0.0964 -0.1880  0.0828
  190POPC   C4A 2589   7.212   8.819   5.845  0.0219 -0.0404  0.0128
  190POPC   C1B 2590   8.128   9.335   4.492  0.1012 -0.0044  0.0119
  190POPC   C2B 2591   8.331   9.508   4.772 -0.3494  0.0520  0.2327
  190POPC   C3B 2592   8.065   9.535   5.144  0.2841  0.0639  0.2100
  190POPC   C4B 2593   7.763   9.493   5.465  0.0898  0.1669  0.2728
  191POPC   NC3 2594   0.881   7.975   3.872  0.1347 -0.1941  0.1338
  191POPC   PO4 2595   1.082   8.313   3.591 -0.0280  0.1302  0.1421
  191POPC   GL1 2596   1.207   8.364   4.114  0.4044  0.0228  0.1522
  191POPC   GL2 2597   1.454   8.637   4.118  0.0180  0.4281  0.0772
  191POPC   C1A 2598   1.226   8.250   4.528  0.1563  0.1257  0.5831
  191POPC   D2A 2599   1.342   8.273   5.000  0.3746  0.1842 -0.5605
  191POPC   C3A 2600   1.239   8.172   5.369  0.1924 -0.1026 -0.2152
  191POPC   C4A 2601   1.109   7.958   5.785 -0.1555  0.1756  0.2066
  191POPC   C1B 2602   1.496   8.671   4.452  0.1350 -0.0022 -0.0733
  191POPC   C2B 2603   1.328   8.809   4.895  0.1601  0.1565 -0.0102
  191POPC   C3B 2604   1.158   8.696   5.232  0.2634 -0.1870 -0.0332
  191POPC   C4B 2605   0.740   8.675   5.399 -0.3571  0.1756  0.0067
  192POPC   NC3 2606   8.050   1.787   3.123  0.3121 -0.1798  0.0987
  192POPC   PO4 2607   8.021   1.975   3.476 -0.0139 -0.2511 -0.2122
  192POPC   GL1 2608   7.731   2.073   3.822 -0.0083 -0.4332 -0.1843
  192POPC   GL2 2609   7.752   1.787   4.054  0.4460 -0.1192 -0.2918
  192POPC   C1A 2610   7.286   2.043   3.802 -0.0315 -0.3797  0.1933
  192POPC   D2A 2611   7.046   2.063   4.217  0.0961  0.2022 -0.1648
  192POPC   C3A 2612   6.790   2.469   4.333  0.0734  0.0067  0.1251
  192POPC   C4A 2613   6.585   2.833   4.260  0.0831  0.0308  0.0484
  192POPC   C1B 2614   7.466   1.814   4.316  0.2558  0.0588 -0.0927
  192POPC   C2B 2615   7.142   1.690   4.555  0.1046  0.0586  0.0606
  192POPC   C3B 2616   7.103   1.736   5.014 -0.0782 -0.0621 -0.0820
  192POPC   C4B 2617   7.160   1.782   5.390 -0.0383  0.1450 -0.0868
  193POPC   NC3 2618   6.432   5.444   4.006  0.2088 -0.3200  0.2538
  193POPC   PO4 2619   6.911   5.592   4.035 -0.0498 -0.0158  0.0507
  193POPC   GL1 2620   6.697   5.505   4.414 -0.0128 -0.1146  0.0525
  193POPC   GL2 2621   6.403   5.289   4.510 -0.2447 -0.2734  0.1451
  193POPC   C1A 2622   6.644   5.666   4.825  0.2647  0.2384 -0.0992
  193POPC   D2A 2623   6.807   5.670   5.171  0.1843 -0.1062  0.1493
  193POPC   C3A 2624   7.246   5.534   5.264 -0.0432  0.0206  0.0067
  193POPC   C4A 2625   7.616   5.257   5.547  0.0252  0.1706  0.0516
  193POPC   C1B 2626   6.536   5.022   4.820 -0.0672 -0.0015 -0.3869
  193POPC   C2B 2627   6.821   4.631   4.915  0.0020  0.1833 -0.0516
  193POPC   C3B 2628   6.833   4.395   5.210  0.1307  0.0803  0.0252
  193POPC   C4B 2629   6.573   4.192   5.587  0.3735  0.1950 -0.2245
  194POPC   NC3 2630  10.162   4.177   4.067 -0.2281 -0.0554 -0.1271
  194POPC   PO4 2631   9.831   4.449   3.986 -0.1409  0.3114 -0.0177
  194POPC   GL1 2632   9.768   4.443   4.446  0.0685  0.2424 -0.0991
  194POPC   GL2 2633   9.900   4.163   4.543 -0.0252 -0.0613 -0.1372
  194POPC   C1A 2634   9.748   4.353   4.938 -0.0235 -0.1824  0.0646
  194POPC   D2A 2635   9.739   4.319   5.404  0.2512 -0.1022 -0.1169
  194POPC   C3A 2636   9.980   4.121   5.677 -0.1672 -0.4346  0.0890
  194POPC   C4A 2637   9.858   3.933   6.065 -0.0840 -0.0823  0.0287
  194POPC   C1B 2638  10.148   4.005   4.809  0.0481  0.1502 -0.1515
  194POPC   C2B 2639  10.319   4.102   5.201  0.0391  0.0498 -0.1986
  194POPC   C3B 2640  10.424   3.879   5.479  0.1160 -0.1070  0.2362
  194POPC   C4B 2641  10.459   3.894   5.939 -0.2115  0.1551 -0.0168
  195POPC   NC3 2642   3.303  10.022   3.406 -0.3277 -0.0044 -0.1380
  195POPC   PO4 2643   2.987  10.204   3.920 -0.1626  0.4741 -0.4346
  195POPC   GL1 2644   2.936  10.237   4.399 -0.0210 -0.1671 -0.0439
  195POPC   GL2 2645   2.987  10.572   4.483 -0.2474  0.2096 -0.1036
  195POPC   C1A 2646   2.909  10.225   4.880 -0.2147  0.1229 -0.1806
  195POPC   D2A 2647   2.916  10.192   5.337 -0.3910 -0.0262  0.0276
  195POPC   C3A 2648   3.101   9.900   5.553 -0.2461 -0.2118 -0.3927
  195POPC   C4A 2649   3.482   9.679   5.420 -0.2277 -0.2247 -0.2767
  195POPC   C1B 2650   2.928  10.701   4.972 -0.0229 -0.1484  0.3463
  195POPC   C2B 2651   2.821  10.825   5.272  0.1939 -0.2664  0.0784
  195POPC   C3B 2652   2.802  10.608   5.673  0.0984 -0.0150  0.0213
  195POPC   C4B 2653   3.062  10.453   5.964 -0.2556  0.0066  0.1495
  196POPC   NC3 2654   9.077   1.802   4.133  0.2449  0.1512  0.0775
  196POPC   PO4 2655   8.552   1.585   4.055 -0.1352 -0.0137  0.1306
  196POPC   GL1 2656   8.231   1.533   4.104 -0.1724 -0.0140 -0.0679
  196POPC   GL2 2657   8.147   1.740   4.392 -0.1838  0.2396  0.0786
  196POPC   C1A 2658   8.032   1.103   4.038  0.0992 -0.0222  0.0286
  196POPC   D2A 2659   7.721   0.817   4.153 -0.4001 -0.1751  0.1500
  196POPC   C3A 2660   7.787   0.763   4.558 -0.0286  0.0934 -0.2785
  196POPC   C4A 2661   7.817   1.091   4.854 -0.0871  0.0294  0.1344
  196POPC   C1B 2662   8.030   1.698   4.869 -0.1420 -0.1257 -0.0887
  196POPC   C2B 2663   8.301   1.771   5.282  0.4291 -0.0761  0.1630
  196POPC   C3B 2664   8.614   1.732   5.693  0.0732 -0.1373  0.0784
  196POPC   C4B 2665   8.637   1.759   6.174  0.3748  0.0569  0.1468
  197POPC   NC3 2666   3.892   3.340   3.666  0.0365 -0.0557  0.0480
  197POPC   PO4 2667   4.105   2.907   3.735  0.2084  0.0065  0.0779
  197POPC   GL1 2668   4.222   3.129   4.044 -0.0427  0.0812 -0.0663
  197POPC   GL2 2669   4.059   3.344   4.117  0.1776  0.0554  0.3412
  197POPC   C1A 2670   4.391   3.172   4.474 -0.0251 -0.0463 -0.2692
  197POPC   D2A 2671   4.338   3.409   4.959  0.1762  0.0660 -0.0682
  197POPC   C3A 2672   4.331   3.363   5.417 -0.0033  0.0050 -0.2000
  197POPC   C4A 2673   4.435   3.391   5.803 -0.3252 -0.0431  0.3510
  197POPC   C1B 2674   3.955   3.559   4.546  0.3295 -0.1044  0.3365
  197POPC   C2B 2675   3.914   3.604   4.847  0.2034 -0.0480 -0.0731
  197POPC   C3B 2676   4.151   3.861   5.135 -0.0262  0.0953  0.2835
  197POPC   C4B 2677   4.431   3.880   5.426 -0.1627 -0.2213  0.0524
  198POPC   NC3 2678   9.665   2.189   3.831  0.1353 -0.0258  0.1391
  198POPC   PO4 2679   9.533   1.919   4.146  0.0383  0.0287  0.2814
  198POPC   GL1 2680   9.705   1.967   4.526  0.0494 -0.2834 -0.1659
  198POPC   GL2 2681   9.592   2.262   4.745  0.2863 -0.0935 -0.1092
  198POPC   C1A 2682   9.988   1.895   4.890 -0.0033 -0.0507  0.3878
  198POPC   D2A 2683  10.112   1.965   5.316 -0.0754  0.0654 -0.1978
  198POPC   C3A 2684   9.810   2.144   5.559 -0.3248  0.2701 -0.2960
  198POPC   C4A 2685   9.445   2.450   5.573 -0.0596 -0.1380 -0.3159
  198POPC   C1B 2686   9.566   2.109   5.150  0.1434 -0.3549 -0.0901
  198POPC   C2B 2687   9.496   1.777   5.448  0.0364  0.0516 -0.2665
  198POPC   C3B 2688   9.604   1.614   5.852 -0.1452  0.1884 -0.2127
  198POPC   C4B 2689   9.842   1.239   5.976 -0.0641 -0.0193  0.1366
  199POPC   NC3 2690   2.590   1.009   3.776  0.0055 -0.2385 -0.1021
  199POPC   PO4 2691   2.544   0.571   3.743 -0.0124  0.1705  0.2702
  199POPC   GL1 2692   2.727   0.569   4.147  0.1118  0.1960  0.3383
  199POPC   GL2 2693   2.680   0.271   4.351  0.2304  0.1140 -0.2333
  199POPC   C1A 2694   2.738   0.763   4.580 -0.0203  0.0013  0.1399
  199POPC   D2A 2695   2.702   0.543   4.938  0.0382 -0.1082  0.1414
  199POPC   C3A 2696   2.589   0.747   5.236 -0.0766  0.0423 -0.1129
  199POPC   C4A 2697   2.650   1.203   5.475 -0.0342 -0.1227 -0.2785
  199POPC   C1B 2698   2.384   0.395   4.613 -0.1572  0.1023 -0.0089
  199POPC   C2B 2699   2.286   0.852   4.846  0.0870 -0.0675 -0.1292
  199POPC   C3B 2700   2.231   1.124   5.241 -0.2296  0.1726  0.1552
  199POPC   C4B 2701   2.111   1.054   5.600 -0.0410  0.1188 -0.0146
  200POPC   NC3 2702   8.159   4.888   3.865 -0.1215 -0.0537 -0.3078
  200POPC   PO4 2703   8.522   4.668   3.968 -0.1785  0.1728  0.0439
  200POPC   GL1 2704   8.501   4.801   4.446 -0.0693  0.0106  0.1436
  200POPC   GL2 2705   8.625   5.050   4.489 -0.1994 -0.0329 -0.0252
  200POPC   C1A 2706   8.705   4.652   4.785 -0.0934  0.2480  0.2896
  200POPC   D2A 2707   8.826   4.320   5.058 -0.0683  0.3070  0.1287
  200POPC   C3A 2708   8.803   4.358   5.482  0.1436 -0.0437 -0.0276
  200POPC   C4A 2709   8.804   4.497   5.877  0.1466  0.1183  0.0492
  200POPC   C1B 2710   8.918   5.115   4.843  0.2509  0.1083 -0.0572
  200POPC   C2B 2711   9.027   5.454   5.007 -0.2068  0.0434 -0.1584
  200POPC   C3B 2712   9.061   5.621   5.409  0.3283  0.0363  0.1305
  200POPC   C4B 2713   9.360   5.867   5.669 -0.1209  0.1554 -0.2313
  201POPC   NC3 2714   7.711   5.001   4.057 -0.1321  0.1729 -0.1715
  201POPC   PO4 2715   7.254   4.812   3.887 -0.3744 -0.0958  0.3122
  201POPC   GL1 2716   7.251   4.682   4.257 -0.0169 -0.1574  0.1165
  201POPC   GL2 2717   7.028   4.859   4.371  0.1634  0.0543 -0.1534
  201POPC   C1A 2718   7.299   4.621   4.715  0.1400  0.1341  0.1168
  201POPC   D2A 2719   7.325   4.473   5.178 -0.3879 -0.0958 -0.3687
  201POPC   C3A 2720   7.732   4.280   5.356 -0.2470 -0.0106 -0.4276
  201POPC   C4A 2721   7.664   4.003   5.753  0.5187  0.1114 -0.0447
  201POPC   C1B 2722   7.076   5.123   4.751 -0.0212  0.1194  0.0380
  201POPC   C2B 2723   7.065   4.956   5.172 -0.0629  0.1749  0.1093
  201POPC   C3B 2724   7.009   5.066   5.608 -0.1042  0.0509  0.1548
  201POPC   C4B 2725   6.835   5.509   5.749  0.0714 -0.1960  0.1242
  202POPC   NC3 2726   0.333   5.907   4.055 -0.0125  0.0494 -0.0068
  202POPC   PO4 2727   0.774   6.037   4.013 -0.0274 -0.1240  0.3510
  202POPC   GL1 2728   0.641   6.162   4.366  0.1049  0.0367 -0.2180
  202POPC   GL2 2729   0.759   6.477   4.376  0.3133  0.0947 -0.0342
  202POPC   C1A 2730   0.439   6.159   4.725  0.2003 -0.3258  0.1944
  202POPC   D2A 2731   0.257   6.020   5.097  0.2507  0.0075  0.0150
  202POPC   C3A 2732  -0.042   5.996   5.407 -0.2075 -0.0034 -0.2485
  202POPC   C4A 2733  -0.476   6.033   5.434  0.0095  0.0247  0.0986
  202POPC   C1B 2734   0.766   6.505   4.803 -0.1284 -0.1342  0.1423
  202POPC   C2B 2735   0.598   6.625   5.192 -0.1636 -0.2895 -0.0210
  202POPC   C3B 2736   0.445   6.845   5.432  0.0826  0.0525 -0.0168
  202POPC   C4B 2737   0.244   7.296   5.427  0.5360 -0.0825 -0.0280
  203POPC   NC3 2738   0.113   8.095   3.638 -0.3029  0.0832 -0.0591
  203POPC   PO4 2739   0.080   7.613   3.588 -0.3484  0.1741 -0.2318
  203POPC   GL1 2740   0.098   7.511   4.036 -0.0700 -0.0747  0.2074
  203POPC   GL2 2741   0.021   7.281   4.151  0.0425 -0.2574  0.0563
  203POPC   C1A 2742   0.356   7.608   4.431  0.0564 -0.0484 -0.0424
  203POPC   D2A 2743   0.356   7.802   4.713  0.0839  0.1046 -0.1552
  203POPC   C3A 2744   0.372   7.606   5.066 -0.1773  0.0561  0.1550
  203POPC   C4A 2745   0.494   7.696   5.523  0.1790 -0.1289  0.1310
  203POPC   C1B 2746   0.102   7.237   4.562 -0.0326 -0.1231  0.1238
  203POPC   C2B 2747  -0.080   7.372   5.025 -0.3444 -0.2470  0.0958
  203POPC   C3B 2748  -0.263   7.473   5.469  0.2839  0.0491  0.2202
  203POPC   C4B 2749  -0.694   7.335   5.590  0.0859 -0.0713  0.0953
  204POPC   NC3 2750   0.101   4.531   3.528  0.1795 -0.2315 -0.0919
  204POPC   PO4 2751  -0.268   4.612   3.845  0.1118  0.2940  0.2525
  204POPC   GL1 2752  -0.366   4.663   4.247 -0.0701  0.1066  0.0289
  204POPC   GL2 2753  -0.668   4.842   4.343 -0.0475 -0.0748  0.1709
  204POPC   C1A 2754  -0.361   4.495   4.583  0.0500  0.3503 -0.0293
  204POPC   D2A 2755  -0.326   4.581   4.973  0.2536  0.1141  0.0842
  204POPC   C3A 2756  -0.417   4.545   5.356  0.1314 -0.0789  0.3473
  204POPC   C4A 2757  -0.081   4.328   5.684  0.3294  0.0817  0.1487
  204POPC   C1B 2758  -0.806   4.798   4.751 -0.0002 -0.0010  0.1215
  204POPC   C2B 2759  -0.816   4.799   5.194 -0.3083  0.3880 -0.0108
  204POPC   C3B 2760  -0.944   4.978   5.639 -0.0817  0.0062  0.1324
  204POPC   C4B 2761  -1.037   4.970   6.084 -0.1462 -0.1311 -0.3559
  205POPC   NC3 2762   2.032   6.178   3.828 -0.1737  0.1327 -0.0049
  205POPC   PO4 2763   1.606   6.276   3.949 -0.0443 -0.0911  0.1619
  205POPC   GL1 2764   1.475   6.164   4.330 -0.2944 -0.2193 -0.2039
  205POPC   GL2 2765   1.142   6.161   4.377  0.1997  0.2121  0.1425
  205POPC   C1A 2766   1.477   5.846   4.742 -0.0254 -0.0087 -0.0002
  205POPC   D2A 2767   1.757   5.624   5.132 -0.3033  0.0787 -0.2289
  205POPC   C3A 2768   2.205   5.751   5.074 -0.0916  0.1032  0.2372
  205POPC   C4A 2769   2.579   5.642   5.309 -0.0344 -0.2817 -0.0778
  205POPC   C1B 2770   0.903   5.953   4.774 -0.2405 -0.1119  0.1063
  205POPC   C2B 2771   0.774   6.118   5.162  0.0745 -0.1439  0.0895
  205POPC   C3B 2772   0.795   6.371   5.537 -0.0116  0.2720 -0.5178
  205POPC   C4B 2773   0.861   6.819   5.656 -0.0833 -0.2132 -0.2498
  206POPC   NC3 2774   2.581   3.480   3.398  0.1186 -0.0237  0.0891
  206POPC   PO4 2775   2.569   3.429   3.907  0.2561  0.2186 -0.1010
  206POPC   GL1 2776   2.494   3.287   4.310  0.1697  0.1961  0.0057
  206POPC   GL2 2777   2.220   3.352   4.496  0.3005  0.1172 -0.3483
  206POPC   C1A 2778   2.618   3.036   4.650 -0.1794  0.1290  0.2705
  206POPC   D2A 2779   3.018   3.213   4.919  0.0400  0.2027  0.0925
  206POPC   C3A 2780   3.124   2.816   5.103  0.0486  0.1968 -0.0181
  206POPC   C4A 2781   3.319   2.395   5.243 -0.3247 -0.1354 -0.2056
  206POPC   C1B 2782   2.358   3.348   4.905 -0.3307  0.0263 -0.1377
  206POPC   C2B 2783   2.406   3.214   5.449  0.1070 -0.1360  0.0550
  206POPC   C3B 2784   2.583   3.230   5.916 -0.1690 -0.3175 -0.2021
  206POPC   C4B 2785   2.926   3.482   6.028 -0.1837  0.0585 -0.1425
  207POPC   NC3 2786   5.344   1.031   3.682  0.0755  0.0318 -0.0819
  207POPC   PO4 2787   5.694   0.692   3.637  0.1829 -0.0269 -0.0455
  207POPC   GL1 2788   5.926   0.622   3.990 -0.0393 -0.2077 -0.2444
  207POPC   GL2 2789   6.170   0.707   3.965 -0.1698 -0.2339  0.0825
  207POPC   C1A 2790   6.024   0.405   4.402  0.0096  0.1858 -0.0504
  207POPC   D2A 2791   5.850   0.327   4.786  0.1162  0.0935  0.0119
  207POPC   C3A 2792   6.092   0.464   5.192 -0.0978 -0.1064  0.1670
  207POPC   C4A 2793   6.430   0.488   5.595  0.0092 -0.0936 -0.1526
  207POPC   C1B 2794   6.255   0.862   4.347 -0.1161  0.0938 -0.2634
  207POPC   C2B 2795   6.084   0.777   4.760  0.0220 -0.3146 -0.2616
  207POPC   C3B 2796   5.740   0.800   4.977  0.0571  0.0530 -0.0898
  207POPC   C4B 2797   5.624   0.531   5.224 -0.3133  0.1503  0.0728
  208POPC   NC3 2798   0.912   4.856   3.847  0.0703 -0.0598 -0.0127
  208POPC   PO4 2799   1.024   5.427   3.873 -0.1217  0.0116 -0.0448
  208POPC   GL1 2800   0.972   5.614   4.313 -0.3635 -0.2199  0.0054
  208POPC   GL2 2801   0.680   5.642   4.335  0.3000  0.2674 -0.2670
  208POPC   C1A 2802   1.063   5.481   4.696 -0.0932  0.1357  0.1017
  208POPC   D2A 2803   1.101   4.958   4.739  0.1799 -0.2980  0.1877
  208POPC   C3A 2804   0.988   4.790   5.176 -0.3918 -0.1497  0.4653
  208POPC   C4A 2805   0.816   4.918   5.531 -0.0506  0.0494  0.4707
  208POPC   C1B 2806   0.547   5.607   4.771  0.0430 -0.1478  0.0377
  208POPC   C2B 2807   0.633   5.611   5.177 -0.3451  0.2414  0.0427
  208POPC   C3B 2808   0.676   5.380   5.540  0.3025  0.0966  0.2465
  208POPC   C4B 2809   0.978   5.307   5.854 -0.2580  0.2083  0.0355
  209POPC   NC3 2810   2.440   2.191   4.010  0.0553 -0.2065 -0.0028
  209POPC   PO4 2811   2.720   1.854   3.876 -0.0405 -0.0034  0.0972
  209POPC   GL1 2812   3.026   1.637   4.209 -0.1276  0.0273 -0.1379
  209POPC   GL2 2813   3.285   1.753   3.955 -0.2855  0.0290 -0.0486
  209POPC   C1A 2814   2.731   1.525   4.678 -0.2187 -0.1046 -0.2380
  209POPC   D2A 2815   2.686   1.236   4.959 -0.1495  0.1576  0.0135
  209POPC   C3A 2816   3.018   0.991   4.905  0.1017  0.0351  0.0779
  209POPC   C4A 2817   3.427   0.933   4.859 -0.4563  0.0599  0.1885
  209POPC   C1B 2818   3.521   1.757   4.313  0.0088  0.0376  0.0676
  209POPC   C2B 2819   3.593   1.866   4.708  0.0248  0.1373 -0.0153
  209POPC   C3B 2820   3.196   1.894   5.162 -0.2908  0.0235 -0.1971
  209POPC   C4B 2821   2.838   1.641   5.327  0.3037  0.1544 -0.2666
  210POPC   NC3 2822   8.980   6.057   3.633 -0.1036 -0.0577  0.0659
  210POPC   PO4 2823   9.256   5.578   3.769  0.1836 -0.2025 -0.2249
  210POPC   GL1 2824   9.226   5.605   4.196 -0.0422 -0.1536 -0.1168
  210POPC   GL2 2825   9.101   5.362   4.404  0.2857  0.0320  0.0445
  210POPC   C1A 2826   9.207   5.961   4.566  0.1569 -0.0313 -0.5697
  210POPC   D2A 2827   9.252   5.895   5.012  0.1897  0.2689 -0.0015
  210POPC   C3A 2828   9.562   5.583   5.142  0.1136 -0.1921 -0.2850
  210POPC   C4A 2829   9.900   5.483   5.589  0.3709 -0.1151  0.3330
  210POPC   C1B 2830   9.379   5.500   4.678  0.2689 -0.0158 -0.2392
  210POPC   C2B 2831   9.717   5.740   4.626 -0.0004 -0.2945  0.0198
  210POPC   C3B 2832   9.676   6.132   4.560  0.0801 -0.0524  0.0258
  210POPC   C4B 2833   9.550   6.504   4.368  0.1161 -0.2996 -0.1194
  211POPC   NC3 2834   2.949   1.392   3.800  0.3629 -0.1369 -0.0625
  211POPC   PO4 2835   3.484   1.325   3.779  0.0626  0.0715 -0.0897
  211POPC   GL1 2836   3.504   1.094   4.246 -0.0084 -0.2380  0.1688
  211POPC   GL2 2837   3.668   0.839   4.384 -0.1943  0.0642 -0.1037
  211POPC   C1A 2838   3.220   1.379   4.625  0.0236  0.2877 -0.0591
  211POPC   D2A 2839   3.256   1.386   5.059  0.1722 -0.0090  0.1086
  211POPC   C3A 2840   3.206   1.218   5.381 -0.2413 -0.0313 -0.0579
  211POPC   C4A 2841   3.412   1.037   5.486  0.2031  0.0045 -0.0920
  211POPC   C1B 2842   3.714   0.488   4.637 -0.0957  0.0028 -0.0318
  211POPC   C2B 2843   4.060   0.147   4.712  0.3587  0.1267 -0.1375
  211POPC   C3B 2844   4.191  -0.120   5.110  0.0901 -0.2657  0.1099
  211POPC   C4B 2845   4.450  -0.081   5.470 -0.1607 -0.1286  0.0316
  212POPC   NC3 2846   4.856   8.761   3.460 -0.1367  0.4360 -0.0184
  212POPC   PO4 2847   4.809   8.356   3.855 -0.3046 -0.0048  0.2867
  212POPC   GL1 2848   4.851   8.325   4.284  0.1980 -0.1896  0.2075
  212POPC   GL2 2849   4.555   8.459   4.466  0.0168 -0.0040 -0.0584
  212POPC   C1A 2850   5.067   8.421   4.659  0.2017 -0.0358  0.1336
  212POPC   D2A 2851   5.106   8.213   4.973  0.2504  0.2904 -0.0596
  212POPC   C3A 2852   5.291   8.170   5.314 -0.3042 -0.0304 -0.2437
  212POPC   C4A 2853   5.572   8.494   5.485  0.2969 -0.0186  0.1176
  212POPC   C1B 2854   4.405   8.612   4.848  0.1211 -0.0378  0.0942
  212POPC   C2B 2855   4.346   8.721   5.276  0.1097 -0.1207 -0.2986
  212POPC   C3B 2856   4.099   8.882   5.641 -0.0149 -0.0254  0.0678
  212POPC   C4B 2857   4.095   8.965   6.062 -0.2124 -0.2483  0.2312
  213POPC   NC3 2858  10.106   0.153   3.068 -0.0072  0.0557  0.0885
  213POPC   PO4 2859   9.774   0.188   3.532 -0.3170  0.2798 -0.1591
  213POPC   GL1 2860   9.600  -0.060   3.918  0.1179  0.2230 -0.1530
  213POPC   GL2 2861   9.495   0.164   3.944 -0.2082 -0.0816 -0.1946
  213POPC   C1A 2862   9.714  -0.397   4.171  0.3639 -0.0845  0.0361
  213POPC   D2A 2863   9.997  -0.480   4.525 -0.0529 -0.4485  0.2537
  213POPC   C3A 2864  10.179  -0.501   4.927  0.0398 -0.3774 -0.0525
  213POPC   C4A 2865  10.056  -0.772   5.278 -0.3001  0.2126  0.2040
  213POPC   C1B 2866   9.496   0.021   4.427  0.3482  0.0867 -0.0505
  213POPC   C2B 2867   9.407  -0.307   4.704 -0.1597 -0.4793 -0.1029
  213POPC   C3B 2868   9.123  -0.367   5.017 -0.1096 -0.0896 -0.0586
  213POPC   C4B 2869   9.049  -0.674   5.320 -0.0899  0.1611  0.2670
  214POPC   NC3 2870   5.832   5.023   3.886 -0.4293  0.2151 -0.0267
  214POPC   PO4 2871   5.639   4.640   3.650  0.1065 -0.0101  0.3561
  214POPC   GL1 2872   5.536   4.702   4.098  0.1095  0.2157  0.0985
  214POPC   GL2 2873   5.551   4.480   4.290 -0.0976 -0.1727  0.2093
  214POPC   C1A 2874   5.286   4.799   4.495 -0.0904 -0.2834 -0.5038
  214POPC   D2A 2875   5.044   5.076   4.815  0.1480 -0.0048 -0.2242
  214POPC   C3A 2876   5.244   5.286   5.073 -0.2422  0.0559 -0.1310
  214POPC   C4A 2877   5.250   5.108   5.547  0.5120  0.1324 -0.0097
  214POPC   C1B 2878   5.926   4.426   4.611 -0.0881 -0.0245 -0.1114
  214POPC   C2B 2879   5.815   4.510   5.132  0.0430  0.0777  0.3020
  214POPC   C3B 2880   5.705   4.699   5.433 -0.0996  0.2118  0.0276
  214POPC   C4B 2881   5.630   4.976   5.816 -0.1600  0.1786 -0.0005
  215POPC   NC3 2882   3.194   4.661   4.045  0.1247  0.0851 -0.0384
  215POPC   PO4 2883   3.069   4.311   4.253 -0.1885 -0.0809  0.1597
  215POPC   GL1 2884   3.371   4.246   4.536  0.1251 -0.1673  0.0847
  215POPC   GL2 2885   3.027   4.273   4.774  0.2088 -0.2226 -0.1146
  215POPC   C1A 2886   3.514   4.114   4.897 -0.0588  0.1317 -0.2033
  215POPC   D2A 2887   3.594   3.813   5.225  0.2226 -0.1619 -0.1136
  215POPC   C3A 2888   3.966   3.707   5.628 -0.1109  0.0678 -0.0656
  215POPC   C4A 2889   3.955   3.608   5.913 -0.0062  0.3085 -0.1553
  215POPC   C1B 2890   3.137   4.522   5.069 -0.0447  0.2269  0.0265
  215POPC   C2B 2891   2.970   4.722   5.440 -0.2622  0.0992 -0.0373
  215POPC   C3B 2892   2.597   4.705   5.624 -0.1993 -0.0625  0.0489
  215POPC   C4B 2893   2.515   4.583   6.084  0.1555 -0.2263 -0.2433
  216POPC   NC3 2894  10.457   8.337   2.902 -0.4412  0.1797  0.1439
  216POPC   PO4 2895  10.461   8.469   3.285 -0.0239  0.0854  0.2638
  216POPC   GL1 2896  10.403   8.505   3.758 -0.2035 -0.0202 -0.0451
  216POPC   GL2 2897  10.373   8.871   3.743 -0.2121 -0.1097  0.0345
  216POPC   C1A 2898  10.380   8.582   4.192  0.2410 -0.1206 -0.3392
  216POPC   D2A 2899  10.469   8.415   4.490 -0.1983  0.3309 -0.0380
  216POPC   C3A 2900  10.174   8.252   4.810 -0.1478  0.0844 -0.1367
  216POPC   C4A 2901   9.896   8.137   5.118 -0.3257 -0.2177 -0.3293
  216POPC   C1B 2902  10.543   9.136   4.020  0.3305  0.0188 -0.0830
  216POPC   C2B 2903  10.702   9.489   4.392  0.1892  0.1766 -0.3007
  216POPC   C3B 2904  10.806   9.680   4.767  0.0639  0.1493 -0.1427
  216POPC   C4B 2905  11.019   9.539   5.107  0.1487 -0.1537  0.3186
  217POPC   NC3 2906   5.002   2.515   2.702 -0.0678  0.1750  0.0846
  217POPC   PO4 2907   5.242   2.261   3.046 -0.3401 -0.4482 -0.0454
  217POPC   GL1 2908   5.505   2.199   3.444 -0.0207 -0.0057  0.0204
  217POPC   GL2 2909   5.728   2.036   3.642 -0.1665  0.0650  0.1370
  217POPC   C1A 2910   5.329   2.272   3.817  0.2542 -0.0943  0.0077
  217POPC   D2A 2911   4.890   2.200   3.877 -0.0406 -0.1148 -0.0464
  217POPC   C3A 2912   4.620   1.936   4.253  0.2436 -0.0585 -0.0830
  217POPC   C4A 2913   4.541   1.727   4.644 -0.3030  0.3643  0.0337
  217POPC   C1B 2914   5.996   2.231   4.003  0.0175  0.1627 -0.0773
  217POPC   C2B 2915   6.073   2.084   4.412  0.0803  0.0927  0.1740
  217POPC   C3B 2916   6.244   1.770   4.627  0.2220  0.0499 -0.0680
  217POPC   C4B 2917   6.306   1.291   4.699 -0.3416 -0.1081  0.0578
  218POPC   NC3 2918   4.945   7.298   3.974 -0.0662  0.1317  0.0250
  218POPC   PO4 2919   4.630   7.492   3.843 -0.2838 -0.0909 -0.1187
  218POPC   GL1 2920   4.469   7.313   4.210  0.2200  0.0154  0.3290
  218POPC   GL2 2921   4.196   6.992   4.312  0.0302 -0.3471  0.1585
  218POPC   C1A 2922   4.417   7.392   4.628  0.2231 -0.1526 -0.1120
  218POPC   D2A 2923   4.637   7.539   4.877 -0.1398 -0.2900 -0.1972
  218POPC   C3A 2924   4.563   7.871   5.311  0.1157 -0.0491 -0.2172
  218POPC   C4A 2925   4.266   8.263   5.570 -0.0857 -0.0267  0.0332
  218POPC   C1B 2926   3.996   7.173   4.676 -0.0790 -0.2224 -0.1136
  218POPC   C2B 2927   3.922   7.218   5.130  0.2011  0.2819  0.2041
  218POPC   C3B 2928   3.918   7.201   5.522  0.1069 -0.0154 -0.1398
  218POPC   C4B 2929   4.100   7.232   5.958 -0.1889 -0.3062  0.3035
  219POPC   NC3 2930   2.475   6.519   3.317 -0.3402  0.1619  0.1286
  219POPC   PO4 2931   2.337   6.565   3.747 -0.0877  0.0315 -0.0679
  219POPC   GL1 2932   2.408   6.507   4.125 -0.1123  0.1109 -0.0734
  219POPC   GL2 2933   2.466   6.252   4.163 -0.0695 -0.2953  0.0459
  219POPC   C1A 2934   2.577   6.559   4.606 -0.0842 -0.1449 -0.1866
  219POPC   D2A 2935   2.225   6.506   4.975  0.0169  0.1491  0.3203
  219POPC   C3A 2936   1.936   6.583   5.188  0.1995  0.0248  0.0647
  219POPC   C4A 2937   1.644   6.522   5.602 -0.1218 -0.0950  0.1620
  219POPC   C1B 2938   2.335   6.037   4.578  0.0276 -0.0937  0.1757
  219POPC   C2B 2939   1.938   6.084   4.882  0.1027 -0.6313 -0.0709
  219POPC   C3B 2940   1.630   6.184   5.237 -0.4486 -0.0323 -0.0113
  219POPC   C4B 2941   1.314   6.166   5.610  0.0808  0.0446  0.1621
  220POPC   NC3 2942   2.045   9.117   3.770  0.0686 -0.1677 -0.0521
  220POPC   PO4 2943   1.913   8.673   3.777  0.0268 -0.2091  0.0917
  220POPC   GL1 2944   1.963   8.567   4.158 -0.1089  0.1583 -0.1504
  220POPC   GL2 2945   1.919   8.917   4.241  0.1172 -0.1026 -0.2505
  220POPC   C1A 2946   2.219   8.487   4.592  0.0658 -0.0927 -0.0656
  220POPC   D2A 2947   2.194   8.170   4.904 -0.0634  0.0187  0.4715
  220POPC   C3A 2948   1.936   7.999   5.218 -0.3394  0.0642  0.2636
  220POPC   C4A 2949   1.573   7.813   5.238 -0.0089  0.1027  0.2045
  220POPC   C1B 2950   1.884   8.937   4.691 -0.0246 -0.1166  0.4046
  220POPC   C2B 2951   1.736   9.017   5.025 -0.5905  0.2854  0.0264
  220POPC   C3B 2952   1.574   8.894   5.375  0.0132  0.0872 -0.1372
  220POPC   C4B 2953   1.263   8.766   5.691 -0.3385 -0.0578 -0.2285
  221POPC   NC3 2954   0.871   1.640   3.889 -0.0472  0.3387  0.0551
  221POPC   PO4 2955   0.312   1.638   3.814 -0.3915  0.1207  0.0425
  221POPC   GL1 2956   0.447   1.440   4.153 -0.0009 -0.2015  0.1763
  221POPC   GL2 2957   0.680   1.365   4.254 -0.0732 -0.0799 -0.1044
  221POPC   C1A 2958   0.253   1.380   4.546 -0.0868 -0.0050  0.3398
  221POPC   D2A 2959   0.113   1.601   4.887  0.1252 -0.1290 -0.2214
  221POPC   C3A 2960   0.187   1.400   5.236 -0.0775 -0.3064  0.2771
  221POPC   C4A 2961  -0.188   1.318   5.521  0.2639  0.5711 -0.1284
  221POPC   C1B 2962   0.728   1.640   4.585 -0.2817 -0.2430  0.1699
  221POPC   C2B 2963   0.703   1.546   5.009 -0.1769 -0.0072  0.2442
  221POPC   C3B 2964   0.857   1.512   5.361  0.1683 -0.0298 -0.1619
  221POPC   C4B 2965   1.080   1.454   5.733 -0.1716  0.2744 -0.1815
  222POPC   NC3 2966   5.101   3.391   3.708 -0.3894 -0.0016  0.1118
  222POPC   PO4 2967   5.050   2.996   3.615 -0.1994 -0.0131 -0.3862
  222POPC   GL1 2968   5.084   2.993   3.977  0.1377  0.1606  0.0767
  222POPC   GL2 2969   4.733   2.935   4.114 -0.1715 -0.1466  0.2281
  222POPC   C1A 2970   5.110   2.583   4.173  0.0849 -0.0085 -0.0786
  222POPC   D2A 2971   4.816   2.392   4.383 -0.1786  0.0906  0.0219
  222POPC   C3A 2972   4.617   2.735   4.562 -0.1223  0.0954 -0.3079
  222POPC   C4A 2973   4.637   3.024   4.953 -0.3146  0.3070 -0.6577
  222POPC   C1B 2974   5.097   3.048   4.472  0.1022 -0.1415  0.1694
  222POPC   C2B 2975   5.513   2.916   4.289  0.1079  0.2999 -0.1600
  222POPC   C3B 2976   5.952   3.091   4.137  0.0510 -0.0919  0.2724
  222POPC   C4B 2977   6.409   3.300   4.204 -0.2265  0.1690  0.2898
  223POPC   NC3 2978   3.126   5.601   3.929  0.3265  0.0434 -0.0968
  223POPC   PO4 2979   2.845   5.933   4.014  0.0383  0.3556 -0.3366
  223POPC   GL1 2980   2.727   5.831   4.420 -0.1908  0.1855  0.0221
  223POPC   GL2 2981   2.565   5.514   4.559 -0.3420 -0.0886  0.1932
  223POPC   C1A 2982   2.748   6.105   4.747  0.0511 -0.1221 -0.0665
  223POPC   D2A 2983   2.592   6.154   5.108 -0.2580 -0.1674  0.1671
  223POPC   C3A 2984   2.789   6.070   5.437  0.0164 -0.1480 -0.0281
  223POPC   C4A 2985   2.556   5.987   5.845  0.1986  0.0121 -0.0783
  223POPC   C1B 2986   2.521   5.276   4.902 -0.4752  0.0114  0.1118
  223POPC   C2B 2987   2.783   5.115   5.190  0.1258  0.2112  0.3253
  223POPC   C3B 2988   2.876   5.267   5.626  0.1736  0.2632  0.0350
  223POPC   C4B 2989   3.252   5.328   5.717  0.4495  0.1955  0.0730
  224POPC   NC3 2990   9.410   3.484   4.184 -0.1006 -0.0629 -0.0664
  224POPC   PO4 2991   9.115   3.218   4.013 -0.1480 -0.2589 -0.2917
  224POPC   GL1 2992   8.989   3.042   4.525  0.2164  0.0241 -0.0070
  224POPC   GL2 2993   9.113   2.677   4.536  0.0822 -0.0314 -0.2650
  224POPC   C1A 2994   9.056   2.979   4.955 -0.0203  0.1744 -0.0588
  224POPC   D2A 2995   9.195   2.665   5.241 -0.0239  0.0740  0.1208
  224POPC   C3A 2996   8.973   2.560   5.577  0.5047 -0.2406 -0.2170
  224POPC   C4A 2997   8.558   2.217   5.682  0.0594 -0.1107 -0.0246
  224POPC   C1B 2998   9.462   2.710   4.833 -0.2751  0.1935  0.0362
  224POPC   C2B 2999   9.754   2.594   5.196  0.1892 -0.1367 -0.0431
  224POPC   C3B 3000   9.951   2.590   5.670  0.0091  0.3463  0.2951
  224POPC   C4B 3001   9.887   2.374   6.030 -0.2188  0.0570 -0.3283
  225POPC   NC3 3002   4.571   0.414   4.110 -0.2494  0.0389 -0.1745
  225POPC   PO4 3003   4.701   0.847   4.007  0.0831 -0.1982  0.1426
  225POPC   GL1 3004   4.716   0.955   4.423  0.0568  0.1979  0.2046
  225POPC   GL2 3005   4.889   0.645   4.441 -0.0788 -0.0288 -0.2232
  225POPC   C1A 3006   4.759   0.923   4.923 -0.0165 -0.0598  0.0614
  225POPC   D2A 3007   4.629   0.984   5.307 -0.3309 -0.0388 -0.3057
  225POPC   C3A 3008   4.346   0.736   5.521  0.2955  0.1545 -0.1059
  225POPC   C4A 3009   3.942   0.748   5.504  0.0877 -0.0005 -0.0175
  225POPC   C1B 3010   4.773   0.350   4.730  0.0857  0.1852 -0.1974
  225POPC   C2B 3011   4.781   0.352   5.149 -0.2144  0.2121  0.0020
  225POPC   C3B 3012   4.654   0.392   5.556 -0.0581  0.0236 -0.2302
  225POPC   C4B 3013   4.701   0.174   6.014 -0.1948 -0.4151 -0.2005
  226POPC   NC3 3014   9.392   6.903   3.660  0.1179  0.1351  0.0156
  226POPC   PO4 3015   9.194   6.549   3.679 -0.2847 -0.0778  0.2160
  226POPC   GL1 3016   9.176   6.679   4.075 -0.1472  0.2658 -0.1414
  226POPC   GL2 3017   9.044   6.941   4.265  0.0858 -0.3394  0.0230
  226POPC   C1A 3018   9.050   6.458   4.455  0.0621  0.0815 -0.0674
  226POPC   D2A 3019   9.321   6.348   4.833 -0.1612 -0.2288  0.1703
  226POPC   C3A 3020   9.295   6.425   5.279  0.0862 -0.0962 -0.0310
  226POPC   C4A 3021   9.042   6.415   5.654 -0.1205  0.1335  0.1333
  226POPC   C1B 3022   8.945   6.886   4.708  0.1467 -0.1560  0.0008
  226POPC   C2B 3023   9.101   7.229   5.034 -0.0349  0.2918 -0.1155
  226POPC   C3B 3024   9.223   7.427   5.389 -0.4594 -0.3029  0.0354
  226POPC   C4B 3025   9.407   7.256   5.752 -0.1802 -0.1081  0.0578
  227POPC   NC3 3026   1.172   0.199   3.757  0.1583 -0.3149 -0.1380
  227POPC   PO4 3027   1.551   0.145   3.737  0.0498 -0.2106 -0.1525
  227POPC   GL1 3028   1.564   0.077   4.159  0.0044  0.0359 -0.4080
  227POPC   GL2 3029   1.379  -0.195   4.199  0.2741 -0.0901 -0.0916
  227POPC   C1A 3030   1.320   0.171   4.576  0.0623 -0.0956 -0.0798
  227POPC   D2A 3031   1.237   0.415   4.971 -0.2024 -0.0850  0.0720
  227POPC   C3A 3032   1.444   0.216   5.278 -0.3114 -0.2383 -0.0464
  227POPC   C4A 3033   1.802   0.251   5.547 -0.2069 -0.0073  0.2591
  227POPC   C1B 3034   1.454  -0.283   4.534  0.0252  0.1379 -0.2251
  227POPC   C2B 3035   1.512  -0.099   4.952  0.1331  0.1537 -0.1776
  227POPC   C3B 3036   1.458  -0.278   5.264  0.0426 -0.2190  0.2302
  227POPC   C4B 3037   1.810  -0.293   5.630 -0.2156 -0.2685 -0.1607
  228POPC   NC3 3038   2.810   8.603   3.832 -0.0243  0.0252 -0.0044
  228POPC   PO4 3039   3.248   8.779   3.964 -0.1469 -0.0422  0.1867
  228POPC   GL1 3040   3.124   8.890   4.377 -0.3652 -0.0889 -0.0106
  228POPC   GL2 3041   2.852   8.884   4.304  0.0188  0.1763  0.0982
  228POPC   C1A 3042   3.012   8.912   4.806  0.2089 -0.1037  0.0474
  228POPC   D2A 3043   2.898   9.011   5.168 -0.1395  0.1202  0.3753
  228POPC   C3A 3044   2.604   8.797   5.421  0.0444 -0.1137 -0.2862
  228POPC   C4A 3045   2.256   8.456   5.351 -0.0593  0.3616  0.4117
  228POPC   C1B 3046   2.716   8.586   4.604 -0.2582  0.0450  0.0165
  228POPC   C2B 3047   2.558   8.638   4.939 -0.3159  0.3349  0.1536
  228POPC   C3B 3048   2.211   8.855   5.063  0.1052 -0.0076 -0.0174
  228POPC   C4B 3049   2.395   9.188   5.327  0.0156  0.0361  0.0161
  229POPC   NC3 3050   0.985   6.451   3.858 -0.3111  0.0992 -0.2171
  229POPC   PO4 3051   0.992   6.826   3.544 -0.1239  0.1778  0.0761
  229POPC   GL1 3052   0.898   6.975   4.063  0.2619 -0.0539  0.0387
  229POPC   GL2 3053   0.509   7.140   4.111 -0.1504 -0.2130  0.4404
  229POPC   C1A 3054   0.896   7.130   4.447 -0.1946  0.0720 -0.3375
  229POPC   D2A 3055   0.700   7.454   4.774  0.4553 -0.0190 -0.0583
  229POPC   C3A 3056   0.398   7.150   4.920  0.1534 -0.1044 -0.1298
  229POPC   C4A 3057   0.108   6.937   5.100  0.1083  0.3697  0.0387
  229POPC   C1B 3058   0.467   6.885   4.430 -0.2809  0.1009 -0.0118
  229POPC   C2B 3059   0.287   6.645   4.731 -0.0603  0.1095  0.4829
  229POPC   C3B 3060   0.194   6.481   5.018  0.1625 -0.0260 -0.0538
  229POPC   C4B 3061   0.298   6.332   5.479 -0.1129 -0.0651 -0.2790
  230POPC   NC3 3062   5.386   4.250   3.417 -0.5983  0.0309 -0.4317
  230POPC   PO4 3063   5.196   4.414   3.842 -0.1627  0.3286  0.1985
  230POPC   GL1 3064   5.032   4.294   4.292 -0.2077 -0.0916 -0.1076
  230POPC   GL2 3065   5.070   3.862   4.405  0.0921 -0.0375  0.0832
  230POPC   C1A 3066   4.897   4.317   4.820 -0.1897 -0.1101 -0.3370
  230POPC   D2A 3067   4.872   4.090   5.175 -0.0511 -0.1184 -0.0248
  230POPC   C3A 3068   5.067   4.395   5.398  0.0971  0.2239  0.0324
  230POPC   C4A 3069   5.280   4.565   5.714  0.1341 -0.0996  0.0215
  230POPC   C1B 3070   5.176   3.807   4.892  0.0050 -0.1291  0.2826
  230POPC   C2B 3071   5.354   3.995   5.165  0.2229 -0.2293 -0.2597
  230POPC   C3B 3072   5.571   4.215   5.514 -0.1871  0.2843 -0.0734
  230POPC   C4B 3073   5.972   4.418   5.667 -0.1313 -0.3833  0.4065
  231POPC   NC3 3074   8.178   9.160   3.157  0.1108  0.0064  0.3048
  231POPC   PO4 3075   8.475   9.113   3.342 -0.1369 -0.1607 -0.0193
  231POPC   GL1 3076   8.477   9.188   3.704 -0.2293  0.0936 -0.1448
  231POPC   GL2 3077   8.659   9.458   3.774  0.0631  0.0772 -0.0564
  231POPC   C1A 3078   8.448   9.078   4.080 -0.2648 -0.0331 -0.5341
  231POPC   D2A 3079   8.258   8.843   4.451 -0.0297 -0.2485  0.2365
  231POPC   C3A 3080   8.189   8.927   4.840 -0.3332 -0.1830 -0.0025
  231POPC   C4A 3081   8.421   9.151   5.189  0.1491 -0.2170 -0.1864
  231POPC   C1B 3082   8.771   9.641   4.076  0.3418  0.1253  0.2451
  231POPC   C2B 3083   8.798   9.613   4.531  0.2468  0.0306  0.3580
  231POPC   C3B 3084   8.701   9.837   4.940 -0.2663  0.1652  0.0313
  231POPC   C4B 3085   8.513   9.627   5.283  0.2553 -0.2947  0.0309
  232POPC   NC3 3086   5.102  10.326   3.818 -0.1232  0.0906  0.1145
  232POPC   PO4 3087   4.749  10.489   4.093 -0.0329  0.0605  0.0883
  232POPC   GL1 3088   5.022  10.726   4.393 -0.0845  0.0648 -0.2236
  232POPC   GL2 3089   5.273  10.621   4.378 -0.1340  0.2658  0.1130
  232POPC   C1A 3090   5.296  10.799   4.884  0.1967  0.1141  0.1525
  232POPC   D2A 3091   5.222  10.766   5.305  0.1214 -0.0319 -0.2339
  232POPC   C3A 3092   5.532  10.594   5.680 -0.3017 -0.0549 -0.2884
  232POPC   C4A 3093   5.850  10.599   6.017  0.1166  0.2891 -0.0968
  232POPC   C1B 3094   5.510  10.922   4.316 -0.0872  0.0099  0.0538
  232POPC   C2B 3095   5.468  11.230   4.631 -0.0471  0.0704  0.0629
  232POPC   C3B 3096   5.142  11.287   4.926  0.0885  0.1192  0.0462
  232POPC   C4B 3097   5.012  11.321   5.383  0.0666  0.2555  0.2129
  233POPC   NC3 3098   9.068   7.547   3.467  0.0285  0.0762  0.0400
  233POPC   PO4 3099   9.405   7.453   3.632 -0.1167  0.0693  0.2305
  233POPC   GL1 3100   9.192   7.667   4.038 -0.0697 -0.2699  0.0937
  233POPC   GL2 3101   9.126   7.516   4.316 -0.1341 -0.0363  0.2239
  233POPC   C1A 3102   8.913   7.961   4.320  0.2424 -0.0656  0.2592
  233POPC   D2A 3103   8.703   8.446   4.279 -0.0977  0.1165  0.0268
  233POPC   C3A 3104   8.657   8.666   4.758  0.0580 -0.0193  0.0482
  233POPC   C4A 3105   8.459   8.518   5.141  0.1824  0.1430  0.0975
  233POPC   C1B 3106   9.204   7.383   4.596  0.1259  0.0429  0.0633
  233POPC   C2B 3107   8.977   7.682   4.906  0.0899 -0.2343 -0.0441
  233POPC   C3B 3108   8.729   7.743   5.344 -0.1680  0.0751 -0.1217
  233POPC   C4B 3109   8.855   7.760   5.656 -0.2063  0.1359  0.1297
  234POPC   NC3 3110   3.671   0.247   3.799 -0.0114 -0.2886 -0.1747
  234POPC   PO4 3111   3.556   0.595   3.969 -0.0880 -0.0887 -0.1480
  234POPC   GL1 3112   3.309   0.408   4.327 -0.0252 -0.2072  0.0694
  234POPC   GL2 3113   3.187   0.648   4.515 -0.0110 -0.3389  0.0272
  234POPC   C1A 3114   3.429   0.081   4.669  0.2031  0.1844  0.0265
  234POPC   D2A 3115   3.624   0.087   5.021  0.0751  0.4688  0.1562
  234POPC   C3A 3116   3.729   0.197   5.482 -0.1787  0.2781 -0.1421
  234POPC   C4A 3117   3.555   0.033   5.896  0.3230 -0.1493  0.3650
  234POPC   C1B 3118   3.216   0.501   4.865 -0.2545  0.0764 -0.0815
  234POPC   C2B 3119   3.106   0.648   5.273  0.0869 -0.0422 -0.2097
  234POPC   C3B 3120   2.836   0.531   5.604 -0.2224 -0.0200  0.1179
  234POPC   C4B 3121   2.493   0.774   5.769 -0.0026  0.0273 -0.1018
  235POPC   NC3 3122   7.354   9.950   3.289 -0.0522 -0.4138 -0.3491
  235POPC   PO4 3123   6.884  10.072   3.402 -0.2161 -0.1397  0.0517
  235POPC   GL1 3124   6.736  10.086   3.780 -0.1066  0.2733 -0.2032
  235POPC   GL2 3125   6.374   9.838   3.958  0.0985 -0.0841  0.0183
  235POPC   C1A 3126   6.780  10.297   4.165  0.2577  0.1829  0.2399
  235POPC   D2A 3127   6.863  10.690   4.132  0.0064  0.1973  0.1573
  235POPC   C3A 3128   7.221  10.988   4.232  0.0481 -0.1314 -0.1417
  235POPC   C4A 3129   7.692  10.954   4.294 -0.1897 -0.0101  0.0447
  235POPC   C1B 3130   6.541   9.758   4.301  0.0265 -0.1381  0.0541
  235POPC   C2B 3131   6.560   9.613   4.779  0.1449  0.1057 -0.1421
  235POPC   C3B 3132   6.470   9.515   5.118  0.1665 -0.1156 -0.1422
  235POPC   C4B 3133   6.464   9.454   5.512 -0.2595 -0.1531 -0.0994
  236POPC   NC3 3134   7.047   2.928   3.268 -0.0615 -0.2732 -0.0805
  236POPC   PO4 3135   7.345   2.921   3.535  0.0150 -0.0700 -0.1801
  236POPC   GL1 3136   7.473   2.694   3.907  0.0060  0.1697 -0.1835
  236POPC   GL2 3137   7.320   2.554   4.189  0.0674  0.1424 -0.1071
  236POPC   C1A 3138   7.397   3.093   4.220  0.2042  0.3163 -0.0377
  236POPC   D2A 3139   7.386   3.308   4.580 -0.0904  0.0004  0.3158
  236POPC   C3A 3140   7.013   3.645   4.533  0.1985  0.3726 -0.0156
  236POPC   C4A 3141   6.670   3.793   4.690 -0.1930 -0.0497 -0.1645
  236POPC   C1B 3142   7.313   2.318   4.516 -0.0229 -0.0201 -0.0599
  236POPC   C2B 3143   7.534   2.322   4.941 -0.1397 -0.1243 -0.1638
  236POPC   C3B 3144   7.932   2.160   5.046  0.0030  0.1377  0.1699
  236POPC   C4B 3145   8.350   2.147   4.770  0.2018 -0.1509 -0.5317
  237POPC   NC3 3146   7.333   6.675   3.649 -0.1040  0.0190  0.0684
  237POPC   PO4 3147   7.766   6.693   3.767  0.0117  0.0479 -0.1942
  237POPC   GL1 3148   7.646   6.431   4.151 -0.0575  0.1710 -0.1595
  237POPC   GL2 3149   7.832   6.373   4.424 -0.0096  0.0373 -0.0732
  237POPC   C1A 3150   7.288   6.443   4.510  0.1783 -0.0714 -0.5234
  237POPC   D2A 3151   7.309   6.884   4.691 -0.2376 -0.0275 -0.0817
  237POPC   C3A 3152   7.105   7.284   4.769 -0.0359 -0.0216  0.2003
  237POPC   C4A 3153   6.644   7.315   4.635  0.3187  0.0550  0.0947
  237POPC   C1B 3154   8.215   6.511   4.581 -0.0186 -0.2065  0.2788
  237POPC   C2B 3155   8.552   6.515   4.693 -0.0912  0.0801  0.0452
  237POPC   C3B 3156   8.815   6.440   4.937 -0.2241  0.2298  0.0033
  237POPC   C4B 3157   8.783   6.740   5.287 -0.0147 -0.4639 -0.1719
  238POPC   NC3 3158   0.574   8.784   2.898  0.0766  0.1604  0.0313
  238POPC   PO4 3159   0.512   8.979   3.168  0.2709 -0.0743 -0.0839
  238POPC   GL1 3160   0.373   9.281   3.619 -0.0743 -0.0329 -0.0606
  238POPC   GL2 3161   0.353   8.993   3.900 -0.0042  0.2181  0.2613
  238POPC   C1A 3162   0.183   9.625   3.907 -0.1316 -0.0382  0.1470
  238POPC   D2A 3163   0.260  10.054   4.233  0.1807 -0.0574  0.0957
  238POPC   C3A 3164  -0.046  10.177   4.493 -0.2472  0.2337  0.0167
  238POPC   C4A 3165  -0.309  10.530   4.525 -0.1192 -0.1974 -0.0842
  238POPC   C1B 3166   0.260   8.887   4.348 -0.0087 -0.0947 -0.3532
  238POPC   C2B 3167   0.285   8.741   4.805  0.1017 -0.0436 -0.0199
  238POPC   C3B 3168   0.257   8.558   5.194  0.2032 -0.0533 -0.2112
  238POPC   C4B 3169   0.227   8.224   5.551  0.0493  0.2252 -0.1066
  239POPC   NC3 3170   2.668   3.987   4.036  0.1972  0.1290 -0.1707
  239POPC   PO4 3171   2.316   3.907   4.286  0.1633  0.0020  0.0889
  239POPC   GL1 3172   2.363   3.813   4.667  0.1935 -0.3395  0.0057
  239POPC   GL2 3173   2.659   3.662   4.690 -0.3019 -0.1789  0.4101
  239POPC   C1A 3174   2.052   3.783   5.002 -0.3351 -0.1206 -0.1406
  239POPC   D2A 3175   1.879   3.491   5.209  0.0851 -0.2029 -0.2122
  239POPC   C3A 3176   1.543   3.398   5.533  0.0326  0.2081 -0.0650
  239POPC   C4A 3177   1.092   3.290   5.696 -0.2796  0.1571 -0.0917
  239POPC   C1B 3178   2.656   3.665   5.097 -0.3347  0.2321  0.2236
  239POPC   C2B 3179   3.040   3.478   5.380  0.1173  0.2612 -0.2952
  239POPC   C3B 3180   3.435   3.463   5.534 -0.1043  0.1252  0.2894
  239POPC   C4B 3181   3.493   3.674   5.945  0.0048 -0.1092 -0.0596
  240POPC   NC3 3182   5.980   6.284   4.289  0.1347 -0.2916  0.0858
  240POPC   PO4 3183   5.547   6.209   4.027  0.1004 -0.4347 -0.1063
  240POPC   GL1 3184   5.511   6.406   4.455 -0.0128 -0.0528  0.1723
  240POPC   GL2 3185   5.134   6.469   4.526  0.1020 -0.1718  0.1842
  240POPC   C1A 3186   5.696   6.662   4.695  0.1072  0.0179 -0.4100
  240POPC   D2A 3187   5.851   6.851   5.010  0.1442 -0.0327  0.1148
  240POPC   C3A 3188   6.025   6.514   5.203  0.2946  0.2402 -0.1136
  240POPC   C4A 3189   6.122   6.335   5.569 -0.1540 -0.0973 -0.1132
  240POPC   C1B 3190   5.296   6.410   4.934 -0.2338 -0.0099 -0.0248
  240POPC   C2B 3191   5.040   6.532   5.299 -0.0811  0.1581 -0.2183
  240POPC   C3B 3192   4.794   6.766   5.649  0.1565  0.0538  0.1153
  240POPC   C4B 3193   4.552   7.091   5.676 -0.1616 -0.0256 -0.2062
  241POPC   NC3 3194   0.614   0.978   3.196 -0.0791 -0.0480  0.1048
  241POPC   PO4 3195   0.771   0.784   3.559 -0.0017 -0.1300  0.1245
  241POPC   GL1 3196   1.008   0.660   3.959 -0.2869  0.0517  0.0045
  241POPC   GL2 3197   0.855   0.810   4.159 -0.4737  0.2392  0.0972
  241POPC   C1A 3198   1.314   0.674   4.300  0.3976 -0.2312  0.1876
  241POPC   D2A 3199   1.532   0.740   4.692 -0.0157  0.1021  0.0533
  241POPC   C3A 3200   1.924   1.040   4.625  0.2528  0.2203  0.3610
  241POPC   C4A 3201   2.284   1.339   4.564 -0.0954  0.0283  0.2064
  241POPC   C1B 3202   0.914   0.642   4.654 -0.0372  0.0217 -0.0149
  241POPC   C2B 3203   0.746   0.568   5.023  0.0770  0.1192  0.2835
  241POPC   C3B 3204   1.052   0.500   5.445 -0.0931  0.3544  0.0529
  241POPC   C4B 3205   1.349   0.384   5.745  0.2325 -0.1714 -0.2258
  242POPC   NC3 3206   4.849   6.325   4.068 -0.1239 -0.3329  0.3298
  242POPC   PO4 3207   4.862   6.801   3.928 -0.1553  0.1913 -0.0718
  242POPC   GL1 3208   4.812   6.786   4.398  0.2123 -0.0115  0.0065
  242POPC   GL2 3209   4.857   7.017   4.494 -0.2568  0.2052 -0.0660
  242POPC   C1A 3210   4.789   6.591   4.868  0.0197  0.0257 -0.1787
  242POPC   D2A 3211   4.871   6.121   4.886  0.1216  0.1787 -0.0156
  242POPC   C3A 3212   5.226   5.926   5.051 -0.2987  0.0630  0.0157
  242POPC   C4A 3213   5.562   5.677   4.892  0.0694  0.1875 -0.1314
  242POPC   C1B 3214   4.895   7.078   4.952 -0.2107 -0.0467 -0.4628
  242POPC   C2B 3215   4.958   7.157   5.388  0.4910  0.1394  0.0623
  242POPC   C3B 3216   4.982   7.306   5.779  0.2727 -0.3849 -0.1638
  242POPC   C4B 3217   5.167   7.304   6.242  0.1338 -0.1725 -0.0906
  243POPC   NC3 3218   8.171   9.854   2.783 -0.2239 -0.0339 -0.1431
  243POPC   PO4 3219   7.977   9.975   3.245  0.0098  0.0047  0.1828
  243POPC   GL1 3220   7.998   9.872   3.723 -0.0861  0.1581  0.0268
  243POPC   GL2 3221   8.386   9.913   3.865 -0.0323  0.2193  0.3717
  243POPC   C1A 3222   7.964   9.743   4.187  0.1488  0.0007  0.0141
  243POPC   D2A 3223   7.989   9.811   4.612  0.2412  0.1696  0.0357
  243POPC   C3A 3224   7.557   9.669   4.957 -0.0233  0.0177  0.1243
  243POPC   C4A 3225   7.377   9.366   5.153  0.0661  0.0292  0.0504
  243POPC   C1B 3226   8.405   9.834   4.321  0.0508 -0.3887 -0.3854
  243POPC   C2B 3227   8.353  10.076   4.681  0.0005 -0.0476  0.2096
  243POPC   C3B 3228   8.143  10.026   5.076 -0.1666 -0.0627 -0.1578
  243POPC   C4B 3229   7.763  10.038   5.255 -0.1463  0.0549  0.4171
  244POPC   NC3 3230   7.821   0.507   3.325  0.0015  0.2053  0.0556
  244POPC   PO4 3231   7.489   0.864   3.292  0.0873 -0.0927 -0.3387
  244POPC   GL1 3232   7.411   1.123   3.670  0.0819 -0.1210  0.0174
  244POPC   GL2 3233   7.125   0.789   3.712  0.2885  0.0873  0.1608
  244POPC   C1A 3234   7.527   1.364   3.964  0.1091  0.3022  0.2209
  244POPC   D2A 3235   7.731   1.379   4.365 -0.1418  0.2468 -0.0687
  244POPC   C3A 3236   8.160   1.229   4.554 -0.0603  0.1363 -0.3295
  244POPC   C4A 3237   8.491   1.468   4.748 -0.0859 -0.2758 -0.1731
  244POPC   C1B 3238   7.296   1.007   4.142 -0.2341 -0.0783  0.0606
  244POPC   C2B 3239   7.277   1.155   4.588  0.0769  0.0216  0.0942
  244POPC   C3B 3240   7.472   1.411   4.944  0.2663 -0.1104 -0.0260
  244POPC   C4B 3241   7.866   1.410   5.248  0.1589 -0.2639 -0.2855
  245POPC   NC3 3242  10.314   8.980   3.291  0.1592 -0.1904 -0.1279
  245POPC   PO4 3243   9.897   8.790   3.462 -0.1212 -0.0741  0.0740
  245POPC   GL1 3244   9.893   8.639   3.805 -0.0212 -0.1390  0.0534
  245POPC   GL2 3245   9.644   8.345   3.827  0.0015 -0.5070 -0.0755
  245POPC   C1A 3246  10.011   8.300   4.138  0.3265  0.2093  0.2018
  245POPC   D2A 3247   9.798   8.154   4.490  0.4298 -0.2244  0.1760
  245POPC   C3A 3248   9.997   7.784   4.643  0.1196 -0.0632 -0.0717
  245POPC   C4A 3249  10.044   7.573   5.098 -0.0908 -0.0542 -0.1600
  245POPC   C1B 3250   9.548   7.995   4.065  0.0681 -0.2061  0.0438
  245POPC   C2B 3251   9.432   7.845   4.473  0.2492  0.4107  0.1254
  245POPC   C3B 3252   9.486   7.616   4.883 -0.1682 -0.0279  0.1305
  245POPC   C4B 3253   9.501   7.873   5.243  0.3845 -0.1485 -0.1426
  246POPC   NC3 3254   7.094   1.158   3.269  0.1125  0.0268 -0.1803
  246POPC   PO4 3255   6.716   0.962   3.412  0.0750  0.0694 -0.2567
  246POPC   GL1 3256   6.688   0.944   3.920 -0.1761 -0.0599 -0.0594
  246POPC   GL2 3257   6.921   1.278   4.046 -0.2084 -0.1471 -0.2831
  246POPC   C1A 3258   6.901   0.756   4.219 -0.0762  0.1404 -0.0508
  246POPC   D2A 3259   7.144   0.673   4.563  0.1448 -0.2575 -0.0572
  246POPC   C3A 3260   6.957   0.378   4.721  0.2903 -0.0409  0.2095
  246POPC   C4A 3261   6.808  -0.013   4.614 -0.2072 -0.1285  0.0529
  246POPC   C1B 3262   6.648   1.176   4.376  0.0639  0.0253 -0.1845
  246POPC   C2B 3263   6.690   0.859   4.764  0.4081  0.0578  0.0645
  246POPC   C3B 3264   6.967   0.982   5.041  0.1564  0.1650  0.0201
  246POPC   C4B 3265   7.053   1.349   5.268 -0.0375  0.5028  0.1285
  247POPC   NC3 3266   2.382   7.807   3.779  0.0802  0.0820  0.3042
  247POPC   PO4 3267   2.640   7.403   3.957  0.0555  0.1296 -0.0180
  247POPC   GL1 3268   2.534   7.309   4.349  0.3315  0.1101  0.0610
  247POPC   GL2 3269   2.633   7.071   4.575  0.4674 -0.0323  0.1109
  247POPC   C1A 3270   2.605   7.523   4.716  0.1045 -0.2160 -0.1777
  247POPC   D2A 3271   2.825   7.330   5.006 -0.0932  0.1010  0.0116
  247POPC   C3A 3272   2.659   7.246   5.482  0.0396  0.0424 -0.1136
  247POPC   C4A 3273   2.504   7.020   5.847 -0.1377  0.2942 -0.1472
  247POPC   C1B 3274   2.496   6.941   4.984  0.0174  0.1142  0.1182
  247POPC   C2B 3275   2.184   6.975   5.267 -0.0449 -0.1720 -0.1425
  247POPC   C3B 3276   2.046   6.825   5.698  0.0894  0.0676  0.3512
  247POPC   C4B 3277   1.747   6.844   6.093  0.1299 -0.2718 -0.1887
  248POPC   NC3 3278   2.790   9.322   4.124  0.0485  0.0101 -0.2332
  248POPC   PO4 3279   2.622   9.156   3.848 -0.0552  0.4203 -0.1736
  248POPC   GL1 3280   2.315   9.432   4.124  0.2932  0.0734 -0.2737
  248POPC   GL2 3281   1.963   9.449   4.108  0.1218  0.1964  0.0457
  248POPC   C1A 3282   2.239   9.787   4.318  0.0379  0.2560  0.0747
  248POPC   D2A 3283   2.156   9.873   4.777 -0.2795 -0.0557  0.2258
  248POPC   C3A 3284   2.134  10.120   5.219 -0.1444  0.2392 -0.0242
  248POPC   C4A 3285   2.325  10.169   5.587 -0.0657  0.1770  0.3485
  248POPC   C1B 3286   2.073   9.324   4.519  0.0752  0.0692  0.1018
  248POPC   C2B 3287   2.204   9.358   4.928 -0.0555  0.1894 -0.0653
  248POPC   C3B 3288   2.187   9.632   5.290  0.3736  0.3056 -0.1741
  248POPC   C4B 3289   1.843   9.861   5.461  0.0329  0.1572 -0.0358
  249POPC   NC3 3290   1.318   3.657   3.647  0.0016  0.1371  0.0025
  249POPC   PO4 3291   1.284   3.275   4.013  0.0603  0.0273  0.0865
  249POPC   GL1 3292   1.465   2.970   4.273  0.1421  0.0798  0.2479
  249POPC   GL2 3293   1.754   3.223   4.334 -0.0192  0.2746  0.2355
  249POPC   C1A 3294   1.397   2.897   4.711 -0.0749  0.0828 -0.1314
  249POPC   D2A 3295   1.327   2.578   5.069  0.0283 -0.2638 -0.2426
  249POPC   C3A 3296   1.677   2.550   5.315 -0.0998  0.1570  0.2889
  249POPC   C4A 3297   2.104   2.457   5.409 -0.1113 -0.1551 -0.2580
  249POPC   C1B 3298   1.631   3.313   4.818  0.2936  0.0377 -0.1879
  249POPC   C2B 3299   1.465   3.119   5.150  0.3199 -0.0876  0.1142
  249POPC   C3B 3300   1.144   2.911   5.365  0.0447 -0.0107 -0.1799
  249POPC   C4B 3301   0.853   2.870   5.704 -0.2810  0.1924  0.2592
  250POPC   NC3 3302   8.153  10.380   3.747 -0.1499 -0.1930 -0.0790
  250POPC   PO4 3303   8.465  10.757   3.683 -0.1947  0.1802  0.0906
  250POPC   GL1 3304   8.358  10.781   4.092  0.0158  0.0510  0.0721
  250POPC   GL2 3305   8.457  10.698   4.389 -0.0303  0.0163  0.0312
  250POPC   C1A 3306   8.210  11.174   4.342 -0.1321 -0.4543  0.0824
  250POPC   D2A 3307   8.213  11.361   4.765  0.1160 -0.1176 -0.0492
  250POPC   C3A 3308   8.065  11.219   5.151  0.1729  0.3608 -0.2989
  250POPC   C4A 3309   7.952  11.581   5.445 -0.1256  0.0864 -0.1316
  250POPC   C1B 3310   8.228  10.801   4.700  0.4938  0.1617  0.1279
  250POPC   C2B 3311   7.744  10.957   4.801  0.1177  0.1781  0.1153
  250POPC   C3B 3312   7.422  11.309   4.974 -0.1165  0.0991  0.1215
  250POPC   C4B 3313   7.462  11.622   5.285 -0.0263  0.4106 -0.3667
  251POPC   NC3 3314   4.919   5.108   3.489  0.0182 -0.5070  0.4094
  251POPC   PO4 3315   5.369   5.172   3.812 -0.1780  0.2023 -0.2309
  251POPC   GL1 3316   5.350   5.378   4.224 -0.2712  0.1820 -0.3575
  251POPC   GL2 3317   5.106   5.434   4.274  0.0119  0.4363 -0.1774
  251POPC   C1A 3318   5.575   5.193   4.536  0.1145 -0.1375  0.1766
  251POPC   D2A 3319   5.665   4.946   4.860 -0.1447  0.0241  0.0031
  251POPC   C3A 3320   5.702   5.185   5.297  0.2103  0.1169  0.3583
  251POPC   C4A 3321   5.886   5.339   5.655  0.0858  0.0305  0.1197
  251POPC   C1B 3322   4.948   5.595   4.725  0.0743 -0.2823  0.0081
  251POPC   C2B 3323   4.782   5.660   5.129  0.1738 -0.1355 -0.3145
  251POPC   C3B 3324   4.748   6.069   5.380 -0.0865  0.0589 -0.2748
  251POPC   C4B 3325   4.509   6.220   5.771 -0.0721 -0.1033  0.1080
  252POPC   NC3 3326   0.672   2.631   4.323 -0.2345 -0.0550  0.0920
  252POPC   PO4 3327   0.264   2.388   4.208  0.1301  0.1169 -0.2262
  252POPC   GL1 3328   0.212   2.458   4.632  0.1186 -0.0462 -0.1866
  252POPC   GL2 3329  -0.037   2.591   4.695 -0.0389  0.2287  0.0490
  252POPC   C1A 3330   0.452   2.505   4.989 -0.0391 -0.2251 -0.2071
  252POPC   D2A 3331   0.821   2.372   5.343  0.0191 -0.1664  0.0200
  252POPC   C3A 3332   1.215   2.395   5.490 -0.0511 -0.1181 -0.0638
  252POPC   C4A 3333   1.376   2.307   5.864 -0.0876 -0.1642  0.0688
  252POPC   C1B 3334   0.029   2.827   5.086 -0.5700 -0.1754 -0.0508
  252POPC   C2B 3335   0.176   3.316   5.216 -0.0847  0.1949 -0.0160
  252POPC   C3B 3336   0.082   3.504   5.678 -0.0174  0.2341  0.0311
  252POPC   C4B 3337  -0.157   3.365   5.943 -0.1875  0.1259  0.1905
  253POPC   NC3 3338   2.222   4.335   3.989  0.0438 -0.0625  0.3068
  253POPC   PO4 3339   1.854   4.080   4.090 -0.1226  0.2452  0.2375
  253POPC   GL1 3340   1.898   4.182   4.565  0.0772  0.0821 -0.2188
  253POPC   GL2 3341   2.044   4.452   4.421  0.0670  0.1949 -0.1610
  253POPC   C1A 3342   1.886   4.237   5.026  0.2198 -0.0230 -0.0135
  253POPC   D2A 3343   1.997   4.094   5.389  0.0688  0.2835  0.0488
  253POPC   C3A 3344   2.318   3.933   5.617 -0.2072  0.0963 -0.2635
  253POPC   C4A 3345   2.709   3.734   5.618  0.1423 -0.0627 -0.0808
  253POPC   C1B 3346   2.379   4.308   4.746  0.0975  0.0835  0.2756
  253POPC   C2B 3347   2.454   4.142   5.085 -0.2580  0.0151 -0.0787
  253POPC   C3B 3348   2.708   4.223   5.437  0.1478  0.2225  0.1521
  253POPC   C4B 3349   2.687   4.127   5.922  0.2698 -0.1532  0.0341
  254POPC   NC3 3350   0.090   3.250   4.217  0.2221  0.0583 -0.0568
  254POPC   PO4 3351   0.243   2.893   4.416 -0.2160  0.3859  0.4359
  254POPC   GL1 3352   0.444   3.031   4.687 -0.1529  0.2179  0.2353
  254POPC   GL2 3353   0.441   3.332   4.568  0.0230 -0.0351  0.3941
  254POPC   C1A 3354   0.515   2.969   5.163 -0.0486  0.1016  0.2791
  254POPC   D2A 3355   0.525   3.205   5.595 -0.3067  0.0604 -0.0120
  254POPC   C3A 3356   0.429   3.140   5.990 -0.0597  0.4430 -0.0359
  254POPC   C4A 3357   0.146   2.914   6.294 -0.2151 -0.0967 -0.1607
  254POPC   C1B 3358   0.541   3.506   4.945 -0.1865  0.0286 -0.1927
  254POPC   C2B 3359   0.697   3.524   5.272 -0.1912  0.0499  0.1973
  254POPC   C3B 3360   0.789   3.860   5.519  0.0160 -0.0030 -0.2705
  254POPC   C4B 3361   0.671   4.194   5.822 -0.1151 -0.0132  0.1871
  255POPC   NC3 3362   3.716   2.557   3.714  0.0461  0.0854 -0.2096
  255POPC   PO4 3363   3.454   3.052   3.561  0.1122 -0.0747  0.1242
  255POPC   GL1 3364   3.625   3.029   4.069 -0.0890  0.4503  0.0908
  255POPC   GL2 3365   3.550   2.744   4.227  0.0435 -0.1971  0.0465
  255POPC   C1A 3366   3.884   3.065   4.463 -0.0020  0.1458  0.2127
  255POPC   D2A 3367   3.907   3.096   4.840  0.0284  0.2328  0.2206
  255POPC   C3A 3368   4.206   2.904   5.158 -0.3918 -0.3623 -0.1288
  255POPC   C4A 3369   4.147   2.565   5.369  0.0684 -0.1175 -0.0343
  255POPC   C1B 3370   3.562   2.778   4.730  0.0030  0.1046  0.3355
  255POPC   C2B 3371   3.683   2.786   5.259  0.1455  0.2161 -0.3121
  255POPC   C3B 3372   3.703   2.664   5.768 -0.0499 -0.3537 -0.3027
  255POPC   C4B 3373   3.740   2.707   6.193 -0.0834  0.2582 -0.0891
  256POPC   NC3 3374   2.977   2.275   3.389  0.1464 -0.2500 -0.2487
  256POPC   PO4 3375   3.261   2.135   3.626  0.1468 -0.0902 -0.1301
  256POPC   GL1 3376   3.462   2.246   4.039 -0.0772  0.2456  0.5407
  256POPC   GL2 3377   3.825   2.290   4.176  0.5386 -0.2263  0.2351
  256POPC   C1A 3378   3.389   2.240   4.486  0.1310  0.0502  0.3040
  256POPC   D2A 3379   3.077   1.868   4.661 -0.0964 -0.2592  0.2506
  256POPC   C3A 3380   2.722   1.961   4.961  0.0532 -0.0683  0.0105
  256POPC   C4A 3381   2.416   2.123   5.303 -0.1014  0.0612 -0.1578
  256POPC   C1B 3382   3.833   2.340   4.652  0.4583  0.1866  0.0291
  256POPC   C2B 3383   3.842   2.228   5.042  0.2093 -0.1540 -0.0192
  256POPC   C3B 3384   3.799   2.149   5.498 -0.2583  0.0088 -0.2816
  256POPC   C4B 3385   3.473   2.165   5.657 -0.1340  0.1663 -0.2870
  257POPC   NC3 3386   2.669   4.989   3.401 -0.0461  0.2701 -0.1810
  257POPC   PO4 3387   2.335   5.159   3.774 -0.1581  0.0692 -0.0453
  257POPC   GL1 3388   2.511   5.031   4.205  0.1455  0.0197 -0.3103
  257POPC   GL2 3389   2.183   5.176   4.438  0.2771 -0.1942  0.1047
  257POPC   C1A 3390   2.765   4.901   4.575 -0.0778 -0.0661 -0.3301
  257POPC   D2A 3391   2.669   4.656   4.980  0.0973  0.1405  0.0445
  257POPC   C3A 3392   2.292   4.565   5.301  0.2426 -0.1081  0.1034
  257POPC   C4A 3393   2.151   4.471   5.663 -0.0193 -0.2247 -0.2166
  257POPC   C1B 3394   2.256   4.846   4.748  0.1652 -0.2185  0.3991
  257POPC   C2B 3395   1.954   4.756   5.051  0.1395 -0.0887 -0.3298
  257POPC   C3B 3396   1.829   4.786   5.429  0.0346  0.0176 -0.2390
  257POPC   C4B 3397   1.660   4.731   5.847 -0.0216 -0.0390 -0.5038
  258POPC   NC3 3398   6.808   5.047   3.995 -0.0233  0.2394 -0.0233
  258POPC   PO4 3399   7.228   5.215   4.151  0.0217  0.1532 -0.3250
  258POPC   GL1 3400   7.485   5.280   4.484 -0.0558  0.0180 -0.0814
  258POPC   GL2 3401   7.568   4.973   4.581  0.1195 -0.0223 -0.0890
  258POPC   C1A 3402   7.608   5.506   4.906  0.0551  0.0858  0.0230
  258POPC   D2A 3403   7.661   5.781   5.249  0.0659  0.1257  0.0956
  258POPC   C3A 3404   7.896   5.690   5.609 -0.1034 -0.1566 -0.0770
  258POPC   C4A 3405   7.822   5.513   6.007 -0.1198 -0.1698  0.4738
  258POPC   C1B 3406   7.545   5.021   5.081  0.1787 -0.2906  0.2461
  258POPC   C2B 3407   7.449   4.791   5.538  0.2062 -0.3991 -0.0769
  258POPC   C3B 3408   7.427   4.470   5.791 -0.1650 -0.4748  0.4439
  258POPC   C4B 3409   7.114   4.130   5.834  0.2760 -0.0560  0.0385
  259POPC   NC3 3410   8.902   4.369   4.064 -0.4205 -0.1776 -0.1259
  259POPC   PO4 3411   8.966   4.021   4.449  0.1077  0.1606 -0.2708
  259POPC   GL1 3412   8.798   3.831   4.864 -0.0892  0.1536 -0.0213
  259POPC   GL2 3413   8.458   3.998   4.820 -0.2156  0.1018  0.2099
  259POPC   C1A 3414   8.833   3.915   5.315 -0.0565  0.3019 -0.0631
  259POPC   D2A 3415   8.535   3.946   5.692 -0.0247 -0.1338  0.1204
  259POPC   C3A 3416   8.146   3.866   5.681 -0.0337  0.0344  0.3996
  259POPC   C4A 3417   7.841   3.491   5.843  0.1661 -0.0462 -0.0009
  259POPC   C1B 3418   8.371   4.154   5.281  0.2758 -0.0437 -0.2557
  259POPC   C2B 3419   8.210   4.385   5.576 -0.0652  0.1241 -0.0923
  259POPC   C3B 3420   7.963   4.483   5.859 -0.0639  0.0972  0.0840
  259POPC   C4B 3421   7.802   4.297   6.245  0.0795 -0.1005  0.1781
  260POPC   NC3 3422   7.694   7.794   3.901  0.0780 -0.2831 -0.0466
  260POPC   PO4 3423   7.407   8.039   3.610 -0.1336 -0.1635 -0.0348
  260POPC   GL1 3424   7.264   8.094   3.994  0.2591  0.1853 -0.0838
  260POPC   GL2 3425   6.997   7.848   4.115  0.2129 -0.0886 -0.0736
  260POPC   C1A 3426   7.004   8.325   4.341  0.3656 -0.4086  0.0794
  260POPC   D2A 3427   6.936   8.296   4.714  0.0449 -0.1231  0.2253
  260POPC   C3A 3428   6.610   8.230   4.922 -0.3301 -0.0255  0.2801
  260POPC   C4A 3429   6.495   8.220   5.409 -0.2204 -0.1011  0.3510
  260POPC   C1B 3430   6.997   7.744   4.523  0.0342  0.3238 -0.0560
  260POPC   C2B 3431   6.995   7.781   4.990  0.2951  0.3017 -0.1339
  260POPC   C3B 3432   6.841   7.774   5.384 -0.3147  0.3543  0.1121
  260POPC   C4B 3433   6.830   7.470   5.720  0.1419 -0.0725  0.0078
  261POPC   NC3 3434   1.345   6.340   3.544 -0.1310  0.1309 -0.0681
  261POPC   PO4 3435   1.417   6.705   3.801  0.0287  0.1211 -0.1662
  261POPC   GL1 3436   1.502   6.779   4.276  0.0561  0.3834  0.0222
  261POPC   GL2 3437   1.234   6.619   4.319 -0.0223 -0.2277 -0.1771
  261POPC   C1A 3438   1.562   6.478   4.645  0.5264 -0.2025 -0.0964
  261POPC   D2A 3439   1.237   6.326   4.984 -0.0054 -0.1724 -0.2675
  261POPC   C3A 3440   1.210   5.863   5.177  0.2936  0.1401  0.0380
  261POPC   C4A 3441   0.984   5.819   5.552 -0.0133  0.0259  0.0340
  261POPC   C1B 3442   1.169   6.734   4.707  0.0100 -0.0150 -0.1602
  261POPC   C2B 3443   0.906   6.984   5.002  0.2027  0.0432 -0.4399
  261POPC   C3B 3444   0.753   7.258   5.335  0.0826  0.1717  0.0399
  261POPC   C4B 3445   0.962   7.672   5.382  0.2562 -0.0451 -0.0441
  262POPC   NC3 3446   1.737   7.019   3.716 -0.1404  0.1594  0.2995
  262POPC   PO4 3447   2.043   7.410   3.643  0.0444  0.0938  0.2653
  262POPC   GL1 3448   1.957   7.563   4.079  0.3480 -0.1155  0.0105
  262POPC   GL2 3449   1.665   7.387   4.036  0.3163 -0.3152  0.1214
  262POPC   C1A 3450   1.603   7.659   4.408  0.1698 -0.0795  0.2083
  262POPC   D2A 3451   1.445   7.797   4.766 -0.3640  0.2711  0.2931
  262POPC   C3A 3452   1.162   7.559   4.942 -0.1349  0.0562  0.0171
  262POPC   C4A 3453   1.285   7.228   5.213  0.0526 -0.0206  0.0798
  262POPC   C1B 3454   1.779   7.154   4.381  0.1114  0.4150 -0.3274
  262POPC   C2B 3455   1.742   6.910   4.755 -0.3617 -0.1469 -0.0985
  262POPC   C3B 3456   1.504   6.830   5.061 -0.1351 -0.0223  0.0394
  262POPC   C4B 3457   1.191   6.653   5.344  0.0184  0.2662 -0.2526
  263POPC   NC3 3458   7.268   3.424   3.686 -0.0843 -0.4140  0.1570
  263POPC   PO4 3459   6.848   3.522   3.500 -0.0855  0.0893 -0.1275
  263POPC   GL1 3460   7.011   3.854   3.832  0.0094 -0.1170 -0.1132
  263POPC   GL2 3461   7.361   3.963   3.876 -0.1273 -0.2350  0.4003
  263POPC   C1A 3462   6.778   4.105   4.072 -0.0082  0.4467  0.2718
  263POPC   D2A 3463   6.907   4.341   4.490 -0.1393 -0.1303  0.0259
  263POPC   C3A 3464   7.099   4.128   4.914 -0.4051 -0.0643  0.0872
  263POPC   C4A 3465   7.207   3.995   5.375  0.3684 -0.0436 -0.0493
  263POPC   C1B 3466   7.342   4.136   4.347 -0.0390 -0.1007 -0.0137
  263POPC   C2B 3467   7.660   4.340   4.545 -0.1146 -0.0709  0.1293
  263POPC   C3B 3468   7.757   4.547   4.916  0.2981  0.0619  0.2577
  263POPC   C4B 3469   7.979   4.772   5.280 -0.0453  0.2783 -0.2663
  264POPC   NC3 3470   9.940  10.204   3.553 -0.3306 -0.0808 -0.2122
  264POPC   PO4 3471   9.966   9.730   3.520  0.1009 -0.3496 -0.0159
  264POPC   GL1 3472  10.022   9.865   3.969 -0.0636  0.0607 -0.0295
  264POPC   GL2 3473  10.318   9.737   4.069 -0.0630  0.0243  0.1361
  264POPC   C1A 3474   9.836   9.638   4.347 -0.2352  0.0179 -0.0384
  264POPC   D2A 3475   9.830   9.743   4.832  0.1352  0.1045 -0.1334
  264POPC   C3A 3476   9.894   9.408   5.007  0.0301  0.0686 -0.0199
  264POPC   C4A 3477  10.137   9.114   5.260  0.2697 -0.1128  0.1443
  264POPC   C1B 3478  10.261   9.727   4.571  0.0718 -0.1721  0.0564
  264POPC   C2B 3479  10.382   9.654   4.976 -0.1597 -0.1029  0.2914
  264POPC   C3B 3480  10.569   9.753   5.316 -0.3283  0.2122 -0.4465
  264POPC   C4B 3481  11.005   9.980   5.334  0.1118 -0.2373 -0.1301
  265POPC   NC3 3482   6.073   0.429   3.536  0.0704  0.0121 -0.2052
  265POPC   PO4 3483   6.070   0.023   3.591  0.2565 -0.0732 -0.0896
  265POPC   GL1 3484   5.991  -0.144   3.991  0.2759 -0.2299 -0.1489
  265POPC   GL2 3485   6.188  -0.311   4.005 -0.2413  0.1131 -0.0282
  265POPC   C1A 3486   5.761  -0.119   4.458  0.0049 -0.0737  0.0036
  265POPC   D2A 3487   5.624  -0.199   4.829 -0.0489  0.0908  0.0951
  265POPC   C3A 3488   5.868   0.022   5.161  0.1443  0.1793 -0.0639
  265POPC   C4A 3489   5.986   0.103   5.508  0.2829 -0.1983  0.0441
  265POPC   C1B 3490   6.245  -0.473   4.365  0.2019 -0.0033  0.2759
  265POPC   C2B 3491   6.494  -0.532   4.754  0.3088 -0.0934  0.0857
  265POPC   C3B 3492   6.593  -0.635   5.233 -0.1742 -0.1097  0.1345
  265POPC   C4B 3493   6.907  -0.385   5.496 -0.0966  0.1522 -0.0169
  266POPC   NC3 3494   3.793   9.578   4.099  0.0632  0.3531  0.2126
  266POPC   PO4 3495   4.177   9.458   3.896  0.1665  0.1659 -0.2232
  266POPC   GL1 3496   4.259   9.564   4.357 -0.3449  0.2460 -0.0304
  266POPC   GL2 3497   4.038   9.744   4.589 -0.0045 -0.3133 -0.1380
  266POPC   C1A 3498   4.312   9.187   4.769  0.1999  0.2496  0.1872
  266POPC   D2A 3499   4.022   8.931   4.871 -0.1441  0.1915 -0.0343
  266POPC   C3A 3500   3.813   9.055   5.173  0.4418  0.1799  0.0077
  266POPC   C4A 3501   3.716   9.246   5.483  0.2075 -0.2004 -0.0772
  266POPC   C1B 3502   3.604   9.746   4.871  0.0508  0.3109 -0.0752
  266POPC   C2B 3503   3.102   9.733   4.916 -0.0503  0.1318  0.0832
  266POPC   C3B 3504   2.829   9.372   4.812  0.1157 -0.0461  0.3001
  266POPC   C4B 3505   2.457   9.008   4.601 -0.1583  0.0675  0.1701
  267POPC   NC3 3506   3.663   8.464   4.093 -0.0715 -0.1683 -0.1288
  267POPC   PO4 3507   4.066   8.380   3.732 -0.2894  0.0985 -0.1285
  267POPC   GL1 3508   4.077   8.161   4.136 -0.0104  0.0606 -0.1661
  267POPC   GL2 3509   3.797   8.018   4.200 -0.0448 -0.0390 -0.0896
  267POPC   C1A 3510   4.143   8.171   4.573  0.0169  0.0998  0.1593
  267POPC   D2A 3511   3.768   8.315   4.804  0.3055  0.0906 -0.2618
  267POPC   C3A 3512   3.608   8.116   5.156  0.0924  0.0033 -0.1099
  267POPC   C4A 3513   3.473   7.716   5.312 -0.1231 -0.0623  0.0765
  267POPC   C1B 3514   3.599   7.879   4.534  0.1564  0.3531 -0.4470
  267POPC   C2B 3515   3.309   7.907   4.799  0.1071 -0.1177 -0.1874
  267POPC   C3B 3516   2.869   7.805   5.017 -0.0971 -0.1754 -0.0287
  267POPC   C4B 3517   2.875   7.758   5.477  0.0758 -0.2494 -0.0632
  268POPC   NC3 3518   7.037   0.259   3.665  0.1590  0.1135 -0.0143
  268POPC   PO4 3519   6.664   0.486   3.548 -0.1823 -0.0374  0.2400
  268POPC   GL1 3520   6.614   0.406   3.906 -0.0493 -0.1146 -0.0198
  268POPC   GL2 3521   6.345   0.245   4.023 -0.1590 -0.0815  0.0494
  268POPC   C1A 3522   6.550   0.485   4.349  0.1888 -0.1522  0.1457
  268POPC   D2A 3523   6.436   0.407   4.718  0.2047 -0.1672  0.2628
  268POPC   C3A 3524   6.561   0.468   5.126  0.1551  0.1519  0.1636
  268POPC   C4A 3525   6.923   0.518   5.229  0.3044  0.1622  0.0418
  268POPC   C1B 3526   6.365   0.025   4.375 -0.2618 -0.0796  0.0795
  268POPC   C2B 3527   6.325  -0.000   4.841  0.0101  0.1803 -0.3350
  268POPC   C3B 3528   6.492  -0.155   5.328  0.2455 -0.0847  0.1525
  268POPC   C4B 3529   6.475  -0.189   5.764  0.1841 -0.3859 -0.2210
  269POPC   NC3 3530   9.388   2.817   3.735  0.1473 -0.0818  0.3646
  269POPC   PO4 3531   9.509   3.001   4.199 -0.2210  0.4289  0.0530
  269POPC   GL1 3532   9.470   3.239   4.603  0.0551  0.0154 -0.1168
  269POPC   GL2 3533   9.760   3.199   4.817  0.2495 -0.2308 -0.0189
  269POPC   C1A 3534   9.238   3.490   4.888 -0.2789  0.4703  0.1952
  269POPC   D2A 3535   8.865   3.470   5.164  0.1467 -0.0421 -0.1584
  269POPC   C3A 3536   8.751   3.001   5.349 -0.3203  0.2575  0.0740
  269POPC   C4A 3537   8.479   2.786   5.517 -0.0258 -0.2693 -0.0620
  269POPC   C1B 3538   9.460   3.103   5.180 -0.0946  0.0030 -0.1667
  269POPC   C2B 3539   9.223   3.154   5.448  0.3148  0.0545 -0.1048
  269POPC   C3B 3540   9.009   2.961   5.795 -0.2554 -0.2745 -0.0712
  269POPC   C4B 3541   8.652   2.796   5.989  0.2453  0.1850  0.1046
  270POPC   NC3 3542  10.219   9.523   3.160  0.0427  0.1056  0.3805
  270POPC   PO4 3543   9.894   9.283   3.355  0.2314 -0.1857 -0.5071
  270POPC   GL1 3544   9.976   9.230   3.776  0.2338 -0.3960 -0.0972
  270POPC   GL2 3545   9.665   9.461   3.896  0.1550 -0.4655  0.3502
  270POPC   C1A 3546  10.017   8.953   4.150  0.1683  0.1817 -0.1079
  270POPC   D2A 3547  10.059   8.689   4.594  0.0867  0.0208 -0.2314
  270POPC   C3A 3548  10.422   8.732   4.941 -0.0954 -0.0027  0.1180
  270POPC   C4A 3549  10.518   8.816   5.353  0.0359 -0.0540 -0.0685
  270POPC   C1B 3550   9.373   9.488   4.224 -0.2799 -0.4088  0.0842
  270POPC   C2B 3551   9.263   9.304   4.617  0.2979  0.0060 -0.0201
  270POPC   C3B 3552   9.401   9.325   5.057 -0.0223 -0.0061  0.1446
  270POPC   C4B 3553   9.556   9.032   5.345  0.0206 -0.3612 -0.0183
  271POPC   NC3 3554   4.282   0.910   3.729 -0.1172 -0.1941 -0.1729
  271POPC   PO4 3555   4.152   0.483   3.870  0.2155 -0.1103 -0.0461
  271POPC   GL1 3556   4.143   0.658   4.330  0.0194 -0.0049 -0.3134
  271POPC   GL2 3557   4.202   1.019   4.345 -0.3651 -0.1616 -0.1853
  271POPC   C1A 3558   4.360   0.646   4.678  0.1645 -0.1677  0.0748
  271POPC   D2A 3559   4.359   0.653   4.999  0.1720  0.1750  0.0676
  271POPC   C3A 3560   4.163   0.331   5.241 -0.0619 -0.6197 -0.0621
  271POPC   C4A 3561   4.189   0.270   5.692 -0.0063  0.3505  0.2462
  271POPC   C1B 3562   4.284   1.127   4.845 -0.0228 -0.0695  0.2704
  271POPC   C2B 3563   4.207   1.195   5.295 -0.2180 -0.4062  0.0949
  271POPC   C3B 3564   4.224   1.218   5.766  0.2240  0.0086  0.1282
  271POPC   C4B 3565   3.994   1.484   6.240  0.0463 -0.0795 -0.3886
  272POPC   NC3 3566   1.523   3.706   4.118  0.0173  0.1665 -0.1680
  272POPC   PO4 3567   1.387   4.130   3.924 -0.0903 -0.0173 -0.0116
  272POPC   GL1 3568   1.247   4.052   4.333 -0.1421  0.1641 -0.0889
  272POPC   GL2 3569   0.946   4.162   4.492 -0.1507  0.1823  0.2728
  272POPC   C1A 3570   1.446   3.990   4.779 -0.4846 -0.0080  0.0640
  272POPC   D2A 3571   1.497   3.946   5.197  0.1201 -0.1179  0.2163
  272POPC   C3A 3572   1.204   3.604   5.194 -0.1967 -0.0661 -0.0011
  272POPC   C4A 3573   1.069   3.244   4.908  0.0036  0.3784 -0.0666
  272POPC   C1B 3574   0.753   4.541   4.771 -0.2006 -0.2121 -0.3699
  272POPC   C2B 3575   0.486   4.702   5.157 -0.1905 -0.1649  0.0557
  272POPC   C3B 3576   0.347   4.961   5.433  0.1473 -0.1396  0.0228
  272POPC   C4B 3577   0.448   5.057   5.869 -0.4380  0.0930 -0.5018
  273POPC   NC3 3578   6.160   6.893   3.734  0.2707  0.1402 -0.0672
  273POPC   PO4 3579   6.148   7.370   3.604 -0.0811  0.2458  0.1168
  273POPC   GL1 3580   6.040   7.298   4.012  0.1674  0.0129 -0.0356
  273POPC   GL2 3581   5.959   7.710   4.106  0.0817  0.2233  0.0914
  273POPC   C1A 3582   5.778   7.151   4.424  0.0126  0.1573 -0.1547
  273POPC   D2A 3583   5.674   7.263   4.833  0.2176  0.1393  0.0462
  273POPC   C3A 3584   5.938   7.277   5.167  0.0629 -0.2543 -0.0575
  273POPC   C4A 3585   6.073   7.691   5.433  0.0378 -0.3534  0.0869
  273POPC   C1B 3586   5.726   7.851   4.422  0.2176 -0.2649  0.1147
  273POPC   C2B 3587   5.550   7.832   4.799 -0.0508 -0.1070 -0.0154
  273POPC   C3B 3588   5.538   7.635   5.203 -0.0187 -0.3335 -0.3014
  273POPC   C4B 3589   5.447   7.284   5.317  0.2927  0.0905  0.1467
  274POPC   NC3 3590   7.966   6.228   3.811  0.2483  0.1204  0.0434
  274POPC   PO4 3591   7.505   6.096   3.867  0.1992  0.0451  0.2137
  274POPC   GL1 3592   7.325   6.002   4.292 -0.0178 -0.0897 -0.0594
  274POPC   GL2 3593   7.191   5.665   4.465  0.0761  0.2444 -0.1161
  274POPC   C1A 3594   6.859   6.033   4.483  0.2971  0.1284 -0.0753
  274POPC   D2A 3595   6.649   6.177   4.823 -0.1170  0.2399 -0.1096
  274POPC   C3A 3596   6.319   5.995   4.983 -0.0779 -0.0599 -0.1723
  274POPC   C4A 3597   6.030   5.690   5.134 -0.0897 -0.0738 -0.0349
  274POPC   C1B 3598   7.175   5.876   4.898  0.1419  0.0301 -0.1254
  274POPC   C2B 3599   7.105   6.052   5.318  0.0528  0.2865 -0.1957
  274POPC   C3B 3600   7.032   6.000   5.779 -0.2830  0.0130  0.2394
  274POPC   C4B 3601   6.734   5.876   6.130  0.0067 -0.1808  0.0375
  275POPC   NC3 3602   8.536   8.300   3.597 -0.0518 -0.0104 -0.0781
  275POPC   PO4 3603   8.268   7.937   3.691 -0.0637 -0.3160 -0.3079
  275POPC   GL1 3604   8.164   7.865   4.109 -0.1171  0.1274 -0.0625
  275POPC   GL2 3605   8.460   7.809   4.386 -0.1203  0.1834  0.1413
  275POPC   C1A 3606   7.991   7.896   4.600  0.2455  0.2339  0.1337
  275POPC   D2A 3607   7.545   7.776   4.909  0.3137  0.2176 -0.0884
  275POPC   C3A 3608   7.570   7.357   5.097  0.4830 -0.1049  0.2145
  275POPC   C4A 3609   7.550   6.958   5.182  0.4101 -0.3849 -0.0556
  275POPC   C1B 3610   8.451   7.735   4.815 -0.2145 -0.0906 -0.0263
  275POPC   C2B 3611   8.181   7.955   5.137  0.0079 -0.1505  0.0483
  275POPC   C3B 3612   7.839   8.155   5.399  0.0853 -0.2988  0.0591
  275POPC   C4B 3613   7.412   8.341   5.469  0.1567  0.3062 -0.3169
  276POPC   NC3 3614   8.974  10.232   3.166  0.1445  0.0072 -0.3253
  276POPC   PO4 3615   8.998   9.934   3.438  0.1063 -0.1441  0.1155
  276POPC   GL1 3616   9.053  10.067   4.008  0.0645 -0.0178 -0.1546
  276POPC   GL2 3617   9.136  10.373   4.118  0.2072 -0.1704 -0.0911
  276POPC   C1A 3618   9.163   9.973   4.431 -0.0399  0.1556 -0.2158
  276POPC   D2A 3619   9.233   9.737   4.886 -0.2158 -0.1774  0.1386
  276POPC   C3A 3620   9.508   9.773   5.220  0.0661 -0.1449 -0.1314
  276POPC   C4A 3621   9.327   9.465   5.496 -0.0708 -0.4121 -0.1034
  276POPC   C1B 3622   8.922  10.436   4.500 -0.1379  0.0502  0.0297
  276POPC   C2B 3623   8.656  10.514   4.823 -0.0318 -0.0177 -0.1958
  276POPC   C3B 3624   8.366  10.613   5.210 -0.0521 -0.1328 -0.0547
  276POPC   C4B 3625   8.179  10.357   5.447  0.0621  0.1856  0.0259
  277POPC   NC3 3626   5.516   9.873   3.649  0.0572 -0.0476 -0.0263
  277POPC   PO4 3627   5.180   9.819   3.929 -0.4862 -0.1327 -0.1090
  277POPC   GL1 3628   4.948   9.914   4.264 -0.0633 -0.2431  0.0268
  277POPC   GL2 3629   4.970  10.173   4.475 -0.0877  0.0061 -0.1896
  277POPC   C1A 3630   4.780   9.811   4.684  0.2981  0.3207  0.0092
  277POPC   D2A 3631   4.804   9.641   5.098  0.3859  0.0415  0.3318
  277POPC   C3A 3632   4.627   9.843   5.539 -0.0172 -0.0353 -0.0523
  277POPC   C4A 3633   4.405  10.122   5.781  0.0837 -0.1688  0.1054
  277POPC   C1B 3634   5.127  10.310   4.797  0.2938  0.1615  0.0345
  277POPC   C2B 3635   5.402  10.340   5.237 -0.0742  0.1031 -0.0714
  277POPC   C3B 3636   5.713  10.119   5.468 -0.0750 -0.0367  0.2648
  277POPC   C4B 3637   6.087  10.140   5.304  0.3101 -0.0890  0.2338
  278POPC   NC3 3638   3.234   2.630   3.821  0.2114  0.0526  0.2011
  278POPC   PO4 3639   2.748   2.565   3.777  0.0126  0.1230 -0.0101
  278POPC   GL1 3640   2.697   2.660   4.239 -0.1254  0.3248  0.2183
  278POPC   GL2 3641   2.806   2.921   4.220  0.3167  0.2043 -0.0566
  278POPC   C1A 3642   2.821   2.437   4.640  0.1326  0.3309  0.1052
  278POPC   D2A 3643   2.791   2.423   5.258  0.0534 -0.1805 -0.0295
  278POPC   C3A 3644   2.861   2.076   5.507 -0.3589  0.3687  0.0456
  278POPC   C4A 3645   2.944   1.691   5.834 -0.0219 -0.5390  0.1085
  278POPC   C1B 3646   3.130   2.840   4.443  0.0522  0.0503  0.0109
  278POPC   C2B 3647   3.379   3.239   4.526  0.0119  0.0188  0.1261
  278POPC   C3B 3648   3.484   3.371   5.001 -0.0529  0.1292 -0.3094
  278POPC   C4B 3649   3.848   3.341   5.276 -0.0262  0.1943  0.1711
  279POPC   NC3 3650   8.486   2.840   3.964  0.0904 -0.1051 -0.1744
  279POPC   PO4 3651   8.013   2.863   3.973 -0.2009 -0.0148 -0.1043
  279POPC   GL1 3652   8.229   2.772   4.367 -0.1701 -0.2918 -0.1612
  279POPC   GL2 3653   8.540   2.708   4.504  0.0534 -0.0857  0.0045
  279POPC   C1A 3654   8.146   2.597   4.837 -0.0925 -0.2369 -0.0815
  279POPC   D2A 3655   7.875   2.673   5.162  0.0310 -0.0845 -0.0543
  279POPC   C3A 3656   8.001   2.685   5.624  0.1852  0.0784  0.1336
  279POPC   C4A 3657   8.185   2.489   5.875  0.4438 -0.0894 -0.0522
  279POPC   C1B 3658   8.559   3.012   4.807  0.1989 -0.2026 -0.0315
  279POPC   C2B 3659   8.237   3.029   5.098 -0.0736 -0.2219 -0.0137
  279POPC   C3B 3660   7.963   3.137   5.456  0.1770  0.0614 -0.5022
  279POPC   C4B 3661   7.593   2.935   5.545  0.1137 -0.1090 -0.1014
  280POPC   NC3 3662   6.082   3.757   2.984  0.0356 -0.0981  0.0733
  280POPC   PO4 3663   5.868   3.344   3.330  0.1013 -0.2311  0.2092
  280POPC   GL1 3664   6.111   2.962   3.537  0.4092 -0.2085  0.0506
  280POPC   GL2 3665   5.855   2.667   3.512  0.0972 -0.3715  0.0328
  280POPC   C1A 3666   6.254   2.678   3.909  0.2011  0.4790 -0.4539
  280POPC   D2A 3667   6.500   2.318   3.949 -0.0313 -0.0397  0.1769
  280POPC   C3A 3668   6.510   1.973   4.193  0.1677  0.1590  0.0165
  280POPC   C4A 3669   6.699   1.672   4.284 -0.0939  0.2283 -0.0418
  280POPC   C1B 3670   5.746   2.622   3.942  0.0861  0.1800  0.1141
  280POPC   C2B 3671   5.573   2.276   4.253 -0.0981 -0.0735  0.0103
  280POPC   C3B 3672   5.247   2.155   4.354  0.1881  0.0489  0.1261
  280POPC   C4B 3673   4.947   2.039   4.710  0.0176  0.1320 -0.4370
  281POPC   NC3 3674   9.994   6.436   3.040 -0.0599  0.1711 -0.2673
  281POPC   PO4 3675  10.172   6.504   3.468  0.0529  0.2957 -0.0541
  281POPC   GL1 3676  10.228   6.648   3.970 -0.0511 -0.0488  0.3190
  281POPC   GL2 3677  10.383   6.891   3.974 -0.1386 -0.0553  0.0597
  281POPC   C1A 3678   9.935   6.857   4.369 -0.5060  0.0532  0.1131
  281POPC   D2A 3679   9.536   6.967   4.548 -0.3414 -0.0803  0.2209
  281POPC   C3A 3680   9.419   6.831   5.003  0.0078  0.0116 -0.1937
  281POPC   C4A 3681   9.226   6.895   5.416  0.2039  0.1288  0.0388
  281POPC   C1B 3682  10.576   6.765   4.366  0.0226  0.0286  0.0884
  281POPC   C2B 3683  10.418   6.737   4.653  0.1135  0.0144  0.0003
  281POPC   C3B 3684  10.297   7.085   4.706 -0.1060  0.2620  0.1114
  281POPC   C4B 3685  10.257   7.349   4.433 -0.2659 -0.0260 -0.0401
  282POPC   NC3 3686   9.803   0.619   3.852 -0.0370  0.0566 -0.1376
  282POPC   PO4 3687  10.210   0.714   3.836 -0.2037 -0.2753  0.0649
  282POPC   GL1 3688  10.061   0.856   4.168 -0.4007 -0.1581 -0.1167
  282POPC   GL2 3689   9.777   1.073   4.142  0.0505 -0.0366  0.0639
  282POPC   C1A 3690  10.024   0.715   4.621 -0.1307  0.2187  0.0204
  282POPC   D2A 3691  10.147   0.313   4.748  0.1240 -0.2626  0.2795
  282POPC   C3A 3692   9.875  -0.037   4.763  0.0850 -0.0440 -0.0863
  282POPC   C4A 3693   9.728  -0.444   5.104  0.0426  0.1670  0.0364
  282POPC   C1B 3694   9.569   0.746   4.405  0.3186 -0.1897 -0.1417
  282POPC   C2B 3695   9.623   0.442   4.797  0.1530  0.1061  0.0380
  282POPC   C3B 3696   9.499   0.143   5.072  0.0152 -0.2164 -0.1772
  282POPC   C4B 3697   9.466   0.187   5.486 -0.1846 -0.2020  0.1148
  283POPC   NC3 3698   9.396   4.220   4.172 -0.0969  0.0016  0.4858
  283POPC   PO4 3699   9.696   3.932   4.194 -0.0579  0.1344 -0.0575
  283POPC   GL1 3700   9.711   3.678   4.600 -0.2309 -0.0578 -0.0399
  283POPC   GL2 3701   9.448   3.983   4.661  0.1153  0.0960  0.1246
  283POPC   C1A 3702   9.834   3.632   5.039  0.1728 -0.0015  0.0192
  283POPC   D2A 3703   9.581   3.526   5.440 -0.0342  0.0692  0.0945
  283POPC   C3A 3704   9.461   3.938   5.693 -0.0234 -0.4383  0.1111
  283POPC   C4A 3705   9.050   4.057   5.761 -0.2090  0.1508 -0.1662
  283POPC   C1B 3706   9.379   3.890   5.171 -0.2172  0.0728  0.1394
  283POPC   C2B 3707   9.261   4.276   5.311 -0.3151  0.1953 -0.1149
  283POPC   C3B 3708   9.289   4.729   5.491 -0.1446 -0.1028 -0.2588
  283POPC   C4B 3709   9.283   5.179   5.332  0.1934 -0.0696  0.0577
  284POPC   NC3 3710   4.014   8.913   3.899  0.0013  0.0580  0.1218
  284POPC   PO4 3711   3.661   9.196   3.806  0.1688  0.0429  0.3041
  284POPC   GL1 3712   3.684   8.966   4.257 -0.3466  0.2775  0.1004
  284POPC   GL2 3713   3.842   9.104   4.392 -0.1060 -0.1231  0.1677
  284POPC   C1A 3714   3.557   8.839   4.659  0.1910 -0.2580  0.2479
  284POPC   D2A 3715   3.500   8.641   5.032 -0.1818  0.1553  0.3460
  284POPC   C3A 3716   3.593   8.757   5.549 -0.1700  0.0370  0.0196
  284POPC   C4A 3717   3.623   8.947   5.917  0.1579  0.0826 -0.2541
  284POPC   C1B 3718   3.863   9.372   4.756  0.0138  0.1225 -0.0802
  284POPC   C2B 3719   3.989   9.526   5.104 -0.0896 -0.1276 -0.0343
  284POPC   C3B 3720   4.261   9.391   5.416  0.0480 -0.1628 -0.2356
  284POPC   C4B 3721   4.570   9.170   5.794 -0.3252 -0.1401 -0.3211
  285POPC   NC3 3722   1.910   2.136   4.041  0.3840 -0.0598 -0.0746
  285POPC   PO4 3723   1.468   2.110   4.060  0.2716  0.0326  0.3956
  285POPC   GL1 3724   1.686   2.103   4.449  0.1340 -0.0889  0.1073
  285POPC   GL2 3725   1.508   2.248   4.652 -0.1344 -0.0012  0.1408
  285POPC   C1A 3726   1.735   1.602   4.597 -0.0778 -0.1563  0.0859
  285POPC   D2A 3727   1.847   1.551   5.004  0.2065  0.0730 -0.0950
  285POPC   C3A 3728   1.769   1.084   5.072  0.1295  0.0180  0.2278
  285POPC   C4A 3729   1.476   0.728   5.342 -0.0831 -0.0762 -0.1228
  285POPC   C1B 3730   1.530   2.055   5.068  0.2032 -0.0958 -0.2174
  285POPC   C2B 3731   1.510   1.759   5.327 -0.0797 -0.1650 -0.1724
  285POPC   C3B 3732   1.596   1.750   5.832  0.1501 -0.1405 -0.1773
  285POPC   C4B 3733   1.387   1.547   6.172  0.0094 -0.3739  0.0045
  286POPC   NC3 3734   3.702   5.317   4.196 -0.1290  0.1066 -0.0807
  286POPC   PO4 3735   3.392   5.196   3.935 -0.2505 -0.4906 -0.0652
  286POPC   GL1 3736   3.237   5.311   4.403 -0.1205 -0.3685  0.1435
  286POPC   GL2 3737   3.374   4.970   4.509  0.2913  0.2291  0.0372
  286POPC   C1A 3738   2.994   5.526   4.802 -0.0515  0.0391  0.0886
  286POPC   D2A 3739   3.065   5.565   5.214 -0.0399 -0.0039 -0.2979
  286POPC   C3A 3740   3.240   5.824   5.537 -0.0687 -0.3813 -0.2448
  286POPC   C4A 3741   3.543   6.216   5.644 -0.2817  0.0910  0.2062
  286POPC   C1B 3742   3.219   5.031   4.931 -0.4881  0.3539  0.3747
  286POPC   C2B 3743   3.397   5.068   5.345  0.2720 -0.1947  0.0017
  286POPC   C3B 3744   3.526   4.821   5.853  0.3303 -0.1755 -0.1400
  286POPC   C4B 3745   3.791   4.616   6.176  0.1200  0.3761 -0.2685
  287POPC   NC3 3746   8.772   1.998   3.697 -0.3247 -0.3009  0.0658
  287POPC   PO4 3747   9.122   2.275   3.821 -0.0968  0.0162  0.0630
  287POPC   GL1 3748   8.967   2.230   4.322 -0.2228  0.2450 -0.0553
  287POPC   GL2 3749   9.176   2.119   4.514 -0.3372 -0.0766  0.2267
  287POPC   C1A 3750   8.833   2.292   4.785 -0.2289  0.2069  0.1830
  287POPC   D2A 3751   8.640   2.477   5.135 -0.0746  0.0293 -0.1866
  287POPC   C3A 3752   8.288   2.354   5.331 -0.0961  0.1987 -0.1954
  287POPC   C4A 3753   8.052   2.052   5.622 -0.0232  0.1427 -0.1616
  287POPC   C1B 3754   9.115   1.851   4.831 -0.0766 -0.2616 -0.2032
  287POPC   C2B 3755   8.994   2.080   5.249  0.1532  0.1585  0.0687
  287POPC   C3B 3756   9.045   2.062   5.700  0.3471 -0.1128 -0.0468
  287POPC   C4B 3757   9.056   1.669   5.813  0.0731  0.0207  0.0848
  288POPC   NC3 3758   6.970   9.461   3.129 -0.1510  0.0526 -0.2207
  288POPC   PO4 3759   7.226   9.419   3.408 -0.1563 -0.0931  0.0664
  288POPC   GL1 3760   7.115   9.711   3.864  0.1100  0.1148  0.1740
  288POPC   GL2 3761   7.278  10.096   3.951  0.0996  0.0116 -0.2302
  288POPC   C1A 3762   6.995   9.817   4.182 -0.2065  0.0435 -0.1338
  288POPC   D2A 3763   7.050  10.133   4.523 -0.1396  0.1842 -0.5845
  288POPC   C3A 3764   7.354  10.209   4.881 -0.1875 -0.2864 -0.2431
  288POPC   C4A 3765   7.418  10.422   5.327  0.1238 -0.3790 -0.3245
  288POPC   C1B 3766   7.314  10.464   4.292  0.0404  0.0785  0.0622
  288POPC   C2B 3767   7.373  10.660   4.601  0.0026  0.1824 -0.0882
  288POPC   C3B 3768   7.299  10.836   5.032 -0.1479 -0.0212 -0.0259
  288POPC   C4B 3769   7.326  11.041   5.441  0.1627  0.0326 -0.0794
  289POPC   NC3 3770   4.436   5.031   4.051  0.2097  0.2731 -0.1524
  289POPC   PO4 3771   4.687   5.405   3.884 -0.1444  0.2474  0.0931
  289POPC   GL1 3772   4.625   5.519   4.384 -0.1621  0.3083 -0.0455
  289POPC   GL2 3773   4.650   5.208   4.473  0.0554  0.0230 -0.0683
  289POPC   C1A 3774   4.435   5.769   4.720 -0.4747  0.4710 -0.0352
  289POPC   D2A 3775   4.385   6.241   4.913 -0.0335  0.0565 -0.1893
  289POPC   C3A 3776   4.483   6.556   5.262 -0.1485 -0.0159 -0.1702
  289POPC   C4A 3777   4.136   6.766   5.615  0.1815 -0.0237  0.1159
  289POPC   C1B 3778   4.525   5.291   4.948 -0.1196 -0.2575  0.0814
  289POPC   C2B 3779   4.286   5.306   5.319  0.0928  0.3473 -0.1439
  289POPC   C3B 3780   4.392   5.036   5.599 -0.0898  0.0179 -0.1717
  289POPC   C4B 3781   4.745   4.835   5.659 -0.0018 -0.1480 -0.0585
  290POPC   NC3 3782   9.188   0.522   3.901 -0.0465 -0.1826  0.1302
  290POPC   PO4 3783   8.970   0.141   3.858  0.1778  0.1329  0.2573
  290POPC   GL1 3784   8.904   0.247   4.315 -0.3348  0.0812 -0.1526
  290POPC   GL2 3785   9.191   0.382   4.404 -0.0437 -0.2866  0.2060
  290POPC   C1A 3786   8.679   0.503   4.608 -0.1556 -0.2283  0.0380
  290POPC   D2A 3787   8.588   0.438   4.997 -0.1191  0.0971  0.0539
  290POPC   C3A 3788   8.527   0.774   5.342  0.0844  0.0008 -0.0929
  290POPC   C4A 3789   8.743   1.038   5.646 -0.1499 -0.3787 -0.1649
  290POPC   C1B 3790   9.092   0.228   4.774 -0.0425  0.0001  0.1306
  290POPC   C2B 3791   8.977   0.215   5.220  0.1731 -0.1714  0.1313
  290POPC   C3B 3792   8.725   0.313   5.504  0.2345 -0.0102  0.0155
  290POPC   C4B 3793   8.323   0.372   5.614  0.0044  0.2148  0.2820
  291POPC   NC3 3794   7.827   7.875   3.447  0.0804 -0.0220  0.2131
  291POPC   PO4 3795   7.831   8.227   3.706 -0.2621  0.0050 -0.0235
  291POPC   GL1 3796   7.755   8.230   4.137 -0.0150 -0.1094  0.2151
  291POPC   GL2 3797   7.945   8.363   4.403  0.1008  0.0128 -0.0698
  291POPC   C1A 3798   7.423   8.123   4.456  0.0558  0.5193 -0.0630
  291POPC   D2A 3799   7.374   8.277   4.906  0.1777  0.4210  0.0197
  291POPC   C3A 3800   6.999   8.268   5.190 -0.4627  0.0549  0.0906
  291POPC   C4A 3801   6.986   8.181   5.697  0.4129  0.1124 -0.0035
  291POPC   C1B 3802   8.327   8.275   4.641  0.1107 -0.1604  0.0636
  291POPC   C2B 3803   8.672   8.153   4.746  0.0730 -0.0302  0.3207
  291POPC   C3B 3804   9.115   8.223   4.711 -0.0265 -0.0090 -0.2026
  291POPC   C4B 3805   9.251   8.394   4.233 -0.1077 -0.3100 -0.0730
  292POPC   NC3 3806  10.204   5.986   3.549 -0.1260 -0.1887  0.1825
  292POPC   PO4 3807  10.530   6.196   3.876 -0.3617 -0.0575 -0.1091
  292POPC   GL1 3808  10.404   6.225   4.276 -0.0897  0.3836 -0.3109
  292POPC   GL2 3809  10.709   6.162   4.360  0.1858 -0.4441 -0.0113
  292POPC   C1A 3810  10.072   6.383   4.574  0.0205  0.0930 -0.1359
  292POPC   D2A 3811   9.791   6.509   4.877  0.0434  0.0038  0.1771
  292POPC   C3A 3812   9.956   6.840   4.964  0.2566  0.0496  0.0695
  292POPC   C4A 3813  10.253   7.049   5.255 -0.1155  0.0090 -0.1111
  292POPC   C1B 3814  10.517   6.196   4.778 -0.0817  0.2447  0.0905
  292POPC   C2B 3815  10.283   6.430   5.107 -0.1548 -0.1012 -0.0189
  292POPC   C3B 3816   9.955   6.572   5.407 -0.1259  0.0661 -0.0685
  292POPC   C4B 3817   9.609   6.758   5.648  0.2985 -0.2042 -0.6138
  293POPC   NC3 3818   9.730   1.500   3.803 -0.0934  0.1848 -0.3364
  293POPC   PO4 3819   9.331   1.315   4.062  0.1150  0.1147 -0.2757
  293POPC   GL1 3820   9.326   1.562   4.455  0.0627 -0.0564 -0.1838
  293POPC   GL2 3821   8.983   1.382   4.411 -0.2020  0.2360  0.0090
  293POPC   C1A 3822   9.509   1.464   4.971 -0.0413  0.2069 -0.0284
  293POPC   D2A 3823   9.162   1.437   5.340 -0.0921  0.1881 -0.4768
  293POPC   C3A 3824   8.714   1.436   5.260 -0.1007  0.0387 -0.5624
  293POPC   C4A 3825   8.671   1.829   5.027  0.0348  0.1630 -0.1206
  293POPC   C1B 3826   9.055   1.334   4.880 -0.1627 -0.3199 -0.0714
  293POPC   C2B 3827   9.515   0.988   5.004  0.0114 -0.2420  0.0658
  293POPC   C3B 3828   9.553   0.648   5.245  0.2027 -0.3989 -0.1509
  293POPC   C4B 3829   9.991   0.472   5.323  0.1594  0.1147  0.2040
  294POPC   NC3 3830   1.180   9.838   3.593 -0.0445 -0.1426 -0.1306
  294POPC   PO4 3831   0.705   9.908   3.516 -0.1027 -0.0361  0.0979
  294POPC   GL1 3832   0.658   9.767   3.960  0.1584 -0.0436 -0.1311
  294POPC   GL2 3833   0.816   9.364   3.923  0.0659 -0.0943  0.1007
  294POPC   C1A 3834   0.530   9.657   4.432  0.2191 -0.3490  0.3263
  294POPC   D2A 3835   0.692   9.850   4.856 -0.2782  0.4787  0.1693
  294POPC   C3A 3836   0.980   9.556   5.143  0.1984 -0.0992 -0.1074
  294POPC   C4A 3837   1.313   9.273   5.150  0.1484 -0.0400  0.2816
  294POPC   C1B 3838   0.608   9.236   4.245 -0.1713  0.0570 -0.0856
  294POPC   C2B 3839   0.429   9.234   4.711  0.0257 -0.0026  0.1295
  294POPC   C3B 3840  -0.037   9.174   4.832 -0.2228 -0.1574  0.0288
  294POPC   C4B 3841  -0.460   9.165   4.703  0.1241  0.2641  0.3475
  295POPC   NC3 3842   7.255  10.401   3.551 -0.1513  0.0673 -0.2528
  295POPC   PO4 3843   7.658  10.256   3.588 -0.2476 -0.0031  0.2594
  295POPC   GL1 3844   7.764  10.180   4.113  0.1521 -0.0501 -0.1887
  295POPC   GL2 3845   8.065  10.280   4.218 -0.4899 -0.1918 -0.0195
  295POPC   C1A 3846   7.525   9.811   4.454  0.4458  0.2222 -0.1772
  295POPC   D2A 3847   7.133   9.695   4.653 -0.2237  0.2952 -0.1185
  295POPC   C3A 3848   6.980   9.970   4.973  0.0195  0.1006  0.1645
  295POPC   C4A 3849   6.931  10.441   5.041  0.2899 -0.1943  0.2786
  295POPC   C1B 3850   7.828  10.455   4.505  0.0328 -0.1069 -0.1031
  295POPC   C2B 3851   7.868  10.528   4.957  0.2206 -0.1432 -0.0755
  295POPC   C3B 3852   7.876  10.731   5.337  0.0394  0.4211  0.0103
  295POPC   C4B 3853   7.809  11.075   5.630  0.3117  0.0283 -0.4151
  296POPC   NC3 3854   8.291   5.691   3.748 -0.0830 -0.0590  0.1506
  296POPC   PO4 3855   8.452   6.113   3.715  0.1805  0.1155  0.1478
  296POPC   GL1 3856   8.232   6.089   4.224 -0.0382  0.2423  0.1310
  296POPC   GL2 3857   7.883   5.925   4.184 -0.0264  0.2201  0.1747
  296POPC   C1A 3858   8.308   5.966   4.664 -0.3917  0.0293 -0.1454
  296POPC   D2A 3859   8.190   6.190   5.004 -0.1815  0.0094 -0.1099
  296POPC   C3A 3860   8.498   6.210   5.189 -0.0516 -0.0167  0.2092
  296POPC   C4A 3861   8.898   6.102   5.325  0.0331 -0.0920  0.1198
  296POPC   C1B 3862   7.771   5.850   4.611  0.0904 -0.0040 -0.3862
  296POPC   C2B 3863   7.614   6.186   4.882 -0.0797 -0.2080 -0.0647
  296POPC   C3B 3864   7.375   6.368   5.010 -0.1378  0.0930  0.0950
  296POPC   C4B 3865   7.132   6.578   5.070 -0.0749  0.1236 -0.1323
  297POPC   NC3 3866   6.365   1.736   2.928  0.1290  0.3140  0.0774
  297POPC   PO4 3867   6.776   1.517   2.946  0.1499  0.0251 -0.2134
  297POPC   GL1 3868   6.579   1.660   3.419 -0.0507 -0.1882  0.2160
  297POPC   GL2 3869   6.572   1.941   3.661 -0.3177  0.0747  0.0558
  297POPC   C1A 3870   6.462   1.488   3.852 -0.0384  0.0841 -0.1176
  297POPC   D2A 3871   6.297   1.240   3.963 -0.2061 -0.0892  0.5162
  297POPC   C3A 3872   5.931   1.135   4.054  0.0909  0.4278 -0.0714
  297POPC   C4A 3873   5.748   0.983   4.404 -0.0116  0.0467 -0.2138
  297POPC   C1B 3874   6.235   1.888   3.787 -0.1624  0.2451  0.0696
  297POPC   C2B 3875   6.004   1.685   4.104 -0.0559 -0.1745 -0.0571
  297POPC   C3B 3876   5.938   1.448   4.414  0.4344 -0.1971 -0.3383
  297POPC   C4B 3877   5.804   1.290   4.833  0.4135  0.1996  0.1933
  298POPC   NC3 3878   5.640   7.343   3.740 -0.1578 -0.1126 -0.1039
  298POPC   PO4 3879   5.344   7.042   3.763 -0.0308 -0.0852 -0.1006
  298POPC   GL1 3880   5.378   7.130   4.135  0.1539  0.3159 -0.1382
  298POPC   GL2 3881   5.331   6.845   4.286  0.0322  0.0360  0.2020
  298POPC   C1A 3882   5.388   7.507   4.481  0.1227  0.0199  0.0712
  298POPC   D2A 3883   5.145   7.556   4.849  0.0668  0.0797 -0.0669
  298POPC   C3A 3884   5.032   7.689   5.223 -0.0244  0.0654  0.2693
  298POPC   C4A 3885   5.028   7.751   5.577  0.1242  0.1875  0.1239
  298POPC   C1B 3886   5.309   6.990   4.675  0.1291 -0.1426 -0.1986
  298POPC   C2B 3887   5.303   6.895   5.084  0.2444  0.0003 -0.2023
  298POPC   C3B 3888   5.520   6.591   5.371  0.4176 -0.0119  0.2170
  298POPC   C4B 3889   5.624   6.393   5.680 -0.0960  0.1721  0.1011
  299POPC   NC3 3890   5.975   8.594   3.144 -0.0476 -0.2328  0.3334
  299POPC   PO4 3891   6.130   8.503   3.605  0.1221 -0.1977 -0.2098
  299POPC   GL1 3892   6.173   8.505   4.036 -0.0745  0.3183 -0.0382
  299POPC   GL2 3893   5.888   8.382   4.221 -0.2572  0.1295  0.2125
  299POPC   C1A 3894   6.402   8.190   4.343 -0.0877 -0.0808 -0.1656
  299POPC   D2A 3895   6.071   8.049   4.775  0.2127  0.0053 -0.0906
  299POPC   C3A 3896   5.982   7.741   4.968 -0.1294 -0.1722  0.1150
  299POPC   C4A 3897   6.100   7.460   4.677  0.1472  0.1727 -0.2797
  299POPC   C1B 3898   6.122   8.520   4.611 -0.0269 -0.1265 -0.2518
  299POPC   C2B 3899   6.173   8.662   4.920 -0.0766 -0.3179  0.1390
  299POPC   C3B 3900   6.062   8.718   5.359 -0.0800 -0.1487 -0.1902
  299POPC   C4B 3901   6.042   8.614   5.785 -0.1209 -0.0308 -0.0359
  300POPC   NC3 3902   5.283   9.024   3.557 -0.1384 -0.3142 -0.0548
  300POPC   PO4 3903   5.670   8.785   3.535  0.1669  0.0948 -0.0720
  300POPC   GL1 3904   5.813   8.775   3.957 -0.3515 -0.1651  0.5092
  300POPC   GL2 3905   5.836   9.068   3.997  0.0532 -0.2728 -0.2539
  300POPC   C1A 3906   5.761   8.831   4.469 -0.2538 -0.0896 -0.1252
  300POPC   D2A 3907   5.618   8.823   4.873  0.0239  0.2077  0.0174
  300POPC   C3A 3908   5.637   9.045   5.286 -0.4970  0.1292  0.0676
  300POPC   C4A 3909   5.584   9.161   5.749 -0.0694 -0.0231  0.0429
  300POPC   C1B 3910   5.338   8.923   4.152  0.1364 -0.0578  0.3897
  300POPC   C2B 3911   4.994   8.865   4.447  0.1334  0.0785 -0.0916
  300POPC   C3B 3912   4.786   8.934   4.796  0.2487 -0.0476  0.0091
  300POPC   C4B 3913   4.646   9.193   5.111 -0.1088  0.1873  0.0866
  301POPC   NC3 3914   3.517   6.379   4.028 -0.1900  0.0746  0.0064
  301POPC   PO4 3915   3.299   6.789   4.052  0.0302 -0.1487  0.0050
  301POPC   GL1 3916   3.172   6.955   4.399 -0.0732 -0.0260  0.1279
  301POPC   GL2 3917   3.027   7.291   4.355  0.2780  0.0323  0.1183
  301POPC   C1A 3918   3.082   6.951   4.782  0.0222  0.1733 -0.1721
  301POPC   D2A 3919   3.064   6.928   5.269  0.0500  0.2908  0.1201
  301POPC   C3A 3920   2.682   6.756   5.475 -0.0437  0.3518  0.2160
  301POPC   C4A 3921   2.528   6.501   5.425  0.0765 -0.0007 -0.2793
  301POPC   C1B 3922   3.128   7.495   4.626  0.0473  0.0521 -0.0332
  301POPC   C2B 3923   3.295   7.325   5.029  0.0809  0.1411 -0.0652
  301POPC   C3B 3924   3.132   7.384   5.445 -0.1957 -0.2774 -0.0539
  301POPC   C4B 3925   3.244   7.651   5.806 -0.2084 -0.1016 -0.2147
  302POPC   NC3 3926   5.494   1.864   3.116 -0.0800  0.0224 -0.2429
  302POPC   PO4 3927   5.637   1.529   3.525 -0.1589  0.0683  0.3906
  302POPC   GL1 3928   5.444   1.619   3.824  0.1716  0.0504 -0.0618
  302POPC   GL2 3929   5.207   1.769   3.891 -0.3339 -0.1304  0.3161
  302POPC   C1A 3930   5.486   1.371   4.197  0.0491 -0.1521  0.0560
  302POPC   D2A 3931   5.297   1.163   4.548 -0.0789  0.0315 -0.2204
  302POPC   C3A 3932   5.331   1.164   4.962  0.1522  0.2049  0.0809
  302POPC   C4A 3933   5.081   1.176   5.209  0.1803  0.2556 -0.1935
  302POPC   C1B 3934   4.995   1.622   4.377 -0.1337 -0.1782 -0.1553
  302POPC   C2B 3935   4.822   1.308   4.653  0.0399  0.1985  0.0850
  302POPC   C3B 3936   4.650   1.472   5.033  0.3552  0.2384 -0.0916
  302POPC   C4B 3937   4.561   1.517   5.534 -0.1429  0.0809  0.0314
  303POPC   NC3 3938   3.672   8.204   3.475  0.1102  0.4545 -0.0442
  303POPC   PO4 3939   3.894   7.870   3.715 -0.2136 -0.0992 -0.0883
  303POPC   GL1 3940   4.056   7.595   4.029 -0.3343 -0.3877  0.1245
  303POPC   GL2 3941   3.935   7.339   4.085 -0.1442  0.1194  0.0251
  303POPC   C1A 3942   4.025   7.669   4.477 -0.1020  0.2772  0.0945
  303POPC   D2A 3943   4.109   7.618   4.942  0.1774 -0.0935  0.0697
  303POPC   C3A 3944   4.118   8.078   5.051 -0.2784  0.1959 -0.3955
  303POPC   C4A 3945   3.918   8.486   5.280 -0.1030  0.3311  0.2288
  303POPC   C1B 3946   3.560   7.298   4.413 -0.3477 -0.2136 -0.0653
  303POPC   C2B 3947   3.607   6.931   4.773  0.2973 -0.1627 -0.1499
  303POPC   C3B 3948   3.361   6.535   4.883 -0.3659  0.1572  0.1320
  303POPC   C4B 3949   3.307   6.030   4.756 -0.1642  0.0026 -0.3647
  304POPC   NC3 3950   0.164   4.870   3.977  0.0531 -0.2915 -0.1567
  304POPC   PO4 3951   0.456   4.634   3.890 -0.3389  0.2999  0.1610
  304POPC   GL1 3952   0.586   4.669   4.276 -0.3911 -0.2185  0.1210
  304POPC   GL2 3953   0.375   4.477   4.501 -0.3670  0.2047 -0.0168
  304POPC   C1A 3954   0.625   5.039   4.589 -0.2986 -0.0825  0.4783
  304POPC   D2A 3955   0.679   5.161   5.080  0.2079 -0.0253  0.0642
  304POPC   C3A 3956   1.102   5.314   5.286  0.2170 -0.0832 -0.2065
  304POPC   C4A 3957   1.399   5.552   5.546 -0.0617 -0.4147 -0.1161
  304POPC   C1B 3958   0.102   4.704   4.760  0.0457 -0.2962  0.1542
  304POPC   C2B 3959  -0.289   5.008   4.748  0.3173  0.2237 -0.0203
  304POPC   C3B 3960  -0.402   5.391   4.547  0.1459 -0.0402 -0.0046
  304POPC   C4B 3961  -0.475   5.902   4.459  0.0156 -0.2029 -0.0132
  305POPC   NC3 3962   0.760   8.913   3.620  0.2029  0.2357  0.1303
  305POPC   PO4 3963   0.652   8.531   3.802  0.0141  0.3415  0.0409
  305POPC   GL1 3964   0.742   8.490   4.225 -0.3340  0.2292  0.2658
  305POPC   GL2 3965   0.743   8.204   4.341 -0.0987 -0.0244  0.6167
  305POPC   C1A 3966   0.755   8.686   4.664 -0.0539 -0.0305  0.4396
  305POPC   D2A 3967   0.813   9.067   4.916 -0.2653 -0.1053 -0.1929
  305POPC   C3A 3968   0.421   9.017   5.188  0.1737 -0.0486  0.4035
  305POPC   C4A 3969   0.018   9.282   5.343 -0.3119  0.1753  0.1262
  305POPC   C1B 3970   0.349   8.267   4.566 -0.0473 -0.0068 -0.2306
  305POPC   C2B 3971   0.029   8.253   4.906 -0.2095  0.1041  0.0106
  305POPC   C3B 3972  -0.241   8.260   5.275  0.1204  0.4278  0.0867
  305POPC   C4B 3973  -0.286   8.081   5.648 -0.1772 -0.0455 -0.1955
  306POPC   NC3 3974   0.795   7.238   3.665 -0.1439  0.0018  0.1704
  306POPC   PO4 3975   0.566   7.535   3.806 -0.1889  0.1410  0.1532
  306POPC   GL1 3976   0.888   7.514   4.103 -0.1608 -0.1209  0.0983
  306POPC   GL2 3977   1.215   7.332   4.207  0.2294 -0.2001  0.0745
  306POPC   C1A 3978   1.017   7.673   4.441  0.1615  0.0360  0.0009
  306POPC   D2A 3979   0.900   7.879   4.788  0.2983  0.2001 -0.1832
  306POPC   C3A 3980   0.583   8.071   5.089  0.0211 -0.0730  0.0903
  306POPC   C4A 3981   0.762   8.173   5.510 -0.1658 -0.0233 -0.0580
  306POPC   C1B 3982   1.367   7.215   4.612 -0.2464 -0.1126 -0.0265
  306POPC   C2B 3983   1.627   7.363   4.889  0.0328 -0.3142  0.0076
  306POPC   C3B 3984   2.044   7.412   5.176  0.1407  0.1708 -0.0550
  306POPC   C4B 3985   2.379   7.654   5.109  0.2343 -0.1326  0.0574
  307POPC   NC3 3986   4.598   3.383   3.705  0.1596 -0.0194 -0.1071
  307POPC   PO4 3987   4.223   3.669   3.797  0.1965 -0.1758 -0.0821
  307POPC   GL1 3988   4.197   3.825   4.177 -0.1025 -0.1625 -0.0384
  307POPC   GL2 3989   4.139   4.215   4.174 -0.0411  0.0385  0.0041
  307POPC   C1A 3990   4.408   3.717   4.563  0.0518 -0.0311  0.1687
  307POPC   D2A 3991   4.545   3.857   4.866  0.0338  0.2333  0.2782
  307POPC   C3A 3992   4.731   3.625   5.094 -0.0512 -0.2488  0.2055
  307POPC   C4A 3993   4.832   3.325   5.439  0.1635 -0.2465  0.1451
  307POPC   C1B 3994   4.439   4.243   4.600 -0.0144  0.1312  0.0587
  307POPC   C2B 3995   4.454   4.379   5.021  0.1203 -0.0560  0.0875
  307POPC   C3B 3996   4.528   4.397   5.512 -0.2004  0.0829 -0.0764
  307POPC   C4B 3997   4.812   4.264   5.830 -0.0386 -0.0109 -0.2784
  308POPC   NC3 3998   3.435   7.968   3.854 -0.1216 -0.1022  0.1209
  308POPC   PO4 3999   3.270   8.339   3.769 -0.0191  0.0023  0.0278
  308POPC   GL1 4000   3.195   8.384   4.289 -0.2187 -0.3233  0.0735
  308POPC   GL2 4001   2.945   8.269   4.342 -0.1563 -0.1946 -0.0937
  308POPC   C1A 4002   3.274   8.455   4.649  0.0193  0.0694  0.0102
  308POPC   D2A 4003   3.032   8.424   5.070  0.1216 -0.0699  0.2380
  308POPC   C3A 4004   3.082   8.617   5.441  0.2184  0.1645  0.0486
  308POPC   C4A 4005   3.043   8.846   5.799 -0.3135  0.1537 -0.2178
  308POPC   C1B 4006   2.663   8.103   4.694  0.0603 -0.1286 -0.1723
  308POPC   C2B 4007   2.625   8.160   5.225 -0.0270 -0.1604 -0.0636
  308POPC   C3B 4008   2.340   7.993   5.506 -0.1762  0.1996  0.0998
  308POPC   C4B 4009   2.345   7.619   5.649 -0.1326  0.2572  0.2486
  309POPC   NC3 4010   9.593   4.688   3.386  0.0507  0.0109  0.0063
  309POPC   PO4 4011   9.346   4.661   3.827 -0.3232  0.2306  0.0623
  309POPC   GL1 4012   9.506   4.813   4.221 -0.1503  0.3709  0.0268
  309POPC   GL2 4013   9.458   5.145   4.070  0.1288  0.2849  0.0599
  309POPC   C1A 4014   9.349   4.914   4.678  0.0744 -0.0219  0.1008
  309POPC   D2A 4015   9.333   4.671   5.025  0.2723  0.2063  0.0688
  309POPC   C3A 4016   8.860   4.750   5.244 -0.1672  0.0982  0.0370
  309POPC   C4A 4017   8.468   4.695   5.262 -0.0124 -0.1774  0.0635
  309POPC   C1B 4018   9.674   5.216   4.490  0.1962  0.0520  0.2750
  309POPC   C2B 4019   9.834   5.272   4.877 -0.0300  0.2856 -0.1172
  309POPC   C3B 4020  10.147   5.304   5.156 -0.1783  0.0436 -0.2242
  309POPC   C4B 4021  10.496   5.014   5.218  0.1027 -0.0794  0.2544
  310POPC   NC3 4022   9.442   2.492   4.185  0.0332 -0.3710 -0.0920
  310POPC   PO4 4023   9.847   2.353   4.270  0.0280  0.0359 -0.1693
  310POPC   GL1 4024  10.133   2.360   4.704 -0.0467  0.0050  0.1983
  310POPC   GL2 4025  10.256   2.140   4.518 -0.0944 -0.2742  0.0265
  310POPC   C1A 4026  10.231   2.446   5.076  0.1179  0.1257 -0.1432
  310POPC   D2A 4027  10.429   2.450   5.471  0.1271  0.2458  0.1231
  310POPC   C3A 4028  10.275   2.132   5.893  0.0491 -0.2403  0.0151
  310POPC   C4A 4029  10.080   1.788   5.791 -0.1508 -0.0647  0.0694
  310POPC   C1B 4030  10.497   2.029   4.923 -0.0313  0.2417  0.0258
  310POPC   C2B 4031  10.715   2.265   5.099 -0.2098 -0.0198 -0.0080
  310POPC   C3B 4032  10.932   2.443   5.426 -0.1243 -0.0767  0.1114
  310POPC   C4B 4033  11.062   2.609   5.694  0.2887  0.2733 -0.2491
  311POPC   NC3 4034   2.193   9.658   3.626 -0.1109  0.0802  0.1785
  311POPC   PO4 4035   1.715   9.595   3.682  0.2094  0.2228 -0.2110
  311POPC   GL1 4036   1.480   9.881   3.996 -0.1319  0.2087  0.0805
  311POPC   GL2 4037   1.156   9.754   4.135 -0.1184  0.1363 -0.0430
  311POPC   C1A 4038   1.610   9.864   4.473 -0.1222 -0.0925  0.1362
  311POPC   D2A 4039   1.673  10.021   4.894 -0.1419  0.2227  0.1704
  311POPC   C3A 4040   1.363   9.858   5.262  0.2024 -0.1227  0.3081
  311POPC   C4A 4041   1.008  10.020   5.416  0.3553 -0.0815 -0.2924
  311POPC   C1B 4042   0.964   9.986   4.449  0.0869  0.4030 -0.3052
  311POPC   C2B 4043   0.911  10.481   4.483 -0.1957  0.0658  0.3117
  311POPC   C3B 4044   0.666  10.731   4.781 -0.2994 -0.1078 -0.1268
  311POPC   C4B 4045   0.324  10.870   5.149 -0.3842  0.3044  0.0105
  312POPC   NC3 4046   8.776   6.853   3.870 -0.4371  0.0469 -0.0570
  312POPC   PO4 4047   8.993   7.200   3.823 -0.2462  0.1090 -0.3613
  312POPC   GL1 4048   8.694   7.323   4.167  0.3569 -0.0050  0.0222
  312POPC   GL2 4049   8.524   7.007   4.315 -0.3421  0.2442  0.0660
  312POPC   C1A 4050   8.666   7.372   4.604  0.1382 -0.0537 -0.0864
  312POPC   D2A 4051   8.565   7.292   4.985  0.0224  0.0489  0.0195
  312POPC   C3A 4052   8.711   7.198   5.465 -0.5471  0.1421 -0.3122
  312POPC   C4A 4053   8.394   7.062   5.784  0.0225 -0.2157  0.1790
  312POPC   C1B 4054   8.331   7.043   4.643 -0.0418  0.1245 -0.1463
  312POPC   C2B 4055   8.291   6.849   4.978 -0.3328  0.1527 -0.2357
  312POPC   C3B 4056   8.116   6.803   5.424  0.0402  0.3434 -0.1748
  312POPC   C4B 4057   7.870   6.561   5.769 -0.2124 -0.0262  0.2112
  313POPC   NC3 4058   5.775   6.421   3.617  0.2371 -0.0196  0.0837
  313POPC   PO4 4059   6.228   6.346   3.812  0.0136 -0.1337 -0.1907
  313POPC   GL1 4060   6.283   6.666   4.139  0.0944 -0.0571 -0.3127
  313POPC   GL2 4061   6.547   6.713   4.333 -0.0731  0.2544  0.1383
  313POPC   C1A 4062   6.246   7.014   4.544  0.0351  0.0760 -0.0555
  313POPC   D2A 4063   6.321   7.075   4.988  0.0281 -0.0625 -0.0787
  313POPC   C3A 4064   6.170   6.922   5.421 -0.2515 -0.0434  0.0197
  313POPC   C4A 4065   5.777   6.936   5.594 -0.1124 -0.0737 -0.0167
  313POPC   C1B 4066   6.360   6.604   4.810 -0.1427  0.0242  0.0519
  313POPC   C2B 4067   6.518   6.542   5.305  0.2756  0.0828  0.0150
  313POPC   C3B 4068   6.844   6.560   5.488 -0.0500  0.0895  0.2439
  313POPC   C4B 4069   7.250   6.443   5.672  0.1725  0.1010 -0.0830
  314POPC   NC3 4070   1.303   2.522   3.696  0.0957 -0.2430 -0.0712
  314POPC   PO4 4071   1.639   2.636   3.953 -0.0198 -0.0770  0.3044
  314POPC   GL1 4072   1.829   2.597   4.366  0.2051 -0.2116  0.1255
  314POPC   GL2 4073   2.057   2.888   4.582 -0.1863  0.2163 -0.2970
  314POPC   C1A 4074   1.830   2.544   4.860  0.0061  0.1913  0.1366
  314POPC   D2A 4075   2.022   2.190   5.037 -0.1147 -0.5607 -0.2051
  314POPC   C3A 4076   1.961   1.907   5.354  0.0010  0.1517  0.0519
  314POPC   C4A 4077   1.869   1.487   5.476  0.0866  0.1361 -0.0298
  314POPC   C1B 4078   1.946   2.999   5.007  0.2694  0.1600 -0.2734
  314POPC   C2B 4079   2.000   2.998   5.405  0.1782 -0.0926  0.0640
  314POPC   C3B 4080   1.704   2.783   5.717 -0.0528  0.0574 -0.1579
  314POPC   C4B 4081   1.720   2.496   6.122  0.1150  0.2612  0.0052
  315POPC   NC3 4082   2.126   3.013   4.091 -0.0207 -0.4069  0.1497
  315POPC   PO4 4083   2.169   2.571   4.041 -0.2768  0.1108  0.1129
  315POPC   GL1 4084   2.277   2.436   4.414 -0.1825  0.2708  0.0931
  315POPC   GL2 4085   2.147   2.185   4.545 -0.0290 -0.0214  0.2037
  315POPC   C1A 4086   2.387   2.520   4.835 -0.3519 -0.0713  0.2676
  315POPC   D2A 4087   2.487   2.879   5.128 -0.1490  0.2481  0.2074
  315POPC   C3A 4088   2.730   2.834   5.552  0.0554 -0.0776 -0.0094
  315POPC   C4A 4089   3.049   3.072   5.773 -0.0539  0.0257  0.3392
  315POPC   C1B 4090   2.303   1.861   4.800 -0.1382 -0.2267  0.2428
  315POPC   C2B 4091   2.281   1.597   5.153  0.2519 -0.3329 -0.3043
  315POPC   C3B 4092   2.379   1.643   5.591 -0.1531 -0.1238  0.1871
  315POPC   C4B 4093   2.161   2.027   5.870  0.2412  0.0746 -0.0047
  316POPC   NC3 4094   0.245   1.806   3.353 -0.0594  0.1861  0.1345
  316POPC   PO4 4095  -0.162   1.740   3.768 -0.1911 -0.1136 -0.2243
  316POPC   GL1 4096  -0.109   1.730   4.195 -0.0996  0.0262  0.0016
  316POPC   GL2 4097   0.226   1.874   4.509 -0.0543  0.1754  0.2466
  316POPC   C1A 4098  -0.290   1.662   4.563  0.0707  0.1616  0.0167
  316POPC   D2A 4099  -0.447   1.440   5.053 -0.0927  0.1067 -0.2224
  316POPC   C3A 4100  -0.693   1.514   5.425 -0.0544 -0.1423 -0.1010
  316POPC   C4A 4101  -1.057   1.254   5.525 -0.2944  0.1899  0.5574
  316POPC   C1B 4102   0.441   2.022   4.791 -0.0046 -0.0623  0.1594
  316POPC   C2B 4103   0.434   1.948   5.197  0.2148 -0.2226  0.2825
  316POPC   C3B 4104   0.459   1.905   5.627  0.1529 -0.1010 -0.0456
  316POPC   C4B 4105   0.499   2.033   6.075 -0.0284 -0.3843  0.0289
  317POPC   NC3 4106   2.387   0.096   3.567 -0.0287 -0.4132 -0.2192
  317POPC   PO4 4107   2.353  -0.383   3.450  0.1797  0.0261 -0.1323
  317POPC   GL1 4108   2.359  -0.442   3.837 -0.0333  0.3432 -0.0163
  317POPC   GL2 4109   1.976  -0.567   3.969  0.1212 -0.2869  0.0403
  317POPC   C1A 4110   2.462  -0.413   4.235 -0.2545  0.0706  0.2398
  317POPC   D2A 4111   2.474  -0.325   4.687  0.0171 -0.1392  0.3178
  317POPC   C3A 4112   2.523  -0.173   5.150 -0.1181  0.0687  0.2172
  317POPC   C4A 4113   2.242   0.021   5.542 -0.0345  0.1064  0.1723
  317POPC   C1B 4114   2.013  -0.374   4.409  0.0739 -0.2200 -0.1878
  317POPC   C2B 4115   1.975  -0.194   4.767  0.0754  0.2763  0.1386
  317POPC   C3B 4116   2.033  -0.011   5.102 -0.0605  0.0596  0.0153
  317POPC   C4B 4117   2.340   0.261   5.143 -0.0192 -0.1236  0.2115
  318POPC   NC3 4118   4.518   9.689   3.601 -0.1185 -0.1630  0.0341
  318POPC   PO4 4119   4.643  10.081   3.873 -0.1163  0.0092  0.0759
  318POPC   GL1 4120   4.485  10.158   4.335 -0.1640 -0.1553  0.0231
  318POPC   GL2 4121   4.509  10.520   4.535  0.0044 -0.0718  0.0339
  318POPC   C1A 4122   4.338  10.054   4.807  0.1102 -0.0209  0.1247
  318POPC   D2A 4123   4.248   9.995   5.272 -0.2547  0.1114  0.1835
  318POPC   C3A 4124   3.995   9.846   5.543 -0.0374 -0.0427 -0.2371
  318POPC   C4A 4125   4.153   9.508   5.870  0.1976 -0.1530  0.1011
  318POPC   C1B 4126   4.671  10.528   4.960 -0.0825 -0.0659 -0.1301
  318POPC   C2B 4127   4.870  10.292   5.339 -0.1825  0.0083  0.2531
  318POPC   C3B 4128   4.964  10.532   5.633  0.1232  0.0108  0.3924
  318POPC   C4B 4129   5.111  10.985   5.739 -0.0412 -0.2212 -0.2534
  319POPC   NC3 4130   7.627   7.198   3.766 -0.0007  0.3183 -0.0446
  319POPC   PO4 4131   8.065   7.410   3.951 -0.0357  0.0245  0.0424
  319POPC   GL1 4132   8.100   7.432   4.406 -0.1894 -0.1634  0.0685
  319POPC   GL2 4133   7.779   7.354   4.468  0.1854 -0.1316 -0.0623
  319POPC   C1A 4134   8.085   7.423   4.858  0.1209 -0.0451 -0.2425
  319POPC   D2A 4135   8.084   7.242   5.237 -0.2721 -0.0536 -0.0315
  319POPC   C3A 4136   8.352   7.498   5.524 -0.0194 -0.1932 -0.1763
  319POPC   C4A 4137   8.297   7.898   5.656  0.1053  0.0710  0.1776
  319POPC   C1B 4138   7.816   6.963   4.710  0.1396  0.0291 -0.2038
  319POPC   C2B 4139   7.813   6.590   4.998 -0.0736 -0.1440 -0.0012
  319POPC   C3B 4140   7.788   6.418   5.278 -0.1039  0.1730  0.0670
  319POPC   C4B 4141   8.017   6.164   5.510  0.0776 -0.0377  0.2020
  320POPC   NC3 4142   1.543   5.493   3.776 -0.1022 -0.2209  0.0676
  320POPC   PO4 4143   1.773   5.857   4.110 -0.1403  0.0677  0.1662
  320POPC   GL1 4144   1.998   5.693   4.475 -0.1349  0.1911 -0.0765
  320POPC   GL2 4145   1.773   5.498   4.579  0.2737  0.3701 -0.2100
  320POPC   C1A 4146   1.991   5.239   4.914  0.1097 -0.0477 -0.1125
  320POPC   D2A 4147   2.264   5.119   5.266 -0.0990  0.0813 -0.0422
  320POPC   C3A 4148   2.237   5.367   5.540 -0.1944 -0.0999 -0.1521
  320POPC   C4A 4149   2.180   5.519   5.976 -0.0222 -0.1728 -0.0182
  320POPC   C1B 4150   1.479   5.284   4.792  0.1499  0.2785  0.3520
  320POPC   C2B 4151   1.428   4.955   5.091  0.0807  0.0001 -0.4631
  320POPC   C3B 4152   1.421   4.551   5.280  0.0039 -0.2254  0.1516
  320POPC   C4B 4153   1.640   4.303   5.596 -0.1333 -0.3641  0.2536
  321POPC   NC3 4154   4.040   5.883   3.471 -0.1567  0.1336 -0.3937
  321POPC   PO4 4155   3.827   5.999   3.828 -0.1671  0.2702  0.0783
  321POPC   GL1 4156   3.856   5.841   4.298 -0.0621  0.1125 -0.1823
  321POPC   GL2 4157   3.663   5.649   4.589 -0.3358 -0.0062 -0.1844
  321POPC   C1A 4158   3.984   6.032   4.772 -0.1445  0.1024 -0.0815
  321POPC   D2A 4159   3.664   6.133   5.163  0.2884 -0.1934  0.0463
  321POPC   C3A 4160   3.168   6.235   5.197  0.2217 -0.0397  0.2595
  321POPC   C4A 4161   2.836   6.543   5.001  0.2576  0.2601  0.0449
  321POPC   C1B 4162   3.480   5.495   4.971  0.0481  0.2023  0.1647
  321POPC   C2B 4163   3.653   5.491   5.415  0.1120 -0.1123 -0.0751
  321POPC   C3B 4164   3.852   5.083   5.578 -0.2000  0.1237 -0.3310
  321POPC   C4B 4165   4.084   5.010   6.037  0.0975 -0.2160 -0.0616
  322POPC   NC3 4166   8.930   5.240   3.872 -0.0893  0.0551 -0.0402
  322POPC   PO4 4167   8.442   5.269   3.969  0.2060  0.2389  0.1958
  322POPC   GL1 4168   8.552   5.498   4.263  0.1205 -0.1829  0.0246
  322POPC   GL2 4169   8.733   5.713   4.062  0.0272 -0.2812  0.2131
  322POPC   C1A 4170   8.563   5.492   4.725 -0.1859 -0.1707 -0.1816
  322POPC   D2A 4171   8.467   5.209   5.064  0.0817  0.1345  0.0139
  322POPC   C3A 4172   8.714   5.250   5.485 -0.0573  0.1084  0.1178
  322POPC   C4A 4173   8.912   5.095   5.758 -0.1866  0.0458  0.2221
  322POPC   C1B 4174   8.726   5.947   4.395 -0.0932 -0.0707 -0.0489
  322POPC   C2B 4175   8.787   5.955   4.820  0.1978 -0.0203  0.2293
  322POPC   C3B 4176   8.634   5.721   5.172  0.4116  0.2614 -0.1205
  322POPC   C4B 4177   8.164   5.681   5.164 -0.0147 -0.0117 -0.1794
  323POPC   NC3 4178   7.029   8.508   3.150 -0.2715 -0.2382  0.4514
  323POPC   PO4 4179   7.005   8.756   3.511 -0.2903  0.0291 -0.0678
  323POPC   GL1 4180   7.069   8.680   3.929  0.1577 -0.0481 -0.0031
  323POPC   GL2 4181   7.297   8.718   4.081  0.1547 -0.1126 -0.2962
  323POPC   C1A 4182   6.754   8.762   4.220 -0.2305  0.0022  0.1042
  323POPC   D2A 4183   6.554   8.669   4.517 -0.0093  0.0802  0.2096
  323POPC   C3A 4184   6.805   8.743   4.995 -0.1939 -0.0480 -0.0261
  323POPC   C4A 4185   6.772   8.660   5.557 -0.0734  0.4502  0.2030
  323POPC   C1B 4186   7.190   8.889   4.507 -0.2901  0.2299  0.0976
  323POPC   C2B 4187   7.098   9.155   4.776  0.2755  0.2243 -0.1606
  323POPC   C3B 4188   6.895   9.250   5.076  0.2783  0.2497  0.1689
  323POPC   C4B 4189   6.922   9.619   5.343  0.2071 -0.0935  0.2373
  324POPC   NC3 4190   1.227   9.232   3.724 -0.1220 -0.1063  0.3165
  324POPC   PO4 4191   1.511   9.202   4.001  0.0089  0.0692  0.2001
  324POPC   GL1 4192   1.541   9.209   4.361  0.0148  0.1633  0.2369
  324POPC   GL2 4193   1.239   9.110   4.510  0.0320 -0.0950 -0.0137
  324POPC   C1A 4194   1.665   9.416   4.742 -0.1111  0.2120 -0.1623
  324POPC   D2A 4195   1.746   9.527   5.059 -0.2132  0.0420  0.0405
  324POPC   C3A 4196   1.876   9.238   5.471  0.3148 -0.0462 -0.2378
  324POPC   C4A 4197   2.062   8.885   5.526  0.0363  0.1668 -0.2805
  324POPC   C1B 4198   1.026   9.481   4.612  0.0368  0.1440 -0.1123
  324POPC   C2B 4199   1.272   9.786   4.799 -0.2924  0.0529  0.2237
  324POPC   C3B 4200   1.092  10.217   4.890  0.3082  0.1342  0.2257
  324POPC   C4B 4201   1.011  10.617   5.155 -0.4804  0.1026 -0.0703
  325POPC   NC3 4202   0.855   0.312   3.375  0.0185  0.0611 -0.0154
  325POPC   PO4 4203   0.720  -0.017   3.554  0.0715  0.3144  0.2261
  325POPC   GL1 4204   0.727   0.033   4.036 -0.1321  0.4230 -0.2287
  325POPC   GL2 4205   0.977   0.263   4.229  0.0418 -0.1310  0.0210
  325POPC   C1A 4206   0.426  -0.062   4.357 -0.0465  0.0837  0.4241
  325POPC   D2A 4207   0.406  -0.393   4.708  0.0339 -0.0282 -0.0495
  325POPC   C3A 4208   0.547  -0.233   5.080 -0.0889 -0.0976 -0.0536
  325POPC   C4A 4209   0.554  -0.178   5.542 -0.0771 -0.0700 -0.2450
  325POPC   C1B 4210   0.553   0.421   4.228  0.1893 -0.2364 -0.0533
  325POPC   C2B 4211   0.128   0.264   4.550 -0.3529 -0.0449  0.1011
  325POPC   C3B 4212   0.041  -0.049   4.834 -0.1557  0.2509  0.0823
  325POPC   C4B 4213   0.038  -0.411   5.111  0.0944  0.0658  0.0620
  326POPC   NC3 4214   4.286   6.993   3.838 -0.0755  0.1427 -0.0721
  326POPC   PO4 4215   4.366   6.617   4.014  0.0268 -0.1968 -0.0150
  326POPC   GL1 4216   4.359   6.553   4.500  0.1723 -0.5969  0.5006
  326POPC   GL2 4217   4.016   6.523   4.677 -0.2414  0.0133  0.0102
  326POPC   C1A 4218   4.420   6.902   4.721 -0.1892 -0.0476  0.3507
  326POPC   D2A 4219   4.343   7.010   5.176 -0.2786 -0.0921  0.1092
  326POPC   C3A 4220   4.384   7.432   5.274 -0.4363  0.0860  0.2290
  326POPC   C4A 4221   4.049   7.727   5.486  0.0996 -0.1183 -0.1437
  326POPC   C1B 4222   3.959   6.681   5.037 -0.0626  0.0475  0.1464
  326POPC   C2B 4223   3.554   6.674   5.297  0.2260 -0.0524 -0.1717
  326POPC   C3B 4224   3.168   6.562   5.608 -0.2982  0.1710 -0.3380
  326POPC   C4B 4225   2.710   6.516   5.899  0.0651 -0.1657  0.1545
  327POPC   NC3 4226   3.504   3.668   3.522 -0.1517 -0.0597  0.1652
  327POPC   PO4 4227   3.758   3.939   3.833 -0.2580  0.1189  0.0377
  327POPC   GL1 4228   3.735   3.901   4.256 -0.1376 -0.0945 -0.1795
  327POPC   GL2 4229   3.516   3.741   4.414  0.2773 -0.0484 -0.1890
  327POPC   C1A 4230   3.948   4.060   4.633  0.0805 -0.1329  0.0533
  327POPC   D2A 4231   3.965   4.305   4.976 -0.1423 -0.0947  0.1199
  327POPC   C3A 4232   4.068   4.217   5.425 -0.2089 -0.1970 -0.0093
  327POPC   C4A 4233   3.865   4.148   5.807 -0.0570 -0.1372 -0.4823
  327POPC   C1B 4234   3.241   3.738   4.756 -0.0348  0.1381 -0.1222
  327POPC   C2B 4235   3.056   3.924   5.180 -0.3823 -0.1858  0.0063
  327POPC   C3B 4236   3.224   3.904   5.602 -0.2270 -0.0459  0.3337
  327POPC   C4B 4237   3.088   3.919   6.024 -0.2387 -0.0334  0.0730
  328POPC   NC3 4238   4.219  10.488   4.075 -0.0220 -0.0865 -0.1856
  328POPC   PO4 4239   3.856  10.354   3.943 -0.2712  0.1064  0.0920
  328POPC   GL1 4240   3.824  10.180   4.271 -0.4882 -0.1142 -0.1098
  328POPC   GL2 4241   3.508  10.022   4.412 -0.0222  0.1331  0.1214
  328POPC   C1A 4242   3.895  10.279   4.727  0.1012  0.1242  0.0803
  328POPC   D2A 4243   3.795  10.274   5.270 -0.3350  0.2218 -0.1665
  328POPC   C3A 4244   3.981  10.429   5.681  0.3057 -0.1887  0.3952
  328POPC   C4A 4245   4.052  10.324   6.069  0.0017  0.1547  0.1584
  328POPC   C1B 4246   3.411  10.224   4.865 -0.1968 -0.1467 -0.0321
  328POPC   C2B 4247   3.304  10.420   5.282 -0.1721 -0.0525 -0.2664
  328POPC   C3B 4248   3.246  10.807   5.464  0.1441 -0.1452 -0.0416
  328POPC   C4B 4249   3.410  11.215   5.644  0.0106 -0.1175 -0.1984
  329POPC   NC3 4250   8.841   9.485   3.343 -0.0635  0.4241  0.1724
  329POPC   PO4 4251   9.049   9.136   3.474 -0.0412 -0.1414  0.2915
  329POPC   GL1 4252   8.978   8.962   3.881 -0.0773 -0.0319 -0.1622
  329POPC   GL2 4253   8.953   9.144   4.059  0.0893 -0.3530  0.0505
  329POPC   C1A 4254   9.023   8.808   4.360 -0.0665 -0.1145 -0.0372
  329POPC   D2A 4255   9.211   8.819   4.815 -0.0372 -0.5122  0.2049
  329POPC   C3A 4256   8.973   8.685   5.257 -0.2366 -0.1000  0.1248
  329POPC   C4A 4257   8.625   8.768   5.517 -0.3495  0.1327 -0.1160
  329POPC   C1B 4258   8.642   9.143   4.516  0.1988 -0.1687 -0.1333
  329POPC   C2B 4259   8.868   9.342   4.927  0.0201 -0.3126  0.0881
  329POPC   C3B 4260   8.948   9.205   5.349 -0.0579  0.2581 -0.0558
  329POPC   C4B 4261   8.830   9.493   5.680  0.0038 -0.0183  0.2129
  330POPC   NC3 4262   0.012   0.470   3.879  0.0746  0.2937  0.3668
  330POPC   PO4 4263   0.233   0.836   3.666  0.1323 -0.0213 -0.0940
  330POPC   GL1 4264   0.361   0.939   4.127  0.1602 -0.3623  0.3435
  330POPC   GL2 4265   0.156   0.939   4.230 -0.1088  0.3228 -0.0573
  330POPC   C1A 4266   0.545   0.990   4.589  0.1481 -0.0142  0.1831
  330POPC   D2A 4267   0.490   1.122   4.939  0.0208  0.3271  0.2921
  330POPC   C3A 4268   0.326   0.753   5.230 -0.0761  0.0224  0.1533
  330POPC   C4A 4269   0.390   0.476   5.582  0.1193 -0.0473 -0.3160
  330POPC   C1B 4270   0.138   0.723   4.589  0.0466 -0.1279  0.0745
  330POPC   C2B 4271  -0.024   0.566   4.936  0.2058  0.0988 -0.3917
  330POPC   C3B 4272  -0.162   0.228   5.218 -0.2377 -0.1360  0.3972
  330POPC   C4B 4273  -0.543  -0.070   5.212 -0.1423 -0.3374  0.2725
  331POPC   NC3 4274   6.165  10.143   3.544  0.4057  0.1089 -0.3180
  331POPC   PO4 4275   5.950   9.735   3.549  0.1361  0.1088 -0.4952
  331POPC   GL1 4276   5.860   9.948   3.984  0.1563  0.1415  0.1033
  331POPC   GL2 4277   5.659   9.744   4.144 -0.4361  0.0957 -0.1271
  331POPC   C1A 4278   6.055   9.676   4.437 -0.0095  0.1986  0.4035
  331POPC   D2A 4279   6.097   9.233   4.542 -0.0946 -0.0936 -0.2465
  331POPC   C3A 4280   6.013   9.131   4.956  0.0668 -0.0760 -0.1355
  331POPC   C4A 4281   6.076   9.243   5.426 -0.3354  0.3965 -0.2482
  331POPC   C1B 4282   5.578   9.929   4.502  0.1366  0.0422 -0.0624
  331POPC   C2B 4283   5.476   9.948   4.898  0.0726 -0.0207  0.0341
  331POPC   C3B 4284   5.184   9.898   5.306 -0.1464 -0.0035 -0.1860
  331POPC   C4B 4285   5.035  10.062   5.739 -0.2491  0.0489 -0.0751
  332POPC   NC3 4286   4.619   9.646   4.055  0.2568  0.2316  0.2606
  332POPC   PO4 4287   4.925   9.379   3.711  0.0390 -0.2383  0.0276
  332POPC   GL1 4288   5.031   9.357   4.156 -0.2513  0.1980  0.1644
  332POPC   GL2 4289   4.860   9.334   4.471 -0.2045 -0.3001 -0.2539
  332POPC   C1A 4290   5.551   9.325   4.389 -0.0802  0.2122  0.0347
  332POPC   D2A 4291   5.639   9.441   4.801  0.1358 -0.0696  0.1372
  332POPC   C3A 4292   6.007   9.687   4.991 -0.1874  0.0912 -0.0405
  332POPC   C4A 4293   5.992  10.123   4.796 -0.2178  0.0558  0.0813
  332POPC   C1B 4294   5.136   9.294   4.903  0.1003 -0.3308 -0.0536
  332POPC   C2B 4295   5.286   9.394   5.205  0.1636 -0.2488 -0.4984
  332POPC   C3B 4296   5.662   9.599   5.359 -0.1001 -0.2018  0.1729
  332POPC   C4B 4297   5.588   9.645   5.798  0.0923  0.0144  0.3198
  333POPC   NC3 4298   6.195   8.984   3.597  0.0015 -0.1616  0.1282
  333POPC   PO4 4299   6.672   9.158   3.402 -0.2488 -0.1714 -0.4090
  333POPC   GL1 4300   6.877   9.276   3.775 -0.0752 -0.2282 -0.2720
  333POPC   GL2 4301   6.735   9.402   3.988  0.4313 -0.1895 -0.2154
  333POPC   C1A 4302   7.171   9.379   4.204 -0.0042  0.0108 -0.2973
  333POPC   D2A 4303   7.496   9.316   4.491  0.1509 -0.1101 -0.1206
  333POPC   C3A 4304   7.777   9.175   4.936  0.2250  0.0696  0.1943
  333POPC   C4A 4305   7.954   9.038   5.296 -0.1321 -0.1573  0.0440
  333POPC   C1B 4306   6.708   9.266   4.428  0.0918  0.0549 -0.2822
  333POPC   C2B 4307   6.488   9.033   4.812 -0.0050  0.1357  0.4005
  333POPC   C3B 4308   6.467   9.019   5.207 -0.0079 -0.0257 -0.3964
  333POPC   C4B 4309   6.395   8.980   5.702 -0.0677  0.1136  0.0415
  334POPC   NC3 4310   4.302   5.689   3.938 -0.4596  0.1153  0.0010
  334POPC   PO4 4311   4.154   5.403   4.103  0.1489 -0.1147 -0.1664
  334POPC   GL1 4312   4.136   5.436   4.522 -0.1840  0.4831 -0.2049
  334POPC   GL2 4313   4.015   5.138   4.598 -0.1053 -0.0108  0.2140
  334POPC   C1A 4314   4.039   5.563   4.943 -0.2024  0.0229  0.0098
  334POPC   D2A 4315   4.245   5.805   5.171 -0.1032 -0.1215 -0.0185
  334POPC   C3A 4316   4.074   5.885   5.556  0.4215 -0.0776  0.1279
  334POPC   C4A 4317   3.754   5.775   5.803 -0.2189  0.2793  0.1943
  334POPC   C1B 4318   3.984   4.991   5.013 -0.0117 -0.1442 -0.2266
  334POPC   C2B 4319   4.087   4.716   5.302 -0.1703 -0.1399  0.2033
  334POPC   C3B 4320   4.074   4.601   5.725 -0.1459 -0.1794  0.0834
  334POPC   C4B 4321   4.297   4.522   6.063 -0.1095  0.0123  0.1765
  335POPC   NC3 4322   6.421   5.917   3.745  0.2715  0.0032 -0.0199
  335POPC   PO4 4323   6.119   5.857   4.094 -0.3555  0.1454 -0.0032
  335POPC   GL1 4324   6.122   5.883   4.467 -0.0924  0.3348 -0.0046
  335POPC   GL2 4325   6.052   5.692   4.665  0.1923  0.0093  0.0498
  335POPC   C1A 4326   5.865   6.134   4.890 -0.3829 -0.0952  0.2111
  335POPC   D2A 4327   5.756   6.069   5.296 -0.0099  0.1448  0.3012
  335POPC   C3A 4328   5.485   5.678   5.390  0.2041 -0.1717 -0.2273
  335POPC   C4A 4329   5.075   5.647   5.708 -0.0426  0.0437  0.0705
  335POPC   C1B 4330   6.101   5.247   4.846 -0.0519 -0.1124 -0.1990
  335POPC   C2B 4331   6.149   4.921   5.135  0.0528  0.0059 -0.0724
  335POPC   C3B 4332   6.146   4.923   5.586  0.1922  0.1767  0.0794
  335POPC   C4B 4333   6.115   4.865   6.009 -0.2407  0.1483  0.1631
  336POPC   NC3 4334   0.359   3.541   3.850  0.1154 -0.1424 -0.0293
  336POPC   PO4 4335   0.631   3.494   4.127 -0.0584 -0.2063 -0.0683
  336POPC   GL1 4336   0.740   3.727   4.520 -0.2048  0.1998 -0.1308
  336POPC   GL2 4337   0.510   3.934   4.667  0.1613  0.1955  0.1657
  336POPC   C1A 4338   0.948   3.960   4.914  0.0252  0.0922  0.4401
  336POPC   D2A 4339   1.102   4.312   5.032 -0.1256  0.0091 -0.0308
  336POPC   C3A 4340   1.395   4.564   4.755 -0.0981  0.1976 -0.1705
  336POPC   C4A 4341   1.762   4.822   4.596  0.3189 -0.2149 -0.0670
  336POPC   C1B 4342   0.555   4.193   5.056  0.3399 -0.2192  0.0249
  336POPC   C2B 4343   0.794   4.391   5.396 -0.2096 -0.0560 -0.0328
  336POPC   C3B 4344   1.165   4.586   5.673 -0.0363 -0.0098 -0.2140
  336POPC   C4B 4345   1.332   4.521   6.134 -0.3613  0.0795  0.1013
  337POPC   NC3 4346   5.683   8.265   3.799 -0.2518 -0.1458 -0.3067
  337POPC   PO4 4347   5.322   8.019   3.696 -0.1531 -0.0530 -0.0523
  337POPC   GL1 4348   5.330   8.169   4.202  0.0635 -0.2545 -0.2171
  337POPC   GL2 4349   5.125   7.962   4.477 -0.0774  0.2180 -0.1301
  337POPC   C1A 4350   5.630   8.304   4.606  0.0084  0.2072 -0.3479
  337POPC   D2A 4351   5.708   8.381   5.021  0.0487 -0.1142 -0.0630
  337POPC   C3A 4352   5.811   8.105   5.321 -0.1914  0.3528  0.1468
  337POPC   C4A 4353   5.563   7.967   5.687 -0.0344  0.1465 -0.0458
  337POPC   C1B 4354   4.694   8.028   4.672 -0.1533  0.4109  0.0171
  337POPC   C2B 4355   4.593   8.257   5.029 -0.2262 -0.2250  0.2982
  337POPC   C3B 4356   4.853   8.515   5.336 -0.1078  0.2224  0.1056
  337POPC   C4B 4357   5.218   8.717   5.141 -0.2900  0.2563  0.0786
  338POPC   NC3 4358  10.294   2.579   4.307  0.4874 -0.0677  0.3162
  338POPC   PO4 4359  10.278   3.076   4.065  0.1481  0.0933 -0.2894
  338POPC   GL1 4360  10.401   3.056   4.545  0.1179 -0.2089 -0.0332
  338POPC   GL2 4361  10.601   3.189   4.725 -0.0479  0.1197 -0.1359
  338POPC   C1A 4362  10.175   2.941   4.886  0.0168 -0.0548  0.4293
  338POPC   D2A 4363   9.953   3.047   5.278 -0.1523 -0.1957  0.1243
  338POPC   C3A 4364  10.310   2.913   5.547 -0.0245  0.0044 -0.1421
  338POPC   C4A 4365  10.718   2.955   5.627  0.0404  0.2330 -0.5281
  338POPC   C1B 4366  10.702   3.595   4.733  0.0584 -0.0875  0.0111
  338POPC   C2B 4367  10.855   3.808   5.219  0.0271  0.2146 -0.0744
  338POPC   C3B 4368  10.901   3.961   5.610 -0.3557  0.2012  0.3473
  338POPC   C4B 4369  10.846   4.154   6.038 -0.0121 -0.1460  0.2220
  339POPC   NC3 4370   7.532   5.620   4.048  0.1595 -0.0045  0.1004
  339POPC   PO4 4371   7.915   5.442   3.986 -0.0705 -0.3362  0.0258
  339POPC   GL1 4372   7.938   5.466   4.390 -0.1353 -0.0585  0.0770
  339POPC   GL2 4373   8.126   5.126   4.408  0.0039  0.2081 -0.2704
  339POPC   C1A 4374   8.089   5.421   4.761  0.0498  0.0729 -0.1539
  339POPC   D2A 4375   8.003   5.231   5.129  0.2287  0.3103  0.1332
  339POPC   C3A 4376   8.131   5.328   5.503  0.0616 -0.0026 -0.0188
  339POPC   C4A 4377   8.398   5.742   5.614 -0.2294 -0.0823 -0.0001
  339POPC   C1B 4378   8.187   4.868   4.791 -0.1179 -0.3266 -0.2254
  339POPC   C2B 4379   8.242   4.446   4.822  0.2921  0.1097 -0.1804
  339POPC   C3B 4380   7.995   4.087   4.952 -0.0459  0.0180 -0.2937
  339POPC   C4B 4381   8.063   3.780   5.203  0.1636  0.1023  0.1742
  340POPC   NC3 4382   1.978   1.333   3.481 -0.3982  0.2163  0.2043
  340POPC   PO4 4383   2.190   1.316   3.853  0.2226  0.1605  0.0997
  340POPC   GL1 4384   2.008   1.199   4.137  0.2873 -0.1575 -0.0868
  340POPC   GL2 4385   1.830   0.841   4.139  0.3958 -0.1379  0.1707
  340POPC   C1A 4386   1.524   1.197   4.312  0.2780  0.0922 -0.1624
  340POPC   D2A 4387   1.115   1.134   4.444 -0.0266  0.0448 -0.1861
  340POPC   C3A 4388   1.073   1.067   4.856  0.3287 -0.5044 -0.4110
  340POPC   C4A 4389   0.916   0.975   5.241 -0.0427  0.2688  0.2787
  340POPC   C1B 4390   1.896   0.605   4.280 -0.2184 -0.0408  0.2623
  340POPC   C2B 4391   1.824   0.353   4.642 -0.1271 -0.3256  0.1908
  340POPC   C3B 4392   1.889   0.551   4.998 -0.1698  0.1832  0.0420
  340POPC   C4B 4393   2.007   0.648   5.389  0.2435 -0.1980 -0.0064
  341POPC   NC3 4394   4.558   2.600   3.747  0.0222  0.0841  0.1664
  341POPC   PO4 4395   4.217   2.268   3.850  0.1098  0.1218 -0.0643
  341POPC   GL1 4396   4.325   2.407   4.253 -0.0208 -0.1716  0.3796
  341POPC   GL2 4397   4.192   2.682   4.266  0.1820  0.1301  0.0624
  341POPC   C1A 4398   4.381   2.162   4.666 -0.2563 -0.1314  0.1656
  341POPC   D2A 4399   4.328   2.067   5.060 -0.0426  0.2150  0.0089
  341POPC   C3A 4400   4.194   1.735   5.418  0.0536  0.3679 -0.1028
  341POPC   C4A 4401   4.203   1.703   5.860 -0.0773 -0.0429  0.3156
  341POPC   C1B 4402   4.170   2.636   4.728 -0.3576  0.0483  0.3580
  341POPC   C2B 4403   4.512   2.575   5.014  0.0130  0.0834  0.0796
  341POPC   C3B 4404   4.927   2.373   5.128  0.1424 -0.0532 -0.0942
  341POPC   C4B 4405   5.307   2.125   5.070 -0.3130 -0.4820 -0.2283
  342W        W 4406   1.472   9.693   2.828  0.3109  0.0034 -0.1855
  343W        W 4407   2.947   6.358   8.371  0.1250  0.1962 -0.0264
  344W        W 4408   1.415   8.992  10.105  0.2328  0.0310  0.1553
  345W        W 4409   8.466   8.743   8.873  0.1643  0.4327 -0.2475
  346W        W 4410   7.727  10.336  10.356 -0.2350 -0.0251 -0.4308
  347W        W 4411  10.069   5.172   9.425  0.0734  0.2280  0.1633
  348W        W 4412   5.991   6.965   8.973 -0.0445 -0.0094 -0.0177
  349W        W 4413   2.603   3.028   2.628 -0.0307 -0.0643 -0.0288
  350W        W 4414   9.238   5.281   9.726  0.2320  0.0042 -0.3476
  351W        W 4415   9.704   0.956   1.104 -0.0593  0.2549  0.0253
  352W        W 4416  10.000   3.194   0.583 -0.3490  0.2647  0.1228
  353W        W 4417   1.372   0.045   3.267 -0.0560  0.0001  0.2405
  354W        W 4418   1.075   6.793  11.442  0.0351  0.3300  0.0328
  355W        W 4419   8.560   0.108   9.490 -0.0690 -0.2843 -0.1503
  356W        W 4420   2.953   9.370  10.929 -0.3829  0.2608  0.0253
  357W        W 4421   6.916   9.711   9.252 -0.0295 -0.0354  0.0699
  358W        W 4422   2.083   6.606  10.984  0.4588  0.3147 -0.0972
  359W        W 4423   9.072   4.373   2.360  0.1277  0.0830  0.2147
  360W        W 4424   3.244   3.164   7.840 -0.2278 -0.0189 -0.1336
  361W        W 4425  10.072   7.548   0.175  0.1236  0.0362 -0.3444
  362W        W 4426   4.614   6.618   7.946  0.1733  0.2426 -0.0149
  363W        W 4427   8.178   0.096   9.175  0.0380  0.2510 -0.4408
  364W        W 4428   9.188   5.071   0.848  0.0564 -0.0019  0.1706
  365W        W 4429   9.352   3.230  11.365  0.2309 -0.0157 -0.0621
  366W        W 4430  10.570   8.711   8.423 -0.2367 -0.1062  0.3115
  367W        W 4431  10.057   1.283  10.220 -0.0996  0.0550  0.2560
  368W        W 4432   6.138   2.955   0.077 -0.0575  0.2214 -0.3366
  369W        W 4433   7.667  10.489   2.525  0.0315  0.0886  0.0172
  370W        W 4434   8.842   5.827   0.175  0.2298 -0.4569 -0.1020
  371W        W 4435   8.612   0.806   0.299  0.3004 -0.1582 -0.1142
  372W        W 4436   5.537   6.150  11.341  0.2168  0.1690 -0.0507
  373W        W 4437   9.518   2.867   8.584 -0.1141 -0.0864  0.1584
  374W        W 4438   3.980   2.658   0.567 -0.1422  0.1272 -0.0448
  375W        W 4439   2.065   4.854   4.122  0.1056  0.1641  0.4641
  376W        W 4440   3.521   1.257   3.208 -0.2132  0.0400 -0.1227
  377W        W 4441   7.070   2.653   1.129  0.1874  0.0422 -0.1129
  378W        W 4442   8.431   8.526   1.714  0.4040 -0.1814 -0.3903
  379W        W 4443   9.919   0.059  11.121  0.0526  0.0702  0.1681
  380W        W 4444   7.148   3.681   9.178  0.2679  0.0167  0.1725
  381W        W 4445   0.971   9.581  11.309  0.1609  0.2196  0.0025
  382W        W 4446   2.438   0.406  10.344  0.3013  0.0289 -0.0410
  383W        W 4447   1.674   5.544   9.301 -0.1204 -0.3812  0.0850
  384W        W 4448   4.870   7.470   3.149  0.2171  0.1223  0.0226
  385W        W 4449   9.191   6.126   0.284 -0.1451 -0.1221 -0.0414
  386W        W 4450   4.410   5.644   8.799  0.1463 -0.2673  0.0684
  387W        W 4451   5.197   8.794  11.438 -0.0848  0.0210  0.2963
  388W        W 4452  10.045   0.987   7.489 -0.0851  0.0179 -0.0818
  389W        W 4453   6.688   5.527   0.167 -0.1896 -0.0996 -0.0340
  390W        W 4454   2.892   6.412  11.400 -0.1331  0.1254  0.2103
  391W        W 4455   4.327   0.187  11.307 -0.0463  0.2105 -0.0587
  392W        W 4456   3.497   9.974   8.187 -0.2103  0.0954 -0.0160
  393W        W 4457   9.294  10.088  10.881  0.1986  0.1224  0.1303
  394W        W 4458   5.633   7.943   9.023 -0.0133 -0.1190  0.2213
  395W        W 4459   1.037   1.681  10.855 -0.0116 -0.1057  0.1339
  396W        W 4460   6.402   1.706   0.929  0.2570 -0.1468 -0.2196
  397W        W 4461   9.636  10.083   8.757  0.0302  0.0361  0.0196
  398W        W 4462   5.207   3.515   2.865  0.1498  0.0298  0.0151
  399W        W 4463   9.762   7.893   9.950 -0.1206  0.2598  0.2794
  400W        W 4464   3.314   5.214   1.468 -0.1208  0.0145  0.0270
  401W        W 4465   6.003   9.097   3.042  0.1148 -0.1166  0.2106
  402W        W 4466   5.234   0.323   2.992 -0.1455 -0.1563  0.1882
  403W        W 4467   5.364   7.720   9.410 -0.1604  0.2658  0.0205
  404W        W 4468   0.437   0.507   3.242 -0.0912  0.2205 -0.0766
  405W        W 4469   1.404   5.974   9.710  0.0193 -0.1285 -0.1703
  406W        W 4470   1.148   4.759   2.114  0.0756 -0.0737 -0.4982
  407W        W 4471   3.792   8.068   0.259 -0.4171 -0.1878  0.3357
  408W        W 4472   6.680   3.461  11.181  0.0995  0.2190  0.5049
  409W        W 4473   7.918   7.427   2.471  0.1638 -0.0815 -0.1578
  410W        W 4474   9.642   1.266   2.089 -0.0580  0.0033  0.2497
  411W        W 4475   7.720   9.456   8.037 -0.0428 -0.0469 -0.1541
  412W        W 4476   8.571   3.808   8.923 -0.0810  0.0887 -0.0752
  413W        W 4477  10.074   8.269   9.949  0.1240  0.1031 -0.1175
  414W        W 4478   1.833   6.263  10.319  0.1436 -0.3058  0.0167
  415W        W 4479   9.170   2.173   9.037 -0.2242  0.1343  0.0882
  416W        W 4480   4.136   5.123   9.745 -0.0385  0.0741 -0.1854
  417W        W 4481   1.929   1.942  11.094  0.2722 -0.2254  0.0051
  418W        W 4482   8.221   1.930   0.985  0.0688 -0.4636 -0.1549
  419W        W 4483   9.565   2.281   2.177  0.0217  0.0604 -0.2015
  420W        W 4484   1.275   9.161   8.461  0.0552 -0.2708 -0.1603
  421W        W 4485   0.085   3.918   2.210  0.0207  0.0521 -0.2036
  422W        W 4486   1.679   7.283   9.962 -0.2653  0.2210 -0.0012
  423W        W 4487   0.404   5.292  10.461  0.1001 -0.1237 -0.1081
  424W        W 4488   9.738   4.577   8.518  0.1523 -0.3656  0.0878
  425W        W 4489   6.290   9.421   2.178 -0.1999  0.0377  0.1793
  426W        W 4490   6.074   7.896   9.301 -0.1433  0.0213 -0.0644
  427W        W 4491   2.817   9.370   9.187 -0.3536  0.1257  0.1641
  428W        W 4492   3.895   7.433   9.866  0.4191 -0.4204  0.1730
  429W        W 4493   3.691   5.700   2.847 -0.1077 -0.0909  0.0160
  430W        W 4494   6.200   8.106   0.779 -0.1477 -0.1579 -0.2413
  431W        W 4495   1.769   7.656   0.178 -0.1266  0.1072  0.1691
  432W        W 4496   5.366   1.353   3.074 -0.1163 -0.0580 -0.1573
  433W        W 4497  10.294   0.538   0.777 -0.0738 -0.3038 -0.3177
  434W        W 4498   2.192  10.570   1.791  0.0248  0.0903  0.1475
  435W        W 4499   4.855   7.768  10.050  0.3672  0.0652 -0.1636
  436W        W 4500   9.895   2.804   3.935 -0.1574 -0.0244 -0.2929
  437W        W 4501   9.130   6.065   2.755  0.1592 -0.2077 -0.1072
  438W        W 4502  10.377   1.183  11.149  0.0047  0.0207  0.1325
  439W        W 4503   1.783   0.613  11.294  0.4717 -0.2262 -0.4239
  440W        W 4504   7.112   1.316   8.754 -0.0072 -0.0054  0.4000
  441W        W 4505   8.460   6.105   2.875 -0.0407 -0.0986  0.2639
  442W        W 4506   9.606   8.825   0.611 -0.0963 -0.0764 -0.3553
  443W        W 4507   9.456   9.906   8.289 -0.1271  0.2487  0.2106
  444W        W 4508   2.372   7.467   2.470  0.1773 -0.0717 -0.0102
  445W        W 4509   6.759   6.831  11.153  0.3967  0.0650 -0.1256
  446W        W 4510   6.577   4.561   9.312 -0.1058  0.1498 -0.0180
  447W        W 4511   3.129   3.987   2.206  0.1808  0.0269  0.0751
  448W        W 4512   0.936   2.839   3.927 -0.0910 -0.0939  0.2528
  449W        W 4513   2.664  10.527   1.137  0.1205 -0.0608  0.5282
  450W        W 4514   7.708   6.832   0.664 -0.1344  0.2505 -0.0618
  451W        W 4515   7.959  10.415   8.043  0.0861 -0.4157  0.1389
  452W        W 4516   5.819   0.104  10.479 -0.4262  0.0603 -0.1385
  453W        W 4517   2.541   0.423   0.927 -0.0144 -0.3342  0.2882
  454W        W 4518   9.525   2.018   8.708 -0.0795  0.0434 -0.1379
  455W        W 4519   0.968   9.629   1.080 -0.0315  0.0191  0.1701
  456W        W 4520   4.086   5.017   8.279  0.0822 -0.2156 -0.0525
  457W        W 4521   2.290   6.779   9.033 -0.1906 -0.1857  0.0346
  458W        W 4522   7.557   7.785   0.378  0.1363  0.2274  0.0140
  459W        W 4523   4.448   0.908   1.635 -0.0527  0.1289 -0.3772
  460W        W 4524   1.106   6.162   0.566  0.0381 -0.0773  0.0068
  461W        W 4525   7.883   8.935  11.118  0.0910  0.1383 -0.1024
  462W        W 4526   7.923   8.763   8.536  0.1544  0.1784  0.0137
  463W        W 4527   7.604   5.749   1.552  0.1369  0.0878 -0.2878
  464W        W 4528   5.092   1.864   2.047  0.3283  0.1884  0.1127
  465W        W 4529   5.423   8.663  10.237 -0.0264  0.1588 -0.2870
  466W        W 4530   7.180   5.890   7.952  0.1011 -0.1367 -0.2353
  467W        W 4531   3.317   0.636   9.268  0.1263  0.1418 -0.0989
  468W        W 4532   5.960   1.737   9.685 -0.0798 -0.2059  0.0410
  469W        W 4533   1.683   5.387   2.202  0.2123  0.0276 -0.0532
  470W        W 4534   1.101   1.435   2.503  0.1512  0.4456  0.0109
  471W        W 4535   3.255  10.328   7.845  0.0425  0.0887  0.0980
  472W        W 4536   0.392   4.073   3.589  0.0236 -0.1130 -0.0303
  473W        W 4537  10.403   9.765   8.274  0.0052 -0.1219  0.0926
  474W        W 4538   8.063   4.392   3.634 -0.3236  0.0693 -0.1207
  475W        W 4539   1.529   7.269   9.131  0.0202 -0.2207 -0.2086
  476W        W 4540   0.429   5.905  10.237 -0.0484  0.3962  0.1380
  477W        W 4541   5.696   9.505   2.495  0.1605  0.0415  0.0918
  478W        W 4542   4.733   9.653  10.676 -0.0370 -0.0512  0.0796
  479W        W 4543   5.772   9.463   0.926 -0.0080  0.1947  0.1883
  480W        W 4544   7.091   0.867   9.965 -0.1167 -0.0220  0.1012
  481W        W 4545   9.618   8.255   9.640  0.1221 -0.4335 -0.0550
  482W        W 4546   7.970   5.614   8.650  0.0782 -0.1795  0.2129
  483W        W 4547   7.710   2.475   9.293  0.0968 -0.0720 -0.1428
  484W        W 4548   4.425   4.416  11.386 -0.2971 -0.1894 -0.0388
  485W        W 4549  10.295   3.252   0.197  0.3014 -0.0752 -0.3356
  486W        W 4550   9.970   8.776  11.623 -0.0238  0.1930 -0.0741
  487W        W 4551   0.090   3.235   3.066  0.0403  0.0989 -0.0801
  488W        W 4552   9.797   0.663  11.616  0.3148  0.0864  0.0697
  489W        W 4553   4.589   8.085   2.432  0.0297  0.1458 -0.0587
  490W        W 4554   3.347   0.082   8.326 -0.0604  0.1495 -0.4565
  491W        W 4555   5.050   7.329   0.649  0.2594 -0.0505  0.1053
  492W        W 4556   9.655  10.245  10.362  0.0381 -0.1444  0.1236
  493W        W 4557   3.409   8.358   0.026 -0.1286  0.0486  0.0102
  494W        W 4558   3.551   9.241  10.245  0.0240 -0.1323  0.2965
  495W        W 4559   7.601   1.827  10.678 -0.1980 -0.2101  0.2497
  496W        W 4560   2.373  10.223   2.692  0.1436 -0.2487 -0.0762
  497W        W 4561   2.302   9.402   2.847  0.0801 -0.0910  0.2234
  498W        W 4562   3.071   6.162   7.603 -0.2467  0.0586  0.0147
  499W        W 4563   1.837   5.089   8.467  0.1334 -0.1692 -0.0374
  500W        W 4564   8.446   5.502   0.142  0.0759  0.0046  0.1192
  501W        W 4565   3.031   9.562   1.699  0.1451 -0.0986  0.3512
  502W        W 4566   9.302   4.662   8.283  0.3905 -0.0331  0.1558
  503W        W 4567   8.773   4.291   1.779 -0.0052  0.5726  0.1902
  504W        W 4568   9.711   4.829   0.784  0.1964 -0.1226  0.2427
  505W        W 4569   0.988   2.203   1.055  0.0307  0.0490 -0.3400
  506W        W 4570   9.632   9.350   2.330 -0.2048 -0.2064 -0.2786
  507W        W 4571   7.490   7.391   0.017 -0.1972 -0.1043  0.0168
  508W        W 4572   2.975   1.747   3.444 -0.0318 -0.3317 -0.0523
  509W        W 4573   3.635   9.597   3.426 -0.1723 -0.0242 -0.3573
  510W        W 4574   4.612   9.389  10.193 -0.1004  0.2913 -0.1935
  511W        W 4575   0.877   5.028   9.790 -0.0777 -0.0862  0.0463
  512W        W 4576  10.301   0.186  10.351  0.0537 -0.0375 -0.4493
  513W        W 4577   4.144  10.499   8.811 -0.2120 -0.0943 -0.0726
  514W        W 4578   0.376   6.575   9.407 -0.1190  0.0693 -0.2721
  515W        W 4579   3.493   9.205   1.018 -0.0276 -0.2492  0.1181
  516W        W 4580   5.475   5.722   1.652  0.0607 -0.1552  0.0096
  517W        W 4581   0.718   8.819   0.075 -0.3027 -0.3313  0.0221
  518W        W 4582   8.613   7.969  10.924  0.1609 -0.0329  0.1954
  519W        W 4583   7.781   9.643   1.831  0.1630 -0.0817  0.1617
  520W        W 4584   6.580   1.089   0.179  0.3224  0.2659  0.0175
  521W        W 4585   3.106   5.978   0.818 -0.0503  0.0950  0.2268
  522W        W 4586   8.761   0.770   0.829 -0.3157  0.1909 -0.2096
  523W        W 4587   6.314   9.022   4.140  0.0247  0.0135 -0.0146
  524W        W 4588   5.117  10.310  10.252 -0.0047 -0.2122 -0.0270
  525W        W 4589   9.956   9.735   8.467 -0.0178 -0.4170 -0.0702
  526W        W 4590   5.560  10.280  10.480  0.0656  0.0054 -0.1428
  527W        W 4591   4.199   7.426   8.069  0.1481 -0.1972 -0.1520
  528W        W 4592   2.781   6.442   1.958  0.1275 -0.0109  0.1153
  529W        W 4593   1.977   6.639   0.302  0.2113 -0.0837  0.1580
  530W        W 4594   8.219   0.922   2.016 -0.0139 -0.2668  0.1065
  531W        W 4595   7.268   7.886   7.515  0.0207  0.0267  0.3587
  532W        W 4596   2.636   8.384   3.217  0.0605 -0.0314  0.0945
  533W        W 4597   5.847   9.135   7.170 -0.1109 -0.0056 -0.3278
  534W        W 4598   3.592   1.763   2.763 -0.0107  0.2122 -0.0164
  535W        W 4599   9.699   7.765  10.982  0.0508 -0.2810  0.0938
  536W        W 4600   3.064   1.044  10.295 -0.0837  0.2476 -0.0511
  537W        W 4601   4.173   0.070   3.621 -0.0360  0.0844 -0.0170
  538W        W 4602   6.253   6.806   1.471 -0.2207 -0.3462 -0.0352
  539W        W 4603   7.976   1.727   2.315 -0.3812  0.1903 -0.0130
  540W        W 4604   7.968   2.012   9.444  0.3839  0.3445  0.2459
  541W        W 4605  10.295   3.560   3.439 -0.2946 -0.1217  0.0227
  542W        W 4606   6.600   2.616   0.881  0.2997  0.2860 -0.3092
  543W        W 4607   3.856   3.790  10.799 -0.1479 -0.1442  0.0837
  544W        W 4608   3.419   1.415  10.642 -0.0305 -0.1042  0.3144
  545W        W 4609   7.061   2.813  10.806 -0.0968 -0.0981 -0.1796
  546W        W 4610   3.900   2.072   9.870 -0.0320  0.1115  0.0749
  547W        W 4611   0.494   1.978   1.045  0.0989 -0.3828 -0.0529
  548W        W 4612   7.810   9.083   9.330  0.0727 -0.0204 -0.3518
  549W        W 4613   7.803   0.612   1.832  0.2465 -0.1061 -0.2206
  550W        W 4614   0.792   6.719   8.966 -0.1465  0.2905  0.0183
  551W        W 4615   6.586   2.897  10.343 -0.2790  0.2331 -0.2022
  552W        W 4616   2.566  10.361   9.797  0.2772  0.1256  0.2723
  553W        W 4617   7.382   4.640   9.980  0.1776 -0.0391 -0.1117
  554W        W 4618   5.213   7.507   2.807 -0.2513  0.3815  0.0117
  555W        W 4619   2.209   1.268   2.354  0.1088  0.4571 -0.0869
  556W        W 4620   4.115   9.944   3.939  0.2083 -0.3536 -0.0188
  557W        W 4621   7.651   8.266   1.525 -0.0957 -0.3737 -0.0266
  558W        W 4622   9.477   6.537  10.434  0.0462  0.2219  0.0160
  559W        W 4623   6.008   4.542   3.031  0.2473 -0.1574 -0.0245
  560W        W 4624   1.708   1.110   8.296  0.0828 -0.0547  0.1167
  561W        W 4625   9.309   2.070  10.114  0.2981 -0.0018 -0.1315
  562W        W 4626   8.101   6.250   1.262  0.2017  0.0683  0.0091
  563W        W 4627   3.699   4.564   3.701 -0.0708  0.1603  0.0464
  564W        W 4628   2.504   2.089   3.427  0.0623  0.4240  0.0704
  565W        W 4629  10.418   2.302   1.451 -0.0808  0.1093 -0.1286
  566W        W 4630   0.872   4.443   0.114  0.1218  0.0660 -0.0456
  567W        W 4631   1.015   7.172   7.809  0.1654  0.1672  0.1487
  568W        W 4632   5.530   4.658  11.122  0.0766 -0.3326  0.0692
  569W        W 4633   2.872  10.051   1.940 -0.4783  0.0243  0.1346
  570W        W 4634   0.980   5.424   1.176 -0.0611  0.1238 -0.2054
  571W        W 4635  10.140   8.793   9.738 -0.0414 -0.1940 -0.1706
  572W        W 4636   1.147   6.578   1.855  0.3410  0.0170 -0.0201
  573W        W 4637   7.842   9.652   0.063 -0.2786 -0.0441  0.0928
  574W        W 4638   5.829   8.910   7.949  0.0854  0.0892 -0.2747
  575W        W 4639   8.082   3.638  10.672 -0.0265 -0.0565  0.1695
  576W        W 4640   4.975   7.904   2.791  0.0333 -0.1339  0.2681
  577W        W 4641   8.013   4.922  11.543 -0.2401 -0.0138  0.1032
  578W        W 4642   5.360   5.135   3.195 -0.3513  0.1618  0.0898
  579W        W 4643   4.360   7.019   0.159  0.0795 -0.1229 -0.1019
  580W        W 4644   9.531   5.919   8.561 -0.0515 -0.2045  0.1304
  581W        W 4645   4.193   1.657   9.447  0.1063  0.1290  0.2543
  582W        W 4646   4.556   3.536   0.008 -0.0266 -0.0679  0.0069
  583W        W 4647   9.262   8.667   1.000 -0.1613  0.1877  0.1696
  584W        W 4648  10.223   7.806   8.542  0.2603 -0.3133  0.0963
  585W        W 4649   3.360   2.414  11.270 -0.1633  0.0886  0.1923
  586W        W 4650   7.797   3.928   2.245 -0.1461 -0.3008  0.0098
  587W        W 4651   1.073   7.595   9.368 -0.0342 -0.2234  0.2426
  588W        W 4652   1.617   6.792  11.081  0.2432 -0.0110 -0.3372
  589W        W 4653   2.843   8.062   3.859  0.2045  0.2179 -0.3379
  590W        W 4654   2.732   4.128   2.904  0.5663  0.0021  0.1704
  591W        W 4655   6.822   6.355   8.203  0.2125 -0.1542  0.1814
  592W        W 4656   6.358   4.076   0.533  0.1671 -0.0765 -0.2026
  593W        W 4657   0.628   5.671   8.479  0.4553 -0.1997  0.0065
  594W        W 4658   3.302   2.975   9.970 -0.3458  0.0850  0.2415
  595W        W 4659   3.400   4.349   8.173 -0.4486 -0.0209  0.1158
  596W        W 4660   7.085   7.814  10.815  0.0706 -0.2354  0.0930
  597W        W 4661   8.833   7.126   0.374  0.1416 -0.0002 -0.1422
  598W        W 4662   9.875   2.791   4.511  0.3644  0.1957 -0.0812
  599W        W 4663   8.202   3.064   9.803  0.1092 -0.0154 -0.1042
  600W        W 4664   7.463   4.738   7.515  0.1222  0.3562 -0.0570
  601W        W 4665   8.031   1.542  10.457  0.1719 -0.2251 -0.1138
  602W        W 4666   9.067   4.364   3.578 -0.0017  0.1830  0.0917
  603W        W 4667   3.491   8.971   9.016  0.0767  0.2090 -0.2093
  604W        W 4668   6.732   6.781   9.466 -0.0983 -0.1033 -0.0187
  605W        W 4669   0.061   9.607  10.883 -0.3202  0.0952 -0.0229
  606W        W 4670   9.198   9.853   9.492 -0.1276  0.0919 -0.0380
  607W        W 4671  10.491   6.688   1.895 -0.0669 -0.3217  0.0790
  608W        W 4672   8.642   8.113   1.539 -0.0909  0.3748  0.0953
  609W        W 4673   7.472   8.056   1.103  0.0605  0.0436  0.0902
  610W        W 4674   8.973   0.624   8.957  0.1707  0.0743  0.1817
  611W        W 4675   5.336   4.544   0.395  0.0100 -0.3527  0.0212
  612W        W 4676  10.325   3.173   1.813  0.2291 -0.1610 -0.1020
  613W        W 4677   8.468   8.217   8.930  0.0753 -0.1409  0.0526
  614W        W 4678   1.527   6.222   2.172  0.2406  0.1891  0.1651
  615W        W 4679   8.241   6.592   8.486 -0.0402 -0.1802 -0.1013
  616W        W 4680   8.100   1.327  11.345 -0.1054  0.2429 -0.0093
  617W        W 4681   5.538   2.304   0.241 -0.2174  0.2650  0.2045
  618W        W 4682   5.829   1.959   2.761 -0.1210 -0.0817 -0.1417
  619W        W 4683   5.593  10.116   9.170  0.2447 -0.0350 -0.1850
  620W        W 4684   2.216   6.286  11.321  0.1168 -0.2100 -0.0752
  621W        W 4685   2.705  10.205  10.672  0.3085  0.0341 -0.1543
  622W        W 4686   4.939   6.347   1.198  0.0994  0.0319  0.0364
  623W        W 4687   0.037   1.815   1.945  0.0172  0.4007  0.1279
  624W        W 4688   5.279   6.484   2.310 -0.0345  0.0718 -0.3504
  625W        W 4689   2.840   7.600   9.112 -0.0481  0.0059  0.0467
  626W        W 4690   4.109   4.814   2.363  0.1730 -0.4184 -0.0239
  627W        W 4691   5.015  10.026  10.652  0.4736 -0.0393  0.0895
  628W        W 4692   0.601   8.121   3.447  0.5917  0.0145 -0.0315
  629W        W 4693   1.977   6.329   8.130 -0.1058 -0.0272  0.1650
  630W        W 4694   3.201   3.773   9.189  0.1474  0.1773  0.1134
  631W        W 4695   5.746   6.530  11.509  0.2291  0.0659 -0.0914
  632W        W 4696   2.989   0.620   9.843 -0.0023 -0.2207  0.2204
  633W        W 4697   7.310   1.058  10.906  0.1701  0.0746 -0.1165
  634W        W 4698   6.407   4.629   1.317 -0.1043 -0.1129  0.1432
  635W        W 4699   0.965   0.717   8.560  0.1018 -0.0411 -0.3205
  636W        W 4700   7.147   4.190   1.181  0.1184  0.4073 -0.1527
  637W        W 4701   0.400   5.035   3.584 -0.1295 -0.0620 -0.2971
  638W        W 4702   5.291   9.944   8.780  0.1349 -0.1220 -0.1116
  639W        W 4703   8.780   4.805   2.573  0.2350  0.0021 -0.1374
  640W        W 4704   3.520   0.017  11.107  0.1863 -0.0442  0.2648
  641W        W 4705  10.293   7.000   8.118 -0.0995 -0.1772 -0.0615
  642W        W 4706   6.186   9.428   3.895 -0.0170  0.2058  0.0052
  643W        W 4707   6.752   5.244   8.544  0.0480 -0.1807 -0.0960
  644W        W 4708   3.986   8.784   2.805  0.1348  0.0206  0.0228
  645W        W 4709   1.584   9.665   8.366 -0.0399  0.1669 -0.6071
  646W        W 4710   7.920   8.650   3.286  0.0221  0.1757 -0.2874
  647W        W 4711   0.076   0.037   1.732 -0.2087 -0.2816 -0.0228
  648W        W 4712   4.360   7.950  10.030 -0.1895 -0.1415 -0.0552
  649W        W 4713   9.885   0.301   9.046 -0.3090 -0.0342  0.2509
  650W        W 4714   4.566   3.987   9.104 -0.4302 -0.0825  0.1192
  651W        W 4715   0.906   4.355   8.785 -0.1123 -0.2051  0.2275
  652W        W 4716   6.393   8.548   0.738  0.0456  0.1494  0.0157
  653W        W 4717   6.678   6.910   1.760 -0.1796  0.3824  0.0721
  654W        W 4718  10.572   7.404   8.473 -0.0872  0.2913 -0.0022
  655W        W 4719   8.159   9.666   0.933 -0.1529 -0.0776  0.0752
  656W        W 4720   6.855   5.653   3.326  0.2717  0.2492  0.3010
  657W        W 4721  10.219   3.331   2.696  0.0198 -0.0503 -0.1319
  658W        W 4722   9.136   9.577   3.826  0.0767 -0.0620  0.0720
  659W        W 4723   4.118   8.197   1.282 -0.1351 -0.1153  0.2229
  660W        W 4724   2.023   3.032   2.008 -0.1851 -0.0942 -0.3459
  661W        W 4725   4.983   5.006   4.041 -0.1590  0.0557 -0.0795
  662W        W 4726   7.335   3.099   9.944  0.2942 -0.1112 -0.4421
  663W        W 4727   4.317   9.202   9.672 -0.0873 -0.1283 -0.0555
  664W        W 4728   6.831  10.526  10.018  0.0216 -0.1864  0.4938
  665W        W 4729   5.936   1.563   3.088  0.0348 -0.3791  0.0029
  666W        W 4730   0.310   7.972   0.154 -0.1919  0.4116 -0.2404
  667W        W 4731   6.688   3.540   9.309  0.0846  0.1227  0.1670
  668W        W 4732   2.732   0.724   0.016 -0.1195 -0.3202 -0.0392
  669W        W 4733   0.980   4.930   7.331 -0.0698 -0.0032 -0.4106
  670W        W 4734   7.270   7.762   8.769  0.2192  0.2877  0.1765
  671W        W 4735   0.236   7.035   0.576 -0.2571 -0.2295 -0.0840
  672W        W 4736   8.144   3.477   1.084  0.1291  0.3610 -0.1830
  673W        W 4737   0.200   2.881   0.980  0.3745 -0.2351 -0.0952
  674W        W 4738   3.958   7.112   2.346 -0.0573  0.2578  0.1815
  675W        W 4739   1.128   6.274   8.986  0.2278  0.0753  0.2546
  676W        W 4740   9.835   3.599   0.354  0.1369 -0.0916  0.1844
  677W        W 4741   4.308   3.649   0.693  0.0280 -0.2274  0.0068
  678W        W 4742   5.922   1.498  11.442 -0.1998 -0.0300 -0.0953
  679W        W 4743   4.193   7.025   9.820  0.0519  0.0067 -0.2244
  680W        W 4744   9.406   4.916   8.726  0.3072 -0.1466 -0.2566
  681W        W 4745   1.053   9.440   2.083  0.2478  0.0733  0.2166
  682W        W 4746   2.270   5.538   7.647  0.3947 -0.0801  0.3887
  683W        W 4747   9.338   6.183   3.301 -0.2694 -0.0138  0.0439
  684W        W 4748   2.523   9.012   7.681 -0.1608 -0.0695  0.0738
  685W        W 4749   2.287   3.707   1.167 -0.4554  0.0754  0.0817
  686W        W 4750  10.009   2.482   1.218 -0.0343  0.2215  0.1156
  687W        W 4751  10.593   1.643   9.009 -0.0820 -0.0247  0.2497
  688W        W 4752   1.046  10.499   9.021 -0.1477  0.0668 -0.2165
  689W        W 4753   1.526   3.262   2.018 -0.0734 -0.2458  0.1331
  690W        W 4754   9.423   6.587   1.850  0.2951 -0.5039 -0.0143
  691W        W 4755   3.688   1.039   2.191  0.1164  0.0983  0.2139
  692W        W 4756   1.718   0.632   3.402  0.0946  0.0588  0.0845
  693W        W 4757   7.733   7.767   2.881  0.0499 -0.1346  0.1766
  694W        W 4758   0.206   6.960  11.049 -0.1551  0.1059 -0.2438
  695W        W 4759   0.225   8.724   3.525 -0.0803  0.0949 -0.0784
  696W        W 4760   3.006   2.063   1.659 -0.1482 -0.2495  0.3634
  697W        W 4761   9.797   1.606  11.595  0.0843  0.1738 -0.0070
  698W        W 4762   4.001   3.967  11.492  0.0965 -0.3184 -0.1680
  699W        W 4763   1.085   6.704  10.411  0.0781  0.1687 -0.1284
  700W        W 4764   7.395   8.674   8.627 -0.3150 -0.2898 -0.2772
  701W        W 4765   7.655   9.109  11.492  0.0883 -0.0304 -0.0464
  702W        W 4766   6.048   5.608   9.972  0.0252 -0.2096 -0.0891
  703W        W 4767   7.483   7.710   2.363  0.2700 -0.0207 -0.3712
  704W        W 4768   2.722   0.839  10.618 -0.1436 -0.0411  0.1718
  705W        W 4769   8.801   4.951   1.610 -0.0515 -0.0256 -0.0545
  706W        W 4770   8.557   3.620   2.877  0.2645  0.2235 -0.1031
  707W        W 4771   2.953   6.183   2.751 -0.0325 -0.0759  0.2623
  708W        W 4772   2.864  10.051   8.869  0.3849 -0.0675  0.1762
  709W        W 4773   4.623   0.058   1.850  0.1593 -0.0464  0.2818
  710W        W 4774   2.298   4.669  11.582  0.1389 -0.2181  0.2223
  711W        W 4775   0.152   0.132   8.177 -0.1654  0.1336  0.0995
  712W        W 4776   2.081   9.685   1.218  0.1419 -0.0014  0.3115
  713W        W 4777   2.574   4.699   1.528  0.0244 -0.1009  0.1969
  714W        W 4778   3.511   8.796  10.002  0.0034  0.0445  0.0398
  715W        W 4779   8.680   3.282  10.033 -0.1068  0.0209 -0.0180
  716W        W 4780   3.636   7.925   1.168 -0.3364  0.1270 -0.2865
  717W        W 4781   8.837   5.433   0.975  0.0026 -0.3909  0.1051
  718W        W 4782   2.825   5.302   9.977  0.0780 -0.2086 -0.0576
  719W        W 4783   6.808   2.441   0.314  0.2315 -0.2188 -0.0549
  720W        W 4784   3.707   5.285   1.797 -0.0827  0.0692 -0.3699
  721W        W 4785   1.199   0.683   1.904  0.0073 -0.1497  0.0085
  722W        W 4786   5.275   0.487   0.539 -0.1622  0.0248  0.0347
  723W        W 4787  10.457   5.443   2.661  0.2467 -0.2504  0.4412
  724W        W 4788   8.747   6.352   4.066  0.0370 -0.2469 -0.0973
  725W        W 4789   4.290   0.860   2.093 -0.3163  0.1047 -0.2516
  726W        W 4790   8.098   6.691   9.431  0.1199  0.1858  0.3444
  727W        W 4791   9.319   0.847  10.300 -0.0653 -0.0309 -0.0362
  728W        W 4792   0.023   7.919   8.762 -0.1374  0.2297  0.0477
  729W        W 4793   9.219   7.837   2.471 -0.1021  0.0049  0.1392
  730W        W 4794   3.389   8.648  10.507 -0.1435 -0.0633  0.2249
  731W        W 4795   8.664   0.900   7.593  0.0638 -0.4471 -0.1875
  732W        W 4796   2.164   7.362   2.964 -0.4119  0.0600 -0.0463
  733W        W 4797   2.373   8.335   3.691  0.0839 -0.1628  0.2031
  734W        W 4798   1.256   1.969   1.713  0.0873  0.0904 -0.0632
  735W        W 4799   5.691   3.499   9.673 -0.3592 -0.1063  0.0487
  736W        W 4800   7.874   3.037   1.077  0.2354 -0.0574 -0.0632
  737W        W 4801   5.442   6.513   7.491  0.0283 -0.0757 -0.0749
  738W        W 4802   8.628  10.514   2.749 -0.5775 -0.2710 -0.1394
  739W        W 4803   5.281   7.986   9.795 -0.2453  0.1264 -0.0126
  740W        W 4804   4.185   2.010   2.146  0.4342  0.3800 -0.0145
  741W        W 4805   4.638   0.529   9.212  0.0836  0.1702  0.1339
  742W        W 4806   5.389   8.526   1.154 -0.2257  0.0529 -0.0205
  743W        W 4807   4.038   5.308  10.570 -0.0667  0.4148  0.3529
  744W        W 4808   8.058   3.453   2.844  0.2036  0.2557 -0.2620
  745W        W 4809   6.191   6.991   7.801  0.0636  0.2008  0.1964
  746W        W 4810   9.223   6.739   9.028 -0.2313  0.0548  0.2737
  747W        W 4811   4.183   6.787   0.703 -0.1767  0.0007  0.1086
  748W        W 4812   5.945   4.202   2.703 -0.1510 -0.0714  0.0434
  749W        W 4813   6.933   9.308  10.999  0.0932  0.0410  0.1681
  750W        W 4814   0.506   2.751   9.993 -0.1157 -0.0009 -0.0844
  751W        W 4815   2.806   2.064   2.204 -0.0094  0.1834 -0.1002
  752W        W 4816   2.077   5.507  11.083  0.0656 -0.0131  0.1379
  753W        W 4817   8.810   9.926   9.175 -0.6409 -0.3087 -0.3028
  754W        W 4818   4.172   6.090  11.215 -0.0677  0.0175 -0.2588
  755W        W 4819   6.488   5.817  10.640  0.0554 -0.2331 -0.1796
  756W        W 4820   0.145   3.983   1.203 -0.1423  0.1900 -0.0747
  757W        W 4821   4.005   1.077   0.117  0.0633  0.0624  0.2146
  758W        W 4822   2.233   2.840   2.388  0.0732  0.2030 -0.0319
  759W        W 4823   8.302  10.075   7.801 -0.1171 -0.1968 -0.1876
  760W        W 4824  10.095   5.505   9.877  0.3278  0.3110  0.0032
  761W        W 4825   8.176   6.095   8.700 -0.1227 -0.1413 -0.1507
  762W        W 4826   9.940   8.590  10.724  0.0245  0.1316 -0.1050
  763W        W 4827   8.983   0.784   9.951  0.0402  0.4651 -0.4700
  764W        W 4828   2.097   2.866   3.614 -0.1393 -0.1110  0.2610
  765W        W 4829   7.658   0.708   1.350  0.1241  0.3694  0.1036
  766W        W 4830   6.604   6.045   8.842 -0.0655 -0.2856 -0.3165
  767W        W 4831   5.425   7.637   4.046 -0.4531 -0.0766 -0.4648
  768W        W 4832   8.707   4.879   3.496  0.3143  0.0223  0.3316
  769W        W 4833   8.950   4.776   8.662  0.1757 -0.2000 -0.1846
  770W        W 4834   1.324   4.019  11.415 -0.0742  0.3621  0.1193
  771W        W 4835   1.373   8.219   0.597 -0.2861  0.0002  0.0223
  772W        W 4836   3.136  10.399   8.689 -0.1233  0.2371 -0.3023
  773W        W 4837   7.937   1.067   1.576  0.2656 -0.0323  0.1448
  774W        W 4838   8.421   1.489   1.031  0.0706  0.1341  0.2131
  775W        W 4839   5.808   8.536   1.677 -0.2237  0.1942 -0.0608
  776W        W 4840   7.932   5.975  11.420  0.1496  0.1332  0.0006
  777W        W 4841   9.374   6.151   1.605  0.3030 -0.0781  0.1803
  778W        W 4842   5.328   2.694   1.884 -0.4170 -0.3346  0.5277
  779W        W 4843   9.098   5.452   0.486 -0.0024  0.1623 -0.2071
  780W        W 4844   8.506   5.699   0.578  0.0197 -0.0069 -0.0506
  781W        W 4845   4.270   8.759  11.569 -0.1253 -0.0020 -0.0658
  782W        W 4846   2.462   6.808  10.818  0.1056 -0.3558 -0.2222
  783W        W 4847   4.929   9.740   1.900 -0.1125  0.0009  0.2300
  784W        W 4848   4.978   1.419  11.272  0.0498  0.3001  0.0483
  785W        W 4849   2.616   7.483   2.885 -0.2173 -0.1255 -0.0181
  786W        W 4850   3.923   0.245   8.508  0.0345  0.0321  0.0435
  787W        W 4851   2.082   2.366   9.478  0.0342  0.1883 -0.0113
  788W        W 4852   2.949   8.922   8.188  0.0422  0.1090  0.0283
  789W        W 4853   1.316   3.283   8.185  0.1300  0.0873  0.2271
  790W        W 4854   7.545   7.472   8.489  0.3114  0.0294  0.2563
  791W        W 4855   2.760   2.964   1.198  0.0879  0.0864 -0.0737
  792W        W 4856   3.569   4.371   4.111 -0.0084 -0.0527 -0.1627
  793W        W 4857   4.170   9.216  10.586  0.1469 -0.1572  0.1319
  794W        W 4858   3.217  10.576   0.004 -0.0152 -0.3594  0.2759
  795W        W 4859   8.505   2.563   9.585  0.0293  0.0791  0.2485
  796W        W 4860   0.108   0.467   2.083 -0.0929 -0.2180 -0.0479
  797W        W 4861   8.427   3.423  11.443 -0.0313 -0.0380  0.1200
  798W        W 4862   9.247   0.359  10.743  0.0647  0.0984  0.0008
  799W        W 4863   0.541   1.079  10.081 -0.0804  0.2267  0.2653
  800W        W 4864   9.053   5.789   3.159  0.0399 -0.0740 -0.1576
  801W        W 4865   0.703   7.136  10.808 -0.2124  0.0846  0.1132
  802W        W 4866   5.243   5.086  11.087 -0.1741  0.1364  0.0123
  803W        W 4867   2.052   6.141   2.394  0.4814 -0.0781  0.0498
  804W        W 4868   0.398   1.455   1.082  0.2188  0.3498  0.2550
  805W        W 4869   8.668   6.181  10.071 -0.2254 -0.1687 -0.0048
  806W        W 4870   4.997   2.602   9.966  0.6073 -0.3251 -0.0387
  807W        W 4871   8.421   1.065   2.822  0.1109  0.0160 -0.2176
  808W        W 4872   4.441   2.344   1.170  0.0356 -0.1597 -0.0237
  809W        W 4873   9.979   6.813   8.402  0.1605 -0.1221  0.0339
  810W        W 4874   1.038   5.356  11.267 -0.0625 -0.1846 -0.1411
  811W        W 4875   1.460   4.810   2.881  0.1224  0.2458  0.3413
  812W        W 4876   9.015   8.654   1.416 -0.2705  0.0377  0.0858
  813W        W 4877   9.511   0.654   1.472 -0.5814 -0.1102  0.1262
  814W        W 4878   6.033   4.859   1.079 -0.0496 -0.0619  0.0036
  815W        W 4879   4.689   2.513   1.541  0.0025 -0.1598  0.0315
  816W        W 4880   4.293   6.919   2.705 -0.1989 -0.0484 -0.1758
  817W        W 4881   3.094   4.307   2.629 -0.1556 -0.2161 -0.1492
  818W        W 4882   2.689   0.528   2.771 -0.0869 -0.1119  0.0417
  819W        W 4883   9.072   1.657  10.312 -0.3590 -0.0564  0.0701
  820W        W 4884   4.898   8.745   8.924 -0.0676  0.1819  0.1005
  821W        W 4885   4.339   9.692   2.830 -0.0103  0.1254  0.0423
  822W        W 4886   0.810   4.127   1.425  0.0430 -0.1823 -0.0667
  823W        W 4887   0.232   7.047  10.535  0.2845 -0.0233  0.0778
  824W        W 4888   1.794   1.688   3.087 -0.2678  0.2488 -0.2121
  825W        W 4889   6.464   5.743   2.500 -0.0586 -0.0238  0.1502
  826W        W 4890   8.327   8.269   8.123  0.1558 -0.0958  0.1027
  827W        W 4891   4.628   7.890   3.102 -0.0576 -0.2135  0.1538
  828W        W 4892   7.146   6.065  10.154 -0.0370  0.0896 -0.0752
  829W        W 4893   4.017   7.202   0.481 -0.0182  0.0129 -0.1351
  830W        W 4894   0.871  10.338   8.137 -0.1068  0.3665 -0.0009
  831W        W 4895   3.229   9.621  10.218 -0.0019  0.1227 -0.1429
  832W        W 4896   1.855  10.251   2.602  0.3355 -0.1615  0.0829
  833W        W 4897   8.391   5.343   2.477 -0.0270  0.1738 -0.2724
  834W        W 4898   1.460   3.238  10.772 -0.0348 -0.2679  0.0907
  835W        W 4899   9.567   4.731   9.957  0.1423  0.1267 -0.0824
  836W        W 4900   4.888   5.008   2.948  0.1552  0.0060  0.1194
  837W        W 4901   7.560   8.212   3.154  0.2321  0.1276 -0.1078
  838W        W 4902   1.983   0.401   1.887 -0.0508  0.1957 -0.0849
  839W        W 4903   4.022   2.616   1.405 -0.2874 -0.0401  0.1014
  840W        W 4904   1.947   3.701   9.488 -0.0367 -0.0836 -0.3757
  841W        W 4905   7.391   3.653  11.466  0.1362 -0.0405 -0.1442
  842W        W 4906  10.430   9.824   7.729  0.2146  0.0854 -0.3499
  843W        W 4907   5.555   5.360   2.393  0.3617 -0.1154  0.1065
  844W        W 4908   8.514   4.671  11.489  0.0019  0.2920  0.1182
  845W        W 4909   2.814   5.874   0.352  0.1498  0.0249 -0.0818
  846W        W 4910   7.919   7.381   3.404 -0.4100  0.2420  0.0984
  847W        W 4911   6.327   3.707   3.409 -0.1228  0.0644  0.1382
  848W        W 4912   0.501   2.924   3.000  0.0793 -0.0933  0.0707
  849W        W 4913   4.632   5.162   1.357 -0.1554  0.1885  0.0604
  850W        W 4914   3.067   2.726  10.548 -0.1373 -0.4447  0.3158
  851W        W 4915   6.859   2.233   9.174 -0.0517  0.0548  0.0602
  852W        W 4916   1.042   5.518  10.372  0.1718 -0.1907  0.4415
  853W        W 4917   8.670   2.730   0.038 -0.2714 -0.3271  0.6621
  854W        W 4918   9.573  10.444   1.807 -0.2061  0.0780  0.1535
  855W        W 4919   2.131   7.773   2.108  0.3949  0.0656 -0.1805
  856W        W 4920   7.510   0.550   3.759  0.0385  0.1512  0.0784
  857W        W 4921   7.207   7.387   0.507  0.3033  0.1631 -0.2079
  858W        W 4922   7.839   1.311   2.015  0.0660  0.2760  0.0541
  859W        W 4923   9.517   2.567   9.504 -0.0254  0.2476  0.2340
  860W        W 4924   4.234   9.365   2.442  0.2591 -0.0115 -0.1052
  861W        W 4925   1.736   3.365   0.514 -0.0051 -0.0171  0.0627
  862W        W 4926   4.729   1.782   3.797  0.2585 -0.0252 -0.0132
  863W        W 4927   8.086   6.966  10.947  0.4506 -0.0730  0.1160
  864W        W 4928   2.908   0.323   8.285 -0.1493 -0.1300 -0.4086
  865W        W 4929   2.826   0.180   1.829  0.4391  0.1923 -0.1056
  866W        W 4930   0.037   1.980   7.946 -0.2289  0.0866  0.1088
  867W        W 4931   7.944  10.123   2.256  0.1467 -0.1031 -0.1228
  868W        W 4932   2.653   2.926  11.184 -0.0945 -0.0369 -0.1770
  869W        W 4933   2.114   5.646   2.428 -0.3541 -0.2719  0.1846
  870W        W 4934   4.378   8.381   2.950 -0.4009 -0.1698  0.0430
  871W        W 4935   1.684   2.471  10.325 -0.0278 -0.1690  0.0356
  872W        W 4936   0.790   6.267  11.303 -0.2458  0.0156 -0.0389
  873W        W 4937   8.776   8.098   7.904 -0.3016  0.1764 -0.1683
  874W        W 4938   4.812   2.092   2.945  0.4349  0.0468 -0.2017
  875W        W 4939   5.168   5.305  10.628  0.0849 -0.0723 -0.5010
  876W        W 4940   6.386   2.641   9.150  0.1535  0.0649  0.1881
  877W        W 4941   9.917   7.863   1.119  0.0613 -0.3953  0.2206
  878W        W 4942   0.203   9.749   3.415 -0.1290 -0.1422 -0.0248
  879W        W 4943   3.995   0.754   9.548  0.0249  0.1728  0.0461
  880W        W 4944   8.312   8.728   3.656  0.0497 -0.1582 -0.0521
  881W        W 4945   8.486   4.827   8.870  0.0528  0.0463  0.0484
  882W        W 4946   6.357   1.671  11.196  0.0674  0.1894 -0.1359
  883W        W 4947   0.589   7.029   9.807 -0.3866  0.0226 -0.0362
  884W        W 4948  10.559   7.332  10.888 -0.0130 -0.3111  0.0399
  885W        W 4949   9.979   5.268  11.441 -0.0650 -0.0233  0.1220
  886W        W 4950   0.910   0.496  11.377 -0.0197  0.3171  0.2867
  887W        W 4951   2.886   3.523   1.331 -0.2498  0.0811  0.1260
  888W        W 4952   4.444   2.497  10.749  0.0140  0.0830  0.1143
  889W        W 4953   0.499   5.583   1.355  0.0561 -0.0280  0.1106
  890W        W 4954   3.204   2.992   2.940  0.0659 -0.3325  0.1705
  891W        W 4955   4.493   4.199   1.972 -0.2726 -0.5594 -0.0757
  892W        W 4956   8.152   1.507   9.554 -0.1840  0.1760 -0.1553
  893W        W 4957   6.289   7.220   1.869 -0.1458  0.0580 -0.1117
  894W        W 4958   7.631   3.181   3.197  0.1306 -0.0552  0.0467
  895W        W 4959   2.045  10.106  10.225 -0.3444  0.1998 -0.0993
  896W        W 4960   9.528   2.519   2.896 -0.1296  0.3959  0.4998
  897W        W 4961   6.232   2.630   1.647  0.0725  0.5447  0.1462
  898W        W 4962   6.517   5.227   0.936 -0.1684 -0.0269  0.3074
  899W        W 4963   8.418   0.379  10.510  0.0048  0.0945 -0.0218
  900W        W 4964   6.016   4.733  11.436  0.2031 -0.0365  0.3261
  901W        W 4965   0.236   3.796   4.269  0.3854  0.2068  0.1590
  902W        W 4966   0.728   7.301   2.756  0.1302 -0.2172  0.3608
  903W        W 4967   3.832   8.771   0.879  0.1034 -0.2840  0.0346
  904W        W 4968   9.801   0.717   0.642 -0.2642  0.0760  0.2058
  905W        W 4969   8.094   4.253   0.856  0.0980 -0.0473  0.2860
  906W        W 4970   5.725   8.392   9.887 -0.0888 -0.4325  0.2172
  907W        W 4971   0.636   6.033   1.101  0.0085  0.0586 -0.0690
  908W        W 4972   3.630   5.049   9.642 -0.2330  0.1635  0.0842
  909W        W 4973   0.788   4.424  10.413 -0.1557  0.1293  0.0717
  910W        W 4974   0.905  10.085   8.777 -0.2611 -0.0245  0.3048
  911W        W 4975   3.685   3.101   9.449 -0.1970  0.0477  0.0960
  912W        W 4976   3.862   2.252  11.081 -0.0469 -0.0780  0.2902
  913W        W 4977   7.221   1.627   1.358  0.2371  0.2270  0.1776
  914W        W 4978   9.952   7.888   9.478  0.0631 -0.0979  0.1528
  915W        W 4979   5.548   6.016   9.120 -0.0480  0.1340  0.0935
  916W        W 4980   6.072   0.697  11.377 -0.0184 -0.1530 -0.2071
  917W        W 4981   6.455   1.597   2.020  0.1171 -0.0056  0.4244
  918W        W 4982   4.904   2.943   9.599 -0.2332 -0.0827  0.0883
  919W        W 4983   5.045   0.286   3.954 -0.2218 -0.0311 -0.2864
  920W        W 4984   0.160   6.833   1.443 -0.1782 -0.0917 -0.0536
  921W        W 4985   8.911   2.888  10.835 -0.3475  0.0815 -0.0615
  922W        W 4986   1.071   4.753   3.261 -0.2239  0.2034 -0.0275
  923W        W 4987   5.555   7.141  10.118 -0.1971 -0.0526  0.3888
  924W        W 4988   9.078   1.599   0.549 -0.2091 -0.0745 -0.1104
  925W        W 4989   9.562   5.270   0.578 -0.1031  0.3257 -0.1693
  926W        W 4990   7.530   0.472   9.730 -0.0050  0.0101  0.0617
  927W        W 4991   7.675   5.685   3.545 -0.0331  0.2237  0.2191
  928W        W 4992  10.619   4.411   8.486  0.0922  0.0119 -0.2038
  929W        W 4993   2.607   8.505  11.091 -0.2219 -0.1231 -0.3344
  930W        W 4994   3.009   0.751   1.041  0.1417 -0.0691 -0.1625
  931W        W 4995   8.723  10.323   3.636  0.0938  0.3330  0.0239
  932W        W 4996   5.059   3.699  11.561 -0.1208 -0.1413 -0.1480
  933W        W 4997   1.955   9.522   0.163 -0.1604  0.4029  0.0586
  934W        W 4998   3.937   8.471  10.008 -0.1668  0.0768  0.6644
  935W        W 4999   0.749   8.709   1.196  0.1044 -0.1261  0.0179
  936W        W 5000   9.556   8.695   1.447 -0.2470  0.1290 -0.2321
  937W        W 5001   5.245   8.091   1.123  0.1672  0.2194 -0.0039
  938W        W 5002   3.477   9.130   3.088 -0.1366 -0.1099 -0.0734
  939W        W 5003   8.751  10.096   1.583 -0.1513  0.1161  0.1127
  940W        W 5004   2.209   0.596   8.428  0.1148 -0.1709  0.1864
  941W        W 5005   5.189  10.592   0.512 -0.1375  0.2299  0.2755
  942W        W 5006   9.264   0.241   0.826 -0.1851 -0.3786 -0.2009
  943W        W 5007   2.427   6.996   0.168 -0.2919 -0.0375  0.0399
  944W        W 5008   0.524   1.897   2.013  0.0639 -0.0881  0.2039
  945W        W 5009   8.597   5.004   1.076 -0.1270  0.2797 -0.2466
  946W        W 5010   8.988   3.846   1.620 -0.0340  0.1136 -0.1892
  947W        W 5011   7.653   1.361   2.456 -0.2016 -0.2559  0.2576
  948W        W 5012   3.799   2.100   8.428 -0.1563 -0.1597  0.0328
  949W        W 5013   1.483   9.677   1.208 -0.2671 -0.1762 -0.0048
  950W        W 5014   0.539   9.872   8.404  0.3781  0.0913 -0.1901
  951W        W 5015   3.218   7.394   8.115  0.5067 -0.0104 -0.1122
  952W        W 5016   2.939   0.321   3.413  0.4774  0.0449  0.0075
  953W        W 5017   8.623   8.474   9.278  0.0012 -0.0567  0.3397
  954W        W 5018   1.658   3.567   8.048  0.0287  0.1342  0.0512
  955W        W 5019   0.441   1.076   0.232 -0.0119 -0.0108 -0.3367
  956W        W 5020   2.688   1.162   8.642 -0.2013 -0.0793  0.3854
  957W        W 5021   5.349   9.548   3.280 -0.2473 -0.0496  0.1145
  958W        W 5022   6.652   9.669   3.575  0.3722 -0.0305  0.4149
  959W        W 5023   0.579   7.013   0.228 -0.2133  0.2461 -0.2179
  960W        W 5024   8.535   3.377  10.743  0.3477 -0.3333  0.1776
  961W        W 5025   9.775   7.983   7.341 -0.1177  0.5334 -0.0240
  962W        W 5026   6.511   7.630   9.301 -0.1801  0.2267  0.3330
  963W        W 5027   4.494   4.714   9.945 -0.2880 -0.1114  0.1829
  964W        W 5028   7.879   7.614   1.993 -0.1183  0.0031 -0.0447
  965W        W 5029   0.911   9.133   0.936 -0.0062  0.2372 -0.1164
  966W        W 5030   7.958   8.749   7.979 -0.1070  0.3065 -0.2974
  967W        W 5031   1.417   1.354  10.494 -0.1498  0.0030  0.0778
  968W        W 5032   9.711   7.073   8.778  0.2147 -0.3390 -0.0620
  969W        W 5033   5.242   5.941   2.928  0.1386  0.1156 -0.4749
  970W        W 5034   4.883   8.771   9.977 -0.1211  0.0456  0.1440
  971W        W 5035  10.479   6.174   7.898  0.2069 -0.1010 -0.1118
  972W        W 5036   3.949   1.245   9.302  0.5011 -0.0925  0.1088
  973W        W 5037   6.258   9.326   1.672  0.0249  0.0784  0.0127
  974W        W 5038   2.470   0.327   0.114 -0.3420 -0.1047 -0.1116
  975W        W 5039   6.738   7.677   9.827 -0.2797 -0.0955 -0.3705
  976W        W 5040   2.358   5.234  10.161  0.0950 -0.0798 -0.2597
  977W        W 5041  10.469   4.916   1.238 -0.0223  0.2406  0.1691
  978W        W 5042   5.343   8.613   0.623  0.3391 -0.3243  0.0670
  979W        W 5043   8.449   3.686   1.394  0.1652 -0.2646  0.0250
  980W        W 5044   2.999   8.640   2.929 -0.2484  0.0830 -0.2714
  981W        W 5045  10.366   1.000   2.705  0.0167 -0.2151  0.1889
  982W        W 5046   7.252   9.145   8.479  0.0561  0.0526  0.1839
  983W        W 5047   5.308   6.465   0.150 -0.2299 -0.1468 -0.0398
  984W        W 5048   5.368  10.222   0.907  0.2874 -0.1089 -0.2418
  985W        W 5049   7.574   8.201   9.549  0.0746  0.1252  0.1328
  986W        W 5050   8.225   4.427   8.151  0.0316  0.1677 -0.0841
  987W        W 5051   6.625   4.596   2.246 -0.0652 -0.1953 -0.0704
  988W        W 5052   0.217   6.547   7.828 -0.2853 -0.2161  0.0382
  989W        W 5053   1.468   4.979  10.104  0.1525  0.1150  0.0857
  990W        W 5054   1.297   1.733   2.949  0.2373 -0.1734  0.0645
  991W        W 5055   7.781   9.945   8.063 -0.1677 -0.0344 -0.0793
  992W        W 5056  10.607   1.362   8.563 -0.4108  0.0623  0.0235
  993W        W 5057   3.100   7.694   3.145  0.2162 -0.3041  0.1351
  994W        W 5058   2.265   3.824  11.155  0.0339 -0.1483  0.0916
  995W        W 5059   3.336   2.578   8.610 -0.1799 -0.1297 -0.2155
  996W        W 5060   9.316   3.668   8.492 -0.0357 -0.1851 -0.1387
  997W        W 5061   8.489   4.543   1.225 -0.4727 -0.1745 -0.0028
  998W        W 5062   3.163   3.888  11.359  0.1556  0.1255 -0.3077
  999W        W 5063   1.646   2.652   2.801 -0.0112 -0.0066 -0.2251
 1000W        W 5064   5.448   2.018   9.625  0.0000 -0.1554  0.2061
 1001W        W 5065   4.021   5.794   2.487  0.1861 -0.0575  0.2551
 1002W        W 5066   0.824   6.015   2.892 -0.3311  0.1861 -0.1110
 1003W        W 5067   1.328   2.760   8.133  0.0376 -0.2725  0.0443
 1004W        W 5068   1.833   8.817   0.988 -0.0859 -0.1484  0.3085
 1005W        W 5069   0.933   3.901   3.920  0.3120 -0.0367 -0.0088
 1006W        W 5070   5.497   8.586   8.114 -0.0402 -0.0909 -0.1945
 1007W        W 5071   7.136   2.864   1.921  0.2774  0.1208 -0.1658
 1008W        W 5072   6.118   3.977   3.757 -0.2838  0.1830  0.1190
 1009W        W 5073   2.116   7.253   9.250  0.1720 -0.0276 -0.2092
 1010W        W 5074   6.922   6.234   0.722  0.1772  0.2707  0.0284
 1011W        W 5075   9.486   5.204   7.370 -0.2346 -0.0841  0.2538
 1012W        W 5076   7.775   2.549   1.779  0.2709  0.3423  0.0471
 1013W        W 5077   7.743   6.784   3.283  0.0876  0.0263  0.0196
 1014W        W 5078   2.342   0.592   9.449 -0.1223 -0.1960  0.1224
 1015W        W 5079   5.333   4.256  10.810 -0.1139  0.2698  0.0702
 1016W        W 5080   1.197   9.650   0.077 -0.3511  0.0792  0.0622
 1017W        W 5081   7.175   0.835   1.179 -0.0479  0.1112  0.1238
 1018W        W 5082   3.176   8.167   3.283  0.1786 -0.2082 -0.0011
 1019W        W 5083   3.171   4.473   0.720  0.2539 -0.1062 -0.0959
 1020W        W 5084   0.872   1.957   8.608  0.1266  0.1228  0.0427
 1021W        W 5085   3.657   1.735  10.197  0.1550 -0.0577  0.2335
 1022W        W 5086   9.830   6.103   0.716  0.2286 -0.2089  0.2178
 1023W        W 5087   5.136   4.200   9.181  0.0883  0.2005 -0.0894
 1024W        W 5088   0.398   3.471   0.789 -0.2774 -0.2373  0.0135
 1025W        W 5089   6.314   0.611   0.195 -0.1026 -0.1655  0.1504
 1026W        W 5090  10.253   0.218   1.245 -0.1011  0.2203  0.0450
 1027W        W 5091   6.734   7.461   1.889  0.0817 -0.0454 -0.0704
 1028W        W 5092   2.530   2.103   8.609 -0.2633  0.1189  0.1356
 1029W        W 5093   8.505  10.542   1.726  0.0346  0.4624  0.0638
 1030W        W 5094  10.407  10.417   0.261  0.1837  0.1536 -0.2570
 1031W        W 5095   2.697   6.272   7.952  0.0722  0.1042  0.0479
 1032W        W 5096   8.779   3.028   9.584  0.0587  0.2630 -0.0704
 1033W        W 5097   6.377   6.251   9.288  0.1879  0.0238  0.1285
 1034W        W 5098   0.743   5.019   2.053  0.2277 -0.0862  0.0878
 1035W        W 5099   8.736   4.076   1.264 -0.1775 -0.0164 -0.2343
 1036W        W 5100   6.197   7.509   0.535 -0.1802  0.0534  0.1751
 1037W        W 5101   2.540   8.601   2.100 -0.2848 -0.0858 -0.0995
 1038W        W 5102   1.861   9.982   3.399  0.1154  0.0592 -0.2309
 1039W        W 5103   2.360  10.359   9.298 -0.2037 -0.0033  0.2808
 1040W        W 5104   0.943   3.227   7.860  0.0499  0.3644 -0.1463
 1041W        W 5105   6.158   7.306   0.048 -0.1112 -0.0468  0.1528
 1042W        W 5106   1.642   4.888   8.035 -0.0950  0.1491  0.0879
 1043W        W 5107   5.902   2.403   0.775 -0.0616 -0.0030 -0.2092
 1044W        W 5108   5.261   7.169   9.368  0.0667 -0.2390  0.3800
 1045W        W 5109   7.920   9.955   1.304  0.1493 -0.2358 -0.0374
 1046W        W 5110   9.902   7.200  10.067  0.2113  0.0495  0.1062
 1047W        W 5111   4.131  10.071   2.475  0.1559  0.0435  0.0098
 1048W        W 5112   4.367   5.935   0.965 -0.1319 -0.0028  0.1482
 1049W        W 5113   8.677   6.300   0.398  0.1673  0.0559 -0.3173
 1050W        W 5114   6.299   2.312   2.277 -0.1892  0.1346 -0.4214
 1051W        W 5115   1.939   0.780   1.460 -0.0460 -0.2419  0.2271
 1052W        W 5116   5.020   8.343  10.331  0.0732 -0.0161 -0.0770
 1053W        W 5117   0.193   7.732   9.219 -0.0452 -0.3184  0.1274
 1054W        W 5118   7.116   9.058  11.431  0.2213 -0.1716  0.0748
 1055W        W 5119   2.148   4.343   2.295 -0.2204  0.0552 -0.1607
 1056W        W 5120   8.332   7.087  10.011  0.1510  0.4318 -0.3157
 1057W        W 5121   7.424   7.774   1.542  0.0063 -0.0029  0.3342
 1058W        W 5122   1.913   1.183  11.203  0.0616  0.2025  0.0357
 1059W        W 5123   2.489   4.559   2.618 -0.2987  0.0946 -0.1514
 1060W        W 5124   1.659   0.879   1.909  0.0963 -0.1923  0.4138
 1061W        W 5125   4.526   6.176   8.898  0.3274  0.0526 -0.0422
 1062W        W 5126  10.249   8.954   8.756 -0.0593  0.1073  0.0582
 1063W        W 5127   8.765  10.488   8.415  0.0972  0.2960  0.0034
 1064W        W 5128  10.129   5.051   0.909  0.1261  0.0691  0.1404
 1065W        W 5129   7.177   3.819   2.782 -0.4366 -0.0842  0.3666
 1066W        W 5130   7.092   1.734   9.785  0.2691  0.2659  0.2130
 1067W        W 5131   1.991   1.932   0.949 -0.0366 -0.2608  0.0823
 1068W        W 5132   0.450   4.876   8.097  0.3186 -0.2365  0.1784
 1069W        W 5133   1.504   3.881  10.941 -0.2398  0.1793  0.1729
 1070W        W 5134   4.553   7.481   0.611 -0.3200  0.0922  0.1240
 1071W        W 5135   4.074   4.584   9.127  0.0150  0.0677 -0.0907
 1072W        W 5136   3.539   8.500   8.628  0.2362 -0.0012  0.0861
 1073W        W 5137   0.433   4.342  11.009  0.0787  0.1000 -0.1338
 1074W        W 5138   5.401   8.227   2.854  0.3056 -0.3954  0.1622
 1075W        W 5139   5.862   7.022  11.396 -0.1564  0.0480  0.1086
 1076W        W 5140   6.806   1.937  10.150 -0.1963  0.1607 -0.0949
 1077W        W 5141   0.251   5.633   0.082  0.0018 -0.1679 -0.0639
 1078W        W 5142   0.396   7.853   1.630  0.0745 -0.1268  0.0206
 1079W        W 5143   1.377   3.159   2.500  0.1012  0.2359  0.2715
 1080W        W 5144   2.321   9.895   9.798  0.3210  0.0124  0.2407
 1081W        W 5145   5.598   8.696   2.773  0.3605  0.1319 -0.1323
 1082W        W 5146   5.783   6.246   2.426 -0.2678  0.0343  0.2759
 1083W        W 5147   3.822   7.338   1.858  0.3808  0.0938  0.0532
 1084W        W 5148   7.959   3.634  11.293 -0.0795  0.2345 -0.3646
 1085W        W 5149   5.682   2.683   0.441  0.2739 -0.2997  0.0568
 1086W        W 5150  10.491   4.595  10.386  0.1292  0.0479  0.1751
 1087W        W 5151  10.236   7.291   7.115  0.0786  0.1976 -0.0049
 1088W        W 5152   4.420  10.217   0.826 -0.0935 -0.3064 -0.1128
 1089W        W 5153   3.542   5.834   2.246  0.1073  0.1992  0.0867
 1090W        W 5154   5.060   0.436   1.482 -0.1048  0.2138  0.0578
 1091W        W 5155   5.031   9.184   3.185 -0.0352 -0.0401 -0.3140
 1092W        W 5156   8.039   7.042  10.435 -0.1237 -0.1232 -0.0440
 1093W        W 5157   2.687   8.343   0.019 -0.0153 -0.0802  0.1947
 1094W        W 5158   2.556   4.377   7.755 -0.0794 -0.1338  0.2010
 1095W        W 5159   3.853   9.385  11.108  0.2362  0.0818  0.2563
 1096W        W 5160   5.540   9.294   8.714 -0.1867  0.1867 -0.1770
 1097W        W 5161  10.423   1.403  10.527  0.0902  0.0631  0.2164
 1098W        W 5162   8.523   4.825  10.257  0.1546  0.1670  0.1221
 1099W        W 5163   9.976   8.194   2.836  0.3541  0.3315  0.0107
 1100W        W 5164   0.274   5.448   9.181  0.2717  0.1670 -0.1697
 1101W        W 5165   8.563   2.617   8.986 -0.1156 -0.3469  0.1915
 1102W        W 5166   8.058   3.241   8.958  0.0963  0.1318  0.2095
 1103W        W 5167   6.552   5.993   1.572 -0.1737  0.1523  0.0024
 1104W        W 5168   7.279   1.352   2.122  0.1153 -0.0399 -0.1187
 1105W        W 5169   0.860   0.947   2.673  0.0710  0.1595  0.0116
 1106W        W 5170   6.511   7.278   3.245  0.0866 -0.2040 -0.0884
 1107W        W 5171   4.682   6.924   0.596 -0.2340 -0.2910  0.3414
 1108W        W 5172   8.242   0.648   1.506 -0.1647  0.2466 -0.0175
 1109W        W 5173   9.021   3.612   8.936 -0.0901  0.0965  0.3689
 1110W        W 5174   6.743   0.510  10.127 -0.0523 -0.1119 -0.2955
 1111W        W 5175   9.818   3.161  10.722  0.0008  0.0672  0.0687
 1112W        W 5176   8.410   0.441   1.939 -0.2583 -0.0832 -0.1507
 1113W        W 5177   4.363   4.292   9.415  0.0092 -0.1882 -0.0517
 1114W        W 5178   9.426   0.445   8.897 -0.3884  0.1485  0.0042
 1115W        W 5179   0.890   4.277  11.275  0.0225  0.2292  0.1717
 1116W        W 5180   0.792   7.915   1.939 -0.1247 -0.2891 -0.0912
 1117W        W 5181   6.180   4.377   8.519 -0.1829  0.1494  0.1758
 1118W        W 5182   1.217  10.249  11.414 -0.2422 -0.2334 -0.0698
 1119W        W 5183   4.235   9.178   8.403 -0.1657  0.1673  0.0643
 1120W        W 5184   5.607   2.241   1.751  0.0589  0.1981  0.0615
 1121W        W 5185   1.114   1.968   3.427 -0.0645 -0.4281 -0.3193
 1122W        W 5186   4.209   6.421   2.810 -0.1139  0.0466  0.1115
 1123W        W 5187   2.144   0.136  10.799 -0.1072 -0.1951 -0.1296
 1124W        W 5188   0.801   9.219   2.511  0.1097  0.0889  0.0007
 1125W        W 5189   2.476   2.041   0.887  0.1039 -0.1403  0.1657
 1126W        W 5190   1.030   7.880   0.853 -0.1059  0.0877 -0.2000
 1127W        W 5191   3.664   7.195   0.127  0.4478 -0.1168  0.0004
 1128W        W 5192   2.174   2.206   8.174 -0.0531  0.0954 -0.1825
 1129W        W 5193   9.897   5.438   2.946  0.2129 -0.0467  0.2156
 1130W        W 5194   4.619   0.994  10.149 -0.3878 -0.0145 -0.2349
 1131W        W 5195   8.883   7.608  10.668 -0.4397  0.0484 -0.0547
 1132W        W 5196   6.460   8.986   1.154  0.1161 -0.2586 -0.1194
 1133W        W 5197   3.348   0.281   1.849 -0.1587  0.1307 -0.3647
 1134W        W 5198   4.673   8.425  10.759  0.1111  0.2186 -0.0281
 1135W        W 5199  10.359   5.113   4.064 -0.1519 -0.1864 -0.2024
 1136W        W 5200   5.621   6.455   9.748 -0.2179  0.0245  0.0100
 1137W        W 5201   6.349  10.274   8.793 -0.0303  0.2270  0.2422
 1138W        W 5202   4.823   7.317   0.162  0.0200 -0.0433 -0.0937
 1139W        W 5203   2.842   0.677   0.537  0.0476 -0.2219  0.0128
 1140W        W 5204   8.505   3.724  11.084  0.0430  0.1943  0.0267
 1141W        W 5205   8.513   9.524   7.765  0.1565 -0.0592  0.1318
 1142W        W 5206   0.774   0.455   2.878  0.1366  0.0005 -0.0476
 1143W        W 5207   4.894   8.900   3.966  0.0950 -0.1302 -0.1228
 1144W        W 5208   8.870   5.167   0.090  0.0048 -0.1168 -0.1042
 1145W        W 5209   0.795   5.672   7.708  0.0865 -0.0210  0.1825
 1146W        W 5210   4.992   0.750   2.830 -0.0609 -0.1742 -0.4107
 1147W        W 5211   8.422   1.862   2.531  0.3345 -0.1057 -0.1698
 1148W        W 5212   9.344  10.033   2.848  0.0394  0.0095 -0.3091
 1149W        W 5213   0.835   9.667   7.904  0.1141  0.0539  0.3046
 1150W        W 5214   7.045   2.452  11.104 -0.0525 -0.0779 -0.0757
 1151W        W 5215   4.347   4.738   8.667 -0.0943  0.1723 -0.1051
 1152W        W 5216   0.400   2.346   2.097  0.2043  0.1046 -0.0066
 1153W        W 5217   9.632   6.850   2.301  0.0951  0.1398 -0.1716
 1154W        W 5218   4.888   4.126  11.176 -0.3902 -0.2861 -0.0243
 1155W        W 5219   7.592   9.946   0.933 -0.0531 -0.0389  0.0643
 1156W        W 5220   0.696   1.899   9.087 -0.0390 -0.1864  0.1003
 1157W        W 5221   9.551  10.552   3.171  0.1719 -0.1077 -0.1970
 1158W        W 5222   0.155   7.313   8.941 -0.0083 -0.0863  0.2358
 1159W        W 5223   2.536   0.078   0.573  0.0413  0.1155  0.3305
 1160W        W 5224   8.930   3.346   3.159 -0.0285  0.2977 -0.0776
 1161W        W 5225   2.785   5.449   0.932 -0.1542 -0.1960 -0.1637
 1162W        W 5226   0.425  10.558   0.928  0.1342 -0.1688  0.1948
 1163W        W 5227   0.792   2.440   0.348 -0.1108 -0.1733 -0.0806
 1164W        W 5228   1.789   5.093   9.251 -0.4956 -0.1575  0.3594
 1165W        W 5229   0.226   6.182   9.888 -0.1532 -0.0691 -0.2417
 1166W        W 5230   9.751   5.962   9.519 -0.2502 -0.1137 -0.0419
 1167W        W 5231   7.972   4.923  10.710 -0.2353  0.0927 -0.1589
 1168W        W 5232   2.398   1.583   0.829  0.0681 -0.0464 -0.1915
 1169W        W 5233  10.581   7.619   1.846 -0.0928  0.0287 -0.0410
 1170W        W 5234   5.282   9.558   2.753  0.7077  0.5496 -0.1523
 1171W        W 5235  10.368   0.447   8.713 -0.2237 -0.3114  0.3478
 1172W        W 5236   8.148   6.711   0.977  0.0437 -0.0364 -0.1078
 1173W        W 5237   9.969   6.171   4.021  0.2214  0.0201  0.2716
 1174W        W 5238   0.887   8.878   8.597  0.0685 -0.1030  0.2108
 1175W        W 5239   0.722   5.161   8.916  0.0409 -0.1511  0.1530
 1176W        W 5240   3.782   7.985  10.728  0.0462 -0.0361 -0.0197
 1177W        W 5241   5.429   7.374  10.610  0.0134  0.2483  0.0958
 1178W        W 5242   4.278   3.212   1.681  0.0037  0.1702 -0.1131
 1179W        W 5243   6.135   1.426   3.528  0.3337  0.1388 -0.0020
 1180W        W 5244   5.605   9.753  11.232 -0.0059 -0.0195  0.0965
 1181W        W 5245   2.597   8.957   2.836  0.0907  0.2586  0.1324
 1182W        W 5246   9.040   6.202   8.213 -0.2248  0.0037  0.2221
 1183W        W 5247   3.352   0.120   2.733  0.1002  0.0251 -0.1711
 1184W        W 5248   7.962   9.670   9.927  0.0359  0.2592 -0.0766
 1185W        W 5249   8.868   0.919   2.566 -0.2620 -0.0602  0.1806
 1186W        W 5250  10.553   1.373   1.300 -0.1239  0.2216 -0.0550
 1187W        W 5251   0.114   2.157   3.745  0.0933 -0.3074  0.0182
 1188W        W 5252   8.147   7.257   7.819  0.0656  0.2036  0.1514
 1189W        W 5253   5.359   7.533   6.879  0.2310 -0.0198 -0.0701
 1190W        W 5254   6.536   7.246   9.676  0.0889  0.1108 -0.0894
 1191W        W 5255   5.761   1.133   2.904 -0.1198  0.1183  0.0743
 1192W        W 5256   5.593   9.402   0.052  0.2626 -0.0635  0.1078
 1193W        W 5257   2.525   0.877   1.363 -0.0095 -0.0310 -0.2020
 1194W        W 5258   9.131  10.554   0.028  0.2520 -0.0227  0.0641
 1195W        W 5259   7.058   6.331  11.249 -0.1604  0.0770 -0.0995
 1196W        W 5260   7.430   8.663   2.933  0.0533 -0.2652  0.1001
 1197W        W 5261   3.290   4.490   2.173 -0.0335  0.3008  0.2846
 1198W        W 5262  10.022   2.263  10.427 -0.0564  0.1888  0.1221
 1199W        W 5263  10.441   8.639   0.817  0.1676 -0.0281 -0.1642
 1200W        W 5264   8.804   7.858   9.995 -0.0016 -0.0138  0.2594
 1201W        W 5265   1.649   0.406   2.508 -0.2017  0.1681  0.0953
 1202W        W 5266   1.589   0.229   7.851 -0.2036  0.0985 -0.2070
 1203W        W 5267   9.451   3.013  10.422  0.0695  0.2579 -0.2790
 1204W        W 5268   0.636   1.217   2.361 -0.1423  0.2603  0.1236
 1205W        W 5269   0.168   7.464   7.934 -0.3366 -0.0200 -0.3385
 1206W        W 5270   8.185   6.171   8.158 -0.1232 -0.1378  0.2073
 1207W        W 5271   5.550   7.344   0.012  0.0523 -0.0297  0.2316
 1208W        W 5272   7.697   9.934  11.049  0.1038  0.2638 -0.2504
 1209W        W 5273   2.290  10.192   1.236 -0.0869 -0.4537 -0.0406
 1210W        W 5274   4.443   2.700  11.261  0.0729  0.1612  0.1587
 1211W        W 5275   6.462   8.683   8.846 -0.2838 -0.2309 -0.6137
 1212W        W 5276   0.963   5.303   0.655  0.1806 -0.2033  0.0427
 1213W        W 5277   4.424   4.058  10.937  0.0186  0.1953 -0.1256
 1214W        W 5278   4.003   1.611   8.478  0.1506  0.0496 -0.1470
 1215W        W 5279  10.515   5.685   3.191  0.1036  0.1975  0.0473
 1216W        W 5280   8.768  10.111   0.651  0.0099  0.0668  0.0010
 1217W        W 5281   0.047   8.570  11.519  0.1066 -0.2894  0.2401
 1218W        W 5282   7.938   0.830   9.906 -0.4117 -0.1437  0.2109
 1219W        W 5283   1.968   2.272  10.709  0.0994  0.3624  0.0106
 1220W        W 5284   8.989   7.188   9.257 -0.1433 -0.1774 -0.1594
 1221W        W 5285   8.784   1.514   0.047  0.0909 -0.1839  0.2520
 1222W        W 5286   8.228   6.454   3.469 -0.1318  0.0987  0.2495
 1223W        W 5287   4.910   2.185   1.260  0.0948 -0.0451 -0.1839
 1224W        W 5288   8.927   7.774  11.452 -0.1785 -0.1297 -0.2059
 1225W        W 5289   1.648   7.018  10.486 -0.1078  0.1697 -0.1253
 1226W        W 5290   2.533   5.053   9.689  0.0715  0.4799 -0.1480
 1227W        W 5291   8.104   9.360   1.330  0.0437  0.1373  0.1936
 1228W        W 5292  10.119   5.950   3.060  0.0425 -0.1981 -0.1114
 1229W        W 5293   4.507   1.599   8.775 -0.1112 -0.3799  0.1180
 1230W        W 5294   3.059   8.401   0.519  0.0143  0.0879  0.3803
 1231W        W 5295   3.327   6.359  10.293  0.0500 -0.0096  0.0160
 1232W        W 5296   7.432  10.567  11.283 -0.1767 -0.2169  0.1065
 1233W        W 5297   2.598   3.624   8.708 -0.1589  0.3490 -0.0629
 1234W        W 5298   5.027   4.606  11.174  0.0060 -0.4552  0.1708
 1235W        W 5299   2.220   5.067   8.833  0.0554  0.1474 -0.4166
 1236W        W 5300   8.266   0.493   0.122  0.0596  0.0502 -0.0057
 1237W        W 5301   8.879   6.531   2.619  0.2762  0.1606  0.1568
 1238W        W 5302   6.712   0.461   0.393 -0.1598 -0.1673 -0.1318
 1239W        W 5303   2.679   8.889   3.419 -0.1060 -0.2890 -0.0832
 1240W        W 5304  10.446   8.505   1.316 -0.1038 -0.1516 -0.0631
 1241W        W 5305   2.030   8.525   0.612 -0.1988 -0.0944 -0.0229
 1242W        W 5306   9.183   3.502   2.534 -0.1076 -0.2659 -0.1134
 1243W        W 5307   6.461   7.653   8.490 -0.0808 -0.2451 -0.2151
 1244W        W 5308   7.998   2.114   2.741  0.2128  0.1608  0.1507
 1245W        W 5309  10.142   1.049   0.724  0.1272 -0.1411  0.1049
 1246W        W 5310   8.839   1.411   2.513 -0.1176 -0.0588 -0.1302
 1247W        W 5311   6.652   9.616   0.313 -0.1369 -0.2348 -0.2377
 1248W        W 5312   7.926   7.792   8.776  0.0888 -0.0708 -0.2667
 1249W        W 5313   9.708   3.272   3.816 -0.2234 -0.2002 -0.0568
 1250W        W 5314   5.330   6.809   9.866 -0.0397  0.1344  0.0426
 1251W        W 5315   6.793   3.618   0.750 -0.0775  0.1375  0.1638
 1252W        W 5316   6.608   5.072  10.364 -0.4252 -0.0944 -0.0380
 1253W        W 5317   5.579   3.002  10.535 -0.2723 -0.3569  0.0596
 1254W        W 5318   8.226   5.851   9.981  0.0785 -0.1992 -0.2656
 1255W        W 5319   6.050   0.487   9.461 -0.0405  0.0848 -0.1140
 1256W        W 5320   6.157   5.396   2.149  0.1007 -0.2487  0.1100
 1257W        W 5321   3.078   5.884  11.597  0.0421 -0.1252  0.1585
 1258W        W 5322   5.326   4.479   1.550 -0.3630  0.0068 -0.0340
 1259W        W 5323   0.714   9.650   7.390 -0.1735  0.0027 -0.0984
 1260W        W 5324   7.227   3.249  10.492  0.3213 -0.0627 -0.1692
 1261W        W 5325   1.842   4.279   9.217 -0.0902 -0.1450  0.0962
 1262W        W 5326   3.605   6.968   8.728 -0.1176  0.3502  0.2164
 1263W        W 5327   7.232   6.030   2.978 -0.0688 -0.1318  0.1020
 1264W        W 5328  10.392   7.245  10.397  0.1922 -0.0772 -0.0538
 1265W        W 5329   9.339   3.786   1.175  0.0491 -0.0559  0.3021
 1266W        W 5330  10.478   9.646  11.350 -0.1204 -0.1937  0.0038
 1267W        W 5331   2.627   1.650   9.298 -0.0805 -0.0727  0.1831
 1268W        W 5332  10.620  10.322  10.482  0.0566 -0.0305  0.1439
 1269W        W 5333   7.858   5.639   0.660  0.0614 -0.0450 -0.0291
 1270W        W 5334   3.906   8.843  10.326 -0.1719  0.2312 -0.2157
 1271W        W 5335   6.224   4.487  10.306  0.0182  0.0621 -0.0169
 1272W        W 5336   9.198   2.649   2.318  0.0638 -0.1226  0.0684
 1273W        W 5337   3.736   0.505   2.998 -0.2685 -0.0332 -0.0453
 1274W        W 5338   2.623   2.071   9.631  0.1432  0.3497  0.0518
 1275W        W 5339   0.291   1.278   3.448  0.0618  0.0658  0.0297
 1276W        W 5340   6.947   1.567   1.730  0.0273 -0.0203 -0.4087
 1277W        W 5341   2.739   8.836   0.576  0.1250  0.1536  0.1099
 1278W        W 5342   1.134   2.434   9.926  0.0316 -0.0951  0.1359
 1279W        W 5343   2.778   9.635  10.022  0.2362 -0.2093 -0.2038
 1280W        W 5344   3.109   1.244   2.133 -0.0709 -0.1049  0.3231
 1281W        W 5345   3.371   6.483   0.720 -0.2553  0.3470  0.2927
 1282W        W 5346   6.613   4.423   8.314  0.1654 -0.0467  0.4178
 1283W        W 5347  10.092   0.478  10.744 -0.1221 -0.0770  0.1686
 1284W        W 5348   0.718   4.044   8.407 -0.0701  0.0981 -0.2484
 1285W        W 5349   6.780   5.539   0.636  0.0317 -0.2609 -0.1132
 1286W        W 5350  10.291   8.339   8.547 -0.1388 -0.0456 -0.1244
 1287W        W 5351   8.509   2.243   2.858 -0.4620  0.1316 -0.1760
 1288W        W 5352   5.665   2.819  11.435 -0.0539 -0.0173  0.3284
 1289W        W 5353   1.039   7.833   1.393  0.3941  0.2300 -0.2962
 1290W        W 5354   0.417   7.323   7.493 -0.0656  0.2386  0.1959
 1291W        W 5355   6.910   1.716   9.297 -0.1595 -0.3714 -0.2272
 1292W        W 5356   9.610   7.328   2.716 -0.1810 -0.0058  0.1804
 1293W        W 5357   1.587   7.595   3.429  0.0521 -0.0753 -0.0604
 1294W        W 5358   5.863   9.430  10.890  0.3527  0.0328  0.1337
 1295W        W 5359   6.712   5.632   2.058 -0.0880  0.0077 -0.1535
 1296W        W 5360   3.479   0.840   0.883 -0.1611  0.4731  0.2505
 1297W        W 5361   0.736   7.223  11.305  0.1993  0.0669 -0.0340
 1298W        W 5362  10.058   1.553  11.102  0.0800  0.4350  0.0074
 1299W        W 5363   2.671   8.368  10.605  0.1113 -0.3037  0.0737
 1300W        W 5364   5.721   5.941  10.869  0.1332 -0.3957 -0.3363
 1301W        W 5365   7.843   7.684  10.455 -0.4049 -0.0229 -0.2301
 1302W        W 5366   6.102   8.869   9.820  0.0700 -0.0145 -0.2619
 1303W        W 5367   4.871   7.773  11.403 -0.1356 -0.1913 -0.3597
 1304W        W 5368   9.599   2.192   0.078 -0.2429 -0.0142 -0.0149
 1305W        W 5369   0.414   6.494   1.230 -0.3718 -0.1525 -0.0760
 1306W        W 5370   8.615  10.063   2.908 -0.2616  0.2505  0.0408
 1307W        W 5371   1.779   1.672   9.306  0.2443 -0.1750  0.0732
 1308W        W 5372   2.201   1.397   9.034  0.1145 -0.0957  0.1133
 1309W        W 5373   9.575   0.223  11.497  0.1179  0.0601 -0.1528
 1310W        W 5374   7.193   6.478   2.340 -0.0839 -0.0062  0.2338
 1311W        W 5375   2.783   1.874   3.028  0.0463 -0.1210 -0.2224
 1312W        W 5376   5.822   5.762   8.844 -0.2108  0.3456  0.2343
 1313W        W 5377   7.287   6.098   8.393 -0.2210 -0.0289  0.1805
 1314W        W 5378   8.251   4.200   4.093 -0.2014  0.1278 -0.1829
 1315W        W 5379   9.662   9.828  10.592 -0.0420  0.2484 -0.1813
 1316W        W 5380   2.605   9.901   9.279 -0.1274 -0.2636  0.1618
 1317W        W 5381   0.624   1.201   3.805 -0.0148 -0.1255 -0.1282
 1318W        W 5382   5.586   8.881   9.738  0.0947  0.4790  0.2263
 1319W        W 5383   0.215   7.190  10.101 -0.0900  0.4811  0.2430
 1320W        W 5384   6.095   0.384  10.853  0.0813 -0.2601 -0.2513
 1321W        W 5385  10.351   3.547   8.757  0.1229  0.1398 -0.0699
 1322W        W 5386   1.275   1.289   1.813  0.0120  0.2198 -0.0889
 1323W        W 5387   8.419   8.644   3.142  0.3048 -0.1300 -0.0627
 1324W        W 5388   9.527   4.550  11.535 -0.0084 -0.1250 -0.0313
 1325W        W 5389   1.174   8.365  10.885 -0.1637 -0.0715  0.0724
 1326W        W 5390   7.449   8.739   0.768  0.1414  0.1246  0.0917
 1327W        W 5391  10.097   2.254   2.332 -0.0965  0.0581  0.1063
 1328W        W 5392   1.906   0.725   2.917 -0.1311 -0.1388 -0.3770
 1329W        W 5393   1.691   8.625   9.844  0.0948  0.0322  0.1886
 1330W        W 5394  10.025   8.998   2.381 -0.1856 -0.1640 -0.1274
 1331W        W 5395   8.053   8.974   0.216  0.0134 -0.2234  0.0899
 1332W        W 5396  10.316   5.207   3.075 -0.1033 -0.5066  0.0672
 1333W        W 5397   2.055   4.610   0.829  0.0621  0.5069  0.3980
 1334W        W 5398   7.754   3.016   1.958  0.0483  0.0812  0.0536
 1335W        W 5399   0.141   9.210   1.686  0.1915  0.0989  0.3041
 1336W        W 5400   8.988   2.040   1.736  0.0476  0.2730  0.0030
 1337W        W 5401   8.962   9.483   9.753  0.1007 -0.1354  0.3136
 1338W        W 5402   6.720   6.111   2.998 -0.3059 -0.1144 -0.0244
 1339W        W 5403   6.848   6.118   1.973  0.0478  0.3215  0.0355
 1340W        W 5404   2.088   1.694   4.274 -0.0002 -0.1366  0.1296
 1341W        W 5405   1.531   0.148  10.654  0.0010  0.1733  0.0074
 1342W        W 5406   2.027   6.973   8.313 -0.1102 -0.1872 -0.0490
 1343W        W 5407   2.292   7.902   8.591  0.1441 -0.0922  0.0729
 1344W        W 5408  10.261   3.152   9.406  0.3587 -0.1411 -0.3918
 1345W        W 5409   8.500   5.254   9.033  0.2719 -0.1642 -0.5289
 1346W        W 5410   2.133   4.200   3.495  0.4239  0.0842 -0.0489
 1347W        W 5411   2.516   6.439   9.328 -0.1173  0.0052  0.1245
 1348W        W 5412   6.793   0.186  11.628  0.2894 -0.0304 -0.0615
 1349W        W 5413   1.841   2.523  11.278  0.1770  0.1672  0.1062
 1350W        W 5414   1.936   5.846  10.116  0.0019 -0.0954 -0.2338
 1351W        W 5415   1.413   4.306   2.244  0.3208 -0.4099 -0.0201
 1352W        W 5416   0.141   3.290  10.770 -0.1124 -0.4255 -0.0719
 1353W        W 5417   5.103   2.276   1.721  0.1967 -0.1228 -0.0316
 1354W        W 5418   2.447   7.756   7.894 -0.2710  0.1266  0.1910
 1355W        W 5419   6.933   0.114   8.230  0.1825 -0.0281 -0.1361
 1356W        W 5420   8.394   7.604   1.427  0.1184 -0.3576  0.1858
 1357W        W 5421   2.103   4.887   2.468 -0.3002 -0.0206  0.2224
 1358W        W 5422   0.571   7.503   9.545 -0.0579 -0.0695  0.1114
 1359W        W 5423   2.899   6.593   2.395  0.0492  0.1224 -0.0214
 1360W        W 5424   6.153   2.763  11.252  0.2298 -0.0939  0.1150
 1361W        W 5425   1.153   7.245   3.246  0.0304  0.1492  0.0470
 1362W        W 5426   9.871  10.257  10.930 -0.2487 -0.1474  0.1987
 1363W        W 5427   8.470   7.292   9.244 -0.1449 -0.0497  0.0152
 1364W        W 5428   5.182   2.058  11.499 -0.0249  0.0316  0.2099
 1365W        W 5429   4.049   0.211   9.813  0.1739 -0.3666  0.0005
 1366W        W 5430   7.660   2.927   0.514  0.1183  0.0363 -0.0178
 1367W        W 5431   8.852   4.299   9.695  0.0439 -0.3530 -0.0282
 1368W        W 5432   5.430  10.275   9.664 -0.0229  0.2291  0.2968
 1369W        W 5433   3.547   4.177  10.102  0.0221  0.1004  0.2069
 1370W        W 5434   8.503   3.886   8.218  0.1993  0.1829  0.1423
 1371W        W 5435   7.003   9.077   1.163  0.0723  0.1381 -0.1325
 1372W        W 5436   8.483   1.935   9.583 -0.1134  0.1975  0.3055
 1373W        W 5437  10.580   0.989  11.549 -0.2349 -0.2334 -0.0613
 1374W        W 5438  10.034   1.862   4.013  0.1842  0.0774  0.3348
 1375W        W 5439   9.541   7.134   1.916 -0.2367  0.0256  0.3103
 1376W        W 5440   9.914   0.531   8.079 -0.0474  0.3543  0.2449
 1377W        W 5441   9.887   8.722   8.873 -0.0517 -0.0675 -0.0364
 1378W        W 5442   6.885   8.793   1.644 -0.0482 -0.0307 -0.2965
 1379W        W 5443   7.827   5.377   2.561 -0.2454  0.2226 -0.4399
 1380W        W 5444   0.104   6.188   0.974 -0.1773 -0.0402  0.0761
 1381W        W 5445   8.875   1.830  10.905 -0.0006 -0.2076 -0.0984
 1382W        W 5446   5.496   0.190   1.197 -0.1925  0.3695 -0.0880
 1383W        W 5447   1.490   3.112   0.002  0.1806 -0.0774 -0.0697
 1384W        W 5448   3.043   8.389   8.241 -0.0386 -0.1512 -0.2512
 1385W        W 5449   1.015   9.350   2.904 -0.2288  0.0365 -0.0830
 1386W        W 5450   9.081   5.925   8.995  0.0156 -0.0128  0.0414
 1387W        W 5451   2.916   9.420   8.217 -0.2275 -0.0269 -0.1141
 1388W        W 5452   1.075   2.957   1.209  0.0173 -0.0008 -0.1595
 1389W        W 5453   3.958   5.399   8.914 -0.1072  0.2392  0.2389
 1390W        W 5454   5.812   4.606   9.957 -0.0067 -0.0568 -0.2747
 1391W        W 5455   0.991   0.796   9.076 -0.2415  0.0630  0.2634
 1392W        W 5456   8.878   4.565  10.840  0.0147 -0.1556  0.0590
 1393W        W 5457   2.978   7.203   8.579  0.0540 -0.0767  0.1162
 1394W        W 5458   2.152   4.229  10.211 -0.1229 -0.3024  0.0157
 1395W        W 5459   2.392   7.480   8.964 -0.0010 -0.4752  0.4069
 1396W        W 5460   5.353   0.280  10.539 -0.1478 -0.1213 -0.0372
 1397W        W 5461   8.919   6.457   1.794  0.1413  0.2280 -0.0764
 1398W        W 5462   9.737   3.543   2.597 -0.1572 -0.3623  0.0537
 1399W        W 5463   6.208   3.083   2.817  0.3213  0.0965  0.3833
 1400W        W 5464   5.701   0.777   0.086 -0.0234  0.2486 -0.0040
 1401W        W 5465   4.787   8.177   9.795 -0.1549  0.0068 -0.1375
 1402W        W 5466   5.208   5.141   9.010  0.1043  0.1459  0.1349
 1403W        W 5467   9.455   9.039   0.224 -0.3544  0.1141 -0.1655
 1404W        W 5468   5.498   8.943  10.682 -0.0337 -0.2321  0.1651
 1405W        W 5469   9.032   1.088   0.500 -0.0443 -0.1773  0.1147
 1406W        W 5470   6.193   5.158   0.276 -0.1151  0.1427  0.0996
 1407W        W 5471   9.004   0.799   8.353 -0.0568 -0.1313 -0.1888
 1408W        W 5472   0.268   0.352   8.578 -0.1521  0.1187  0.1158
 1409W        W 5473   2.373   4.747   2.010 -0.1046 -0.6181 -0.2955
 1410W        W 5474   3.465   5.816   9.998  0.2045  0.2390  0.0404
 1411W        W 5475   3.278   2.044   3.053 -0.1280 -0.3409  0.0018
 1412W        W 5476   8.239   5.939   1.609  0.0537  0.0635  0.0627
 1413W        W 5477   8.298  10.562   8.690  0.1716 -0.0415 -0.0069
 1414W        W 5478  10.483   6.655   3.105 -0.4650 -0.0755 -0.2795
 1415W        W 5479   4.507   8.908   0.796  0.4207  0.1318 -0.3498
 1416W        W 5480   4.582   7.344   1.569  0.1484  0.0308  0.0288
 1417W        W 5481   9.652   9.141   1.153  0.0145  0.0147  0.1398
 1418W        W 5482   6.070   0.708   2.174 -0.0610 -0.1368 -0.2432
 1419W        W 5483   6.162   9.593   1.195 -0.1264  0.3357  0.0952
 1420W        W 5484   8.622   0.869   9.218 -0.1532  0.0741 -0.1984
 1421W        W 5485   6.133   7.808   2.652  0.0841  0.0654  0.2749
 1422W        W 5486   5.124   7.340  11.442 -0.2938  0.1222  0.0444
 1423W        W 5487   5.206   6.323   8.332  0.0531  0.2063  0.0148
 1424W        W 5488   2.976   3.795   0.251 -0.0789  0.0187 -0.1766
 1425W        W 5489   6.635   2.649   2.142  0.1820 -0.0281 -0.1005
 1426W        W 5490   2.310   7.965   2.822  0.0669 -0.0266 -0.0436
 1427W        W 5491   7.133   8.180   0.222 -0.0676  0.1455  0.1640
 1428W        W 5492   5.277   8.299   8.889 -0.0859  0.0102  0.1115
 1429W        W 5493   4.826   3.083  10.061  0.0360 -0.0871 -0.0253
 1430W        W 5494   8.662   9.892  11.432  0.0017 -0.1995  0.0938
 1431W        W 5495   7.118   0.790   2.068  0.1328 -0.3135 -0.1053
 1432W        W 5496   9.164   4.052   2.020 -0.0457  0.2910 -0.2879
 1433W        W 5497  10.089   4.550   0.943  0.3447  0.1974  0.2548
 1434W        W 5498   1.765   2.431   1.674 -0.1279  0.0472  0.0884
 1435W        W 5499   7.923   9.442  11.183  0.0044  0.0950 -0.1448
 1436W        W 5500   2.977   0.428  10.499  0.2472 -0.1386 -0.0948
 1437W        W 5501   1.815   5.341  10.224 -0.1912 -0.0395  0.3036
 1438W        W 5502   3.428   4.288   1.691  0.2076 -0.0419 -0.1548
 1439W        W 5503   4.846   3.413   3.281 -0.2140 -0.1877 -0.0690
 1440W        W 5504   2.148   3.230   0.334 -0.0472  0.3184 -0.0375
 1441W        W 5505   1.856   0.514  10.481  0.4100 -0.0983 -0.0224
 1442W        W 5506   5.305   8.673   9.371  0.0205 -0.0350  0.2140
 1443W        W 5507   9.683   9.033  10.015  0.0065 -0.0917 -0.0112
 1444W        W 5508   1.380   9.644   8.823  0.1641  0.2609 -0.0941
 1445W        W 5509   4.290   2.492   9.031  0.3448 -0.5679 -0.0142
 1446W        W 5510   8.740   1.129   8.736  0.2325 -0.1979  0.2560
 1447W        W 5511   4.536  10.371  10.530  0.2701  0.2402  0.0399
 1448W        W 5512   3.668   8.888   0.083  0.5228  0.0831  0.0122
 1449W        W 5513   3.565   0.786   1.802 -0.0236  0.1442  0.2765
 1450W        W 5514   6.680   2.112   8.728 -0.0604  0.0230 -0.0377
 1451W        W 5515   9.021   7.008  10.968 -0.1893 -0.4060 -0.1198
 1452W        W 5516   5.548   9.590   9.147 -0.0661 -0.2420 -0.2688
 1453W        W 5517   7.258  10.069   7.974  0.0499 -0.2435  0.2125
 1454W        W 5518   5.062   2.934  10.530  0.0040 -0.0442 -0.2651
 1455W        W 5519   8.215   1.295   3.287 -0.3221 -0.3673 -0.2094
 1456W        W 5520   3.997   0.568  11.492  0.0809 -0.2559 -0.1312
 1457W        W 5521  10.148   7.064   3.023  0.0526 -0.1736 -0.1501
 1458W        W 5522   0.807  10.161  11.050 -0.1991 -0.1258 -0.0461
 1459W        W 5523   6.052   9.745   9.035 -0.0095 -0.0677 -0.0363
 1460W        W 5524   4.559   2.957   3.354 -0.0841 -0.1139 -0.3670
 1461W        W 5525   7.265  10.034  11.334 -0.3279  0.1662 -0.0834
 1462W        W 5526   7.922   4.243   9.439 -0.3730 -0.1873  0.0213
 1463W        W 5527   2.974   9.351   2.317 -0.1388  0.1717 -0.1089
 1464W        W 5528   7.078   3.560   8.156 -0.1808 -0.2025 -0.0856
 1465W        W 5529   9.349   1.730  10.758 -0.2599 -0.4379 -0.1026
 1466W        W 5530   1.880   5.405   1.499  0.1086  0.2006  0.1243
 1467W        W 5531   9.452   0.240   0.346  0.0359  0.1026 -0.0078
 1468W        W 5532   0.143   1.595  11.266 -0.1090 -0.1929  0.0911
 1469W        W 5533   6.749   6.205   2.524 -0.1428  0.0751 -0.1462
 1470W        W 5534   1.534   4.893   4.023 -0.3634  0.0026 -0.2674
 1471W        W 5535   7.193   1.699  11.566 -0.1351 -0.1505 -0.0261
 1472W        W 5536   2.611   5.451   8.902 -0.1432  0.0823 -0.2128
 1473W        W 5537   2.152   5.184   7.939  0.2315  0.0322  0.1898
 1474W        W 5538  10.408   5.724   0.419 -0.1377  0.0622  0.0696
 1475W        W 5539   3.260   0.003   9.232 -0.2249 -0.1471 -0.2755
 1476W        W 5540   9.590   2.442  11.260  0.0394 -0.1392 -0.2136
 1477W        W 5541   2.182  10.622   4.076 -0.1423  0.0883 -0.1266
 1478W        W 5542   3.693   2.024   2.209 -0.1126  0.0959  0.0434
 1479W        W 5543  10.407   2.663  10.314 -0.0244  0.3887  0.2465
 1480W        W 5544   6.239   8.337  11.549  0.3777  0.0404  0.0479
 1481W        W 5545   2.371   2.931  10.159 -0.2988 -0.0908  0.2772
 1482W        W 5546   6.470   1.012  11.252 -0.2222  0.0823  0.2039
 1483W        W 5547   8.077   8.910   2.305  0.0747 -0.0408  0.1760
 1484W        W 5548   4.715   8.708  11.399  0.0498  0.0199 -0.1585
 1485W        W 5549   7.070   5.328   9.823  0.4107  0.2789  0.0356
 1486W        W 5550   7.925   6.318   1.785 -0.0023 -0.0543  0.1596
 1487W        W 5551   0.077   0.719   9.586  0.2977 -0.2065  0.0011
 1488W        W 5552   5.964   8.860  10.765  0.2820  0.1524  0.1404
 1489W        W 5553   6.865   0.749  11.176 -0.0737 -0.1516  0.0205
 1490W        W 5554   5.196   0.531   3.492  0.0136  0.1796  0.1685
 1491W        W 5555   5.156   1.271   0.657  0.5063 -0.2076 -0.1114
 1492W        W 5556   2.018   1.077   0.556  0.0949  0.1416  0.2079
 1493W        W 5557   3.008   6.042   1.712  0.0651 -0.1364 -0.0626
 1494W        W 5558   1.348   4.527  11.469 -0.0099  0.3293  0.2158
 1495W        W 5559   3.383   6.153   0.349 -0.0414  0.0391 -0.2454
 1496W        W 5560   0.521   9.407   9.512  0.0695 -0.1884  0.0942
 1497W        W 5561   5.895   3.063   9.473  0.0097 -0.2126  0.0912
 1498W        W 5562   3.960   8.650   8.128 -0.2581 -0.2591 -0.1464
 1499W        W 5563   9.023   9.640   1.542 -0.1179  0.0275  0.1950
 1500W        W 5564   5.850   3.436   0.921  0.3268 -0.0831 -0.0652
 1501W        W 5565   2.082   6.734  10.511  0.3975 -0.1530  0.1292
 1502W        W 5566   8.223   7.918   2.788 -0.2013 -0.0054  0.2008
 1503W        W 5567   1.709   5.631  10.649 -0.0560  0.2041  0.1931
 1504W        W 5568   7.992   1.111   0.991  0.2020 -0.1708 -0.2082
 1505W        W 5569   0.188   9.842   1.506 -0.0004 -0.0020  0.1385
 1506W        W 5570   9.401   9.607   3.379 -0.0496  0.0834 -0.2216
 1507W        W 5571   5.026   5.035   0.304 -0.2378  0.0713 -0.3423
 1508W        W 5572   2.233   6.193  10.620  0.3093 -0.1478  0.1557
 1509W        W 5573   3.696  10.384   2.658  0.1448  0.0296 -0.1019
 1510W        W 5574   4.383   7.704   1.203  0.1079 -0.3712  0.0062
 1511W        W 5575   2.257   0.649  10.780  0.0279  0.1481  0.1158
 1512W        W 5576   2.912   0.621   1.502  0.0543  0.3811 -0.2054
 1513W        W 5577  10.324   7.290  11.473  0.1326 -0.0930 -0.0067
 1514W        W 5578   1.280   9.834   2.381  0.5187 -0.1280  0.2504
 1515W        W 5579   3.058   8.177   2.363 -0.1534 -0.2350  0.3225
 1516W        W 5580   3.344   1.997   9.890 -0.0803 -0.0212  0.3079
 1517W        W 5581   3.741   3.038   8.051  0.1378  0.0298 -0.1164
 1518W        W 5582   5.998   5.469   7.837  0.2473 -0.0138 -0.0446
 1519W        W 5583   2.085   9.125  10.796 -0.2483  0.2321  0.2850
 1520W        W 5584   2.411   6.668   2.236  0.1354 -0.2368 -0.1507
 1521W        W 5585   6.071   7.076   3.137 -0.1543  0.0113  0.3377
 1522W        W 5586   0.645  10.193   1.172  0.0018 -0.0091  0.2222
 1523W        W 5587   8.034   7.792  11.257  0.0485  0.2780  0.0063
 1524W        W 5588   0.506   9.207   1.185  0.1726 -0.0561  0.0977
 1525W        W 5589   7.638   4.663  10.954 -0.0470 -0.1313 -0.2513
 1526W        W 5590   7.528   3.482   1.240  0.3525  0.1837 -0.0358
 1527W        W 5591   7.880   4.649   9.731  0.0052 -0.3115 -0.1750
 1528W        W 5592   9.051   3.130   1.529 -0.0856 -0.0970 -0.3237
 1529W        W 5593   3.134   2.656   0.442  0.0165  0.2462 -0.1768
 1530W        W 5594   7.987   0.266   3.745 -0.0512  0.0432  0.0412
 1531W        W 5595   7.872   0.221   1.528 -0.2311  0.0523  0.3744
 1532W        W 5596   2.606   3.849   1.680 -0.2546 -0.0427  0.3898
 1533W        W 5597   4.575   4.743   3.507  0.2528  0.2144 -0.3790
 1534W        W 5598   5.969   3.444   8.693  0.0216 -0.1871  0.1336
 1535W        W 5599   9.747   3.409   7.748  0.0108  0.0027 -0.0020
 1536W        W 5600   1.993  10.006   0.338  0.1579  0.1472  0.2025
 1537W        W 5601   4.508   5.920   0.481  0.4294 -0.1875 -0.0099
 1538W        W 5602   0.435   2.303   8.113 -0.2990 -0.0601  0.0768
 1539W        W 5603   5.543   9.832   0.411 -0.1692  0.2071  0.0003
 1540W        W 5604   6.467   6.198   4.241 -0.2036  0.1463 -0.3250
 1541W        W 5605   4.809   4.193   0.006  0.1101  0.0230 -0.1447
 1542W        W 5606   0.102   7.194   9.481 -0.1741 -0.0506  0.1225
 1543W        W 5607   3.546   0.975  11.524  0.2482 -0.0105 -0.1482
 1544W        W 5608   8.200  10.546   0.061  0.0377  0.0667  0.1565
 1545W        W 5609   1.396   5.877   0.856 -0.1318 -0.1341  0.3513
 1546W        W 5610  10.156   6.847   9.806 -0.1863 -0.1298 -0.0878
 1547W        W 5611   2.012   3.554   4.056  0.2521  0.1240 -0.0964
 1548W        W 5612   9.913   6.271   8.481 -0.4551 -0.1397 -0.0076
 1549W        W 5613   7.892   4.609   1.345  0.2027  0.2215  0.2472
 1550W        W 5614   8.571  10.447   9.937 -0.4175  0.1133 -0.0788
 1551W        W 5615   2.851   4.000   9.477 -0.0197 -0.0205 -0.0198
 1552W        W 5616   0.721   1.506   7.941  0.3232  0.1803 -0.1907
 1553W        W 5617   9.811   4.763   9.140 -0.0639  0.3062 -0.0146
 1554W        W 5618   5.477   9.655   8.178  0.4314  0.1384 -0.0975
 1555W        W 5619   6.881   7.876  10.312  0.3033 -0.0003  0.1200
 1556W        W 5620   8.616   6.821   1.204  0.0276  0.1871 -0.3310
 1557W        W 5621   3.534   5.754   9.042  0.2622  0.0817  0.1148
 1558W        W 5622   8.608   1.363   0.479  0.2772  0.2193 -0.1499
 1559W        W 5623   5.908   8.241   7.320 -0.2596 -0.3564 -0.0321
 1560W        W 5624   6.251   5.851   1.047  0.0080 -0.0179 -0.0004
 1561W        W 5625   4.681   6.418   8.390 -0.0342 -0.1025  0.1222
 1562W        W 5626   4.855   4.453   0.470  0.1596  0.1911 -0.2354
 1563W        W 5627   2.150   2.537   1.927 -0.2012  0.0635 -0.3706
 1564W        W 5628   7.331   1.517   9.186 -0.0239  0.0836 -0.0471
 1565W        W 5629   4.264   5.398  10.125  0.1964  0.0281  0.0017
 1566W        W 5630   0.187   7.568  10.509 -0.3347  0.1217  0.0020
 1567W        W 5631   6.894   4.699   1.226  0.0968  0.1200 -0.1599
 1568W        W 5632   7.931   0.206   0.400 -0.2717 -0.4039  0.2208
 1569W        W 5633   3.349   3.898   7.908  0.0959 -0.0856 -0.0949
 1570W        W 5634   0.381  10.268   1.743 -0.1597 -0.3331  0.0040
 1571W        W 5635   0.023  10.043  11.544  0.3809 -0.2434 -0.0886
 1572W        W 5636   1.705   7.364   2.785 -0.3998  0.0509 -0.3893
 1573W        W 5637  10.423   7.830   2.842  0.0685  0.1582 -0.1986
 1574W        W 5638   9.425   3.268   0.275  0.2477  0.2057  0.0820
 1575W        W 5639   0.243   5.676   9.847  0.0749 -0.0784  0.2929
 1576W        W 5640   5.822   2.553   1.978  0.0829 -0.0932 -0.2104
 1577W        W 5641   3.076   9.971  11.014  0.0084  0.3678 -0.0027
 1578W        W 5642   5.511   0.276   9.616  0.1075  0.1063 -0.0768
 1579W        W 5643   3.236   2.275   0.043  0.0092  0.2400 -0.0026
 1580W        W 5644   2.548   5.564   3.599 -0.2167 -0.0475  0.0245
 1581W        W 5645   7.559   6.479   9.666 -0.2414 -0.0391 -0.0698
 1582W        W 5646   1.184   5.839  11.480 -0.2066 -0.0463 -0.4870
 1583W        W 5647   9.969   8.436   9.364  0.0688 -0.1442  0.1244
 1584W        W 5648   6.242   7.667   9.751 -0.0574 -0.0329  0.3103
 1585W        W 5649   0.147   1.233  10.860  0.1595 -0.0531 -0.0183
 1586W        W 5650   9.128   8.422  11.433  0.1795 -0.1935  0.0213
 1587W        W 5651   0.472   6.756  10.204  0.0524  0.1071 -0.0170
 1588W        W 5652   1.004  10.288   9.509  0.3559 -0.1153  0.0737
 1589W        W 5653   5.203  10.531   9.320 -0.0143 -0.1214 -0.0463
 1590W        W 5654   8.451   6.258  11.201  0.3905  0.1734  0.0165
 1591W        W 5655   0.004   4.371   0.751 -0.2721 -0.0395 -0.0240
 1592W        W 5656   0.987   8.989   8.026 -0.1795 -0.0308 -0.1761
 1593W        W 5657   5.684   0.073   0.762  0.0069 -0.0123  0.2583
 1594W        W 5658   1.344   0.375   8.371  0.0695  0.2165  0.1403
 1595W        W 5659   0.454   4.589   8.585 -0.3087  0.1844 -0.0697
 1596W        W 5660   1.505   9.192   9.065  0.1220  0.1455  0.0681
 1597W        W 5661  10.456   1.516   9.520  0.0258 -0.1065  0.0843
 1598W        W 5662   3.724   6.657   8.266 -0.0629 -0.0910  0.2430
 1599W        W 5663   4.086   7.971   2.234 -0.0382 -0.0293 -0.1551
 1600W        W 5664   0.111   7.068   3.226  0.0660 -0.2446 -0.1129
 1601W        W 5665   2.826   3.697   0.694  0.1202 -0.2081 -0.3282
 1602W        W 5666   0.750   5.525   3.067  0.2385 -0.1620 -0.0343
 1603W        W 5667   5.574   3.672   2.138 -0.3562  0.1512  0.0614
 1604W        W 5668   1.670   1.571   8.720 -0.1100  0.0386  0.1866
 1605W        W 5669   0.682   5.944   9.782 -0.3903 -0.1592 -0.1125
 1606W        W 5670   1.098   8.084   9.533 -0.2970  0.1388  0.1350
 1607W        W 5671   3.068   7.311   2.807  0.0825  0.5549  0.3159
 1608W        W 5672   7.043   1.779   8.824  0.2025  0.0228 -0.1796
 1609W        W 5673   2.251   6.660   1.178 -0.2759  0.1844  0.1412
 1610W        W 5674   8.010   3.941   8.131 -0.1126 -0.0650 -0.0427
 1611W        W 5675   3.306   9.320   4.112  0.1061  0.1914  0.2411
 1612W        W 5676   2.592   4.168   9.917 -0.3214 -0.2461 -0.2049
 1613W        W 5677   1.811   2.047   7.849 -0.1019  0.1307  0.2507
 1614W        W 5678   8.861   4.972  11.264  0.0766 -0.1541 -0.1541
 1615W        W 5679   0.246   9.747   8.043  0.3153  0.2595  0.3495
 1616W        W 5680   3.302   6.420   9.216 -0.2297 -0.0547  0.1124
 1617W        W 5681   5.446   7.028   2.010 -0.1867  0.1524  0.3127
 1618W        W 5682   1.124   3.103   0.437 -0.0331  0.3146  0.1175
 1619W        W 5683   1.828   4.722   8.821  0.2215 -0.1916 -0.0605
 1620W        W 5684   3.228   6.777   1.791 -0.2218 -0.3470  0.0678
 1621W        W 5685   6.309   8.624   1.704 -0.1579  0.1683  0.0972
 1622W        W 5686   1.485   1.245   0.652  0.0329 -0.3146  0.0590
 1623W        W 5687   3.680   4.502   0.604 -0.0341 -0.0508  0.2282
 1624W        W 5688   3.779   0.995  10.751 -0.4140 -0.1973  0.4081
 1625W        W 5689   6.560   2.931   0.435  0.1114 -0.1926  0.1052
 1626W        W 5690   8.244   1.604  10.911  0.0425 -0.1578  0.2606
 1627W        W 5691   4.097   9.838   3.281  0.0640  0.0403  0.3139
 1628W        W 5692   3.697  10.332   8.548 -0.1075 -0.1562 -0.3402
 1629W        W 5693   7.487   4.809   8.020 -0.0431  0.3681 -0.5574
 1630W        W 5694   0.240   2.636  11.237  0.3978 -0.1407  0.1046
 1631W        W 5695  10.314   3.041  10.575  0.1490  0.1141  0.1050
 1632W        W 5696   5.564   6.725   8.313  0.0020  0.1738 -0.1868
 1633W        W 5697   8.458   8.382  10.618 -0.4788 -0.1461 -0.1811
 1634W        W 5698   7.057   4.699   0.746 -0.0979  0.2083 -0.0741
 1635W        W 5699   1.584  10.218   3.075  0.1613  0.2035  0.0880
 1636W        W 5700   1.254   1.178   8.645  0.0040  0.1365  0.1250
 1637W        W 5701   2.478   9.176   8.173 -0.0424  0.2144 -0.1608
 1638W        W 5702   9.742   9.359   0.750 -0.0424 -0.0021  0.2737
 1639W        W 5703   7.023   3.378   2.543  0.3586  0.0708 -0.0429
 1640W        W 5704   4.281   1.931   3.042  0.4187  0.2496  0.0990
 1641W        W 5705   9.647   8.829   7.098 -0.2283  0.0843 -0.1968
 1642W        W 5706   8.664   6.683   8.230 -0.0762 -0.0461 -0.2663
 1643W        W 5707   0.406   4.762   0.038 -0.1084 -0.0548  0.0944
 1644W        W 5708  10.095   1.164   1.334  0.0069 -0.0097  0.2506
 1645W        W 5709   8.180   2.892   0.649  0.1012 -0.0569  0.3847
 1646W        W 5710   8.855   0.396   1.684 -0.1294  0.0831 -0.2644
 1647W        W 5711   5.052   7.663   2.333 -0.0021  0.0515  0.0510
 1648W        W 5712   3.969   3.580   1.560  0.3943  0.0936  0.2535
 1649W        W 5713   4.777   9.010   1.289 -0.0352 -0.1931  0.1662
 1650W        W 5714   8.422   2.587   8.458  0.0298  0.0207 -0.1351
 1651W        W 5715   7.336   7.504   4.241  0.0832 -0.1358 -0.0486
 1652W        W 5716   3.106   7.704   8.498  0.2652  0.0795 -0.0511
 1653W        W 5717   6.580   9.761   3.015  0.0043  0.0928 -0.1065
 1654W        W 5718   1.643   0.978   2.565 -0.1850  0.0710 -0.0101
 1655W        W 5719   3.416   8.043   0.560 -0.1726 -0.2070 -0.0135
 1656W        W 5720   0.789   8.537   3.296 -0.1395  0.1057 -0.1740
 1657W        W 5721   1.142   0.051   9.810 -0.0316 -0.1588 -0.1932
 1658W        W 5722   7.455   4.007   1.973  0.2591 -0.1837  0.1327
 1659W        W 5723   1.326   8.887   1.116 -0.2786  0.0334 -0.0458
 1660W        W 5724   0.441   9.098   0.381  0.1270 -0.0546 -0.1350
 1661W        W 5725   0.976   8.457   1.980  0.1147 -0.0022  0.2692
 1662W        W 5726   2.935   6.389   3.852 -0.1334 -0.2320  0.1184
 1663W        W 5727   5.174   5.039   8.492 -0.0401  0.0307 -0.2246
 1664W        W 5728   5.736   4.708  10.447 -0.1555  0.1895  0.0457
 1665W        W 5729   9.553   0.049   9.936  0.0866 -0.1024 -0.1177
 1666W        W 5730   3.433   3.221  10.426 -0.0774  0.0850 -0.0416
 1667W        W 5731   6.518  10.577  10.989 -0.1818  0.1653  0.0481
 1668W        W 5732   4.791   7.144   3.507 -0.1368 -0.0381 -0.0151
 1669W        W 5733  10.198   3.321  11.290  0.1591  0.1478  0.1698
 1670W        W 5734   5.539   6.808  10.636  0.1255  0.1665 -0.0086
 1671W        W 5735   0.504   9.069   8.863  0.0141 -0.0774 -0.0424
 1672W        W 5736   2.751  10.202   2.994  0.1565 -0.0784 -0.3032
 1673W        W 5737   2.812   2.956   8.010  0.2802  0.3367  0.5076
 1674W        W 5738   4.324   3.782   9.546  0.1991 -0.6331  0.0797
 1675W        W 5739   8.536   6.596   9.819 -0.2615  0.5823  0.0062
 1676W        W 5740   1.099   0.037   2.839 -0.0074  0.2247 -0.2498
 1677W        W 5741   5.317   0.707   4.075 -0.1460  0.0531  0.0979
 1678W        W 5742   2.229   4.214   8.117  0.0008 -0.0943 -0.0501
 1679W        W 5743   5.056   4.699   9.308  0.0522  0.2689 -0.2093
 1680W        W 5744   9.003   2.822   3.215  0.4045 -0.0641 -0.1799
 1681W        W 5745   5.243   3.397  10.709  0.0525  0.2685  0.2709
 1682W        W 5746   5.046   8.770  10.840  0.0644  0.2674 -0.2552
 1683W        W 5747   1.968   4.254   2.917  0.2205  0.6513 -0.0185
 1684W        W 5748  10.061   5.708   9.281 -0.1175 -0.2630  0.0477
 1685W        W 5749   1.463   2.861   9.887 -0.2314 -0.0386 -0.2801
 1686W        W 5750   7.601   6.742   7.770  0.0703  0.2675 -0.0783
 1687W        W 5751   4.518   4.224   1.410  0.0811 -0.1108 -0.2350
 1688W        W 5752  10.380  10.536   3.399  0.2092 -0.2054 -0.1083
 1689W        W 5753   8.018   6.702   1.466 -0.0607  0.0398  0.0081
 1690W        W 5754   8.573   5.748   7.790 -0.1768  0.3009  0.1973
 1691W        W 5755   6.948  10.602   2.653 -0.0986  0.3370 -0.2593
 1692W        W 5756   8.446   2.090   8.396  0.0321 -0.1228 -0.0494
 1693W        W 5757   8.329   6.962   3.682 -0.1235 -0.1749 -0.0848
 1694W        W 5758   4.898   4.510  10.088 -0.0230  0.1881  0.0044
 1695W        W 5759   1.562  10.232  10.050  0.0005 -0.0247  0.1183
 1696W        W 5760   7.515  10.039   7.122  0.0883 -0.2302 -0.1932
 1697W        W 5761   5.401   8.834   8.895 -0.1106  0.1572 -0.3696
 1698W        W 5762   7.323   2.221  10.224  0.2283 -0.1951 -0.3030
 1699W        W 5763   0.218   8.749   1.194 -0.1464 -0.4766  0.2033
 1700W        W 5764   1.449   1.311   9.143  0.0990 -0.0339  0.1605
 1701W        W 5765   0.942   0.562   8.002  0.3094  0.3419  0.1466
 1702W        W 5766   2.826   0.669   9.296 -0.0561 -0.0149 -0.0875
 1703W        W 5767   1.715   2.220   9.152  0.2386  0.0456  0.0100
 1704W        W 5768   9.971   1.738   9.293 -0.4874 -0.0371 -0.0062
 1705W        W 5769   9.980   4.901   1.332  0.2753  0.1025  0.0601
 1706W        W 5770   8.397   5.385   3.328  0.1612 -0.0261  0.1017
 1707W        W 5771   5.059  10.098   0.524  0.0355  0.1378 -0.1932
 1708W        W 5772   0.927   0.900   7.195 -0.0214 -0.0882 -0.4195
 1709W        W 5773   1.284   5.103   3.547  0.1398  0.0305 -0.0200
 1710W        W 5774   7.947  10.074   7.419  0.0562 -0.1176 -0.1317
 1711W        W 5775   3.418   1.099  11.063  0.2901  0.3249  0.0460
 1712W        W 5776   8.362   7.908   8.434 -0.2546 -0.2503  0.1094
 1713W        W 5777   1.124   8.764  10.522 -0.0622  0.0715  0.5103
 1714W        W 5778   7.655   8.434   8.230 -0.1589 -0.0060  0.2726
 1715W        W 5779   3.088   3.518  10.069 -0.1601  0.0509 -0.0251
 1716W        W 5780   8.306   9.706   2.209  0.2548  0.2464 -0.0610
 1717W        W 5781   4.388   8.415   1.909 -0.0373 -0.0448 -0.0543
 1718W        W 5782   0.547  10.298   9.723  0.2288 -0.0905  0.1065
 1719W        W 5783   4.120   4.021   1.687 -0.1553  0.3271  0.2616
 1720W        W 5784   0.552   0.330  10.665 -0.0610 -0.1085 -0.2295
 1721W        W 5785   5.872   6.282   0.948  0.1070 -0.1714  0.0032
 1722W        W 5786   0.062  10.236   8.375 -0.0163 -0.0706 -0.0269
 1723W        W 5787   9.973   9.753   8.996  0.1688 -0.0508  0.2166
 1724W        W 5788   3.180   1.473  10.038  0.0093  0.2357  0.2844
 1725W        W 5789   3.384   5.073   0.582 -0.0026 -0.1219 -0.3199
 1726W        W 5790   1.069   0.358   0.777  0.0027  0.0057 -0.0718
 1727W        W 5791   9.683   4.484   0.435  0.0226 -0.2795  0.1029
 1728W        W 5792   9.278  10.460   2.227  0.1052  0.2997  0.4738
 1729W        W 5793   9.701   6.702   9.171 -0.3016 -0.1775 -0.0220
 1730W        W 5794   9.392   3.361  10.912  0.0657  0.2551  0.1759
 1731W        W 5795   9.800   9.314   8.763  0.2311  0.0052  0.0457
 1732W        W 5796   6.568   1.346   2.471  0.1819  0.1929 -0.3244
 1733W        W 5797   0.713   3.369   0.340  0.1628  0.0614 -0.0280
 1734W        W 5798   2.365   3.454   1.935 -0.0113 -0.0204 -0.0145
 1735W        W 5799   7.604  10.506   0.639  0.1313  0.2590  0.2437
 1736W        W 5800   8.234   3.533   1.944  0.4999  0.1467  0.2619
 1737W        W 5801   3.023   4.641  11.254 -0.1003 -0.2466 -0.0632
 1738W        W 5802   2.650   3.895  11.473 -0.2560 -0.1411  0.0919
 1739W        W 5803   9.604  10.588   8.763 -0.0508  0.2138 -0.2104
 1740W        W 5804   0.330   6.457   4.072 -0.0852  0.2342  0.0091
 1741W        W 5805   1.819  10.255  11.549 -0.2683  0.0413  0.0324
 1742W        W 5806   0.075   0.942   3.162  0.0059  0.0759 -0.1733
 1743W        W 5807   4.434   6.936   9.244  0.0539 -0.1460 -0.3433
 1744W        W 5808   5.100   5.722   1.950 -0.0785 -0.0049 -0.3056
 1745W        W 5809   7.176   5.080   9.374 -0.1348 -0.1382  0.0764
 1746W        W 5810   7.934  10.233   0.339 -0.0665  0.1265 -0.0649
 1747W        W 5811   7.597   4.740  10.401 -0.0734  0.2366  0.1653
 1748W        W 5812   4.703   9.526   0.067 -0.3634 -0.0271 -0.1733
 1749W        W 5813   1.891   7.827  10.068 -0.1346  0.1073 -0.0952
 1750W        W 5814   7.870   6.805   9.995  0.3094  0.1774  0.3113
 1751W        W 5815   6.539   5.436   9.884 -0.1027 -0.1423  0.1231
 1752W        W 5816  10.136   2.194   9.087 -0.1240  0.0292 -0.1136
 1753W        W 5817   1.397   9.828   0.736 -0.1976 -0.0101  0.0565
 1754W        W 5818   0.845   6.468   0.908 -0.1488 -0.1986 -0.0622
 1755W        W 5819   9.534   1.284   1.505 -0.0008 -0.1704  0.0977
 1756W        W 5820   6.945   9.999   2.232  0.1894  0.0742  0.1512
 1757W        W 5821   9.814   1.510   7.934  0.1359  0.2663  0.0576
 1758W        W 5822   5.435   9.224   0.533  0.1221 -0.1818 -0.0719
 1759W        W 5823   3.839   8.318   2.632 -0.1088 -0.1842  0.1479
 1760W        W 5824   8.645  10.118  10.923  0.0491  0.2221 -0.0600
 1761W        W 5825   7.054   7.579   9.182  0.3674 -0.2378 -0.1385
 1762W        W 5826   0.415   6.200   3.634  0.3039 -0.0052 -0.1370
 1763W        W 5827   3.191   0.731   8.296  0.1109 -0.1003 -0.4197
 1764W        W 5828   3.532   2.705   1.740  0.2684 -0.3560 -0.1091
 1765W        W 5829   8.249   9.209   8.959  0.1891  0.0536  0.0550
 1766W        W 5830   8.325   7.636   2.333  0.0290  0.1209  0.2145
 1767W        W 5831   5.416   3.382   0.662 -0.1508 -0.1324  0.0281
 1768W        W 5832   8.314   5.793  10.877 -0.1082  0.2125  0.0012
 1769W        W 5833   1.976   2.754   7.445  0.0569 -0.0812 -0.1146
 1770W        W 5834   2.689   7.817   4.316  0.1564  0.2101  0.1948
 1771W        W 5835   3.153   8.731   3.450 -0.0519  0.3241 -0.1168
 1772W        W 5836   3.199   0.671  11.167 -0.0279 -0.0979 -0.0052
 1773W        W 5837   0.112   9.185   8.542  0.1381  0.0577 -0.2358
 1774W        W 5838   1.025   7.227   1.186  0.0869  0.3033  0.2424
 1775W        W 5839   3.768   6.699   2.680 -0.1979  0.3136 -0.1031
 1776W        W 5840   0.669   5.364   2.483  0.0305 -0.0454  0.1144
 1777W        W 5841   3.222   5.973   8.591  0.2799  0.2110 -0.1864
 1778W        W 5842   4.969   0.874   0.350  0.3071  0.0896  0.1619
 1779W        W 5843   4.672  10.605   0.637  0.0451 -0.0510  0.0311
 1780W        W 5844   2.567  10.540   7.369 -0.0298  0.0170 -0.0862
 1781W        W 5845   1.664   4.187   1.392 -0.1430 -0.1252  0.0234
 1782W        W 5846   3.329   5.413   3.062 -0.0381 -0.3009 -0.1239
 1783W        W 5847   5.300   7.902   1.892 -0.0530 -0.1655 -0.4024
 1784W        W 5848  10.413   5.988  10.330 -0.1073  0.1407  0.0174
 1785W        W 5849   0.857   2.385   9.508  0.0878  0.2271  0.1991
 1786W        W 5850   1.585   9.471  10.902 -0.0265 -0.0192  0.1428
 1787W        W 5851   0.383   4.385   8.159  0.3014  0.0915  0.0116
 1788W        W 5852   6.376   9.469   9.276  0.1563  0.5457  0.1899
 1789W        W 5853   1.681   3.042  11.195  0.0065  0.3722 -0.1873
 1790W        W 5854   8.590   3.843   4.110  0.2227 -0.1852 -0.0004
 1791W        W 5855   5.097   9.204   1.732  0.1073 -0.0880 -0.3470
 1792W        W 5856   1.404   9.047   1.590 -0.0672 -0.3254  0.3492
 1793W        W 5857   5.447   1.625  11.401 -0.2019 -0.0261  0.0215
 1794W        W 5858   3.596   0.331   0.874  0.0815  0.1744  0.1233
 1795W        W 5859   2.450   5.555   0.242 -0.4960 -0.0154  0.0188
 1796W        W 5860   4.786   4.709   0.054 -0.2056 -0.3614  0.0627
 1797W        W 5861   2.298   4.687   3.630  0.1702 -0.0969 -0.0869
 1798W        W 5862   7.142   5.520  11.618  0.0426 -0.0734  0.2751
 1799W        W 5863   0.388   8.127  11.279 -0.0852  0.2184  0.0364
 1800W        W 5864   3.245   8.850   0.645 -0.0236 -0.2698 -0.0254
 1801W        W 5865  10.200   1.256   2.297 -0.0607 -0.1601 -0.1558
 1802W        W 5866   1.916   3.495   2.211  0.2104 -0.1173 -0.0570
 1803W        W 5867   1.009   5.034  10.385 -0.0993 -0.1454  0.0418
 1804W        W 5868   1.177   3.678   8.972  0.4343 -0.3193  0.2214
 1805W        W 5869   5.053   8.158   2.307  0.0702  0.0488  0.1946
 1806W        W 5870   7.832   9.665   2.424 -0.0835 -0.1015  0.1093
 1807W        W 5871  10.303   6.368  10.619  0.0816 -0.3333 -0.1060
 1808W        W 5872   5.519   2.488   2.598  0.0989  0.1631 -0.0706
 1809W        W 5873   7.960   1.496   3.671 -0.0096 -0.1809  0.0454
 1810W        W 5874   7.440   4.110   0.023  0.0664 -0.0753  0.3618
 1811W        W 5875   0.957   3.838   9.492  0.0152  0.1319 -0.0973
 1812W        W 5876   6.889   5.773   9.751  0.2860 -0.2541 -0.4940
 1813W        W 5877   4.215   9.577   9.157  0.3928  0.0569  0.2697
 1814W        W 5878   2.143   8.353   8.385  0.3685 -0.3049 -0.4435
 1815W        W 5879   9.390   8.882   2.135 -0.0537  0.0951 -0.0896
 1816W        W 5880   1.319   6.372  10.078 -0.1490 -0.0804  0.1810
 1817W        W 5881   2.069   3.705   0.182 -0.1770 -0.2443 -0.0307
 1818W        W 5882   9.306   8.433   1.760  0.0298  0.1658  0.0180
 1819W        W 5883   9.266   6.310  10.890  0.0332  0.2552  0.2930
 1820W        W 5884   5.224   5.801   1.190  0.1794  0.0690  0.0738
 1821W        W 5885   8.986   9.263   2.333 -0.0126  0.0596  0.3151
 1822W        W 5886   2.593   8.630   7.959 -0.1222  0.0823 -0.1569
 1823W        W 5887   0.928   2.890   9.695 -0.0354  0.1103  0.3325
 1824W        W 5888   9.214   7.485   0.654  0.0304 -0.2111  0.2166
 1825W        W 5889   1.795   5.625   3.137 -0.1371  0.4887 -0.2709
 1826W        W 5890   6.305   5.452  10.320 -0.0301  0.1845  0.0371
 1827W        W 5891   2.637   3.094   3.137  0.1654  0.0702  0.3440
 1828W        W 5892   0.689   2.239  10.027 -0.2116  0.0173 -0.0945
 1829W        W 5893   1.510   7.434   7.306  0.0433  0.0428 -0.2847
 1830W        W 5894   6.509   2.699   2.629 -0.0163  0.0697 -0.0016
 1831W        W 5895   9.427   7.197  11.519 -0.0358 -0.0509  0.1687
 1832W        W 5896   9.089   9.692  11.082 -0.1637 -0.0088 -0.1830
 1833W        W 5897  10.171   3.768  11.610  0.1156 -0.1170 -0.2878
 1834W        W 5898  10.528   0.346  11.124 -0.0717  0.1427  0.1587
 1835W        W 5899   3.549   7.856   7.597  0.0637 -0.2374  0.0686
 1836W        W 5900   7.543   7.349   1.379 -0.0313 -0.1578 -0.1863
 1837W        W 5901   4.065   8.644   4.448  0.0489 -0.0160  0.1418
 1838W        W 5902   0.510   0.486   9.289 -0.0445 -0.1253 -0.1115
 1839W        W 5903   8.787  10.219   2.084 -0.1645 -0.0311  0.3390
 1840W        W 5904   2.519   0.070   8.362 -0.0234 -0.2889  0.1271
 1841W        W 5905   6.754   4.845   8.144  0.0346 -0.0900 -0.1159
 1842W        W 5906   3.130  10.386   1.063  0.2081 -0.0898 -0.0344
 1843W        W 5907   8.335   6.818   2.689  0.2018 -0.1742 -0.2282
 1844W        W 5908   7.343   9.908  10.563  0.1322  0.1069  0.3136
 1845W        W 5909   2.796   5.928  10.626  0.0639 -0.0585 -0.2730
 1846W        W 5910   6.841   1.332   1.180  0.0533  0.0545  0.0060
 1847W        W 5911   9.325   1.355   0.143 -0.0023  0.0359  0.2985
 1848W        W 5912  10.316   1.543  11.554  0.0120  0.2440 -0.1703
 1849W        W 5913   0.072   9.330  10.250 -0.0218  0.2347 -0.0150
 1850W        W 5914   9.267   1.046   8.737  0.2496 -0.0554  0.1344
 1851W        W 5915   3.436   6.887  11.398 -0.1737  0.0282  0.0363
 1852W        W 5916   9.046   1.928   7.629 -0.5096  0.2025 -0.0887
 1853W        W 5917   6.351   3.433   0.495 -0.0009  0.1973 -0.1288
 1854W        W 5918   5.811   3.805   8.381 -0.2002 -0.2925 -0.0739
 1855W        W 5919   1.868   3.519  10.928  0.1366  0.2027 -0.1412
 1856W        W 5920   9.922  10.284   9.623 -0.0310 -0.0777 -0.0314
 1857W        W 5921   7.171   4.188   9.993  0.4412 -0.0770  0.1471
 1858W        W 5922   5.133   5.919   4.246 -0.1590 -0.0238  0.3552
 1859W        W 5923   1.457   5.434  11.620  0.1871 -0.2439 -0.3502
 1860W        W 5924   0.416   7.455   1.953 -0.0543  0.0860  0.1030
 1861W        W 5925   3.696   2.487   2.289  0.1439  0.1559 -0.0841
 1862W        W 5926   0.285   5.446   3.330 -0.1083 -0.2836  0.0028
 1863W        W 5927   0.132   1.825   9.733  0.0269  0.1416 -0.2057
 1864W        W 5928   9.866   1.457  10.647  0.2533 -0.0070 -0.0213
 1865W        W 5929   6.919   5.939  11.520  0.1284 -0.1257 -0.0795
 1866W        W 5930   4.557   1.892  11.346  0.2813 -0.1074  0.1800
 1867W        W 5931   6.011   7.044   8.241  0.0092  0.0781 -0.2651
 1868W        W 5932   1.792   5.851   1.850 -0.2744  0.1707  0.1019
 1869W        W 5933   1.938   6.541   0.794 -0.0001  0.2496  0.2498
 1870W        W 5934   0.436   7.152   2.328 -0.2178 -0.0449 -0.0029
 1871W        W 5935   5.347   7.705   0.831 -0.0288  0.0065 -0.0719
 1872W        W 5936   5.135   1.085  10.337  0.2049  0.0455 -0.2759
 1873W        W 5937  10.549   1.458   3.154 -0.1866  0.4189  0.2821
 1874W        W 5938   8.880   2.385   0.451  0.1182 -0.0480 -0.2330
 1875W        W 5939   8.199   1.008   9.506 -0.1097 -0.2471  0.0842
 1876W        W 5940   0.417   0.313  11.253  0.0564  0.0865  0.0124
 1877W        W 5941   9.182   6.302   2.272 -0.0637 -0.2484  0.0018
 1878W        W 5942   2.087   2.453   7.788  0.3773  0.1427 -0.0721
 1879W        W 5943   6.097   6.156   8.866 -0.0786 -0.0770 -0.2274
 1880W        W 5944   0.494   0.791  11.472  0.3625  0.1995  0.0762
 1881W        W 5945   8.203   6.537   0.429 -0.5194 -0.0418  0.0062
 1882W        W 5946   3.344   1.759   1.495  0.0928  0.2088 -0.0722
 1883W        W 5947   0.375   2.327   3.334 -0.1572 -0.0273  0.2193
 1884W        W 5948   4.364   3.929   0.257  0.4020  0.1641 -0.0117
 1885W        W 5949   8.906   6.363   9.102 -0.3878 -0.1934  0.0082
 1886W        W 5950   9.130   5.232   1.345 -0.0696  0.0502  0.2000
 1887W        W 5951   2.567   0.410   8.763 -0.0086 -0.2274  0.2085
 1888W        W 5952  10.371   8.113   9.535  0.1506 -0.1580 -0.0463
 1889W        W 5953   1.750   1.211   0.118  0.1588 -0.1520 -0.1272
 1890W        W 5954   7.908   7.278   9.805 -0.0321 -0.0458  0.2061
 1891W        W 5955   4.676   5.306   9.821 -0.0962 -0.3633  0.3013
 1892W        W 5956   1.176   7.314  10.619 -0.0405  0.0161  0.4104
 1893W        W 5957   9.826   7.538   0.720  0.0486  0.1458 -0.3844
 1894W        W 5958   8.648   7.510   8.185 -0.0483 -0.0126  0.0657
 1895W        W 5959   4.178   7.240   0.966 -0.2001  0.1286 -0.0495
 1896W        W 5960   2.952   4.906   0.097 -0.0969 -0.0936 -0.2145
 1897W        W 5961   1.739   1.027   1.032 -0.3116 -0.2823  0.0225
 1898W        W 5962   5.888   0.235   2.853 -0.0726 -0.4089  0.1319
 1899W        W 5963   6.297   8.179   3.097 -0.0723  0.0608  0.0149
 1900W        W 5964   5.188   0.295   2.168  0.1724  0.0480  0.2136
 1901W        W 5965   2.357  10.453   7.881 -0.2471 -0.0164 -0.0598
 1902W        W 5966  10.465  10.142   1.939  0.1109 -0.0221 -0.0480
 1903W        W 5967   9.384   1.146   8.228 -0.1519 -0.0550 -0.2041
 1904W        W 5968   7.145   6.057   7.421  0.0906  0.0764  0.2471
 1905W        W 5969   4.767   2.659   0.903 -0.1001  0.1251  0.1176
 1906W        W 5970   4.783   0.333   2.508  0.2847  0.0222 -0.1367
 1907W        W 5971   6.340   0.456   2.597 -0.0673  0.1946  0.3020
 1908W        W 5972   7.246   3.788   8.652  0.1632 -0.0065 -0.1769
 1909W        W 5973   6.358   0.372   1.506 -0.1968 -0.1839 -0.2054
 1910W        W 5974   0.497   9.510   1.729 -0.1096  0.0474  0.1178
 1911W        W 5975   9.630   9.415   9.206 -0.0293 -0.1156 -0.0874
 1912W        W 5976   0.068   0.504  11.582  0.2552 -0.0045  0.2197
 1913W        W 5977   1.278   8.441   8.655  0.0781 -0.1054  0.0916
 1914W        W 5978   1.634  10.516   8.810  0.3796  0.1843  0.4064
 1915W        W 5979   4.565   1.623   2.667 -0.0058  0.1510  0.0159
 1916W        W 5980   9.110   3.025   9.988  0.0347  0.2921  0.0548
 1917W        W 5981   9.205   7.325   2.342  0.1538  0.1603  0.0373
 1918W        W 5982   2.760   4.359  11.529 -0.1867  0.1999 -0.0899
 1919W        W 5983   2.387   6.023   1.942  0.0543  0.3683 -0.2478
 1920W        W 5984   6.238   0.055   9.101 -0.2737 -0.1405 -0.1053
 1921W        W 5985   4.921   4.058   1.614 -0.1691  0.0157  0.1652
 1922W        W 5986   4.341   4.191   8.666  0.1261  0.0710 -0.0204
 1923W        W 5987   9.461   2.488  10.385  0.0016  0.1109 -0.0531
 1924W        W 5988   8.339   2.848   3.479 -0.1341 -0.0448  0.0485
 1925W        W 5989   3.595   0.121   8.823  0.2890 -0.1928  0.2187
 1926W        W 5990   8.985   5.500  11.352 -0.2658 -0.1119 -0.3162
 1927W        W 5991   8.710   4.099   0.271 -0.0274 -0.0930  0.4078
 1928W        W 5992   3.064   3.114   0.184 -0.2638 -0.0333 -0.1659
 1929W        W 5993  10.329  10.615  10.802  0.0710  0.1443  0.1003
 1930W        W 5994   8.100   6.582  11.396 -0.1516 -0.3024 -0.3248
 1931W        W 5995   8.172   4.498  10.148  0.0601  0.0565 -0.0836
 1932W        W 5996   8.878   0.523   7.130  0.0367  0.0290  0.2021
 1933W        W 5997   3.432   9.047   2.147 -0.0729  0.3668 -0.0408
 1934W        W 5998   3.659   6.005   0.768  0.1603  0.0709 -0.0963
 1935W        W 5999   0.833   2.455  10.443 -0.1505 -0.2873  0.0850
 1936W        W 6000   4.515   8.002   7.906 -0.1633 -0.1994  0.1165
 1937W        W 6001   5.600   1.724   1.580  0.0729 -0.0008 -0.0237
 1938W        W 6002   9.819   3.045   2.869  0.0517 -0.0287 -0.0668
 1939W        W 6003  10.209   1.276   8.810 -0.1657  0.1921  0.3152
 1940W        W 6004   9.319   8.412   0.518  0.2153  0.0680  0.0362
 1941W        W 6005   8.522   3.071   8.789 -0.0779  0.2510  0.1066
 1942W        W 6006   4.872   0.543   0.788  0.0873  0.1074 -0.1406
 1943W        W 6007   8.362   8.525   2.605  0.1692  0.0480 -0.0528
 1944W        W 6008   0.078   4.333   4.079 -0.2817 -0.1629 -0.0794
 1945W        W 6009   5.057   1.652   2.877  0.2266  0.0724  0.0267
 1946W        W 6010   8.630   9.255   0.636 -0.0320  0.1016 -0.0925
 1947W        W 6011   0.145   6.386   2.732 -0.1690 -0.0569  0.1169
 1948W        W 6012   4.698   7.875   0.271  0.1359 -0.0086 -0.0081
 1949W        W 6013   1.621   1.032   3.731  0.3321  0.1496  0.0799
 1950W        W 6014   7.398   4.671   0.327 -0.1823  0.1606 -0.1738
 1951W        W 6015   4.113   6.953   8.543  0.0180 -0.0101 -0.0165
 1952W        W 6016   8.270   4.023   0.454  0.0146  0.2216  0.0192
 1953W        W 6017   5.657   3.816   2.614  0.3400  0.0814 -0.0529
 1954W        W 6018   2.238   2.396   1.446 -0.0366  0.1152 -0.2948
 1955W        W 6019   1.771   9.240   7.726  0.0421  0.0631 -0.0256
 1956W        W 6020   5.309   7.839   3.215  0.1032  0.0202 -0.0241
 1957W        W 6021   1.510   9.317   0.223 -0.0530 -0.0578  0.2898
 1958W        W 6022   2.294   2.807   9.698  0.0925  0.0627 -0.0623
 1959W        W 6023   4.369   5.570   1.293 -0.0702 -0.1535  0.0193
 1960W        W 6024   7.989   4.985   0.990  0.0739  0.2208  0.1470
 1961W        W 6025   0.198   9.679   8.761 -0.1015  0.1209  0.2882
 1962W        W 6026   0.999   2.776   1.652  0.0673 -0.1757 -0.2887
 1963W        W 6027   9.442   3.122   2.205  0.3835 -0.0050  0.2122
 1964W        W 6028   6.628   0.966   9.684  0.0718 -0.0532 -0.3569
 1965W        W 6029   4.706  10.534   9.916 -0.0191 -0.3862  0.2284
 1966W        W 6030   7.065   2.067  10.655  0.1441 -0.1727 -0.2549
 1967W        W 6031   1.799   9.278   1.161 -0.1461 -0.0184  0.0588
 1968W        W 6032   3.400   9.674   0.386 -0.3079 -0.1030 -0.1241
 1969W        W 6033   1.290  10.516   0.655  0.1247  0.1717  0.1244
 1970W        W 6034   8.802   6.946   2.805  0.0076  0.0502 -0.1014
 1971W        W 6035   6.340   1.154   3.076 -0.1326 -0.1882 -0.0136
 1972W        W 6036   1.608   1.629   0.336  0.2243 -0.1678 -0.2374
 1973W        W 6037   5.201   1.248   0.105 -0.1690 -0.1632  0.0819
 1974W        W 6038   4.635   4.086  10.295  0.1347 -0.2922 -0.3902
 1975W        W 6039   4.113   6.225  10.750 -0.1252  0.0487 -0.0780
 1976W        W 6040   9.058   9.350   0.349  0.0841 -0.2025 -0.3221
 1977W        W 6041   4.503   1.852   0.389  0.0332 -0.0312 -0.2647
 1978W        W 6042   4.869   7.924   3.563  0.0933  0.1075  0.3206
 1979W        W 6043   9.039   3.463   2.045  0.0939 -0.0879  0.1388
 1980W        W 6044   6.309   1.791   8.774 -0.3428 -0.1621 -0.0084
 1981W        W 6045   6.504   2.115   3.169  0.3806 -0.0390  0.2129
 1982W        W 6046   6.511   6.636   0.939  0.2191  0.0547 -0.0225
 1983W        W 6047   6.602   4.092   3.556 -0.3973 -0.0980 -0.1207
 1984W        W 6048   1.499   1.538  11.459 -0.1942  0.2704 -0.0192
 1985W        W 6049   1.293   9.269   2.528 -0.4024 -0.1179  0.2018
 1986W        W 6050   3.539   7.295  10.173 -0.0967 -0.0745 -0.1123
 1987W        W 6051   5.384   3.244   3.290 -0.0582 -0.0879  0.0485
 1988W        W 6052   6.488   1.185   1.676  0.1767 -0.0521 -0.2655
 1989W        W 6053   0.012   5.231   8.062  0.1890  0.2029 -0.0404
 1990W        W 6054   7.038  10.225   7.599  0.2883  0.3817  0.4452
 1991W        W 6055   1.501   4.646   9.277  0.3003  0.0546 -0.0860
 1992W        W 6056   1.790   9.545   1.592 -0.1041  0.1060 -0.0347
 1993W        W 6057  10.262   1.273   7.934  0.1957  0.0354  0.0605
 1994W        W 6058   7.134   8.090   9.155 -0.2040  0.0226  0.1902
 1995W        W 6059   1.599   9.705   9.296 -0.1444 -0.3602 -0.1080
 1996W        W 6060   4.819   7.561   4.437  0.0771 -0.2463  0.0936
 1997W        W 6061  10.433  10.045   0.601  0.1035 -0.1610 -0.1707
 1998W        W 6062   8.413   0.170   2.365  0.1624  0.1953  0.0369
 1999W        W 6063   4.513   9.073   3.658  0.0170 -0.1658  0.0473
 2000W        W 6064   9.674   8.330   1.023 -0.2916 -0.0872  0.1969
 2001W        W 6065   8.094   2.729   8.794  0.1308  0.0824 -0.0995
 2002W        W 6066   2.069   0.289   1.360  0.1293  0.2050  0.3139
 2003W        W 6067   7.106   6.555   9.858 -0.1800 -0.1296  0.0332
 2004W        W 6068   2.068   1.599   7.792  0.0239  0.1678  0.1105
 2005W        W 6069   8.098   0.641  10.800  0.0618 -0.3640 -0.1361
 2006W        W 6070   8.694   5.670   9.777 -0.2087  0.1151  0.1999
 2007W        W 6071   6.597   9.741   9.651 -0.1311  0.1938 -0.0342
 2008W        W 6072   1.985   2.895  11.543  0.1584 -0.0964 -0.2372
 2009W        W 6073   5.079   0.724   9.936  0.0541  0.0340  0.1332
 2010W        W 6074   1.685   7.968   1.479 -0.1050  0.1547  0.3129
 2011W        W 6075   9.893  10.496   0.089 -0.0027 -0.0684 -0.0321
 2012W        W 6076   6.834   9.211   9.305 -0.1349 -0.3610  0.2387
 2013W        W 6077   7.615   6.176   7.908  0.1211  0.2161  0.0926
 2014W        W 6078   2.546   1.777   2.574  0.3663 -0.1602  0.0624
 2015W        W 6079   5.204   4.049   9.755  0.1501  0.0787  0.1723
 2016W        W 6080   2.690  10.357   1.601  0.1985 -0.1621 -0.0169
 2017W        W 6081   2.519   1.497   3.488  0.0066 -0.3761 -0.1427
 2018W        W 6082   0.989   6.832   2.971  0.2724 -0.0131 -0.0247
 2019W        W 6083   8.755   9.739   2.012  0.2234 -0.1263  0.0514
 2020W        W 6084  10.166   1.873   8.145 -0.0570  0.2173 -0.3096
 2021W        W 6085   0.465   8.771   8.392 -0.1485 -0.1414 -0.4586
 2022W        W 6086   9.840   0.349   4.327 -0.1778 -0.1563  0.2108
 2023W        W 6087   9.613  10.526   0.892  0.5227  0.1129  0.1713
 2024W        W 6088   9.891  10.549   7.275 -0.1758  0.0559 -0.0596
 2025W        W 6089   8.275   0.587   8.206  0.4027  0.2476 -0.0345
 2026W        W 6090   6.806   2.511   1.645  0.2573 -0.0863 -0.0536
 2027W        W 6091   7.541   0.894  10.199  0.0484 -0.0845  0.0182
 2028W        W 6092  10.477   4.050   0.289  0.3572 -0.0930  0.5102
 2029W        W 6093   7.395   5.636   2.697 -0.0749 -0.0670  0.1885
 2030W        W 6094   5.355   4.121   1.925  0.1178 -0.0617 -0.0473
 2031W        W 6095   9.307   9.204   9.539 -0.1527  0.1796 -0.2856
 2032W        W 6096   2.673   5.015  11.273  0.1462 -0.1618  0.3655
 2033W        W 6097   7.782   5.722  10.926  0.0470 -0.0651  0.0758
 2034W        W 6098   2.952   1.194  11.516  0.1030 -0.2732 -0.3972
 2035W        W 6099   3.081   5.737   2.671 -0.0564  0.2977  0.0544
 2036W        W 6100   6.598   1.843   9.749  0.0778 -0.4380  0.2268
 2037W        W 6101   5.262   8.495   3.700 -0.2421 -0.0054 -0.0155
 2038W        W 6102   5.081   3.131   1.153 -0.0320 -0.3584 -0.1233
 2039W        W 6103   1.584   5.371   2.708 -0.2920 -0.1271  0.0585
 2040W        W 6104   4.926   5.810   9.712 -0.2088  0.2724  0.3176
 2041W        W 6105   9.990   9.707  11.458 -0.0720 -0.3012  0.2373
 2042W        W 6106   3.721   4.798   2.055 -0.5952  0.1524 -0.2902
 2043W        W 6107   9.941   6.276   7.472  0.1406 -0.2913 -0.2401
 2044W        W 6108   2.127   1.834   1.383  0.0698 -0.3253 -0.0004
 2045W        W 6109   8.054   8.301   8.581  0.2348  0.3983  0.1893
 2046W        W 6110   7.839   1.325  10.025 -0.0635 -0.1700 -0.3100
 2047W        W 6111   3.953   2.390   1.819  0.1781  0.5240 -0.1353
 2048W        W 6112   7.291  10.203   2.552  0.2050 -0.0988  0.1131
 2049W        W 6113   2.964   2.688   1.557  0.1444 -0.1425  0.2315
 2050W        W 6114   7.080   2.301   0.778 -0.0707  0.3071 -0.0731
 2051W        W 6115   4.077   5.576   8.360 -0.3769  0.0207 -0.3816
 2052W        W 6116   5.736   6.834   0.230 -0.1291  0.1061 -0.2198
 2053W        W 6117   0.344   3.167   2.439  0.0800  0.2151 -0.0646
 2054W        W 6118   9.661   6.693   7.294  0.2293  0.0241 -0.1616
 2055W        W 6119   2.453   5.815   9.282 -0.1159  0.1749  0.1197
 2056W        W 6120   4.825   7.152   2.705 -0.3341  0.0210  0.1465
 2057W        W 6121   4.040   9.379  10.098 -0.2914 -0.0340 -0.0264
 2058W        W 6122  10.117   4.557   7.905 -0.1319 -0.1278 -0.3452
 2059W        W 6123   4.340   6.826   1.661  0.0464 -0.1417 -0.0970
 2060W        W 6124   9.974   9.159   0.347 -0.1044 -0.1649  0.2836
 2061W        W 6125   2.000   6.611   8.663 -0.0568  0.0458 -0.0073
 2062W        W 6126   7.023   5.863  10.590 -0.3328 -0.2934  0.2423
 2063W        W 6127   4.166   3.402   1.145 -0.0573 -0.0168  0.0657
 2064W        W 6128   3.895  10.166   0.564 -0.0767 -0.1209  0.2518
 2065W        W 6129   3.199   1.817   2.086 -0.4398  0.2016 -0.0466
 2066W        W 6130   8.291   6.527   3.985  0.0140 -0.4055 -0.2273
 2067W        W 6131   6.589   5.200   2.324  0.1720  0.3544  0.0188
 2068W        W 6132  10.494   4.075   3.505 -0.1520 -0.0836  0.0799
 2069W        W 6133   6.373   6.722   3.291 -0.0673  0.0091 -0.1551
 2070W        W 6134   0.961   9.380   0.522 -0.0761 -0.1703 -0.1500
 2071W        W 6135   6.662   4.196   9.861 -0.0785 -0.1072 -0.2607
 2072W        W 6136   1.556   4.519   4.293  0.1342 -0.1107  0.0210
 2073W        W 6137  10.369   0.022   2.146  0.2771  0.0481 -0.1147
 2074W        W 6138   5.957   5.480  10.710  0.1159 -0.0776  0.0925
 2075W        W 6139   9.278   3.804   3.413 -0.0812  0.0116 -0.0581
 2076W        W 6140   2.024   7.184   0.386  0.2355 -0.1122  0.3725
 2077W        W 6141   3.106   8.791   0.182  0.0565 -0.1805  0.1814
 2078W        W 6142   7.441   6.060   0.571 -0.0772  0.0752  0.0935
 2079W        W 6143   8.033   8.471   9.935 -0.0418  0.1431 -0.2737
 2080W        W 6144   4.150   0.479   9.116  0.0160  0.0647  0.0143
 2081W        W 6145   6.312   6.394   2.326 -0.4099  0.1166  0.2302
 2082W        W 6146   9.662   8.213   2.329  0.0091 -0.1931 -0.1754
 2083W        W 6147   1.588   2.874   0.934 -0.2298 -0.0153  0.3159
 2084W        W 6148   6.131   8.273   9.585  0.2588  0.3633  0.5563
 2085W        W 6149   1.481   8.617   1.895 -0.0705 -0.1958 -0.0884
 2086W        W 6150   4.961   9.049   9.469 -0.1347 -0.0319  0.1214
 2087W        W 6151   2.529   1.923   0.387 -0.2593 -0.1235 -0.1054
 2088W        W 6152   0.169   1.502   0.194 -0.3111 -0.0506  0.3409
 2089W        W 6153   2.652   3.009   2.151 -0.1226 -0.0232  0.2115
 2090W        W 6154   7.282   4.836  11.231 -0.0052  0.0601 -0.0023
 2091W        W 6155  10.048   1.314   3.007 -0.1588  0.1099 -0.0562
 2092W        W 6156   3.108   7.849   1.372 -0.1080  0.0511  0.1631
 2093W        W 6157   5.032   0.904   1.668 -0.1554  0.0392  0.1328
 2094W        W 6158   1.660   2.093  11.538  0.0785 -0.2914  0.0166
 2095W        W 6159   0.047   4.852   1.686 -0.1389 -0.0098 -0.1227
 2096W        W 6160   3.119   1.554   3.020  0.0513 -0.1671  0.1887
 2097W        W 6161   1.580   8.623   1.423  0.1575  0.1087 -0.0085
 2098W        W 6162   8.058   3.952   9.860  0.1198 -0.0179  0.0161
 2099W        W 6163   0.442   5.935   1.884 -0.0340  0.0825  0.2583
 2100W        W 6164   0.718   8.257   0.013  0.1273 -0.2415  0.1380
 2101W        W 6165   1.920   3.752   3.052 -0.0246  0.2557 -0.0175
 2102W        W 6166   5.174   2.673  11.411  0.1144  0.1009 -0.4016
 2103W        W 6167   3.965   1.558   0.368  0.0226  0.1658  0.0305
 2104W        W 6168   6.056   8.415   2.167  0.1143  0.2710 -0.3053
 2105W        W 6169   2.328   0.860   4.234  0.1460  0.3319 -0.0550
 2106W        W 6170   5.047   3.301  11.239 -0.2765 -0.2018 -0.2277
 2107W        W 6171   5.856   5.652   8.352 -0.2055 -0.1332  0.0224
 2108W        W 6172   5.419   6.106   2.014 -0.1235 -0.2618 -0.1264
 2109W        W 6173   3.162  10.281   2.686  0.0243  0.4246 -0.3302
 2110W        W 6174   4.453   7.864   4.235  0.2285  0.0195  0.1712
 2111W        W 6175  10.378   5.558  11.548 -0.2309  0.0992 -0.2742
 2112W        W 6176   7.542   0.432  11.091 -0.0946 -0.1127 -0.1932
 2113W        W 6177   4.698   0.793  11.004  0.1581  0.1272 -0.0850
 2114W        W 6178   3.403   3.013   7.294 -0.3014  0.1112 -0.0318
 2115W        W 6179  10.259   1.040   3.407  0.3018 -0.3508  0.0462
 2116W        W 6180   7.203   8.401   1.894  0.2262  0.4604 -0.0123
 2117W        W 6181   5.012   3.581   0.871 -0.0956 -0.1751 -0.0826
 2118W        W 6182   4.492   7.006  10.315  0.3143 -0.0265 -0.0673
 2119W        W 6183   5.720   4.631   2.605 -0.2675 -0.0755 -0.1675
 2120W        W 6184   0.593   6.176   2.372 -0.1067  0.6008  0.3271
 2121W        W 6185   6.965  10.039  10.074  0.1677 -0.0304 -0.0929
 2122W        W 6186   5.613   5.115  10.720  0.2601 -0.0406 -0.0118
 2123W        W 6187   1.875   9.024   1.737 -0.2440 -0.1427 -0.1079
 2124W        W 6188   7.223   1.745  10.331  0.0042 -0.1614  0.0988
 2125W        W 6189   7.200   6.792   9.353 -0.4245 -0.0305 -0.1721
 2126W        W 6190   5.455   9.147   9.361 -0.1913 -0.0424  0.1519
 2127W        W 6191   8.352   6.657  10.334 -0.1643 -0.4782  0.1629
 2128W        W 6192   5.083   8.701   0.257 -0.0269  0.1542  0.3123
 2129W        W 6193   2.198   4.636   7.296 -0.2755  0.0934 -0.0842
 2130W        W 6194   7.322   0.375   1.310 -0.1724  0.2575  0.0686
 2131W        W 6195   1.369  10.077   8.613 -0.1685 -0.1793  0.1416
 2132W        W 6196   6.376   9.123  11.026 -0.0491 -0.1858  0.0217
 2133W        W 6197  10.120   4.263  10.640  0.1393 -0.1228  0.0672
 2134W        W 6198   9.077   8.088  11.091  0.1064 -0.2527 -0.0573
 2135W        W 6199   2.959   4.953   2.993  0.1003 -0.1400  0.0597
 2136W        W 6200   0.160   7.871   3.177 -0.0994 -0.1069  0.0127
 2137W        W 6201   2.523   5.512   2.661  0.1402 -0.2729  0.2879
 2138W        W 6202   6.004   5.518   3.171  0.0602  0.1653 -0.0867
 2139W        W 6203   8.967  10.142   2.567 -0.0057  0.2875  0.2721
 2140W        W 6204   0.928  10.165   3.941  0.0774 -0.1529  0.1803
 2141W        W 6205   9.144   9.144  10.067  0.1992  0.0771 -0.0372
 2142W        W 6206  10.061   8.184  11.045  0.0781 -0.0036 -0.2215
 2143W        W 6207   6.030   9.749   0.285 -0.1866 -0.1512 -0.2392
 2144W        W 6208   6.952   2.812  11.629 -0.2970  0.1692 -0.1768
 2145W        W 6209   4.135   5.871   9.171 -0.1856  0.1166 -0.0921
 2146W        W 6210   7.368   9.374   9.187 -0.0333 -0.2616 -0.1050
 2147W        W 6211   1.892   8.068  11.543  0.1245 -0.0838  0.3995
 2148W        W 6212   1.907   7.485   8.381 -0.2596 -0.0460 -0.0441
 2149W        W 6213   2.401   8.785   4.105  0.2199 -0.1489  0.2116
 2150W        W 6214   7.202   6.477  10.637  0.3823  0.1297  0.0093
 2151W        W 6215   2.648   2.414   1.894 -0.1029  0.3010  0.0709
 2152W        W 6216   2.612   0.047  10.785 -0.4342 -0.1553  0.1910
 2153W        W 6217   7.656   7.254   7.979  0.2117  0.3946 -0.2035
 2154W        W 6218   5.256   8.315  11.268 -0.1500  0.1313  0.1540
 2155W        W 6219   4.271   9.375  11.575 -0.0550  0.0800  0.1814
 2156W        W 6220   8.503   7.502   0.450  0.0068 -0.1044 -0.1488
 2157W        W 6221   2.964   6.766  11.072  0.0452 -0.0575  0.1278
 2158W        W 6222   7.372   3.711  10.123 -0.1574 -0.3029  0.1051
 2159W        W 6223   2.254   9.378   1.564 -0.0332 -0.1379 -0.0905
 2160W        W 6224   4.336   8.504   0.901  0.0316  0.3246  0.2932
 2161W        W 6225   5.112  10.062   9.289  0.0757  0.0743  0.1248
 2162W        W 6226   0.765   4.663   7.812  0.3081  0.0017  0.0878
 2163W        W 6227   0.422   1.801   8.252 -0.0684  0.0075  0.1735
 2164W        W 6228   7.948   0.149  10.710  0.1635 -0.2030  0.1455
 2165W        W 6229   7.195   5.776  11.060  0.2325 -0.2779  0.0236
 2166W        W 6230   5.967   5.622   2.507 -0.1838 -0.2042 -0.1984
 2167W        W 6231   8.476   3.761   0.863 -0.1412  0.0713  0.1447
 2168W        W 6232   1.421   5.371   4.260  0.0032  0.0390  0.2896
 2169W        W 6233   2.517   9.766   0.269  0.0979  0.1153  0.0701
 2170W        W 6234   2.686   7.445   0.293 -0.1001 -0.2645  0.3033
 2171W        W 6235   2.124   6.113   8.546  0.3246 -0.1081 -0.1417
 2172W        W 6236   9.901   2.746  10.377  0.0196  0.0887 -0.1812
 2173W        W 6237   6.598   5.077   1.418  0.0965 -0.0441  0.1780
 2174W        W 6238   0.726   6.317   1.597 -0.2068 -0.0746  0.0420
 2175W        W 6239   2.273   8.414   1.148 -0.0387 -0.1547 -0.0338
 2176W        W 6240   7.366   1.363  11.272 -0.0196  0.1012  0.0246
 2177W        W 6241   5.057   1.141   4.113  0.0267 -0.0797  0.1850
 2178W        W 6242   7.161   1.496  10.734 -0.0248  0.1208 -0.1819
 2179W        W 6243   4.204   4.977   0.460 -0.0016  0.0739  0.0779
 2180W        W 6244   1.572   4.946   2.337  0.0878  0.0600  0.2231
 2181W        W 6245   2.506   6.711  11.287 -0.1079 -0.0351 -0.2948
 2182W        W 6246   4.304  10.228   3.502 -0.0360 -0.1573  0.0086
 2183W        W 6247   8.081   2.076  10.494  0.1836  0.2830  0.1271
 2184W        W 6248   0.891   4.136  10.793  0.0135 -0.1509 -0.1494
 2185W        W 6249   2.934   4.992  10.380  0.0449 -0.1458  0.2313
 2186W        W 6250   9.449  10.291  11.374 -0.0998 -0.3659 -0.0032
 2187W        W 6251   9.713   5.889   1.952 -0.0839  0.0541  0.3596
 2188W        W 6252   2.545   2.054  11.072  0.4044  0.2018  0.0043
 2189W        W 6253   5.896   8.470   7.777 -0.0854 -0.0529 -0.2042
 2190W        W 6254   8.637   6.299   8.653  0.3216 -0.1850  0.0489
 2191W        W 6255   7.510   8.652  11.301 -0.0159 -0.0977 -0.1881
 2192W        W 6256   0.908   5.931   0.221  0.1083 -0.2241  0.4717
 2193W        W 6257   4.738   3.310  10.699  0.2295 -0.3182  0.3852
 2194W        W 6258   0.668   8.440   0.492 -0.3405  0.1455 -0.0793
 2195W        W 6259   7.922   4.424   3.122  0.1495  0.1582  0.4418
 2196W        W 6260   0.652   3.474  11.481  0.1479  0.5910 -0.0652
 2197W        W 6261   9.172   8.091   0.176  0.2896  0.0659  0.2200
 2198W        W 6262   0.674   0.213   8.334 -0.0774  0.0389  0.1260
 2199W        W 6263   6.309   1.762  10.204  0.2165 -0.2401  0.1200
 2200W        W 6264   9.599   6.957   0.842  0.1759 -0.0489 -0.1768
 2201W        W 6265   6.599   8.564   2.097  0.2056 -0.2032 -0.0382
 2202W        W 6266   9.540   8.560   0.098 -0.0186  0.1787  0.1083
 2203W        W 6267   5.615   7.643   1.299  0.0405  0.0686  0.2362
 2204W        W 6268   8.515   2.003   3.292 -0.1422  0.1994  0.0589
 2205W        W 6269   0.448   3.891  11.214 -0.0762 -0.1718 -0.0833
 2206W        W 6270   6.254   6.136   8.423 -0.2311 -0.2035  0.1967
 2207W        W 6271   2.269   4.059   8.708  0.1555  0.0241  0.0181
 2208W        W 6272   9.268   1.298   3.456  0.0182  0.0331 -0.1362
 2209W        W 6273   8.482   7.888  10.439 -0.1212 -0.0236  0.2561
 2210W        W 6274   2.156   3.488  10.259 -0.1323 -0.0687  0.2054
 2211W        W 6275   8.979   5.416   1.810  0.4370  0.2023 -0.0790
 2212W        W 6276   2.957   5.524   8.475 -0.0634 -0.1067 -0.4095
 2213W        W 6277   7.041   2.854   0.527 -0.2413 -0.0945 -0.1873
 2214W        W 6278   9.990   3.150   8.450  0.0800  0.0096 -0.1141
 2215W        W 6279   0.648   7.548  10.557  0.1237  0.3770  0.3467
 2216W        W 6280   3.938   9.954   8.767 -0.2274 -0.2080  0.3524
 2217W        W 6281   8.596   1.054  11.487 -0.4357  0.0575 -0.0111
 2218W        W 6282   4.267   7.442   2.083  0.0195 -0.2337 -0.0762
 2219W        W 6283   3.047   9.205  10.483  0.3858 -0.1793 -0.2169
 2220W        W 6284   1.485   1.380  10.993 -0.1029  0.1184  0.2707
 2221W        W 6285   1.682   6.313   2.705 -0.1984 -0.0021 -0.2107
 2222W        W 6286   7.025   5.891   0.387  0.1351 -0.0522  0.0089
 2223W        W 6287   5.696   4.215   9.227 -0.3274  0.1528 -0.1605
 2224W        W 6288   1.203   6.515   1.314  0.1808  0.1972 -0.1878
 2225W        W 6289   8.143   8.193   3.228 -0.1448  0.0386  0.1939
 2226W        W 6290   4.692   2.820   0.436 -0.1634  0.5429 -0.0161
 2227W        W 6291   1.987   9.386  11.292 -0.1153  0.3477  0.0779
 2228W        W 6292   5.500  10.102   8.395 -0.0553  0.2262 -0.0992
 2229W        W 6293   6.214   1.178   2.118 -0.0175 -0.5235  0.0566
 2230W        W 6294   7.857   5.881   2.583  0.0144  0.0801 -0.0045
 2231W        W 6295   0.850   3.316   3.684 -0.0400  0.0118 -0.2147
 2232W        W 6296   3.091   7.691   3.675  0.0912 -0.1636  0.1607
 2233W        W 6297  10.354   9.206  11.567  0.2154  0.1180  0.3377
 2234W        W 6298   1.862   0.454   9.455 -0.4073 -0.3347  0.0097
 2235W        W 6299   3.361   4.191   3.180  0.0118 -0.1111  0.1416
 2236W        W 6300   9.437   7.188   4.071  0.0497 -0.2052 -0.4617
 2237W        W 6301   6.996   8.400   0.809 -0.1556 -0.1424 -0.0005
 2238W        W 6302   1.277   4.876  11.022 -0.0764 -0.1574 -0.0417
 2239W        W 6303   1.931   6.645   4.027  0.1049 -0.1353  0.3072
 2240W        W 6304   9.746   2.157   2.629 -0.2059 -0.0639  0.0509
 2241W        W 6305   6.907   3.196   8.470 -0.1727  0.0671 -0.1510
 2242W        W 6306   1.016   8.923   4.075  0.1477 -0.3312  0.0985
 2243W        W 6307   7.382   7.370   2.750 -0.0922  0.2171 -0.0341
 2244W        W 6308   4.695   1.622   3.164 -0.4402 -0.1108  0.0877
 2245W        W 6309   1.049   2.790   7.645  0.1882  0.0788  0.1117
 2246W        W 6310   5.715  10.016  11.590  0.1500 -0.0217 -0.3145
 2247W        W 6311   5.791   5.492   0.289  0.1104  0.3274 -0.2140
 2248W        W 6312   6.167   2.305   3.541  0.1903  0.0668 -0.0106
 2249W        W 6313   4.759   5.880   3.901 -0.2207 -0.2126 -0.3388
 2250W        W 6314   0.112   1.510   2.352 -0.2542 -0.0627  0.1812
 2251W        W 6315   7.987   5.305   9.100  0.1615 -0.1379 -0.0137
 2252W        W 6316   6.217   0.797   9.844  0.1542  0.2064 -0.0994
 2253W        W 6317   4.423   5.053   3.099  0.2314  0.0644  0.3537
 2254W        W 6318   8.273   9.244  10.746 -0.0937 -0.3025 -0.0909
 2255W        W 6319   0.518   4.221   1.000 -0.1300  0.3563 -0.0559
 2256W        W 6320   5.413   3.836  10.571  0.2051  0.5821  0.0380
 2257W        W 6321   3.257  10.338   7.342  0.0535  0.3939  0.0241
 2258W        W 6322   9.888   4.966   3.859 -0.1009 -0.1793 -0.3797
 2259W        W 6323   3.208   0.527   0.010  0.1310  0.3080  0.0906
 2260W        W 6324   1.408   6.908   8.730  0.0509 -0.1606 -0.0876
 2261W        W 6325   8.879   8.719  10.117  0.2899  0.1985  0.1766
 2262W        W 6326   0.685   5.790  11.421 -0.0443 -0.0854 -0.4461
 2263W        W 6327   8.545  10.293   1.066 -0.0745 -0.0917  0.0427
 2264W        W 6328   8.824   8.448   0.258  0.0558 -0.1399  0.0768
 2265W        W 6329   4.372   0.760   0.165  0.2726  0.2627 -0.6710
 2266W        W 6330  10.092   4.320   0.052 -0.0707  0.0805  0.1270
 2267W        W 6331   4.791   0.421   0.299 -0.2701 -0.0871 -0.2429
 2268W        W 6332   8.782   0.040  10.417 -0.0576 -0.2282  0.2956
 2269W        W 6333   3.347   6.850   0.364 -0.0076 -0.0817 -0.1003
 2270W        W 6334   2.350   4.306   1.286  0.0063  0.1149 -0.1223
 2271W        W 6335   3.745   6.251   3.364  0.0542 -0.3088  0.1290
 2272W        W 6336   0.601   3.387  10.983  0.0903 -0.1474  0.1157
 2273W        W 6337   0.672   6.440   9.794  0.0041 -0.0123  0.1044
 2274W        W 6338   8.959   8.326   3.310 -0.2139 -0.0248 -0.3862
 2275W        W 6339  10.377   1.954  11.192 -0.3359 -0.0915  0.1115
 2276W        W 6340   6.349   4.183  10.722 -0.2932  0.1941  0.1934
 2277W        W 6341   6.149   0.717   1.039 -0.1663 -0.0128  0.0440
 2278W        W 6342   0.418   4.811  10.648 -0.4014  0.2528 -0.0617
 2279W        W 6343   9.540   1.427   9.445  0.0464 -0.2378  0.1022
 2280W        W 6344   8.673   2.829   1.698 -0.0636 -0.2662  0.1971
 2281W        W 6345   4.134   9.048   0.316  0.0105 -0.1351  0.1832
 2282W        W 6346   8.784   2.405  10.909  0.0958 -0.0072  0.1748
 2283W        W 6347   6.404   7.224  11.157  0.1631 -0.0550 -0.2296
 2284W        W 6348   5.134   3.844   2.441 -0.1485 -0.1497 -0.0173
 2285W        W 6349   2.030   8.437   1.581 -0.0115 -0.0824  0.0672
 2286W        W 6350   4.266   7.068   3.292 -0.1629  0.1458  0.3117
 2287W        W 6351   6.717   6.362   3.528  0.1291 -0.0966  0.0925
 2288W        W 6352   0.823   2.659   0.850 -0.1806 -0.0310  0.2182
 2289W        W 6353   7.027  10.205   8.396 -0.1400 -0.1593  0.0144
 2290W        W 6354   9.876   3.370   1.205 -0.2479 -0.1354 -0.0709
 2291W        W 6355   0.186   8.061   2.628  0.0834  0.1313 -0.1500
 2292W        W 6356   9.357   7.116   3.171 -0.1038  0.0716 -0.0436
 2293W        W 6357   6.619   6.417  11.432 -0.1889 -0.2181  0.0268
 2294W        W 6358   4.008   7.105  10.388  0.0008  0.0686 -0.3041
 2295W        W 6359   0.619   5.089   9.381 -0.0598  0.0055  0.0244
 2296W        W 6360   6.854   2.813   9.048  0.1552 -0.0641 -0.1398
 2297W        W 6361  10.190  10.541   2.602  0.1179  0.2336 -0.0252
 2298W        W 6362   5.201   8.635   2.416 -0.1504  0.0446 -0.4127
 2299W        W 6363   2.005   6.271   4.344 -0.0082 -0.2039 -0.0854
 2300W        W 6364   0.392   9.119  10.587 -0.0928  0.1409  0.0443
 2301W        W 6365   7.020   5.987   1.469 -0.0897 -0.2479  0.0582
 2302W        W 6366   1.420  10.271   3.675  0.0335 -0.2481  0.0612
 2303W        W 6367   5.157   4.959   1.431  0.2981  0.2234 -0.0850
 2304W        W 6368   9.128   5.873   1.953  0.0589  0.1276  0.0539
 2305W        W 6369   0.244   4.670   1.113 -0.2891  0.1375  0.0217
 2306W        W 6370   3.131   0.748   1.990  0.1818 -0.4038 -0.1484
 2307W        W 6371  10.544   8.864   2.454  0.1775 -0.1618 -0.0326
 2308W        W 6372   2.537   1.096   0.764 -0.2501  0.0263  0.1353
 2309W        W 6373   0.774   6.522   0.118 -0.0570  0.1479 -0.3569
 2310W        W 6374   1.979   7.633  11.110  0.2576  0.1087 -0.1893
 2311W        W 6375   8.978   3.615  10.755 -0.2421 -0.0799  0.1182
 2312W        W 6376   3.070   8.701   7.719 -0.1801  0.0583  0.0724
 2313W        W 6377   3.500   8.164   1.622 -0.0320 -0.1088 -0.0728
 2314W        W 6378   2.799   2.024   8.198  0.3085 -0.1174  0.1665
 2315W        W 6379   0.959  10.137   0.754 -0.1924 -0.0108 -0.2691
 2316W        W 6380   9.913   5.226  10.874 -0.1398 -0.1060  0.2388
 2317W        W 6381   2.761   7.402   7.865  0.0045 -0.1159  0.0556
 2318W        W 6382   1.838   7.773  10.629 -0.0504 -0.1240  0.2950
 2319W        W 6383   1.275   4.066   8.608 -0.0247 -0.2162  0.0340
 2320W        W 6384   0.084   9.299   3.189 -0.1336 -0.1845 -0.1231
 2321W        W 6385   6.774   8.724   9.266 -0.0911  0.0759 -0.0573
 2322W        W 6386  10.425   7.853   0.133 -0.2081 -0.3528  0.2204
 2323W        W 6387   0.108   7.657  11.406 -0.1463 -0.1063 -0.1207
 2324W        W 6388   3.673   8.469   9.522 -0.0600  0.1961 -0.1727
 2325W        W 6389   1.667   5.516   8.711 -0.1291  0.1809  0.1028
 2326W        W 6390   9.269   0.243   3.494  0.4817 -0.2068 -0.0509
 2327W        W 6391   3.722   9.719   2.496 -0.1449 -0.1983 -0.2969
 2328W        W 6392   6.041   1.330  10.990 -0.1721  0.2774 -0.0748
 2329W        W 6393   0.188   9.833   1.998 -0.0649  0.1848 -0.1605
 2330W        W 6394   4.334   6.008   8.437  0.1100 -0.0061 -0.0304
 2331W        W 6395   7.990   5.833   9.091  0.2394 -0.1334 -0.1016
 2332W        W 6396   9.349   6.625   1.150  0.1696 -0.0158  0.3345
 2333W        W 6397   3.161   7.827   2.004  0.2271 -0.2805  0.0362
 2334W        W 6398   5.438   6.318  10.730  0.2573  0.1612  0.1905
 2335W        W 6399   2.108   6.076   3.382 -0.1828 -0.2007  0.0866
 2336W        W 6400   8.525   6.656   0.073 -0.1355 -0.1578 -0.1461
 2337W        W 6401  10.505   5.476  10.163 -0.0529 -0.3372 -0.2022
 2338W        W 6402   8.242   0.496   9.833 -0.3105 -0.1517 -0.2902
 2339W        W 6403  10.344   6.061   8.410 -0.1022  0.1322  0.1096
 2340W        W 6404   9.791   8.613   1.975  0.2669 -0.3136  0.0751
 2341W        W 6405   3.776   2.157   3.250 -0.0869  0.5083 -0.2698
 2342W        W 6406   2.292   1.706   8.278  0.1358  0.3410 -0.2006
 2343W        W 6407   2.476   6.019   2.583  0.2488 -0.1302  0.0646
 2344W        W 6408   4.555   3.029   1.324  0.0536  0.1936  0.0342
 2345W        W 6409   1.205   5.805   9.292 -0.0845  0.1731  0.0151
 2346W        W 6410   0.204   6.358  11.331  0.1121 -0.0024  0.1826
 2347W        W 6411   4.133   3.759   2.851  0.1557  0.0372 -0.2104
 2348W        W 6412   1.462  10.096   0.326 -0.0409  0.1251  0.1785
 2349W        W 6413   7.711   1.129   9.471 -0.1098  0.0870  0.0395
 2350W        W 6414   9.483   6.281   9.053  0.2395  0.1418  0.0736
 2351W        W 6415   0.338   4.314  10.522  0.0736  0.0839 -0.0958
 2352W        W 6416   0.106   2.847   2.104 -0.1432 -0.0911  0.0087
 2353W        W 6417   2.418   2.059   7.770  0.3945 -0.1351  0.5572
 2354W        W 6418   7.045  10.258  10.815  0.0599  0.1524 -0.0293
 2355W        W 6419   4.388   6.439  11.517 -0.2729 -0.0482  0.0858
 2356W        W 6420   7.074   0.120   0.419  0.0179  0.3698 -0.2528
 2357W        W 6421   9.518   6.672   7.759 -0.1627 -0.2009 -0.3848
 2358W        W 6422   7.195   9.749   1.905  0.2894 -0.2744  0.0167
 2359W        W 6423  10.230  10.118   9.218  0.1201 -0.1095 -0.1592
 2360W        W 6424   4.756   3.568  10.250 -0.2210  0.1418 -0.0569
 2361W        W 6425   7.048   9.133  10.214 -0.0223  0.1087  0.0646
 2362W        W 6426   6.287   5.181   8.992 -0.0146  0.1709 -0.1181
 2363W        W 6427   7.736   2.580   1.302  0.2460 -0.0530  0.1649
 2364W        W 6428   7.400   0.121   2.840 -0.0518  0.0650  0.1188
 2365W        W 6429   2.584   8.086   8.228 -0.4590  0.0280  0.2907
 2366W        W 6430   2.283   8.572   2.937 -0.0798 -0.1757  0.1355
 2367W        W 6431   9.802   6.465  10.783 -0.1561  0.1598  0.1952
 2368W        W 6432   9.156   2.657   8.964  0.0156 -0.2399  0.3172
 2369W        W 6433   3.936  10.091   1.513  0.1312  0.0709  0.0542
 2370W        W 6434   5.721   6.682   1.712  0.0047  0.0837  0.1111
 2371W        W 6435   5.544   3.180   3.757  0.0632  0.1886  0.0218
 2372W        W 6436   3.296   3.958   4.001 -0.0778 -0.0177 -0.1241
 2373W        W 6437   4.003   3.162   0.759  0.4527 -0.1251 -0.2905
 2374W        W 6438   7.603   6.987  10.679  0.3658  0.1557 -0.1655
 2375W        W 6439   5.086   9.263  10.835  0.0891  0.1998 -0.0850
 2376W        W 6440   5.656   5.527   9.292  0.1884 -0.1170 -0.0423
 2377W        W 6441   9.710   9.878   0.646 -0.0640 -0.1285  0.1145
 2378W        W 6442   0.209   0.650   2.686  0.5118  0.1647  0.0130
 2379W        W 6443   8.370   2.433   0.548  0.3470  0.2265 -0.3659
 2380W        W 6444   7.868   5.821   1.119  0.1327 -0.1091  0.0223
 2381W        W 6445  10.140   5.434   1.238  0.0859 -0.2640 -0.0746
 2382W        W 6446   7.267   2.479   3.118 -0.0294 -0.1790 -0.2335
 2383W        W 6447   1.521   0.878   9.826 -0.0578 -0.2852  0.1905
 2384W        W 6448   7.098   4.648   2.385  0.2071  0.1249 -0.2678
 2385W        W 6449   9.200   4.273  10.029  0.2089 -0.0513  0.0615
 2386W        W 6450   3.451   0.253  10.648  0.0834 -0.2619 -0.0765
 2387W        W 6451   9.853   8.044   1.820  0.1254 -0.0443 -0.1054
 2388W        W 6452   7.151   5.105   8.301  0.0788 -0.0754 -0.1337
 2389W        W 6453   3.930   9.575   9.631 -0.0022 -0.1562  0.0164
 2390W        W 6454   4.113   6.365   1.802 -0.2789  0.0339  0.0152
 2391W        W 6455   1.334   7.227   3.686 -0.0421 -0.1744  0.1752
 2392W        W 6456   4.181   0.641  10.067 -0.0125  0.2712 -0.1338
 2393W        W 6457   5.169   3.529   9.780  0.0126  0.0388 -0.3551
 2394W        W 6458   8.437   0.830  10.302  0.0080 -0.1132 -0.1750
 2395W        W 6459   5.641   3.837  11.450 -0.0633 -0.1323  0.2942
 2396W        W 6460   6.155   8.563   1.255 -0.2515 -0.1248 -0.2463
 2397W        W 6461   4.551   3.181  11.266  0.1418 -0.1264  0.1534
 2398W        W 6462   5.138   7.315   7.734 -0.3694 -0.1156 -0.1758
 2399W        W 6463   8.443   5.140   1.888  0.0885 -0.0911 -0.0890
 2400W        W 6464   2.693   6.498   9.781 -0.4250 -0.3316  0.1313
 2401W        W 6465   3.839   9.984  10.605  0.0109 -0.0234  0.3157
 2402W        W 6466   0.815   4.300   9.260 -0.0243  0.0298 -0.1003
 2403W        W 6467   5.955   9.862  10.233  0.3527  0.1159 -0.1024
 2404W        W 6468   3.529   9.601   1.283 -0.1568 -0.1476  0.2035
 2405W        W 6469   6.830   3.059   0.916 -0.0719  0.1873 -0.1804
 2406W        W 6470   6.533  10.055   9.233  0.0562  0.0188 -0.1492
 2407W        W 6471   6.664   0.866   2.357  0.2444  0.4129  0.0561
 2408W        W 6472   6.687   6.901  10.584  0.1172  0.2855 -0.2955
 2409W        W 6473  10.535   5.001   3.562  0.0250  0.0351 -0.1550
 2410W        W 6474   6.728   8.056   9.457 -0.1659 -0.1764 -0.1288
 2411W        W 6475   5.896  10.590   9.643 -0.0294 -0.1777  0.1977
 2412W        W 6476   4.175   3.224   9.340  0.3126 -0.1433  0.2646
 2413W        W 6477   6.908  10.005   0.183 -0.1575  0.0129  0.0159
 2414W        W 6478   6.215   0.365   0.739 -0.2490  0.0787  0.1780
 2415W        W 6479   5.910   0.380   9.970 -0.0549  0.2338  0.1396
 2416W        W 6480   9.488   2.885   3.170  0.1029 -0.2018 -0.2586
 2417W        W 6481   8.949   8.982  10.568 -0.0845  0.3703 -0.3230
 2418W        W 6482   0.890   0.339  10.215 -0.1440  0.1947  0.1450
 2419W        W 6483  10.179   8.423   2.398  0.1272 -0.0867 -0.3271
 2420W        W 6484   4.221   9.185   8.899  0.2068 -0.1459 -0.1097
 2421W        W 6485   8.155  10.533   2.072 -0.0720  0.1677  0.1280
 2422W        W 6486   2.072   4.768   2.942  0.2707 -0.2859 -0.1034
 2423W        W 6487   3.336   9.272   0.166 -0.3394  0.1338  0.1905
 2424W        W 6488   9.077  10.227   8.845  0.0637  0.2123 -0.1671
 2425W        W 6489   6.744   5.006   0.461  0.4305 -0.1746  0.2010
 2426W        W 6490   1.739   1.322   2.140  0.1771  0.0121  0.4416
 2427W        W 6491   1.252   5.664   0.432  0.1854 -0.0130 -0.1457
 2428W        W 6492   0.288   2.153   1.589 -0.0992  0.1318  0.1571
 2429W        W 6493   7.165   0.049   0.869 -0.2194  0.0995  0.1481
 2430W        W 6494   6.243   4.085   1.222 -0.1480 -0.1023 -0.0918
 2431W        W 6495   4.693   5.073   0.672  0.1184 -0.3021 -0.2037
 2432W        W 6496   2.359   1.040   3.321 -0.0509  0.2966 -0.1169
 2433W        W 6497   5.606   1.169  11.343  0.3791  0.2104 -0.1034
 2434W        W 6498   9.514   3.922  10.144  0.2036  0.0331  0.1920
 2435W        W 6499   0.314   8.371   3.103 -0.0382  0.0661  0.2656
 2436W        W 6500   5.421   9.145   7.406  0.2533  0.3761  0.0802
 2437W        W 6501   9.472  10.564  10.985  0.0713  0.3860  0.5578
 2438W        W 6502   1.421   2.043  10.089  0.2052 -0.2194 -0.0778
 2439W        W 6503  10.165   6.745   1.304 -0.0827 -0.3164 -0.1611
 2440W        W 6504   0.795  10.552   0.519 -0.2061  0.1997 -0.2604
 2441W        W 6505   1.777   2.692   9.239 -0.0787 -0.3968  0.0760
 2442W        W 6506   9.279   6.900   2.684 -0.1036 -0.0121 -0.1798
 2443W        W 6507   6.618   4.485   0.454 -0.1704 -0.2677 -0.1250
 2444W        W 6508   5.680   6.723   2.418  0.0517  0.3988  0.0561
 2445W        W 6509   0.838   3.121  10.107  0.1195 -0.1193  0.1544
 2446W        W 6510   0.400  10.017   2.482  0.0540  0.2586  0.3610
 2447W        W 6511   0.707  10.492  10.142 -0.3081  0.0541 -0.2673
 2448W        W 6512   8.352   9.485   1.759 -0.4158 -0.0132  0.2737
 2449W        W 6513   5.434   4.918  10.102  0.1922 -0.1648  0.0884
 2450W        W 6514   0.777   1.392  10.448  0.0343 -0.0371 -0.1957
 2451W        W 6515   3.482   3.424   9.807 -0.0675  0.0540  0.4191
 2452W        W 6516   0.713   7.607   0.188  0.2180  0.2830  0.1614
 2453W        W 6517   8.331   9.658   8.630  0.2655 -0.0108 -0.0502
 2454W        W 6518   3.636   8.044  11.271 -0.1549  0.1072  0.2376
 2455W        W 6519   8.290   7.653   3.178  0.0080  0.1706  0.0853
 2456W        W 6520   3.440   7.957   9.443  0.1109 -0.0912 -0.1206
 2457W        W 6521   1.879   5.563   0.462 -0.1580 -0.0408 -0.1040
 2458W        W 6522   2.775   5.430   3.087  0.1543 -0.0106  0.3087
 2459W        W 6523   6.688   6.674   2.222  0.0615  0.2651 -0.1015
 2460W        W 6524   0.969   9.253   1.525  0.0842  0.0039 -0.0388
 2461W        W 6525   1.652   3.442   3.352  0.0445 -0.1724  0.2851
 2462W        W 6526   4.009   0.733   1.498  0.3251  0.0679 -0.0131
 2463W        W 6527   1.922   9.262   2.205 -0.0592 -0.0174  0.1965
 2464W        W 6528   4.234   1.661   1.547 -0.0256  0.1291 -0.0603
 2465W        W 6529   0.196   3.183  11.297  0.0865 -0.2158  0.1940
 2466W        W 6530   6.860   5.500   2.763 -0.1238 -0.4186 -0.0656
 2467W        W 6531   6.289   5.531   1.677  0.3075  0.3069 -0.0752
 2468W        W 6532   5.950   8.703   9.379  0.1356 -0.0887  0.0881
 2469W        W 6533   9.877   9.988  10.058 -0.0103 -0.0780  0.2304
 2470W        W 6534   8.355   1.948   9.069 -0.2327 -0.0024  0.2216
 2471W        W 6535   8.949   9.253   2.851  0.0151  0.0971  0.1213
 2472W        W 6536   1.214   8.542   2.391 -0.1205  0.0003 -0.0622
 2473W        W 6537   6.108   1.461   2.634 -0.0601  0.2125 -0.2270
 2474W        W 6538   1.035   1.184   3.362 -0.0725  0.2892  0.3251
 2475W        W 6539  10.055   0.098   0.737 -0.1170  0.0056 -0.0284
 2476W        W 6540   9.305   4.817  11.065  0.3064 -0.2912  0.0348
 2477W        W 6541   7.964   0.933   3.107  0.4641 -0.4594  0.0176
 2478W        W 6542   0.245   2.480  10.352  0.2094 -0.0027 -0.3066
 2479W        W 6543   4.900   4.489   1.204 -0.1092  0.1852  0.1425
 2480W        W 6544   4.190   0.630  11.011 -0.1028 -0.2167  0.1501
 2481W        W 6545   7.400   6.866   2.840 -0.3636 -0.0237  0.1062
 2482W        W 6546   2.130   3.241   3.107 -0.0525  0.2637 -0.0225
 2483W        W 6547   1.459   7.323   0.905  0.1417  0.0958  0.1999
 2484W        W 6548   3.785   8.531   1.310  0.0363 -0.1096  0.2476
 2485W        W 6549   6.217   1.590   0.266 -0.0016 -0.1497 -0.1871
 2486W        W 6550   3.688   6.072  10.389  0.0318 -0.0798 -0.2355
 2487W        W 6551  10.290   0.104   8.277 -0.3662 -0.2301 -0.0393
 2488W        W 6552   9.755   7.770   8.170 -0.2067  0.0405 -0.0718
 2489W        W 6553   6.731   4.990   9.013  0.0493 -0.1097  0.0785
 2490W        W 6554   2.244   9.835   8.951 -0.0341  0.1487 -0.0901
 2491W        W 6555   9.234   2.783   1.847  0.1951 -0.0571  0.1087
 2492W        W 6556   4.999   0.350   9.537  0.1522  0.1359  0.0020
 2493W        W 6557   4.683   7.236   1.024  0.1461 -0.1890  0.3016
 2494W        W 6558   9.669   2.648   2.476  0.2065  0.0439 -0.2682
 2495W        W 6559   8.896   8.211   2.572  0.2835 -0.0912  0.1192
 2496W        W 6560   5.438   3.641   8.701 -0.0250 -0.2746 -0.1279
 2497W        W 6561   7.234   5.122  10.252 -0.1532 -0.0228  0.0149
 2498W        W 6562   8.909   1.912   2.782  0.3919 -0.1639 -0.0959
 2499W        W 6563  10.047   4.328   3.543  0.4392  0.0328 -0.2496
 2500W        W 6564   9.634   1.876   0.845 -0.0833  0.1239  0.0258
 2501W        W 6565   8.669   5.424  10.999  0.1848 -0.0552  0.1390
 2502W        W 6566   4.428  10.339  11.397  0.0917 -0.0419  0.0663
 2503W        W 6567   3.601   8.708   3.604  0.2449  0.2837 -0.1133
 2504W        W 6568   1.285   9.775   9.707 -0.0064  0.2150 -0.0738
 2505W        W 6569  10.161   0.740  10.316 -0.1119 -0.0491 -0.0671
 2506W        W 6570   5.110   1.926   3.437 -0.0964  0.0261 -0.0202
 2507W        W 6571   7.091   5.290   2.273  0.4402 -0.3770  0.2262
 2508W        W 6572   6.825   5.023  10.993  0.0406  0.1534  0.1791
 2509W        W 6573  10.106   9.512   1.420  0.0441  0.0531 -0.0977
 2510W        W 6574   0.987   6.371  10.749 -0.1218 -0.4454  0.1156
 2511W        W 6575   0.712   9.762   0.385 -0.2538  0.1871  0.2659
 2512W        W 6576   7.985   3.259   1.575 -0.3210  0.3066  0.3074
 2513W        W 6577   8.163   5.331  10.971  0.0569  0.1564 -0.0779
 2514W        W 6578  10.599   5.359   0.734  0.4317  0.2779 -0.3491
 2515W        W 6579   9.915   3.344   4.265 -0.0090  0.1556 -0.1706
 2516W        W 6580   8.922  10.040   9.873  0.0404  0.0701 -0.0509
 2517W        W 6581   1.157   1.795   0.001  0.0338 -0.1978  0.0554
 2518W        W 6582   8.707   0.877   1.618 -0.0905  0.1554  0.1661
 2519W        W 6583   0.772   3.693   8.043 -0.1220 -0.2911 -0.0699
 2520W        W 6584   3.395   3.545   0.542  0.0256  0.2130  0.1509
 2521W        W 6585   0.276   0.070  10.360 -0.0135  0.1484  0.0353
 2522W        W 6586   7.415   0.893   8.447  0.2180  0.2615  0.5541
 2523W        W 6587   8.893   6.917   3.378  0.1121  0.0389 -0.1974
 2524W        W 6588   0.197   0.984   2.314 -0.0354  0.0712  0.2367
 2525W        W 6589   4.568   1.549  10.969 -0.2571  0.2150 -0.2158
 2526W        W 6590   3.145   8.819  10.934 -0.0293 -0.6492  0.4295
 2527W        W 6591   3.518   4.357  11.171  0.0108 -0.1443  0.0409
 2528W        W 6592   1.398   0.832  10.446  0.3005  0.1224  0.2940
 2529W        W 6593   4.039  10.292  10.190 -0.0296  0.4706  0.2758
 2530W        W 6594   1.353   5.085   1.250  0.1049 -0.1009  0.0253
 2531W        W 6595   9.887   0.801   2.921  0.0148 -0.2789 -0.2085
 2532W        W 6596   4.961   0.719   8.787  0.2528  0.2758 -0.0200
 2533W        W 6597   4.462   0.845   2.982  0.2595 -0.3613  0.1533
 2534W        W 6598   4.863   6.007   0.780  0.1580  0.1692 -0.1539
 2535W        W 6599   9.997   9.301   9.664 -0.4424 -0.0004 -0.2176
 2536W        W 6600   9.507  10.363   0.436  0.0284  0.0630 -0.2216
 2537W        W 6601   2.600   2.489   2.373  0.1210  0.2229  0.0752
 2538W        W 6602  10.276   9.134  10.130 -0.1308 -0.2032  0.0291
 2539W        W 6603   3.416   3.402  10.931 -0.1575  0.0303  0.0988
 2540W        W 6604   1.796   1.107  10.244 -0.0513  0.1823 -0.2641
 2541W        W 6605   5.904   4.690   9.446  0.1585 -0.0409  0.1344
 2542W        W 6606   9.462   5.579   3.304 -0.0179 -0.0128 -0.1648
 2543W        W 6607   1.448   5.308   8.297  0.0171 -0.1588 -0.0299
 2544W        W 6608   6.439   2.251  10.447  0.3468 -0.1022 -0.1637
 2545W        W 6609   8.224   8.346   3.993 -0.2138 -0.0720 -0.1084
 2546W        W 6610   6.526   9.619  11.073 -0.3301 -0.0985 -0.2279
 2547W        W 6611   3.962   0.793   0.972 -0.2154 -0.1296  0.1615
 2548W        W 6612   8.251   6.897   3.216  0.0702  0.0354 -0.1518
 2549W        W 6613   5.332   6.543   9.344  0.2856 -0.2619 -0.3626
 2550W        W 6614   6.833   3.801   2.312  0.0106  0.0002  0.0923
 2551W        W 6615   2.425   6.250   0.579 -0.1799 -0.3302  0.1102
 2552W        W 6616   4.485   0.839   1.109 -0.0704 -0.2067 -0.0758
 2553W        W 6617   3.296   7.194   0.787 -0.1060  0.0034  0.1965
 2554W        W 6618   6.890   5.547  10.221 -0.0423 -0.0124  0.1141
 2555W        W 6619   8.391   3.606   9.741  0.0271  0.0551  0.1128
 2556W        W 6620   8.848  10.364   9.547 -0.0956  0.1329  0.0384
 2557W        W 6621   5.716   2.674   1.508 -0.0146  0.1793 -0.0945
 2558W        W 6622   1.333   5.690   2.011 -0.3349 -0.0164  0.1288
 2559W        W 6623   9.796   1.015   8.507  0.2688  0.2242  0.2321
 2560W        W 6624   2.814   3.114   9.901 -0.1259  0.3698  0.3169
 2561W        W 6625   0.515   7.104   1.188 -0.1115  0.0149  0.1865
 2562W        W 6626  10.005   6.553   7.939 -0.1265 -0.0913  0.0549
 2563W        W 6627   1.554   6.409   8.810 -0.3616 -0.2357 -0.1095
 2564W        W 6628   4.410   1.316   0.242 -0.4256 -0.1476  0.1370
 2565W        W 6629   5.348   1.707   0.296 -0.2891 -0.0514 -0.1811
 2566W        W 6630   6.600   7.759   1.492 -0.0477 -0.0776 -0.3909
 2567W        W 6631   9.260  10.152   0.882 -0.0849 -0.0453 -0.0047
 2568W        W 6632   3.431   2.445   1.272  0.1814  0.2327  0.2188
 2569W        W 6633   3.706   6.928   0.835 -0.0130 -0.0767 -0.0117
 2570W        W 6634   0.956   8.890   0.492  0.0900  0.1082  0.0828
 2571W        W 6635   1.360   4.543   8.829 -0.2461 -0.2353  0.3140
 2572W        W 6636  10.216   7.699   1.497  0.0843  0.2202 -0.1974
 2573W        W 6637   3.454   8.313   0.985 -0.2479 -0.0021 -0.0190
 2574W        W 6638   4.196   8.988  11.115 -0.2089 -0.2646  0.3446
 2575W        W 6639   1.675   9.061   3.420  0.0997  0.1480 -0.2128
 2576W        W 6640   4.261   3.363   2.588  0.0310 -0.3378  0.0986
 2577W        W 6641   3.448   7.396   8.566  0.0821  0.1519 -0.1508
 2578W        W 6642   3.583   9.713   7.321  0.2195  0.0375 -0.0910
 2579W        W 6643   2.610   7.911   3.334 -0.1167 -0.0474 -0.3557
 2580W        W 6644   3.761   6.205   2.885 -0.0812 -0.0729  0.3253
 2581W        W 6645   2.719  10.081   0.948 -0.0898  0.1950  0.1729
 2582W        W 6646   1.485   2.810   1.692 -0.0734 -0.2575 -0.0075
 2583W        W 6647   0.363   7.416  11.007 -0.0079  0.1730 -0.2532
 2584W        W 6648   8.206   5.458   1.114  0.4012 -0.1255 -0.1196
 2585W        W 6649   0.479   6.292   8.878  0.0259  0.1047  0.1689
 2586W        W 6650   0.231   5.576   2.271 -0.0023  0.0535  0.1434
 2587W        W 6651   0.227   0.054   3.490 -0.0824  0.2239  0.2506
 2588W        W 6652   9.093   7.970   2.948  0.2009 -0.0577 -0.3706
 2589W        W 6653   6.311   5.659   0.463 -0.4419  0.1652  0.0895
 2590W        W 6654   7.915   6.477  10.499  0.2316  0.0418  0.0176
 2591W        W 6655   9.801   5.129   9.881  0.0461 -0.1119  0.0739
 2592W        W 6656   0.903   5.243   1.626 -0.1854 -0.2905  0.2307
 2593W        W 6657   8.475   2.271   0.119  0.1026  0.5287  0.0671
 2594W        W 6658   5.657   7.416   9.660  0.1915 -0.0528 -0.0762
 2595W        W 6659   2.322   8.852   0.882 -0.3087 -0.2566  0.3484
 2596W        W 6660   8.821   9.627   8.780 -0.0141 -0.3223  0.0725
 2597W        W 6661   2.042   0.161   8.676 -0.0265 -0.2079  0.0502
 2598W        W 6662   0.543   9.509   2.884  0.0447 -0.3227  0.1366
 2599W        W 6663   7.470  10.146   2.076 -0.1595 -0.1270 -0.0105
 2600W        W 6664   9.448   6.910  10.135  0.0344 -0.2404  0.1090
 2601W        W 6665   3.503   6.404   8.635  0.3354 -0.1402  0.0168
 2602W        W 6666   9.602   1.858   1.942 -0.3640  0.1099 -0.0543
 2603W        W 6667   3.079   3.577  10.556  0.5426 -0.1933 -0.1615
 2604W        W 6668   3.181   6.774   8.839  0.1359 -0.3524 -0.2768
 2605W        W 6669   3.183   3.964   8.417 -0.1579  0.0061 -0.0194
 2606W        W 6670   2.375   9.249   9.113 -0.0870  0.0780  0.0067
 2607W        W 6671   4.440   5.143   8.877 -0.1052 -0.0590  0.1002
 2608W        W 6672   4.271   2.493   2.176 -0.4597  0.1539 -0.0175
 2609W        W 6673   1.957   4.232  10.959  0.1748  0.8511 -0.0699
 2610W        W 6674   1.393   4.442   8.270 -0.2774 -0.0477 -0.0882
 2611W        W 6675   1.655   7.588   2.008  0.1712 -0.1746  0.0353
 2612W        W 6676   1.124   3.599  11.639 -0.0895 -0.0208  0.2021
 2613W        W 6677   7.411   7.898  10.315 -0.0712 -0.0733  0.0921
 2614W        W 6678   6.976   5.289   3.595 -0.1373  0.0416 -0.1424
 2615W        W 6679   7.497   7.479   9.509 -0.1359 -0.0740  0.1546
 2616W        W 6680   4.172   5.945   2.015 -0.0298 -0.3592 -0.3337
 2617W        W 6681   6.750   2.229  11.482  0.0895 -0.1112 -0.0990
 2618W        W 6682   6.018   7.945  10.128  0.1765 -0.1444  0.0352
 2619W        W 6683   5.978   4.578  10.897 -0.0315 -0.0332  0.1428
 2620W        W 6684   5.836   7.335   7.573  0.4171  0.1966  0.1487
 2621W        W 6685  10.283   3.676   1.360 -0.1486 -0.3883 -0.1064
 2622W        W 6686   6.122   2.182   9.934  0.1567  0.1227 -0.3477
 2623W        W 6687   0.909   3.357   9.247 -0.0609 -0.0821  0.0360
 2624W        W 6688   9.135   4.684   3.208  0.1947  0.1836 -0.2291
 2625W        W 6689   4.310  10.568   2.612  0.1764 -0.0035 -0.0650
 2626W        W 6690   3.159   3.401  11.365 -0.2003  0.0050  0.0438
 2627W        W 6691   0.346  10.092  10.762 -0.2491 -0.3068  0.1545
 2628W        W 6692   3.869   0.282   4.249  0.0306  0.0241  0.1080
 2629W        W 6693   6.840   7.970   8.445 -0.0491 -0.1643 -0.0167
 2630W        W 6694   2.201   8.216   7.941 -0.0173  0.1184  0.3018
 2631W        W 6695   1.617   0.060   2.803 -0.2000  0.2071 -0.0324
 2632W        W 6696   8.641   2.852   0.504  0.1948 -0.0526 -0.0939
 2633W        W 6697   5.915   7.416  10.464  0.2484  0.0358  0.1553
 2634W        W 6698  10.256   4.697   3.263  0.1595 -0.1045 -0.2247
 2635W        W 6699   6.900   9.201   7.132 -0.0824  0.0396  0.0147
 2636W        W 6700   7.234   8.077  11.366  0.3219 -0.2742 -0.3714
 2637W        W 6701   3.064   7.918   7.994 -0.3144  0.0450  0.4409
 2638W        W 6702   3.028   5.086  10.859  0.1115  0.0164 -0.2898
 2639W        W 6703   5.555   2.523   9.525  0.0395  0.1543  0.1176
 2640W        W 6704   9.907   7.271   1.313  0.0355 -0.4130  0.2161
 2641W        W 6705   8.473   8.810   0.545  0.1715  0.0473 -0.0901
 2642W        W 6706   8.677   9.090   8.029 -0.0329 -0.0061 -0.1902
 2643W        W 6707   1.569   6.809   0.042  0.2407  0.3914 -0.0238
 2644W        W 6708   8.194   3.240   3.714 -0.0687 -0.3662  0.1049
 2645W        W 6709   5.800   5.102   9.054  0.1410  0.0732 -0.0001
 2646W        W 6710   4.111   3.901   1.146 -0.1194  0.0338 -0.0825
 2647W        W 6711   0.240   8.422   8.707  0.1267 -0.2117 -0.3132
 2648W        W 6712   0.548   2.090   2.598  0.0795  0.0520  0.0358
 2649W        W 6713   9.347   0.897   1.910 -0.1044 -0.0462  0.1415
 2650W        W 6714   9.146   3.861   3.962  0.1490 -0.1520  0.2269
 2651W        W 6715   2.917   6.709   9.338  0.1346 -0.1301  0.1910
 2652W        W 6716   6.656   7.976   8.888 -0.3080 -0.0718 -0.1028
 2653W        W 6717   3.919   5.639  11.276 -0.1537  0.4459 -0.0674
 2654W        W 6718   0.514   5.240   0.840  0.0408  0.4909  0.2133
 2655W        W 6719   0.527   2.032  10.590  0.0069 -0.0342  0.2267
 2656W        W 6720   0.797   8.321   2.846  0.0682 -0.0513  0.2304
 2657W        W 6721   1.320   1.359   8.095  0.1430 -0.1089  0.1487
 2658W        W 6722   4.618   9.316   1.954  0.1047 -0.0660  0.1125
 2659W        W 6723   1.483   2.597  11.624  0.0251 -0.0006 -0.0211
 2660W        W 6724   7.155   5.277   0.406 -0.0648  0.0468  0.2254
 2661W        W 6725   9.798   5.565   8.279 -0.2765 -0.2605  0.1634
 2662W        W 6726   5.714   8.146  11.096 -0.2482 -0.1336 -0.2085
 2663W        W 6727  10.574   0.084   0.902 -0.0307  0.2347 -0.0080
 2664W        W 6728   7.678   5.853   3.092  0.2628 -0.1704  0.3661
 2665W        W 6729   7.870   5.983   9.646 -0.3388 -0.1279 -0.1499
 2666W        W 6730   8.631   0.266   8.975  0.3019  0.0715  0.4931
 2667W        W 6731   3.934   5.427   3.204  0.1298  0.0721  0.1703
 2668W        W 6732   4.722   3.170   2.758 -0.2914 -0.2559  0.2686
 2669W        W 6733   7.195   8.694   8.114 -0.1738  0.2589 -0.4198
 2670W        W 6734   8.945   8.849   0.460  0.0489 -0.1092 -0.1397
 2671W        W 6735   7.006   0.645   9.551  0.2268  0.1205  0.2607
 2672W        W 6736   1.809   8.072   0.464 -0.1668  0.0032  0.1259
 2673W        W 6737   5.431  10.201   4.101 -0.1017 -0.1559 -0.0160
 2674W        W 6738   9.960   6.938  11.598 -0.1746 -0.1388 -0.1427
 2675W        W 6739   5.139   1.422   1.856  0.0032 -0.1037  0.1719
 2676W        W 6740   3.057   3.244   0.806 -0.2626 -0.0405  0.1210
 2677W        W 6741  10.449   0.263   7.822  0.2413 -0.0039 -0.1271
 2678W        W 6742   8.508   8.967   2.716  0.0039 -0.0932  0.1009
 2679W        W 6743   3.954   9.557   0.335  0.0837 -0.1104  0.0817
 2680W        W 6744   1.131   5.347   8.677  0.1346 -0.2507  0.1127
 2681W        W 6745   3.612   7.752   2.069  0.2574 -0.1313  0.0815
 2682W        W 6746   1.397   9.318   0.773  0.3591  0.1466 -0.0114
 2683W        W 6747   1.109   8.014  11.400 -0.1452  0.1713  0.0681
 2684W        W 6748   1.635  10.119   2.147  0.0629 -0.0786  0.1397
 2685W        W 6749   2.528   2.938  10.728 -0.3832  0.1813  0.0333
 2686W        W 6750   3.123   9.773   9.259  0.1158  0.0555 -0.0544
 2687W        W 6751   6.141   5.386   9.523 -0.1103 -0.2476 -0.0205
 2688W        W 6752   3.726   7.854   8.670 -0.1378  0.0018  0.1475
 2689W        W 6753   5.605  10.271  11.050 -0.3618 -0.0668  0.3115
 2690W        W 6754   2.742   1.304   0.330 -0.0299  0.2859 -0.0727
 2691W        W 6755   3.321   0.315  10.153  0.1321  0.1099  0.2526
 2692W        W 6756   3.964   2.755  11.015  0.0157  0.2365  0.0930
 2693W        W 6757   9.951   6.659  10.259  0.1933  0.1090  0.2113
 2694W        W 6758   4.607   0.545   3.602  0.0810  0.1013 -0.0835
 2695W        W 6759   3.933   3.487   0.358  0.3495  0.2647  0.2065
 2696W        W 6760   2.948   6.301   3.317 -0.1799  0.1051  0.3286
 2697W        W 6761   4.490   6.441   0.861 -0.2116 -0.0287  0.0505
 2698W        W 6762   5.537   8.723  11.079 -0.1396  0.3516 -0.1657
 2699W        W 6763  10.081  10.421   8.701  0.0425 -0.1029 -0.3624
 2700W        W 6764   0.673   1.507   0.130  0.0858 -0.0363 -0.0230
 2701W        W 6765   7.905   2.159   2.167  0.0235  0.2272 -0.0243
 2702W        W 6766   5.592   2.938   0.923  0.1433  0.1771  0.0916
 2703W        W 6767  10.209   3.099  10.008 -0.0418 -0.0348 -0.1104
 2704W        W 6768   8.743   3.855   3.306  0.0394 -0.0240 -0.0076
 2705W        W 6769   9.881   7.467   9.092  0.2570 -0.0582  0.0086
 2706W        W 6770   5.607   9.720   9.596 -0.1118 -0.1954 -0.0352
 2707W        W 6771   8.549   0.214   1.322  0.0635  0.1309  0.2254
 2708W        W 6772  10.534   9.236   0.403  0.0995 -0.0236 -0.1656
 2709W        W 6773   7.472   6.462   1.481 -0.0768  0.3341 -0.4025
 2710W        W 6774   3.769   9.504  10.629  0.0694 -0.0965 -0.2885
 2711W        W 6775  10.324   5.694   8.023 -0.0012  0.2514  0.0129
 2712W        W 6776   8.356   0.391   0.634  0.0565  0.0533  0.1704
 2713W        W 6777   4.171   4.559   1.770  0.1277  0.0366  0.0025
 2714W        W 6778   3.052  10.012   1.428 -0.2960  0.0438  0.0729
 2715W        W 6779   4.904   3.808   9.380  0.3191 -0.1189 -0.0719
 2716W        W 6780   0.949   2.504   8.187  0.2120 -0.0808  0.0577
 2717W        W 6781   9.914   1.540   1.670 -0.0672 -0.0726  0.0472
 2718W        W 6782   6.407   8.918  10.214 -0.0165  0.0561 -0.0353
 2719W        W 6783  10.292   4.272   2.895  0.1166  0.0423 -0.0453
 2720W        W 6784  10.357   2.832   3.592  0.0856 -0.0335 -0.5705
 2721W        W 6785   4.762   9.523   1.451 -0.2499 -0.0906  0.0791
 2722W        W 6786   0.196   9.330   9.132 -0.2998  0.0454  0.0101
 2723W        W 6787   5.905   7.120   0.750 -0.0288  0.1811  0.2702
 2724W        W 6788   7.730   7.745   7.741 -0.0103  0.1520 -0.2132
 2725W        W 6789   1.316   4.616  10.537 -0.1175  0.3960  0.0256
 2726W        W 6790   5.533   1.644   2.084  0.1242 -0.1006  0.1596
 2727W        W 6791   2.203   7.898   1.382 -0.5765 -0.0659  0.0074
 2728W        W 6792   7.124   9.135   2.583  0.1350  0.0217 -0.1111
 2729W        W 6793   1.136   6.879  10.900  0.1603  0.0316  0.0552
 2730W        W 6794   6.176   8.027   8.717  0.2224 -0.2049 -0.1232
 2731W        W 6795   5.717   4.803   0.693 -0.0843 -0.0288  0.1482
 2732W        W 6796   3.103   1.114   0.716  0.3165  0.2944 -0.1364
 2733W        W 6797   8.691   7.377  11.065 -0.4244 -0.0840 -0.2540
 2734W        W 6798   8.023   9.623   7.688 -0.3829  0.1113  0.1633
 2735W        W 6799   5.048   9.976   2.452  0.4750  0.0167 -0.0159
 2736W        W 6800   5.775   6.418  10.333 -0.1043  0.0351  0.2830
 2737W        W 6801   3.557   3.024   0.499  0.2469  0.0181  0.3099
 2738W        W 6802   9.946   5.991  10.003  0.1451 -0.2222  0.2962
 2739W        W 6803   6.553   6.057   0.193  0.1022  0.1130 -0.3042
 2740W        W 6804   0.245   4.451   7.552 -0.1285 -0.2793 -0.2877
 2741W        W 6805   7.629   0.801  10.673 -0.0048 -0.0447  0.1427
 2742W        W 6806   1.299   8.430   7.310  0.1453 -0.0802  0.2187
 2743W        W 6807   9.373   0.316   1.910  0.2957 -0.3682 -0.1983
 2744W        W 6808   1.714   0.040   8.352 -0.1559 -0.4000  0.1756
 2745W        W 6809   7.525   6.084  10.599 -0.2807 -0.3436 -0.2381
 2746W        W 6810   1.620   1.474   2.660 -0.1919 -0.2299 -0.1951
 2747W        W 6811   7.267   5.447   3.204 -0.1932  0.0615  0.4258
 2748W        W 6812   6.369   6.423   2.875  0.2160 -0.4251 -0.2986
 2749W        W 6813   2.984   8.134   0.922 -0.0221  0.0209  0.0843
 2750W        W 6814   5.046   7.309  10.918  0.2228  0.1097  0.1605
 2751W        W 6815   1.533   6.300   7.843 -0.1483 -0.0894  0.1226
 2752W        W 6816   7.877   5.298   8.032  0.3038 -0.0783  0.2365
 2753W        W 6817   6.934  10.457  11.244 -0.1061 -0.1998 -0.0369
 2754W        W 6818   7.353   2.485   0.366 -0.0602 -0.1946 -0.0331
 2755W        W 6819   3.927   6.015   1.246 -0.1475  0.1512 -0.0490
 2756W        W 6820   6.630   3.080   2.358  0.1003  0.2500 -0.1006
 2757W        W 6821   1.978   6.213   8.997  0.2477  0.0100  0.2014
 2758W        W 6822   2.077   0.839   3.713 -0.5317 -0.2402  0.0353
 2759W        W 6823   9.761   9.939   1.138 -0.1897 -0.0699 -0.1838
 2760W        W 6824   6.514   5.878  10.113  0.3791 -0.1228 -0.0654
 2761W        W 6825   7.571   8.770   0.221  0.1094  0.1365 -0.0223
 2762W        W 6826   0.641   2.924   2.081  0.2723 -0.0034  0.0430
 2763W        W 6827   7.187   3.345   0.674  0.2286 -0.1791  0.2937
 2764W        W 6828   8.737   9.694   0.230 -0.2704 -0.2082  0.4085
 2765W        W 6829   5.910   3.749   0.502  0.3617  0.1563  0.2096
 2766W        W 6830   2.524   6.550   2.722 -0.2068 -0.0547 -0.0901
 2767W        W 6831   8.817   1.794   9.168  0.3255  0.2836 -0.1651
 2768W        W 6832   4.211   7.627  10.552  0.5746 -0.2927 -0.1505
 2769W        W 6833   6.599   4.037  11.146 -0.0014 -0.3004  0.1398
 2770W        W 6834   1.320   1.445   9.654  0.4597 -0.1192 -0.3146
 2771W        W 6835   8.084   5.453   1.591  0.0364  0.0053 -0.2005
 2772W        W 6836   8.704   7.231   9.738  0.2671 -0.0289 -0.2559
 2773W        W 6837   0.073   0.419   1.423  0.0110 -0.1546  0.2965
 2774W        W 6838  10.291   8.674  11.197  0.2930  0.1404  0.3640
 2775W        W 6839   1.942  10.314   9.743 -0.0906  0.0989 -0.1730
 2776W        W 6840   4.974   3.689   1.965  0.0602 -0.1951  0.0960
 2777W        W 6841   4.921  10.291   8.910 -0.2738  0.0177 -0.1040
 2778W        W 6842   5.759   1.226   9.190 -0.1562 -0.2424 -0.0633
 2779W        W 6843   2.468   4.113  10.743  0.1656 -0.1040 -0.2747
 2780W        W 6844   7.562   7.262  10.279  0.2093  0.1672 -0.1132
 2781W        W 6845   4.580   4.191   0.891 -0.2494  0.2421 -0.0797
 2782W        W 6846   6.095   3.298  11.347  0.0436  0.1735 -0.1144
 2783W        W 6847   3.836   5.483   9.395  0.4064  0.0039 -0.1058
 2784W        W 6848   3.464   1.100   9.808  0.0945 -0.1357 -0.1514
 2785W        W 6849   1.475   5.725  10.227 -0.0221 -0.2128  0.2901
 2786W        W 6850   7.005   1.957   0.348 -0.0038  0.0094  0.0391
 2787W        W 6851   3.473   0.518   2.357 -0.1461  0.2014  0.4428
 2788W        W 6852   0.954   9.374   8.806 -0.3089  0.0066 -0.2512
 2789W        W 6853   3.044   4.553   7.914  0.3481 -0.1375  0.1553
 2790W        W 6854   4.858   2.694   1.981 -0.0224 -0.0719  0.0097
 2791W        W 6855   8.506   8.669   9.798 -0.2912  0.1547 -0.0766
 2792W        W 6856   6.355   0.092  10.510  0.0045  0.0903  0.2662
 2793W        W 6857   8.473  10.589  10.816  0.1060  0.1670  0.2053
 2794W        W 6858   7.626   3.521   9.054  0.2046  0.1115  0.2085
 2795W        W 6859   2.387   4.271   1.830  0.2089 -0.1561 -0.0583
 2796W        W 6860  10.205   3.938  11.120  0.2843  0.1676  0.1033
 2797W        W 6861   3.801   1.355   0.823  0.0960 -0.3308  0.0152
 2798W        W 6862   4.404   8.004   0.696  0.0144  0.0805  0.1611
 2799W        W 6863   6.159   7.500   8.917 -0.1945  0.2735  0.1073
 2800W        W 6864   5.829   6.853   7.386  0.1565 -0.0645  0.1208
 2801W        W 6865   6.469   8.082   9.944 -0.1025 -0.2152  0.1798
 2802W        W 6866   4.495   0.786   9.675  0.2598 -0.4428 -0.1282
 2803W        W 6867   3.607   4.163   0.915  0.1389 -0.1861 -0.0425
 2804W        W 6868   2.661   6.444   0.984  0.1161 -0.1677 -0.0226
 2805W        W 6869   9.756   4.103   1.818  0.2292  0.1381 -0.2357
 2806W        W 6870   4.099   5.561   1.708 -0.0181  0.1704  0.1362
 2807W        W 6871   1.215   1.787   9.290  0.1437  0.2705  0.2001
 2808W        W 6872   6.451   5.465   3.474  0.0435  0.1381  0.1339
 2809W        W 6873   0.371   3.592   9.423 -0.1789 -0.2407  0.0818
 2810W        W 6874   5.209  10.485  10.846 -0.0024  0.0830 -0.3163
 2811W        W 6875   8.074   7.975  10.020 -0.3650  0.1354 -0.1979
 2812W        W 6876   6.855  10.607   3.244  0.0544 -0.1428 -0.0838
 2813W        W 6877   1.439   5.787   8.034 -0.2460 -0.2417  0.0302
 2814W        W 6878   4.967   5.481   0.485 -0.0976 -0.0559 -0.1382
 2815W        W 6879   2.861   4.926   0.645 -0.0046  0.1256 -0.0343
 2816W        W 6880   2.082   0.326   0.563 -0.0853  0.4212  0.2352
 2817W        W 6881   5.382   4.318   2.406 -0.1042  0.1058 -0.0410
 2818W        W 6882   1.301   2.528   1.315 -0.0498  0.2199 -0.0208
 2819W        W 6883   1.617  10.509   1.785 -0.1197 -0.3523  0.0071
 2820W        W 6884   5.347   9.284  11.256 -0.0596 -0.1140  0.1436
 2821W        W 6885   6.048   1.793   2.326  0.2213  0.2292 -0.0972
 2822W        W 6886   3.771   4.959   0.212 -0.0156 -0.2661  0.0845
 2823W        W 6887   8.954  10.281  11.292  0.2151  0.2358 -0.1879
 2824W        W 6888   5.805   8.703   0.734 -0.0423  0.1659  0.3709
 2825W        W 6889   3.352   1.139   9.110 -0.0361 -0.2069  0.3563
 2826W        W 6890   6.082  10.606   1.697 -0.0805 -0.2164  0.2285
 2827W        W 6891  10.034   1.503   0.640 -0.1463 -0.2120 -0.0141
 2828W        W 6892   4.872   0.107  10.475 -0.1762  0.1019  0.0855
 2829W        W 6893   3.821   3.727   9.955 -0.0304  0.0486  0.2490
 2830W        W 6894   5.668   5.558   1.255 -0.2356  0.0056  0.2250
 2831W        W 6895   6.010   5.937  10.414  0.0945 -0.2845  0.2707
 2832W        W 6896   0.613   3.594   3.029  0.1597  0.2951  0.1033
 2833W        W 6897   9.981   5.606   1.664  0.0649  0.2918  0.1803
 2834W        W 6898   8.941   1.970   0.134 -0.0409 -0.1133  0.3157
 2835W        W 6899   1.785   2.855   0.363  0.0344  0.3963 -0.0254
 2836W        W 6900   9.004   6.997   0.896 -0.2704 -0.0293  0.0947
 2837W        W 6901   7.150   8.976   8.951  0.1779 -0.1482  0.0857
 2838W        W 6902   7.355   3.645   2.332 -0.0548  0.1040 -0.0003
 2839W        W 6903   3.422   0.493   1.337 -0.2110 -0.0902 -0.0934
 2840W        W 6904   1.064  10.294   3.299  0.1599 -0.1380 -0.2938
 2841W        W 6905   7.621   4.156  10.922 -0.0740 -0.0488  0.2421
 2842W        W 6906   4.920   8.204   1.823  0.2442 -0.0296  0.2072
 2843W        W 6907   3.632   6.061  11.224 -0.1543 -0.1028 -0.1231
 2844W        W 6908   6.235   5.028   9.992 -0.0816 -0.0023 -0.2275
 2845W        W 6909   5.549   2.889   2.311  0.0775  0.2827  0.3001
 2846W        W 6910   6.827   3.776   1.837  0.2578  0.1155  0.1312
 2847W        W 6911   7.098   7.288   8.338  0.0383  0.0298 -0.0091
 2848W        W 6912   2.605   1.641   8.771  0.1187 -0.1250  0.5011
 2849W        W 6913   8.123   8.158   0.018  0.0104  0.1043  0.0349
 2850W        W 6914   7.996   9.340   2.125 -0.2078  0.0995 -0.0208
 2851W        W 6915   8.034  10.237   0.867  0.0371  0.0383 -0.2806
 2852W        W 6916   8.947   9.168  11.068 -0.0323  0.4854  0.0881
 2853W        W 6917   7.342   4.116   2.414 -0.0079  0.0092 -0.2349
 2854W        W 6918   2.887   4.196  11.038  0.0271  0.2211 -0.0457
 2855W        W 6919   4.093   8.009  11.460 -0.0540  0.3062  0.0144
 2856W        W 6920   2.967   3.660   3.771  0.2799 -0.2512  0.0382
 2857W        W 6921   0.074   4.994  10.198 -0.0344 -0.1036 -0.0670
 2858W        W 6922   3.926   4.512  10.130  0.1004 -0.1027 -0.2710
 2859W        W 6923   2.572   9.086   9.970  0.0305  0.0921 -0.1499
 2860W        W 6924   4.605   4.533   9.022  0.0685  0.3094 -0.0009
 2861W        W 6925   6.639   2.624   8.629 -0.2100 -0.5047 -0.1080
 2862W        W 6926   5.421   6.592   1.309  0.0315  0.0079 -0.3010
 2863W        W 6927   2.242   4.881   8.337  0.0919 -0.0145 -0.1241
 2864W        W 6928  10.130  10.295  11.348  0.1140 -0.2218 -0.0672
 2865W        W 6929   4.748   2.341  11.124  0.1868 -0.0649 -0.0240
 2866W        W 6930   8.808   2.991   3.639  0.0769  0.0897 -0.0068
 2867W        W 6931   1.882   5.103   7.430  0.0161 -0.2589 -0.0263
 2868W        W 6932  10.523   6.267   8.861  0.1504  0.0078 -0.0982
 2869W        W 6933   3.459   4.666   1.128 -0.0874  0.1495 -0.0579
 2870W        W 6934   5.857   7.842   2.185  0.0590  0.2515  0.0889
 2871W        W 6935   6.912   6.959   2.547 -0.1757 -0.1568 -0.0856
 2872W        W 6936   9.052   2.515   9.876 -0.3912 -0.0776  0.1367
 2873W        W 6937   8.450   0.718   8.733 -0.0438 -0.0975  0.3371
 2874W        W 6938   3.555   8.774   1.764  0.1591  0.0629 -0.3023
 2875W        W 6939  10.246   8.459   1.827 -0.0025  0.2330 -0.0611
 2876W        W 6940   2.065   5.296   2.782  0.1460 -0.2190 -0.3195
 2877W        W 6941   3.287   4.936   1.901  0.0887 -0.2058 -0.1575
 2878W        W 6942   6.184   8.220  11.023 -0.2871  0.1648 -0.0822
 2879W        W 6943   7.141   6.042   8.857  0.2055  0.0859 -0.0078
 2880W        W 6944   8.936   9.832   7.437  0.0375  0.1779 -0.1302
 2881W        W 6945   8.401   9.731  10.636 -0.2828  0.0749  0.3594
 2882W        W 6946   8.844   0.094   3.357 -0.1960  0.3656  0.2340
 2883W        W 6947   2.356   0.698   0.423  0.2353 -0.0184  0.3126
 2884W        W 6948   4.101  10.028   0.003 -0.3375 -0.2468  0.3181
 2885W        W 6949   1.890   2.210   2.963 -0.0480  0.2568  0.0641
 2886W        W 6950   0.706   2.493   2.804 -0.2653  0.1292 -0.0904
 2887W        W 6951   2.028   4.590   1.636 -0.2614  0.1285 -0.1534
 2888W        W 6952   0.366   2.512   0.674 -0.0191  0.0998 -0.0278
 2889W        W 6953   3.451   2.529   3.308 -0.0832  0.1855  0.0794
 2890W        W 6954   4.399   6.853   1.196 -0.1973  0.1401  0.0434
 2891W        W 6955   9.478   7.567   3.139  0.0303  0.0234 -0.2849
 2892W        W 6956   2.363   1.145  10.767 -0.1876 -0.0013 -0.1292
 2893W        W 6957   1.100   9.561   9.257  0.1644 -0.0381  0.2878
 2894W        W 6958   8.726   6.118  10.730 -0.1252 -0.1075  0.0097
 2895W        W 6959   9.193   6.888   7.395 -0.0490  0.3092 -0.2526
 2896W        W 6960   5.643   7.049   7.913  0.1516  0.1014  0.0546
 2897W        W 6961   0.245   1.121   0.761 -0.0797  0.0099 -0.2346
 2898W        W 6962   2.189   5.116   3.282  0.3671 -0.3858  0.3378
 2899W        W 6963   0.352   0.625  10.288  0.0425  0.2458 -0.0464
 2900W        W 6964   8.290   5.793   2.378 -0.1266 -0.1903  0.1419
 2901W        W 6965   8.497   8.074   9.570  0.0142  0.0068 -0.0247
 2902W        W 6966   0.306   6.475   1.719 -0.0682 -0.2124  0.2548
 2903W        W 6967   4.302   8.464  11.154  0.0229  0.0203 -0.0398
 2904W        W 6968   8.910   1.150  10.339 -0.0702 -0.2496 -0.0149
 2905W        W 6969   1.781   8.767  10.347  0.1647  0.1172 -0.0323
 2906W        W 6970  10.309   8.010   2.069 -0.2645 -0.3900  0.1850
 2907W        W 6971   1.009  10.194   0.252 -0.0063 -0.0322 -0.2629
 2908W        W 6972   1.573   1.074   1.436 -0.1310 -0.1692 -0.1833
 2909W        W 6973   6.722   1.045   9.175  0.2849  0.1317 -0.1942
 2910W        W 6974   9.796   8.713  11.161  0.2474  0.0490  0.1331
 2911W        W 6975   5.568   7.692  10.153 -0.0490  0.0453 -0.2653
 2912W        W 6976   8.059  10.089   8.453  0.1972 -0.1494 -0.0832
 2913W        W 6977   1.081   4.803   1.621 -0.0895  0.0573  0.1840
 2914W        W 6978   1.026   6.151   2.095 -0.2499 -0.2057 -0.0533
 2915W        W 6979  10.482   6.919   2.641 -0.0475 -0.2039 -0.3455
 2916W        W 6980   1.183   7.614   0.060 -0.0920 -0.0552 -0.1008
 2917W        W 6981   8.616   9.399   9.323 -0.0559 -0.2161 -0.0801
 2918W        W 6982   1.422   7.722   0.573 -0.2047 -0.0428 -0.0099
 2919W        W 6983   5.998   0.260   1.164 -0.0536  0.1780  0.0431
 2920W        W 6984   1.578   1.084   7.789 -0.2603 -0.3657  0.0668
 2921W        W 6985   6.240   7.086   7.211  0.0047  0.2542 -0.0417
 2922W        W 6986   4.741   5.877   1.315 -0.1632 -0.0201 -0.0203
 2923W        W 6987   0.610   7.079   3.191 -0.3103 -0.3865 -0.0044
 2924W        W 6988   8.300   8.771  10.831 -0.3980 -0.0693  0.3307
 2925W        W 6989   7.224  10.584   8.704  0.0669  0.2156  0.1941
 2926W        W 6990   2.649   4.154   2.314  0.1193 -0.0856  0.0290
 2927W        W 6991   3.729   6.989  10.984  0.0056  0.2322  0.1926
 2928W        W 6992   7.983  10.603   3.307  0.2620  0.1065 -0.0038
 2929W        W 6993   4.509   9.615   8.422 -0.2242 -0.0014 -0.1658
 2930W        W 6994   7.779   0.610   9.325 -0.1555 -0.0615 -0.0417
 2931W        W 6995   1.162   7.525   8.140  0.0401  0.3014 -0.0533
 2932W        W 6996   0.291  10.524   2.171 -0.1862  0.1068  0.0190
 2933W        W 6997   0.201   7.943   2.114 -0.2530  0.0652 -0.1016
 2934W        W 6998   6.593   9.074   2.429 -0.0780 -0.0588 -0.1586
 2935W        W 6999   0.336   6.470   3.217 -0.1797  0.1106 -0.0316
 2936W        W 7000   2.855   2.167   2.683  0.0753  0.0654  0.1335
 2937W        W 7001  10.080   2.652   9.914  0.1414 -0.1620 -0.0197
 2938W        W 7002   7.977   5.229   3.507 -0.1271 -0.1033  0.2231
 2939W        W 7003   5.792   2.962   3.055 -0.2005  0.1942 -0.1492
 2940W        W 7004   2.454   9.390  11.060 -0.0555 -0.0877  0.2014
 2941W        W 7005   5.971   0.674   3.114  0.2287 -0.0254 -0.0120
 2942W        W 7006   1.147   2.416   7.320  0.1077 -0.4382 -0.1747
 2943W        W 7007   3.118   9.124   2.711 -0.0970  0.1262  0.0268
 2944W        W 7008   3.836   2.610  11.457  0.0821  0.1527  0.3273
 2945W        W 7009   3.477   0.109   0.413 -0.1443 -0.3244 -0.2161
 2946W        W 7010   7.354   6.131   1.859  0.0228  0.1725 -0.0275
 2947W        W 7011   1.763   5.549   9.776  0.2753  0.1984 -0.2394
 2948W        W 7012   5.582   4.883   8.666 -0.5329 -0.1501 -0.0716
 2949W        W 7013   1.437   9.295  11.354  0.1231  0.1819  0.0400
 2950W        W 7014   0.086   9.124   0.873 -0.0942  0.5594  0.3986
 2951W        W 7015   1.915   7.151   8.774 -0.0616 -0.3779  0.0376
 2952W        W 7016   9.561   1.505   8.543  0.1536 -0.0212  0.4611
 2953W        W 7017   2.612   4.602   8.205 -0.0630  0.0135  0.0174
 2954W        W 7018   5.689   7.816   0.397 -0.0410  0.2926 -0.0629
 2955W        W 7019   0.087   0.188   3.029 -0.1632 -0.2534  0.0883
 2956W        W 7020   1.606   3.039   8.583 -0.1056  0.2235  0.0990
 2957W        W 7021   4.207   6.479   8.200 -0.0719 -0.3582  0.0370
 2958W        W 7022   2.490   1.945   1.732  0.0011 -0.1976  0.0048
 2959W        W 7023   5.036   8.329   3.205  0.1952  0.0942  0.0140
 2960W        W 7024   7.291   3.814   0.857  0.0435 -0.4541  0.3091
 2961W        W 7025  10.526   8.077   1.558 -0.0338  0.1517  0.0952
 2962W        W 7026   6.600   7.729   2.980 -0.0543  0.0188  0.1190
 2963W        W 7027   1.822   7.154   3.242  0.0114 -0.0620 -0.0073
 2964W        W 7028   0.935   2.172  10.982  0.2710  0.3704 -0.0962
 2965W        W 7029   7.384   5.640  10.254 -0.5141  0.0963  0.2648
 2966W        W 7030   8.526   1.014   8.113  0.0088 -0.0381  0.1428
 2967W        W 7031   9.474   8.473   9.031 -0.1335  0.4673  0.1106
 2968W        W 7032   3.760   1.788   8.081  0.2950 -0.1861  0.0389
 2969W        W 7033   0.624   4.988   3.078 -0.2840  0.1103  0.0118
 2970W        W 7034   3.568   8.539   3.108 -0.0686 -0.0541 -0.4360
 2971W        W 7035   1.078   3.400   2.127  0.0678 -0.5207 -0.0386
 2972W        W 7036   2.975   6.815   0.032  0.2477 -0.1207  0.1763
 2973W        W 7037   3.237   9.288  11.340 -0.0998 -0.0367 -0.0469
 2974W        W 7038  10.555   6.421   1.420  0.1086 -0.0661 -0.1119
 2975W        W 7039   0.774   9.960   1.605  0.1080  0.0010 -0.1792
 2976W        W 7040   8.866   0.155   2.166 -0.0097 -0.2315 -0.2540
 2977W        W 7041   9.334   7.124   7.805 -0.2067 -0.0021  0.1479
 2978W        W 7042   4.602  10.190   2.700  0.0091  0.0792  0.3398
 2979W        W 7043   9.544   9.826  11.223 -0.0714 -0.0319 -0.0459
 2980W        W 7044   5.256   9.790  11.633  0.2043 -0.2181  0.1890
 2981W        W 7045   1.870   4.812  10.273  0.2823  0.1983  0.0295
 2982W        W 7046   0.653   1.319   9.679  0.2967 -0.1706  0.1187
 2983W        W 7047   2.570   6.338  10.951 -0.1927 -0.0260 -0.3057
 2984W        W 7048   0.782   3.729   3.459 -0.2766  0.0676 -0.0122
 2985W        W 7049   7.391   9.529  11.284 -0.0957 -0.0414 -0.4068
 2986W        W 7050   7.557   9.015   1.159  0.1557 -0.2109 -0.3243
 2987W        W 7051   5.572   0.650   2.750  0.0403 -0.1908  0.3463
 2988W        W 7052   9.919   0.319   0.322 -0.1078  0.1654  0.1700
 2989W        W 7053   5.252   3.177   1.907  0.1078  0.0917 -0.0389
 2990W        W 7054   7.572   4.693   2.617 -0.1743  0.1885 -0.2025
 2991W        W 7055   1.118   6.039   1.230 -0.0402 -0.0854 -0.4954
 2992W        W 7056   4.558   9.913   2.171 -0.0713  0.2431  0.2836
 2993W        W 7057   0.997   7.994   0.364 -0.0094  0.0131 -0.2094
 2994W        W 7058   6.299   8.100   1.281 -0.0015 -0.0530 -0.4130
 2995W        W 7059   3.435  10.465  10.365  0.2629 -0.3186  0.2481
 2996W        W 7060   6.065  10.403  10.783 -0.0827 -0.1276  0.0938
 2997W        W 7061   2.806   7.195  11.436 -0.2059 -0.3002  0.1387
 2998W        W 7062   5.493   0.954   0.465  0.2214 -0.3532 -0.0167
 2999W        W 7063   9.678   2.740   2.013  0.2902  0.1431 -0.1536
 3000W        W 7064   1.999   7.084   0.931  0.2992 -0.1182 -0.1043
 3001W        W 7065   4.567   1.358   3.997 -0.0306  0.1388  0.0994
 3002W        W 7066   7.028   7.259   9.538  0.0584 -0.1204 -0.0522
 3003W        W 7067   6.406   4.454   2.748  0.1063 -0.1103  0.1079
 3004W        W 7068   9.783   4.982   0.158  0.2664 -0.0823 -0.1554
 3005W        W 7069   2.227   6.167   1.029 -0.1394 -0.0604  0.0963
 3006W        W 7070   1.449   1.825   0.843  0.0295 -0.0787  0.2707
 3007W        W 7071   5.774   9.880  10.820  0.0853 -0.0866  0.2568
 3008W        W 7072   7.105   9.398   9.662  0.0171  0.0691  0.1599
 3009W        W 7073   2.745   3.241  10.386  0.0539 -0.1515  0.1109
 3010W        W 7074   7.789   9.188   1.698 -0.1680 -0.0128  0.0991
 3011W        W 7075   1.682   5.142   3.221  0.0287  0.1756 -0.2147
 3012W        W 7076   6.623   2.541  10.821 -0.0091 -0.0784  0.1868
 3013W        W 7077   7.604   9.500   1.322 -0.1952 -0.0649  0.0526
 3014W        W 7078  10.345   8.768   0.296  0.3150 -0.0095  0.0066
 3015W        W 7079   4.466   6.062   4.304  0.1509  0.0637 -0.2547
 3016W        W 7080   1.676   8.315   0.994 -0.0563  0.1465  0.0615
 3017W        W 7081   3.536   8.158  10.332  0.3696 -0.0119 -0.2927
 3018W        W 7082   9.827  10.084   2.606  0.0382  0.1857 -0.1294
 3019W        W 7083   1.978   2.827   1.497 -0.0108 -0.4610 -0.2294
 3020W        W 7084   8.614   2.798   1.091  0.1561 -0.0269 -0.0403
 3021W        W 7085   9.821   4.071   2.591 -0.0989 -0.1911  0.0210
 3022W        W 7086  10.165   1.744   1.119  0.0630  0.2086 -0.0739
 3023W        W 7087  10.142  10.425   4.062 -0.0940  0.1895  0.0864
 3024W        W 7088   5.887   9.380   9.895 -0.1054 -0.0006 -0.2904
 3025W        W 7089   0.496   0.985  10.557  0.0623 -0.0188 -0.0822
 3026W        W 7090   5.612   1.536   2.615  0.1468  0.2294 -0.1335
 3027W        W 7091   3.867   4.205   3.334 -0.0578 -0.0343  0.0707
 3028W        W 7092   5.022   3.613   8.932 -0.0496 -0.0557  0.0217
 3029W        W 7093   9.384  10.378   9.542 -0.0914 -0.0641 -0.1835
 3030W        W 7094   8.664   0.226   0.179  0.0894  0.2193 -0.1777
 3031W        W 7095   7.307   3.159   0.246  0.0894 -0.1092  0.0587
 3032W        W 7096   9.936   6.898  11.024 -0.0285  0.3280  0.0277
 3033W        W 7097   0.832   9.987  11.503 -0.4383  0.0612  0.0127
 3034W        W 7098   2.775  10.043   2.504 -0.0661 -0.0468 -0.0431
 3035W        W 7099   2.421  10.216  11.490 -0.1294 -0.1828  0.0097
 3036W        W 7100   5.688   2.131   2.262  0.1526  0.0349 -0.3815
 3037W        W 7101   5.521   7.347   0.475 -0.0490 -0.4004 -0.0090
 3038W        W 7102   8.019   6.367   9.940 -0.0437  0.2266 -0.2145
 3039W        W 7103   2.393   4.745  10.318  0.2725  0.0412  0.0469
 3040W        W 7104   3.607   2.711   2.843 -0.0212  0.2477  0.4101
 3041W        W 7105   7.164   9.625   1.111 -0.0012 -0.2308 -0.0752
 3042W        W 7106   0.691   1.464   7.408 -0.0314 -0.0676  0.0035
 3043W        W 7107   4.597   1.669   2.084  0.0139 -0.1293 -0.4605
 3044W        W 7108   0.120   2.766   9.393 -0.0174 -0.0154 -0.0009
 3045W        W 7109   9.454   6.773  10.904  0.4925 -0.1922  0.3868
 3046W        W 7110   8.599   4.236   3.722  0.0898 -0.2635 -0.1964
 3047W        W 7111   6.395   1.229   0.672 -0.0208  0.1900 -0.1795
 3048W        W 7112   4.388   4.690  10.852 -0.0934  0.5103 -0.2693
 3049W        W 7113   4.111   1.542   2.105  0.0776  0.0652  0.1542
 3050W        W 7114   8.196   4.053  10.397  0.0284  0.1434  0.1117
 3051W        W 7115   5.717   6.207   8.369  0.3244  0.0390 -0.0280
 3052W        W 7116  10.612   3.378   2.148  0.1373 -0.0933 -0.0326
 3053W        W 7117   9.729   8.106   0.149 -0.0878 -0.0793 -0.1119
 3054W        W 7118   6.451   6.675   9.052  0.1006  0.1584 -0.2015
 3055W        W 7119   9.480   5.521   1.582 -0.0160  0.0157 -0.1885
 3056W        W 7120   4.260   5.152  11.027 -0.2237 -0.1746 -0.0498
 3057W        W 7121   4.224   5.831  10.397 -0.3382  0.0262  0.0028
 3058W        W 7122   0.513   8.046   8.843  0.0965 -0.3029 -0.1878
 3059W        W 7123   0.034   9.332   8.037  0.1138 -0.1060 -0.2799
 3060W        W 7124   9.545   6.641   8.653 -0.2416  0.1443  0.0263
 3061W        W 7125   8.600   8.515   1.223  0.1568  0.2519 -0.0686
 3062W        W 7126   2.980   2.186  10.659 -0.0996  0.1664  0.0426
 3063W        W 7127   4.951   1.162   9.796 -0.2088 -0.4978 -0.0779
 3064W        W 7128   0.238   9.861   2.949 -0.2813 -0.3102  0.1281
 3065W        W 7129   9.647   3.854   2.971  0.2729  0.0190  0.0471
 3066W        W 7130   2.425   7.090   8.603 -0.1051 -0.4770  0.0025
 3067W        W 7131   6.960   1.995   2.903  0.1319  0.0153 -0.0515
 3068W        W 7132   6.326   7.996   8.154  0.4442  0.2725  0.0380
 3069W        W 7133   5.460   7.512   2.166  0.0908 -0.0566  0.1755
 3070W        W 7134   5.880  10.377   2.614 -0.2167 -0.2098 -0.0058
 3071W        W 7135   0.731   0.863   1.057 -0.0535 -0.2681 -0.1466
 3072W        W 7136   4.873   7.776   9.487 -0.0691 -0.0736  0.2343
 3073W        W 7137   7.545   4.758   1.654 -0.1875  0.0072  0.0319
 3074W        W 7138  10.250  10.336   1.029  0.0503 -0.0457 -0.0731
 3075W        W 7139   0.707   6.259   8.432  0.0990 -0.0331 -0.0085
 3076W        W 7140   9.218  10.404   3.620  0.1119  0.3492  0.2043
 3077W        W 7141   6.719   7.712   0.384 -0.3479  0.2911 -0.0322
 3078W        W 7142   1.257   4.628   0.361  0.0423  0.2212 -0.2751
 3079W        W 7143   0.055   9.987   1.051 -0.0450 -0.1069  0.2516
 3080W        W 7144   4.756   1.486  10.123 -0.1358  0.0203  0.1561
 3081W        W 7145   2.440   9.375   1.008  0.2351 -0.2329  0.1782
 3082W        W 7146   6.308   9.716  10.534 -0.1299  0.3302  0.0126
 3083W        W 7147   4.864   6.181   2.091 -0.0751  0.0492  0.1259
 3084W        W 7148   5.333   9.706   0.850  0.0247 -0.2425 -0.0111
 3085W        W 7149   9.960   5.587   3.410 -0.0386 -0.1473 -0.0175
 3086W        W 7150   5.645   7.140   8.589  0.1454 -0.0006 -0.0409
 3087W        W 7151   8.259   1.940   0.480 -0.2230  0.0175  0.2173
 3088W        W 7152   6.339   5.217   8.172 -0.0973  0.1765  0.0759
 3089W        W 7153   5.902   2.624   9.139  0.5879 -0.0524  0.0083
 3090W        W 7154   0.838   3.180   0.848  0.1741 -0.1895 -0.0693
 3091W        W 7155   9.952   3.483   3.059  0.0338  0.1043  0.3460
 3092W        W 7156   4.947   2.127   0.337 -0.0028 -0.0252 -0.1682
 3093W        W 7157   1.880   9.051   9.991 -0.0952  0.0096  0.0074
 3094W        W 7158   7.849   2.840   3.505  0.1298 -0.0653  0.0264
 3095W        W 7159   2.248   8.697   3.418  0.0573  0.3122  0.1559
 3096W        W 7160   0.382   6.980   1.841 -0.4008  0.2060  0.3949
 3097W        W 7161   7.780   3.275   0.207 -0.2513  0.0388  0.0496
 3098W        W 7162   0.994   3.460   1.235 -0.2548  0.0587  0.0248
 3099W        W 7163   6.835   4.223   2.589  0.1809  0.0401  0.3247
 3100W        W 7164   6.827   1.586  11.141 -0.2712 -0.2375 -0.0361
 3101W        W 7165   3.993   1.137   1.769 -0.2240 -0.1870  0.0438
 3102W        W 7166   0.585   8.852   1.609  0.1250  0.2690 -0.1629
 3103W        W 7167   2.920   5.076   3.957  0.0136  0.2217 -0.0814
 3104W        W 7168   8.651   9.611   2.520 -0.0730  0.1334  0.0556
 3105W        W 7169   6.266   8.671   2.611  0.0584 -0.2788  0.0189
 3106W        W 7170   7.615   7.050  11.303 -0.1817 -0.2979  0.0010
 3107W        W 7171   3.084   5.160   8.917 -0.2352  0.2739  0.1001
 3108W        W 7172   1.913   6.263   9.817 -0.1806 -0.0445 -0.0963
 3109W        W 7173   5.392   0.850   3.154 -0.0649  0.1127 -0.1453
 3110W        W 7174   6.808   5.895   8.402 -0.0391  0.1553  0.3256
 3111W        W 7175   3.777  10.359   9.090  0.0205 -0.0007  0.2203
 3112W        W 7176   9.057   4.844   4.250 -0.0042 -0.3663  0.2000
 3113W        W 7177   4.954   5.879   3.378 -0.1198 -0.1637 -0.1559
 3114W        W 7178   7.574   3.000  10.892 -0.2762  0.0562  0.0281
 3115W        W 7179   7.198   7.852   9.647 -0.0189  0.2138  0.4633
 3116W        W 7180   5.743   6.786   3.988  0.2344  0.1826 -0.0105
 3117W        W 7181   9.273   4.209   3.114 -0.0200 -0.1121 -0.1357
 3118W        W 7182   8.762   1.128   2.057  0.0441 -0.0481  0.2126
 3119W        W 7183   1.993   5.124  10.687  0.0230 -0.1855  0.2246
 3120W        W 7184   1.155   5.446   9.794 -0.2079 -0.2378  0.0474
 3121W        W 7185   8.364   0.843   3.334 -0.4833 -0.3523 -0.2837
 3122W        W 7186   7.921   4.859   0.366 -0.0013  0.1997  0.0760
 3123W        W 7187   4.092   4.276   0.837  0.0171  0.0407 -0.0586
 3124W        W 7188   5.777   3.621  10.984  0.0669  0.0763  0.0103
 3125W        W 7189   8.333   9.943   0.534 -0.2353 -0.0396 -0.3352
 3126W        W 7190   5.067   6.810   8.511  0.1876 -0.1735 -0.1395
 3127W        W 7191   6.754   2.291   2.515 -0.0266  0.0180 -0.1755
 3128W        W 7192   7.091   5.177   0.913  0.2134  0.2903  0.1591
 3129W        W 7193   5.518   6.706   0.754 -0.1494  0.0240 -0.4035
 3130W        W 7194   2.670   7.250  10.964  0.1474  0.1503  0.1806
 3131W        W 7195   1.267   0.283   9.366  0.1883  0.0025 -0.0900
 3132W        W 7196   1.096   8.651   1.544  0.1896  0.1752 -0.3055
 3133W        W 7197   9.379   9.302  10.548 -0.0390  0.0216 -0.1902
 3134W        W 7198   8.578   5.918   3.266 -0.0832 -0.0263  0.0149
 3135W        W 7199   4.669   8.129   1.130 -0.1885 -0.2043  0.0453
 3136W        W 7200   9.615   9.567   0.271 -0.0568  0.1661 -0.1374
 3137W        W 7201   1.529   3.212   1.324 -0.4268  0.1456 -0.3836
 3138W        W 7202   3.792   1.290   2.705 -0.1241  0.0407  0.1991
 3139W        W 7203   6.545   5.179  11.368 -0.2983  0.0121 -0.1294
 3140W        W 7204   6.134   8.667  11.206 -0.1048  0.1185  0.3244
 3141W        W 7205   7.552   3.473   2.757  0.0666 -0.1958 -0.0139
 3142W        W 7206   9.234   4.561   1.845 -0.1301  0.1572 -0.1177
 3143W        W 7207   6.866   4.316  10.776  0.0884  0.0613 -0.0242
 3144W        W 7208   3.328   3.892  10.910  0.0733 -0.0658  0.0862
 3145W        W 7209   9.627  10.528   2.603  0.1255  0.3333  0.2770
 3146W        W 7210   2.360   5.705   0.736  0.0501 -0.1146  0.1939
 3147W        W 7211  10.048   7.051   0.894  0.0060 -0.0166 -0.1299
 3148W        W 7212   6.670   3.900   8.921  0.0785 -0.2161  0.2013
 3149W        W 7213   2.039   8.396   9.502  0.0725  0.1153 -0.3102
 3150W        W 7214   2.328   3.807   9.133  0.0389 -0.3363 -0.1253
 3151W        W 7215  10.482   4.973   9.255  0.0087 -0.2263 -0.0803
 3152W        W 7216   6.391   5.736   8.103  0.1400 -0.0930 -0.1603
 3153W        W 7217   1.222   4.426   9.601 -0.1202  0.2100  0.0301
 3154W        W 7218   7.130   6.334   0.137 -0.0679  0.1897  0.0464
 3155W        W 7219   1.767   7.532   9.520  0.4256  0.1417  0.0214
 3156W        W 7220   9.140   7.999   3.669 -0.2889 -0.0920 -0.2179
 3157W        W 7221   2.410   5.637   9.765 -0.0533 -0.1471 -0.0928
 3158W        W 7222  10.527   4.145  11.439  0.0122 -0.1834  0.1054
 3159W        W 7223   8.629   1.694  10.052 -0.1279  0.2492 -0.2306
 3160W        W 7224   3.858   2.803   3.283 -0.1724 -0.0068 -0.0410
 3161W        W 7225  10.434   5.389   7.644  0.1525  0.0532  0.2350
 3162W        W 7226  10.460   3.694   2.968 -0.1878 -0.0991  0.1319
 3163W        W 7227   8.806   1.748   1.115  0.3108  0.0947 -0.1649
 3164W        W 7228   0.957  10.569   1.107 -0.1616  0.0900  0.2243
 3165W        W 7229  10.292   5.596  10.632  0.1890 -0.3944 -0.0382
 3166W        W 7230   1.033   9.714   8.398 -0.1233 -0.0690  0.2392
 3167W        W 7231   1.307   0.625  10.952 -0.0184 -0.1775 -0.0812
 3168W        W 7232   4.372   7.575   3.388 -0.0654  0.0984 -0.0547
 3169W        W 7233  10.078   7.042   2.157 -0.0461  0.2415 -0.2285
 3170W        W 7234   0.042   4.271   9.642 -0.0051  0.0273  0.0728
 3171W        W 7235   7.265   3.710   0.289 -0.1120 -0.1145  0.2735
 3172W        W 7236   7.189   8.551   2.502  0.1331 -0.1617 -0.1243
 3173W        W 7237   7.642   6.842   1.172  0.1718  0.1522 -0.1072
 3174W        W 7238   0.235   7.411   1.490  0.1561 -0.2713  0.2616
 3175W        W 7239   6.616   4.402   8.827  0.0826 -0.0804 -0.2308
 3176W        W 7240   0.690   8.177   2.349 -0.0010 -0.0753 -0.2710
 3177W        W 7241   1.004   5.975  10.142  0.2653 -0.0135  0.1929
 3178W        W 7242   0.690   9.109   2.007 -0.0412 -0.0236 -0.0881
 3179W        W 7243   5.470   9.411   3.873  0.1025  0.0611 -0.0926
 3180W        W 7244   0.520   6.716   3.604  0.2385 -0.2474  0.0190
 3181W        W 7245   3.977   0.215  10.963  0.0715 -0.0126  0.0772
 3182W        W 7246   1.918   3.146   8.248  0.0255 -0.0452  0.0164
 3183W        W 7247   2.707   6.738   1.436  0.0557 -0.1816 -0.0050
 3184W        W 7248   7.325   7.290   8.869  0.3411  0.1399 -0.0812
 3185W        W 7249   1.054   1.590   8.848  0.0118  0.1675  0.0263
 3186W        W 7250   9.315   4.294  11.058  0.1605 -0.1261  0.0523
 3187W        W 7251   5.826   5.784   2.093  0.2118  0.1630 -0.1308
 3188W        W 7252   5.461   5.521  10.950 -0.0626 -0.0288  0.0050
 3189W        W 7253   2.023   1.859   2.562 -0.0114  0.1229 -0.2689
 3190W        W 7254   0.206   3.727   1.736 -0.0406  0.0107  0.2512
 3191W        W 7255   3.952   8.872   9.696 -0.1611  0.2268 -0.1953
 3192W        W 7256   8.591   3.952  10.022 -0.4954 -0.2316 -0.1029
 3193W        W 7257   0.378   5.842   2.655 -0.1274 -0.0880  0.0500
 3194W        W 7258   1.613   8.655   2.787 -0.1251  0.0413  0.0395
 3195W        W 7259   3.909   9.156   9.252  0.4013 -0.0633  0.0808
 3196W        W 7260   5.826   1.931   0.106 -0.0882  0.0699 -0.0546
 3197W        W 7261   2.399   4.922   1.062  0.2980  0.2206  0.0759
 3198W        W 7262   4.671   5.741  10.149 -0.1732 -0.1576  0.0772
 3199W        W 7263  10.407   9.047   1.299  0.0889  0.0351 -0.1404
 3200W        W 7264   9.933   2.588   0.718 -0.0269 -0.0811  0.2085
 3201W        W 7265   6.097   4.442   0.821 -0.1076  0.3078 -0.0990
 3202W        W 7266   5.511   8.258   0.291 -0.1642  0.0391  0.0138
 3203W        W 7267   4.510   0.775   2.499 -0.1940  0.2088 -0.1623
 3204W        W 7268   9.353   6.092   1.018  0.1039 -0.1736 -0.0009
 3205W        W 7269   4.090   9.211   0.822  0.0498  0.0036  0.1230
 3206W        W 7270   4.603   1.986   0.874 -0.1141 -0.1538  0.0787
 3207W        W 7271   2.386   3.244   1.411 -0.1275 -0.0491 -0.1773
 3208W        W 7272   5.661   1.919  10.074  0.0857 -0.2983 -0.0359
 3209W        W 7273   4.157   2.485   2.920  0.0608 -0.0582  0.0772
 3210W        W 7274   5.420   8.270  10.726 -0.1902 -0.0187  0.0817
 3211W        W 7275   4.445   9.811  11.375 -0.0633  0.1032 -0.0446
 3212W        W 7276   3.685   1.535  11.042 -0.1748 -0.0218 -0.0779
 3213W        W 7277   2.294   1.778   3.045  0.5697  0.1229 -0.1190
 3214W        W 7278   7.064   6.522   8.607 -0.3007  0.0130  0.4985
 3215W        W 7279   3.927   1.112  11.207 -0.1532  0.0123  0.0227
 3216W        W 7280   1.155   8.960   2.004 -0.1896 -0.0380 -0.3552
 3217W        W 7281   9.020   3.349   0.515 -0.1257  0.1326 -0.0939
 3218W        W 7282   5.661   2.243  11.322 -0.2237 -0.0124  0.2469
 3219W        W 7283   0.693   3.472   8.770  0.2557  0.0450 -0.0878
 3220W        W 7284   1.637   4.931  11.532  0.0184  0.0754  0.0638
 3221W        W 7285   2.018   5.297  11.608  0.1106 -0.4892 -0.0404
 3222W        W 7286   1.756   4.346  10.539 -0.0455  0.0543 -0.1545
 3223W        W 7287  10.485  10.057  11.031  0.0131 -0.1237  0.2080
 3224W        W 7288  10.511   6.746  10.279  0.2012  0.1139 -0.1383
 3225W        W 7289   1.411   7.105   2.165  0.1903 -0.3064  0.2621
 3226W        W 7290   8.825   4.709   2.078  0.2857  0.2214  0.0100
 3227W        W 7291  10.516   5.425  11.075 -0.1224 -0.2238 -0.2557
 3228W        W 7292   0.554   2.017   9.584 -0.0928  0.1737  0.2835
 3229W        W 7293   9.792   1.087   3.401  0.2421  0.3203  0.1629
 3230W        W 7294   9.241   1.191   2.370 -0.2259 -0.1372  0.1741
 3231W        W 7295   3.146   6.823  10.136  0.0566 -0.2028 -0.0301
 3232W        W 7296   3.501   3.470   3.993 -0.0856  0.0171  0.2219
 3233W        W 7297   9.698   6.148   0.176  0.0045 -0.1482 -0.0014
 3234W        W 7298   5.486   0.589  10.152 -0.0720  0.2002 -0.1881
 3235W        W 7299   4.825   5.084   1.850  0.2796  0.2597  0.1878
 3236W        W 7300   2.690   2.911   0.695 -0.2163  0.1599 -0.0578
 3237W        W 7301   6.997   4.217   2.062 -0.1658 -0.2495 -0.3234
 3238W        W 7302   9.456   3.402   3.053 -0.0041  0.0402  0.0735
 3239W        W 7303   3.901   8.220   0.813  0.0625  0.2135 -0.0808
 3240W        W 7304   3.948   6.494   3.755 -0.0810  0.1852 -0.1705
 3241W        W 7305   2.739   9.584   2.719 -0.0114 -0.0622  0.1846
 3242W        W 7306   9.775   5.434   2.120  0.2179 -0.1897 -0.0154
 3243W        W 7307   3.973   7.808   1.670  0.2068 -0.1474  0.1645
 3244W        W 7308   9.431   2.860   0.776 -0.0836  0.0804  0.1674
 3245W        W 7309   6.894   3.572  10.274  0.0882  0.0618  0.1660
 3246W        W 7310   6.180  10.356   2.096  0.2782  0.2276 -0.0113
 3247W        W 7311   3.922   1.554   3.151  0.0251 -0.0368  0.1488
 3248W        W 7312  10.066   1.052   1.832 -0.0075 -0.0978 -0.2228
 3249W        W 7313  10.565   9.810  10.352  0.0687  0.1078 -0.1950
 3250W        W 7314  10.011   1.555   9.804  0.2949  0.4753 -0.0479
 3251W        W 7315   7.708   4.431   9.014 -0.0438  0.1134 -0.1453
 3252W        W 7316   7.980   9.905   9.494 -0.2351 -0.0194  0.0471
 3253W        W 7317   6.814   5.759   1.082  0.1383  0.4004 -0.3002
 3254W        W 7318   4.268   8.714  10.671 -0.1128 -0.1472 -0.2927
 3255W        W 7319   9.118   0.220   9.699  0.1761  0.1389 -0.4495
 3256W        W 7320   4.986   6.363   9.763  0.1695 -0.1128 -0.3377
 3257W        W 7321   5.913   9.294   9.399 -0.3939 -0.0583 -0.1180
 3258W        W 7322   6.063   7.332   9.393 -0.1152 -0.1142  0.1084
 3259W        W 7323   4.110   2.225   9.428 -0.2908  0.3145  0.0697
 3260W        W 7324   1.660   7.430   1.425  0.1065 -0.2612  0.2446
 3261W        W 7325  10.079   3.084   8.959 -0.1441  0.2456 -0.2729
 3262W        W 7326   0.383   4.837  11.121 -0.2389 -0.0199 -0.2850
 3263W        W 7327   1.088   3.832   2.361  0.3498 -0.0203  0.1408
 3264W        W 7328   1.275   5.870   3.981  0.0091 -0.0279 -0.0746
 3265W        W 7329   7.733   8.554   1.101  0.0208 -0.2043  0.0012
 3266W        W 7330   6.236   4.444   1.778  0.1766 -0.2217  0.0344
 3267W        W 7331   0.794   5.883   3.419 -0.0046  0.3148 -0.0256
 3268W        W 7332   2.227   5.543   1.890  0.3352  0.1946 -0.3188
 3269W        W 7333   1.780   8.842   9.365 -0.0771  0.1369 -0.1814
 3270W        W 7334   5.627   6.902   3.400  0.0385 -0.1151 -0.0911
 3271W        W 7335   1.436   3.503  11.227  0.1617  0.0072  0.0102
 3272W        W 7336   0.736   2.467   8.836 -0.0969  0.0833  0.2497
 3273W        W 7337   1.677   9.929  10.591  0.4418  0.4570  0.1453
 3274W        W 7338   2.396   6.775   0.648 -0.0757  0.0595 -0.0131
 3275W        W 7339  10.490   1.506  10.025  0.1358 -0.2873 -0.3466
 3276W        W 7340   3.001   7.179   3.296  0.0493 -0.2386  0.2781
 3277W        W 7341   4.673   7.144   8.761  0.1176 -0.6188  0.1497
 3278W        W 7342   1.024   4.291   0.663  0.0291  0.4360 -0.2839
 3279W        W 7343   0.202   4.035   9.204  0.7076  0.2424 -0.2856
 3280W        W 7344   9.177   8.101   9.289 -0.1834 -0.1974  0.1691
 3281W        W 7345   0.118  10.377   9.394  0.0351  0.2331  0.2255
 3282W        W 7346   9.449   5.834  10.874 -0.3676  0.0166  0.2307
 3283W        W 7347   9.299   5.064   1.824  0.1606  0.3134 -0.4647
 3284W        W 7348   2.411   9.278   0.503  0.0703 -0.0836  0.1964
 3285W        W 7349   1.717   8.541   3.275 -0.2321 -0.3183 -0.3888
 3286W        W 7350   9.110   1.343   9.082 -0.2704 -0.2987  0.0085
 3287W        W 7351   5.752   5.988   3.079  0.1430  0.0146  0.1741
 3288W        W 7352   6.371  10.292   9.739 -0.1527  0.2497  0.2514
 3289W        W 7353   9.199   1.871   2.220  0.2108  0.1110 -0.0708
 3290W        W 7354   1.559   8.941   2.309  0.0738 -0.1901  0.2247
 3291W        W 7355   4.863   3.921   0.559  0.0579  0.0131  0.0534
 3292W        W 7356   9.286   7.597   8.865  0.1369 -0.3629 -0.2349
 3293W        W 7357  10.298   3.513  10.849  0.3284 -0.0697 -0.2694
 3294W        W 7358   0.521   1.666  10.005  0.1352  0.2269 -0.1014
 3295W        W 7359   4.361   4.504  10.389  0.0461 -0.0641 -0.1239
 3296W        W 7360   8.467   8.243   0.536  0.3625 -0.1103 -0.2202
 3297W        W 7361   7.103   7.657  11.597  0.1142  0.1149  0.3485
 3298W        W 7362   9.929   6.690   1.773  0.2043 -0.0909  0.0705
 3299W        W 7363  10.071   6.992   9.366 -0.2358 -0.0777  0.2980
 3300W        W 7364   3.503   3.830   0.097 -0.2265 -0.1667 -0.2584
 3301W        W 7365   2.530  10.620   3.057  0.2414  0.0533  0.1812
 3302W        W 7366   3.010   5.704   8.987 -0.0245 -0.0247 -0.2228
 3303W        W 7367   9.797   5.865   1.207 -0.1819  0.1519 -0.0617
 3304W        W 7368   1.434   8.069   0.161  0.3377  0.2668 -0.2467
 3305W        W 7369   7.974  10.587  11.168  0.1832 -0.2037 -0.0448
 3306W        W 7370   2.688   7.886   0.499 -0.0397 -0.2392  0.1284
 3307W        W 7371   3.029   3.018   8.540  0.0059 -0.0546 -0.1134
 3308W        W 7372   6.662   0.598  10.722 -0.0898 -0.1272  0.1541
 3309W        W 7373   1.694   8.585   8.464 -0.0944 -0.2299 -0.3055
 3310W        W 7374   4.726   8.210  11.281  0.2805 -0.2306  0.3690
 3311W        W 7375   2.094   4.693   7.852  0.0577 -0.0932 -0.1407
 3312W        W 7376   2.207   7.061   3.955  0.1378  0.1586 -0.0664
 3313W        W 7377   9.738   4.982  10.495 -0.2994 -0.0050  0.2023
 3314W        W 7378   8.735   4.569   0.437  0.0363 -0.1586 -0.2562
 3315W        W 7379   1.858   6.387   1.334  0.2091 -0.4485 -0.0915
 3316W        W 7380   9.410   8.923  11.357  0.0052 -0.1730  0.0363
 3317W        W 7381   9.698   3.767   9.609 -0.0684 -0.2248  0.0636
 3318W        W 7382   6.244   7.907   0.233  0.2341 -0.3228 -0.0896
 3319W        W 7383   8.960   8.400  10.568  0.2848 -0.2716 -0.0025
 3320W        W 7384   0.043   6.616   3.602 -0.0822  0.2178  0.2834
 3321W        W 7385   9.292   2.982   2.710  0.1206 -0.3557 -0.0423
 3322W        W 7386   7.140   6.164   3.426 -0.2759 -0.0001  0.2053
 3323W        W 7387   8.195   3.498   0.506  0.1838  0.1358  0.1841
 3324W        W 7388   0.766   5.125   8.431  0.0858  0.1316  0.4244
 3325W        W 7389   3.062   1.177   3.364 -0.1053 -0.0979  0.1964
 3326W        W 7390   8.983   8.408   3.851 -0.0931  0.1750  0.0535
 3327W        W 7391   8.393   7.143   7.384 -0.1334 -0.0541 -0.5495
 3328W        W 7392   8.091   5.992   3.353 -0.0010  0.0786  0.2966
 3329W        W 7393  10.210   9.512  10.552 -0.1377  0.0536 -0.1430
 3330W        W 7394   9.947   5.973  10.678  0.1999 -0.3509  0.4532
 3331W        W 7395   8.318   9.768   9.126 -0.2413 -0.2357 -0.0872
 3332W        W 7396   2.672   8.120   1.404 -0.0413  0.0255  0.2533
 3333W        W 7397   5.674   3.333   9.148  0.2500 -0.0140 -0.3212
 3334W        W 7398   7.728   6.604  10.997  0.0377  0.0316 -0.2058
 3335W        W 7399   6.859   8.776  10.587 -0.1365 -0.2753  0.1478
 3336W        W 7400   3.932   3.002   8.973 -0.0721  0.1334 -0.3852
 3337W        W 7401   4.391   2.029  10.812 -0.0292  0.0323  0.2279
 3338W        W 7402   6.605  10.542   3.653  0.2783 -0.0856 -0.1277
 3339W        W 7403  10.181   7.488   3.713 -0.1140  0.1393 -0.1364
 3340W        W 7404   1.254   1.182   2.889 -0.1313  0.1842  0.1560
 3341W        W 7405   0.081   7.981  10.921  0.0705 -0.0035 -0.1358
 3342W        W 7406   4.241   9.357   1.520 -0.0787  0.1006 -0.0122
 3343W        W 7407   3.646   1.560   8.865 -0.0294  0.1219  0.1533
 3344W        W 7408   1.406   1.660   2.125  0.2511 -0.2986 -0.2403
 3345W        W 7409   7.643   1.598   9.619 -0.0980 -0.1891  0.2485
 3346W        W 7410   3.230   7.750   4.222  0.0129 -0.2240 -0.0142
 3347W        W 7411  10.458   3.639   9.328  0.1339 -0.0422  0.0800
 3348W        W 7412   6.740   1.172  10.817  0.0681 -0.0494 -0.0515
 3349W        W 7413   5.187   5.482   8.301 -0.0424  0.2721  0.0016
 3350W        W 7414   3.091   7.198   3.832 -0.0086  0.2411 -0.4594
 3351W        W 7415   0.292   9.037  11.551 -0.3297 -0.0268 -0.3531
 3352W        W 7416   8.799   0.405  10.910  0.3203 -0.2174  0.0319
 3353W        W 7417   4.199   9.781   0.734  0.0128  0.0324  0.0984
 3354W        W 7418   1.142   5.256   2.340 -0.0346 -0.2080 -0.3109
 3355W        W 7419   3.090   0.827   2.485 -0.2566 -0.1499  0.0274
 3356W        W 7420   3.254  10.447   1.735 -0.0176 -0.1386 -0.1507
 3357W        W 7421   4.543   0.041   9.048  0.2517 -0.0710  0.0783
 3358W        W 7422   9.978  10.206   2.106  0.2064 -0.0826  0.0193
 3359W        W 7423   9.143  10.570   2.829 -0.0190  0.4838 -0.2140
 3360W        W 7424   3.847   5.899   8.718  0.0551 -0.1521 -0.0070
 3361W        W 7425   8.405   0.111   8.226  0.0032  0.0382 -0.0496
 3362W        W 7426   4.442   0.261   1.042 -0.1712  0.1494 -0.2735
 3363W        W 7427   8.636   9.391   1.113 -0.0036 -0.0402  0.1160
 3364W        W 7428   4.509   5.467  11.360  0.0786  0.1827  0.2831
 3365W        W 7429   6.542   4.220   0.001  0.0440  0.2722 -0.1699
 3366W        W 7430   4.063   7.706  11.070 -0.0961 -0.0818  0.1967
 3367W        W 7431   8.169   2.640  10.198 -0.3702 -0.0017  0.0744
 3368W        W 7432   2.145   1.211   8.520  0.1197 -0.1246 -0.0832
 3369W        W 7433   9.901   2.154   0.524  0.0942 -0.2395  0.1323
 3370W        W 7434   9.824   5.122   1.708 -0.1732  0.2397 -0.1961
 3371W        W 7435   1.484   2.301  11.065 -0.3913 -0.1842 -0.1875
 3372W        W 7436   4.314   3.665  10.076  0.2286 -0.1203  0.0479
 3373W        W 7437   7.034   4.219   9.260 -0.1378 -0.1852  0.3342
 3374W        W 7438  10.069   1.518   3.493  0.1382  0.1642  0.0904
 3375W        W 7439   9.056   5.391   7.887  0.1541 -0.3283  0.1127
 3376W        W 7440   5.513   7.256   1.002 -0.2107  0.2719  0.0544
 3377W        W 7441   9.447   5.110   3.072  0.0927 -0.1068 -0.0249
 3378W        W 7442   0.870   1.158   0.522  0.4373 -0.1725  0.3100
 3379W        W 7443   9.089   3.780   2.959 -0.2998  0.1748  0.0037
 3380W        W 7444   3.360   1.857  10.858 -0.2094 -0.0353  0.1409
 3381W        W 7445   8.859   3.337  11.179  0.1955 -0.2891  0.2761
 3382W        W 7446   3.999   4.851   3.354  0.0493 -0.1455  0.3536
 3383W        W 7447   0.970   4.805   8.659  0.1137  0.2692 -0.4250
 3384W        W 7448   9.477   5.419   0.106 -0.1270  0.0420 -0.0335
 3385W        W 7449  10.617   2.034   9.298 -0.0561  0.1331 -0.0968
 3386W        W 7450   6.121  10.427  10.202 -0.1596 -0.1168 -0.5470
 3387W        W 7451   5.493   5.756   8.043 -0.0563 -0.1291  0.2121
 3388W        W 7452   3.077   3.791   2.663 -0.0934  0.0603 -0.3477
 3389W        W 7453   7.025   4.984  11.618 -0.2146 -0.3085  0.2355
 3390W        W 7454   8.029   2.225   8.053 -0.2356  0.1024 -0.0861
 3391W        W 7455   3.406   4.769   8.825 -0.0896 -0.0095  0.2236
 3392W        W 7456   5.785   5.835   0.673 -0.1797  0.2249 -0.2289
 3393W        W 7457  10.184   3.997   9.554  0.0389  0.0892 -0.2516
 3394W        W 7458   1.707   4.664   3.330  0.1465  0.1730 -0.0050
 3395W        W 7459   6.243   3.353   9.588  0.0845 -0.2171 -0.0437
 3396W        W 7460   3.759   5.492   3.738 -0.3171 -0.1167  0.2234
 3397W        W 7461   3.143   5.696   1.328 -0.0954 -0.5094 -0.0673
 3398W        W 7462   8.407   5.865   1.096 -0.2105  0.0635  0.1964
 3399W        W 7463   6.521   9.327   8.374  0.1646 -0.2908 -0.4432
 3400W        W 7464   8.635  10.393   9.115  0.0397  0.0212 -0.0137
 3401W        W 7465   2.180   1.550   9.576  0.0659  0.0787  0.0118
 3402W        W 7466   2.264   0.133   9.658  0.4087 -0.0444 -0.0877
 3403W        W 7467  10.228   2.744   2.111 -0.2286  0.0902  0.1867
 3404W        W 7468   5.012   8.021   8.586  0.0294  0.0065 -0.3885
 3405W        W 7469   4.558   4.737   2.108 -0.1448  0.2463  0.2160
 3406W        W 7470  10.486   2.350  11.513  0.2774 -0.1074 -0.1205
 3407W        W 7471   3.221   4.870   2.546 -0.0553 -0.0584 -0.0559
 3408W        W 7472   7.042   9.807  10.978 -0.2767 -0.2493 -0.1571
 3409W        W 7473   6.445   3.347  10.215  0.1067  0.3828  0.4265
 3410W        W 7474   2.716   7.016   8.239 -0.2578  0.2802 -0.1015
 3411W        W 7475   7.551   2.364  10.846 -0.0788  0.0171 -0.0703
 3412W        W 7476   7.339   2.840  11.253 -0.2023 -0.2501 -0.0115
 3413W        W 7477   2.739   5.533   8.041 -0.3022 -0.1033 -0.2090
 3414W        W 7478   1.776   4.572   9.785  0.0897  0.0961  0.0355
 3415W        W 7479  10.576   0.248   2.513  0.0307 -0.0555 -0.0851
 3416W        W 7480   8.118   2.578   0.124 -0.0207 -0.0998 -0.0194
 3417W        W 7481   7.784   3.815   0.915  0.2578 -0.2752 -0.0443
 3418W        W 7482   1.735   4.755  10.960 -0.1932 -0.3064 -0.2030
 3419W        W 7483   5.220   3.355   9.352  0.0000  0.1454 -0.0830
 3420W        W 7484   3.991   6.381   8.672  0.1076 -0.0775  0.2428
 3421W        W 7485   0.091   5.802   3.628  0.1927  0.1452 -0.0588
 3422W        W 7486   2.233   5.572  10.554  0.0714  0.0604  0.1934
 3423W        W 7487   2.292   7.310   8.056 -0.2861 -0.1254 -0.0615
 3424W        W 7488   4.294   2.156  10.298 -0.1034  0.0098 -0.2185
 3425W        W 7489  10.543   5.092   0.306  0.2281  0.2466 -0.0433
 3426W        W 7490   8.166   1.108   0.155 -0.3451  0.0833 -0.3284
 3427W        W 7491   3.412   2.749   0.044 -0.0502  0.0541 -0.3054
 3428W        W 7492   9.511  10.134   3.318  0.1398  0.0054  0.1265
 3429W        W 7493   3.697   8.062   2.988 -0.0573  0.0573 -0.4951
 3430W        W 7494   1.894   5.676   8.302  0.0553 -0.0444  0.1508
 3431W        W 7495   4.850   6.946   1.494  0.1638 -0.3053  0.2227
 3432W        W 7496   9.783   1.469   1.078  0.0119 -0.0255 -0.2188
 3433W        W 7497   9.046  10.502   0.502  0.1548  0.0457 -0.1774
 3434W        W 7498   7.449   0.222   3.322  0.2358  0.0229 -0.1054
 3435W        W 7499   7.998   2.259   8.630  0.0182 -0.0941  0.0912
 3436W        W 7500   0.524   9.200  10.109  0.1420  0.0567  0.1181
 3437W        W 7501   0.663   8.596   8.949  0.0108 -0.2738  0.2121
 3438W        W 7502   1.318   5.981  10.647  0.2162 -0.2445 -0.0842
 3439W        W 7503   9.740   9.485  10.236  0.3703  0.3053  0.0914
 3440W        W 7504   1.329   4.135   9.171  0.0238 -0.0705 -0.0604
 3441W        W 7505   1.948   9.375   8.197 -0.2804 -0.2477  0.0272
 3442W        W 7506   0.835   1.043   1.861 -0.2386  0.3090  0.0165
 3443W        W 7507   9.007   0.145   9.212 -0.0182  0.1260 -0.1867
 3444W        W 7508   2.924  10.589  10.379  0.2464  0.3006  0.0834
 3445W        W 7509   8.225   5.219   0.649 -0.0315 -0.2408  0.1720
 3446W        W 7510   0.411   1.188   8.479  0.1451  0.0897  0.5883
 3447W        W 7511   9.397   0.719   7.994  0.0010  0.0764  0.1828
 3448W        W 7512  10.507   1.135   7.564 -0.1143 -0.1042  0.1314
 3449W        W 7513   5.848   8.501   8.873  0.0944 -0.2344  0.2850
 3450W        W 7514   4.585   3.717   1.151 -0.2249  0.1309  0.2134
 3451W        W 7515   6.161   0.907   2.661 -0.0719 -0.1853  0.2415
 3452W        W 7516   1.054   3.649   8.445  0.3290 -0.1221 -0.1057
 3453W        W 7517   6.286   5.734   9.094  0.2251 -0.0896 -0.2295
 3454W        W 7518   1.530   0.626   1.195 -0.1089 -0.0173 -0.1871
 3455W        W 7519  10.561  10.499  11.270  0.3843  0.2089  0.0156
 3456W        W 7520   7.935   7.948   2.370 -0.2702 -0.2026 -0.0326
 3457W        W 7521  10.096   4.615   1.708  0.0557 -0.2258  0.1785
 3458W        W 7522  10.298   7.676  11.186 -0.0114 -0.1172 -0.0818
 3459W        W 7523   8.219   0.692   3.778 -0.1298 -0.1098  0.0244
 3460W        W 7524   5.830   7.787   3.578 -0.3395  0.2700  0.3275
 3461W        W 7525   0.450   6.118   0.079 -0.0076 -0.1717 -0.2410
 3462W        W 7526   6.533   2.462   9.996 -0.1874  0.0494  0.2218
 3463W        W 7527   6.035   9.115   2.540  0.0163 -0.0585 -0.1797
 3464W        W 7528   9.852  10.605  10.598  0.0207 -0.0943 -0.1615
 3465W        W 7529   7.198   5.556   8.545  0.1754 -0.1013 -0.1951
 3466W        W 7530   7.743   9.596   8.516 -0.2350 -0.1598  0.5066
 3467W        W 7531   3.625  10.554   9.767  0.0175 -0.2700 -0.3140
 3468W        W 7532   1.663   2.772   3.309 -0.0434  0.3344 -0.0885
 3469W        W 7533   3.462   2.174   1.808 -0.0150  0.2557 -0.1134
 3470W        W 7534   2.183   3.865   9.902 -0.0576 -0.0009 -0.2971
 3471W        W 7535   6.318  10.471   1.102 -0.0273 -0.2246 -0.1941
 3472W        W 7536   4.294   7.425  10.107 -0.1049 -0.3304 -0.0759
 3473W        W 7537   8.287   4.849   3.318  0.1031  0.0873  0.4207
 3474W        W 7538   2.557   8.331   9.465 -0.1152  0.1491  0.2326
 3475W        W 7539   8.631   4.418   3.221  0.0825 -0.0396 -0.2881
 3476W        W 7540   8.124   6.710   2.011  0.0359 -0.1347  0.1606
 3477W        W 7541   4.364   9.844   1.713  0.1147  0.2056 -0.0209
 3478W        W 7542   1.287   3.030   9.389 -0.1384 -0.0199  0.1114
 3479W        W 7543   6.037   7.253   9.943 -0.0820 -0.1576  0.0055
 3480W        W 7544   6.728   6.221   9.828  0.1957 -0.1746 -0.0416
 3481W        W 7545   2.197   7.512   0.002 -0.1952  0.0384 -0.1012
 3482W        W 7546   9.295   5.008  11.528  0.0717  0.1168  0.1169
 3483W        W 7547   0.218   6.658   2.342 -0.0424 -0.0398  0.0335
 3484W        W 7548   5.111   9.871   1.282 -0.1430  0.0073  0.2489
 3485W        W 7549   5.586   0.236   3.820  0.3059  0.0913 -0.1030
 3486W        W 7550   7.503   3.853   8.143  0.2594 -0.0080 -0.0645
 3487W        W 7551   6.488  10.184   1.755  0.1019 -0.2230  0.1124
 3488W        W 7552   3.520  10.448   3.135  0.0084  0.0705 -0.2162
 3489W        W 7553   2.689   2.267   1.298 -0.3704  0.0475 -0.0467
 3490W        W 7554   9.591   1.496   3.149 -0.0273 -0.1716  0.2023
 3491W        W 7555   2.006   8.956   0.035  0.1831 -0.3639 -0.1602
 3492W        W 7556   2.387   4.374  11.134  0.2296 -0.0438 -0.3611
 3493W        W 7557   1.188  10.276  10.773 -0.2257  0.2345 -0.1334
 3494W        W 7558   5.955   7.481  11.123 -0.1364 -0.1989 -0.1816
 3495W        W 7559   5.990   4.981   7.766  0.0277  0.0466  0.2810
 3496W        W 7560   9.264   3.078   7.768 -0.2414 -0.1939  0.2856
 3497W        W 7561   6.603   1.431   8.775  0.4077  0.0280  0.1616
 3498W        W 7562   4.908   6.839   9.517 -0.0597  0.1928 -0.2577
 3499W        W 7563   8.838   8.273   2.021  0.0999 -0.0407 -0.0043
 3500W        W 7564   9.766   8.888   9.382  0.2011  0.4457 -0.1847
 3501W        W 7565   9.977  10.292   0.551 -0.1900  0.1533  0.1597
 3502W        W 7566   3.716   8.872  11.173  0.2723  0.0909 -0.1128
 3503W        W 7567   7.686   1.778  10.187 -0.2894  0.0822 -0.0276
 3504W        W 7568   5.778   9.067  11.366  0.1678  0.0840 -0.1025
 3505W        W 7569   5.620   8.176   8.555  0.0754 -0.0104 -0.0284
 3506W        W 7570   8.339   1.296   9.994 -0.2537 -0.2631 -0.0967
 3507W        W 7571   3.430   7.752   0.073 -0.2414  0.1557 -0.1926
 3508W        W 7572   3.565   3.025   8.564  0.0284  0.1604 -0.0512
 3509W        W 7573   0.112   9.651   0.629  0.0347 -0.2606 -0.1334
 3510W        W 7574   7.991   6.832   7.444  0.1347  0.4222  0.1669
 3511W        W 7575   6.237   0.067   7.972 -0.0046 -0.1076  0.0567
 3512W        W 7576   6.937   3.445   4.060 -0.0383 -0.0301  0.3191
 3513W        W 7577   1.046   9.227  10.875  0.2569  0.0456 -0.1587
 3514W        W 7578   4.296   9.487  11.012 -0.2948  0.0571 -0.0466
 3515W        W 7579   3.465   7.241   3.327 -0.1049 -0.1125 -0.1221
 3516W        W 7580   2.357   8.087  11.268 -0.1437  0.0561  0.1464
 3517W        W 7581   5.065   2.522   9.386  0.0594  0.0353 -0.0273
 3518W        W 7582   2.441   2.590   3.369  0.0844  0.2131  0.0476
 3519W        W 7583   4.924   7.517   8.518  0.0046 -0.2029 -0.0944
 3520W        W 7584   5.834   8.460  10.475  0.2792 -0.1193  0.1871
 3521W        W 7585   1.345   3.334   0.863 -0.1571  0.1309  0.1197
 3522W        W 7586   4.085   4.045  10.322  0.0468 -0.0207 -0.2358
 3523W        W 7587   7.863   5.544   9.961  0.0044  0.4451  0.1033
 3524W        W 7588   8.877   1.364  10.772  0.2206 -0.0939 -0.5138
 3525W        W 7589   0.237  10.565  10.887  0.0645 -0.0147 -0.4704
 3526W        W 7590   1.372   0.504  11.618  0.0055 -0.1932 -0.0772
 3527W        W 7591   4.925   5.594  10.987  0.2024  0.1464  0.4694
 3528W        W 7592   7.297   0.453   9.230  0.2337 -0.1506 -0.0222
 3529W        W 7593   4.776   2.392   8.957  0.0982 -0.0524  0.0905
 3530W        W 7594   3.706   7.392   1.155 -0.3800  0.2744 -0.1595
 3531W        W 7595   0.041   4.535   9.079  0.0309 -0.0030  0.2709
 3532W        W 7596   2.521   9.920  11.025  0.1171 -0.0346  0.2231
 3533W        W 7597   5.373   1.514   8.951 -0.2236 -0.1164 -0.0348
 3534W        W 7598   4.406   7.445   8.496  0.0041  0.1358  0.0731
 3535W        W 7599   4.648   8.550   0.429  0.0507 -0.2524 -0.0514
 3536W        W 7600   4.456   6.669   8.795  0.2319 -0.1897 -0.0724
 3537W        W 7601  10.542   9.738   9.185 -0.2019 -0.1412 -0.5322
 3538W        W 7602   8.380   4.591   1.723  0.2835  0.0260  0.2519
 3539W        W 7603   8.508   9.322   9.819 -0.0891  0.1984  0.0159
 3540W        W 7604   7.466   2.081   9.629  0.1304 -0.0723  0.3065
 3541W        W 7605   4.813   9.480   9.751 -0.0178  0.2161 -0.1605
 3542W        W 7606  10.339   5.796   0.900 -0.1441 -0.2918 -0.0633
 3543W        W 7607   9.858   9.716   1.957 -0.4037  0.3817 -0.0704
 3544W        W 7608   9.623   5.157   1.122 -0.1158 -0.0664  0.3099
 3545W        W 7609   3.611   9.976   3.028 -0.0104  0.1591 -0.1116
 3546W        W 7610   5.999   1.473   0.748  0.1464 -0.2611  0.3380
 3547W        W 7611   1.225   7.136   9.611  0.0795  0.0098  0.0589
 3548W        W 7612   9.430   7.680   1.036  0.2167 -0.0540 -0.0653
 3549W        W 7613   4.523   8.516   1.412 -0.1195  0.1698  0.0542
 3550W        W 7614   9.340   6.092   9.843  0.0806  0.0235 -0.2891
 3551W        W 7615   4.808   0.021  11.640  0.0910 -0.1968  0.2856
 3552W        W 7616   3.922   7.366   3.536 -0.0249 -0.0520 -0.0134
 3553W        W 7617   4.105   3.304   9.812 -0.1583 -0.0742 -0.2216
 3554W        W 7618   0.332   6.511   7.359  0.1619  0.2650 -0.1100
 3555W        W 7619   9.239   7.947   9.770  0.0034 -0.2367 -0.0009
 3556W        W 7620   4.694   5.861   2.892 -0.1563 -0.5757 -0.2828
 3557W        W 7621   3.910   4.908   8.794 -0.0153 -0.1417  0.1621
 3558W        W 7622   0.408   1.360   1.950  0.0805  0.0697  0.0257
 3559W        W 7623   2.369   6.835   9.580  0.1446  0.1650  0.2677
 3560W        W 7624   6.609   2.686   3.463  0.2497  0.3216 -0.3131
 3561W        W 7625   4.259   9.800   9.947 -0.1443  0.0282 -0.1704
 3562W        W 7626   6.912   6.922   8.856 -0.2687  0.0754 -0.1876
 3563W        W 7627   9.096   7.454   2.812 -0.0447  0.1302 -0.0641
 3564W        W 7628   6.762   3.039   2.833  0.2242 -0.1819 -0.2215
 3565W        W 7629   0.206  10.161   8.905 -0.0796 -0.1289 -0.0674
 3566W        W 7630   3.198   1.011   1.439 -0.0346 -0.0577  0.1680
 3567W        W 7631  10.051   8.752   8.370 -0.2332  0.1885  0.0811
 3568W        W 7632   4.312   2.126   1.633 -0.0519  0.0534 -0.1437
 3569W        W 7633   8.440   1.445   9.063  0.0641 -0.3262  0.0184
 3570W        W 7634   9.481   8.946  10.839  0.1521  0.1532 -0.0349
 3571W        W 7635   5.631   5.181   8.042  0.0158 -0.1524 -0.0937
 3572W        W 7636   1.419   6.697   9.717 -0.0542  0.1142  0.0477
 3573W        W 7637   3.828   8.492  10.804  0.0478 -0.1583  0.0645
 3574W        W 7638   5.044   1.242   1.198  0.2864  0.0373  0.2903
 3575W        W 7639   2.899   1.672   0.786 -0.2001  0.0439 -0.0626
 3576W        W 7640   5.876   6.450   9.245 -0.0860  0.0989  0.5892
 3577W        W 7641   5.232   7.256   8.254 -0.0699  0.1540  0.2436
 3578W        W 7642   2.714   4.171   8.522  0.0139 -0.2328 -0.0858
 3579W        W 7643   4.851   1.689   0.080 -0.1687  0.0811  0.0346
 3580W        W 7644   8.105   4.547  11.103  0.0967 -0.0351  0.2162
 3581W        W 7645   3.592   9.223   9.755 -0.0246  0.0225 -0.2268
 3582W        W 7646  10.076   3.872  10.044  0.1053  0.2874  0.1177
 3583W        W 7647   5.676   4.496   1.958  0.1694 -0.3565 -0.1917
 3584W        W 7648   3.392  10.144   9.408  0.0770  0.2235 -0.0696
 3585W        W 7649   6.462   7.145   9.173  0.0181  0.0312 -0.1235
 3586W        W 7650   0.568   4.885  10.108  0.0650  0.1755  0.2558
 3587W        W 7651   2.639   9.614   8.738  0.0461  0.2302 -0.0207
 3588W        W 7652   3.200   5.493   1.915  0.1645 -0.2178 -0.0206
 3589W        W 7653   2.493   1.003   7.647  0.1805 -0.0258  0.0083
 3590W        W 7654   2.175   2.674  10.537  0.1722 -0.0226  0.0513
 3591W        W 7655   3.126   9.794   7.895 -0.1243  0.1856 -0.0776
 3592W        W 7656  10.412  10.020   3.298  0.3068  0.0167  0.1729
 3593W        W 7657   6.932   7.339  10.417  0.0748  0.0268 -0.0982
 3594W        W 7658   4.998  10.580   1.458 -0.1238  0.1347  0.1638
 3595W        W 7659   4.265   0.248   0.180  0.1534 -0.0768  0.4296
 3596W        W 7660   2.854   2.585   8.450 -0.3040 -0.2258  0.2814
 3597W        W 7661   1.386   6.094   1.684  0.2359  0.0103 -0.1679
 3598W        W 7662   4.380   6.751  11.097  0.0110 -0.1920  0.0357
 3599W        W 7663   5.890   7.094  10.858  0.0318 -0.3894  0.0801
 3600W        W 7664   3.367   0.805   3.262  0.0794 -0.0752 -0.0982
 3601W        W 7665   3.364   8.325   9.861  0.0164  0.0883  0.1885
 3602W        W 7666   1.009   2.823   0.015  0.4421  0.0343  0.2157
 3603W        W 7667   4.159   1.854   1.034 -0.0025  0.1514 -0.0986
 3604W        W 7668  10.507   2.850   7.589 -0.0319  0.3595 -0.4281
 3605W        W 7669  10.499   8.460   7.988  0.1073  0.0322  0.0492
 3606W        W 7670   7.721   3.896  10.395 -0.1348  0.0909 -0.1440
 3607W        W 7671   6.169   5.362   1.249  0.1495  0.0877  0.0041
 3608W        W 7672   8.386   7.148   0.030  0.0423  0.2617  0.1415
 3609W        W 7673   6.955   7.294  10.926  0.2963  0.0210  0.1885
 3610W        W 7674   0.549   3.505   2.050 -0.4951  0.0607 -0.1358
 3611W        W 7675   8.185   0.808   7.725 -0.1516 -0.2172  0.0367
 3612W        W 7676   4.455   2.391   0.644  0.1719 -0.0195 -0.2269
 3613W        W 7677   3.374   5.651  11.178  0.0086 -0.2154  0.0197
 3614W        W 7678   9.390   7.491  10.668 -0.1032 -0.1561  0.0800
 3615W        W 7679   7.217   8.947   9.485 -0.0130  0.1056 -0.0262
 3616W        W 7680   2.920   8.086   9.840  0.0547  0.1973 -0.0972
 3617W        W 7681   8.614   5.725  10.297 -0.1184 -0.1371  0.6018
 3618W        W 7682   3.390   3.451   1.445  0.1407 -0.1863  0.1635
 3619W        W 7683   0.422   3.077   3.853  0.1314  0.4257 -0.2032
 3620W        W 7684   0.525   1.230  11.268 -0.4220 -0.0144 -0.1319
 3621W        W 7685   9.316   5.195   8.271 -0.1912  0.2864  0.1272
 3622W        W 7686   7.750   9.391   0.867 -0.1404  0.0879 -0.0225
 3623W        W 7687   6.368   1.443   9.509 -0.1342  0.0640 -0.0697
 3624W        W 7688   3.305   7.729   8.956  0.0599  0.0768  0.0149
 3625W        W 7689   2.650   6.999   2.546 -0.3436 -0.2950  0.0719
 3626W        W 7690   8.028   3.232  10.959  0.0278  0.0642 -0.0502
 3627W        W 7691   7.856   6.304   9.192  0.0924  0.1505  0.0644
 3628W        W 7692   8.147   8.520   9.480 -0.1304 -0.1956  0.0279
 3629W        W 7693   9.102   4.577   9.099 -0.1311  0.0941  0.0746
 3630W        W 7694   1.062   1.295  10.040 -0.0008  0.4636  0.1543
 3631W        W 7695   7.618   0.074  10.052 -0.3141 -0.1460 -0.0054
 3632W        W 7696   4.557   9.902   0.396  0.1067 -0.1534  0.1255
 3633W        W 7697   9.816   6.525  11.369  0.0210  0.4607  0.0933
 3634W        W 7698   6.277   5.962   2.035 -0.3754 -0.4010  0.2570
 3635W        W 7699   2.786   1.618  11.098 -0.0138 -0.0490 -0.2371
 3636W        W 7700   9.120   0.457   0.016  0.3868 -0.3147  0.1655
 3637W        W 7701   5.275   0.850   1.065 -0.3068  0.2392  0.1633
 3638W        W 7702   4.119  10.247   2.964 -0.1540  0.0671 -0.1292
 3639W        W 7703   2.778   3.464   9.145 -0.3045  0.1356  0.0823
 3640W        W 7704  10.480   8.551  10.036  0.0817 -0.1848 -0.0895
 3641W        W 7705   1.177   4.399   1.114 -0.1879  0.1769 -0.2175
 3642W        W 7706   9.729   6.105  11.167 -0.0938 -0.1827 -0.1408
 3643W        W 7707   1.466   9.062  10.663 -0.1275 -0.0765  0.0870
 3644W        W 7708   8.900   2.241   3.142  0.2244  0.0170 -0.1230
 3645W        W 7709   7.348  10.054   1.497 -0.2527 -0.0600 -0.1970
 3646W        W 7710   7.451   4.335   2.911  0.2942  0.1051 -0.0402
 3647W        W 7711   8.277   6.057  10.462  0.1986  0.2259 -0.0462
 3648W        W 7712   1.019   9.315   9.804  0.2880 -0.0021  0.1006
 3649W        W 7713   8.649   3.368   1.760  0.4304  0.0738 -0.1725
 3650W        W 7714   1.979   8.600   2.030  0.0560 -0.0220 -0.3395
 3651W        W 7715   0.980   3.116  10.768  0.0322  0.3264 -0.0122
 3652W        W 7716   1.713   8.534   8.965 -0.1412 -0.1147 -0.3331
 3653W        W 7717   3.473   1.717   3.424  0.1986 -0.4003  0.3624
 3654W        W 7718   2.623   7.613   1.375  0.0406 -0.0309  0.5759
 3655W        W 7719   2.316   2.635   8.453  0.2252  0.1403  0.0266
 3656W        W 7720   2.556   7.922   2.326 -0.2574  0.1750  0.0817
 3657W        W 7721   3.130   2.423   2.036  0.0747 -0.0508 -0.1132
 3658W        W 7722   8.664   9.540   8.280 -0.1113  0.2389  0.1525
 3659W        W 7723  10.039   8.814   7.414  0.1767 -0.2855 -0.0566
 3660W        W 7724   1.534   8.420  11.408 -0.0053  0.1263  0.1578
 3661W        W 7725  10.609   4.414   1.976  0.1977  0.1462 -0.0931
 3662W        W 7726   4.919   1.188   3.044 -0.1415 -0.1952  0.0780
 3663W        W 7727   3.025   6.590  10.617  0.0848 -0.0103 -0.0707
 3664W        W 7728   8.210   7.960   1.806 -0.1025  0.0016  0.3099
 3665W        W 7729   1.351   0.669   7.730  0.1785  0.0308 -0.0258
 3666W        W 7730   7.785   2.248  10.030  0.1196 -0.0872  0.1244
 3667W        W 7731   1.153   3.377   9.743 -0.1401  0.0695 -0.2937
 3668W        W 7732   9.813   3.827   1.325 -0.0244 -0.3494  0.1091
 3669W        W 7733  10.009   4.116   0.541 -0.2153  0.2625  0.1814
 3670W        W 7734   1.943   5.064   9.816 -0.3777 -0.0845 -0.2364
 3671W        W 7735   2.887   1.557   8.381 -0.1513 -0.3793 -0.0905
 3672W        W 7736   8.769   8.896   0.976 -0.0430 -0.0302 -0.1334
 3673W        W 7737   6.100   5.150  11.126  0.1189 -0.0846 -0.1441
 3674W        W 7738   2.169   4.939  11.144  0.0912 -0.2815 -0.3753
 3675W        W 7739   2.392   3.947   3.182  0.1127  0.1395  0.0898
 3676W        W 7740   7.516   0.772   0.835 -0.2071 -0.0546 -0.0041
 3677W        W 7741   8.609   5.099   9.605 -0.1271  0.0871 -0.0314
 3678W        W 7742   0.732   7.033   0.708  0.0626 -0.2952 -0.0450
 3679W        W 7743   4.537   3.500   9.180  0.4336 -0.0563 -0.2825
 3680W        W 7744   4.290   5.305   3.593 -0.2243  0.1793 -0.0019
 3681W        W 7745   2.983   0.259   0.326  0.1607  0.0970 -0.0733
 3682W        W 7746   2.451   9.786  10.376  0.0913 -0.0948 -0.1283
 3683W        W 7747   5.114  10.150  11.284 -0.2527  0.0455 -0.0997
 3684W        W 7748   3.859   3.109   1.386  0.2067  0.2253  0.2004
 3685W        W 7749   4.743  10.570  11.091  0.0230  0.0591 -0.0392
 3686W        W 7750   9.591   0.373   2.923 -0.0263 -0.1432  0.0762
 3687W        W 7751  10.241   1.769   2.259 -0.0726  0.2186 -0.0873
 3688W        W 7752   9.398   6.506   9.490  0.4974  0.0338  0.1535
 3689W        W 7753   1.635   5.818  11.240  0.2158  0.0937  0.3281
 3690W        W 7754   9.791   9.129   1.946  0.0240 -0.0144  0.2366
 3691W        W 7755   8.757   2.149   2.340 -0.0793 -0.0657  0.1455
 3692W        W 7756   8.201   4.170   1.385 -0.3710 -0.1241  0.1070
 3693W        W 7757   0.366   2.033  11.103 -0.1630 -0.2074  0.3355
 3694W        W 7758   2.693   4.705  10.865 -0.0596 -0.0462  0.0482
 3695W        W 7759   1.422   5.070   9.578  0.0813  0.1316 -0.2201
 3696W        W 7760   0.679   0.380   1.147  0.0108 -0.1765  0.1468
 3697W        W 7761   4.645   7.607  10.987  0.2499  0.0012 -0.0963
 3698W        W 7762   4.825   1.194   2.594  0.2205  0.0177  0.2658
 3699W        W 7763   5.883   4.132   3.348 -0.1258 -0.2800 -0.2901
 3700W        W 7764   9.292   3.745  11.206  0.2046  0.1323  0.0029
 3701W        W 7765   7.483   1.103   2.795  0.2713  0.0236 -0.4028
 3702W        W 7766   5.958   3.339   2.301  0.0147 -0.1280  0.3406
 3703W        W 7767   9.333   0.496   9.379  0.0166 -0.2634 -0.2447
 3704W        W 7768   1.059   3.184  11.356  0.1185 -0.0772  0.1422
 3705W        W 7769   5.987   6.762  10.084  0.1902 -0.0310  0.2213
 3706W        W 7770   2.710   7.101   9.087  0.0070  0.1635  0.0809
 3707W        W 7771   2.789   7.565  10.634 -0.1584  0.1570 -0.1276
 3708W        W 7772   1.885   0.001  11.200 -0.2256 -0.1087  0.5060
 3709W        W 7773   9.371   3.487   9.921  0.2562 -0.1534  0.0961
 3710W        W 7774   6.846   7.156   0.261  0.0312 -0.0226 -0.2182
 3711W        W 7775   4.930   8.011  10.894 -0.0099  0.1352  0.1466
 3712W        W 7776   1.490  10.297   9.571  0.1452  0.1159  0.4089
 3713W        W 7777   4.954   6.854  11.156 -0.0001 -0.0121 -0.5468
 3714W        W 7778   3.265   1.277   2.591  0.1253  0.1725 -0.2116
 3715W        W 7779   6.790   9.025   9.802 -0.3060  0.1304  0.1108
 3716W        W 7780   7.504  10.610   9.478 -0.1205  0.0814 -0.2146
 3717W        W 7781   2.285   2.882   7.934  0.2342 -0.0201  0.0620
 3718W        W 7782  10.241   2.313   3.760  0.0882 -0.0237 -0.0487
 3719W        W 7783   8.088   7.961  10.785  0.0598 -0.0888  0.1058
 3720W        W 7784   0.187   1.222   9.774  0.0549 -0.2152  0.3116
 3721W        W 7785   5.979   9.193   0.351 -0.2496 -0.4166 -0.0680
 3722W        W 7786   2.307   3.880   2.644  0.1014  0.2510 -0.0268
 3723W        W 7787   5.698   0.739   1.334 -0.0197 -0.0703  0.0099
 3724W        W 7788   5.877   9.919   0.852 -0.3403 -0.1286  0.3409
 3725W        W 7789  10.467   2.022   0.783  0.0532  0.0801  0.2314
 3726W        W 7790   3.904   6.763  11.627 -0.2365  0.3069 -0.3024
 3727W        W 7791   0.294   5.976   8.194  0.3016 -0.0187  0.1155
 3728W        W 7792   6.260   9.453   3.310 -0.1461  0.2152  0.2361
 3729W        W 7793   5.302   6.534   3.776 -0.2130  0.3314 -0.1503
 3730W        W 7794   0.104   6.091   0.513 -0.2037  0.1991  0.0574
 3731W        W 7795   6.277   1.840  10.730  0.0624 -0.1481 -0.0902
 3732W        W 7796   1.492   5.074  10.584  0.0462  0.1509  0.0893
 3733W        W 7797   9.194   1.019   1.217  0.0671  0.0029 -0.2268
 3734W        W 7798   7.931   2.903  10.553 -0.2975  0.2602  0.1481
 3735W        W 7799   3.785   9.853  11.305  0.0521 -0.0850 -0.1721
 3736W        W 7800   7.099   1.106   2.500  0.1141 -0.5219 -0.4247
 3737W        W 7801   4.199   6.663   2.223 -0.0262 -0.0207 -0.2400
 3738W        W 7802   5.001   8.378   7.660 -0.4469 -0.1251 -0.3564
 3739W        W 7803   9.702   3.206   9.642 -0.2265 -0.0393  0.2781
 3740W        W 7804   4.248   6.414   9.193 -0.2721 -0.0392  0.3649
 3741W        W 7805  10.563   9.522   1.253  0.1067 -0.0879  0.3320
 3742W        W 7806   6.633   7.718   2.469 -0.1629 -0.0237  0.0944
 3743W        W 7807   9.990   0.388   2.546  0.0956 -0.0588  0.0705
 3744W        W 7808   8.703   0.682   2.954  0.0626 -0.0564 -0.1393
 3745W        W 7809   0.506   4.154  10.079 -0.1886  0.3826 -0.0523
 3746W        W 7810   4.935   9.898   3.431 -0.1350 -0.1231 -0.2167
 3747W        W 7811   5.253   7.139   3.210 -0.1672 -0.0631  0.1067
 3748W        W 7812   6.704   1.788   1.334  0.0342 -0.0352  0.0110
 3749W        W 7813   6.310   0.558  10.367  0.1324  0.1191  0.0942
 3750W        W 7814   5.619   5.655  10.366 -0.0912 -0.3270 -0.0612
 3751W        W 7815   7.522   5.272  10.685 -0.1176 -0.2644  0.1763
 3752W        W 7816   6.336   7.583   1.085  0.1460  0.0113 -0.1087
 3753W        W 7817   6.330   6.595  11.099 -0.0373 -0.0956  0.0383
 3754W        W 7818   5.451   1.198   9.906 -0.1732 -0.1148  0.0034
 3755W        W 7819   1.692   6.283   3.208  0.2177 -0.0105 -0.1006
 3756W        W 7820   2.329   2.477  10.962 -0.2825  0.0231 -0.2153
 3757W        W 7821   4.943   9.046   0.565 -0.2115  0.1574  0.1816
 3758W        W 7822   9.048   3.082   1.008 -0.1362  0.0094  0.0001
 3759W        W 7823   4.170   5.826   2.973  0.0681 -0.0879  0.0972
 3760W        W 7824   6.590   8.702   3.738 -0.0085 -0.3906 -0.1350
 3761W        W 7825   0.010   9.522   9.607 -0.2018 -0.1518  0.0585
 3762W        W 7826   5.407   6.039   3.554  0.0831 -0.2156  0.1353
 3763W        W 7827   0.836   1.794   1.532  0.1213  0.1948 -0.0659
 3764W        W 7828   7.357   5.140   2.694  0.0646 -0.0142  0.0083
 3765W        W 7829   5.755   2.426   3.057  0.1691 -0.1926  0.0641
 3766W        W 7830   5.992   5.199   8.568  0.0498  0.1626 -0.1876
 3767W        W 7831   3.959   6.704   9.508  0.2358  0.0587 -0.2216
 3768W        W 7832  10.577   7.132   2.187 -0.0654 -0.0025  0.0178
 3769W        W 7833   7.956   7.427   9.171  0.1840 -0.2674  0.3875
 3770W        W 7834  10.003   4.701   9.692  0.1209  0.1113 -0.1712
 3771W        W 7835   6.218   0.963   9.348  0.0040 -0.0023 -0.1359
 3772W        W 7836   0.656   1.925   3.062 -0.0932  0.3836 -0.4935
 3773W        W 7837   6.573   8.405   0.242  0.0110  0.1520 -0.2239
 3774W        W 7838   4.400   8.048  10.928  0.2322 -0.1870  0.1750
 3775W        W 7839   8.133   9.431   9.494  0.0105 -0.1471 -0.0966
 3776W        W 7840   4.563   9.849   9.435 -0.1593  0.4369  0.0957
 3777W        W 7841   7.829   3.542   9.926  0.1129  0.1522 -0.0775
 3778W        W 7842   0.307   3.641  10.227 -0.0127  0.3019 -0.3677
 3779W        W 7843   2.511   8.381   0.713 -0.1226 -0.0550  0.0271
 3780W        W 7844   8.420   5.177  11.410 -0.0330 -0.1972  0.2396
 3781W        W 7845   1.742   3.175   3.829  0.2128  0.0590 -0.0847
 3782W        W 7846   7.468   7.621   3.288 -0.3324 -0.0646  0.0495
 3783W        W 7847   4.037   7.156  11.364 -0.1383 -0.0654 -0.1073
 3784W        W 7848   0.872   1.499   8.411 -0.1880 -0.1742 -0.1156
 3785W        W 7849   9.027   5.292   3.253 -0.0008 -0.1980  0.2018
 3786W        W 7850   3.619   3.238   1.845 -0.0392  0.2083 -0.1204
 3787W        W 7851   6.004   2.421   0.096  0.0809  0.0003 -0.0615
 3788W        W 7852   5.747  10.028   3.201 -0.0752  0.3459 -0.2018
 3789W        W 7853   2.283   8.670   9.212 -0.0739 -0.1132 -0.0766
 3790W        W 7854   1.274   0.683   3.572 -0.2350 -0.2563  0.2330
 3791W        W 7855   5.690   0.569   0.874 -0.1187 -0.1460 -0.2360
 3792W        W 7856   5.292   3.331  10.197 -0.3203  0.0946 -0.1448
 3793W        W 7857  10.551   2.275   8.850 -0.1381 -0.3647  0.1157
 3794W        W 7858   7.822   1.802   0.406 -0.2937  0.2104 -0.1584
 3795W        W 7859   6.921   7.036   9.955  0.0241 -0.1710 -0.0637
 3796W        W 7860  10.354   8.936   1.986 -0.0227  0.1612 -0.0958
 3797W        W 7861   8.199   2.429   3.767 -0.1186 -0.1557  0.1803
 3798W        W 7862   6.300   3.723   0.896 -0.1000  0.1742  0.2271
 3799W        W 7863  10.193   5.180  10.355  0.2972  0.2249 -0.3942
 3800W        W 7864   5.320   5.816   0.628  0.2213  0.2353  0.0616
 3801W        W 7865   6.912   8.303   8.083  0.1846  0.1256  0.2684
 3802W        W 7866   2.532   2.517   7.059 -0.0197  0.1156 -0.0144
 3803W        W 7867   5.767   0.899  10.955 -0.2451  0.4663  0.1288
 3804W        W 7868   8.583   6.590   2.164  0.1687  0.0089 -0.3638
 3805W        W 7869   7.629   9.211   2.495 -0.0756 -0.0381 -0.1624
 3806W        W 7870   1.672   8.100   8.652  0.2657 -0.0790 -0.0078
 3807W        W 7871   7.773   1.458  10.948  0.0840  0.0691 -0.0463
 3808W        W 7872   7.869   9.769   0.544  0.0357  0.1558  0.1655
 3809W        W 7873   2.434   3.226   8.318  0.0195  0.1708  0.1231
 3810W        W 7874   0.523  10.380   8.585 -0.1502 -0.2339 -0.3734
 3811W        W 7875   4.838   0.970   3.516 -0.2633 -0.1094  0.0985
 3812W        W 7876   0.412   7.944   4.019 -0.0407  0.0439 -0.0032
 3813W        W 7877  10.334   0.043   9.633  0.0706 -0.1678  0.1483
 3814W        W 7878   1.785   6.670  10.072 -0.1423  0.0907 -0.0939
 3815W        W 7879   7.082   6.947   2.030  0.0850 -0.0685  0.1171
 3816W        W 7880   5.496   7.194  11.142  0.3872 -0.2733 -0.4097
 3817W        W 7881   7.533   2.043   3.119  0.1373  0.4390  0.1192
 3818W        W 7882   6.256   8.825   7.045  0.2444 -0.0642 -0.3661
 3819W        W 7883   5.000   7.853   4.033 -0.0747  0.0499  0.0985
 3820W        W 7884   3.953   4.390   1.310 -0.0688 -0.1526  0.2244
 3821W        W 7885  10.435   2.916   8.616  0.1098  0.4108  0.1445
 3822W        W 7886   0.329   5.388   8.708  0.2145  0.1084  0.4316
 3823W        W 7887   2.926   5.364   0.432 -0.2181 -0.3877 -0.1033
 3824W        W 7888   7.540   2.399   3.530 -0.2168  0.0359  0.4688
 3825W        W 7889   8.190   3.828   0.021  0.0537  0.1791  0.0381
 3826W        W 7890   4.724   0.599   1.893 -0.0621 -0.0791  0.1580
 3827W        W 7891   1.638   9.730  11.411  0.1297 -0.2680  0.1558
 3828W        W 7892   7.148  10.305   3.016  0.1816  0.1280  0.1683
 3829W        W 7893  10.057   6.113   1.668 -0.3520 -0.1425  0.1169
 3830W        W 7894   5.302   3.790  11.077  0.0480  0.2303 -0.1477
 3831W        W 7895   2.702   3.369  11.517 -0.0609  0.0647 -0.0616
 3832W        W 7896   8.861   1.427   1.494  0.1046 -0.2029 -0.0675
 3833W        W 7897   5.595   0.144  10.910 -0.2499  0.1697 -0.2535
 3834W        W 7898   3.044   8.596  11.404 -0.1014 -0.2490 -0.4236
 3835W        W 7899   0.396  10.302   8.069 -0.0117  0.0948  0.3128
 3836W        W 7900   1.916   7.725   3.059  0.2406 -0.1085  0.1713
 3837W        W 7901   3.929   3.530  10.390  0.0255 -0.0088  0.0475
 3838W        W 7902   3.929   4.756   0.933 -0.0642  0.0264  0.1738
 3839W        W 7903   7.712   3.043   8.666 -0.0744 -0.0762 -0.2275
 3840W        W 7904   7.231   4.260  11.209  0.0557 -0.1146 -0.1204
 3841W        W 7905  10.029   8.442   0.547 -0.0484  0.3290  0.0567
 3842W        W 7906   4.659   9.252   8.687  0.0601  0.2121 -0.0647
 3843W        W 7907   2.092  10.338   8.846 -0.1247 -0.0251 -0.0992
 3844W        W 7908   3.661   5.553  10.385 -0.0696  0.0724 -0.2093
 3845W        W 7909   9.473   1.367  10.021  0.0861  0.0608 -0.0578
 3846W        W 7910   8.265   6.943   8.957 -0.2315 -0.1705  0.2353
 3847W        W 7911   5.917   3.712   1.328 -0.1283  0.1805 -0.0877
 3848W        W 7912   6.204   6.797   9.534 -0.0011  0.0525 -0.1366
 3849W        W 7913   2.197   2.912   0.657  0.0421 -0.0688 -0.2250
 3850W        W 7914   9.061   0.525   7.575  0.0436  0.1129  0.2614
 3851W        W 7915   8.940   3.529   4.388  0.0026  0.0398  0.4424
 3852W        W 7916   8.992   4.597  11.637  0.0401  0.0211  0.1691
 3853W        W 7917  10.148   4.705   0.478 -0.0547 -0.1081 -0.2115
 3854W        W 7918   4.226   0.524   3.307  0.0314 -0.1146  0.0228
 3855W        W 7919   2.356   4.592   8.749  0.3652  0.1307 -0.2184
 3856W        W 7920   4.382   7.443   9.542  0.0686 -0.1937 -0.0656
 3857W        W 7921   7.191   9.652   8.336  0.0939 -0.2699  0.2474
 3858W        W 7922   2.512  10.109   8.521  0.2923  0.2431 -0.0967
 3859W        W 7923   0.358   1.638   9.324 -0.1365 -0.1110 -0.0901
 3860W        W 7924   3.081   8.733   8.646 -0.1162 -0.0326 -0.0717
 3861W        W 7925   8.887   9.272   1.800  0.1460 -0.0088 -0.0929
 3862W        W 7926   3.789   0.632   7.636 -0.3255 -0.1898 -0.1801
 3863W        W 7927   5.572   7.968   7.061  0.0935 -0.1266 -0.1388
 3864W        W 7928   9.096   5.775   8.520  0.1328  0.1132  0.3660
 3865W        W 7929   8.330   4.140   7.767 -0.0609  0.0048  0.0724
 3866W        W 7930   3.883   2.928   0.170  0.2837 -0.0331 -0.0586
 3867W        W 7931   7.589   9.092   3.244  0.0042 -0.0987  0.0265
 3868W        W 7932   4.411   7.865   9.280 -0.2379 -0.3285  0.0741
 3869W        W 7933   9.137   4.336   8.653  0.1040 -0.0353  0.4139
 3870W        W 7934   5.774   3.033   1.886 -0.0725  0.0241  0.1418
 3871W        W 7935   4.832   4.204   2.608  0.0279 -0.1831 -0.1268
 3872W        W 7936   4.898   8.371   2.715 -0.3483 -0.0115 -0.2927
 3873W        W 7937   5.262   3.171   8.818 -0.2195  0.0793  0.1923
 3874W        W 7938   6.828   2.205   1.140  0.1524  0.0309 -0.3701
 3875W        W 7939   4.653   6.456   1.652  0.3533  0.1421  0.2266
 3876W        W 7940   1.990   5.108   0.856  0.0599 -0.0099  0.0687
 3877W        W 7941   3.298   3.767   0.983  0.2528  0.0237  0.1232
 3878W        W 7942   5.807  10.215   1.769  0.0049  0.2030 -0.3355
 3879W        W 7943   8.665   4.941   3.020  0.0644 -0.1749 -0.1113
 3880W        W 7944   4.920   2.379  10.549  0.1251  0.0676 -0.0738
 3881W        W 7945  10.286   7.041   3.508  0.2099  0.4544  0.0933
 3882W        W 7946   0.218   2.282   2.889  0.3520  0.1714  0.2126
 3883W        W 7947   1.424   7.950  10.904  0.0448  0.3466 -0.2322
 3884W        W 7948   7.922   8.885   0.673 -0.3262 -0.1018 -0.0303
 3885W        W 7949   8.850   9.905   1.139  0.3103  0.3394  0.1536
 3886W        W 7950   2.524   7.256  10.353 -0.2612  0.1127  0.2378
 3887W        W 7951   1.279   0.191   1.991  0.0568  0.0649  0.1341
 3888W        W 7952   3.604   8.530   0.423  0.0038 -0.3336  0.2910
 3889W        W 7953   5.678   2.474  10.009 -0.1231 -0.2575  0.2205
 3890W        W 7954   5.764   4.982   2.132  0.3345 -0.1201  0.0602
 3891W        W 7955   4.023   1.013   3.218  0.0037 -0.0765  0.0780
 3892W        W 7956   8.313   7.485   8.794  0.2398 -0.1197  0.2277
 3893W        W 7957   9.809   0.198   1.552 -0.3002  0.0384 -0.0376
 3894W        W 7958   7.202   5.139   8.796 -0.1347 -0.0152 -0.0546
 3895W        W 7959   1.159  10.568  10.327 -0.3956  0.0569  0.3766
 3896W        W 7960   1.895   8.261   2.906 -0.3898  0.0436  0.2898
 3897W        W 7961   5.250  10.299   0.082 -0.0963  0.1571 -0.1523
 3898W        W 7962   5.646   7.454   3.170 -0.2708 -0.0746  0.3802
 3899W        W 7963   7.979   1.004   2.515 -0.0102  0.0057  0.2555
 3900W        W 7964   9.444   8.115  10.704 -0.2238 -0.0364  0.0891
 3901W        W 7965   9.979   2.642   8.790  0.2691 -0.2530  0.2501
 3902W        W 7966   0.388   5.266   1.902 -0.3134 -0.0456  0.0907
 3903W        W 7967   9.667   4.028   0.143  0.3048 -0.4089  0.0746
 3904W        W 7968   2.609   5.676   1.556 -0.1070 -0.0875 -0.0688
 3905W        W 7969   3.524   3.284   0.084  0.0858 -0.0037  0.3833
 3906W        W 7970   7.791   9.067  10.605 -0.0797 -0.0583 -0.2163
 3907W        W 7971   2.468   5.896  10.241  0.2263 -0.1185  0.2661
 3908W        W 7972   8.665   2.495   3.604  0.0792  0.1327  0.1590
 3909W        W 7973   6.333   9.003   7.942  0.0394 -0.3587 -0.1158
 3910W        W 7974   6.773   0.424   2.807  0.0655  0.2017  0.0100
 3911W        W 7975   3.760   2.022   3.740  0.0968 -0.1282 -0.3751
 3912W        W 7976   9.438   9.024   3.147 -0.0961 -0.0342 -0.1833
 3913W        W 7977   8.507   1.130   3.787 -0.1218  0.2183  0.0248
 3914W        W 7978   4.414   3.733  10.597  0.0802 -0.1841 -0.0575
 3915W        W 7979   2.768   5.387   9.409 -0.1569 -0.2682  0.4420
 3916W        W 7980   2.812   7.405   2.146  0.1532 -0.3715 -0.1323
 3917W        W 7981   3.138   2.978   1.966  0.1118 -0.1374  0.0147
 3918W        W 7982   6.603   2.064  11.044  0.4151  0.1822 -0.1411
 3919W        W 7983   5.082   1.444   3.516  0.3013  0.0553  0.3035
 3920W        W 7984   7.894   7.805   1.391  0.2728 -0.1385  0.1364
 3921W        W 7985   4.091   5.388   0.065 -0.1521 -0.2420 -0.0332
 3922W        W 7986   0.438  10.036   0.734 -0.1355 -0.2126  0.1270
 3923W        W 7987   1.486   5.369   0.858  0.2793  0.1249 -0.0161
 3924W        W 7988   2.915   4.672   8.893  0.1381  0.1346  0.2104
 3925W        W 7989   5.450   4.644   3.094  0.0570 -0.1114  0.0671
 3926W        W 7990   2.994   6.338   4.398  0.3361  0.0536  0.2843
 3927W        W 7991  10.482   8.298   0.402 -0.3680  0.0854  0.1190
 3928W        W 7992   2.274   2.095   2.237  0.1308 -0.1588 -0.2255
 3929W        W 7993   9.479   2.787  11.591  0.0654 -0.2424 -0.0369
 3930W        W 7994   7.326   2.168   1.202  0.2696  0.0628  0.0809
 3931W        W 7995   1.934   0.251   0.010 -0.0919  0.0743  0.6877
 3932W        W 7996   3.511   6.805   2.209 -0.1678  0.1444  0.2878
 3933W        W 7997   6.387   8.486   7.980 -0.2224  0.0757  0.1210
 3934W        W 7998  10.261   6.433  11.640 -0.1090  0.3154  0.2260
 3935W        W 7999   3.168  10.438  10.777 -0.3569  0.2097 -0.0032
 3936W        W 8000   9.347   4.207   1.477 -0.0506  0.0733  0.1292
 3937W        W 8001   8.229   7.313  11.251  0.2680 -0.0726  0.2420
 3938W        W 8002   2.788   0.001   2.637 -0.4488  0.0084  0.0563
 3939W        W 8003   7.506   5.098  11.632 -0.3855 -0.1492  0.3200
 3940W        W 8004   4.351  10.461   1.431 -0.2225  0.1046 -0.0594
 3941W        W 8005   2.935   9.013   1.943 -0.3010 -0.1728 -0.1751
 3942W        W 8006   9.077   5.807   1.308 -0.1026  0.3852 -0.0453
 3943W        W 8007   4.618   7.737   8.838  0.1139 -0.2951 -0.1326
 3944W        W 8008   6.824   4.768   3.525 -0.2049  0.2031  0.0783
 3945W        W 8009   7.467   7.105   2.363 -0.4354  0.0900  0.2691
 3946W        W 8010  10.072   2.321  11.122  0.3017 -0.0600  0.0903
 3947W        W 8011   9.589   9.659   9.758 -0.3915  0.2286  0.0165
 3948W        W 8012   2.651   1.101   1.905 -0.1141 -0.0273  0.1844
 3949W        W 8013   2.250   8.806  10.462 -0.1657 -0.2772  0.0777
 3950W        W 8014   4.257   1.315   2.906 -0.1752  0.0653  0.1397
 3951W        W 8015   4.414   0.405   1.492  0.1897 -0.4462 -0.1564
 3952W        W 8016  10.423   3.494  10.237 -0.1262  0.1939 -0.0265
 3953W        W 8017  10.276   7.828   9.113 -0.0887 -0.0235  0.2385
 3954W        W 8018   3.377   5.915   4.261  0.1991 -0.0984 -0.2552
 3955W        W 8019   1.013   8.255  10.437 -0.0056  0.1843 -0.2486
 3956W        W 8020   2.461   0.913   8.980 -0.3133 -0.0944  0.3671
 3957W        W 8021   5.812   1.882  11.049 -0.2681  0.0624  0.1234
 3958W        W 8022   5.552   6.510   8.782 -0.2449  0.0621  0.2047
 3959W        W 8023   0.211   7.457   2.861  0.2521 -0.2096 -0.2867
 3960W        W 8024   1.244   2.138   0.498  0.0147  0.1175  0.1533
 3961W        W 8025   7.332   8.765  10.554  0.6109 -0.0968 -0.1288
 3962W        W 8026   2.263   6.419  10.155 -0.4503 -0.2990 -0.2835
 3963W        W 8027   6.233   1.346  10.552  0.1100  0.2168 -0.1344
 3964W        W 8028   9.873   7.065   3.856 -0.0985  0.1370 -0.3272
 3965W        W 8029   9.518   0.979   9.186  0.1047  0.2058  0.0347
 3966W        W 8030   2.502   4.303   9.119 -0.0579  0.0128  0.0128
 3967W        W 8031   4.096   8.183   9.514 -0.0872  0.1695 -0.0947
 3968W        W 8032   6.101   5.014  10.556 -0.2749  0.0757 -0.0175
 3969W        W 8033   0.952   9.073  11.346 -0.2377 -0.1978 -0.1373
 3970W        W 8034   7.386   8.884   1.687  0.1752 -0.1774  0.0270
 3971W        W 8035   1.809   4.148   1.971  0.1798  0.1020 -0.0876
 3972W        W 8036  10.145   3.512   9.698  0.0141 -0.2352 -0.4099
 3973W        W 8037   6.785   9.802  10.550 -0.0811  0.0326 -0.2103
 3974W        W 8038   4.243   6.366   1.273  0.1042 -0.0427 -0.0264
 3975W        W 8039   1.859   7.164   1.828 -0.2694  0.2056 -0.1301
 3976W        W 8040   4.469   6.209  10.054  0.2655  0.0418  0.0595
 3977W        W 8041   4.390   4.735   1.274 -0.1988 -0.2171 -0.0887
 3978W        W 8042   4.971   5.256  11.440 -0.0256  0.0760 -0.1321
 3979W        W 8043  10.134   7.520   2.030 -0.2459 -0.1485 -0.1232
 3980W        W 8044   6.723   8.280   1.633 -0.2580  0.1132  0.0632
 3981W        W 8045   9.067   7.940   7.398 -0.1219 -0.0408  0.1797
 3982W        W 8046   9.171   2.105   0.758  0.1387 -0.2459 -0.1537
 3983W        W 8047   9.432   7.817  11.459  0.1212 -0.4215  0.0937
 3984W        W 8048   6.898   6.435   9.065 -0.1971 -0.3211 -0.1022
 3985W        W 8049   3.431   3.511   2.405 -0.0414  0.2705 -0.0928
 3986W        W 8050   7.028   2.037   1.611 -0.0676  0.1456 -0.0013
 3987W        W 8051   4.879   9.704   8.972 -0.3606 -0.0816  0.0229
 3988W        W 8052   0.897   7.432   2.243 -0.2408 -0.0623  0.0703
 3989W        W 8053   0.387  10.473   2.699  0.0193  0.2970  0.1330
 3990W        W 8054   6.088  10.284   0.131 -0.1823  0.3364 -0.3461
 3991W        W 8055   6.344   9.646   8.014 -0.1593 -0.1604 -0.0669
 3992W        W 8056   0.880   4.834   2.577  0.3225  0.3409  0.2227
 3993W        W 8057   2.659   2.686   8.903  0.1005  0.1084 -0.2863
 3994W        W 8058   4.553   7.914   8.392 -0.3645  0.0103  0.0004
 3995W        W 8059   0.654   7.562   3.287 -0.0177 -0.2515  0.0289
 3996W        W 8060  10.431   7.454   3.202  0.1045 -0.0921 -0.0740
 3997W        W 8061   3.695   3.355   3.191  0.1440 -0.3432 -0.0813
 3998W        W 8062   3.339  10.119   9.973 -0.1020 -0.0005 -0.1315
 3999W        W 8063   8.656   9.666  10.147  0.0669 -0.3680 -0.0550
 4000W        W 8064   8.105   4.434   2.187  0.2786 -0.0612  0.3363
 4001W        W 8065   3.473   0.586   8.665 -0.2353  0.0328  0.1110
 4002W        W 8066   5.095   1.872  11.063  0.0765  0.0248  0.0672
 4003W        W 8067   5.906   5.919   3.614 -0.2007 -0.0039  0.1057
 4004W        W 8068   0.266   4.086   8.673  0.3155 -0.2118  0.1323
 4005W        W 8069   6.682   7.313   0.713 -0.0826  0.2282 -0.0140
 4006W        W 8070   8.225   9.860  11.177 -0.0763 -0.3162 -0.0801
 4007W        W 8071   4.960   2.908   2.437  0.0288  0.1943  0.0433
 4008W        W 8072   8.719   6.463   3.547  0.0914  0.1064 -0.0948
 4009W        W 8073   2.189   7.352   9.845 -0.0089  0.0428  0.0524
 4010W        W 8074   1.336   5.584   1.483 -0.0188 -0.1435 -0.0860
 4011W        W 8075   5.862   0.991   1.818  0.1279  0.0146  0.1409
 4012W        W 8076   4.497   6.626   9.715  0.0697  0.1059 -0.0317
 4013W        W 8077   1.416  10.544   0.120 -0.1554  0.1094  0.1090
 4014W        W 8078   8.290   7.345   2.733 -0.0595 -0.0753 -0.2605
 4015W        W 8079   9.528   7.487  10.152  0.0801 -0.1887 -0.0368
 4016W        W 8080   8.905   6.318   1.264  0.2307 -0.1362  0.2041
 4017W        W 8081   4.605   4.535   2.890 -0.1691 -0.1226 -0.2756
 4018W        W 8082   7.672   1.723   2.765 -0.1549 -0.0760 -0.0105
 4019W        W 8083   7.014   3.450   1.176  0.0914  0.0924 -0.0571
 4020W        W 8084   6.215   7.545   2.215 -0.0311 -0.0972 -0.2152
 4021W        W 8085   0.042   5.354   1.239  0.1874  0.1015  0.0679
 4022W        W 8086   5.243   3.329   2.374 -0.1402  0.2192  0.2401
 4023W        W 8087   7.429   4.664   1.168  0.0718  0.0568  0.2008
 4024W        W 8088   7.095   8.015   3.220 -0.1490  0.0827 -0.1163
 4025W        W 8089  10.499   0.912   1.589  0.1426  0.1264  0.3157
 4026W        W 8090   3.860   2.096   1.379  0.0778  0.1361  0.0660
 4027W        W 8091   7.720  10.487   1.153  0.2395  0.3011  0.2927
 4028W        W 8092   0.208   8.682   0.353  0.1091  0.0203  0.0970
 4029W        W 8093   9.327   9.567   1.021  0.1152 -0.4009 -0.0809
 4030W        W 8094   3.917   7.613   2.519  0.1626 -0.1500 -0.0688
 4031W        W 8095   9.214   4.888   2.328 -0.1019 -0.1537  0.4148
 4032W        W 8096   0.244   1.452  10.368  0.2639  0.1253 -0.3002
 4033W        W 8097   4.502   8.041   1.607 -0.0027  0.0804  0.0383
 4034W        W 8098   0.601   5.189   4.033  0.0404  0.2965  0.3388
 4035W        W 8099   1.530   6.474  10.693  0.1428 -0.0088  0.0678
 4036W        W 8100   8.764   5.589   3.560 -0.2287 -0.1100  0.2498
 4037W        W 8101  10.327   8.855  10.627 -0.3333 -0.0470  0.0968
 4038W        W 8102   8.711  10.247   0.142 -0.0918  0.2299  0.0571
 4039W        W 8103   0.739   4.537   9.711 -0.0501 -0.1738  0.0004
 4040W        W 8104   4.009   2.047   0.548  0.0865 -0.0190 -0.0704
 4041W        W 8105   7.144   5.598   9.331  0.3837  0.2467  0.0399
 4042W        W 8106   2.925  10.337   9.330  0.1511  0.2559  0.1539
 4043W        W 8107   9.697   8.281  11.338  0.0708  0.0390  0.1836
 4044W        W 8108   4.898   0.944   9.288  0.1591 -0.0529 -0.2862
 4045W        W 8109  10.569   6.101   1.826  0.0802  0.1058  0.3615
 4046W        W 8110   5.834   0.653  10.520  0.4391 -0.1700  0.0066
 4047W        W 8111   9.716   7.122  10.552 -0.0839 -0.0020 -0.1162
 4048W        W 8112   5.212   1.665   9.870 -0.0825 -0.0207  0.1106
 4049W        W 8113   3.962   7.200   9.374  0.0935  0.1447  0.2795
 4050W        W 8114   9.636   4.686   1.612  0.0044  0.1667 -0.0919
 4051W        W 8115   4.485   9.408   0.566  0.0656 -0.4124 -0.1199
 4052W        W 8116   0.340   4.797   2.161 -0.2754  0.1755 -0.2824
 4053W        W 8117   0.912   5.446   0.125  0.1544 -0.4614 -0.1034
 4054W        W 8118   3.285   3.856   9.697 -0.0325  0.1204 -0.1938
 4055W        W 8119   1.542   8.273  10.470 -0.1410 -0.1134  0.0545
 4056W        W 8120   7.590   9.522   3.917  0.0545 -0.1116 -0.0444
 4057W        W 8121   4.536   3.724   1.662  0.1432 -0.2265  0.0665
 4058W        W 8122  10.263   0.477   9.381  0.1428  0.0040  0.1771
 4059W        W 8123   6.533   0.478   9.570 -0.1313  0.0190  0.0179
 4060W        W 8124   5.839   4.053   1.750 -0.1491 -0.4560 -0.0191
 4061W        W 8125   4.352   0.956  11.343  0.2261  0.3044 -0.1397
 4062W        W 8126   0.526   7.491   0.652 -0.0735 -0.0461 -0.2972
 4063W        W 8127   7.663   6.324   3.443  0.3740 -0.0967 -0.0517
 4064W        W 8128   6.025   8.345   0.372 -0.1545  0.4684 -0.1116
 4065W        W 8129   9.816   0.537   1.937  0.1321  0.2808  0.0529
 4066W        W 8130   2.342   3.288   9.797 -0.3082  0.2451  0.1873
 4067W        W 8131   5.042   6.594  10.596  0.1804  0.3226 -0.1041
 4068W        W 8132   0.228   6.420   8.453  0.0525  0.1352  0.1559
 4069W        W 8133   7.728   1.002  11.097 -0.1659  0.3352  0.1671
 4070W        W 8134   4.631   2.516   3.100  0.2133 -0.0571 -0.2574
 4071W        W 8135   0.539   0.866   9.572 -0.0615 -0.1768 -0.1148
 4072W        W 8136   7.940   0.702   0.582 -0.0409  0.0708  0.0422
 4073W        W 8137   5.175   2.684   0.285  0.0094 -0.0700  0.0856
 4074W        W 8138   5.087   3.972   1.128  0.0496  0.0344 -0.1007
 4075W        W 8139   5.840   1.746   9.083  0.2864  0.1977 -0.0241
 4076W        W 8140   1.230   2.503   4.262  0.1102 -0.3852  0.3079
 4077W        W 8141   3.973   2.489  10.592  0.0914 -0.0535 -0.3115
 4078W        W 8142   7.057   8.652   0.354  0.0064 -0.2874 -0.2123
 4079W        W 8143  10.246   4.845   8.833 -0.2672 -0.1662 -0.1358
 4080W        W 8144   4.611   9.113   7.516 -0.1385  0.2197 -0.2373
 4081W        W 8145   2.474   3.153   8.861  0.0922 -0.0731 -0.1249
 4082W        W 8146   9.698   7.572   1.747 -0.0098  0.1655 -0.3824
 4083W        W 8147   8.258  10.054   1.850  0.0932  0.0998 -0.0449
 4084W        W 8148   9.235   8.726   9.390 -0.0876 -0.2659  0.3124
 4085W        W 8149   5.648   0.143   3.246 -0.1502 -0.0879 -0.1787
 4086W        W 8150   7.868   1.534   9.104 -0.0382  0.3202 -0.4344
 4087W        W 8151   8.883   0.641  10.499 -0.0454 -0.0202  0.1099
 4088W        W 8152   9.118   9.584   8.174 -0.2118  0.2189 -0.3324
 4089W        W 8153   6.393   9.842  11.593 -0.1563  0.1929 -0.0126
 4090W        W 8154  10.169   6.021   2.166 -0.0761 -0.0046  0.0313
 4091W        W 8155   5.067   5.434   1.508 -0.2232 -0.1504 -0.3110
 4092W        W 8156  10.008   1.108  11.458  0.1350 -0.1529 -0.1611
 4093W        W 8157   2.936   5.802   3.385 -0.1503  0.1120  0.1368
 4094W        W 8158   5.773   8.945   1.177 -0.1811 -0.3479 -0.1187
 4095W        W 8159   5.656   7.436   9.080  0.1197 -0.1495  0.0064
 4096W        W 8160   4.573  10.482   8.556 -0.2366 -0.1475  0.0809
 4097W        W 8161   3.596   4.500  10.604  0.0890 -0.1434 -0.0106
 4098W        W 8162   9.208   6.638   3.127  0.0561  0.1833 -0.1998
 4099W        W 8163   2.551   0.295   1.436  0.0075 -0.1751 -0.2633
 4100W        W 8164   1.819   4.641   2.062 -0.1837  0.1107 -0.1837
 4101W        W 8165   3.323   0.571   0.509 -0.0119 -0.0363 -0.2063
 4102W        W 8166   8.228   2.871   9.300 -0.3814  0.0347  0.1040
 4103W        W 8167   9.116  10.453  10.061  0.1624  0.2551 -0.0075
 4104W        W 8168   8.298   1.925  11.379  0.1381  0.0612  0.0350
 4105W        W 8169   4.213   7.322   8.954 -0.5442 -0.2339  0.1846
 4106W        W 8170   5.050   5.464   2.492  0.0241  0.1844 -0.1816
 4107W        W 8171   7.720   6.399   0.971  0.1912 -0.0038 -0.2357
 4108W        W 8172   2.856   8.511   9.058 -0.0176 -0.2464 -0.1164
 4109W        W 8173   2.132   1.867   8.740 -0.1658 -0.1209  0.1550
 4110W        W 8174   9.089   0.432   3.092 -0.2460 -0.1735 -0.0176
 4111W        W 8175   5.933   7.207   2.378  0.0428 -0.0730  0.0969
 4112W        W 8176  10.262   7.217   8.882  0.0656 -0.1553 -0.1783
 4113W        W 8177   9.313   0.401   2.471 -0.2929  0.0108  0.2198
 4114W        W 8178   8.768   8.777   3.485  0.0801  0.1365  0.1391
 4115W        W 8179   4.449   6.255   2.391  0.1172 -0.0784  0.0990
 4116W        W 8180   2.817  10.407   3.509 -0.1501 -0.2442 -0.2334
 4117W        W 8181  10.538   3.243   0.679  0.0070 -0.1005  0.0054
 4118W        W 8182   3.636   3.063  11.283  0.0656  0.0561  0.0121
 4119W        W 8183   0.219   1.973   0.416 -0.0523 -0.0591  0.3646
 4120W        W 8184   1.422   5.042   8.926 -0.0865  0.1329 -0.2241
 4121W        W 8185   8.051   6.072   0.701 -0.2786 -0.0432 -0.0783
 4122W        W 8186   2.017   7.355  10.333  0.0502  0.0797 -0.1272
 4123W        W 8187   3.486   7.834   2.520 -0.0148 -0.0284 -0.1273
 4124W        W 8188   9.433   3.271   1.247 -0.3934  0.2471 -0.0894
 4125W        W 8189   0.243  10.607   7.684 -0.0248 -0.0774 -0.0365
 4126W        W 8190   8.582   3.242   0.865 -0.1680  0.0118 -0.0066
 4127W        W 8191   6.767   8.265  10.757  0.0734  0.1512 -0.1688
 4128W        W 8192   3.284   6.022   3.719  0.2505  0.0043  0.2375
 4129W        W 8193   0.800   9.628  10.116  0.1174  0.0531  0.0702
 4130W        W 8194   2.712   0.137   9.444  0.1242  0.0434  0.2329
 4131W        W 8195   0.264   9.180   2.651  0.0093 -0.1185 -0.0202
 4132W        W 8196   0.313   5.933   9.422  0.5155  0.1436 -0.1448
 4133W        W 8197   8.911   5.034  10.720  0.1005 -0.0279  0.0189
 4134W        W 8198   8.782   5.188   2.231  0.0822  0.0463  0.2794
 4135W        W 8199   5.855   8.075  11.617  0.0399  0.1953  0.0576
 4136W        W 8200   0.414   7.888  10.132  0.0700  0.2178 -0.2045
 4137W        W 8201   0.894   4.478   8.253 -0.0715  0.1654  0.0787
 4138W        W 8202   2.247   5.359   9.289  0.0369 -0.1044 -0.3418
 4139W        W 8203   1.266   0.682   2.548  0.0713  0.0325  0.0375
 4140W        W 8204   1.727   2.761  10.778  0.1601  0.2876  0.3907
 4141W        W 8205   4.970   9.719   8.113 -0.1500 -0.0515 -0.2171
 4142W        W 8206   1.599  10.240  11.074 -0.0139  0.0494  0.1258
 4143W        W 8207   0.045   2.061   7.471  0.2040  0.2007 -0.0570
 4144W        W 8208   9.879   2.227   9.509 -0.0090  0.2706 -0.0707
 4145W        W 8209   9.323   8.498   8.483  0.1781 -0.1830  0.2474
 4146W        W 8210   1.800   1.569   9.975  0.0967  0.1672 -0.1335
 4147W        W 8211   0.340   6.843   2.811 -0.1381 -0.1357 -0.0879
 4148W        W 8212  10.074   2.214   8.551  0.0985 -0.0447  0.0154
 4149W        W 8213  10.559  10.609   8.718  0.0022  0.0095  0.1536
 4150W        W 8214   3.888   9.173   1.950  0.1277 -0.1039 -0.1270
 4151W        W 8215   2.919   1.014   2.908 -0.2732  0.0997 -0.0193
 4152W        W 8216   2.113   7.078   1.419 -0.0890 -0.0677  0.2205
 4153W        W 8217   0.889   1.499   2.006  0.2697  0.1543 -0.2649
 4154W        W 8218  10.362   0.555   2.925 -0.1580  0.1946 -0.0625
 4155W        W 8219   5.465   6.394   2.742  0.0907  0.0104 -0.0356
 4156W        W 8220   9.004   2.607   9.406  0.1012  0.1496  0.0776
 4157W        W 8221   0.828   5.156  10.840  0.0716  0.1766  0.0671
 4158W        W 8222   2.472   4.586   0.421  0.3765 -0.0118 -0.0411
 4159W        W 8223   3.967   7.603   3.096 -0.2045  0.1051 -0.0082
 4160W        W 8224   3.109   7.591   0.518  0.0842 -0.0080  0.0491
 4161W        W 8225   8.235   7.531  10.167  0.1225  0.1010 -0.0447
 4162W        W 8226   0.997   7.820   2.624 -0.0328 -0.1758  0.2229
 4163W        W 8227   3.775   0.155  10.232 -0.0076  0.0608 -0.0985
 4164W        W 8228   4.281   3.544   2.091 -0.0947 -0.1591  0.0014
 4165W        W 8229   4.421   8.641   3.974  0.2483  0.2163  0.2471
 4166W        W 8230   9.825   4.250   9.356  0.0259 -0.0526 -0.0674
 4167W        W 8231   4.263   4.334   2.565  0.2721 -0.0365 -0.0927
 4168W        W 8232   1.760   8.091   1.962  0.2540  0.1333  0.0080
 4169W        W 8233   7.121   8.331  10.413  0.0630  0.2836 -0.3594
 4170W        W 8234   0.577   2.853  10.476 -0.1940  0.0691 -0.2448
 4171W        W 8235   6.126   9.817   1.790 -0.2309 -0.0133  0.1917
 4172W        W 8236   5.481   4.192   2.935 -0.1275  0.3476  0.1085
 4173W        W 8237   0.785   3.831   1.029  0.1121  0.1606  0.0566
 4174W        W 8238   2.584   7.722   9.873 -0.0533 -0.1419 -0.0309
 4175W        W 8239  10.251   4.459   9.351 -0.4349 -0.1555  0.2117
 4176W        W 8240   8.456   4.874  10.957  0.1921 -0.0612  0.0924
 4177W        W 8241   7.902   4.667   4.353 -0.0038 -0.3741  0.0071
 4178W        W 8242   2.053   0.971   9.315  0.0403  0.1943  0.1134
 4179W        W 8243   5.518   2.141   9.135 -0.0313 -0.1371 -0.0893
 4180W        W 8244   2.330   1.827   9.976  0.0993  0.2650 -0.0473
 4181W        W 8245   8.659   5.404   8.225 -0.0372  0.0856 -0.0763
 4182W        W 8246   5.360   6.880  11.542  0.0675 -0.1976 -0.1566
 4183W        W 8247   3.153   2.916  11.262  0.1366  0.1380  0.1120
 4184W        W 8248   9.138   0.343  10.222 -0.0646  0.0729  0.2644
 4185W        W 8249   3.099   8.568   1.597  0.0669  0.0704 -0.1750
 4186W        W 8250   7.168   4.462   1.628  0.1235  0.2801  0.3641
 4187W        W 8251   0.348   4.212   1.683 -0.1680 -0.0427 -0.2260
 4188W        W 8252   8.635   3.438   8.505  0.1023  0.4145  0.2230
 4189W        W 8253   9.399   9.417  11.488 -0.1050 -0.1819 -0.1845
 4190W        W 8254   4.392   7.645  11.529  0.2195  0.1288 -0.0431
 4191W        W 8255   1.965   9.882   2.941  0.0583 -0.0278  0.2685
 4192W        W 8256   8.308   2.423  11.265 -0.1040  0.0530 -0.0303
 4193W        W 8257   0.545   8.692  11.300 -0.1279 -0.1561 -0.0013
 4194W        W 8258   1.838   9.544   0.663  0.0345  0.0255 -0.0498
 4195W        W 8259   4.661   1.363   1.658  0.3964  0.2266  0.0139
 4196W        W 8260   5.751   4.173  11.076  0.1483 -0.0218 -0.0472
 4197W        W 8261   1.361   0.066  11.186  0.0051  0.0873  0.0564
 4198W        W 8262   5.141   8.550   8.498 -0.0710 -0.3920 -0.1051
 4199W        W 8263   4.113   8.455   0.367  0.2354  0.2173 -0.2163
 4200W        W 8264   8.558   7.416   1.903  0.0236 -0.3863 -0.3809
 4201W        W 8265   8.028   2.182   1.490 -0.2719 -0.0246  0.0780
 4202W        W 8266   2.941   7.604   6.900 -0.0586 -0.0470  0.1032
 4203W        W 8267   8.814   2.412   8.199 -0.1054  0.2225 -0.0354
 4204W        W 8268   9.491   5.377  11.193 -0.0448  0.1061 -0.2226
 4205W        W 8269   4.629   9.168  10.761 -0.0103  0.1862 -0.1371
 4206W        W 8270   0.687   7.633   8.021  0.3427  0.2259 -0.1353
 4207W        W 8271   6.161   4.322   9.589  0.1873  0.1758  0.0071
 4208W        W 8272   5.920   8.996   9.017 -0.0384 -0.0509  0.0802
 4209W        W 8273   1.449   0.346  10.116  0.0159 -0.3289  0.1717
 4210W        W 8274   3.982   4.821  10.619 -0.3240 -0.2453  0.1700
 4211W        W 8275   2.308   9.758   2.415 -0.1519 -0.2219  0.1808
 4212W        W 8276   0.835  10.270   2.499 -0.0160 -0.1528 -0.0107
 4213W        W 8277   7.705   9.581   3.441  0.1727  0.2459  0.1188
 4214W        W 8278   4.759   3.408   2.336  0.0927 -0.0465  0.0214
 4215W        W 8279   9.758   7.832   3.534  0.1370  0.0220 -0.3168
 4216W        W 8280   9.244   2.207   2.576 -0.3174  0.0654 -0.1028
 4217W        W 8281   3.487   6.922   9.238  0.0119  0.0777  0.2938
 4218W        W 8282   3.109   4.748   1.484  0.2346  0.0066  0.0489
 4219W        W 8283   0.284   5.993   1.419  0.2593  0.1307  0.2782
 4220W        W 8284   2.857   9.588  11.374 -0.0350  0.0520  0.2512
 4221W        W 8285   8.979   7.594   0.243 -0.2122 -0.1604 -0.0944
 4222W        W 8286   1.565   5.942   8.942 -0.1325 -0.1949 -0.2327
 4223W        W 8287   8.391   9.867   1.385 -0.0052  0.4511  0.0703
 4224W        W 8288   0.740  10.480  10.658 -0.2171  0.2398  0.1018
 4225W        W 8289   0.419   8.859   9.350  0.0855 -0.3083  0.0551
 4226W        W 8290   7.708   5.811   8.228  0.1689  0.0588  0.2843
 4227W        W 8291   3.597   2.219  10.314 -0.1921  0.0283  0.0798
 4228W        W 8292   2.854   7.407   0.931 -0.0568 -0.0119 -0.0050
 4229W        W 8293   1.081   8.125   8.956  0.0444  0.0020  0.1120
 4230W        W 8294   6.658   2.927  11.139 -0.1578  0.2083  0.0554
 4231W        W 8295   7.671   5.361   1.198 -0.2094  0.0339  0.1092
 4232W        W 8296  10.293   9.993   2.817  0.0196  0.0116  0.0147
 4233W        W 8297   3.002   0.807   8.821  0.1201 -0.0721 -0.2629
 4234W        W 8298   9.567   7.450   0.290  0.2124 -0.2243  0.1448
 4235W        W 8299   8.429   4.100   2.864  0.1753  0.1576 -0.1758
 4236W        W 8300  10.125   4.304   2.079 -0.2902 -0.1366  0.1790
 4237W        W 8301   4.305   0.550   0.617  0.0096 -0.1829 -0.0350
 4238W        W 8302   0.210   4.485   3.009  0.1370  0.2006  0.0919
 4239W        W 8303   7.659   6.215   2.265 -0.1116 -0.0834  0.2310
 4240W        W 8304   6.681   9.752   1.860 -0.0471 -0.3614  0.2061
 4241W        W 8305  10.537   5.428   9.521 -0.0230 -0.0069  0.0413
 4242W        W 8306   4.941   3.094   0.068  0.0790 -0.1304 -0.2095
 4243W        W 8307   4.532   2.168   3.425  0.0019 -0.1497 -0.1625
 4244W        W 8308   8.444   1.323  10.476  0.1823  0.1500 -0.1228
 4245W        W 8309   5.236   8.469   9.824 -0.0662 -0.1288  0.3460
 4246W        W 8310   8.703   7.789   2.702  0.1482  0.2957  0.2416
 4247W        W 8311   5.436   2.975   9.740 -0.1720 -0.1565 -0.0143
 4248W        W 8312   7.971   3.535   3.334  0.2776  0.0561 -0.0814
 4249W        W 8313   0.751   6.083   9.275  0.0246 -0.2486 -0.1853
 4250W        W 8314   2.318   3.820   3.734 -0.0360 -0.1698  0.1225
 4251W        W 8315   4.197  10.123   9.190  0.0394 -0.0764 -0.0364
 4252W        W 8316   9.476  10.031   3.837 -0.2698  0.0895  0.2537
 4253W        W 8317   4.976   5.017   2.313  0.1139  0.0469  0.0028
 4254W        W 8318   7.764   4.633   0.770 -0.1173  0.3559  0.0351
 4255W        W 8319   3.563   5.922   7.822 -0.2157  0.1273  0.1542
 4256W        W 8320   4.811  10.113   7.712  0.2263 -0.0738 -0.0524
 4257W        W 8321   0.570   7.966   0.601  0.0741 -0.0643  0.1062
 4258W        W 8322   0.366   2.682   2.515  0.0236 -0.2100 -0.0744
 4259W        W 8323   1.900  10.451   3.546 -0.0739 -0.1733 -0.1432
 4260W        W 8324   8.835   7.672   9.491  0.0064  0.2503 -0.0708
 4261W        W 8325   7.466   0.902   0.286  0.4639  0.3986  0.1178
 4262W        W 8326   7.782   8.195  11.237  0.3239  0.0282  0.1913
 4263W        W 8327   9.965   6.033   8.034 -0.1974 -0.0372 -0.4935
 4264W        W 8328   0.818   4.921   1.054  0.0318  0.1741 -0.0359
 4265W        W 8329  10.135   9.258   8.300  0.1415 -0.0502  0.3511
 4266W        W 8330   5.675  10.473   8.026  0.1393 -0.2695  0.3546
 4267W        W 8331   7.640   8.197   1.998 -0.1321  0.0199  0.0591
 4268W        W 8332   2.667   8.873   9.476  0.0696 -0.1233 -0.2242
 4269W        W 8333   7.153   6.150   9.543 -0.0136 -0.1283  0.0682
 4270W        W 8334   6.385   6.692   8.161  0.2465  0.3502  0.1588
 4271W        W 8335   8.833   0.559   9.503  0.0972 -0.3596 -0.2183
 4272W        W 8336   6.390   9.234   0.028 -0.0566 -0.0019  0.1522
 4273W        W 8337   3.567  10.483   0.817 -0.0334  0.2666 -0.3843
 4274W        W 8338   6.143   4.898   2.511  0.0730  0.2999  0.0976
 4275W        W 8339   0.535   1.928   7.767 -0.0607 -0.1638  0.2700
 4276W        W 8340   2.882   2.462  11.112  0.0300  0.1257 -0.0499
 4277W        W 8341   6.981   4.047   7.922 -0.0818  0.0298  0.1963
 4278W        W 8342   0.848   0.091  11.093 -0.2710  0.2700 -0.1020
 4279W        W 8343   3.424  10.197   0.388  0.0235 -0.2781  0.1788
 4280W        W 8344   6.457   4.802   0.026  0.2604 -0.0184 -0.0449
 4281W        W 8345   0.418   2.302   9.194 -0.2962 -0.1180  0.0273
 4282W        W 8346   1.724   1.768   1.703 -0.3381 -0.0371 -0.1049
 4283W        W 8347   5.806   3.996   0.924 -0.3663  0.1554 -0.3013
 4284W        W 8348   1.863   6.991   9.572  0.1124  0.0060  0.0796
 4285W        W 8349   5.573   5.073   1.077  0.4733 -0.2154  0.0003
 4286W        W 8350   1.880   3.716   4.514 -0.0489  0.0928 -0.1492
 4287W        W 8351   2.666   9.795   4.022 -0.0804  0.1575 -0.0708
 4288W        W 8352   6.108   2.355  10.955 -0.0120 -0.0297  0.3406
 4289W        W 8353   7.734   8.763  10.203 -0.0244 -0.0954 -0.2532
 4290W        W 8354   8.999   1.244   9.871  0.1008  0.2794 -0.1158
 4291W        W 8355   1.563   0.228   7.368 -0.1690 -0.0944  0.2502
 4292W        W 8356   2.059   4.266   7.657  0.0051 -0.2067 -0.2334
 4293W        W 8357   6.345   3.789  10.363  0.1539 -0.0522  0.0093
 4294W        W 8358   1.376   0.997  11.400 -0.0816  0.1800 -0.0206
 4295W        W 8359   8.202   6.286   2.534  0.1012 -0.2007  0.0243
 4296W        W 8360   3.067   2.416   9.044 -0.0036  0.0640 -0.1067
 4297W        W 8361   7.687   3.228  11.301  0.1594  0.1044  0.1410
 4298W        W 8362   6.795   5.174   3.098 -0.0253  0.0733  0.3509
 4299W        W 8363   0.028   9.679   2.553 -0.1074 -0.2062  0.1125
 4300W        W 8364   8.639   0.548  11.458 -0.1582 -0.0338  0.2943
 4301W        W 8365   7.737   6.421   8.285 -0.4491 -0.3543  0.0591
 4302W        W 8366   1.943   4.982   1.305 -0.0123  0.1759  0.3834
 4303W        W 8367   2.095   0.226   2.756 -0.1014  0.1057 -0.1705
 4304W        W 8368   9.239   9.870   0.460  0.1480  0.2586 -0.0176
 4305W        W 8369   0.590   4.701   9.051 -0.2101 -0.1133 -0.2372
 4306W        W 8370   8.150   1.479   0.618  0.0596  0.0783  0.0305
 4307W        W 8371   4.249   2.388   0.213  0.0374  0.2641  0.0033
 4308W        W 8372   7.672   0.035   1.988  0.2174 -0.1764 -0.0781
 4309W        W 8373   3.074   1.734   2.559 -0.0452 -0.0522 -0.0732
 4310W        W 8374   2.886   4.337   1.707  0.2753  0.1734  0.2277
 4311W        W 8375   1.129   2.848   2.117 -0.4355 -0.0566  0.1456
 4312W        W 8376   2.283   7.515  10.739  0.3549  0.3081 -0.3299
 4313W        W 8377   3.922   7.431   8.553 -0.0566  0.2717 -0.0413
 4314W        W 8378   0.733   6.496   8.017  0.1092 -0.0210  0.0833
 4315W        W 8379   7.588   9.596   9.556 -0.2007  0.0651 -0.2907
 4316W        W 8380   9.596   7.906   9.112 -0.0683 -0.1474 -0.1246
 4317W        W 8381   4.031   6.446  10.267 -0.0154 -0.1056 -0.0486
 4318W        W 8382   4.841   9.192  11.311 -0.0037 -0.0326 -0.0208
 4319W        W 8383   2.471   9.917   1.737  0.1423 -0.3862 -0.0573
 4320W        W 8384   7.312   0.833  11.340 -0.3647 -0.0364 -0.3556
 4321W        W 8385   2.524   3.599  10.654 -0.1187  0.2025  0.0300
 4322W        W 8386  10.617   5.632   7.264  0.0654  0.0567 -0.1898
 4323W        W 8387   7.869   0.318   8.330 -0.2707  0.0741 -0.0537
 4324W        W 8388   7.205   1.234   0.837  0.0381 -0.0643  0.3324
 4325W        W 8389   4.332   5.691   9.745 -0.2367 -0.0008 -0.0297
 4326W        W 8390   4.947   9.350   0.921 -0.0553  0.1400 -0.1137
 4327W        W 8391   8.926   3.521   9.619  0.1487 -0.1165 -0.1021
 4328W        W 8392   5.677   4.418   0.063  0.0297  0.0918 -0.1555
 4329W        W 8393   9.183   1.431   1.909 -0.0656  0.0840  0.1044
 4330W        W 8394   3.517   1.496   2.255  0.0248 -0.0055 -0.1935
 4331W        W 8395   4.333   4.205   3.094  0.0221  0.0535  0.1460
 4332W        W 8396   4.267  10.289   1.905  0.0309  0.1237  0.1702
 4333W        W 8397   6.806   3.432   0.290 -0.2484  0.1509 -0.0544
 4334W        W 8398   2.657   3.392   0.373 -0.3154  0.0397 -0.3008
 4335W        W 8399   0.894   7.874   8.514  0.0385 -0.1889  0.0645
 4336W        W 8400   2.469   1.147   9.460 -0.2201 -0.0937  0.1895
 4337W        W 8401   8.755   6.829   8.742  0.1551 -0.0963 -0.2454
 4338W        W 8402   7.530   6.180  11.148  0.0366  0.1640  0.0316
 4339W        W 8403   5.175  10.581   3.396 -0.2167 -0.0654 -0.1862
 4340W        W 8404   7.528  10.272   8.975 -0.0109  0.2621  0.1044
 4341W        W 8405   2.716   8.129   8.722  0.5171  0.0956  0.1201
 4342W        W 8406   4.406   1.309   9.813 -0.0547  0.3288  0.0996
 4343W        W 8407   6.962   9.429   2.185 -0.0460  0.2461  0.4694
 4344W        W 8408   5.746   8.855   8.534  0.2596  0.1216 -0.1852
 4345W        W 8409   9.977   2.737   9.401  0.1750 -0.0066  0.1172
 4346W        W 8410   8.494   1.592   3.559 -0.0854 -0.0944  0.1210
 4347W        W 8411   3.745  10.054   1.054 -0.1949 -0.0317 -0.1288
 4348W        W 8412   0.093   2.715   8.044  0.4427  0.0798  0.2070
 4349W        W 8413   7.679   4.165   1.288 -0.2487  0.1183  0.1776
 4350W        W 8414   8.014   0.425   8.897  0.3252  0.1401 -0.0696
 4351W        W 8415   3.666   9.149   0.568  0.1356  0.3468  0.0459
 4352W        W 8416   4.004   8.703   3.338 -0.2744 -0.1621  0.4131
 4353W        W 8417   2.455   0.732   9.908 -0.1164  0.2687 -0.3370
 4354W        W 8418   6.996   6.507   1.785 -0.2559 -0.1164 -0.0757
 4355W        W 8419   6.417   2.037   0.151 -0.4361 -0.0631 -0.0138
 4356W        W 8420   9.283   5.372   9.114  0.1981  0.2234  0.2558
 4357W        W 8421   9.617   2.397   9.030 -0.2654 -0.0847  0.1210
 4358W        W 8422   9.980   6.733   2.628  0.0187  0.4135 -0.2824
 4359W        W 8423   4.008   4.616   9.630  0.1515 -0.0221 -0.0349
 4360W        W 8424   2.035   4.058   0.960 -0.1366  0.0418 -0.1536
 4361W        W 8425   5.357   4.020   0.210  0.2770 -0.0871  0.1796
 4362W        W 8426   5.839   3.209   0.473  0.0911 -0.2946 -0.6045
 4363W        W 8427   3.834   5.051  10.170 -0.4275 -0.1579 -0.0241
 4364W        W 8428   1.418   3.117   3.078 -0.0106  0.0026 -0.4096
 4365W        W 8429   6.680   8.475  10.198 -0.1358 -0.2397 -0.1466
 4366W        W 8430   9.447   0.926   3.783 -0.2439 -0.1670 -0.0657
 4367W        W 8431   7.986   0.485   2.274  0.3404  0.0057 -0.2353
 4368W        W 8432   4.608   6.002  10.763  0.0199  0.1655  0.3366
 4369W        W 8433   9.959   5.086   3.364 -0.2862  0.1074 -0.0267
 4370W        W 8434   0.262   1.745   2.853  0.0619  0.0699  0.1038
 4371W        W 8435   0.822   2.929   2.565  0.0403  0.0320 -0.3324
 4372W        W 8436   5.107   3.951  10.227 -0.1352  0.0853  0.1545
 4373W        W 8437   8.243   4.518   7.380 -0.0213 -0.0091  0.1102
 4374W        W 8438  10.568   2.324   8.318 -0.2718 -0.0328  0.1966
 4375W        W 8439   0.731   0.730   2.252  0.1199 -0.1439 -0.0667
 4376W        W 8440   9.453   6.423   2.743 -0.0101  0.0590 -0.0343
 4377W        W 8441   3.879   0.409   1.906  0.0138  0.2920 -0.0747
 4378W        W 8442   2.066   9.514   9.451  0.1610 -0.1597 -0.4265
 4379W        W 8443   9.062   0.121   8.706  0.2096 -0.2451 -0.0593
 4380W        W 8444   5.346   5.044   2.657  0.0315  0.3298  0.0497
 4381W        W 8445   0.518   2.522   3.771  0.2628 -0.2083 -0.5057
 4382W        W 8446  10.610   4.612  10.861  0.0237 -0.2099 -0.0602
 4383W        W 8447   7.489   3.448   9.568 -0.2530 -0.2049  0.1963
 4384W        W 8448   8.303   3.861   2.326  0.1096  0.0764  0.3407
 4385W        W 8449   5.803   2.301  10.524  0.2230 -0.0431  0.1375
 4386W        W 8450   0.509   2.445  10.863 -0.1802  0.0431  0.2422
 4387W        W 8451   6.105   4.925   1.574 -0.2988 -0.0919  0.0191
 4388W        W 8452   8.892   4.663   0.901 -0.0498 -0.1029  0.0945
 4389W        W 8453   9.306   3.328   3.542 -0.0594 -0.0747  0.1448
 4390W        W 8454   9.447   5.448   8.689 -0.0981 -0.3272  0.3034
 4391W        W 8455   7.235   9.431   7.714  0.1401  0.1587 -0.0894
 4392W        W 8456   0.775   8.283   1.541  0.4129 -0.0521 -0.0279
 4393W        W 8457   7.486   3.972   9.672  0.1369 -0.0965  0.1782
 4394W        W 8458   9.240   5.756   9.534  0.0923  0.1095  0.3716
 4395W        W 8459   8.736   5.045   0.597 -0.0512  0.3698  0.0580
 4396W        W 8460   7.654   4.653  11.481  0.2039 -0.2280 -0.0995
 4397W        W 8461   5.836   6.635  11.019  0.1538  0.1567  0.1171
 4398W        W 8462   6.315   2.480   0.505 -0.1587 -0.1889  0.1989
 4399W        W 8463   8.602   7.343   0.946  0.0355 -0.0372  0.1000
 4400W        W 8464   9.389   4.690   1.146  0.0478  0.2184  0.2217
 4401W        W 8465   5.319   8.974   0.961 -0.0126  0.1823 -0.0429
 4402W        W 8466   0.880   9.998  10.513  0.1576 -0.0296 -0.1758
 4403W        W 8467   8.358   6.215   9.536  0.0519 -0.1373 -0.0320
 4404W        W 8468   2.615   5.651   2.197  0.1215  0.3188  0.1638
 4405W        W 8469   0.045   3.721   9.816  0.0341  0.2458  0.2250
 4406W        W 8470   9.761   6.434   1.382  0.0100 -0.0012  0.1772
 4407W        W 8471   5.366   6.473   3.240 -0.2157  0.1092  0.0648
 4408W        W 8472   2.095   8.843   7.925  0.2226  0.0704  0.1828
 4409W        W 8473   6.084   6.666   0.669  0.3053 -0.0084  0.1531
 4410W        W 8474   7.007   4.440   0.141  0.0455  0.0907 -0.1320
 4411W        W 8475   5.552  10.592  10.090  0.0573  0.0756  0.1988
 4412W        W 8476   3.486   5.108  10.579  0.0758 -0.0662  0.0131
 4413W        W 8477   5.480   7.664  10.994  0.0096 -0.3627  0.0716
 4414W        W 8478  10.005   1.451   8.368 -0.2006  0.2446 -0.1231
 4415W        W 8479   4.126   6.755  10.706 -0.0151 -0.2747  0.1989
 4416W        W 8480   9.444   7.094   9.336 -0.2328 -0.0753 -0.1934
 4417W        W 8481   7.822   6.562   8.714  0.0388 -0.2054  0.1207
 4418W        W 8482   9.260   4.795   0.353 -0.0802  0.1827  0.5007
 4419W        W 8483   0.284   8.078   9.689 -0.1987 -0.1093 -0.0862
 4420W        W 8484   9.465   0.962   9.702  0.1128 -0.1660  0.1983
 4421W        W 8485   8.941   8.379   9.641  0.0373 -0.1968  0.2258
 4422W        W 8486   9.574   1.860   9.695 -0.2475 -0.0693 -0.3286
 4423W        W 8487   7.065   3.303  11.488  0.1875  0.5239  0.0872
 4424W        W 8488   6.755   7.833  11.152  0.0176 -0.0648  0.2568
 4425W        W 8489   3.435   9.498   8.159  0.1302 -0.2466 -0.2014
 4426W        W 8490   7.631   8.845   2.100 -0.1281 -0.2331 -0.4173
 4427W        W 8491   6.645   7.647  10.686 -0.2614  0.1355  0.1087
 4428W        W 8492  10.364   6.445   2.348 -0.2219 -0.2383  0.0866
 4429W        W 8493   2.503   5.051   0.127 -0.0788 -0.0044  0.0901
 4430W        W 8494   0.505   4.052   9.601 -0.0154  0.0466  0.1757
 4431W        W 8495   5.832   9.459   1.507  0.0911 -0.3575  0.1912
 4432W        W 8496   4.891   6.282   3.042  0.0053 -0.2195 -0.1855
 4433W        W 8497   3.997   4.318  11.004  0.1737  0.1264 -0.0677
 4434W        W 8498   6.084   2.014   0.559 -0.1835 -0.1589  0.2158
 4435W        W 8499   3.823   5.490   9.896 -0.0146  0.1810 -0.0220
 4436W        W 8500   0.197   6.402  10.367  0.2224  0.1364  0.4502
 4437W        W 8501  10.530  10.180   3.732  0.0908  0.1275  0.1092
 4438W        W 8502   2.638   1.172  10.125  0.0979 -0.0696  0.1269
 4439W        W 8503   8.704   1.216   3.267  0.0835  0.0083  0.0856
 4440W        W 8504   9.673   1.254   2.698 -0.0712  0.2146  0.4795
 4441W        W 8505   5.021   1.733   0.691  0.2294 -0.0774  0.1258
 4442W        W 8506   3.861   0.548   0.362 -0.1459 -0.2064  0.2256
 4443W        W 8507   7.016   0.885   0.569 -0.1770  0.1342  0.5322
 4444W        W 8508   1.225   1.632   4.262  0.0381 -0.2143  0.1228
 4445W        W 8509   3.057   2.950   9.031 -0.0149 -0.0019 -0.1056
 4446W        W 8510   8.557   1.886  10.483  0.2724  0.0024  0.1759
 4447W        W 8511   0.054   1.910   1.222  0.1933  0.1518  0.0100
 4448W        W 8512   1.006   6.816   9.939 -0.0848  0.0646 -0.0874
 4449W        W 8513   8.855   8.817   8.514 -0.3374 -0.0796 -0.4319
 4450W        W 8514   1.258   9.866  11.068 -0.3537  0.0350  0.3341
 4451W        W 8515   1.820  10.487   0.540 -0.0214  0.1143  0.0426
 4452W        W 8516   3.936   4.099   9.625  0.1397 -0.2700  0.0050
 4453W        W 8517   6.266   0.586   8.998 -0.3881 -0.1777 -0.0005
 4454W        W 8518  10.506   2.209  10.044  0.0590 -0.0924  0.3979
 4455W        W 8519   4.284   5.913   0.024 -0.1873 -0.1552 -0.2525
 4456W        W 8520  10.041   7.338  10.830  0.1360 -0.3794  0.2788
 4457W        W 8521   1.226   8.190   7.758  0.2590 -0.0605  0.0833
 4458W        W 8522   7.657   0.142   9.030  0.0547  0.1802 -0.3193
 4459W        W 8523   5.697  10.611   9.185  0.0626  0.3203 -0.3260
 4460W        W 8524   9.735   1.816  10.366  0.5124 -0.0234 -0.1169
 4461W        W 8525  10.044   3.947   3.260 -0.0707  0.0934  0.0987
 4462W        W 8526   3.165   4.557  10.758  0.0025  0.1723 -0.0570
 4463W        W 8527   2.690   1.791   1.298  0.1671 -0.0853  0.0880
 4464W        W 8528   2.129   2.923  11.052 -0.0036 -0.1165 -0.0282
 4465W        W 8529   5.207   7.544   3.593  0.1623 -0.2230  0.1832
 4466W        W 8530   4.684   1.551   1.128  0.1755 -0.1642  0.3562
 4467W        W 8531   1.887   7.288   2.343  0.0462  0.3092 -0.3136
 4468W        W 8532   4.904  10.510   2.881  0.2311 -0.3157 -0.3427
 4469W        W 8533   1.650   5.236  11.074 -0.4659  0.0343  0.0878
 4470W        W 8534   6.315   0.220   2.110  0.0786 -0.0471  0.1352
 4471W        W 8535   9.591   9.376   8.339 -0.0261 -0.1253  0.1260
 4472W        W 8536   9.046  10.516   1.764 -0.0891 -0.1369 -0.1200
 4473W        W 8537   6.160   9.236  10.453 -0.1835  0.2315  0.0867
 4474W        W 8538   2.269   2.803   9.201  0.4873 -0.3536 -0.3842
 4475W        W 8539   0.671   7.709  11.345 -0.1753 -0.1438  0.3042
 4476W        W 8540   3.688   7.348   9.001  0.4088 -0.1978 -0.1324
 4477W        W 8541   6.128   2.197   8.909  0.0080 -0.3358 -0.2389
 4478W        W 8542   4.801   7.301   9.262  0.2073  0.0043  0.1448
 4479W        W 8543   6.324   9.290   9.708 -0.3323  0.2708  0.2049
 4480W        W 8544   1.709   5.403   7.829 -0.0056  0.2075 -0.3007
 4481W        W 8545   9.441   5.828  11.457  0.4642  0.0103 -0.1121
 4482W        W 8546   7.340   4.485   3.394 -0.0100 -0.1218  0.0593
 4483W        W 8547   2.334   1.031   0.050  0.2098  0.1126  0.1964
 4484W        W 8548   6.325   5.242   2.869 -0.0249 -0.0553  0.1051
 4485W        W 8549   3.265   0.287   9.630 -0.3620  0.1790  0.1086
 4486W        W 8550   1.951   0.265  10.024 -0.3170 -0.1922  0.0746
 4487W        W 8551   4.142   3.353  10.989  0.1050 -0.0158 -0.1799
 4488W        W 8552   8.537   8.313  10.150  0.2806  0.0613 -0.0280
 4489W        W 8553   4.859  10.318   1.073 -0.2002 -0.1136  0.1383
 4490W        W 8554   5.970   3.502   0.109  0.0974  0.1037 -0.0364
 4491W        W 8555   2.526   7.194   1.642 -0.0214  0.1141 -0.3311
 4492W        W 8556   3.100   4.625   8.439  0.0879  0.1131 -0.0225
 4493W        W 8557   9.277   9.704  10.195 -0.2339 -0.3410  0.0743
 4494W        W 8558   0.142   3.051  10.229 -0.1593 -0.1953  0.3018
 4495W        W 8559   8.643   6.929   1.792 -0.1282 -0.1195  0.1092
 4496W        W 8560   9.022   2.615  10.374  0.5365 -0.0667 -0.3873
 4497W        W 8561   6.206   0.940   3.529 -0.0826  0.0608 -0.0494
 4498W        W 8562   6.772   5.541   1.542  0.0126 -0.2106 -0.3287
 4499W        W 8563   8.236   0.363  11.221  0.0695  0.0231  0.0665
 4500W        W 8564   1.870   6.553   3.543 -0.1134  0.0527 -0.0926
 4501W        W 8565   0.246   2.534   7.584  0.1292 -0.0593  0.1174
 4502W        W 8566   0.700   3.898   9.039  0.3309 -0.1645 -0.0569
 4503W        W 8567   9.432   0.794   0.345  0.1690  0.1983 -0.0729
 4504W        W 8568   1.630   0.349   9.027 -0.2211  0.0052 -0.2951
 4505W        W 8569   0.357   9.878   9.320 -0.1466 -0.1380  0.2499
 4506W        W 8570   2.008   8.956   8.933 -0.0929  0.3371 -0.1052
 4507W        W 8571   8.484   6.424   1.505  0.1390 -0.2076  0.2595
 4508W        W 8572   1.796   9.192   2.666  0.5638  0.2605  0.0159
 4509W        W 8573   0.884   2.755   4.855  0.5063  0.2204 -0.0213
 4510W        W 8574   7.402   1.536   0.481  0.1805 -0.1246  0.0085
 4511W        W 8575   6.791  10.030  11.339  0.0719 -0.0664 -0.0247
 4512W        W 8576   7.650   7.728   9.951  0.2112 -0.0564  0.0246
 4513W        W 8577   1.057   7.125   0.180 -0.1236  0.3912  0.1989
 4514W        W 8578   4.456   1.820   8.258  0.2590  0.3748  0.0217
 4515W        W 8579   1.402   0.078   1.339  0.0445  0.1195  0.0067
 4516W        W 8580   3.697   1.867   9.311  0.3503  0.1759  0.0821
 4517W        W 8581   7.572   1.294  10.506 -0.3383  0.2471 -0.1391
 4518W        W 8582   5.947   1.215   9.714  0.0459 -0.1085 -0.3110
 4519W        W 8583   4.856   4.581   1.704  0.3859  0.1765 -0.1158
 4520W        W 8584   9.942   3.461   1.689 -0.2911  0.0161  0.2732
 4521W        W 8585   8.073   5.504  11.414 -0.2036 -0.2158  0.3756
 4522W        W 8586   5.976   5.374   4.270  0.0271 -0.1688 -0.2356
 4523W        W 8587   8.708   3.852   2.039 -0.0891 -0.0670 -0.0675
 4524W        W 8588   7.913   4.296   2.609 -0.0659  0.0739  0.1221
 4525W        W 8589   3.635   0.629   9.814 -0.1857  0.1164 -0.3719
 4526W        W 8590   7.493   8.642   7.680  0.2253  0.2535  0.0990
 4527W        W 8591   8.712  10.275   7.350 -0.0255 -0.4551 -0.1762
 4528W        W 8592   3.029   0.258  10.948 -0.0984  0.2531 -0.0213
 4529W        W 8593   1.092   6.325   9.615  0.1801  0.1470  0.0251
 4530W        W 8594   9.629   5.996   3.631  0.1056  0.0035 -0.0160
 4531W        W 8595   7.871  10.369   9.320 -0.1500  0.2538  0.3386
 4532W        W 8596   5.494   4.277  10.141 -0.1049  0.2602 -0.0099
 4533W        W 8597   5.139   0.548  11.605 -0.3177  0.5001  0.1317
 4534W        W 8598   0.648   2.424  11.412  0.1203 -0.1089  0.1701
 4535W        W 8599   4.773   7.409  10.497 -0.0903 -0.2652  0.2341
 4536W        W 8600   3.484   7.457   9.535  0.0463 -0.2078  0.1133
 4537W        W 8601   4.053   0.826   2.756 -0.1011  0.0634 -0.0282
 4538W        W 8602   4.694   0.456  10.090  0.0864  0.0786 -0.2505
 4539W        W 8603   5.386   5.908   8.637 -0.1269  0.2168 -0.2612
 4540W        W 8604   3.629   1.066   0.449  0.0296  0.0446 -0.2037
 4541W        W 8605   5.543   0.079   1.785  0.0451  0.0354  0.0943
 4542W        W 8606   4.622   5.051   8.316  0.2086 -0.1995  0.2082
 4543W        W 8607   1.274   9.364   8.038  0.0490 -0.2999 -0.0278
 4544W        W 8608   1.985   8.949   3.036  0.2202  0.0894  0.0410
 4545W        W 8609   1.332  10.210   1.107  0.0493  0.0705  0.2059
 4546W        W 8610   7.037   1.788   0.840 -0.0711 -0.1546  0.1800
 4547W        W 8611   9.549   4.382   8.923 -0.0090 -0.1476 -0.0553
 4548W        W 8612   9.538   0.657   3.335  0.0215 -0.1709  0.1268
 4549W        W 8613   6.232   5.190   7.421 -0.0878  0.0438 -0.2600
 4550W        W 8614   6.423   8.771   3.224 -0.2053 -0.0454 -0.0952
 4551W        W 8615   3.904   9.584   8.310 -0.1181  0.0406 -0.1185
 4552W        W 8616  10.596   0.958  10.149 -0.2607  0.1992 -0.1850
 4553W        W 8617  10.346   9.455   8.788 -0.3103  0.0291 -0.0513
 4554W        W 8618   0.960   9.220  10.360 -0.2050 -0.0096  0.1689
 4555W        W 8619   6.471   4.651   9.815 -0.0111 -0.0984  0.1525
 4556W        W 8620   9.063   8.200   1.181  0.1148 -0.3416  0.2676
 4557W        W 8621   8.373   3.065   2.091  0.1230  0.2638 -0.2710
 4558W        W 8622   7.025   3.365   2.048 -0.0752 -0.3925 -0.0912
 4559W        W 8623   8.573   5.754  11.364  0.4326 -0.0817 -0.0305
 4560W        W 8624   0.856   6.777   9.432 -0.0736  0.0909  0.0653
 4561W        W 8625   1.597   4.921   1.646 -0.1819 -0.2589  0.2004
 4562W        W 8626   6.953   6.894   3.335 -0.2283  0.2922 -0.0655
 4563W        W 8627   2.726   1.301   2.520 -0.1587 -0.0079 -0.2198
 4564W        W 8628   5.867   5.855   9.546  0.1736 -0.0567  0.0525
 4565W        W 8629   3.305   4.291   3.654 -0.2218 -0.2295  0.2863
 4566W        W 8630   2.839  10.489  11.227 -0.3078  0.3067 -0.1599
 4567W        W 8631   9.444   0.555   9.902  0.0319  0.0165 -0.1881
 4568W        W 8632   4.571  10.038   3.158  0.4323  0.0515 -0.0503
 4569W        W 8633   2.551   6.060   3.592 -0.1055  0.0034 -0.0259
 4570W        W 8634   2.441   5.458  11.374 -0.1880 -0.1094 -0.1943
 4571W        W 8635   5.395   9.655   1.720 -0.0784 -0.0131 -0.0993
 4572W        W 8636   6.582   0.386   1.103 -0.0076 -0.3239  0.0890
 4573W        W 8637   7.716   4.273  10.098 -0.0364 -0.3222 -0.0225
 4574W        W 8638   9.750   8.119   7.859  0.3592  0.0998 -0.1595
 4575W        W 8639   6.942   6.744  11.618  0.4681 -0.0789  0.1049
 4576W        W 8640   0.347   3.809  10.698  0.0881 -0.2156  0.2440
 4577W        W 8641   7.954   5.015  10.148 -0.0684 -0.2148 -0.2054
 4578W        W 8642   2.459   9.290  11.569 -0.2048  0.1461 -0.1061
 4579W        W 8643   8.925   7.669   1.176 -0.3381  0.1971 -0.0753
 4580W        W 8644  10.234   9.887   2.315  0.0623 -0.2597 -0.0178
 4581W        W 8645   3.222   5.517  10.608  0.1671 -0.4387  0.2675
 4582W        W 8646   1.434   8.779   0.546 -0.2082 -0.1122 -0.2527
 4583W        W 8647   0.281  10.264   3.252  0.1597  0.4616  0.1226
 4584W        W 8648   5.105   6.111   1.656 -0.0755  0.1880  0.1492
 4585W        W 8649   4.091   6.266   9.648  0.2351  0.0492  0.0379
 4586W        W 8650   6.066   8.842   7.517 -0.1763 -0.0777  0.2729
 4587W        W 8651   0.701   8.636   7.985 -0.0384 -0.3168 -0.1119
 4588W        W 8652   6.715   9.838   8.363 -0.0731 -0.1359 -0.1349
 4589W        W 8653   4.126   1.908  11.640 -0.0284  0.2442  0.2986
 4590W        W 8654   9.156   3.723   0.128 -0.2981  0.0956 -0.1193
 4591W        W 8655   9.034   6.624   0.307  0.2904 -0.4040 -0.0969
 4592W        W 8656  10.383   4.810   2.790 -0.3724  0.0752  0.0188
 4593W        W 8657   5.803   8.245   1.241  0.1887 -0.1009  0.1422
 4594W        W 8658   4.970   7.853   1.456 -0.0101 -0.0202 -0.1532
 4595W        W 8659   2.195   4.616  10.757  0.0066  0.0543  0.2153
 4596W        W 8660   2.962   7.465  10.090 -0.2354  0.1303 -0.2220
 4597W        W 8661   0.420   1.638   7.036 -0.1575  0.2110  0.1054
 4598W        W 8662  10.320   4.822   2.102  0.2341 -0.2321 -0.3429
 4599W        W 8663   4.230   1.281   1.152 -0.2503  0.0300  0.0648
 4600W        W 8664   4.386   9.927   1.215 -0.4191 -0.1904 -0.0975
 4601W        W 8665   7.116   6.618   4.067  0.0692  0.0668 -0.0730
 4602W        W 8666  10.414   6.829  10.793  0.1243  0.0817  0.0993
 4603W        W 8667   8.839   4.001   7.849  0.0532 -0.0145  0.2771
 4604W        W 8668   0.193   7.398   0.978  0.1386 -0.6544 -0.0523
 4605W        W 8669   7.040   7.881   1.842  0.2551 -0.1810 -0.0163
 4606W        W 8670   6.973   6.523   2.807 -0.3900  0.1727  0.4431
 4607W        W 8671   8.579   0.969   9.817 -0.0035  0.2754  0.0795
 4608W        W 8672   9.821  10.395   9.186 -0.0225  0.1250  0.2583
 4609W        W 8673   7.257   7.804   8.213  0.0430 -0.2469  0.0659
 4610W        W 8674   7.310   7.367   1.910 -0.2458  0.2190 -0.1343
 4611W        W 8675   6.771   5.177   1.879 -0.0701  0.0584  0.0230
 4612W        W 8676   6.329   7.352   2.718 -0.1684  0.1325  0.2300
 4613W        W 8677   5.975   3.507   1.802  0.0649  0.1279  0.4282
 4614W        W 8678   0.143   6.357  10.844 -0.2776 -0.0458  0.0167
 4615W        W 8679   9.421   3.867   0.557  0.0505  0.1485  0.0700
 4616W        W 8680   1.198   8.725   9.066 -0.2202  0.0721  0.1666
 4617W        W 8681   3.060   8.345  10.298  0.1707 -0.0399  0.0838
 4618W        W 8682   5.630   5.099   9.557  0.1109  0.0974 -0.1337
 4619W        W 8683   7.578   9.790   7.638 -0.1860 -0.0446  0.2327
 4620W        W 8684   2.270   8.145   1.842 -0.2318 -0.1664  0.1214
 4621W        W 8685   2.109   0.980   1.966 -0.0559 -0.0750  0.0180
 4622W        W 8686   9.251   2.770   8.173  0.1138 -0.1424 -0.0174
 4623W        W 8687  10.054   0.650   1.413  0.0002 -0.1154  0.1916
 4624W        W 8688   8.900   4.320   2.812 -0.2129 -0.0427 -0.1036
 4625W        W 8689   4.849   8.547   9.435  0.1722  0.0314  0.0841
 4626W        W 8690   7.946   2.812  11.212 -0.0310  0.0363  0.0188
 4627W        W 8691   6.488   3.186  11.571 -0.3680 -0.1618 -0.0708
 4628W        W 8692   1.529   8.106   3.266 -0.1150 -0.2342  0.0455
 4629W        W 8693   1.195   7.608   1.846  0.1076  0.1356 -0.2104
 4630W        W 8694   7.122   9.609  10.168 -0.1663 -0.1661 -0.0508
 4631W        W 8695   2.259   1.968   9.200 -0.0584  0.2774 -0.2026
 4632W        W 8696   1.636   1.980   3.498 -0.4012  0.0040 -0.2410
 4633W        W 8697   9.659   1.120   7.205 -0.0666 -0.2055 -0.2171
 4634W        W 8698   0.520   9.519   2.277  0.1813  0.1296 -0.0293
 4635W        W 8699   3.827   6.818   1.812 -0.2176  0.2181  0.1624
 4636W        W 8700   1.844   8.670   7.473  0.4001 -0.1304 -0.2556
 4637W        W 8701   6.549   3.692   9.865  0.0829  0.1788 -0.1009
 4638W        W 8702   6.643   0.763   8.511 -0.1879  0.0722  0.1249
 4639W        W 8703   9.365   2.740   1.341  0.0014  0.0163  0.1417
 4640W        W 8704   7.493   5.248   3.722 -0.3617  0.0843 -0.0327
 4641W        W 8705   5.751   9.537   3.025 -0.2176 -0.0124  0.0226
 4642W        W 8706   0.750   9.853   9.604 -0.0835 -0.2352  0.0893
 4643W        W 8707   5.816   1.418   1.256 -0.1136 -0.0694 -0.0068
 4644W        W 8708   9.449   3.605   1.689 -0.1136  0.2521  0.1543
 4645W        W 8709   2.588   0.832   2.319 -0.0670 -0.1411 -0.0655
 4646W        W 8710   6.692   8.495   1.195  0.0278  0.1231 -0.3090
 4647W        W 8711   4.347   2.844   0.075 -0.1294 -0.2780 -0.0728
 4648W        W 8712   8.720   7.852   3.370 -0.1512 -0.1519  0.0525
 4649W        W 8713   3.681   1.011   1.351 -0.0800  0.0571 -0.2011
 4650W        W 8714   2.218   2.378   0.682  0.1353 -0.1076  0.1808
 4651W        W 8715   9.071   4.089  10.507  0.4063 -0.1644 -0.0571
 4652W        W 8716   4.701   1.860   1.678  0.0682  0.0345 -0.0005
 4653W        W 8717   0.636   7.523   9.010  0.1544  0.0351 -0.2745
 4654W        W 8718   3.136   7.280   0.142 -0.1275  0.3728  0.0555
 4655W        W 8719   1.924   9.449   9.001 -0.4349 -0.0135 -0.2716
 4656W        W 8720   0.603   6.125   0.596  0.0213 -0.0280  0.0035
 4657W        W 8721   3.590   5.760   3.369  0.0734  0.3003 -0.2398
 4658W        W 8722  10.351   0.023   9.140 -0.0722  0.0920  0.0647
 4659W        W 8723  10.391   2.676   9.088 -0.0509 -0.1656  0.3048
 4660W        W 8724   8.404   1.114   1.333  0.0106  0.0862 -0.1078
 4661W        W 8725   9.609   7.882   2.780 -0.2819  0.1653 -0.0292
 4662W        W 8726   1.247   1.278   0.176  0.2472 -0.1855  0.0119
 4663W        W 8727   0.140   6.961   8.204  0.0015  0.1161 -0.1490
 4664W        W 8728   4.342   1.246   2.439  0.0181  0.2818  0.0140
 4665W        W 8729   6.043  10.446   3.159 -0.2704  0.2929  0.1317
 4666W        W 8730   5.546   3.336  11.341  0.2787  0.1301 -0.1954
 4667W        W 8731   6.123   2.656  10.314  0.0904  0.0820  0.0157
 4668W        W 8732   1.551   2.029   9.591 -0.0631 -0.0108  0.3851
 4669W        W 8733   1.844   9.473   3.202  0.1165 -0.0994 -0.1752
 4670W        W 8734   5.395   2.526  10.470  0.0433 -0.0467 -0.1772
 4671W        W 8735   1.016   7.459   0.527  0.0334 -0.0858 -0.1720
 4672W        W 8736   1.174   5.869   8.588  0.0569 -0.1867 -0.0422
 4673W        W 8737   8.454   9.044  11.223 -0.0476 -0.3819  0.1113
 4674W        W 8738   8.730   7.423  10.229 -0.0792  0.3006 -0.1585
 4675W        W 8739   4.134  10.047  11.041 -0.1065  0.1026  0.1523
 4676W        W 8740   1.260   6.289   0.013 -0.1716 -0.0561 -0.1730
 4677W        W 8741   0.052   8.845   2.945 -0.1102  0.0865 -0.0823
 4678W        W 8742   4.290   5.102   1.851 -0.1257 -0.1626 -0.0108
 4679W        W 8743   2.197   4.124  11.614 -0.2828  0.0746 -0.2280
 4680W        W 8744   2.516   2.913   0.117 -0.2899  0.0273  0.2277
 4681W        W 8745   2.084   3.894   1.587 -0.3214 -0.2288 -0.2277
 4682W        W 8746   4.761   9.826   0.922  0.0038 -0.2777  0.0883
 4683W        W 8747   8.679   8.215  11.443  0.1453  0.1788  0.3566
 4684W        W 8748   0.827   6.806   1.494  0.0077 -0.0072  0.2041
 4685W        W 8749  10.382   3.391   7.624  0.1382  0.0650  0.0167
 4686W        W 8750   6.279   9.538   0.644 -0.3884  0.0732  0.2831
 4687W        W 8751   6.780   4.086  10.333 -0.0607  0.0218  0.5064
 4688W        W 8752   7.946   2.027  11.045  0.0813  0.0536  0.0216
 4689W        W 8753   5.151   7.062  10.357  0.0001 -0.0998  0.2928
 4690W        W 8754   0.692   0.685   1.525  0.1164  0.0351  0.1393
 4691W        W 8755   1.195   8.238   1.197 -0.2795 -0.1307 -0.1315
 4692W        W 8756   8.511   9.790   9.632  0.1744  0.0916 -0.4125
 4693W        W 8757   7.668   5.012   9.418 -0.0188 -0.2396  0.3217
 4694W        W 8758   3.193   1.867  10.327  0.4098 -0.0858 -0.1696
 4695W        W 8759   4.413   5.354   2.258 -0.2252  0.0358 -0.2867
 4696W        W 8760   6.966   4.596   9.598  0.2347  0.1706  0.0373
 4697W        W 8761   7.218   3.813   1.517 -0.0088  0.2230  0.1398
 4698W        W 8762   9.319   1.735  11.455 -0.0333 -0.0127 -0.1235
 4699W        W 8763  10.368   5.462   3.664 -0.0489  0.0223 -0.1494
 4700W        W 8764   1.292   3.064   3.547  0.0392  0.2949  0.0827
 4701W        W 8765   1.727   4.487   2.596  0.0493 -0.0435 -0.0925
 4702W        W 8766   2.626   9.510   2.000  0.1799 -0.0867  0.1342
 4703W        W 8767   6.413   2.990   9.858 -0.0462  0.0277  0.3369
 4704W        W 8768   3.785   6.582   0.462  0.0372  0.3104  0.2027
 4705W        W 8769   7.075   8.996   3.074  0.3371  0.1504  0.1971
 4706W        W 8770  10.222   6.225   1.087  0.2647 -0.1631  0.0170
 4707W        W 8771   7.014   8.025   1.259  0.0225  0.0076  0.2131
 4708W        W 8772   5.789   4.460   8.812 -0.3364  0.3858  0.0152
 4709W        W 8773   5.339   8.161   8.181  0.1499  0.0195 -0.0445
 4710W        W 8774   2.997   7.663   9.577 -0.3854 -0.0494 -0.2252
 4711W        W 8775   7.556   8.210   0.606  0.1795  0.0376 -0.1482
 4712W        W 8776   7.479   1.706   3.552 -0.2542 -0.3693 -0.1108
 4713W        W 8777   8.162   4.072  10.921  0.0058 -0.1630  0.0130
 4714W        W 8778   9.782   9.802   3.072 -0.0893 -0.4545 -0.1203
 4715W        W 8779   9.506   8.114   3.209  0.3039  0.0272 -0.1641
 4716W        W 8780   8.408   1.377   1.783 -0.1505  0.1979 -0.0361
 4717W        W 8781   3.857   4.161   2.835 -0.3649  0.1416 -0.1192
 4718W        W 8782   0.466   9.636  10.506  0.0109 -0.2183 -0.3187
 4719W        W 8783   3.466   2.914  10.829 -0.0628  0.4301  0.1383
 4720W        W 8784   4.243   8.371   9.099 -0.1689 -0.0183  0.0361
 4721W        W 8785   3.685   6.938   3.711  0.1017 -0.0692  0.1173
 4722W        W 8786   1.445   6.803   3.236 -0.1372 -0.2475 -0.4902
 4723W        W 8787   5.755   8.596  11.472 -0.0052  0.0831 -0.1092
 4724W        W 8788   9.958   1.087  10.952  0.0127  0.2334  0.0633
 4725W        W 8789   0.508   1.549   0.575  0.2656 -0.0359 -0.4433
 4726W        W 8790   4.736   3.642   2.846  0.0400  0.2408  0.0869
 4727W        W 8791   6.663   5.466   9.330  0.0835  0.0322  0.0156
 4728W        W 8792   5.520   1.553   9.501 -0.1236 -0.0601  0.0956
 4729W        W 8793   1.781   4.628   0.258  0.1785  0.0579  0.0168
 4730W        W 8794   3.354   6.488  11.089  0.0321  0.1476 -0.0934
 4731W        W 8795   8.645   1.437   9.512 -0.2366 -0.0051 -0.2529
 4732W        W 8796   6.059  10.432   8.330 -0.0286  0.2499 -0.0893
 4733W        W 8797   3.734   2.335   0.239  0.0984 -0.1198 -0.2853
 4734W        W 8798   5.794   7.859   7.674  0.0585  0.0172 -0.3305
 4735W        W 8799   2.018   6.464   9.387 -0.1242  0.0940  0.2220
 4736W        W 8800   5.035   5.258   1.001  0.0201 -0.1518 -0.0868
 4737W        W 8801   8.995   5.667  10.705  0.5028 -0.0236 -0.0821
 4738W        W 8802  10.201   9.190   0.887  0.1746 -0.3134 -0.0965
 4739W        W 8803   5.509   8.343   2.050 -0.2164 -0.1450 -0.4163
 4740W        W 8804   7.943   3.384   2.311  0.0795  0.2893  0.0468
 4741W        W 8805  10.185   2.668   8.254  0.0115 -0.1087  0.0315
 4742W        W 8806   6.507   3.192   3.718 -0.3388  0.0092 -0.3533
 4743W        W 8807  10.567   1.840   8.457 -0.0569  0.1300  0.0172
 4744W        W 8808   4.402   2.175   2.581 -0.1071  0.0001  0.1581
 4745W        W 8809   1.185   5.601   3.395 -0.0573 -0.2632  0.1070
 4746W        W 8810   3.580   5.272   8.591 -0.2825  0.2272  0.0210
 4747W        W 8811   0.447   6.599   0.598  0.0244 -0.1874  0.2268
 4748W        W 8812   0.568   3.962   2.092 -0.0691  0.2256 -0.1577
 4749W        W 8813   4.300   0.158  10.270 -0.0404 -0.1378  0.0058
 4750W        W 8814   1.699   8.380   2.406  0.0322 -0.1207  0.2024
 4751W        W 8815   3.844   5.319   0.547 -0.2238  0.1593 -0.3979
 4752W        W 8816   7.970   3.859   9.029  0.3914 -0.1335 -0.1491
 4753W        W 8817   6.629   7.475  11.511  0.1283 -0.0928  0.0033
 4754W        W 8818   7.545   6.940   4.207 -0.0602 -0.0772  0.0955
 4755W        W 8819   8.626   0.320  10.041  0.1179 -0.1715 -0.0860
 4756W        W 8820   7.911   4.225  11.458 -0.1242 -0.2181  0.3311
 4757W        W 8821   5.749   1.056   0.889 -0.3474  0.1795  0.1862
 4758W        W 8822   0.292   5.186   9.743  0.0863 -0.0212  0.0326
 4759W        W 8823   9.745   2.197   9.999  0.1988 -0.2110  0.1483
 4760W        W 8824   3.511   7.320   2.469  0.4708 -0.1239 -0.1931
 4761W        W 8825   7.689   1.865   1.330 -0.0212 -0.1262 -0.2070
 4762W        W 8826   2.571   3.006   3.616  0.0303 -0.0255  0.0394
 4763W        W 8827   7.761   1.222   0.568 -0.0331 -0.2300  0.0619
 4764W        W 8828   1.286   9.580  10.177 -0.3756  0.0917 -0.3289
 4765W        W 8829   5.437   3.096   0.137 -0.0492 -0.0996  0.1361
 4766W        W 8830   0.693   5.445  10.005  0.2063  0.4017 -0.0979
 4767W        W 8831  10.106   6.673   8.867 -0.1842 -0.0134  0.0678
 4768W        W 8832   8.235   4.465   0.199  0.0699 -0.0568  0.1796
 4769W        W 8833   4.679   1.205  10.593  0.0846  0.0922  0.0827
 4770W        W 8834   9.600   4.390   2.268 -0.2289  0.2853 -0.1521
 4771W        W 8835   0.810  10.509   1.993 -0.2747 -0.1116 -0.3108
 4772W        W 8836   2.938   6.361   0.478  0.0481  0.0362  0.2949
 4773W        W 8837   2.137   2.542   0.209  0.0039  0.3611  0.3596
 4774W        W 8838   0.923   2.010   8.080 -0.1176 -0.0592  0.2324
 4775W        W 8839   6.575   9.186   2.920 -0.1589  0.2589 -0.1261
 4776W        W 8840   3.977   5.610   0.966  0.2162  0.0369 -0.1068
 4777W        W 8841   0.301   1.014   1.352  0.1430 -0.2646  0.1888
 4778W        W 8842   6.459   3.459   2.649  0.0091  0.0862 -0.2624
 4779W        W 8843   8.893   3.247   0.022  0.0928  0.2853  0.0302
 4780W        W 8844   0.194   8.855   7.919  0.2112 -0.2924 -0.0277
 4781W        W 8845   7.134  10.412   0.045  0.1470 -0.0784 -0.0812
 4782W        W 8846   6.644   9.319  10.591 -0.0319 -0.0425  0.1954
 4783W        W 8847   4.859   9.668   2.954 -0.1334 -0.2676 -0.2031
 4784W        W 8848   1.382   2.469   9.540  0.0606 -0.0672 -0.0765
 4785W        W 8849   3.001   2.796   3.394  0.2198  0.0416  0.1981
 4786W        W 8850   9.359   7.602   9.457  0.3199 -0.0612 -0.3091
 4787W        W 8851   4.743   0.301   8.257  0.1875  0.0573 -0.1562
 4788W        W 8852   4.001   1.502  10.688  0.1931 -0.0121  0.1405
 4789W        W 8853   2.872   1.351  10.697  0.0537  0.2658 -0.0194
 4790W        W 8854   7.649   9.507  10.318 -0.0362 -0.0660 -0.1558
 4791W        W 8855   8.637   3.582   0.322  0.0176 -0.1466  0.0679
 4792W        W 8856   8.574   5.930   8.326  0.1023  0.3114  0.1741
 4793W        W 8857   2.723   1.537   9.809 -0.1485 -0.0528  0.1823
 4794W        W 8858   7.074   8.909   2.105  0.4066 -0.0586  0.0696
 4795W        W 8859   6.472   8.326   8.499  0.0340  0.1687 -0.2323
 4796W        W 8860   5.801   9.536   2.024  0.0770 -0.2249 -0.2856
 4797W        W 8861   1.322   3.910   0.828 -0.0800  0.0096 -0.3188
 4798W        W 8862   7.694   5.493   9.486  0.0157  0.1888  0.0110
 4799W        W 8863  10.323   9.176  11.067 -0.1044  0.1354  0.0660
 4800W        W 8864   3.125   7.032   2.380 -0.1886  0.0497 -0.1548
 4801W        W 8865   9.020   7.773   1.680  0.0193  0.0933 -0.1847
 4802W        W 8866   3.017   8.499   9.529 -0.0804  0.1252  0.2249
 4803W        W 8867   1.926   2.433   2.449  0.2477 -0.1870 -0.0752
 4804W        W 8868  10.490   8.440  10.838 -0.1349 -0.4267  0.2990
 4805W        W 8869   5.657   9.920   1.327 -0.1827  0.3982  0.0995
 4806W        W 8870   0.319   5.859   8.785 -0.0496 -0.4144  0.0288
 4807W        W 8871   1.284   9.968   8.081  0.0424  0.0506 -0.1470
 4808W        W 8872   3.077   1.969  11.270  0.0296 -0.0572 -0.0522
 4809W        W 8873   4.737   7.435   8.067  0.0673  0.0645 -0.1902
 4810W        W 8874   1.740   1.616   8.191 -0.2148 -0.1278  0.1517
 4811W        W 8875   8.010   4.525   8.630  0.1993 -0.5304 -0.2067
 4812W        W 8876   7.588   1.283   1.265  0.0574  0.1135 -0.1880
 4813W        W 8877   9.082   6.130  10.381  0.0420  0.1557  0.2202
 4814W        W 8878  10.586  10.258   2.458  0.0499 -0.2046 -0.3392
 4815W        W 8879   1.215   2.716  11.198 -0.1483  0.0378 -0.0792
 4816W        W 8880   2.971   6.772   2.928  0.0096  0.3222  0.2069
 4817W        W 8881   0.175   1.919  10.235 -0.3594 -0.0675 -0.2520
 4818W        W 8882   1.207   8.557   8.168 -0.1291 -0.0436  0.1364
 4819W        W 8883   2.162   8.252   2.413  0.1121  0.0599  0.0269
 4820W        W 8884   4.754   4.233   3.573 -0.4029 -0.0143 -0.2227
 4821W        W 8885   7.738   3.364   0.776  0.0021  0.2550  0.3985
 4822W        W 8886   6.860   9.198   8.008 -0.1463  0.1388 -0.2423
 4823W        W 8887   4.322   2.984  10.745 -0.0118  0.0911 -0.2781
 4824W        W 8888   7.792   4.004   4.208  0.1643 -0.1175  0.1570
 4825W        W 8889   3.858  10.103   9.682  0.0926  0.3268  0.3616
 4826W        W 8890   9.670   0.534  11.091 -0.1148  0.1851 -0.2838
 4827W        W 8891   1.696   2.565   8.757 -0.1415 -0.0594 -0.2848
 4828W        W 8892   5.939   9.921   2.332  0.0292  0.2520  0.0187
 4829W        W 8893   8.207   7.142   1.661  0.0116  0.0962 -0.1640
 4830W        W 8894   7.263   3.851  10.626 -0.0655 -0.0310  0.2420
 4831W        W 8895   6.504   7.263   1.464  0.0316  0.0854 -0.0802
 4832W        W 8896   4.106   8.231  10.454 -0.1686  0.0098  0.2372
 4833W        W 8897  10.374   1.240   0.344 -0.1997 -0.1185  0.0424
 4834W        W 8898   9.441   5.580   1.093  0.2659  0.1329  0.2949
 4835W        W 8899  10.019   8.657   1.072 -0.0063  0.1323 -0.0120
 4836W        W 8900   4.887   6.294  11.513 -0.0346  0.3320  0.3189
 4837W        W 8901   8.135   4.763   9.224  0.1460 -0.1075 -0.3688
 4838W        W 8902   5.017   3.542   1.431 -0.1453  0.0102 -0.0864
 4839W        W 8903   4.303   4.455   0.272  0.1766 -0.0846  0.1191
 4840W        W 8904  10.029   9.758  10.938  0.3059 -0.0361  0.1623
 4841W        W 8905   1.762   1.624   3.924  0.2098 -0.2570 -0.0789
 4842W        W 8906   2.499   9.310  10.502 -0.2965  0.2065  0.1807
 4843W        W 8907  10.005   5.680  11.116 -0.1748  0.2288  0.1825
 4844W        W 8908   1.731   9.178   8.602 -0.1081  0.1640  0.1909
 4845W        W 8909   0.145   8.927  11.136  0.2473  0.3600  0.1655
 4846W        W 8910   2.165   5.856   1.412  0.3223  0.0130  0.1248
 4847W        W 8911   0.280   2.417   0.130  0.3485 -0.0164 -0.0178
 4848W        W 8912   9.559   7.897   0.588  0.0528 -0.0812  0.1593
 4849W        W 8913   4.977   2.465   3.460  0.3041 -0.0554  0.0762
 4850W        W 8914   5.426   7.646   8.498  0.1910 -0.1972 -0.3680
 4851W        W 8915   2.698   1.108  11.125 -0.3484 -0.2329 -0.0241
 4852W        W 8916   6.225   7.768  10.826  0.0984  0.2898 -0.2365
 4853W        W 8917   3.070   3.299   3.350  0.0948 -0.2979 -0.4305
 4854W        W 8918  10.563   1.086   9.242  0.0703 -0.0527 -0.0636
 4855W        W 8919   3.223   6.839   8.282 -0.1619  0.1323  0.0021
 4856W        W 8920   6.822   0.444   9.134  0.1610  0.2609  0.1072
 4857W        W 8921   1.173   2.737   8.581  0.1887  0.1130 -0.1305
 4858W        W 8922   4.491   1.297   3.468  0.2974  0.2039  0.2092
 4859W        W 8923   0.297   8.328   1.445 -0.2157 -0.1385  0.1898
 4860W        W 8924  10.253   8.259  10.455  0.1154  0.0406  0.0289
 4861W        W 8925   6.667   2.106   0.681  0.0574  0.2225 -0.1643
 4862W        W 8926   8.725   8.253   8.527  0.0432  0.1066 -0.1399
 4863W        W 8927   7.944   8.436   0.413 -0.0195  0.0094 -0.4882
 4864W        W 8928   7.396   9.426   2.822  0.0283 -0.0291 -0.0208
 4865W        W 8929   9.449   3.293   8.191 -0.0689 -0.2731  0.0816
 4866W        W 8930   3.569   0.688  10.298  0.1520  0.0089 -0.1015
 4867W        W 8931   3.953   0.128   3.139  0.1289  0.1304 -0.1630
 4868W        W 8932   5.370   9.123   2.556  0.4050 -0.0985 -0.0514
 4869W        W 8933   9.901   0.547   8.613  0.2651 -0.0498 -0.2223
 4870W        W 8934   2.070   3.678   7.808 -0.2651 -0.2108  0.0816
 4871W        W 8935   7.011   0.557   3.219 -0.2198 -0.2200 -0.2280
 4872W        W 8936   9.820   3.584  11.039  0.1693  0.1107 -0.1508
 4873W        W 8937   6.358   6.995   0.424 -0.4219  0.1392  0.0704
 4874W        W 8938   2.173   1.191   1.139 -0.3031  0.1276  0.1861
 4875W        W 8939   2.235   3.893   2.127  0.2985  0.1231  0.1555
 4876W        W 8940   9.467   3.715   2.161 -0.3983 -0.0869  0.0254
 4877W        W 8941   4.879   5.377   8.735 -0.3135 -0.3256 -0.0624
 4878W        W 8942   5.704   2.647  10.947  0.1726 -0.0831  0.2868
 4879W        W 8943   6.512   3.687   3.886  0.0610 -0.0481 -0.1861
 4880W        W 8944   1.337   8.043   8.227 -0.0471 -0.0930  0.0601
 4881W        W 8945   3.904   0.520  10.570  0.1182  0.1213 -0.1881
 4882W        W 8946   3.299   7.605  10.465  0.0033  0.1518  0.2142
 4883W        W 8947  10.010   2.623  11.513  0.0902 -0.0650 -0.0102
 4884W        W 8948   1.140   2.279  11.504 -0.0360  0.3189 -0.1062
 4885W        W 8949   5.787   6.051  10.020  0.1878  0.0211 -0.1379
 4886W        W 8950   3.485   1.407   7.760  0.1079  0.1858 -0.0663
 4887W        W 8951   1.603   6.302   0.431  0.1430 -0.3106  0.1358
 4888W        W 8952   6.105   6.807   2.086 -0.4795  0.1731  0.2770
 4889W        W 8953   8.359  10.309  11.306  0.4704 -0.0872 -0.1259
 4890W        W 8954   0.109  10.493   9.938 -0.4000  0.0432 -0.1507
 4891W        W 8955   9.621   6.616   3.381 -0.1162  0.1544  0.2752
 4892W        W 8956   9.582   7.060   8.259 -0.2201  0.1244 -0.2838
 4893W        W 8957   2.191   6.943  10.093  0.1778 -0.0811  0.2451
 4894W        W 8958   5.823   0.935  10.104 -0.2487  0.2917  0.0842
 4895W        W 8959   6.577   4.701  10.633  0.1144  0.0456  0.1164
 4896W        W 8960   8.832   6.216  11.553 -0.0749 -0.4066  0.0570
 4897W        W 8961   6.632   2.846   1.334  0.1556  0.1848  0.1686
 4898W        W 8962   4.913   0.653  10.500 -0.2719  0.1274  0.1565
 4899W        W 8963   0.003   1.763  10.754  0.0208  0.1682  0.2164
 4900W        W 8964   1.712   4.171   0.100  0.2743  0.3308 -0.0252
 4901W        W 8965   4.362   6.167   3.824 -0.1875  0.1632  0.2375
 4902W        W 8966   6.883   0.175  10.565  0.1022  0.1711 -0.4262
 4903W        W 8967   4.466   4.817   9.429  0.1549  0.0438  0.2678
 4904W        W 8968   6.198  10.064   2.832  0.0984 -0.0798 -0.3665
 4905W        W 8969   0.164   9.517   0.109 -0.2895  0.1705 -0.1915
 4906W        W 8970   5.428   0.320   8.740  0.0399 -0.0468  0.1607
 4907W        W 8971   2.532   7.399   3.432  0.0349 -0.1820 -0.1741
 4908W        W 8972   6.188   6.533   0.159 -0.1121  0.2544  0.3059
 4909W        W 8973   3.727   9.169   2.587 -0.4174  0.0247 -0.1502
 4910W        W 8974   9.249   4.436   4.594  0.0918  0.1484  0.0082
 4911W        W 8975   2.256   2.403   8.898 -0.0336 -0.0515 -0.0253
 4912W        W 8976   2.278   8.923   1.373  0.1029  0.0270  0.0884
 4913W        W 8977   0.287   2.392   9.706 -0.1576  0.0411  0.2373
 4914W        W 8978   3.492   7.305   7.707  0.2628 -0.1387 -0.0681
 4915W        W 8979   9.305   8.392   2.773 -0.0188 -0.1293 -0.1208
 4916W        W 8980   1.779   0.890  10.778  0.3041 -0.1982 -0.2126
 4917W        W 8981   8.174   5.600   2.910 -0.1411  0.0208  0.1781
 4918W        W 8982   8.229   9.721   8.142  0.1324  0.0520  0.0691
 4919W        W 8983   1.353   2.341   8.382  0.0021 -0.3192  0.2983
 4920W        W 8984   5.679   4.896   0.195  0.2994  0.1700  0.1566
 4921W        W 8985   9.755   4.853   2.139 -0.1029  0.0448  0.0371
 4922W        W 8986   5.654   4.139   9.691 -0.0344 -0.2108  0.1443
 4923W        W 8987   9.952   7.887  11.446 -0.1118 -0.2401 -0.3717
 4924W        W 8988   2.895   8.816   2.429 -0.0273 -0.0591 -0.1416
 4925W        W 8989   0.217   3.288   0.185 -0.1729 -0.0889 -0.1874
 4926W        W 8990  10.525   2.280   1.972 -0.0495  0.0305  0.0845
 4927W        W 8991   7.106   1.068  10.450  0.0328 -0.0561  0.2674
 4928W        W 8992   0.672   9.261   8.365  0.0651 -0.0157 -0.1747
 4929W        W 8993   1.509   2.368   0.915  0.3088  0.3282  0.0954
 4930W        W 8994   5.100   4.809   0.759 -0.1957  0.1041 -0.1809
 4931W        W 8995   4.260   9.670  10.471  0.3073  0.0357 -0.1649
 4932W        W 8996   3.397   5.662   0.454  0.0071  0.1692  0.1970
 4933W        W 8997   0.665   4.588   1.406  0.2318  0.1041  0.0197
 4934W        W 8998   4.682   1.652   9.633  0.0138 -0.0510 -0.0642
 4935W        W 8999   8.006  10.083   8.936 -0.0689 -0.0145 -0.0791
 4936W        W 9000  10.425   7.123   1.734 -0.1084  0.0065 -0.2054
 4937W        W 9001   8.942   2.552   2.773 -0.1496  0.1578  0.1493
 4938W        W 9002   0.580   5.603   0.486 -0.0905  0.0166 -0.2263
 4939W        W 9003   5.359   9.427   9.882  0.0841 -0.1930 -0.1335
 4940W        W 9004   7.097   1.245   0.243  0.1113  0.3897  0.1207
 4941W        W 9005   7.546   3.008   1.466 -0.0424 -0.1120 -0.2907
 4942W        W 9006   3.252   5.500   9.354 -0.1323 -0.4188 -0.2206
 4943W        W 9007  10.010   9.574   2.619 -0.2146  0.0552 -0.2000
 4944W        W 9008   6.636   0.026   0.746  0.0735  0.0404 -0.0224
 4945W        W 9009   2.143   1.381   7.152 -0.0407 -0.0789  0.1179
 4946W        W 9010   7.597   9.919   2.797 -0.3887  0.0899 -0.2016
 4947W        W 9011   2.030   9.765   8.521 -0.1556 -0.0410  0.0321
 4948W        W 9012   4.557   6.472   0.358  0.1735  0.1548 -0.0392
 4949W        W 9013   5.040   0.726   2.306 -0.3919 -0.1329  0.2028
 4950W        W 9014   9.318   1.761   3.710 -0.0303  0.0210 -0.0013
 4951W        W 9015   0.444   4.363   2.392 -0.1396 -0.0800  0.3341
 4952W        W 9016  10.254   0.378   1.795  0.1994  0.0479 -0.1958
 4953W        W 9017   2.835   4.582   1.041  0.1526 -0.1045  0.3182
 4954W        W 9018   8.930   3.164  10.437 -0.0414 -0.0677  0.2822
 4955W        W 9019   3.975   2.864   1.884  0.0192 -0.0714 -0.0336
 4956W        W 9020   5.571   7.558   8.028  0.2780  0.0061 -0.1127
 4957W        W 9021   7.681   6.398   0.201  0.2372  0.0109 -0.1171
 4958W        W 9022   1.962   0.739   9.932 -0.0144  0.3817 -0.1945
 4959W        W 9023   5.802   1.115   2.379  0.1218  0.0850  0.0007
 4960W        W 9024   5.332   0.579   9.197 -0.2004  0.0607 -0.1403
 4961W        W 9025  10.595   6.060   0.018  0.1501 -0.3057 -0.3622
 4962W        W 9026   4.538   5.412   2.762  0.2502 -0.1051 -0.1493
 4963W        W 9027   4.100   3.329  11.505  0.2757 -0.1158 -0.0522
 4964W        W 9028  10.409   5.858   1.380  0.1529 -0.2262 -0.0330
 4965W        W 9029   9.200   3.922   9.662 -0.4047  0.1083  0.2543
 4966W        W 9030   8.354   0.978   0.666  0.1376  0.1415 -0.3138
 4967W        W 9031   4.740   1.997  10.264 -0.0154 -0.1783  0.2948
 4968W        W 9032   2.030   1.940   0.373  0.0577  0.1008  0.2503
 4969W        W 9033   1.010   9.012   3.245 -0.1923 -0.0603  0.0619
 4970W        W 9034   8.953   8.771   3.017 -0.1239  0.2172  0.0885
 4971W        W 9035   0.720   6.333  10.348  0.3122 -0.0495 -0.1990
 4972W        W 9036   7.385   8.564   9.144 -0.1502  0.0526 -0.0228
 4973W        W 9037   2.351   5.130   7.286 -0.1668 -0.0034  0.0108
 4974W        W 9038   8.041   7.504   8.265 -0.6741  0.0966 -0.0448
 4975W        W 9039   7.068   9.811   2.808  0.0749  0.2063  0.5004
 4976W        W 9040   6.542   7.127   2.280  0.0211 -0.5229 -0.1212
 4977W        W 9041   0.382   9.749  11.272  0.0085 -0.2786  0.0904
 4978W        W 9042   4.950   4.983  10.284  0.0316  0.2086 -0.0594
 4979W        W 9043   2.497   0.642   1.835 -0.1185 -0.1690 -0.0467
 4980W        W 9044   9.997   0.356   9.957 -0.0867 -0.0225 -0.1165
 4981W        W 9045   6.961   4.042   0.498  0.1094 -0.2154 -0.2780
 4982W        W 9046   1.726   9.707  10.020 -0.1155 -0.2871  0.2578
 4983W        W 9047   4.848   4.241   8.691  0.1210 -0.0181 -0.0640
 4984W        W 9048   2.693   5.861   8.590 -0.1135 -0.0432  0.0772
 4985W        W 9049   4.771   8.148   9.067  0.0147 -0.1576 -0.1689
 4986W        W 9050   5.376   6.253   0.956 -0.2411 -0.0254  0.3096
 4987W        W 9051   4.083   2.043   8.941  0.2414 -0.0969 -0.0003
 4988W        W 9052   8.882   3.006   2.113 -0.0387  0.1679 -0.3139
 4989W        W 9053   7.110   2.719   9.444 -0.0114  0.3075 -0.1417
 4990W        W 9054   2.609   6.100   3.060 -0.1271 -0.0953 -0.1388
 4991W        W 9055   1.848  10.519  10.383  0.0493  0.1733 -0.0244
 4992W        W 9056   9.016   2.604   0.897 -0.0924 -0.0236  0.1538
 4993W        W 9057   1.629   3.641   0.010  0.0788 -0.1158  0.0744
 4994W        W 9058   7.539   5.266   1.757 -0.1429 -0.1596  0.0237
 4995W        W 9059   8.554   2.321   1.397  0.2161 -0.1105 -0.2538
 4996W        W 9060   6.414   6.895  11.533  0.0518 -0.0350  0.0059
 4997W        W 9061   0.939   0.533   9.632 -0.0835 -0.3813 -0.2888
 4998W        W 9062   5.132   8.746   2.921  0.0816 -0.3072 -0.2474
 4999W        W 9063   3.643   6.492  10.645 -0.1999 -0.3359  0.0028
 5000W        W 9064   6.661   4.898   2.675 -0.0300 -0.0164  0.3408
 5001W        W 9065   6.022   4.012   0.132 -0.0538  0.0510  0.4105
 5002W        W 9066  10.010   8.299   1.426  0.3019  0.1470  0.0507
 5003W        W 9067   7.629   4.068   3.342 -0.0953 -0.1479 -0.1812
 5004W        W 9068   3.690   6.154   8.276 -0.0143 -0.0793  0.4367
 5005W        W 9069   2.665   0.799   8.276 -0.0105 -0.3267  0.1251
 5006W        W 9070   4.095   6.930   8.011  0.1361 -0.0671 -0.1560
 5007W        W 9071   9.778   0.812   2.411  0.1212  0.1160  0.2703
 5008W        W 9072   5.275   7.047   2.502  0.0839  0.0295 -0.0128
 5009W        W 9073   9.324   6.116   4.034  0.0757 -0.2027 -0.0483
 5010W        W 9074   6.776   3.429   8.860  0.1412  0.0079 -0.2509
 5011W        W 9075   5.008   2.941   3.089  0.2807  0.0887 -0.1673
 5012W        W 9076   6.308   4.153   3.118  0.0860 -0.2753 -0.0136
 5013W        W 9077   8.981   8.733   2.519  0.2810 -0.0563  0.1985
 5014W        W 9078   4.664   1.113   0.668 -0.0782 -0.0036 -0.0119
 5015W        W 9079   7.715   8.521  10.818  0.0863 -0.1356 -0.1540
 5016W        W 9080   8.738   1.883   8.096  0.0495  0.1462 -0.0664
 5017W        W 9081   3.057   0.312   8.764 -0.2591 -0.0961  0.1967
 5018W        W 9082   1.907   6.031   0.681  0.2373 -0.0623 -0.0543
 5019W        W 9083   5.444   5.876   2.501 -0.2125 -0.1646 -0.1835
 5020W        W 9084   6.903   9.504  11.460 -0.0548 -0.0223 -0.1964
 5021W        W 9085   6.351   1.269  10.044  0.0487 -0.2826 -0.1373
 5022W        W 9086   0.045   2.740   3.955 -0.0999  0.0394 -0.0206
 5023W        W 9087   8.648   2.223   0.906 -0.2496 -0.0959 -0.0814
 5024W        W 9088   3.780   9.409   8.838 -0.3102 -0.1266 -0.3303
 5025W        W 9089   5.185   7.484   9.841 -0.1279 -0.3745  0.2866
 5026W        W 9090   4.181   7.734   0.344 -0.0690 -0.2588 -0.2366
 5027W        W 9091   0.994   1.861  10.333 -0.0995  0.2305  0.1968
 5028W        W 9092   8.405  10.233   2.412  0.3228  0.3954 -0.3048
 5029W        W 9093   7.027   2.300   2.082  0.0025 -0.0097  0.2835
 5030W        W 9094   0.551   7.864   2.912 -0.1416  0.1102 -0.2479
 5031W        W 9095   2.586   1.583   2.104 -0.0347  0.0244 -0.1130
 5032W        W 9096   6.669   7.625   8.021 -0.0877  0.0281  0.0281
 5033W        W 9097   6.133  10.115   1.358 -0.2595  0.0452  0.2958
 5034W        W 9098   3.162   5.067   8.220  0.3587 -0.2821  0.1208
 5035W        W 9099   9.606   8.307  10.137  0.3015 -0.2535 -0.4800
 5036W        W 9100  10.397   5.936  10.988 -0.0169  0.2079 -0.0242
 5037W        W 9101   8.175   2.683   1.455 -0.1792  0.2315 -0.1248
 5038W        W 9102   5.467   7.927   2.452 -0.0617  0.2797 -0.1428
 5039W        W 9103   3.544   8.275   2.245  0.2047 -0.0998  0.0371
 5040W        W 9104   1.299   2.308  10.576  0.1871 -0.0037 -0.2420
 5041W        W 9105   3.653   3.936   1.412  0.1982  0.1619 -0.0100
 5042W        W 9106   8.175   8.762   1.341 -0.2751  0.1277 -0.2947
 5043W        W 9107   8.658   1.787   0.665  0.0989 -0.3383 -0.1491
 5044W        W 9108   9.550   4.198   3.596 -0.1081 -0.0969  0.0359
 5045W        W 9109   2.228   7.461   1.151  0.1419  0.4554  0.2613
 5046W        W 9110   6.703   6.519   0.307 -0.0286  0.0237  0.0134
 5047W        W 9111   9.055   7.300   1.871  0.1123  0.2456  0.1243
 5048W        W 9112   3.069   8.932   9.211 -0.1819  0.1680 -0.1852
 5049W        W 9113   9.924   2.273   3.101  0.0641  0.1235 -0.2801
 5050W        W 9114   2.987   7.104  10.482  0.0248 -0.0295 -0.3517
 5051W        W 9115   2.606   7.820   0.942  0.0271  0.1005  0.1939
 5052W        W 9116   2.183  10.555   0.902  0.0404 -0.0448 -0.0405
 5053W        W 9117  10.250   6.433  11.110  0.2728 -0.0480  0.1155
 5054W        W 9118   0.701   8.679   2.403  0.0493  0.0289  0.1003
 5055W        W 9119  10.472   6.521   0.597 -0.3161 -0.1442  0.3173
 5056W        W 9120   4.693   6.953  10.741  0.1946 -0.2025 -0.3301
 5057W        W 9121   3.088   1.615   8.931 -0.1743  0.1685 -0.1385
 5058W        W 9122   5.954   9.381   8.222 -0.1558  0.4700 -0.2874
 5059W        W 9123   3.936   8.284   1.806  0.2417  0.5550  0.2565
 5060W        W 9124   1.914   3.059   9.597  0.2570 -0.1225 -0.2574
 5061W        W 9125   2.681   3.044   9.402 -0.2748 -0.1320 -0.0278
 5062W        W 9126   9.569  10.342   7.996  0.2995  0.0270 -0.0520
 5063W        W 9127   3.969   3.807   2.389 -0.1942 -0.1445  0.0936
 5064W        W 9128   6.191   2.848   2.116 -0.0589 -0.0124 -0.2500
 5065W        W 9129   2.436   5.877  10.984 -0.2063 -0.1446 -0.2066
 5066W        W 9130   5.359   1.067   9.446  0.1240 -0.1604  0.0375
 5067W        W 9131   9.756   3.625   3.490 -0.0003 -0.0896  0.0877
 5068W        W 9132  10.454   4.366   1.337 -0.0579 -0.2259  0.0800
 5069W        W 9133   2.067  10.404   3.059 -0.2744 -0.1089  0.0705
 5070W        W 9134   3.470   2.505   9.869 -0.1628 -0.0712 -0.2459
 5071W        W 9135   5.490   4.684   9.129  0.0104  0.2320 -0.3047
 5072W        W 9136   1.038   7.147   9.045  0.0814 -0.2279 -0.2050
 5073W        W 9137   3.702   0.300   9.414  0.0587 -0.0679  0.1376
 5074W        W 9138   2.732   3.632   9.748  0.0173 -0.0244  0.1519
 5075W        W 9139   7.805   2.927  10.076 -0.0976 -0.0135  0.0062
 5076W        W 9140  10.261   5.461   2.139 -0.3029  0.2065  0.2577
 5077W        W 9141   1.584   6.068   8.417  0.0239  0.0549 -0.4369
 5078W        W 9142   6.403   3.536   2.071  0.1053  0.2493 -0.2454
 5079W        W 9143   5.844   7.634   0.867 -0.0673 -0.1385 -0.2274
 5080W        W 9144   8.964   0.649   2.146  0.3324 -0.3141  0.1265
 5081W        W 9145   8.949   1.453   8.342 -0.1336 -0.0829  0.2535
 5082W        W 9146   3.126   6.219   9.873  0.6590 -0.1707  0.0588
 5083W        W 9147   4.393   3.231   0.406  0.2547 -0.4947  0.2719
 5084W        W 9148   6.613   3.034   9.404  0.3790 -0.0837  0.2475
 5085W        W 9149  10.179  10.494   1.704  0.0811 -0.0082  0.0664
 5086W        W 9150   5.120   9.282   0.121 -0.0193  0.1517 -0.1789
 5087W        W 9151   9.094   1.707   9.762 -0.3730 -0.1576 -0.1165
 5088W        W 9152   9.720   2.835   0.382  0.1253 -0.1950  0.1750
 5089W        W 9153   1.287   4.095  10.515 -0.0794  0.0100  0.1920
 5090W        W 9154   8.722   6.003   1.621 -0.0269  0.0178 -0.4412
 5091W        W 9155  10.086   7.334   2.602  0.0052  0.1839 -0.0171
 5092W        W 9156   5.509   0.094   2.558 -0.3401 -0.2284  0.1148
 5093W        W 9157   9.303   7.983   8.085 -0.1800 -0.0969  0.2065
 5094W        W 9158   9.827   5.633   3.939 -0.0417 -0.2546 -0.0409
 5095W        W 9159   5.480   9.093   3.080  0.2668  0.0519  0.1064
 5096W        W 9160   0.419   2.699   1.628  0.0152 -0.0745 -0.2442
 5097W        W 9161   0.857   4.763  11.339  0.0176  0.1948 -0.0766
 5098W        W 9162  10.066   7.912   0.456 -0.1192  0.1213 -0.0153
 5099W        W 9163   8.978  10.544   1.231  0.1387  0.0905 -0.0451
 5100W        W 9164   9.338   8.519  10.956  0.0607 -0.0934  0.4002
 5101W        W 9165   0.535   6.771  11.346 -0.1617  0.0463 -0.1121
 5102W        W 9166   7.207   5.683   3.652  0.0387 -0.0000 -0.1535
 5103W        W 9167   7.577   7.582   0.896  0.0392 -0.0155 -0.0031
 5104W        W 9168   4.999   9.045   2.243  0.4185  0.0172 -0.1152
 5105W        W 9169   9.816   5.122   8.488  0.2231 -0.0036 -0.0144
 5106W        W 9170   1.190   2.812  10.402 -0.2653  0.1659  0.1037
 5107W        W 9171  10.490   2.410   3.289 -0.2338 -0.1254  0.0637
 5108W        W 9172   0.689   6.548   2.033 -0.0109  0.3672  0.0813
 5109W        W 9173   1.887   2.556   1.102 -0.1007  0.0954 -0.0036
 5110W        W 9174   3.946   2.548  10.090  0.2088  0.2405 -0.0711
 5111W        W 9175   9.726   0.214   9.522 -0.0791 -0.0888  0.0632
 5112W        W 9176   3.610   3.780   1.932 -0.1232  0.0570 -0.0927
 5113W        W 9177   2.662   5.882   7.638 -0.1652  0.4099 -0.1430
 5114W        W 9178   3.308   5.991   3.067 -0.0848  0.0579 -0.0343
 5115W        W 9179   1.709   8.479   0.231 -0.2466  0.1312  0.0809
 5116W        W 9180   5.574   9.480  10.447  0.0560  0.0749 -0.1314
 5117W        W 9181   5.161   1.521   2.366  0.0314  0.1484  0.3139
 5118W        W 9182   0.674   0.723  10.985  0.0716  0.1843 -0.0937
 5119W        W 9183   5.035   6.481   0.604 -0.4067 -0.2495  0.1855
 5120W        W 9184   7.543   6.656   1.963 -0.2994  0.3494 -0.1541
 5121W        W 9185  10.218   4.065   0.999 -0.0486 -0.0527  0.0805
 5122W        W 9186   5.371   0.746  10.679  0.1376 -0.0836 -0.1434
 5123W        W 9187   1.877   6.851   7.226 -0.0913 -0.1567 -0.0871
 5124W        W 9188   0.299   7.183  11.520  0.0401  0.2820  0.1183
 5125W        W 9189   4.695   6.726   2.113 -0.1151  0.3009 -0.0315
 5126W        W 9190   8.613   1.520  11.231 -0.1230  0.3213  0.2876
 5127W        W 9191   1.975   0.384   3.739 -0.2180  0.0810  0.3345
 5128W        W 9192   4.743   8.549   2.249  0.1484 -0.2324 -0.0080
 5129W        W 9193   8.255   8.229  11.137  0.1582 -0.1664 -0.0994
 5130W        W 9194   7.508   6.451  10.151 -0.0626 -0.1084 -0.2660
 5131W        W 9195   3.932  10.492  11.305 -0.1056  0.4474  0.2720
 5132W        W 9196   1.970   5.964   9.413  0.0536  0.1211  0.0002
 5133W        W 9197   5.235   0.064  11.280 -0.0731 -0.2530  0.2316
 5134W        W 9198   1.482   7.301   8.474  0.0272 -0.0516 -0.0798
 5135W        W 9199   6.375   8.563  10.608 -0.5135  0.1380 -0.1092
 5136W        W 9200   7.323   9.527   6.640  0.1336  0.1804  0.1368
 5137W        W 9201   6.585   6.578   8.590 -0.0809 -0.1207 -0.0802
 5138W        W 9202   1.925   9.081   0.529 -0.3307 -0.0514  0.1548
 5139W        W 9203   5.186   5.795  10.593  0.0864 -0.0562  0.2687
 5140W        W 9204   6.140   4.298  11.336  0.1353 -0.0898 -0.1278
 5141W        W 9205   6.966   1.627   3.743 -0.0059 -0.2678 -0.1790
 5142W        W 9206   3.936   4.203   2.163  0.2391  0.0033  0.1770
 5143W        W 9207   9.692   6.857   2.978  0.0891  0.2660 -0.2679
 5144W        W 9208  10.577   4.006  10.302 -0.3465 -0.0435  0.0624
 5145W        W 9209   6.525   7.882   1.994  0.1880 -0.0100  0.2642
 5146W        W 9210   9.653   5.416   9.473 -0.0411  0.0171 -0.0445
 5147W        W 9211  10.094   6.169   2.638 -0.2208 -0.1245  0.0866
 5148W        W 9212  10.029   2.880   1.562  0.2460  0.2815 -0.1184
 5149W        W 9213   7.087   7.865   0.710 -0.0587  0.2606 -0.0426
 5150W        W 9214   1.855   7.572   0.735 -0.0863 -0.0484  0.0350
 5151W        W 9215   7.361   3.048   1.008  0.3852  0.2051 -0.1376
 5152W        W 9216   0.540   0.024   1.462  0.2551  0.2211 -0.2414
 5153W        W 9217   2.701   7.009   9.957  0.1705  0.0168 -0.0882
 5154W        W 9218  10.453   6.841   8.595  0.0369 -0.0176  0.1670
 5155W        W 9219   2.590   8.930  10.825  0.3843 -0.5392  0.1316
 5156W        W 9220   2.098   9.634  10.651  0.2531 -0.2376 -0.2821
 5157W        W 9221   9.152   6.495   9.987 -0.0127 -0.1807 -0.2316
 5158W        W 9222   7.830   9.578   9.106  0.0253  0.0648 -0.0320
 5159W        W 9223   1.665   2.733   2.163 -0.0213 -0.1502  0.0254
 5160W        W 9224   1.249   5.420  10.864  0.1269 -0.0150 -0.0176
 5161W        W 9225   5.377   1.515  10.338  0.1395 -0.2879  0.2352
 5162W        W 9226   6.036   2.189   9.438  0.1438 -0.0037  0.3723
 5163W        W 9227   7.602   7.957  10.804 -0.2347  0.0279  0.0605
 5164W        W 9228   4.448   2.997   2.220 -0.0788  0.0269 -0.1961
 5165W        W 9229   2.844   0.290  11.417 -0.0052 -0.1093  0.0065
 5166W        W 9230   2.714   6.674   8.718 -0.0859  0.0321  0.0893
 5167W        W 9231   3.729   3.939   8.327  0.2103 -0.3206  0.0517
 5168W        W 9232  10.199   6.162   0.395  0.2450  0.2049  0.1048
 5169W        W 9233   7.981   8.154   9.177 -0.1339  0.1357 -0.1099
 5170W        W 9234   8.926   5.611   2.474  0.3034 -0.0369  0.3406
 5171W        W 9235   5.075   5.010   9.717 -0.2552  0.1171  0.0170
 5172W        W 9236   9.577   5.087   2.586 -0.0269 -0.0001 -0.0409
 5173W        W 9237   6.042  10.066  11.202 -0.2771  0.3517 -0.1327
 5174W        W 9238   5.822   4.214  10.540 -0.1046 -0.2511 -0.2056
 5175W        W 9239   4.071   7.875   8.345 -0.1740  0.1400  0.0966
 5176W        W 9240   3.615   1.994  11.390  0.4192 -0.0860 -0.1478
 5177W        W 9241   8.553   8.714   2.206 -0.2056 -0.1299  0.1946
 5178W        W 9242   8.080   7.879   0.428 -0.2302 -0.5674 -0.3675
 5179W        W 9243   6.442   2.197   1.541  0.2102  0.0849 -0.1703
 5180W        W 9244   3.202   1.216   8.665  0.1881 -0.0790  0.0894
 5181W        W 9245   7.852   4.345   1.732 -0.3898 -0.1526 -0.0242
 5182W        W 9246   3.663   7.219   7.251 -0.0576  0.0270  0.1577
 5183W        W 9247   8.380   1.494   8.230  0.0910 -0.3644  0.1347
 5184W        W 9248   4.019   9.662   1.189 -0.2885 -0.0236 -0.0243
 5185W        W 9249   2.489   7.979   9.132 -0.0475 -0.0490  0.1100
 5186W        W 9250   0.363   4.743   0.558  0.2703  0.2988 -0.0323
 5187W        W 9251   8.967   4.094   9.216 -0.0219  0.0475  0.0913
 5188W        W 9252   6.120   4.454   2.256  0.0236  0.1664  0.0827
 5189W        W 9253   2.817   8.793  10.390  0.0931  0.0845 -0.1323
 5190W        W 9254   8.654   2.752  10.046  0.2821 -0.1406 -0.1129
 5191W        W 9255   7.597   9.006   8.211 -0.0435 -0.0505  0.0462
 5192W        W 9256   3.404   7.744   7.165 -0.0971  0.3962 -0.2271
 5193W        W 9257   9.856   0.923   9.944  0.2750  0.0779 -0.2370
 5194W        W 9258   7.556   5.096   9.873  0.0166 -0.1096 -0.1930
 5195W        W 9259   9.077   7.160  10.439 -0.0597 -0.1354  0.0957
 5196W        W 9260  10.526   6.164   3.231 -0.1415 -0.1478 -0.1539
 5197W        W 9261   5.255   6.442  10.209 -0.2202  0.1308 -0.1473
 5198W        W 9262   2.427   2.562  11.439 -0.2457  0.1719  0.1597
 5199W        W 9263   1.017   3.706   7.573  0.2715  0.2784 -0.2200
 5200W        W 9264   2.636   4.951   9.160  0.4582  0.0763 -0.1125
 5201W        W 9265   5.604   3.735   3.106 -0.2290 -0.2295 -0.4173
 5202W        W 9266   8.153   2.618   2.725 -0.1000 -0.4850 -0.0177
 5203W        W 9267   9.980   1.758   8.745  0.0842  0.0997  0.0876
 5204W        W 9268   7.135   5.856   2.298 -0.1090 -0.2203 -0.1022
 5205W        W 9269   7.041   3.801  11.040  0.0682 -0.1176 -0.2250
 5206W        W 9270   6.942   9.210   0.307  0.1777 -0.0174  0.1801
 5207W        W 9271   5.317   1.069   2.633 -0.0694  0.1206  0.2264
 5208W        W 9272   6.147   2.659   9.637 -0.2394 -0.0519  0.1334
 5209W        W 9273   5.122   1.704   1.307 -0.0049 -0.1109 -0.0899
 5210W        W 9274   1.241   8.563   3.114 -0.0643  0.2123 -0.1334
 5211W        W 9275   0.243   5.015   8.986  0.1254  0.0649  0.1093
 5212W        W 9276  10.324   1.028   9.728  0.0731 -0.0224  0.4627
 5213W        W 9277   7.375   1.318   9.952  0.1090  0.1507  0.2500
 5214W        W 9278   3.692   5.149   1.084  0.0599  0.0065 -0.0207
 5215W        W 9279   4.396   5.990   1.597  0.0124  0.1867 -0.0822
 5216W        W 9280   9.788   0.047   8.321  0.2922 -0.6515  0.1606
 5217W        W 9281   3.793  10.205   3.472  0.0565 -0.1471 -0.0043
 5218W        W 9282   0.862   2.398   3.328  0.2077 -0.0990  0.0839
 5219W        W 9283   9.693   9.372  10.944 -0.0047 -0.0070  0.2960
 5220W        W 9284   6.920   3.846  11.545 -0.0053 -0.1214  0.1919
 5221W        W 9285   5.024   1.454   9.349  0.0943  0.0372 -0.1185
 5222W        W 9286   3.299   9.547   8.709 -0.0108  0.2137 -0.2223
 5223W        W 9287   7.631   8.216   8.790 -0.0261  0.0656  0.3038
 5224W        W 9288   1.375   4.352  11.000 -0.0844  0.0493 -0.3662
 5225W        W 9289   8.519  10.125   8.253 -0.0451  0.1860  0.1514
 5226W        W 9290   0.227   7.128   3.697  0.0518 -0.2472 -0.0863
 5227W        W 9291   9.994   8.682  10.236  0.1625 -0.2735 -0.2929
 5228W        W 9292   8.986   7.986   0.619 -0.3521  0.2044  0.0083
 5229W        W 9293   4.924   3.852  10.729 -0.1141  0.2141  0.1418
 5230W        W 9294   8.573   7.030  10.578 -0.0936  0.0779 -0.4632
 5231W        W 9295   5.874   1.861   1.013  0.4897  0.2623  0.1222
 5232W        W 9296   3.832   8.163   7.975 -0.0706 -0.6573 -0.0210
 5233W        W 9297   9.813   5.542  10.371 -0.1042 -0.0377  0.2406
 5234W        W 9298   4.277   5.219   0.915  0.1256 -0.0939  0.0789
 5235W        W 9299   1.410   4.050   2.681 -0.2794  0.1005 -0.0411
 5236W        W 9300   3.042  10.428   2.225 -0.0757  0.0216  0.0163
 5237W        W 9301   0.689   5.639  10.661  0.2605  0.0867 -0.1201
 5238W        W 9302   9.803   2.028   1.380 -0.4144  0.2222 -0.0070
 5239W        W 9303   2.162   3.353   3.635 -0.0825  0.0534 -0.0612
 5240W        W 9304   4.246   3.361   3.290  0.0194  0.0326  0.4395
 5241W        W 9305   6.635   0.832   1.293  0.1794 -0.3796 -0.0410
 5242W        W 9306   9.725   8.587   3.047  0.0478 -0.0827  0.0341
 5243W        W 9307   5.143   5.594   3.687 -0.2403 -0.4552 -0.0783
 5244W        W 9308   1.261   3.556   0.443 -0.2449  0.1021 -0.1139
 5245W        W 9309   3.481   8.086   8.340 -0.2841 -0.2550 -0.1402
 5246W        W 9310   2.459   9.638   8.289 -0.0532  0.2515  0.2670
 5247W        W 9311   4.481  10.405   0.253  0.1095 -0.0716  0.1219
 5248W        W 9312   4.474   8.871   3.180  0.0612 -0.0113 -0.1249
 5249W        W 9313   3.119   3.875   1.688  0.1368  0.0345 -0.0304
 5250W        W 9314   4.802   7.240   2.186 -0.3390 -0.1290  0.2561
 5251W        W 9315   1.499   6.286   9.348  0.1586  0.1655 -0.2137
 5252W        W 9316   1.489   7.787   1.047  0.0922 -0.1843 -0.1542
 5253W        W 9317   6.388   8.084  10.446 -0.1092 -0.1300 -0.0830
 5254W        W 9318   9.817   9.018   7.965  0.2316  0.0047 -0.2326
 5255W        W 9319   2.209   6.950   3.430  0.0068  0.1729 -0.1619
 5256W        W 9320  10.367   7.271   9.901  0.0412 -0.1241 -0.2031
 5257W        W 9321   9.273   5.393   2.214 -0.0905  0.2458  0.0307
 5258W        W 9322   8.800   7.903   8.993 -0.3399  0.2118  0.1739
 5259W        W 9323   6.229   9.864   8.543 -0.2357 -0.0546 -0.0120
 5260W        W 9324   9.063   0.748  11.210 -0.1706 -0.1408  0.0721
 5261W        W 9325   7.028   3.734   9.647  0.0347 -0.2823  0.1100
 5262W        W 9326   0.075   8.692   1.682  0.0347  0.0124 -0.0655
 5263W        W 9327   1.291   6.791   9.211  0.2058 -0.1438 -0.0252
 5264W        W 9328   5.759   7.897   2.947 -0.0055 -0.2127 -0.1287
 5265W        W 9329   0.851   4.144   7.833 -0.2498  0.3061  0.2976
 5266W        W 9330  10.521   0.446   3.423  0.1829 -0.1148  0.3332
 5267W        W 9331   0.837   3.921  10.331  0.5094 -0.0084  0.2460
 5268W        W 9332   2.185   3.607   0.678 -0.1497  0.2753 -0.0717
 5269W        W 9333   0.762   2.023   0.633 -0.1166 -0.0751 -0.1906
 5270W        W 9334   7.333   6.938   1.590  0.3606  0.1373  0.0818
 5271W        W 9335   7.409   7.148   3.279 -0.1972  0.0301  0.3748
 5272W        W 9336   7.879   0.960   3.600  0.0151 -0.2132 -0.2201
 5273W        W 9337   2.807   8.248   1.910  0.0836  0.1036  0.1846
 5274W        W 9338   0.168   3.894   0.660  0.3041  0.1244 -0.3578
 5275W        W 9339   5.716   6.950   9.540  0.2113 -0.1312  0.4245
 5276W        W 9340   0.928   1.694   1.064 -0.0208 -0.0820  0.0039
 5277W        W 9341   3.189   5.120  11.307  0.0304 -0.1089 -0.1841
 5278W        W 9342   0.446   5.092   1.333  0.1232 -0.0879  0.1885
 5279W        W 9343   9.175   2.347  11.536  0.2085 -0.1288  0.2123
 5280W        W 9344   6.829   4.312   3.055  0.1861  0.1735  0.1341
 5281W        W 9345   9.354   5.321  10.737  0.2926 -0.2243 -0.0067
 5282W        W 9346   3.714   1.478  11.601  0.0418 -0.2281  0.2187
 5283W        W 9347   9.517   3.350   8.844 -0.0983 -0.0183  0.1404
 5284W        W 9348   6.697  10.425   0.303  0.3106 -0.0019 -0.1060
 5285W        W 9349   6.629   8.401  11.233  0.3478  0.1678 -0.0198
 5286W        W 9350   1.972   1.680  11.570  0.1157 -0.1549  0.1625
 5287W        W 9351   7.877   8.671   9.046 -0.3756 -0.1519 -0.0351
 5288W        W 9352   0.933   4.320   2.429  0.1902  0.3702 -0.3241
 5289W        W 9353   0.028   3.301   1.254 -0.2339 -0.0895  0.2845
 5290W        W 9354   4.421   0.184  10.756 -0.3388  0.2064 -0.1317
 5291W        W 9355   2.217   8.257   0.237 -0.0056 -0.0973  0.3521
 5292W        W 9356   9.389   8.700   9.871 -0.0269  0.0262 -0.3630
 5293W        W 9357   4.486   0.271   9.610  0.0541  0.0883 -0.0925
 5294W        W 9358   8.157   4.008   3.297  0.1231 -0.0012  0.1182
 5295W        W 9359   4.067   0.797   8.677 -0.1227 -0.0769  0.1970
 5296W        W 9360   2.768   2.600   9.987  0.0769 -0.0379  0.1756
 5297W        W 9361   8.046   5.333   2.106  0.2290 -0.0478  0.0738
 5298W        W 9362   2.792   3.188   1.681 -0.1696 -0.2566 -0.3071
 5299W        W 9363   8.541   2.858  11.228 -0.0263  0.2385  0.1694
 5300W        W 9364   9.726   4.246   9.828 -0.1648 -0.0055 -0.0217
 5301W        W 9365   7.842   7.123   2.928  0.0554 -0.1130  0.2312
 5302W        W 9366   7.355   2.731  10.348  0.2064 -0.0549  0.1010
 5303W        W 9367   1.803  10.071   0.888 -0.2040  0.1701  0.0627
 5304W        W 9368   1.217   6.902   0.820 -0.0237  0.0744  0.3030
 5305W        W 9369   8.989   8.925  11.634  0.1836 -0.2022  0.2098
 5306W        W 9370   2.283   4.576   9.858 -0.4378 -0.1857  0.1033
 5307W        W 9371   6.005   5.459   3.722 -0.0491  0.2764  0.1173
 5308W        W 9372   5.188   4.292   0.793 -0.2086  0.1561  0.0590
 5309W        W 9373   9.365   9.102   1.684  0.0491  0.0930 -0.2263
 5310W        W 9374   6.569   0.667   1.881  0.0469 -0.2895 -0.0188
 5311W        W 9375  10.384   1.545   2.665 -0.0897  0.2549  0.1452
 5312W        W 9376   7.482   4.247   0.726 -0.1097 -0.1853  0.1496
 5313W        W 9377   7.304   2.544   1.572 -0.3962  0.0398  0.1070
 5314W        W 9378   4.423   9.095   4.237  0.1266 -0.0783  0.1501
 5315W        W 9379   0.676   4.521   1.920 -0.0800  0.1186 -0.1727
 5316W        W 9380   5.693   8.778   2.303 -0.2867  0.1592 -0.0938
 5317W        W 9381   9.982   3.719  10.522  0.0743  0.2490 -0.2109
 5318W        W 9382   6.575   9.141   8.856 -0.0452 -0.0695 -0.1965
 5319W        W 9383   3.673   5.902   1.788 -0.1066  0.3831 -0.0514
 5320W        W 9384   2.204   9.488  10.110  0.1699 -0.0562  0.1704
 5321W        W 9385   7.140   0.648   2.576 -0.2303 -0.1900  0.0622
 5322W        W 9386   3.920   7.213   2.803  0.3128  0.3109 -0.4555
 5323W        W 9387   6.862   8.808  11.087  0.2074  0.0551  0.0733
 5324W        W 9388   1.554   7.430  10.895  0.2383 -0.1879 -0.0814
 5325W        W 9389   5.811   1.763  10.536  0.2309  0.0501 -0.2335
 5326W        W 9390   3.932   5.014   3.819 -0.1374 -0.0918  0.1383
 5327W        W 9391   4.501   8.380   3.417  0.0097  0.0649 -0.2072
 5328W        W 9392   5.652   4.187   3.859 -0.0274 -0.1175  0.0330
 5329W        W 9393  10.093   9.184   9.170  0.3139 -0.0275 -0.1402
 5330W        W 9394   7.173   4.751  10.682  0.1673 -0.1391 -0.2067
 5331W        W 9395   6.309   1.193   1.133  0.0916  0.1226  0.1610
 5332W        W 9396   1.262   8.046   2.227 -0.1959 -0.1147 -0.2028
 5333W        W 9397   3.329   9.988  10.533  0.1941  0.2197 -0.0111
 5334W        W 9398   9.954   0.857   9.030 -0.0123  0.1183  0.0126
 5335W        W 9399   4.670  10.377   2.227  0.1202 -0.0408 -0.0827
 5336W        W 9400   1.503   0.356   0.466  0.0070 -0.0215  0.3769
 5337W        W 9401   9.797   3.288  10.168 -0.3531 -0.0386 -0.2177
 5338W        W 9402   8.791   8.669  10.970 -0.4644 -0.0195  0.0254
 5339W        W 9403   7.282   1.556   3.070  0.2732  0.0920 -0.1929
 5340W        W 9404   6.883   2.501  10.397  0.2156 -0.0688  0.0697
 5341W        W 9405   4.464   9.439   1.061 -0.1550  0.0073  0.1050
 5342W        W 9406   6.448   1.838   9.253  0.1380  0.1055 -0.1105
 5343W        W 9407   4.758   2.564  11.633 -0.0646 -0.1487  0.0601
 5344W        W 9408   8.163   1.620   0.076 -0.1037 -0.0104 -0.3278
 5345W        W 9409   0.866   3.095   4.411 -0.0951  0.0542 -0.0804
 5346W        W 9410  10.296   3.906   2.475 -0.0697  0.0171 -0.1186
 5347W        W 9411   8.977  10.494  10.849  0.3585 -0.0403  0.2046
 5348W        W 9412   7.227   7.537   3.800  0.0419 -0.0491  0.0025
 5349W        W 9413   1.338   4.590   3.680  0.1242 -0.1895  0.3380
 5350W        W 9414  10.584   2.724   9.860 -0.1141 -0.0145 -0.0941
 5351W        W 9415   8.432   6.543  10.786 -0.0927  0.0937  0.1561
 5352W        W 9416   3.791   1.747   1.759 -0.0503 -0.1126 -0.1808
 5353W        W 9417   2.368   8.265   4.178 -0.2189 -0.1618 -0.2404
 5354W        W 9418   6.922   2.968   3.893  0.0477 -0.1071 -0.1524
 5355W        W 9419   7.410   5.769   9.733  0.1554  0.0429  0.1398
 5356W        W 9420   2.434   0.313   2.200 -0.1344 -0.2256 -0.2689
 5357W        W 9421   3.914   6.512  11.161  0.1782  0.0423 -0.0691
 5358W        W 9422   0.706   1.550   3.428 -0.0488 -0.0440 -0.0674
 5359W        W 9423  10.283   2.985   1.169  0.1850  0.1662  0.0688
 5360W        W 9424   3.145   6.734   3.541 -0.0491 -0.1121 -0.4638
 5361W        W 9425   4.984   3.476   0.353  0.0902 -0.0895  0.0075
 5362W        W 9426   8.713   0.379   8.491 -0.0907  0.2184  0.3882
 5363W        W 9427   7.522   1.858   2.276  0.1643  0.1114 -0.0824
 5364W        W 9428   8.144   7.081   0.566 -0.0192  0.2795  0.2713
 5365W        W 9429   3.108  10.506   9.833  0.0846 -0.0896  0.0731
 5366W        W 9430   8.252   4.317   9.022 -0.2206  0.0431  0.0004
 5367W        W 9431   4.941   4.094   3.088  0.0363  0.1792 -0.1535
 5368W        W 9432   1.476   4.333  10.072 -0.1788  0.0757 -0.1355
 5369W        W 9433   9.481   6.492   0.599  0.0569  0.0497  0.1646
 5370W        W 9434   1.472   0.470   2.988  0.0458 -0.2142  0.2988
 5371W        W 9435   7.011   8.178   9.941 -0.0100 -0.1742  0.0081
 5372W        W 9436   7.971   4.879   2.479  0.0241  0.0935 -0.0538
 5373W        W 9437   9.935   2.301   1.728 -0.1554 -0.0370 -0.2095
 5374W        W 9438   8.025   9.246   8.368 -0.1833  0.0747 -0.1884
 5375W        W 9439   2.741  10.464   0.139 -0.0297 -0.0827  0.0319
 5376W        W 9440   2.210   2.086  11.486  0.2114  0.1660  0.0359
 5377W        W 9441   8.902   4.080  11.080  0.1888 -0.1407 -0.0114
 5378W        W 9442   4.725   3.875   9.856  0.0610  0.2521 -0.1372
 5379W        W 9443   1.779   7.858   2.596  0.3999 -0.0335  0.0004
 5380W        W 9444   5.677   3.307   2.764  0.0246  0.1593  0.1066
 5381W        W 9445   1.053   0.261   0.271  0.0880 -0.0480 -0.2796
 5382W        W 9446   0.198   5.806  11.235 -0.0047 -0.4882 -0.1816
 5383W        W 9447   0.521   7.083   9.240 -0.0771 -0.1283 -0.3051
 5384W        W 9448   8.201   7.168   2.165  0.0937  0.0345  0.0184
 5385W        W 9449   8.844   0.373   2.599  0.2721  0.1354 -0.0347
 5386W        W 9450   5.057   9.016   8.511 -0.3038 -0.1090  0.2540
 5387W        W 9451   5.023   6.870   9.030  0.0726  0.1562  0.0817
 5388W        W 9452   5.608  10.356   2.220  0.1636  0.0321 -0.3327
 5389W        W 9453   3.147   2.824   9.532 -0.1537 -0.1036 -0.0319
 5390W        W 9454   0.642   8.269   1.030  0.0675  0.1519  0.0890
 5391W        W 9455   4.111   0.014   9.355 -0.2353 -0.2514  0.0880
 5392W        W 9456   2.117  10.137   2.142  0.0097  0.1523  0.0224
 5393W        W 9457   3.524   7.537   2.922  0.0804 -0.2926  0.0758
 5394W        W 9458   6.640  10.451   2.266 -0.2196  0.0296  0.1491
 5395W        W 9459   1.196   6.341   3.023  0.3964  0.2457 -0.0604
 5396W        W 9460  10.266   1.941   9.655  0.1375 -0.0222  0.0990
 5397W        W 9461   6.766   8.742   2.772 -0.1203  0.3161 -0.0666
 5398W        W 9462   5.874   6.229   1.888 -0.2161 -0.2184  0.0581
 5399W        W 9463   7.616   2.581   8.773  0.2351  0.0054  0.1729
 5400W        W 9464   9.739   1.365   8.969 -0.0271 -0.1105 -0.0303
 5401W        W 9465   7.470   7.061   9.801  0.1095  0.0508  0.0212
 5402W        W 9466   5.668   5.081  11.371  0.0043 -0.2872  0.0623
 5403W        W 9467   9.925   3.485   9.268 -0.0232  0.0009 -0.0081
 5404W        W 9468   7.252   5.561   1.335 -0.0843  0.2936 -0.0702
 5405W        W 9469   0.693   0.179   8.823 -0.1471 -0.1926  0.0047
 5406W        W 9470   7.901   7.963   8.186  0.2669  0.0300 -0.0317
 5407W        W 9471   4.707   7.202   9.902  0.1041  0.0604 -0.3450
 5408W        W 9472   2.687   6.950   3.599  0.1549 -0.1290  0.1475
 5409W        W 9473   6.829   6.542  10.270  0.0553 -0.2597  0.0493
 5410W        W 9474   7.467   3.617   3.273  0.0605  0.0500 -0.0736
 5411W        W 9475   2.024   3.409  11.433  0.1290 -0.2874  0.0699
 5412W        W 9476   6.477   2.617  11.612  0.1561 -0.1150  0.1057
 5413W        W 9477   0.071   1.935  11.590 -0.1449  0.1440  0.1968
 5414W        W 9478   7.212   8.281   8.462  0.3163  0.0729 -0.1856
 5415W        W 9479   8.556   4.293   2.403  0.3092 -0.1318 -0.3980
 5416W        W 9480   1.149   6.660   7.786 -0.1294  0.0398  0.0440
 5417W        W 9481   1.417   8.867   7.722 -0.1161 -0.1052 -0.3614
 5418W        W 9482   2.800   2.100  10.069 -0.2461 -0.1471 -0.1018
 5419W        W 9483   4.748   5.675   9.202  0.0667  0.1770 -0.1665
 5420W        W 9484   4.686   2.234   2.107 -0.0713  0.0392 -0.3374
 5421W        W 9485  10.346   2.431   9.501 -0.1585 -0.1863 -0.1385
 5422W        W 9486   2.942  10.427   0.568  0.1784  0.0497 -0.0026
 5423W        W 9487   5.001   6.099   9.227  0.0986 -0.2742  0.0928
 5424W        W 9488   3.681   0.631  11.074  0.0306  0.3457 -0.0902
 5425W        W 9489   4.834   3.415   4.154 -0.1325 -0.0064  0.0386
 5426W        W 9490   7.497   2.594   0.864 -0.0672  0.2901 -0.2496
 5427W        W 9491   1.863   0.700   0.263 -0.1395 -0.1653  0.2955
 5428W        W 9492   9.787   7.372   9.619  0.0437 -0.1949 -0.1221
 5429W        W 9493   7.659   8.715   9.668 -0.1070  0.1008  0.2167
 5430W        W 9494   0.078   9.325   2.171  0.0695  0.0358  0.0704
 5431W        W 9495   8.104   5.120   9.640  0.1192  0.0716  0.0377
 5432W        W 9496   0.056   2.805   0.443  0.0681 -0.3891  0.3591
 5433W        W 9497   1.525   9.289   9.620  0.2609 -0.0331  0.0434
 5434W        W 9498   5.561   0.652   2.253 -0.3254  0.2623  0.2390
 5435W        W 9499   5.203   7.756   0.365 -0.3164 -0.0622  0.0089
 5436W        W 9500   6.016   8.398   8.379  0.3173 -0.4435 -0.0487
 5437W        W 9501   1.165   5.207   2.912  0.1783  0.2554 -0.0244
 5438W        W 9502   6.100   6.778  10.578 -0.0367  0.0009  0.0468
 5439W        W 9503   9.329   2.452   3.408  0.1077 -0.0914  0.5881
 5440W        W 9504   9.084   6.866   2.145  0.1517 -0.0436 -0.2017
 5441W        W 9505   3.428   6.162   2.583 -0.1202  0.0692  0.1820
 5442W        W 9506   4.600  10.100  10.970  0.0825 -0.2355  0.0344
 5443W        W 9507   8.580   3.464   9.288 -0.0398 -0.2354 -0.0355
 5444W        W 9508   5.570   5.706   3.927  0.2151  0.4087  0.3417
 5445W        W 9509   0.003   8.530   9.549 -0.4748 -0.0277  0.1022
 5446W        W 9510   7.583   5.111   0.666 -0.1858 -0.1736  0.0411
 5447W        W 9511   1.790   1.240   9.579  0.5087  0.3102 -0.2388
 5448W        W 9512   1.022   0.794  10.069 -0.2845  0.2779 -0.0342
 5449W        W 9513   1.130   8.475   0.265  0.0434  0.2447 -0.0643
 5450W        W 9514   0.538   0.040   3.121 -0.2116  0.4319 -0.0783
 5451W        W 9515   9.262  10.371   8.408  0.0114 -0.1936  0.5807
 5452W        W 9516   4.197   2.209   7.958  0.0179 -0.1893  0.4358
 5453W        W 9517   4.829   5.691   0.041  0.4334 -0.1884 -0.0127
 5454W        W 9518  10.255   7.767   9.992 -0.0816 -0.1043  0.1149
 5455W        W 9519   4.642   3.817   8.583 -0.3085 -0.1202 -0.0176
 5456W        W 9520   3.812   1.951  10.674 -0.1194  0.0539 -0.1507
 5457W        W 9521   5.490   9.082   2.038  0.1557 -0.1469 -0.1094
 5458W        W 9522   7.542  10.401  10.836 -0.3227 -0.0439 -0.2702
 5459W        W 9523   1.128   0.784   3.107  0.0935 -0.1001 -0.0424
 5460W        W 9524   0.498   3.528   1.374 -0.1800 -0.1162  0.3298
 5461W        W 9525   0.346   0.832   1.821 -0.0819  0.0015 -0.0597
 5462W        W 9526   9.340   4.047   2.619  0.1282  0.0392 -0.0856
 5463W        W 9527   2.337   5.633   3.176  0.2299  0.0392 -0.1389
 5464W        W 9528   6.983   7.525   1.061  0.1226 -0.0279  0.0809
 5465W        W 9529   2.444   2.067  10.444  0.2346  0.0325  0.3319
 5466W        W 9530   3.492   2.981   2.380  0.0294 -0.2271  0.0464
 5467W        W 9531   0.448  10.384  11.326  0.3948 -0.2216  0.0070
 5468W        W 9532   5.917   5.311   0.808 -0.2475  0.0942 -0.1011
 5469W        W 9533   6.091   9.879   9.636 -0.1704 -0.4216  0.0231
 5470W        W 9534   4.569   6.140   9.575  0.0347 -0.0242 -0.0864
 5471W        W 9535   8.941   9.667  10.619  0.0451  0.1149 -0.0696
 5472W        W 9536   3.113   2.499   2.943  0.0578  0.5343 -0.1699
 5473W        W 9537   5.216   5.666   9.077  0.1219  0.1788 -0.2240
 5474W        W 9538   2.398   9.840   3.178 -0.3697 -0.0701 -0.3800
 5475W        W 9539  10.134   4.247   8.404  0.3299 -0.0703 -0.0439
 5476W        W 9540   5.118   9.529   9.406  0.0505 -0.2083 -0.0348
 5477W        W 9541   7.703   4.781   3.621 -0.1875 -0.0271 -0.2486
 5478W        W 9542   7.557   7.821   9.163 -0.3797 -0.1138 -0.1563
 5479W        W 9543   7.459   6.930   8.489 -0.0212 -0.0378 -0.0603
 5480W        W 9544   0.471   3.229   3.363  0.1793 -0.1043  0.3171
 5481W        W 9545   9.833   0.684   9.505 -0.0087 -0.0489 -0.0495
 5482W        W 9546   4.050   9.736   2.095  0.1816 -0.1214 -0.0425
 5483W        W 9547   3.391   6.538   3.073  0.2468  0.1123  0.1155
 5484W        W 9548   2.049   3.869  10.592 -0.0121 -0.1225 -0.1212
 5485W        W 9549  10.533   3.326   8.315 -0.0576 -0.0889  0.2140
 5486W        W 9550   7.627   5.200   7.621  0.1790 -0.3391 -0.2580
 5487W        W 9551   9.178   4.094   8.215  0.1289 -0.1102  0.0592
 5488W        W 9552   4.071   5.334   2.733 -0.2082  0.0879  0.0574
 5489W        W 9553   3.474   1.323   1.738 -0.0435 -0.0317 -0.1484
 5490W        W 9554   4.937   4.317   2.104 -0.3665 -0.1569 -0.2896
 5491W        W 9555  10.057   8.837   1.559  0.1653 -0.1992 -0.1636
 5492W        W 9556   0.376   4.291  11.561 -0.0524  0.0048  0.0039
 5493W        W 9557   4.393   5.481   0.490 -0.1047  0.1621  0.1750
 5494W        W 9558  10.586   7.981   7.884 -0.2860  0.2939  0.2803
 5495W        W 9559   8.175   5.062   2.892  0.0313 -0.4346  0.0198
 5496W        W 9560   4.644   5.937  11.247  0.3440  0.3064 -0.0380
 5497W        W 9561   7.405   9.035   3.738 -0.1400  0.0894  0.1513
 5498W        W 9562   2.312   7.154   2.127  0.1856 -0.0302  0.3479
 5499W        W 9563   6.309   0.880  10.760  0.0947 -0.2209 -0.1912
 5500W        W 9564  10.466   2.312  10.698  0.2450 -0.1905  0.0374
 5501W        W 9565   9.573   1.241   0.716  0.0857 -0.0087  0.3113
 5502W        W 9566   1.722   3.869   0.561 -0.0833  0.2800  0.2356
 5503W        W 9567   2.861   4.676   2.028 -0.0296 -0.1990 -0.1894
 5504W        W 9568   1.624   6.856   0.589 -0.3040 -0.4701 -0.1509
 5505W        W 9569   4.563   9.416   3.244  0.1606  0.2076  0.4799
 5506W        W 9570   1.106   8.838   2.727  0.3421 -0.0807  0.0609
 5507W        W 9571   1.333   7.548   2.390 -0.1890 -0.3513 -0.1814
 5508W        W 9572   9.382   2.453   0.445 -0.4017  0.1957 -0.0203
 5509W        W 9573   8.907   3.129   9.130  0.3451 -0.2083  0.0264
 5510W        W 9574   0.559   7.131   7.949 -0.0011 -0.2860 -0.1737
 5511W        W 9575   6.408   5.743   3.028  0.0293 -0.0231 -0.1024
 5512W        W 9576   0.564   4.157   4.136  0.0393 -0.2496  0.2371
 5513W        W 9577  10.289   7.600   1.014 -0.3424 -0.0697 -0.0025
 5514W        W 9578   5.200   2.380   2.235 -0.1175  0.0400 -0.3067
 5515W        W 9579   4.215   1.768   3.548 -0.0735 -0.4308 -0.1531
 5516W        W 9580   7.041   8.517  11.495  0.0726 -0.1078 -0.0964
 5517W        W 9581   2.413   3.318  11.046  0.3211 -0.0656 -0.0681
 5518W        W 9582   5.485   1.178   1.535  0.0745 -0.1958  0.1622
 5519W        W 9583   5.293   4.758  10.687 -0.0667 -0.1849  0.1411
 5520W        W 9584   2.016  10.062   1.644 -0.1606  0.1065  0.0983
 5521W        W 9585   9.309   0.768   0.803  0.1462 -0.0127  0.0610
 5522W        W 9586   9.450   9.004   9.029 -0.0525  0.1737 -0.0304
 5523W        W 9587   6.840  10.595   1.317  0.1821 -0.3678 -0.0023
 5524W        W 9588   9.722   6.340   2.326 -0.2838 -0.2551  0.0309
 5525W        W 9589   6.223   3.411  10.781  0.0511 -0.1316 -0.1327
 5526W        W 9590   3.395   9.721  11.537  0.0547 -0.0741 -0.3007
 5527W        W 9591   4.156   1.072   0.596  0.0565  0.0389  0.0030
 5528W        W 9592   3.910   5.278   2.220  0.1745  0.1607 -0.0824
 5529W        W 9593   0.039   5.117   2.334 -0.0890 -0.4345  0.1307
 5530W        W 9594   9.077   6.848   9.637 -0.0512 -0.2214  0.0135
 5531W        W 9595   6.483   2.302   9.529  0.2858  0.2710  0.0831
 5532W        W 9596   9.279   8.065   8.701 -0.1618  0.0411  0.0233
 5533W        W 9597   6.926   1.203  11.424  0.0404  0.3070 -0.2337
 5534W        W 9598   4.449   4.654   0.797  0.1149 -0.2701  0.1028
 5535W        W 9599   8.444   2.082   1.873  0.1789  0.0830 -0.0212
 5536W        W 9600   7.484   3.996   9.046 -0.1340 -0.0904 -0.2301
 5537W        W 9601   9.575   3.120   1.696  0.2886 -0.2339 -0.0897
 5538W        W 9602   9.039   2.217   1.263  0.2000 -0.0584 -0.1765
 5539W        W 9603   0.851   1.397   9.239  0.1015  0.0781 -0.1170
 5540W        W 9604  10.364   3.989   1.775  0.2924  0.3140  0.0204
 5541W        W 9605   4.049   9.235   3.381 -0.1634 -0.1268 -0.3082
 5542W        W 9606   5.488   5.436   8.698 -0.0219  0.3168  0.1231
 5543W        W 9607   8.584   8.209   2.987 -0.0631  0.0609  0.4513
 5544W        W 9608  10.446   2.610   0.833  0.2673 -0.1175 -0.1270
 5545W        W 9609   6.702  10.145   2.650  0.0304  0.0288 -0.2086
 5546W        W 9610   0.537   9.467   0.743 -0.0833  0.0340 -0.1700
 5547W        W 9611   2.091   1.393   2.816  0.4252  0.0526 -0.3823
 5548W        W 9612   0.168   5.171  11.482  0.2468  0.0061 -0.0815
 5549W        W 9613   3.452   4.777  11.490  0.1596  0.1517 -0.2016
 5550W        W 9614   5.614   8.283   3.285 -0.2969 -0.0307 -0.0525
 5551W        W 9615  10.424   7.164   1.282  0.1507  0.0112  0.2142
 5552W        W 9616   1.241   7.249  11.270 -0.3115 -0.4072  0.0620
 5553W        W 9617   8.590   9.523  11.040 -0.2531 -0.1231 -0.1252
 5554W        W 9618   9.272   4.749  10.495  0.2862 -0.1960 -0.0261
 5555W        W 9619   3.805  10.546   1.753  0.0498 -0.2118 -0.1506
 5556W        W 9620   4.933   1.705  10.624  0.0215 -0.0634 -0.2798
 5557W        W 9621   0.634   9.678   8.989 -0.2463 -0.0530 -0.1605
 5558W        W 9622   5.416  10.310   1.492  0.0881 -0.0636  0.0911
 5559W        W 9623   0.857   3.725   1.694 -0.0728  0.2797  0.0227
 5560W        W 9624   9.904   4.340   1.350 -0.1115  0.1198 -0.1433
 5561W        W 9625   8.676   7.284   2.358 -0.0987  0.3252  0.0651
 5562W        W 9626   0.820   2.899   3.431 -0.3299 -0.0562  0.1207
 5563W        W 9627   8.915   3.904   8.574 -0.1301 -0.3395  0.2166
 5564W        W 9628   9.087   0.976   9.419 -0.2255 -0.1547 -0.1119
 5565W        W 9629  10.286   0.198  11.517 -0.1022 -0.4195 -0.0375
 5566W        W 9630   7.232  10.438  10.358  0.1079  0.0723 -0.3211
 5567W        W 9631   1.026   2.149   2.744 -0.2108 -0.0799  0.0588
 5568W        W 9632   3.032   7.287   1.447 -0.0979  0.3840  0.1405
 5569W        W 9633   4.631   9.018   0.116  0.2776 -0.2089 -0.1182
 5570W        W 9634   5.438   9.064   8.217  0.0541 -0.1124  0.0173
 5571W        W 9635   8.079   0.589   1.044  0.2227 -0.0329  0.0002
 5572W        W 9636   2.111   5.670   8.909 -0.2758 -0.0296 -0.2385
 5573W        W 9637   3.747   7.407  10.738 -0.5007 -0.3379 -0.0716
 5574W        W 9638   8.845   2.452   1.989  0.0583  0.0978  0.1541
 5575W        W 9639   5.372   1.987   2.594 -0.1627 -0.1437 -0.3284
 5576W        W 9640   7.642  10.337   3.041  0.0159 -0.1319 -0.1189
 5577W        W 9641   0.313   7.714   8.385 -0.2251  0.0898  0.0009
 5578W        W 9642   1.694   3.825   9.010  0.3417  0.0188 -0.1442
 5579W        W 9643   8.715   1.787   4.480  0.2751 -0.2193  0.0629
 5580W        W 9644   1.022   4.124   9.917 -0.0134 -0.1889  0.1429
 5581W        W 9645   0.617   7.957  10.840  0.0994 -0.1652  0.2191
 5582W        W 9646   0.168  10.436   0.527  0.1580 -0.2625  0.0982
 5583W        W 9647   0.309   8.848   2.107  0.2500  0.1521 -0.2321
 5584W        W 9648   2.869   4.274   0.357  0.4003 -0.0260 -0.1645
 5585W        W 9649   9.747   1.934  11.228 -0.1241  0.2321  0.2706
 5586W        W 9650   0.353   5.920   3.218 -0.0433 -0.0572  0.0908
 5587W        W 9651  10.197   9.724   0.979  0.3122  0.1922 -0.1832
 5588W        W 9652   5.152   6.783   2.873  0.1385  0.2639  0.0377
 5589W        W 9653   0.772   1.804  11.300  0.0729  0.0221 -0.2572
 5590W        W 9654   3.824   4.528   0.023 -0.0237  0.0259 -0.1176
 5591W        W 9655   5.447   2.885   9.214 -0.1137  0.1683  0.2289
 5592W        W 9656   8.248   3.563  10.248  0.2919 -0.1162  0.0152
 5593W        W 9657   4.547   3.179   0.867  0.2470  0.1978 -0.2492
 5594W        W 9658   2.637   2.522   9.384  0.1385  0.0265 -0.0432
 5595W        W 9659   3.426   0.272   3.384  0.0005  0.3197 -0.1157
 5596W        W 9660   6.996   0.769   0.052  0.2778  0.3196  0.0513
 5597W        W 9661   3.136   1.929   9.321 -0.0716 -0.2451  0.2078
 5598W        W 9662   1.751   1.557   1.189 -0.2953  0.2495 -0.0770
 5599W        W 9663   4.592   7.006   8.276 -0.0778  0.1409  0.1938
 5600W        W 9664   6.588   3.088   1.825 -0.2919  0.2472 -0.0996
 5601W        W 9665   8.206   8.983   1.808  0.1436  0.2178 -0.1942
 5602W        W 9666   4.745   6.501   9.232 -0.0240 -0.0941 -0.4874
 5603W        W 9667   6.684  10.345  10.450 -0.0006  0.1587 -0.4068
 5604W        W 9668   6.815   8.857   8.493 -0.0930  0.0207 -0.1385
 5605W        W 9669   1.271  10.438   2.409 -0.1087 -0.1086 -0.0459
 5606W        W 9670   6.329   5.002   3.636 -0.0854 -0.0989  0.1656
 5607W        W 9671   6.553   6.068  11.091  0.3245 -0.0291  0.1294
 5608W        W 9672   2.404   4.471   3.129  0.0140  0.1415 -0.0633
 5609W        W 9673   4.681   4.150   8.222 -0.1001  0.0176 -0.0359
 5610W        W 9674   5.117   4.671   3.423  0.0024 -0.0375  0.0267
 5611W        W 9675   1.098   4.671  10.085 -0.0383 -0.2535 -0.0931
 5612W        W 9676   7.752   0.374  11.539 -0.3242 -0.0125 -0.1058
 5613W        W 9677   6.738   9.318   0.783  0.1480  0.0436  0.1182
 5614W        W 9678   7.529   1.131   8.890 -0.3727  0.0693  0.0623
 5615W        W 9679   9.989   3.176   2.214 -0.0877 -0.4579 -0.0538
 5616W        W 9680   1.410   1.490   3.452  0.3310  0.1914  0.0086
 5617W        W 9681  10.057   9.806   9.588 -0.1038  0.0617 -0.0114
 5618W        W 9682   8.192   3.063   8.392 -0.0545 -0.1682  0.1370
 5619W        W 9683   9.179   9.652   2.479  0.1616 -0.1121 -0.0972
 5620W        W 9684   8.593   6.855   0.718 -0.1306  0.0360  0.0789
 5621W        W 9685   3.860   8.672   9.093  0.4845  0.2088 -0.0001
 5622W        W 9686   4.000  10.464   1.035  0.0581  0.0459  0.3360
 5623W        W 9687   5.113  10.486   2.418  0.0610  0.1494 -0.0543
 5624W        W 9688   6.997   7.414   2.352  0.2813 -0.1111  0.1202
 5625W        W 9689   9.716   8.255   8.334 -0.0812 -0.2215  0.0228
 5626W        W 9690   3.497   7.580   1.594  0.0102  0.2001  0.1153
 5627W        W 9691   5.799   7.391   1.873 -0.1328  0.0913 -0.0632
 5628W        W 9692   2.991   9.079   1.079 -0.0649  0.2450 -0.0191
 5629W        W 9693   4.541   4.946   2.616  0.0077  0.1278  0.3814
 5630W        W 9694   2.049   3.141   1.061 -0.1725  0.3543 -0.2390
 5631W        W 9695   7.767   3.362  10.400  0.3300  0.2086 -0.1518
 5632W        W 9696   0.707   9.368   0.049 -0.2626 -0.0970 -0.0301
 5633W        W 9697   0.898   4.617  10.839 -0.0451 -0.1394 -0.0883
 5634W        W 9698   3.183   7.303  10.969  0.2355  0.0067  0.1818
 5635W        W 9699   8.141   9.352  10.312 -0.3188  0.0646  0.1372
 5636W        W 9700   1.323   1.870  11.190  0.0552  0.0052 -0.0715
 5637W        W 9701  10.608   3.636  11.241 -0.0894  0.0762  0.4391
 5638W        W 9702   7.453   0.985   1.762  0.0348  0.1905 -0.2843
 5639W        W 9703   8.423   4.964   0.238  0.0867 -0.0337  0.1316
 5640W        W 9704   3.282   8.258   2.781 -0.5673 -0.0527 -0.1617
 5641W        W 9705   8.957   4.801   9.576  0.2344 -0.3185 -0.0570
 5642W        W 9706   7.524   0.545   8.795  0.1007  0.2697 -0.2719
 5643W        W 9707   3.163   9.380   0.685 -0.2788 -0.0157 -0.2822
 5644W        W 9708   2.317   8.379   8.844 -0.0469  0.2329  0.2180
 5645W        W 9709   8.660   1.699   2.132  0.1392 -0.1109  0.2886
 5646W        W 9710   2.180   8.677   9.945 -0.0077 -0.0671 -0.0020
 5647W        W 9711   0.779   1.310   1.396  0.1530  0.1281  0.1708
 5648W        W 9712   7.063   7.744   2.746  0.0308  0.0776 -0.0243
 5649W        W 9713   6.223   2.886  10.783  0.2579 -0.2800 -0.0171
 5650W        W 9714   9.437   3.880   9.106 -0.3218 -0.2113  0.0635
 5651W        W 9715   3.630   6.746  10.197  0.0126 -0.0805  0.1281
 5652W        W 9716   6.157   6.327   9.763 -0.1349  0.1167 -0.2082
 5653W        W 9717   5.514   6.924   9.022 -0.1511  0.1730  0.1234
 5654W        W 9718   3.535   4.121   2.458 -0.1458 -0.1696  0.0951
 5655W        W 9719   3.877   6.292   2.271 -0.1024 -0.0300 -0.2433
 5656W        W 9720   2.088   6.052   2.894  0.0814 -0.4172  0.2580
 5657W        W 9721  10.355  10.056   1.404  0.1267 -0.1354 -0.1904
 5658W        W 9722   3.497   2.728   9.072  0.0634 -0.0937 -0.2687
 5659W        W 9723   2.064   0.633   2.399 -0.1810  0.3366 -0.2091
 5660W        W 9724   9.614   9.917   9.239 -0.2176  0.0997  0.0510
 5661W        W 9725   8.114   5.387   7.610  0.0808  0.5019  0.3559
 5662W        W 9726  10.475   0.279   0.388  0.2551  0.0479 -0.3046
 5663W        W 9727   6.005   1.507   1.812  0.2479 -0.0081  0.0164
 5664W        W 9728   2.348   8.989   1.869  0.0838 -0.2373 -0.0493
 5665W        W 9729   8.955   0.429   0.512 -0.3403 -0.1896 -0.2981
 5666W        W 9730   8.595   4.309   4.484  0.1133  0.0768  0.0298
 5667W        W 9731   5.687   1.179  10.518 -0.1424  0.0746 -0.0643
 5668W        W 9732   0.517   2.895  11.613 -0.2136 -0.0132 -0.0576
 5669W        W 9733   4.432   6.204   3.231 -0.1517 -0.1240  0.0652
 5670W        W 9734   4.511   9.971   8.811 -0.2107 -0.0728 -0.0863
 5671W        W 9735   5.768   9.695   8.566  0.0738 -0.1253 -0.1894
 5672W        W 9736   9.050   0.955   0.017  0.0980 -0.0162 -0.0329
 5673W        W 9737   5.369   3.848   0.703 -0.4794  0.3175  0.1025
 5674W        W 9738   8.666   7.966   0.230 -0.0591 -0.2402  0.4310
 5675W        W 9739   4.450  10.584   3.125 -0.0197 -0.0175  0.0467
 5676W        W 9740  10.200   3.607   8.094  0.1665  0.2270 -0.0987
 5677W        W 9741   6.510   6.661   9.887 -0.0294  0.3060 -0.2054
 5678W        W 9742   9.469   5.852   2.340  0.0606 -0.1828  0.4471
 5679W        W 9743   5.781  10.403   1.149  0.0537 -0.1952  0.1840
 5680W        W 9744  10.327   7.720  10.616  0.2827 -0.0204 -0.0794
 5681W        W 9745   9.630  10.018   0.046 -0.0364  0.1172 -0.1439
 5682W        W 9746   0.074   6.758   9.786  0.0962  0.2228 -0.1537
 5683W        W 9747   7.171  10.582   2.176 -0.1158  0.1114 -0.5206
 5684W        W 9748   8.552   9.103   0.131  0.0277  0.2246 -0.0202
 5685W        W 9749   6.189   6.202  10.810 -0.3998 -0.1250  0.2323
 5686W        W 9750   3.931   5.929   9.999 -0.2598  0.1312 -0.0768
 5687W        W 9751   8.464   7.670  11.520 -0.0397 -0.3028  0.2037
 5688W        W 9752   4.666   5.585   8.355  0.2281 -0.2108 -0.2244
 5689W        W 9753   9.509   3.944  10.788 -0.3219 -0.3299  0.0557
 5690W        W 9754   7.900   6.876   8.184  0.1210 -0.0038 -0.0455
 5691W        W 9755   4.092   8.759   1.643  0.2379 -0.0437 -0.0582
 5692W        W 9756   8.623   5.405   1.462  0.0356 -0.0644  0.2582
 5693W        W 9757   1.951   5.374   4.050 -0.2579  0.0857  0.1139
 5694W        W 9758   0.764   3.972  11.625 -0.0271 -0.0260  0.1424
 5695W        W 9759   0.487   0.327   9.935 -0.0996  0.3565  0.0801
 5696W        W 9760   2.181   1.213   9.907  0.3794 -0.1586 -0.0563
 5697W        W 9761   6.980   5.377  10.684  0.0409 -0.3383  0.0683
 5698W        W 9762   0.175   5.834  10.691  0.2518  0.1715  0.0119
 5699W        W 9763   5.198   5.756  11.351  0.1263  0.0041  0.4751
 5700W        W 9764   6.820   8.171   2.813  0.2024 -0.3515 -0.1009
 5701W        W 9765   5.111   7.363   1.785  0.0875 -0.0014 -0.1058
 5702W        W 9766   1.385   2.322   3.199  0.2175 -0.0082  0.2284
 5703W        W 9767   3.041   5.723   9.723  0.2593 -0.1730  0.0812
 5704W        W 9768   6.991   0.258  11.026 -0.2135  0.0352 -0.1268
 5705W        W 9769   8.866   8.529   8.114  0.0400 -0.2495  0.0959
 5706W        W 9770   8.417   8.142   2.343 -0.0930  0.1829  0.2092
 5707W        W 9771   2.292   3.345   2.473 -0.0008 -0.4441 -0.1274
 5708W        W 9772   3.729   5.802  10.814  0.1195  0.1493  0.0819
 5709W        W 9773   7.907   9.490   2.958  0.1710  0.0660  0.0815
 5710W        W 9774   2.247   0.873  10.342  0.2647 -0.2008  0.1453
 5711W        W 9775   5.333   2.506   0.771 -0.2071 -0.1226  0.1820
 5712W        W 9776   1.562   0.436   1.653  0.0873  0.1762  0.0336
 5713W        W 9777   1.490   3.566   2.766  0.0778  0.0525  0.0569
 5714W        W 9778   8.945   9.978   8.412  0.0313  0.4167  0.1218
 5715W        W 9779   4.245   8.956   1.198 -0.1917 -0.0027  0.1963
 5716W        W 9780   1.038   0.232  10.690  0.1437  0.1664  0.1893
 5717W        W 9781   0.296   0.016   9.055 -0.0896 -0.2333  0.1526
 5718W        W 9782   9.769   2.436   7.856 -0.2448 -0.2018 -0.2299
 5719W        W 9783   9.377   5.538   2.733  0.0268 -0.0952 -0.1942
 5720W        W 9784   3.722   7.649   8.052 -0.1648  0.2270 -0.1024
 5721W        W 9785   9.355   1.848   1.437 -0.1963 -0.2594  0.0832
 5722W        W 9786   1.357   8.147   2.747  0.4137 -0.0266  0.2668
 5723W        W 9787   8.924   5.279   8.606  0.0523  0.0168 -0.0290
 5724W        W 9788   1.198  10.521   8.472  0.2947  0.0709 -0.0479
 5725W        W 9789   3.746   0.759   9.106  0.1659 -0.1552  0.0469
 5726W        W 9790   6.903   5.494   8.079 -0.1025  0.1400 -0.1743
 5727W        W 9791   8.063   2.426   3.244  0.0940 -0.0869 -0.2211
 5728W        W 9792   8.112   8.936   9.839  0.0198 -0.4791  0.1994
 5729W        W 9793   6.721   3.691   3.030  0.0247 -0.0838  0.0306
 5730W        W 9794   9.890   4.889   2.934 -0.5274 -0.1377  0.1105
 5731W        W 9795   4.291   1.403  11.439  0.1232 -0.0166  0.1647
 5732W        W 9796   8.067   0.930   9.009  0.2536 -0.0789 -0.0309
 5733W        W 9797   7.799   2.237   0.961  0.1035 -0.2118 -0.0130
 5734W        W 9798   7.426   9.302   2.047 -0.2851  0.1055  0.2603
 5735W        W 9799   3.875   8.489  11.560 -0.1020 -0.1891  0.0416
 5736W        W 9800   5.653   4.805   1.559 -0.1669 -0.2648 -0.1633
 5737W        W 9801   7.257   5.303  11.130 -0.2369  0.0383  0.1353
 5738W        W 9802   1.598   5.818   2.454  0.1580 -0.0117 -0.1480
 5739W        W 9803  10.539   9.050   9.454 -0.0964 -0.1701  0.1278
 5740W        W 9804   3.302   0.795  10.691  0.0790  0.1414 -0.2141
 5741W        W 9805   7.927   7.153   8.680  0.4016 -0.0356  0.1254
 5742W        W 9806   9.838   2.583   3.490  0.1958  0.0964 -0.2387
 5743W        W 9807   7.007   6.156   3.911  0.1387 -0.0942 -0.2112
 5744W        W 9808   9.536   1.536   7.516  0.1291 -0.1900 -0.0769
 5745W        W 9809   2.264   0.598  11.397 -0.1968 -0.2555 -0.2014
 5746W        W 9810   8.196   9.328   2.587  0.0918 -0.1006  0.0899
 5747W        W 9811   0.182   6.665   0.112  0.0117  0.0778 -0.1254
 5748W        W 9812   7.677   7.290   0.471 -0.0296 -0.1659 -0.2490
 5749W        W 9813   3.740   6.767   4.266 -0.2076 -0.5716 -0.2734
 5750W        W 9814   1.653   6.690   1.749  0.0266  0.1520 -0.2379
 5751W        W 9815   1.011   8.010   3.205  0.0552 -0.0961  0.2780
 5752W        W 9816  10.387   5.912   9.703  0.0506  0.2235 -0.3841
 5753W        W 9817   2.070   6.178   0.190 -0.1521  0.0800 -0.1603
 5754W        W 9818   3.140   4.999   1.052  0.2447 -0.3721  0.0961
 5755W        W 9819   7.478   3.344   8.341  0.3139 -0.0600  0.1655
 5756W        W 9820   5.136   9.572   8.538 -0.1857  0.2153  0.0093
 5757W        W 9821  10.589   5.083  10.686  0.1667  0.2280  0.2388
 5758W        W 9822   7.863   9.606  10.720 -0.1827 -0.2553 -0.1379
 5759W        W 9823   1.459   7.719  10.334 -0.3053 -0.3802  0.1914
 5760W        W 9824   4.662   7.718   1.939  0.1809  0.0576 -0.1065
 5761W        W 9825   2.629   2.584   2.891 -0.0528 -0.0434 -0.3014
 5762W        W 9826   1.298  10.049   9.168  0.0758  0.2560 -0.0502
 5763W        W 9827   7.869   2.403   0.494 -0.2403 -0.1163  0.0806
 5764W        W 9828   3.068   4.453   9.702 -0.3706  0.0848 -0.1762
 5765W        W 9829  10.397   4.026   8.919  0.0575 -0.3801 -0.2538
 5766W        W 9830   3.428   4.709   3.149 -0.1742  0.1988  0.0638
 5767W        W 9831   4.612   5.509   1.813 -0.0576 -0.0853  0.0224
 5768W        W 9832   2.250   7.664   0.457 -0.1707  0.0699 -0.2772
 5769W        W 9833   0.269   2.755   8.917  0.1685  0.1776  0.0257
 5770W        W 9834   1.676   3.249   9.063 -0.2328 -0.0237  0.1700
 5771W        W 9835   0.906   0.731  10.565 -0.3744  0.1431  0.1666
 5772W        W 9836   7.120  10.237   0.576  0.0757  0.0923  0.1836
 5773W        W 9837   2.574   1.688  11.566  0.0350 -0.2101 -0.0695
 5774W        W 9838   1.287   8.082  10.042 -0.0875 -0.2484  0.2084
 5775W        W 9839   9.913   5.604   0.809 -0.1140 -0.1144  0.1755
 5776W        W 9840   1.408   7.690   2.980  0.1515  0.1105 -0.0512
 5777W        W 9841   7.200   2.366  11.569  0.2925  0.0175  0.1464
 5778W        W 9842   2.905   0.367   2.316 -0.0999  0.3278  0.1196
 5779W        W 9843   1.969   7.109  10.914  0.0988 -0.3260  0.0497
 5780W        W 9844   7.321   0.916   9.300  0.1289 -0.0533 -0.1756
 5781W        W 9845   4.120   1.059  10.394  0.1135 -0.2660 -0.0237
 5782W        W 9846   8.142   8.263   1.313 -0.0237 -0.2180 -0.3697
 5783W        W 9847   1.717   7.193  11.359 -0.0249  0.0852 -0.1910
 5784W        W 9848   9.040   5.734  10.061 -0.2764  0.0694 -0.2171
 5785W        W 9849   7.337  10.543   1.515  0.1005 -0.1818 -0.1032
 5786W        W 9850   7.290   4.350  10.460  0.0402  0.0604  0.1818
 5787W        W 9851   8.435   1.821   1.458  0.1328 -0.2265 -0.0426
 5788W        W 9852   2.698   9.932   3.547  0.0741 -0.0275  0.2818
 5789W        W 9853   1.088   1.634   0.492 -0.1118  0.1403 -0.0177
 5790W        W 9854   6.276   8.833   8.421  0.0096  0.2197  0.2364
 5791W        W 9855   0.020   4.647  11.419 -0.2609 -0.0085  0.1342
 5792W        W 9856   3.180   7.262   9.064  0.3834  0.0978  0.1198
 5793W        W 9857   4.521   5.580   3.259  0.2328  0.1249  0.1012
 5794W        W 9858   8.000   3.388   9.453  0.0823  0.2638 -0.0925
 5795W        W 9859   7.069   3.013   1.484  0.1437 -0.1988  0.1063
 5796W        W 9860   2.483   2.816   1.682  0.1035  0.0940  0.0479
 5797W        W 9861   1.311   8.125   1.755 -0.5028 -0.0025 -0.2110
 5798W        W 9862   7.230   8.724   9.971 -0.1605  0.0412 -0.0307
 5799W        W 9863   7.576   0.842   2.271 -0.0658 -0.1558 -0.0779
 5800W        W 9864   3.852   3.347   2.258  0.1920  0.1724 -0.2138
 5801W        W 9865  10.404   9.272   2.757 -0.3360 -0.0515  0.0921
 5802W        W 9866   8.848   3.888   2.527 -0.2241  0.1089  0.4631
 5803W        W 9867   1.207   0.839   0.827 -0.1534  0.1865  0.2885
 5804W        W 9868   2.607   1.884   4.374 -0.2004 -0.2003  0.1961
 5805W        W 9869   3.681   4.762   1.553 -0.2100 -0.2268 -0.0769
 5806W        W 9870   1.032   8.522  11.417  0.1212 -0.3321 -0.1388
 5807W        W 9871   6.400   3.280   0.991 -0.4227  0.0911  0.2050
 5808W        W 9872   3.255   9.170   1.506 -0.0849  0.1911  0.0261
 5809W        W 9873  10.335   2.443   7.838 -0.0211  0.0876 -0.2147
 5810W        W 9874   9.473   9.971   2.238  0.0675  0.0597 -0.1768
 5811W        W 9875   6.063   3.436   3.822  0.0720  0.0524 -0.2321
 5812W        W 9876   3.129   8.259  10.750  0.0410 -0.0851 -0.2395
 5813W        W 9877  10.228   2.767   0.374  0.2015 -0.1550  0.1285
 5814W        W 9878   8.190   9.492   3.504 -0.1324 -0.2697  0.0755
 5815W        W 9879   4.306  10.209   9.692 -0.0413 -0.0052 -0.1222
 5816W        W 9880   5.946   4.913   4.423  0.1567 -0.1771 -0.0734
 5817W        W 9881   8.840   3.171   2.608  0.0822  0.1809 -0.0359
 5818W        W 9882   7.315   9.216   0.788 -0.0688 -0.0843 -0.1468
 5819W        W 9883   1.180   6.290   8.152 -0.0524 -0.0549 -0.1075
 5820W        W 9884   1.744   0.169   0.947  0.2075  0.0420 -0.0554
 5821W        W 9885   1.154   1.270   1.044 -0.0302  0.0757  0.0776
 5822W        W 9886   1.827   9.703   2.423  0.1033 -0.2594  0.0214
 5823W        W 9887   5.735   7.932   9.671  0.0278 -0.1299  0.1065
 5824W        W 9888   9.246   1.527   1.055 -0.1428  0.1477 -0.0742
 5825W        W 9889   5.134  10.397   1.919 -0.1165  0.3845 -0.0390
 5826W        W 9890   7.856   6.919   0.173  0.0720  0.1571 -0.0427
 5827W        W 9891   3.015   8.835   9.897  0.1780 -0.0561  0.1990
 5828W        W 9892   9.670   0.353  10.365 -0.4794 -0.0634  0.0934
 5829W        W 9893   8.899   7.236  11.491 -0.3844  0.0427  0.0385
 5830W        W 9894   8.327   6.146   2.060  0.1354  0.0538  0.0282
 5831W        W 9895   2.595   6.728  10.386  0.1164  0.0262 -0.1448
 5832W        W 9896   0.233   8.430   4.069  0.4171  0.0840  0.0334
 5833W        W 9897   4.560   5.209   0.109 -0.0898  0.1255 -0.1966
 5834W        W 9898   3.221   9.954   0.794 -0.1233  0.1612  0.0796
 5835W        W 9899   4.751   6.387  11.054 -0.0704  0.1578 -0.0327
 5836W        W 9900   8.836   8.420   0.741 -0.0187 -0.3563 -0.0151
 5837W        W 9901   0.693   8.449   9.522  0.1426  0.0060 -0.1622
 5838W        W 9902   0.050   5.616   1.775  0.1644 -0.5188  0.1852
 5839W        W 9903   9.714   0.381   0.977 -0.1718  0.2296 -0.1233
 5840W        W 9904   7.577   3.481   1.843 -0.0103  0.2784 -0.2494
 5841W        W 9905   5.959   5.858   1.511 -0.0693  0.1913 -0.0443
 5842W        W 9906   6.766   2.496   3.011  0.1495  0.2243  0.4088
 5843W        W 9907   8.267   1.228   8.645  0.0581  0.2096  0.3784
 5844W        W 9908   0.788   6.878   2.489 -0.2752  0.1589  0.1455
 5845W        W 9909   4.343   8.723   8.769 -0.2925 -0.2651 -0.0026
 5846W        W 9910   7.708   2.366  11.340  0.2334 -0.0424  0.2590
 5847W        W 9911   4.875   1.973   2.491 -0.1880 -0.4146  0.1720
 5848W        W 9912   6.920   8.447   8.887 -0.0262 -0.1042  0.2224
 5849W        W 9913   2.989   3.778   3.193 -0.2041  0.0933  0.0576
 5850W        W 9914   5.112   6.067  10.974 -0.1254 -0.1024 -0.4217
 5851W        W 9915   9.900   7.883  10.422  0.1527  0.2143 -0.0185
 5852W        W 9916   6.128   6.008   2.741  0.1704  0.3694 -0.3001
 5853W        W 9917   8.275   2.531   1.922 -0.1389  0.1057 -0.1629
 5854W        W 9918   4.645   3.838   3.917 -0.1495  0.1086  0.0154
 5855W        W 9919   3.785   4.830   4.229  0.0356  0.1407 -0.0233
 5856W        W 9920   9.017   0.592   1.213  0.2081 -0.1524 -0.0255
 5857W        W 9921   4.844   9.995   8.479 -0.1096  0.3472  0.3449
 5858W        W 9922   3.445   3.730  10.300  0.0965 -0.2522  0.0063
 5859W        W 9923   3.164   3.310   9.482  0.2134  0.2101 -0.2603
 5860W        W 9924   2.434   5.183   2.287  0.1425  0.4014  0.1228
 5861W        W 9925   5.323   5.964  10.109  0.0238  0.0208 -0.0253
 5862W        W 9926   5.673   3.210   1.382 -0.2705  0.1958  0.0787
 5863W        W 9927   3.393   5.369   2.402 -0.1812  0.0820  0.3542
 5864W        W 9928   7.005   1.794   2.181 -0.0504  0.2122 -0.0866
 5865W        W 9929   9.562   1.449  11.106 -0.1552 -0.0099 -0.0672
 5866W        W 9930   7.242   8.391  10.934 -0.1256 -0.1809 -0.1794
 5867W        W 9931   7.562   5.048   2.173 -0.1894 -0.1294 -0.2307
 5868W        W 9932   4.789   1.004  11.552 -0.1361  0.1092 -0.4467
 5869W        W 9933   0.957   7.247   8.512  0.0897  0.0716 -0.2698
 5870W        W 9934   1.349   7.811   3.965  0.2300 -0.2805  0.0069
 5871W        W 9935   4.470   8.824   2.611  0.0885 -0.2878 -0.2472
 5872W        W 9936   7.199   0.033   7.684 -0.0534 -0.1891 -0.0028
 5873W        W 9937   6.248   4.437   3.518  0.1342 -0.1351  0.1601
 5874W        W 9938   6.347   5.666   8.621  0.0122 -0.0350  0.0088
 5875W        W 9939   1.878   7.632   8.934  0.3878  0.2822  0.0414
 5876W        W 9940   7.929   4.834   8.247 -0.1295  0.1301 -0.0811
 5877W        W 9941   0.199   2.367   1.146  0.1145 -0.0241 -0.3338
 5878W        W 9942   5.955   2.187   1.445  0.3513 -0.1774  0.2100
 5879W        W 9943   2.387   1.701  10.758 -0.1437  0.0366  0.3046
 5880W        W 9944   6.472   4.042   2.110  0.0167  0.1325  0.1365
 5881W        W 9945   6.738   1.527   0.452  0.1821  0.1436 -0.0150
 5882W        W 9946   6.403   0.173   3.229 -0.1289  0.1348  0.1429
 5883W        W 9947   6.526  10.100  10.924 -0.2214  0.1988 -0.6393
 5884W        W 9948   2.607   2.473   8.061  0.2303 -0.0637 -0.0342
 5885W        W 9949   6.240   0.060   0.286 -0.3060 -0.0578 -0.2310
 5886W        W 9950   9.107   3.206   8.635  0.2024 -0.0763 -0.0215
 5887W        W 9951   2.291   9.213   3.290  0.1211 -0.2880 -0.0911
 5888W        W 9952   8.671   0.561   4.036  0.1738  0.0514 -0.1550
 5889W        W 9953   4.494   0.904   8.935 -0.2212 -0.1297  0.1418
 5890W        W 9954   4.799   4.343   9.630  0.2055  0.0815 -0.1276
 5891W        W 9955   6.620   2.069   1.967  0.0224  0.1183  0.2709
 5892W        W 9956   1.976   3.362   1.609  0.4765  0.2045 -0.0499
 5893W        W 9957   8.401   3.126   1.395  0.0005  0.1104  0.1005
 5894W        W 9958   0.232   3.761   0.014 -0.1021 -0.0022 -0.1121
 5895W        W 9959   7.575   5.566  11.408  0.0471 -0.2806 -0.0687
 5896W        W 9960   9.959   7.357   8.507 -0.0172 -0.4290  0.2315
 5897W        W 9961   3.794   2.229   2.738  0.0074 -0.1065  0.3172
 5898W        W 9962   9.797   7.053   0.432 -0.2293 -0.3099 -0.1577
 5899W        W 9963   3.026   4.043  10.068  0.1685  0.2762  0.0283
 5900W        W 9964   7.689   1.393   3.227  0.1590 -0.3867  0.0182
 5901W        W 9965   3.825   9.571   1.662 -0.0965 -0.1518  0.0875
 5902W        W 9966   5.698   4.255   0.522  0.1068  0.2272 -0.0524
 5903W        W 9967   4.587   2.977   9.142  0.0593 -0.2930  0.1217
 5904W        W 9968   3.751   1.520   9.745  0.1516  0.1046 -0.1459
 5905W        W 9969   0.187   4.578   9.964  0.1063  0.0183 -0.1726
 5906W        W 9970   9.931   5.658   0.173  0.2127 -0.0065  0.2195
 5907W        W 9971   0.421   1.134   9.185 -0.1322 -0.2994  0.2278
 5908W        W 9972   1.908   8.130  11.002 -0.2750  0.0098  0.1437
 5909W        W 9973   6.756   8.301   3.940  0.1120 -0.2025 -0.1870
 5910W        W 9974   1.061   9.814   3.128  0.1541  0.1525  0.0403
 5911W        W 9975   2.806   9.021  11.286 -0.1144 -0.1992  0.1524
 5912W        W 9976   0.506   4.066   3.090  0.2114  0.0128 -0.1183
 5913W        W 9977   5.598   6.129   1.377  0.1260  0.1528  0.1219
 5914W        W 9978   4.105   1.548  10.135  0.1574  0.3114 -0.0875
 5915W        W 9979   7.420   5.426   8.039 -0.0645 -0.0898  0.0743
 5916W        W 9980   0.409   3.624   8.382  0.0171 -0.3109  0.3789
 5917W        W 9981   7.144   6.998   7.720 -0.0307  0.1454 -0.1081
 5918W        W 9982   6.460   3.698   0.071 -0.0832 -0.5281 -0.2715
 5919W        W 9983   7.208   4.966   3.345 -0.1435 -0.1933  0.4847
 5920W        W 9984   2.820   5.217   1.360 -0.2082 -0.1023  0.2470
 5921W        W 9985   6.699   4.224   1.608 -0.1050 -0.1281  0.0825
 5922W        W 9986   7.186   1.608   2.600 -0.1108  0.0188 -0.0035
 5923W        W 9987   5.222   7.288   8.842 -0.1249 -0.2836 -0.1860
 5924W        W 9988   5.877   6.807   1.097 -0.0876 -0.1468 -0.0355
 5925W        W 9989   3.430   6.413  11.594 -0.1310  0.1273 -0.0967
 5926W        W 9990   8.730   7.905   3.892 -0.2116 -0.0344 -0.2562
 5927W        W 9991   6.457   5.314  10.800  0.0517 -0.3671  0.0479
 5928W        W 9992   9.574   2.792   9.923 -0.3164 -0.1513 -0.0827
 5929W        W 9993   6.827   8.837   0.818  0.0668  0.0103  0.2211
 5930W        W 9994   8.157   4.991   1.443  0.0249  0.1365 -0.0009
 5931W        W 9995   3.915   3.492   8.958 -0.2327 -0.1368  0.2205
 5932W        W 9996   0.368   5.374  11.063  0.1105  0.1565 -0.2403
 5933W        W 9997   0.947   0.892   0.121  0.0382 -0.1078  0.1395
 5934W        W 9998   6.152   8.780   0.124 -0.1015 -0.3813 -0.0783
 5935W        W 9999   0.912   5.786   0.797 -0.2063  0.1788  0.2312
 5936W        W10000   5.047   5.495   3.103  0.2045 -0.3284  0.0222
 5937W        W10001   1.793   2.080   2.089  0.3113  0.1541  0.0056
 5938W        W10002  10.298   9.632  10.000 -0.0989  0.3338 -0.0809
 5939W        W10003   3.542   0.015   1.276 -0.0619 -0.0733 -0.1042
 5940W        W10004   5.275   4.731   1.971 -0.0882 -0.0551  0.2100
 5941W        W10005   7.437   5.970   0.014 -0.0683 -0.2878  0.2025
 5942W        W10006   6.809   1.421  10.186 -0.2324 -0.1799 -0.4469
 5943W        W10007   9.933   6.585   0.865 -0.0847  0.2561 -0.3393
 5944W        W10008   4.997   8.594   1.416  0.0562 -0.2261  0.3094
 5945W        W10009   9.887   3.635   8.521 -0.2180  0.0854 -0.0100
 5946W        W10010   3.965   1.126   9.862 -0.2992  0.2013  0.0998
 5947W        W10011   8.589   6.285   7.853 -0.2097 -0.0820 -0.1188
 5948W        W10012   6.008   5.951   0.167  0.3091 -0.1402 -0.1883
 5949W        W10013   3.995  10.550   2.223  0.1897 -0.0268  0.5244
 5950W        W10014   6.427   4.756  11.098 -0.0264  0.2060  0.1414
 5951W        W10015   7.092   8.462   9.542  0.3776 -0.0427 -0.1629
 5952W        W10016   7.681   9.265   0.369 -0.4095  0.1385  0.3873
 5953W        W10017   0.239   5.729   0.907  0.1965 -0.0329  0.0461
 5954W        W10018   5.503   6.230   7.911 -0.3403 -0.0273  0.1186
 5955W        W10019   5.876   0.146   2.244 -0.0461  0.1654  0.1643
 5956W        W10020   9.566   2.360   0.986  0.1298 -0.1378  0.0485
 5957W        W10021   4.851   2.910  10.980 -0.1827 -0.1500  0.0625
 5958W        W10022   4.360   0.335   2.269  0.0602  0.4458  0.0253
 5959W        W10023   1.301   8.863  11.612 -0.0931  0.2269 -0.3863
 5960W        W10024   9.654   5.978   2.888  0.1351  0.1347  0.2486
 5961W        W10025   8.079   8.404   2.080 -0.1069  0.0413  0.1072
 5962W        W10026   1.831   6.808   2.244  0.0778  0.2304 -0.1837
 5963W        W10027   0.028   3.232   3.663  0.0533 -0.1685  0.1489
 5964W        W10028   9.309   9.498   1.981 -0.0711 -0.2522 -0.0563
 5965W        W10029   5.440   3.598   1.155  0.3637  0.2583  0.3924
 5966W        W10030   1.694   8.983   8.155  0.1454  0.2098  0.3136
 5967W        W10031  10.495   0.457   9.960  0.2651 -0.0227 -0.1087
 5968W        W10032   7.770   0.674   8.032  0.2687 -0.0967 -0.0940
 5969W        W10033   5.449   4.728   8.193  0.2271  0.0880  0.1037
 5970W        W10034   5.418   0.618   1.790 -0.2964 -0.0755 -0.0504
 5971W        W10035  10.329   2.832  11.059  0.1938  0.0292 -0.0180
 5972W        W10036   1.971   7.206   7.638  0.2461  0.4498 -0.0023
 5973W        W10037   7.619   8.301   0.060  0.2039  0.1054  0.0936
 5974W        W10038   4.154   7.879   8.852 -0.2582 -0.0770 -0.1506
 5975W        W10039   9.829   4.815  11.233  0.0753 -0.1077  0.3069
 5976W        W10040   3.391   1.803   8.495 -0.0574 -0.1585  0.0812
 5977W        W10041   3.498  10.547   2.242 -0.0784 -0.1968 -0.0514
 5978W        W10042   7.429   6.004   1.170 -0.0080 -0.0622 -0.2803
 5979W        W10043   7.326   6.549   3.199  0.1397  0.1312  0.2367
 5980W        W10044   1.130   1.200   3.899  0.4791  0.1036  0.0675
 5981W        W10045   2.166   9.058   9.580 -0.3562 -0.0069  0.1168
 5982W        W10046   8.354   4.651   0.721  0.2487 -0.2552 -0.2431
 5983W        W10047   1.752   3.940  10.144 -0.1235 -0.3699 -0.1828
 5984W        W10048   6.963   4.694   8.599 -0.0362 -0.2916 -0.3924
 5985W        W10049   5.733   5.574  11.352 -0.1488 -0.1300 -0.0327
 5986W        W10050   0.497   0.688   8.245 -0.0809 -0.3041  0.2773
 5987W        W10051   5.484   4.875   7.617 -0.1447  0.0769 -0.0183
 5988W        W10052   9.130   6.314   8.669  0.0549  0.1604 -0.1471
 5989W        W10053   3.300   7.838  10.015  0.1091  0.4160 -0.1437
 5990W        W10054   7.477   0.333   2.381  0.1193  0.0124  0.0283
 5991W        W10055   4.282   4.146   3.638 -0.2156 -0.2029 -0.0432
 5992W        W10056   8.818   2.165  10.187  0.0324  0.2968  0.0121
 5993W        W10057   6.052   6.621   8.545  0.0659 -0.0018 -0.1660
 5994W        W10058   9.493   8.633   7.914  0.0381  0.0142 -0.2973
 5995W        W10059   4.884   8.603   0.845  0.1027 -0.0603 -0.1246
 5996W        W10060   6.106   0.687   8.506 -0.1335  0.0139 -0.1722
 5997W        W10061   8.612   0.092  11.306 -0.3521 -0.2610 -0.1901
 5998W        W10062   0.170   7.477   0.268  0.0402  0.2081 -0.0479
 5999W        W10063   1.253   9.650   1.646  0.0286  0.0536  0.2463
 6000W        W10064   9.197  10.000   1.876 -0.2643  0.0271  0.0811
 6001W        W10065   2.522   7.884   0.019 -0.0004  0.3467 -0.1432
 6002W        W10066   0.808   3.484   2.512  0.1657 -0.2859 -0.0278
 6003W        W10067   7.959   9.894  10.360  0.2508 -0.1519 -0.2527
 6004W        W10068   6.636   6.413  10.755 -0.1925 -0.4405  0.2592
 6005W        W10069   2.324   4.152   9.535 -0.2647 -0.0927  0.0169
 6006W        W10070   0.141   6.068   2.244  0.0499 -0.0582 -0.0006
 6007W        W10071   0.849   9.082   9.315 -0.1412 -0.0551  0.2363
 6008W        W10072   1.788   4.551   3.786 -0.3226  0.1337 -0.2124
 6009W        W10073   0.757   9.654  10.864  0.1422  0.0472 -0.3935
 6010W        W10074   2.695   1.661  10.339  0.3532 -0.2140 -0.3366
 6011W        W10075   1.818   6.055  10.871  0.1800 -0.1442  0.1354
 6012W        W10076   1.282   1.570   1.418 -0.2032  0.3039  0.1922
 6013W        W10077   2.958   3.140  10.820  0.0288 -0.0295 -0.2084
 6014W        W10078   6.148   2.896   0.754  0.0241 -0.3173  0.0011
 6015W        W10079   6.662   3.719  10.757  0.3251  0.1369 -0.2277
 6016W        W10080   8.517   6.378   0.901 -0.0974  0.1076 -0.0718
 6017W        W10081   6.790   5.948   9.268 -0.3593 -0.3232 -0.1930
 6018W        W10082   2.369   6.125   9.747 -0.0009  0.0489 -0.0019
 6019W        W10083   2.183   3.341   9.293 -0.1838 -0.0413  0.2441
 6020W        W10084   8.214   0.593   2.820  0.0490  0.2488  0.0944
 6021W        W10085   6.671   4.310   0.907 -0.0260 -0.2307 -0.3260
 6022W        W10086   0.664   6.438   2.806 -0.4100 -0.0988  0.0203
 6023W        W10087   5.331   6.561  11.149 -0.0263 -0.0250  0.1222
 6024W        W10088   5.802   5.061   2.806  0.0130 -0.0492 -0.1519
 6025W        W10089   1.032   1.358  11.361  0.2537 -0.0185 -0.0378
 6026W        W10090   5.885   0.469   1.713  0.0665 -0.0958 -0.0224
 6027W        W10091  10.046   1.226   9.365 -0.0121  0.0702  0.0021
 6028W        W10092   3.504   4.859  10.990 -0.0063 -0.0561 -0.1676
 6029W        W10093   2.759   4.684   9.987  0.0201  0.2593 -0.2274
 6030W        W10094   8.673   4.344  10.303 -0.0818  0.0527 -0.0460
 6031W        W10095   3.182   8.165   8.734  0.0552 -0.1034  0.0697
 6032W        W10096   7.555   0.017   3.871  0.1186 -0.1207 -0.1896
 6033W        W10097   3.713   9.779   9.209 -0.0275 -0.1632 -0.0316
 6034W        W10098   8.376   4.489  10.676 -0.1178  0.3565  0.1735
 6035W        W10099   1.024   7.639  10.982  0.0407 -0.2116  0.0147
 6036W        W10100   4.062   4.644   2.913  0.2048 -0.0474 -0.2252
 6037W        W10101   1.725   3.469   9.967 -0.1232 -0.2889  0.1791
 6038W        W10102   8.972   9.761   2.919 -0.0553  0.1136  0.2259
 6039W        W10103   7.033   0.168   9.653  0.0701  0.0538 -0.0283
 6040W        W10104   2.875   9.446   0.220 -0.2397  0.3264  0.0334
 6041W        W10105   2.576   6.007  11.441 -0.3140 -0.4290 -0.1160
 6042W        W10106   4.226   2.539   3.420  0.1176  0.0784 -0.2333
 6043W        W10107   6.570   9.468  10.110  0.1215 -0.1725  0.3679
 6044W        W10108  10.613   5.637   8.411 -0.3157  0.0795  0.1543
 6045W        W10109   9.010   5.192   2.750  0.1929 -0.0379  0.1805
 6046W        W10110  10.543   7.839   0.633 -0.2826 -0.1317 -0.2493
 6047W        W10111   2.100  10.238  10.715  0.1494 -0.1351  0.1673
 6048W        W10112   5.699  10.501  11.461 -0.1505  0.1687 -0.2221
 6049W        W10113   1.834   3.928   2.463  0.0078  0.0830 -0.0906
 6050W        W10114   4.680   5.782   2.326 -0.0488  0.5449 -0.2522
 6051W        W10115   2.770   6.930   2.000 -0.4249  0.0757  0.3462
 6052W        W10116   0.532   8.808   0.785 -0.1337  0.0460  0.2631
 6053W        W10117   0.157   8.994   9.839 -0.1949  0.3396 -0.0985
 6054W        W10118   3.161   0.288   3.870  0.0002  0.3846  0.0040
 6055W        W10119   6.725   4.720   1.719  0.4805  0.1648  0.0525
 6056W        W10120   7.915   7.760   9.539 -0.1987  0.1768 -0.0427
 6057W        W10121   8.183   9.185   7.886 -0.2268 -0.1232 -0.1422
 6058W        W10122   4.763   8.809  10.442 -0.1805 -0.4117 -0.1640
 6059W        W10123   3.269   1.514  11.312 -0.1008 -0.1807 -0.1283
 6060W        W10124  10.401   0.888  10.691  0.0418  0.3214 -0.0313
 6061W        W10125   5.402   5.219   0.621 -0.3624 -0.2514 -0.0074
 6062W        W10126   2.786   0.222  10.008 -0.1140  0.2001  0.0239
 6063W        W10127   2.860   3.663  11.008  0.1499  0.1780  0.1339
 6064W        W10128   0.205   0.809  11.066 -0.0935  0.1982  0.1424
 6065W        W10129   6.445   0.652   3.128  0.1226  0.1243  0.1844
 6066W        W10130   0.813   2.443   2.282 -0.2677  0.0725 -0.0558
 6067W        W10131   1.268   3.841   7.983 -0.0849  0.0089  0.0764
 6068W        W10132   9.473   2.014   3.059  0.2331 -0.1131  0.3416
 6069W        W10133   0.510   2.676   8.413  0.2220 -0.2413 -0.1480
 6070W        W10134   9.969   7.647   3.036 -0.0491 -0.1276  0.0214
 6071W        W10135   6.451   4.858   8.609  0.1865 -0.0464  0.0225
 6072W        W10136   1.834  10.453   1.292 -0.1027 -0.0071 -0.2864
 6073W        W10137   1.672   8.597  10.885  0.2131 -0.0035  0.0037
 6074W        W10138   4.947   9.676  11.219 -0.1983  0.1215  0.1312
 6075W        W10139   0.055   0.436  10.664 -0.3756  0.1115 -0.0575
 6076W        W10140  10.418   6.931   0.323 -0.2191 -0.2036  0.5517
 6077W        W10141  10.205   0.650  11.256 -0.1412  0.1590 -0.1657
 6078W        W10142   5.370   6.036   9.595  0.3099  0.0223  0.1045
 6079W        W10143   5.488   8.161  10.235 -0.0872  0.2458 -0.1605
 6080W        W10144   2.726   4.402  10.452  0.1328 -0.0978 -0.0455
 6081W        W10145   3.949   0.286   1.311 -0.1209 -0.3889  0.3435
 6082W        W10146   8.299   8.807  10.319  0.2066  0.2901 -0.0841
 6083W        W10147   4.947   6.156   2.555  0.0025 -0.0019  0.0778
 6084W        W10148   7.136   7.463   7.834  0.0379 -0.0020  0.2713
 6085W        W10149   1.482   3.742   2.123  0.1858 -0.0483 -0.1491
 6086W        W10150   2.740   6.276  10.225 -0.2493  0.0857 -0.0557
 6087W        W10151   2.576   1.379   4.198  0.0015  0.2142 -0.0936
 6088W        W10152   6.021   3.920   2.236 -0.1501  0.1138  0.1179
 6089W        W10153   3.445   7.012   2.896  0.0032  0.2371 -0.1407
 6090W        W10154   3.305   6.670   9.672  0.0707 -0.2036 -0.3199
 6091W        W10155   0.372   8.449  10.870  0.3360 -0.2870  0.3320
 6092W        W10156   3.945   0.610   2.325 -0.0720  0.2378 -0.0126
 6093W        W10157   0.770   4.472   2.911 -0.0057  0.1706 -0.1450
 6094W        W10158   1.215   6.675   2.351 -0.0345  0.0012 -0.0077
 6095W        W10159   2.780   4.102   3.519 -0.1024 -0.0568 -0.2779
 6096W        W10160   8.841   1.234   0.958  0.1093  0.2261  0.2343
 6097W        W10161   0.326   6.813   8.802  0.0177 -0.0400  0.1354
 6098W        W10162   8.685   7.144   7.771 -0.2610 -0.2643 -0.0923
 6099W        W10163   2.793   0.750   3.296  0.2243 -0.0003 -0.0750
 6100W        W10164   1.480   7.886   9.190  0.1122  0.0237 -0.3548
 6101W        W10165   8.295   3.103  10.315 -0.0465  0.0195 -0.1528
 6102W        W10166   7.644  10.568   0.115 -0.0577 -0.1099  0.2769
 6103W        W10167   5.421   9.939   2.116  0.1308  0.0296  0.1052
 6104W        W10168   1.261   2.133   8.886  0.3863  0.0544 -0.1351
 6105W        W10169   7.396   9.782   8.905 -0.1829 -0.1931 -0.0437
 6106W        W10170   6.495  10.252   3.162 -0.0588  0.0112 -0.0478
 6107W        W10171   2.983   6.067   2.223 -0.1029  0.3750 -0.1715
 6108W        W10172   5.470   3.571   0.207  0.0003 -0.2639  0.1251
 6109W        W10173   8.054   1.435   2.763  0.0468 -0.3602 -0.2609
 6110W        W10174   8.361  10.260   9.525  0.1486 -0.1277  0.0179
 6111W        W10175   1.787   8.952  11.222  0.0646 -0.3175 -0.1009
 6112W        W10176   2.389   5.187   1.586  0.2883  0.1483 -0.2083
 6113W        W10177   0.545   6.606  10.853 -0.0678  0.0633  0.2140
 6114W        W10178   3.013   2.035   8.665  0.1908  0.0975 -0.0596
 6115W        W10179   5.315   9.704  10.839 -0.0700  0.1838 -0.0527
 6116W        W10180   6.445  10.410  11.449  0.3420 -0.0964 -0.0334
 6117W        W10181  10.509   1.555   0.796 -0.0499 -0.2184 -0.0310
 6118W        W10182   3.413   8.433  11.132  0.0292  0.0078  0.1549
 6119W        W10183  10.128   2.616   2.696  0.0336  0.2840 -0.2073
 6120W        W10184   2.444   7.485   6.923  0.1080 -0.0861  0.5212
 6121W        W10185   9.282   1.621   7.959 -0.1873  0.0937 -0.3050
 6122W        W10186   9.408   8.799  10.385  0.1973 -0.2576  0.0167
 6123W        W10187   0.848   5.701   8.897 -0.0382  0.1716  0.1661
 6124W        W10188   7.382   3.133   2.299 -0.2905 -0.1833 -0.1077
 6125W        W10189   8.593   9.200   8.599  0.0436 -0.1412 -0.0679
 6126W        W10190   7.630   6.029   8.770  0.0351 -0.0218 -0.0840
 6127W        W10191   2.122   2.694   2.871  0.2233  0.0149  0.1755
 6128W        W10192   6.346   7.083   1.001  0.0710 -0.3350 -0.0756
 6129W        W10193   8.925   5.996  11.150 -0.5144 -0.0625 -0.1409
 6130W        W10194   7.403   6.485   9.049  0.0432 -0.1098  0.2010
 6131W        W10195   7.136   3.969   3.357 -0.0884  0.0138 -0.1170
 6132W        W10196   7.286   9.349  10.598  0.1732 -0.0105  0.1794
 6133W        W10197  10.490   2.985   2.518  0.0585 -0.1829 -0.0528
 6134W        W10198   4.837   4.896   8.801  0.0254 -0.3392  0.0683
 6135W        W10199   4.884   5.881   8.681 -0.1735  0.1287 -0.0499
 6136W        W10200   2.761   7.961  10.270 -0.0500 -0.2432 -0.1808
 6137W        W10201   8.630   1.687   8.668 -0.0201 -0.2889 -0.1072
 6138W        W10202   3.970  10.424  10.714 -0.2710  0.3591  0.0011
 6139W        W10203   4.771   3.214   1.886 -0.2049 -0.0363  0.1605
 6140W        W10204   3.016   9.278   9.631  0.2066 -0.1728  0.1747
 6141W        W10205   7.964   4.872   1.908  0.0296 -0.1209 -0.0245
 6142W        W10206   7.051   7.469   1.528 -0.1560 -0.0429 -0.0567
 6143W        W10207   2.391   5.403   8.478  0.2931 -0.1879 -0.3946
 6144W        W10208   7.747   5.384   3.090  0.0174 -0.0351 -0.2380
 6145W        W10209   3.700   2.774   0.971 -0.0514  0.0417 -0.2705
 6146W        W10210   9.434   3.495  10.463 -0.0198 -0.1342  0.1730
 6147W        W10211   9.161   1.275  11.226 -0.2202 -0.0167 -0.0222
 6148W        W10212   4.457   4.966  10.425 -0.0126 -0.2230 -0.3920
 6149W        W10213   8.592   5.958   9.162  0.2398  0.1657 -0.0479
 6150W        W10214   6.164   6.317   1.347 -0.4333 -0.1031  0.3809
 6151W        W10215   1.266   2.408   1.890 -0.0590  0.0050  0.0558
 6152W        W10216   0.007   8.410   2.193 -0.1786  0.2106 -0.2639
 6153W        W10217   9.341   4.349   9.462  0.1395  0.0077 -0.3159
 6154W        W10218   0.857   7.030   1.926 -0.0647  0.0008  0.0277
 6155W        W10219   6.889   0.347   2.290 -0.3605 -0.1538 -0.2577
 6156W        W10220   3.549   1.854   0.258 -0.1049  0.0407 -0.2518
 6157W        W10221   6.098   2.018   1.863  0.0748  0.0830  0.0667
 6158W        W10222   5.184   8.171   9.344 -0.0008 -0.1587 -0.3837
 6159W        W10223   5.418   3.610   1.654  0.2156 -0.2282 -0.2040
 6160W        W10224   5.453   8.951   1.551 -0.1775 -0.0450  0.0501
 6161W        W10225   6.708   0.002   8.808 -0.1409 -0.1690 -0.1811
 6162W        W10226   3.804   7.716  10.278 -0.1316  0.1490 -0.2762
 6163W        W10227   4.797  10.075   0.035 -0.0145  0.2047  0.1752
 6164W        W10228   3.708   5.188  11.384  0.0214 -0.0910  0.3768
 6165W        W10229   1.583   4.336   0.652  0.1181 -0.1592 -0.0694
 6166W        W10230   7.793   3.764   0.395 -0.0512  0.3219 -0.2091
 6167W        W10231   3.000   8.003   0.166 -0.1174  0.0666  0.0949
 6168W        W10232   9.347  10.588  10.466 -0.2240  0.0873  0.0349
 6169W        W10233   5.924   4.431   1.341 -0.0952 -0.0956 -0.1614
 6170W        W10234   1.934   1.527   0.722  0.2261 -0.4214 -0.1163
 6171W        W10235   5.975   3.849   9.491 -0.3961 -0.0695 -0.1443
 6172W        W10236   2.061   6.693  11.475  0.1165 -0.2737  0.4210
 6173W        W10237   7.735   5.117  11.167 -0.0171  0.1983  0.1200
 6174W        W10238   6.472   7.229   8.184  0.4406 -0.3242 -0.2484
 6175W        W10239  10.552   3.209   9.058 -0.0608  0.0335  0.0749
 6176W        W10240   2.271   6.748   1.753 -0.1221  0.4044  0.3176
 6177W        W10241   0.506   9.703   1.180 -0.1017  0.0088 -0.0316
 6178W        W10242   2.497   6.247   1.480 -0.0574 -0.1989 -0.3680
 6179W        W10243   8.307   7.801   9.161 -0.4821 -0.2121 -0.5144
 6180W        W10244   1.071   8.525   0.824 -0.1428 -0.0275 -0.1706
 6181W        W10245   9.987   5.235   8.957 -0.4923 -0.0984 -0.2007
 6182W        W10246   9.008   4.713  10.065 -0.2104 -0.1813 -0.0237
 6183W        W10247   2.087   5.814  11.518  0.0418 -0.0041  0.0054
 6184W        W10248   9.264   9.151   0.784 -0.0067 -0.0643  0.0240
 6185W        W10249   8.208   5.635   8.152  0.3935  0.0372  0.0994
 6186W        W10250   0.010   4.537   0.299 -0.3540  0.0733  0.1141
 6187W        W10251   5.778   5.309   1.662  0.3718  0.3329  0.0492
 6188W        W10252   3.568   3.313   1.014 -0.3218  0.2291  0.3699
 6189W        W10253   7.217   8.490   1.293  0.0029 -0.0104  0.2679
 6190W        W10254   6.008   2.018   3.192 -0.1530 -0.0190  0.1962
 6191W        W10255   3.789   3.185   2.720 -0.1145  0.2152 -0.0781
 6192W        W10256   8.213   9.956   0.006 -0.1917  0.1166 -0.0829
 6193W        W10257   9.875   3.103   3.407 -0.1729  0.1149 -0.1122
 6194W        W10258   6.739  10.028   1.324  0.0934  0.0022  0.0986
 6195W        W10259   3.666   1.223  10.270  0.2582  0.0844  0.0005
 6196W        W10260   8.452   5.643   1.967 -0.2767  0.0995 -0.0488
 6197W        W10261   0.811   1.073   8.210  0.4865  0.1795 -0.0046
 6198W        W10262   5.876   0.379   0.401  0.5352  0.3122 -0.1214
 6199W        W10263   8.485   7.963   1.054  0.2072 -0.2185 -0.1246
 6200W        W10264   7.627   4.927   8.931 -0.0525 -0.1045 -0.3834
 6201W        W10265   3.170   8.561   2.085  0.0529  0.0086  0.0189
 6202W        W10266   6.959   8.132   2.284 -0.0753  0.0648 -0.1915
 6203W        W10267   3.099   2.087   0.509 -0.2485  0.3373  0.3670
 6204W        W10268   0.735   5.139   7.745 -0.2014 -0.1165 -0.0180
 6205W        W10269   3.194   4.567  10.236  0.3434  0.0527 -0.2663
 6206W        W10270   7.993   6.165  10.981  0.0412  0.0985 -0.0294
 6207W        W10271   4.659   9.335   9.220 -0.0172 -0.1299 -0.1443
 6208W        W10272   2.141   8.874   8.457 -0.1512  0.0646  0.2677
 6209W        W10273   1.110   7.627   3.549 -0.0959  0.0483 -0.5277
 6210W        W10274   6.995   1.251   9.589 -0.0654  0.0508  0.2405
 6211W        W10275   9.115   0.189  11.234 -0.2323 -0.2932  0.3816
 6212W        W10276   1.551   7.744  11.328 -0.2171 -0.0854  0.0976
 6213W        W10277  10.320   1.884  10.345 -0.1059 -0.0731 -0.4169
 6214W        W10278   5.899   4.964   3.369  0.1240  0.1353  0.1645
 6215W        W10279   6.929   0.492   1.558  0.0479  0.1623 -0.0470
 6216W        W10280   4.525   2.630  10.282 -0.1126  0.1042  0.5614
 6217W        W10281   7.097   3.214   9.366  0.1073  0.2872  0.1096
 6218W        W10282   8.956   6.658  10.601  0.1112  0.0594  0.3264
 6219W        W10283   3.546  10.156  10.978  0.1259  0.4573 -0.1217
 6220W        W10284   9.132   9.866  11.569 -0.2010  0.2094 -0.1523
 6221W        W10285   6.670   7.988   0.004 -0.1719  0.1262  0.2529
 6222W        W10286   6.186   0.830   1.521  0.2840  0.3178 -0.0029
 6223W        W10287   9.310   2.415   8.550 -0.2638 -0.0702  0.0519
 6224W        W10288   7.614   4.550   2.139  0.3688  0.0960  0.0093
 6225W        W10289   6.535   3.522   8.347  0.1550 -0.0935  0.0694
 6226W        W10290   7.475  10.059   8.504 -0.1121  0.1623  0.2291
 6227W        W10291   6.205   5.689  11.113  0.3432  0.3381  0.0400
 6228W        W10292   2.047   8.282  10.429  0.1115 -0.1301 -0.0287
 6229W        W10293  10.373  10.154  10.036 -0.2388  0.0286 -0.1863
 6230W        W10294   6.672   8.291   3.376  0.2582 -0.0079 -0.2128
 6231W        W10295   7.587   9.154   9.940  0.1828 -0.2255 -0.0802
 6232W        W10296   4.661   3.655  11.131 -0.0640  0.0498 -0.2130
 6233W        W10297   0.840   5.803   1.635 -0.2641  0.0528 -0.0132
 6234W        W10298   5.682   0.762   9.653  0.0168  0.0512  0.3527
 6235W        W10299   3.564   4.569   9.759  0.1549  0.3523 -0.0478
 6236W        W10300   2.022   2.905   8.762 -0.7035  0.2106  0.1861
 6237W        W10301   2.140   1.822   3.671 -0.0509  0.1962  0.3568
 6238W        W10302   2.965   2.188   4.157 -0.0120 -0.0062 -0.0630
 6239W        W10303   7.017   1.078   1.627 -0.1545 -0.0177  0.3706
 6240W        W10304   8.392   7.628   6.935  0.3193 -0.1514  0.1325
 6241W        W10305   3.455   8.701   2.587 -0.1735  0.0530 -0.1874
 6242W        W10306   3.347   3.006   1.368 -0.0055  0.0285  0.0822
 6243W        W10307   6.136  10.348   0.676 -0.0487 -0.1889 -0.3016
 6244W        W10308   5.302   2.595   1.261 -0.1882 -0.1072  0.0307
 6245W        W10309   6.425   9.971   2.313 -0.2740 -0.3540  0.1730
 6246W        W10310   0.503   0.716   8.821 -0.1969  0.3501  0.1190
 6247W        W10311   8.887   6.517  11.091 -0.0277  0.1423 -0.2566
 6248W        W10312   9.332   0.195   1.402  0.1963  0.1835 -0.1243
 6249W        W10313  10.175   0.182   3.803 -0.1181 -0.0077 -0.2118
 6250W        W10314   4.560   7.598   2.470 -0.1204  0.0585 -0.1643
 6251W        W10315   0.862   4.883   0.487  0.0339  0.1088  0.1399
 6252W        W10316   2.567   4.233   0.751  0.1994  0.2369  0.1398
 6253W        W10317   6.208   9.590   2.661 -0.1003 -0.1751  0.0651
 6254W        W10318   6.645   8.808  11.531  0.0279  0.1171 -0.0033
 6255W        W10319   9.903   9.093  10.523  0.0874  0.0421  0.0162
 6256W        W10320   6.491   3.190   3.220 -0.1399  0.2054 -0.0589
 6257W        W10321   1.851   7.962   8.212  0.0535 -0.0530  0.2849
 6258W        W10322   1.483   3.586   9.411  0.1981 -0.0145 -0.0260
 6259W        W10323   8.230  10.471  10.375  0.0980 -0.2246 -0.1219
 6260W        W10324   9.425   4.575   2.713 -0.0976  0.0066 -0.3058
 6261W        W10325   0.494   4.272   0.425  0.1887  0.1117 -0.3090
 6262W        W10326   7.060   7.182  11.406 -0.0653 -0.1019 -0.4609
 6263W        W10327   3.407   6.129   1.211  0.0267  0.3406 -0.0158
 6264W        W10328   3.333   8.491   9.095  0.0128 -0.3548 -0.1638
 6265W        W10329   0.545   6.048  10.984  0.0928  0.0406  0.0936
 6266W        W10330   9.396   1.334  10.550  0.2486  0.4569 -0.1760
 6267W        W10331   8.209   8.566   0.898  0.1787  0.0939 -0.2034
 6268W        W10332   5.675   8.294   9.322 -0.0343 -0.2424 -0.2542
 6269W        W10333   4.647   6.775   3.049  0.1941 -0.4018 -0.1115
 6270W        W10334   6.012   2.693   2.580 -0.0335 -0.2061 -0.0193
 6271W        W10335   0.339   1.644   1.521  0.2182  0.1648 -0.0356
 6272W        W10336   0.787   8.784  10.864  0.0879  0.3273  0.3591
 6273W        W10337   3.372   6.309   2.072  0.0265  0.3165 -0.2751
 6274W        W10338   4.619   5.415  10.564 -0.0097 -0.0960 -0.2067
 6275W        W10339   1.518   7.286   0.392  0.0054  0.1048 -0.1631
 6276W        W10340   9.187   4.277   0.356  0.1379  0.0021 -0.0023
 6277W        W10341   3.734   0.794   8.287  0.2016  0.3401 -0.0608
 6278W        W10342   1.872   3.131   2.656 -0.1176 -0.1984  0.3226
 6279W        W10343   1.697   2.319   0.407 -0.0574 -0.1990  0.0179
 6280W        W10344   6.635   0.946  10.342  0.2760 -0.2578  0.0476
 6281W        W10345   7.411   7.473  10.695  0.0711 -0.0461 -0.0456
 6282W        W10346   2.476   9.101   2.360  0.1051  0.1309 -0.0338
 6283W        W10347   5.926   7.610   8.438  0.1319  0.0668  0.2821
 6284W        W10348   5.517   4.040   1.372  0.1146 -0.0227 -0.1844
 6285W        W10349   2.558   6.425   0.077  0.1305  0.0889  0.0685
 6286W        W10350   8.282   9.426   0.420  0.1446  0.2639  0.4807
 6287W        W10351   6.402   3.946   2.624  0.1754  0.0264  0.0215
 6288W        W10352   4.668   9.194   8.093  0.0972 -0.0426  0.1301
 6289W        W10353   7.053   4.369   3.788  0.0858 -0.1662 -0.0183
 6290W        W10354   4.306   8.966   2.139 -0.1906  0.0680  0.0848
 6291W        W10355   8.159   2.366   9.165 -0.1495  0.0212  0.0266
 6292W        W10356   1.002   4.194   3.500  0.2206 -0.1056  0.0311
 6293W        W10357   3.376   1.435   1.119  0.0620 -0.0480 -0.1319
 6294W        W10358   9.157   6.708   8.343 -0.0693 -0.0242  0.1260
 6295W        W10359   2.138   3.212  10.618 -0.2277  0.0441  0.0701
 6296W        W10360   9.852   9.114   2.874 -0.2024 -0.2361 -0.1842
 6297W        W10361   9.157   7.492  11.107  0.1223  0.0973  0.7241
 6298W        W10362   0.449  10.197   0.185  0.1753 -0.0994  0.0961
 6299W        W10363   4.238   4.835  11.588  0.0110 -0.1759 -0.2819
 6300W        W10364   2.118   1.642   2.005 -0.0407  0.0414 -0.0666
 6301W        W10365   6.174   3.769  11.202  0.3599  0.6120  0.0980
 6302W        W10366   7.378   8.193   7.909 -0.0269 -0.0178 -0.5413
 6303W        W10367   9.553   7.232  11.024 -0.0434 -0.0648 -0.0511
 6304W        W10368   0.790   3.822   0.462  0.2553  0.1635  0.0693
 6305W        W10369  10.544  10.399   2.929  0.1123 -0.1365  0.0430
 6306W        W10370  10.119   5.683   8.744  0.1212 -0.0642 -0.2662
 6307W        W10371   1.844   3.792   3.612  0.2735 -0.2957 -0.0573
 6308W        W10372   2.305   3.542   7.403 -0.0312 -0.0115 -0.0293
 6309W        W10373   6.179   2.632   3.125  0.1823 -0.2631  0.1309
 6310W        W10374   9.529   3.360   0.767  0.1864 -0.0295  0.1876
 6311W        W10375   4.789   4.982  10.797 -0.2675  0.2449  0.0963
 6312W        W10376   3.406   8.846   9.528  0.0467  0.1861 -0.0555
 6313W        W10377   3.832   9.543   2.997 -0.2270 -0.0983 -0.1143
 6314W        W10378   9.930   3.878   8.982 -0.0991  0.0839  0.1295
 6315W        W10379   7.150   0.602  10.660  0.1505 -0.0050 -0.0240
 6316W        W10380  10.150   8.323  11.622 -0.3866  0.0130  0.1171
 6317W        W10381   3.649   4.597   2.535  0.1881 -0.0874  0.0039
 6318W        W10382   7.869   6.728   2.530 -0.0071  0.2781  0.0078
 6319W        W10383   8.800   2.238   8.708  0.2732 -0.1256  0.3155
 6320W        W10384   2.640   2.407   0.354  0.2599 -0.0548  0.0747
 6321W        W10385   9.028   6.431   0.801 -0.1806  0.0743  0.2063
 6322W        W10386   8.386   4.891   2.282 -0.1266 -0.0899 -0.0839
 6323W        W10387   5.258   9.388   1.320  0.1322  0.0995  0.1968
 6324W        W10388   7.470   2.969   9.148  0.0734 -0.0344  0.1066
 6325W        W10389   9.640   4.340  10.349 -0.0271  0.1439 -0.0458
 6326W        W10390   1.646   1.152   3.184 -0.0651 -0.1709 -0.0585
 6327W        W10391   8.895   6.129   9.552 -0.0868  0.0397 -0.0106
 6328W        W10392   1.795   2.984  10.273 -0.2104  0.3414 -0.1923
 6329W        W10393   2.513   7.576  11.269  0.0351  0.0690 -0.3052
 6330W        W10394   9.200   7.093   8.698 -0.1456  0.0164  0.2501
 6331W        W10395   7.452  10.077   9.457  0.0951 -0.0370 -0.1367
 6332W        W10396  10.343   7.570   9.521  0.0514 -0.0711 -0.5287
 6333W        W10397   4.310   5.383   7.900 -0.1368  0.2935 -0.0137
 6334W        W10398  10.415   9.412   3.585 -0.1811  0.1850  0.0912
 6335W        W10399   1.036   5.096   4.261 -0.2714  0.2710 -0.4149
 6336W        W10400   2.952   6.277   8.873 -0.1004 -0.1222  0.0336
 6337W        W10401  10.018   7.817   2.484 -0.2572  0.2727 -0.1046
 6338W        W10402   7.238   7.096   0.995 -0.4377 -0.0097  0.0970
 6339W        W10403   2.702   0.645  11.068  0.1544 -0.0664 -0.1409
 6340W        W10404   6.377   9.979   0.909 -0.3480 -0.2007  0.1272
 6341W        W10405   7.712   7.033   9.301  0.0080 -0.0117 -0.0058
 6342W        W10406   7.681   0.607   2.835  0.0465 -0.0675  0.3312
 6343W        W10407   9.307   1.632   2.676  0.1889 -0.0302 -0.3558
 6344W        W10408   4.993   8.263   0.034  0.1159 -0.0942  0.1805
 6345W        W10409   9.113  10.123  10.414 -0.2556 -0.1795 -0.0006
 6346W        W10410   7.841  10.275   9.821 -0.0286  0.3262 -0.2086
 6347W        W10411   5.064   7.715   9.021 -0.0021  0.0420 -0.2805
 6348W        W10412   8.297   0.522   9.303 -0.4037 -0.1616 -0.2304
 6349W        W10413   8.598   9.188  10.311  0.1984 -0.0476  0.1737
 6350W        W10414   2.276   7.972  10.712 -0.2651  0.5891  0.1952
 6351W        W10415   2.323   2.309   9.983  0.2382  0.0991 -0.1554
 6352W        W10416   7.824   0.889  11.542  0.1738 -0.1971  0.0501
 6353W        W10417   0.632  10.294   9.200 -0.2703 -0.1690 -0.2167
 6354W        W10418   8.562   2.709   2.433  0.1599  0.4457  0.2104
 6355W        W10419  10.045   6.139   9.029 -0.2443  0.3295  0.0551
 6356W        W10420   7.152   7.479   9.989 -0.2758  0.0712 -0.2052
 6357W        W10421   1.988   6.353   1.914 -0.0110 -0.1088  0.2078
 6358W        W10422   3.466   7.095   1.503 -0.0184  0.1046  0.1330
 6359W        W10423   1.529  10.115   1.525  0.1209 -0.0684  0.0646
 6360W        W10424   6.342   8.279   9.092  0.0600  0.1039 -0.1815
 6361W        W10425   2.749   5.446  10.486 -0.2233 -0.2237 -0.0412
 6362W        W10426   1.955   2.322   3.562 -0.0007 -0.1026 -0.2968
 6363W        W10427   3.754   3.660   9.407 -0.0690  0.0179  0.0617
 6364W        W10428   1.097   4.516   4.190  0.0579 -0.1391  0.3168
 6365W        W10429   7.723   8.532   2.449  0.0122  0.0607  0.1683
 6366W        W10430   8.262   0.824  11.285 -0.0753  0.3269  0.1086
 6367W        W10431   6.148   7.617   3.101  0.1265  0.2999 -0.1033
 6368W        W10432   8.958   8.804   1.948  0.0487 -0.1382 -0.2783
 6369W        W10433   5.040   2.897   1.544  0.1124  0.2516  0.0353
 6370W        W10434   5.218  10.207   7.950 -0.2117  0.1412  0.1926
 6371W        W10435   8.145   7.550   0.823 -0.0140  0.0328 -0.0087
 6372W        W10436   2.601   8.586   1.607 -0.1663  0.0650  0.0250
 6373W        W10437   8.383   2.812  10.769 -0.1490  0.2125  0.1166
 6374W        W10438   3.537   3.795   8.820 -0.3641 -0.2593  0.0880
 6375W        W10439   3.371   9.697   9.733  0.1262 -0.0514  0.3323
 6376W        W10440   5.788   9.264   3.511  0.0237 -0.0316  0.1081
 6377W        W10441   6.826   1.222   2.097  0.1877  0.3062 -0.1330
 6378W        W10442  10.229   4.320   9.960  0.4731 -0.2811  0.0015
 6379W        W10443   2.493   5.211  10.859  0.0576 -0.3809 -0.0235
 6380W        W10444  10.525   3.877   8.404 -0.3512 -0.0408 -0.1522
 6381W        W10445   6.248   8.014   3.876 -0.0538  0.0581 -0.2653
 6382W        W10446   9.501   6.628   0.105  0.1754  0.3041 -0.1653
 6383W        W10447   8.755   6.095   2.253  0.2608 -0.1527 -0.1534
 6384W        W10448   7.443   0.207  10.568 -0.0266 -0.1611  0.0260
 6385W        W10449   0.536   2.917   0.487  0.2116  0.0371  0.0657
 6386W        W10450   5.365   1.080   2.093 -0.0496 -0.0127  0.2069
 6387W        W10451   9.849   3.162   0.006  0.1893  0.0053 -0.0038
 6388W        W10452   3.079   0.161   1.349  0.2289  0.4010 -0.2964
 6389W        W10453   9.409   2.357   1.635 -0.1443 -0.1209  0.0608
 6390W        W10454  10.589   8.083  10.158 -0.2805 -0.1868 -0.5129
 6391W        W10455   9.605   6.931   1.377 -0.1344  0.2267 -0.1081
 6392W        W10456   8.126   2.973   3.085 -0.2132 -0.0410  0.0280
 6393W        W10457   1.009   1.174  10.903  0.2122 -0.1885  0.0109
 6394W        W10458   7.744   1.582   0.917 -0.1218 -0.1460 -0.3343
 6395W        W10459   2.883   4.500   3.217  0.3876 -0.0123  0.1119
 6396W        W10460   2.347   7.729  10.288 -0.0205 -0.1344  0.3193
 6397W        W10461   0.316   5.291   2.795 -0.0061 -0.1865  0.0533
 6398W        W10462   1.609   0.134   9.716  0.3022 -0.1084 -0.1907
 6399W        W10463   2.447   6.566   8.325 -0.2286 -0.0008  0.2757
 6400W        W10464   1.266   3.845   3.132 -0.0314  0.0994 -0.1649
 6401W        W10465   4.342   5.354   9.340 -0.1931  0.0119  0.0848
 6402W        W10466  10.058   5.122   2.481  0.0739  0.2526  0.0789
 6403W        W10467   2.972   1.125   9.673 -0.2120  0.3214 -0.3685
 6404W        W10468   7.333   9.727   2.373 -0.2422  0.2773 -0.1130
 6405W        W10469   7.205   6.869  10.995 -0.2614  0.2432 -0.0722
 6406W        W10470   8.840   6.288   3.104 -0.1181  0.0297 -0.5830
 6407W        W10471   4.714   0.061   3.592  0.0149  0.3879 -0.1793
 6408W        W10472   4.362   6.614   3.490  0.1441 -0.0808 -0.2887
 6409W        W10473   3.242   9.976   2.261 -0.3786  0.0352 -0.1245
 6410W        W10474   2.162   6.968   2.619  0.0474  0.2694 -0.3569
 6411W        W10475   9.028   1.757   3.266  0.1455 -0.1520 -0.1893
 6412W        W10476   1.097  10.400   1.532  0.2283 -0.0356  0.1575
 6413W        W10477   0.368   4.822   2.662 -0.1540  0.1428 -0.1406
 6414W        W10478  10.167   9.990   0.156 -0.1087 -0.2207 -0.4668
 6415W        W10479   5.425   7.105   1.454 -0.0554 -0.1997 -0.2472
 6416W        W10480  10.383   5.259   1.654  0.0397  0.1942  0.0677
 6417W        W10481   3.055   2.364   9.624 -0.3133 -0.0435 -0.2649
 6418W        W10482   2.598   8.900   8.856  0.2172 -0.1358 -0.1489
 6419W        W10483   3.328   4.675   0.312  0.2106  0.2085 -0.0198
 6420W        W10484   5.140   5.382  10.068 -0.1623 -0.3712  0.0542
 6421W        W10485   3.488  10.005   1.751 -0.1820 -0.1314 -0.0104
 6422W        W10486   6.309   6.407  10.319 -0.4082 -0.0223  0.5363
 6423W        W10487   7.945   0.161   2.832  0.1045 -0.1974 -0.1124
 6424W        W10488   3.348   5.254   0.086 -0.0742  0.2051 -0.0909
 6425W        W10489   7.150   3.260  10.990 -0.0098 -0.0799  0.1155
 6426W        W10490   1.897   0.190   3.216 -0.0486 -0.2944  0.0329
 6427W        W10491   8.545   4.656   7.795 -0.0653 -0.0278  0.3785
 6428W        W10492   2.560   4.475   4.354  0.0379 -0.3881 -0.2021
 6429W        W10493   2.327   5.779   4.150  0.0500 -0.0328  0.0391
 6430W        W10494   2.877   9.764  10.579  0.1565  0.2013  0.1447
 6431W        W10495   4.526   6.516  10.608 -0.1851 -0.1063  0.0668
 6432W        W10496   6.834   4.561  11.314 -0.0138 -0.0925 -0.0756
 6433W        W10497   0.267   4.713   9.459 -0.0648  0.3948  0.1396
 6434W        W10498   6.791   6.902   8.276 -0.0907  0.0590  0.2313
 6435W        W10499   0.575   3.076   1.253 -0.0237  0.3324  0.2930
 6436W        W10500  10.520   5.951   2.746  0.0575  0.3435  0.1570
 6437W        W10501   0.168   3.666   3.341 -0.0926  0.1428  0.3550
 6438W        W10502   1.571   4.205   3.439  0.2612  0.5025  0.0973
 6439W        W10503   6.870   2.787   9.884  0.2964 -0.0294 -0.3630
 6440W        W10504   2.317   8.152  10.001  0.2747  0.0376 -0.0301
 6441W        W10505   1.852   5.043   3.665  0.0749 -0.0014  0.0479
 6442W        W10506  10.546   4.879   0.772 -0.2117 -0.4249  0.2870
 6443W        W10507   7.360   7.569  11.215  0.3585 -0.0181 -0.3926
 6444W        W10508   2.347   2.716   1.126  0.3434 -0.2455 -0.0094
 6445W        W10509   0.488   0.382   3.734 -0.0367 -0.1199 -0.0682
 6446W        W10510   2.531  10.402   2.202  0.0703  0.0607 -0.0811
 6447W        W10511   3.776   7.971   9.820  0.1683  0.1760 -0.3063
 6448W        W10512   4.639   0.535  11.404  0.0596 -0.0166 -0.1396
 6449W        W10513   1.890   4.475  11.398  0.2316 -0.0901 -0.0840
 6450W        W10514   0.242   2.809   3.409  0.2847 -0.0932 -0.1014
 6451W        W10515   1.175   8.570   9.984  0.2898 -0.0767  0.1320
 6452W        W10516   0.200   9.979   9.803  0.0933  0.4272  0.1357
 6453W        W10517   7.267   2.145   2.539  0.2106  0.1661 -0.1998
 6454W        W10518   0.133   7.622   9.821 -0.1298 -0.0325 -0.5137
 6455W        W10519   2.542   7.070   1.119  0.2190 -0.2417 -0.2912
 6456W        W10520   3.308   7.660   0.949 -0.2595  0.2531 -0.2323
 6457W        W10521   5.366   7.912  11.572 -0.0391 -0.1398  0.2369
 6458W        W10522   6.613   0.813   0.800 -0.0356 -0.0566 -0.0614
 6459W        W10523   6.077   3.095   8.376  0.2694  0.3031 -0.0795
 6460W        W10524   8.458   4.030   9.405  0.0278 -0.0235 -0.0791
 6461W        W10525   8.867   5.958   0.845 -0.1770 -0.1214  0.2240
 6462W        W10526   1.107   5.743   2.535 -0.1928 -0.1283  0.2737
 6463W        W10527   0.756   8.251   9.949 -0.2231 -0.1165  0.0301
 6464W        W10528   2.126   7.510   1.671  0.2181 -0.2013  0.2998
 6465W        W10529   0.423   1.141   7.761  0.2133  0.1929  0.2077
 6466W        W10530   5.810   8.951  10.215 -0.3495 -0.1601 -0.1173
 6467W        W10531   0.105   4.069   2.766 -0.2798 -0.0991 -0.0208
 6468W        W10532   2.619   7.535   8.410 -0.2531 -0.3717  0.1681
 6469W        W10533   3.083   7.565   7.516  0.0115 -0.0913  0.1185
 6470W        W10534   7.937   8.362   2.852  0.3198 -0.3331  0.1929
 6471W        W10535   6.084   1.100   0.075  0.1903  0.2052  0.2682
 6472W        W10536   4.465   7.592   7.609 -0.0072 -0.0418  0.2652
 6473W        W10537   2.281   9.735  11.451  0.0024  0.2708  0.0969
 6474W        W10538   8.153  10.393   7.121 -0.1604  0.0668  0.1442
 6475W        W10539   2.934   1.512   1.701 -0.0020 -0.1746 -0.2938
 6476W        W10540   8.798   7.400   8.880  0.1479  0.4190 -0.1705
 6477W        W10541   1.320   9.397   3.295  0.0744 -0.1136 -0.0614
 6478W        W10542   3.051   9.561   1.190  0.1803  0.3431 -0.0479
 6479W        W10543   5.482   4.575   1.086 -0.1217 -0.0464 -0.2446
 6480W        W10544   1.618   5.909   0.145  0.1450  0.1557 -0.0630
 6481W        W10545   2.549   3.331   0.952 -0.0294 -0.2947  0.1706
 6482W        W10546  10.344   0.462   4.300 -0.1409 -0.0453  0.1269
 6483W        W10547   9.149   2.849   0.266 -0.0011  0.0970  0.0009
 6484W        W10548   3.015   5.936   8.136  0.1932 -0.0221  0.1125
 6485W        W10549   0.349   8.564   9.910  0.0260 -0.1983 -0.1613
 6486W        W10550  10.308   3.648   0.524 -0.0673  0.2110 -0.1365
 6487W        W10551   8.944   7.852   8.443 -0.0026  0.0677  0.1764
 6488W        W10552   2.093   4.227   0.462 -0.1382  0.2954  0.2421
 6489W        W10553   9.586   8.939   8.524 -0.0502 -0.0760 -0.2202
 6490W        W10554   4.719  10.186   1.663 -0.0749  0.0137  0.0202
 6491W        W10555   3.253   6.105  10.698 -0.1005  0.1764  0.1000
 6492W        W10556   9.697   2.484   8.309  0.0869  0.1577  0.0528
 6493W        W10557   3.315   7.281   1.999 -0.0648 -0.1737 -0.0818
 6494W        W10558   0.524   1.570  10.841 -0.1216  0.1667 -0.0768
 6495W        W10559   9.538   1.901   9.187  0.1437  0.0264  0.0179
 6496W        W10560   7.599  10.303   7.697  0.2004  0.2582 -0.1674
 6497W        W10561   9.937   8.217   8.853  0.1333  0.1532 -0.2838
 6498W        W10562   0.489   7.799   7.621 -0.0073 -0.1239 -0.0498
 6499W        W10563   8.481   9.528   3.003 -0.0936 -0.0232 -0.2864
 6500W        W10564   3.133   0.221   0.865 -0.0477  0.0831  0.3454
 6501W        W10565  10.274   0.686   2.270 -0.0775  0.4543  0.1861
 6502W        W10566   3.153   4.207   1.281  0.0099  0.4226  0.0781
 6503W        W10567   2.653  10.529   8.848  0.2598  0.2960 -0.0536
 6504W        W10568   9.112   2.132   9.504 -0.1495  0.0155  0.1479
 6505W        W10569   5.892   3.065  10.051 -0.0870 -0.2976  0.0669
 6506W        W10570   1.803   2.602   8.160 -0.2814  0.0717 -0.3450
 6507W        W10571   7.117   2.020   3.347 -0.2270  0.3732 -0.1199
 6508W        W10572   2.900   1.353   1.203 -0.0544 -0.2436 -0.1862
 6509W        W10573   5.081   4.629   2.758  0.3062 -0.0385  0.1208
 6510W        W10574   0.642   5.217  11.470  0.1146  0.0574  0.3768
 6511W        W10575   0.693   0.095   9.515  0.1965 -0.2369  0.2684
 6512W        W10576   6.897   6.829   0.656 -0.0124  0.2045  0.0387
 6513W        W10577  10.207   4.859  11.617 -0.0276 -0.1364 -0.0947
 6514W        W10578   0.521   3.182   9.720 -0.0259  0.0403 -0.2904
 6515W        W10579   0.246   0.611   0.937 -0.0079 -0.1711  0.0472
 6516W        W10580   7.904   8.880   2.795 -0.0610  0.0091  0.1686
 6517W        W10581  10.325   1.793   0.360 -0.0396 -0.0047  0.1255
 6518W        W10582   8.341   4.611   2.781 -0.1705  0.1798 -0.2669
 6519W        W10583   7.940   8.082   0.893 -0.0265  0.1110  0.0366
 6520W        W10584   8.570  10.063   8.755  0.0679 -0.0738  0.2093
 6521W        W10585   6.324   4.931   2.000  0.1790 -0.2670  0.0800
 6522W        W10586   0.766   1.137   8.793  0.0038  0.0112  0.0009
 6523W        W10587   5.550   1.442  10.889 -0.2367  0.1484  0.1886
 6524W        W10588   5.471   3.758   9.267 -0.5635  0.2456  0.0094
 6525W        W10589   0.939   3.201   3.041  0.2034  0.0078  0.0076
 6526W        W10590  10.500   6.832  11.395  0.0246 -0.0436 -0.2772
 6527W        W10591   0.048   6.698   1.001 -0.0294 -0.4184  0.2333
 6528W        W10592   2.607   8.578   8.435  0.1200 -0.0663  0.0070
 6529W        W10593   2.173   7.840   9.585  0.1093 -0.1782  0.0984
 6530W        W10594  10.105  10.213  10.512 -0.0401  0.1503  0.2097
 6531W        W10595   7.463   4.702   8.566  0.2742 -0.1393  0.2385
 6532W        W10596   1.489   6.374   0.952 -0.1299 -0.0136 -0.1732
 6533W        W10597   6.852   7.020   1.239 -0.1880 -0.0430 -0.2003
 6534W        W10598   1.570   2.073   1.319 -0.5645 -0.1003  0.2519
 6535W        W10599   2.228   9.352   8.633 -0.2706  0.0298  0.0820
 6536W        W10600   5.643  10.336   0.384 -0.0040  0.2816  0.2584
 6537W        W10601   4.729   4.701   4.457  0.0020  0.0573  0.0470
 6538W        W10602   9.097   9.125   1.263 -0.1202 -0.1154 -0.2916
 6539W        W10603   4.873   4.385  10.594  0.2966  0.1838 -0.0936
 6540W        W10604   3.636   7.566   0.514 -0.3755  0.0751 -0.0590
 6541W        W10605   8.545   9.252   2.151  0.3662  0.0267  0.1183
 6542W        W10606   7.341   6.944   0.221 -0.3743 -0.0789  0.0106
 6543W        W10607   1.898   4.528   8.279 -0.1605 -0.0621  0.1189
 6544W        W10608   2.251   7.162  11.314  0.1023 -0.0588  0.0517
 6545W        W10609   6.123   4.502   0.307  0.0818 -0.3381 -0.1472
 6546W        W10610   2.727   3.959   1.145 -0.0443 -0.1095  0.1385
 6547W        W10611   4.469   3.865   2.422  0.0127  0.0517  0.0360
 6548W        W10612   6.418   6.381   1.815  0.0358 -0.2217  0.2051
 6549W        W10613   9.719   1.695   2.381 -0.2390 -0.3261 -0.1520
 6550W        W10614   6.234   7.778  11.380 -0.1108 -0.1203 -0.2265
 6551W        W10615   3.219   2.821   0.958  0.0144  0.1035 -0.0491
 6552W        W10616   9.574   0.970  11.224  0.0043 -0.0489 -0.0240
 6553W        W10617   9.651   4.107   8.496  0.1302  0.2396 -0.1943
 6554W        W10618  10.470   6.781   9.168 -0.2457  0.0356  0.0513
 6555W        W10619   0.836   9.769   2.613  0.1159  0.0042  0.2507
 6556W        W10620   2.524   6.957   3.065  0.1178 -0.1754 -0.2201
 6557W        W10621   1.550   2.082   2.571 -0.1754 -0.0800 -0.3032
 6558W        W10622   0.347   1.234   2.798  0.0761  0.2772  0.2384
 6559W        W10623   3.318   1.533   9.497  0.1299  0.1433 -0.2558
 6560W        W10624   2.572   7.337   9.479  0.3696  0.2201 -0.0498
 6561W        W10625   0.735   7.397   1.621 -0.0976 -0.0875 -0.0683
 6562W        W10626   6.694   3.257  10.710  0.2596  0.1596 -0.0055
 6563W        W10627   0.066   4.887   8.518  0.0511  0.1414  0.0017
 6564W        W10628  10.467   0.887   1.091 -0.1597  0.1542  0.2125
 6565W        W10629   5.605   8.158   0.774 -0.1901 -0.3954  0.1262
 6566W        W10630   9.124   7.361   9.874  0.0377 -0.2225  0.0350
 6567W        W10631   4.417   8.941  10.136  0.0948 -0.1570 -0.1484
 6568W        W10632   7.961   5.804   1.978  0.0896 -0.0038 -0.0252
 6569W        W10633   5.494   9.937  10.080  0.0647 -0.2541 -0.0159
 6570W        W10634   9.153   7.829  10.310  0.1493 -0.0490  0.6181
 6571W        W10635   6.195   8.447  10.091 -0.0643  0.2084 -0.0317
 6572W        W10636   3.784   3.722   0.825 -0.1166  0.0614  0.2345
 6573W        W10637   5.856   1.444  10.137  0.0574  0.2548  0.1549
 6574W        W10638   7.915   3.847   1.612 -0.0116  0.1572 -0.0918
 6575W        W10639   0.846  10.548  11.608 -0.0003 -0.0242  0.2054
 6576W        W10640   3.500   7.488   3.879 -0.3458  0.1860 -0.0547
 6577W        W10641   1.271   7.575   9.870  0.1967  0.2002 -0.2049
 6578W        W10642   2.146   9.652   1.964  0.1590 -0.0238 -0.0029
 6579W        W10643   5.221  10.051   3.053 -0.1052  0.2896  0.2272
 6580W        W10644   7.490   2.043   0.158 -0.2400  0.1792  0.0370
 6581W        W10645   2.963   5.740  10.170  0.2434  0.1659  0.2181
 6582W        W10646   1.247   7.181   2.707 -0.0514 -0.0600 -0.0476
 6583W        W10647   0.057   0.775   0.425 -0.2070  0.0032  0.2399
 6584W        W10648   8.291   2.303   2.364  0.2772  0.1736  0.2743
 6585W        W10649   2.919   6.853   0.649 -0.1328  0.0959 -0.4197
 6586W        W10650   7.675   2.970   9.598  0.1354  0.0002 -0.0058
 6587W        W10651   1.054   5.451   8.094  0.0399 -0.0136 -0.2231
 6588W        W10652   7.806   5.947  10.197  0.2939 -0.2342  0.2406
 6589W        W10653   9.769   2.906   1.111 -0.4354  0.1853 -0.0650
 6590W        W10654   2.033   3.460   8.746 -0.1588  0.1017  0.1621
 6591W        W10655   8.610   9.015   1.461  0.1455  0.0578  0.1923
 6592W        W10656   8.161   1.786   7.876 -0.3316 -0.0346 -0.1466
 6593W        W10657   5.222   0.888  11.215  0.2400 -0.1784  0.0694
 6594W        W10658   3.492  10.585   4.188 -0.0167  0.1073  0.1172
 6595W        W10659   0.509   0.276   7.332  0.2852 -0.0266  0.0422
 6596W        W10660   0.817   5.225   3.445  0.0027 -0.5306  0.4254
 6597W        W10661  10.390   1.941   3.304  0.0348  0.0476  0.1146
 6598W        W10662   2.672   5.930   1.120 -0.0670  0.1140 -0.3150
 6599W        W10663   3.910   8.877   8.602  0.2970  0.0044 -0.2272
 6600W        W10664   6.746   6.539   1.396  0.0047  0.1903  0.1284
 6601W        W10665   2.953   8.090   9.251  0.0132  0.3871  0.2417
 6602W        W10666   2.093   0.615   0.927 -0.0436  0.1675  0.0101
 6603W        W10667   2.433   7.264   0.677  0.2355 -0.0417 -0.3336
 6604W        W10668   8.625  10.262   4.146  0.3633 -0.2217  0.1303
 6605W        W10669   9.344   7.548   8.362 -0.3811  0.1238  0.4825
 6606W        W10670   9.018   8.399   8.916  0.1014 -0.0386 -0.2506
 6607W        W10671   6.643   5.023   9.519  0.0557 -0.1436 -0.1014
 6608W        W10672   5.858   6.494   2.992 -0.0854 -0.0785  0.1634
 6609W        W10673   3.152   1.009   0.268 -0.0653  0.1520 -0.3027
 6610W        W10674   9.781   2.937  11.213 -0.0328 -0.0945  0.1956
 6611W        W10675   3.753   6.229   9.207 -0.2042  0.0742  0.2599
 6612W        W10676   8.835   5.542   9.314  0.2266  0.1385  0.1301
 6613W        W10677   6.206   5.555  11.603  0.2519  0.0980 -0.1466
 6614W        W10678   2.957   6.105   9.345 -0.1725 -0.1087 -0.1965
 6615W        W10679   2.317   0.215   9.139  0.0381 -0.0609  0.2539
 6616W        W10680   3.318   4.013   0.524  0.4140  0.0811  0.0967
 6617W        W10681   2.350   5.875   8.160 -0.0257  0.2429  0.0787
 6618W        W10682   7.148   6.555   1.098 -0.2337  0.3647 -0.1394
 6619W        W10683   4.211   7.236  10.885 -0.2680  0.0322 -0.0367
 6620W        W10684   9.409   4.866   9.446 -0.2229  0.1477  0.2801
 6621W        W10685   4.652   8.362   8.627  0.0314 -0.0911  0.1308
 6622W        W10686   7.324   8.141   2.734 -0.0729 -0.0455  0.0022
 6623W        W10687   0.133   4.999   3.134  0.0585  0.1709  0.1469
 6624W        W10688   5.806   3.125  10.953 -0.0696  0.0230  0.1066
 6625W        W10689   6.156   4.700   9.028 -0.4210 -0.0749  0.0568
 6626W        W10690   8.329   5.369  10.055  0.0826 -0.0219  0.1434
 6627W        W10691   9.505   1.785   0.393  0.2476 -0.2160 -0.1134
 6628W        W10692   5.487   5.946   0.139 -0.0725  0.1199  0.2344
 6629W        W10693   0.616   4.546   3.390  0.0170  0.0702  0.0171
 6630W        W10694   8.640   4.366   8.693 -0.2508  0.4044  0.3830
 6631W        W10695   1.880   1.930  10.269 -0.2871 -0.5940 -0.4703
 6632W        W10696   6.778   7.483   8.812  0.0785  0.1053 -0.2207
 6633W        W10697   0.671   3.382  10.476  0.2765 -0.1579 -0.2078
 6634W        W10698   3.748   2.559   8.222 -0.1388  0.0365 -0.0926
 6635W        W10699   9.377   7.987   1.999  0.0749  0.1469 -0.0026
 6636W        W10700   6.987   0.510   0.857  0.1488  0.3073  0.2844
 6637W        W10701   3.405  10.028   8.866 -0.3363  0.0876  0.1809
 6638W        W10702   0.460   8.414   1.937 -0.2402 -0.0736  0.0514
 6639W        W10703   5.008   0.210   8.920  0.2499 -0.0220 -0.2038
 6640W        W10704  10.270   8.754   9.181  0.1328  0.1606 -0.0106
 6641W        W10705   1.170   3.663  10.701  0.4275 -0.2599 -0.0672
 6642W        W10706   7.628   2.504   2.672 -0.1943  0.0373  0.2862
 6643W        W10707   9.177   1.727   8.806  0.1027  0.1536 -0.0530
 6644W        W10708   8.949   2.680   4.045  0.0568  0.0505 -0.2109
 6645W        W10709   3.884  10.473   0.185 -0.2206  0.0277 -0.1664
 6646W        W10710   1.305   3.745  10.034  0.1782 -0.0889  0.0380
 6647W        W10711   7.854   8.668   1.701 -0.2578  0.0164  0.2205
 6648W        W10712   7.522   2.095   1.822 -0.0226  0.1731 -0.0914
 6649W        W10713   0.521   7.664   2.437 -0.0549  0.1301  0.0097
 6650W        W10714   8.949   4.909   8.077 -0.1944 -0.2581 -0.2763
 6651W        W10715   8.417   8.721   8.273 -0.0863  0.0497  0.0561
 6652W        W10716   0.632   7.461   9.990 -0.2131  0.0670 -0.1132
 6653W        W10717   0.777   1.433   2.923  0.1887 -0.2750 -0.4975
 6654W        W10718   3.778   1.610   1.306  0.1928 -0.1949 -0.0964
 6655W        W10719   8.774   0.151   0.847  0.0219  0.3310  0.2057
 6656W        W10720   1.256   2.531   2.473 -0.3751  0.4554 -0.4814
 6657W        W10721   0.208   0.037   0.030  0.0314  0.0238  0.0850
 6658W        W10722   0.984   3.755  11.156 -0.0431  0.0802 -0.0071
 6659W        W10723   3.551   3.748   2.930 -0.0328  0.2727  0.2952
 6660W        W10724   3.546   5.170   9.134  0.2109 -0.1184 -0.3131
 6661W        W10725   2.075   0.615   8.919 -0.1621  0.2913 -0.4177
 6662W        W10726   7.495   2.606   2.193 -0.4355 -0.3104 -0.2442
 6663W        W10727   3.434   9.509   2.038  0.2971 -0.2157 -0.2892
 6664W        W10728   1.744   4.245   8.723 -0.0935  0.0941  0.2084
 6665W        W10729   5.186   9.515   2.288 -0.1360  0.0195  0.2115
 6666W        W10730   1.994  10.025   9.377  0.2399 -0.5541 -0.3364
 6667W        W10731   9.321   5.162  10.186 -0.0979  0.0221 -0.0665
 6668W        W10732   0.783   8.381   8.510  0.0222 -0.2849  0.0345
 6669W        W10733   3.940   5.774   0.375 -0.1912  0.2947 -0.1998
 6670W        W10734   0.544   3.904   2.603  0.0155 -0.2761  0.1015
 6671W        W10735   8.186  10.382   1.369  0.2859 -0.1859  0.0099
 6672W        W10736   3.833   6.439   1.000  0.2565 -0.1096  0.2253
 6673W        W10737   5.607  10.366   3.634  0.0419  0.0767  0.1605
 6674W        W10738   2.693  10.614   3.955  0.2407  0.0152 -0.1598
 6675W        W10739   2.699   9.424   3.342  0.0775 -0.2104  0.4037
 6676W        W10740   7.798   4.291   0.385 -0.2266 -0.2848  0.0382
 6677W        W10741   5.193   5.434   9.503 -0.0104  0.3202 -0.1330
 6678W        W10742  10.286   0.970   8.384 -0.2511 -0.2302  0.2365
 6679W        W10743   2.104   3.595   8.279 -0.1461  0.1604  0.1321
 6680W        W10744   7.588   3.611  10.897  0.1145 -0.0035  0.2964
 6681W        W10745   2.188   1.489   0.301 -0.0795 -0.1114  0.0224
 6682W        W10746   6.363   5.862   9.613  0.0314 -0.3072 -0.0595
 6683W        W10747   7.209  10.219   1.066  0.0608 -0.0275  0.1109
 6684W        W10748   5.359   3.006  10.983  0.2479  0.4023  0.0542
 6685W        W10749   8.902   9.618   0.695  0.0117  0.0729 -0.2629
 6686W        W10750   8.163   1.806   9.996 -0.1987 -0.2562  0.1201
 6687W        W10751   7.562   5.576   8.955  0.1227  0.4535 -0.0738
 6688W        W10752  10.585   4.117  10.887  0.0458  0.1287  0.1556
 6689W        W10753   8.860   3.510   3.691  0.3527 -0.4743  0.2182
 6690W        W10754   3.076   8.106  11.307  0.2135  0.0247  0.0090
 6691W        W10755   7.154   3.358   3.009  0.1546  0.0399 -0.0296
 6692W        W10756   3.555   0.859   2.750 -0.4554 -0.0590  0.2356
 6693W        W10757   9.981   4.590   2.527 -0.0863  0.0810 -0.0565
 6694W        W10758   6.954  10.142   9.521 -0.1302  0.1554  0.0394
 6695W        W10759   1.639   4.074   9.605  0.0447  0.2790 -0.1243
 6696W        W10760   1.925   1.496  10.796  0.2507  0.0465  0.1458
 6697W        W10761   0.378   2.033   8.736 -0.0333  0.0814 -0.0758
 6698W        W10762   6.457   7.759   3.457  0.0513 -0.1076 -0.1820
 6699W        W10763   3.767   9.121   1.447  0.1773 -0.4066  0.3129
 6700W        W10764   5.810   5.229  10.210  0.0553 -0.0189 -0.3629
 6701W        W10765   5.726   1.362   0.272 -0.0061 -0.2448  0.0009
 6702W        W10766   9.328   7.339   1.443  0.0643 -0.1832  0.2025
 6703W        W10767   8.192   2.482   1.041  0.2153  0.2807 -0.1809
 6704W        W10768   9.325   9.884   7.734 -0.0737 -0.1272  0.1705
 6705W        W10769   4.648   4.956  11.254  0.1615  0.2901  0.0660
 6706W        W10770   9.066   8.301  10.101 -0.0749  0.2106 -0.0273
 6707W        W10771   6.664  10.598   9.347 -0.2209  0.1393 -0.1675
 6708W        W10772   4.798   6.672   2.571  0.0010  0.1515 -0.0772
 6709W        W10773   6.823   3.943   8.422  0.1092  0.2878  0.0523
 6710W        W10774   6.181   8.908   2.134 -0.1858 -0.1139  0.3144
 6711W        W10775   3.286   6.749   1.129 -0.1298  0.3851 -0.0755
 6712W        W10776   2.425   1.396   1.530 -0.0641  0.0606  0.3391
 6713W        W10777   8.240   0.059   0.991  0.1121  0.1974 -0.0201
 6714W        W10778  10.481   2.889  11.567 -0.3324 -0.0580 -0.0748
 6715W        W10779  10.003   6.441   9.447 -0.0406  0.0636  0.1213
 6716W        W10780   1.293   1.805   8.389  0.0148  0.2514 -0.3952
 6717W        W10781   2.183   0.924   8.014  0.0444  0.0686  0.2038
 6718W        W10782   5.553   3.804  10.078 -0.3317  0.1210 -0.1616
 6719W        W10783   5.686   7.529   2.623 -0.1152 -0.1319 -0.3332
 6720W        W10784  10.001  10.277   3.091 -0.4287  0.1679  0.0040
 6721W        W10785   6.543   1.866   2.457 -0.1429 -0.1709 -0.0706
 6722W        W10786   9.973   3.663   2.131  0.0199  0.0204 -0.2691
 6723W        W10787   8.340   2.249   9.913 -0.1969 -0.1068 -0.1700
 6724W        W10788   0.668   2.000   3.609 -0.2283  0.0483  0.0669
 6725W        W10789   4.838   6.156  10.370  0.2037  0.2237 -0.0173
 6726W        W10790   9.638   1.921   8.212  0.1350 -0.2518 -0.1786
 6727W        W10791   3.419   6.966  10.585  0.0793 -0.0652 -0.2100
 6728W        W10792   7.333   9.547   0.161  0.0104  0.3247  0.0681
 6729W        W10793   9.138   4.207   0.955 -0.1488 -0.0662  0.1359
 6730W        W10794   2.769   2.143  11.573  0.0989  0.2333  0.0152
 6731W        W10795   5.000   6.104   0.329  0.1866  0.1477  0.0593
 6732W        W10796   9.692   8.656   2.562 -0.0600 -0.2087 -0.0606
 6733W        W10797   9.530   0.255   7.945  0.2260 -0.1447 -0.1183
 6734W        W10798   6.174   6.830   2.598  0.2126 -0.1311 -0.0347
 6735W        W10799   6.145   2.119  11.364 -0.0379  0.2264  0.0843
 6736W        W10800   9.669   7.615   2.248  0.1605 -0.3918 -0.0037
 6737W        W10801   2.142   4.706   9.398  0.2437 -0.0909  0.1167
 6738W        W10802   2.144   1.454  10.376  0.2340 -0.0084  0.3393
 6739W        W10803   4.486   8.451  10.215 -0.0285 -0.0606  0.0646
 6740W        W10804   8.627   7.286   3.204 -0.0203 -0.1348 -0.0923
 6741W        W10805   8.006   5.584  10.493  0.2872  0.1510  0.0392
 6742W        W10806   7.074   0.846   8.889 -0.0769  0.2911 -0.2893
 6743W        W10807   5.193   2.173  10.188  0.2141 -0.1796  0.1154
 6744W        W10808   8.859   5.275  10.298  0.0507 -0.0260  0.0887
 6745W        W10809   9.704   7.720   8.644  0.2300 -0.2443  0.0489
 6746W        W10810   1.787   3.673   1.208  0.1486 -0.2061 -0.1240
 6747W        W10811   1.493   8.426   9.366  0.0891 -0.2297 -0.0112
 6748W        W10812   1.278   0.860   8.183  0.1314 -0.1369  0.0434
 6749W        W10813   8.964   4.536   1.388  0.0234  0.1509  0.0055
 6750W        W10814   9.872   7.405  11.372 -0.1414  0.2826 -0.4036
 6751W        W10815   3.644   6.264   4.518 -0.0055  0.2051  0.1352
 6752W        W10816   9.762   0.850  10.526  0.0557 -0.1401  0.1929
 6753W        W10817   4.344   8.812   9.326 -0.0570 -0.2199  0.0435
 6754W        W10818   7.055   2.490   3.586 -0.2413 -0.3149 -0.1067
 6755W        W10819  10.435   7.381   0.579  0.2220 -0.3118 -0.1556
 6756W        W10820  10.486   1.316   1.878  0.1952 -0.1702  0.0031
 6757W        W10821   7.439   3.591   4.133 -0.0744  0.2153  0.3045
 6758W        W10822   0.651   7.952   9.362 -0.1877 -0.0897  0.3302
 6759W        W10823  10.521   8.133  11.387  0.1398  0.1677  0.2828
 6760W        W10824   7.767   8.261  10.417  0.1152  0.1140 -0.0102
 6761W        W10825   3.604   4.635   9.279  0.1201  0.0324 -0.0100
 6762W        W10826   4.080   5.096   1.396  0.3900  0.2371 -0.1520
 6763W        W10827   3.342   5.323  10.088 -0.0936 -0.2849  0.0069
 6764W        W10828   7.644   5.249   8.492 -0.1787  0.0906  0.2720
 6765W        W10829   8.386   5.232  10.540  0.0830 -0.2065  0.0302
 6766W        W10830   6.367   0.231   8.509 -0.1015 -0.4013 -0.1656
 6767W        W10831   7.149   4.883   1.953 -0.0243  0.2103 -0.1090
 6768W        W10832   3.073   5.267   3.515 -0.1561  0.0968 -0.1754
 6769W        W10833   6.309   3.856   1.650 -0.1721 -0.0348 -0.0800
 6770W        W10834   3.766   9.785  10.109  0.0509  0.2520 -0.0957
 6771W        W10835   0.478   7.238   8.534  0.1510 -0.0052 -0.0528
 6772W        W10836   6.823   9.852   0.738 -0.0793  0.4641 -0.3340
 6773W        W10837   7.346   0.419   1.872  0.1232  0.0829 -0.2001
 6774W        W10838   2.653   8.504   9.925 -0.1792 -0.1719  0.1098
 6775W        W10839   6.528   8.598   9.714 -0.2790  0.3996 -0.3788
 6776W        W10840   8.778   7.238   1.410  0.0580 -0.2574  0.5150
 6777W        W10841   6.053  10.244   9.246  0.0295  0.0740 -0.2539
 6778W        W10842   1.671   9.182   7.213 -0.1459 -0.0083 -0.0027
 6779W        W10843   0.056  10.608   4.010  0.1700 -0.0659  0.0877
 6780W        W10844   3.084   0.800   3.726 -0.1978 -0.0517  0.0263
 6781W        W10845   3.274   2.224   2.439 -0.1949  0.0799  0.0785
 6782W        W10846   4.381   2.712   9.730 -0.4647 -0.2306 -0.0438
 6783W        W10847   4.865   9.157   2.712  0.0402  0.4773 -0.2698
 6784W        W10848   3.873   3.074  10.622  0.0338 -0.1725  0.1617
 6785W        W10849   8.329   1.333   2.280  0.2114 -0.0015 -0.1543
 6786W        W10850   9.623   4.374   8.070 -0.4149 -0.0404  0.1299
 6787W        W10851   3.277   9.634   2.672 -0.1723  0.1305  0.0962
 6788W        W10852   6.199   3.079   1.433 -0.1047 -0.0436  0.1084
 6789W        W10853   9.726   9.732   7.436 -0.3095 -0.2626 -0.3244
 6790W        W10854   6.715   1.696  10.625  0.2398  0.1446  0.1802
 6791W        W10855   9.092   6.785  11.434  0.0962  0.0708  0.1052
 6792W        W10856   8.592   1.864   7.635  0.0038 -0.0808  0.3288
 6793W        W10857   8.314   3.120   0.208  0.0159  0.1315  0.0461
 6794W        W10858   9.077   6.829   1.487 -0.1702  0.2152  0.1687
 6795W        W10859   7.968   2.691   2.304  0.2821 -0.0085 -0.0120
 6796W        W10860   7.422   6.612  11.456 -0.0419 -0.0964 -0.0484
 6797W        W10861   5.861   8.292   2.606 -0.1820  0.0706 -0.0835
 6798W        W10862   8.917   1.416   3.742  0.2635  0.1634  0.0988
 6799W        W10863   6.924   4.615  10.137 -0.0331 -0.3488  0.2731
 6800W        W10864   2.292   8.924  11.241  0.0035 -0.0985  0.0968
 6801W        W10865   1.226   7.204  10.173 -0.1671 -0.1844  0.4566
 6802W        W10866   8.580   2.883   2.913  0.5033  0.2065 -0.0554
 6803W        W10867   9.368   5.112   3.558  0.0393 -0.0387 -0.4304
 6804W        W10868   1.241   4.059   1.853 -0.0845  0.2905  0.0524
 6805W        W10869   9.252   8.433   2.280 -0.2058 -0.1288  0.1317
 6806W        W10870   5.321   5.244   1.912 -0.1619  0.1141 -0.1618
 6807W        W10871   8.733   2.152  11.345  0.0198  0.0180 -0.1553
 6808W        W10872   9.430  10.088   9.902  0.0791  0.2851 -0.0247
 6809W        W10873   5.996   4.042  10.043 -0.1152  0.0686  0.1897
 6810W        W10874   4.258   5.717  10.888  0.1708 -0.2145  0.0491
 6811W        W10875   3.666   9.596   0.803 -0.0076 -0.0148 -0.1312
 6812W        W10876   9.825   2.637  10.846 -0.1445 -0.0055 -0.0283
 6813W        W10877   5.042   0.170   0.994  0.0426  0.5353 -0.1716
 6814W        W10878   9.851   7.286   3.337  0.2868 -0.4136  0.1343
 6815W        W10879   4.039   2.846   2.453  0.1046  0.1384 -0.1715
 6816W        W10880   9.177   1.248   2.935  0.1105 -0.2885 -0.1185
 6817W        W10881   9.302   0.881  10.822  0.2342  0.2334 -0.1671
 6818W        W10882   6.435   9.019   0.448 -0.3367 -0.0815  0.1928
 6819W        W10883   1.952   1.344   1.647 -0.0767 -0.2153  0.0188
 6820W        W10884   3.132   4.146  10.514 -0.0472  0.0269  0.0677
 6821W        W10885   0.566   0.344   1.925 -0.0910  0.2195 -0.3302
 6822W        W10886   1.946   5.068   1.959  0.0842 -0.2177  0.1508
 6823W        W10887   6.427  10.567   2.775  0.0151 -0.0920  0.5429
 6824W        W10888   3.731  10.124   2.171 -0.1416 -0.0588 -0.0933
 6825W        W10889   2.718   9.216   1.547  0.1252  0.0753 -0.1850
 6826W        W10890  10.159   6.022  11.431  0.0706  0.2087 -0.1571
 6827W        W10891   3.004   6.361   1.320  0.3503 -0.0143 -0.1881
 6828W        W10892   1.995   9.895  11.054 -0.0818  0.0075  0.1597
 6829W        W10893   7.206   6.909  10.407  0.1088  0.1509  0.1088
 6830W        W10894  10.368   9.962   8.731  0.0341 -0.2462 -0.0602
 6831W        W10895   1.363   8.730   3.644  0.0641  0.1390 -0.0201
 6832W        W10896   6.331   7.060   8.682  0.2087 -0.0134 -0.1994
 6833W        W10897   5.087   6.867   1.020 -0.0313  0.1856 -0.3675
 6834W        W10898   2.496   3.893   0.368 -0.0831  0.0873 -0.1277
 6835W        W10899   1.180  10.130   2.778 -0.0043 -0.2117 -0.0556
 6836W        W10900   7.142   5.671   1.851 -0.0959  0.2411  0.1070
 6837W        W10901   4.964   9.645   0.474  0.1671  0.0306  0.2110
 6838W        W10902   3.768   0.654   3.491 -0.2996  0.1099 -0.0237
 6839W        W10903   5.491   2.033   0.654  0.0122 -0.1870 -0.1396
 6840W        W10904   9.601   5.744   9.054 -0.0554  0.0317 -0.2964
 6841W        W10905   8.475  10.395   3.241  0.2294 -0.2119  0.2169
 6842W        W10906   4.338   1.532   0.703  0.0373 -0.1031 -0.0632
 6843W        W10907   2.663   5.457   4.080  0.2284  0.1054 -0.1681
 6844W        W10908   3.557   6.397   1.634 -0.0862 -0.1104 -0.0743
 6845W        W10909   3.514   5.962   9.531 -0.0610  0.0003 -0.1670
 6846W        W10910   3.032   3.186   3.864 -0.1644 -0.0637  0.0075
 6847W        W10911   3.602   9.041  10.732 -0.0297  0.1573  0.1410
 6848W        W10912  10.161   8.728   2.816  0.3408  0.3860 -0.1918
 6849W        W10913   6.409   6.209   7.966  0.0788 -0.3458 -0.0317
 6850W        W10914  10.043  10.166   8.220  0.3328  0.0077 -0.0289
 6851W        W10915   7.703   0.299   0.878 -0.0772  0.2986 -0.0460
 6852W        W10916   4.045   6.256   4.211  0.0670 -0.1406  0.0799
 6853W        W10917   7.665   3.196   3.863 -0.0478 -0.0045 -0.2464
 6854W        W10918   9.709   6.539   3.826 -0.1077  0.0849 -0.0235
 6855W        W10919   3.665   7.015   9.759  0.0193  0.1023 -0.0647
 6856W        W10920   3.706   5.324  10.930 -0.2033 -0.0274  0.0121
 6857W        W10921   8.543   4.833   8.366 -0.3066  0.1125  0.0734
 6858W        W10922   5.579   5.541   3.410  0.2432  0.2980 -0.0816
 6859W        W10923   8.036   7.496   0.059  0.1484  0.2079 -0.0769
 6860W        W10924   5.942   6.491   8.028 -0.0711 -0.0592 -0.0320
 6861W        W10925   6.164   8.153   1.760  0.0717 -0.1234  0.0887
 6862W        W10926   3.582   1.877   0.869 -0.1376  0.3102  0.1627
 6863W        W10927   8.882   9.407  11.489 -0.0221  0.4404  0.4932
 6864W        W10928   6.725   1.681  11.611  0.0836  0.1594  0.0253
 6865W        W10929   0.397  10.093  10.259 -0.0592  0.0770  0.1937
 6866W        W10930   8.301   4.088   1.887 -0.0755  0.2695  0.2480
 6867W        W10931   8.951   9.420   7.725 -0.0089  0.1822  0.0420
 6868W        W10932   9.472   8.025   1.447 -0.3378  0.4706  0.0698
 6869W        W10933   1.016  10.160   9.952  0.0725 -0.1675 -0.3329
 6870W        W10934   8.304   5.242   8.535  0.2163  0.1680  0.3249
 6871W        W10935   1.708   6.334  11.431  0.0547 -0.1302 -0.0513
 6872W        W10936   7.653   4.839   3.119 -0.1549  0.2954 -0.0075
 6873W        W10937   3.950   7.728   0.894 -0.2798 -0.1034  0.0590
 6874W        W10938   3.620   6.329   9.830 -0.0895  0.4805 -0.0501
 6875W        W10939   4.365   3.461   8.679 -0.3495 -0.3470  0.0673
 6876W        W10940   2.185   8.525  10.884 -0.0705  0.2305  0.2329
 6877W        W10941   4.096   1.751  11.142  0.3373  0.3305  0.3237
 6878W        W10942   9.556   5.997  10.297 -0.1944 -0.1174  0.0001
 6879W        W10943   8.499   2.455  10.470 -0.2386 -0.1877 -0.3751
 6880W        W10944   6.150   2.640   1.148  0.1026 -0.2008  0.0266
 6881W        W10945   1.597   3.642   8.543 -0.0626 -0.0622  0.0788
 6882W        W10946   6.661   9.531   1.325 -0.0238 -0.0674  0.1110
 6883W        W10947   0.461   1.539   8.824 -0.2587  0.0768 -0.2789
 6884W        W10948   1.205  10.247   1.959 -0.2635 -0.1181  0.1963
 6885W        W10949   0.698   2.500   1.268  0.0604 -0.0251 -0.3118
 6886W        W10950   2.574   7.734   1.851  0.1753  0.1234  0.2444
 6887W        W10951   8.682   2.246   9.267  0.1425  0.0393  0.1367
 6888W        W10952   6.345   7.291  10.643  0.0453  0.3310 -0.2929
 6889W        W10953   1.038   6.296   2.545 -0.3000 -0.0127 -0.1438
 6890W        W10954  10.551   2.769   1.627  0.0768  0.0544  0.0716
 6891W        W10955   1.273   8.831   9.540  0.0226  0.0115  0.0057
 6892W        W10956   3.188   2.083   1.088 -0.1893 -0.1231 -0.0729
 6893W        W10957   8.522   6.852  11.174 -0.3592  0.1104 -0.0714
 6894W        W10958   2.854   5.439  11.610 -0.3703  0.2711  0.1241
 6895W        W10959   2.944   2.652  11.621 -0.1066 -0.1181 -0.0323
 6896W        W10960   9.104   9.471   9.145 -0.2559 -0.2656  0.2082
 6897W        W10961   7.968   8.632  11.451 -0.1099  0.2491 -0.0118
 6898W        W10962   3.606   7.498  11.185  0.2736  0.1726  0.1728
 6899W        W10963   1.387   5.789   2.962 -0.1587  0.2237  0.0949
 6900W        W10964   3.056  10.611   3.118 -0.2002  0.0106  0.4902
 6901W        W10965   0.966   7.713  10.250 -0.0967 -0.0735 -0.0063
 6902W        W10966   6.116   9.098   0.817  0.2703  0.0718 -0.1580
 6903W        W10967   3.179   9.551   3.165 -0.1902  0.3189 -0.2174
 6904W        W10968   9.303   7.046   0.434  0.2462  0.1150  0.0485
 6905W        W10969   3.591   5.157   3.415 -0.0352  0.0612  0.1818
 6906W        W10970   6.544   3.453   1.471  0.1018  0.3973  0.1416
 6907W        W10971  10.018   4.718  10.172 -0.2252 -0.1416 -0.0981
 6908W        W10972   8.304  10.064  10.039  0.0855 -0.0927 -0.0278
 6909W        W10973   4.186   8.953   7.849  0.1773 -0.0315 -0.0220
 6910W        W10974   2.677   3.668   2.304  0.2834 -0.1519  0.0210
 6911W        W10975   1.278   6.905   8.170 -0.0529 -0.1812 -0.3420
 6912W        W10976   8.190   3.811   4.462  0.2563 -0.1372 -0.2319
 6913W        W10977   7.744   7.136   1.927 -0.4846  0.3739 -0.2259
 6914W        W10978   9.857   3.730   0.854 -0.1031  0.3079 -0.2287
 6915W        W10979   3.529   9.941   3.907  0.2166 -0.1654 -0.0362
 6916W        W10980  10.422   9.639   1.791 -0.0956  0.1299  0.0979
 6917W        W10981   1.295   6.230  11.160 -0.2130 -0.1574  0.2133
 6918W        W10982   7.128   7.091   3.906  0.0824  0.2850 -0.1766
 6919W        W10983   7.111   2.399   8.696 -0.2472 -0.1307  0.1908
 6920W        W10984   9.332   0.843   2.701 -0.1374 -0.0645  0.3107
 6921W        W10985  10.010  10.498  10.067  0.1845 -0.0259 -0.1167
 6922W        W10986   6.541   0.435  11.322 -0.4703  0.1329  0.2297
 6923W        W10987   3.114   1.758   0.086 -0.1215 -0.1264 -0.1132
 6924W        W10988   7.903   0.819   8.547  0.0259 -0.0161  0.1104
 6925W        W10989   6.975   9.492   8.741 -0.2388 -0.1814 -0.3129
 6926W        W10990   5.628   6.970   2.891 -0.1426  0.1402 -0.1383
 6927W        W10991   5.288   3.002   2.744 -0.1360  0.2830  0.0759
 6928W        W10992   6.607   4.521   3.886  0.2480 -0.1902  0.1432
 6929W        W10993   5.051   3.092   0.651  0.1540  0.0487 -0.0116
 6930W        W10994  10.055   0.573   3.374 -0.0371  0.1370  0.1233
 6931W        W10995   2.870   5.529  11.088 -0.0129  0.1677  0.0679
 6932W        W10996   2.036   6.608   3.060  0.3680  0.1579  0.5430
 6933W        W10997   8.351   4.437   9.691  0.0344  0.1750  0.2325
 6934W        W10998   9.616   4.291   0.897  0.0320 -0.3372  0.1694
 6935W        W10999   2.650   3.738  10.209  0.1929 -0.2475  0.2521
 6936W        W11000   4.600   3.364   9.696 -0.0215  0.1824  0.0100
 6937W        W11001   2.830   8.568   1.047  0.0722  0.1025 -0.0679
 6938W        W11002   8.366   8.596   0.102  0.0595 -0.0428  0.2515
 6939W        W11003   1.460   9.056   3.008 -0.2421  0.0289  0.0590
 6940W        W11004  10.165   4.458  11.099 -0.2495 -0.1327  0.2105
 6941W        W11005   2.798   5.121   1.818  0.1669  0.0166 -0.0124
 6942W        W11006   5.634   0.445  11.312  0.0954 -0.2486 -0.2824
 6943W        W11007   2.134  10.433   8.352  0.1056  0.3013  0.1048
 6944W        W11008   9.525   5.618   9.962 -0.2184 -0.2176  0.1581
 6945W        W11009   2.904   5.205   2.381  0.4500  0.2349  0.0857
 6946W        W11010  10.278   1.838   1.605 -0.0513 -0.2097  0.2089
 6947W        W11011   9.595   1.983   7.206  0.1432 -0.0027 -0.0884
 6948W        W11012   4.400   7.356   2.913 -0.5811 -0.2229 -0.1614
 6949W        W11013   7.450   2.005   0.666 -0.0058 -0.2202  0.5178
 6950W        W11014   7.472   8.314  10.034 -0.0246 -0.1320  0.3471
 6951W        W11015   7.160   5.049   1.462  0.1493  0.1372 -0.0715
 6952W        W11016   8.247   3.080   2.575  0.0676  0.0740 -0.0308
 6953W        W11017   1.485   1.851  10.683  0.0572  0.1549  0.1049
 6954W        W11018   5.795   1.080   3.379 -0.1689  0.1021  0.1437
 6955W        W11019   3.355   9.381   9.302  0.0327  0.0558  0.0808
 6956W        W11020   6.309   4.867   0.654  0.3341  0.1384  0.1224
 6957W        W11021   3.872   7.609  11.630 -0.0377 -0.3489 -0.1051
 6958W        W11022   5.161   8.701   1.914  0.0024 -0.0267 -0.3712
 6959W        W11023   0.104   2.744  10.755 -0.0820 -0.2033  0.3070
 6960W        W11024   3.932   6.214   0.118 -0.1609 -0.6645 -0.1689
 6961W        W11025   2.634   8.409   2.574 -0.1772 -0.0983  0.0278
 6962W        W11026   2.524   8.807   0.095  0.3304 -0.0259  0.0018
 6963W        W11027   0.782   0.695   0.560 -0.3078 -0.0105 -0.2872
 6964W        W11028   5.117   9.241   8.984 -0.1808  0.0235  0.0605
 6965W        W11029   2.874   1.206   9.127  0.0630 -0.3848  0.0767
 6966W        W11030   7.512   9.888   9.998  0.0772 -0.2928 -0.4919
 6967W        W11031   4.135   8.054   3.245 -0.2547  0.0960  0.0320
 6968W        W11032   4.366   4.222   9.908 -0.1318 -0.2771 -0.1955
 6969W        W11033   5.223   6.943   0.359 -0.2000  0.1388 -0.0258
 6970W        W11034   6.630   9.086   1.941  0.0848  0.4303 -0.0743
 6971W        W11035   6.396   8.159   2.462  0.3230  0.2618  0.1414
 6972W        W11036   2.716   2.112   9.108  0.1086  0.4982 -0.4086
 6973W        W11037   4.441   8.267   0.034 -0.3499  0.0391 -0.3683
 6974W        W11038   8.818   6.875  10.082 -0.0096 -0.3070 -0.1018
 6975W        W11039   6.237   2.277   2.785  0.0124  0.2906  0.2738
 6976W        W11040   6.087   9.493  11.308  0.0120 -0.2814  0.0613
 6977W        W11041   0.287   8.535   2.576  0.1657  0.1254 -0.0490
 6978W        W11042   0.420   0.306   2.420 -0.1346  0.1150  0.1309
 6979W        W11043   1.171   4.985   0.017 -0.0307 -0.2472 -0.3644
 6980W        W11044   3.433   9.089   8.514  0.3828 -0.2636  0.2802
 6981W        W11045   6.572   4.034   9.386 -0.1396 -0.1784  0.0798
 6982W        W11046   6.739   5.605  11.247  0.2989 -0.0179  0.0811
 6983W        W11047   0.803   9.945   2.120 -0.0476 -0.1749  0.1912
 6984W        W11048   3.630   5.027   2.850  0.0292  0.0860 -0.2387
 6985W        W11049   7.394   9.096  11.001  0.0019 -0.1184 -0.0595
 6986W        W11050   3.154   0.527   2.911  0.2591 -0.1866  0.0600
 6987W        W11051   1.119   3.244   1.685 -0.0091  0.1021 -0.1492
 6988W        W11052   2.354   5.429   1.110  0.0769  0.0895 -0.1114
 6989W        W11053   3.377  10.465   3.658 -0.5227  0.0429 -0.1647
 6990W        W11054   1.287   2.660   0.605  0.1739 -0.4452  0.2242
 6991W        W11055   4.575   7.214  11.305  0.0294 -0.0663 -0.1469
 6992W        W11056   3.436   5.547   0.962  0.0444  0.0523 -0.0834
 6993W        W11057   2.844   3.991   8.936 -0.1141 -0.1151 -0.2185
 6994W        W11058   1.824  10.599   9.288 -0.3955 -0.0762  0.2792
 6995W        W11059   7.712   4.414   3.968  0.3134 -0.2244  0.1029
 6996W        W11060   1.682   8.129   9.689  0.0373  0.4202 -0.0542
 6997W        W11061   0.728   7.128  10.312  0.0046  0.2773  0.1289
 6998W        W11062   6.469   9.965  10.133 -0.3232 -0.0088  0.0431
 6999W        W11063   0.026   2.740   2.937 -0.0340 -0.0682 -0.0444
 7000W        W11064   7.506   1.633   8.701 -0.0971  0.0914  0.1475
 7001W        W11065   5.176   7.841  10.467  0.2332  0.1851 -0.1080
 7002W        W11066   3.407   1.485   0.547  0.2514 -0.0332 -0.2212
 7003W        W11067   4.872   6.678  10.100  0.1805  0.1154  0.0160
 7004W        W11068   5.190   3.800   3.427  0.0935 -0.1536 -0.0701
 7005W        W11069   9.587   9.542   1.504  0.0061  0.1167  0.0371
 7006W        W11070   7.883   8.299   7.792 -0.1966 -0.0851  0.2298
 7007W        W11071   0.663   6.795   8.383 -0.2898  0.1268 -0.0271
 7008W        W11072   6.839   3.279   9.790 -0.0856 -0.0221 -0.3668
 7009W        W11073   4.029   3.984   9.053 -0.0254  0.0651 -0.0364
 7010W        W11074   9.972  10.195   7.595  0.0229 -0.0980 -0.0812
 7011W        W11075   8.414   0.346   3.212  0.0177 -0.1649  0.2331
 7012W        W11076   8.007   2.562   9.703 -0.4186  0.0005  0.1431
 7013W        W11077   6.365   0.127   9.855 -0.1757 -0.2923 -0.2731
 7014W        W11078   8.074   1.787   1.812  0.0369 -0.0203 -0.3196
 7015W        W11079   7.658   7.833  11.536  0.0422  0.1885  0.0859
 7016W        W11080   1.007   1.954   2.106  0.3007  0.2268 -0.1828
 7017W        W11081   5.037   6.762   3.390  0.3009  0.0057  0.0787
 7018W        W11082   5.326   0.184   8.167 -0.0981 -0.1049  0.2603
 7019W        W11083   8.820   9.015   9.592  0.2275  0.0684  0.2562
 7020W        W11084   5.503   9.970   2.637  0.2035  0.1010  0.0809
 7021W        W11085   3.013  10.104  11.537 -0.1536 -0.0841 -0.2333
 7022W        W11086   8.930   3.670  10.273  0.2057  0.0670 -0.1962
 7023W        W11087   1.247   4.036   0.299 -0.2199 -0.0357 -0.0175
 7024W        W11088  10.056   4.403   8.880  0.0985  0.1063 -0.1919
 7025W        W11089   2.461   6.199   8.904 -0.3029 -0.1397 -0.4890
 7026W        W11090   8.662   5.523   2.932 -0.3198  0.2431 -0.0384
 7027W        W11091   3.738   9.352  11.564 -0.4928 -0.1418 -0.1212
 7028W        W11092   8.489   9.890   3.386 -0.2044 -0.0582  0.1701
 7029W        W11093   2.547   9.471   9.621 -0.1144  0.0686  0.2852
 7030W        W11094   1.258   3.943   1.333 -0.0740 -0.4770  0.0557
 7031W        W11095   4.131   7.241   1.481  0.0793  0.1221 -0.0066
 7032W        W11096   1.332   5.206   1.900  0.0719 -0.0621  0.2000
 7033W        W11097   6.994   2.699   2.489 -0.4387 -0.0479  0.0138
 7034W        W11098   4.746   9.550   2.477 -0.1806  0.0620 -0.0109
 7035W        W11099   1.313   8.860  11.081  0.1618  0.2009  0.3548
 7036W        W11100   7.627   9.126   8.837 -0.0080  0.0222 -0.2218
 7037W        W11101   6.078   3.602  10.012  0.1341  0.4075  0.2910
 7038W        W11102   0.223   3.634   8.916 -0.3233  0.0079  0.0398
 7039W        W11103   3.878   6.808   1.353  0.2492  0.0741 -0.1554
 7040W        W11104   4.446   8.596   9.758 -0.2662  0.1301 -0.3404
 7041W        W11105   0.872   5.510   2.024 -0.2881 -0.4181 -0.1258
 7042W        W11106   3.599   4.783   8.345 -0.1534  0.1612 -0.0770
 7043W        W11107   6.629   7.911   0.924 -0.0525  0.0874 -0.2806
 7044W        W11108   4.704  10.402   9.403  0.1100  0.0092  0.0308
 7045W        W11109   2.293   2.195   2.727  0.1923  0.0696 -0.1166
 7046W        W11110  10.419   4.999   9.734 -0.1147 -0.1911  0.0467
 7047W        W11111   3.489   2.321  10.760  0.0099 -0.3355 -0.0865
 7048W        W11112   6.225   6.224   0.576  0.1781 -0.0258  0.0352
 7049W        W11113   0.943   3.946   2.816  0.1813 -0.0870  0.0179
 7050W        W11114   7.345   9.684   0.615  0.0336 -0.2948 -0.2751
 7051W        W11115   7.553   1.599   1.758  0.1078 -0.0786  0.1081
 7052W        W11116   5.078   1.175  10.858  0.1474 -0.1196  0.0892
 7053W        W11117   9.383   3.434   9.296  0.1671 -0.0356 -0.3029
 7054W        W11118   4.260   8.437   2.441 -0.0751 -0.1792 -0.0219
 7055W        W11119   8.044   2.466  10.775  0.3034  0.2323 -0.1206
 7056W        W11120   0.099   8.836   8.907  0.0925 -0.0135 -0.3293
 7057W        W11121   2.341   0.538   3.243  0.0772 -0.1236  0.3399
 7058W        W11122   0.802   2.289   1.740 -0.0455  0.2631  0.0621
 7059W        W11123   0.699   0.125   7.851  0.0004 -0.0340 -0.0043
 7060W        W11124   4.575   8.780   8.309  0.1053 -0.2390  0.0137
 7061W        W11125   7.989   5.846   0.255  0.2787  0.2150 -0.1365
 7062W        W11126   8.877   3.508   1.194  0.2028  0.1832  0.0693
 7063W        W11127   8.631   4.231   0.791 -0.0679  0.0604 -0.0514
 7064W        W11128   4.973   8.202   0.566  0.0336 -0.1607 -0.1687
 7065W        W11129   1.149   0.880   1.444  0.1635  0.2005 -0.0144
 7066W        W11130   8.145  10.190  10.813 -0.6320  0.1978  0.1443
 7067W        W11131   3.679   7.174   8.158 -0.0518 -0.2652 -0.2041
 7068W        W11132   3.602   2.725  10.378 -0.4200 -0.1551  0.0378
 7069W        W11133   0.227   3.194   8.653 -0.0490 -0.0824  0.1835
 7070W        W11134   2.252   9.752   0.697 -0.0564 -0.1789  0.0375
 7071W        W11135   2.943   6.021  11.106 -0.0622  0.1655  0.2359
 7072W        W11136   8.344   9.463  11.455  0.1194 -0.0454 -0.0847
 7073W        W11137   7.536   5.610   2.151  0.2046 -0.2953  0.2730
 7074W        W11138   0.917   0.260   2.360 -0.1281  0.5448 -0.1740
 7075W        W11139   0.135   8.742  10.395  0.0417 -0.0187 -0.0193
 7076W        W11140   7.819   7.399  10.986  0.1048 -0.0791 -0.0143
 7077W        W11141   4.852   6.339   3.572  0.2692 -0.0364 -0.0183
 7078W        W11142  10.427   5.740   4.093 -0.0987  0.1102  0.0517
 7079W        W11143   0.989   1.788   9.783  0.0218  0.1558 -0.0516
 7080W        W11144   4.836   7.723   0.921 -0.0084 -0.1377 -0.2001
 7081W        W11145   4.599   2.357   9.446 -0.1436  0.0868 -0.0385
 7082W        W11146   5.793   3.436  10.450 -0.1033 -0.0915  0.0031
 7083W        W11147   6.456   4.806   3.169  0.0481 -0.0340 -0.1076
 7084W        W11148   0.338   0.295   0.548 -0.1322  0.1127  0.1512
 7085W        W11149   3.663   5.590   1.376  0.2720  0.0982  0.1249
 7086W        W11150  10.538   7.623   2.363  0.1828  0.1591 -0.1608
 7087W        W11151   3.578   5.731   0.011 -0.3512  0.2887  0.0662
 7088W        W11152   8.629   6.809   9.323  0.0665 -0.0662  0.0133
 7089W        W11153   3.143   3.462   1.991  0.3001  0.1603 -0.0034
 7090W        W11154   6.469   7.091  10.195  0.4901 -0.1604  0.1939
 7091W        W11155   0.838   8.163   8.027 -0.0832  0.0708 -0.1095
 7092W        W11156   3.048   7.175   9.586 -0.2039  0.3453 -0.3216
 7093W        W11157   4.331   3.132  10.268  0.0412 -0.0157 -0.0812
 7094W        W11158   3.375   8.773   1.191 -0.0693  0.2734 -0.1323
 7095W        W11159   6.561   9.691   8.866 -0.0175  0.0327  0.1294
 7096W        W11160   2.648   4.566   9.495 -0.3591  0.0217  0.1184
 7097W        W11161   8.301   6.143   0.056 -0.1701  0.3875 -0.0253
 7098W        W11162   5.418   1.629   0.959  0.0542 -0.1742  0.3970
 7099W        W11163   9.048   2.834  11.297 -0.0507  0.2501 -0.6144
 7100W        W11164  10.553   2.460   2.423  0.0013 -0.1579  0.2485
 7101W        W11165   8.477   5.641   8.745 -0.3175 -0.0141  0.0353
 7102W        W11166   6.748   3.887   1.231  0.1976 -0.0380 -0.1098
 7103W        W11167   3.278   7.808  10.903 -0.1175 -0.2159 -0.0685
 7104W        W11168   1.777   6.788   9.070  0.1044 -0.1568 -0.0850
 7105W        W11169   0.621   7.805   7.138  0.1652  0.0826  0.1532
 7106W        W11170   4.685   9.975  10.230 -0.2973 -0.5480  0.4342
 7107W        W11171   2.284   1.475  11.183  0.1304  0.1955 -0.1257
 7108W        W11172   1.610   6.838   2.739  0.2602  0.1623 -0.1058
 7109W        W11173   1.223   3.199   8.904  0.2970 -0.2996 -0.1546
 7110W        W11174   3.869   8.679   2.138  0.5189  0.0609 -0.0281
 7111W        W11175   2.639   2.494  10.486  0.0134 -0.0514  0.3422
 7112W        W11176  10.609   6.332   9.491  0.1219 -0.1322 -0.2485
 7113W        W11177   0.812   6.361   3.302 -0.0197 -0.1010 -0.0651
 7114W        W11178   1.230   3.526   4.514  0.1662 -0.0176  0.2489
 7115W        W11179  10.135   9.572   0.479  0.1980 -0.0717  0.1021
 7116W        W11180  10.410   2.325   0.357 -0.3246 -0.0288  0.1496
 7117W        W11181   7.517   5.949   9.262  0.0938  0.1499 -0.2361
 7118W        W11182   1.891   2.605   9.889  0.0368  0.1867  0.3003
 7119W        W11183   4.194   7.907   2.769 -0.1040 -0.0136 -0.0164
 7120W        W11184   8.313   5.513   9.431  0.1393 -0.0670  0.1497
 7121W        W11185   7.814   3.904   2.889  0.0140  0.1365  0.2779
 7122W        W11186   8.455   0.702   2.375 -0.0131 -0.4034  0.0539
 7123W        W11187   1.777   9.959   8.875  0.1040 -0.1282 -0.1196
 7124W        W11188   5.605   5.832   4.401 -0.2022  0.0777  0.2230
 7125W        W11189   4.409   0.369   8.653  0.0807 -0.1484  0.3371
 7126W        W11190   5.006   6.389   8.803 -0.1172  0.5001 -0.0465
 7127W        W11191   4.093   6.223   0.577 -0.1520 -0.0586 -0.4063
 7128W        W11192   7.468   0.413   0.436  0.0171  0.0279 -0.4107
 7129W        W11193   7.023   2.233   9.811 -0.2339 -0.0340  0.0461
 7130W        W11194   2.404  10.505  10.369  0.3788 -0.2614 -0.2524
 7131W        W11195   3.074   7.615  11.366  0.2181 -0.1534 -0.0343
 7132W        W11196   6.200   6.168   3.279 -0.1778 -0.2709 -0.0316
 7133W        W11197   1.332   6.466   7.364 -0.0232 -0.2078 -0.2296
 7134W        W11198   1.179   6.680   0.373 -0.1952  0.0581 -0.1341
 7135W        W11199   3.975   3.757   3.317 -0.5333  0.1707  0.0192
 7136W        W11200   0.458   3.176   9.178  0.2424  0.1014  0.2804
 7137W        W11201   8.538   3.296   4.141 -0.1714  0.2030  0.1604
 7138W        W11202   1.550   0.721   8.645  0.0532  0.2593  0.0863
 7139W        W11203   6.969  10.135   8.983 -0.2091  0.3062 -0.0191
 7140W        W11204   2.797   9.633   0.751  0.0718 -0.0131 -0.0479
 7141W        W11205   4.759   9.621   7.654  0.0826 -0.1015  0.1634
 7142W        W11206   1.504   5.143   0.356 -0.3664 -0.0067 -0.0191
 7143W        W11207   0.731   2.962   8.809 -0.2083 -0.0768 -0.1669
 7144W        W11208   5.114   0.205  10.028  0.3191  0.2812 -0.3279
 7145W        W11209   1.634   5.906   3.494  0.0441 -0.1972 -0.2419
 7146W        W11210   3.843   4.032   0.436 -0.0502  0.0640 -0.2067
 7147W        W11211   4.196   2.962   2.958 -0.0971  0.2098  0.0615
 7148W        W11212   7.193   0.294  10.103  0.3076  0.1838 -0.2799
 7149W        W11213   5.508  10.424   2.959  0.1441 -0.1803  0.2515
 7150W        W11214   5.578   8.888   0.223  0.2490  0.0883  0.2665
 7151W        W11215   8.390   8.984   9.407  0.1893  0.0049  0.2283
 7152W        W11216   9.494   5.805   0.547  0.2945  0.2061  0.0308
 7153W        W11217   5.866   9.035   1.757 -0.0362  0.0842 -0.2296
 7154W        W11218   1.184   2.606   9.056 -0.3098 -0.1231 -0.0440
 7155W        W11219   1.778   2.063   8.399 -0.0200  0.0726 -0.1983
 7156W        W11220   9.897   9.213  11.352 -0.0511 -0.2420 -0.0156
 7157W        W11221   4.222   9.216   2.907 -0.0249 -0.4058 -0.3331
 7158W        W11222   7.935   4.428  10.564 -0.0178  0.1452  0.0459
 7159W        W11223   6.119   7.648   1.640  0.0550 -0.0614  0.1143
 7160W        W11224   4.254   2.812   0.996 -0.0174 -0.2096  0.0808
 7161W        W11225   7.306  10.334   9.866 -0.2745  0.1381 -0.1931
 7162W        W11226   6.625   6.783   3.754 -0.2431  0.0900 -0.3858
 7163W        W11227   8.088   6.908   4.261  0.0850 -0.0924  0.0441
 7164W        W11228   6.339   2.162   1.072 -0.1136  0.2133 -0.2606
 7165W        W11229   9.298   2.618  10.889 -0.0704  0.1279  0.3975
 7166W        W11230   8.055   1.506   1.340  0.1582 -0.0244 -0.2391
 7167W        W11231   1.275   4.378   3.039 -0.1694 -0.0205  0.3551
 7168W        W11232   3.037   1.059   4.291  0.0043  0.1794  0.2410
 7169W        W11233   4.798   8.351   8.150 -0.1215  0.1318  0.1475
 7170W        W11234   5.324   4.250  11.417  0.2300 -0.2142  0.1212
 7171W        W11235   4.962  10.018   9.789  0.0672  0.0555  0.1983
 7172W        W11236   0.258   8.288   9.202  0.0848 -0.0298  0.1195
 7173W        W11237   5.732   6.297   0.420 -0.0686 -0.1908 -0.1353
 7174W        W11238   8.280   9.574   6.939  0.0256 -0.0245  0.1341
 7175W        W11239   3.439   9.610  10.988 -0.0232 -0.2452  0.1503
 7176W        W11240   3.781   3.127  10.088 -0.0809  0.3289  0.3244
 7177W        W11241   0.174   0.236   9.521  0.0803 -0.0815 -0.3102
 7178W        W11242   0.489   5.434   8.023  0.1427  0.1854 -0.0745
 7179W        W11243   2.940   9.204   8.676 -0.2747 -0.1108  0.0734
 7180W        W11244   4.786   1.056   2.078 -0.0082  0.0811  0.2827
 7181W        W11245   3.258   4.300  11.627  0.2705 -0.0643  0.0998
 7182W        W11246   5.100   0.470  11.001 -0.1594  0.1694 -0.1436
 7183W        W11247   8.574   3.476   2.336  0.1414 -0.1165 -0.1353
 7184W        W11248   3.480   5.711   8.279 -0.0673 -0.1477  0.0654
 7185W        W11249   9.948  10.074   1.635 -0.0958 -0.1058  0.2371
 7186W        W11250   3.136   4.948   9.878 -0.1413  0.0591 -0.1403
 7187W        W11251  10.265   3.046   3.142 -0.2888 -0.4611  0.0422
 7188W        W11252  10.060   2.074  11.635  0.0710 -0.2336  0.3268
 7189W        W11253   3.567   4.149   9.293 -0.0179 -0.0527 -0.1961
 7190W        W11254   8.038   7.140   1.188  0.0912  0.0680  0.1801
 7191W        W11255  10.293   6.388   9.970  0.0739  0.0590 -0.2982
 7192W        W11256   4.651   8.841   1.769  0.2423 -0.1763 -0.0695
 7193W        W11257   2.379   0.981   2.765  0.1396 -0.1504  0.1165
 7194W        W11258   7.276   0.317  11.566  0.0624 -0.0775 -0.0763
 7195W        W11259   5.097   7.412   1.245 -0.0008  0.0614 -0.1969
 7196W        W11260   8.363   7.110   8.464  0.1693 -0.0460 -0.0476
 7197W        W11261   5.345   1.979  10.628 -0.2729 -0.4714 -0.1809
 7198W        W11262   9.298   0.382   8.385 -0.3318  0.0524 -0.0591
 7199W        W11263  10.577   4.459   2.468 -0.0596  0.1196  0.1649
 7200W        W11264   8.933   3.860   0.671  0.1778  0.2402 -0.3431
 7201W        W11265   4.565   3.799   3.323  0.0779  0.0834 -0.2863
 7202W        W11266   1.799   3.928  11.300 -0.1393 -0.3009  0.0902
 7203W        W11267   0.812   9.455   3.441  0.0916  0.1692  0.0876
 7204W        W11268   6.553   6.908   2.869 -0.2226  0.5118  0.0831
 7205W        W11269   8.314   7.411  10.756  0.0375 -0.1979  0.1880
 7206W        W11270   4.846   6.774   0.016  0.0547 -0.1088 -0.0564
 7207W        W11271   8.734   3.791  11.520 -0.2190 -0.0906 -0.1916
 7208W        W11272   5.213   2.408  10.981 -0.1454 -0.0505  0.2050
 7209W        W11273   1.574   7.270   7.960 -0.1140  0.1932 -0.3078
 7210W        W11274   1.823   1.104   8.854  0.1965  0.4674 -0.1669
 7211W        W11275   8.573   3.904  10.644 -0.2742 -0.0245 -0.0419
 7212W        W11276   8.932   5.043   9.138 -0.2241  0.0066  0.0795
 7213W        W11277   8.584  10.473   7.827 -0.0503  0.0692  0.0038
 7214W        W11278  10.159   8.062   8.129  0.2310 -0.0603 -0.0654
 7215W        W11279   5.726   7.864  10.630 -0.1811  0.3796 -0.0057
 7216W        W11280   0.608   0.385   0.095  0.1015  0.0838  0.2269
 7217W        W11281   1.996   0.058   2.272  0.2803  0.1188  0.0195
 7218W        W11282   7.164  10.552   9.164 -0.3102 -0.0885  0.1035
 7219W        W11283   2.990   3.573   4.270  0.0512 -0.0291  0.0248
 7220W        W11284   3.680   3.594  11.302  0.1523 -0.1527  0.2911
 7221W        W11285   1.801   9.335  10.382 -0.0746 -0.1015 -0.1784
 7222W        W11286   1.312   4.927   0.753  0.0457  0.1297  0.0806
 7223W        W11287   4.914   2.137   9.759 -0.2145 -0.2433  0.1046
 7224W        W11288  10.202   9.375   2.155  0.0800  0.2623 -0.1425
 7225W        W11289   1.879   6.414   7.543 -0.2154 -0.2359  0.3164
 7226W        W11290   2.964   7.694   2.496  0.0879 -0.0378  0.0584
 7227W        W11291   2.048   5.588   3.616  0.3238 -0.1805 -0.0745
 7228W        W11292   2.356   0.139  11.317 -0.5253  0.2558  0.0900
 7229W        W11293   0.473   5.177   0.326 -0.0393  0.0730  0.0128
 7230W        W11294   6.968  10.272   1.769  0.0168  0.0436  0.1539
 7231W        W11295   8.318   6.435   9.071 -0.2460 -0.0766  0.0131
 7232W        W11296   8.280   7.772   7.804  0.1359 -0.1704 -0.4628
 7233W        W11297   0.992   5.864  11.008 -0.0791  0.5161  0.0939
 7234W        W11298   8.381   7.558   9.648 -0.0235 -0.3850 -0.0621
 7235W        W11299   1.517   0.768   9.249 -0.3100 -0.0573  0.1570
 7236W        W11300   1.408   1.769   7.817 -0.0372  0.2342  0.0612
 7237W        W11301   2.163   8.054   3.365  0.5259 -0.2340 -0.3462
 7238W        W11302   3.981   2.712   9.350 -0.2115  0.3327  0.3358
 7239W        W11303   1.900   8.103   9.114 -0.0045 -0.2921 -0.2166
 7240W        W11304   1.174   0.383   8.899  0.0419  0.0841 -0.0130
 7241W        W11305   1.037   4.797   9.352  0.0993 -0.1565 -0.1496
 7242W        W11306   0.682   2.891  11.125  0.0309  0.2491  0.1091
 7243W        W11307   8.603  10.158  10.445 -0.2043 -0.2310 -0.1127
 7244W        W11308   7.946   5.319   0.237 -0.2166 -0.4345  0.0779
 7245W        W11309   9.684   6.858   9.719  0.0863 -0.3085  0.1267
 7246W        W11310   6.822   5.619   8.913 -0.1678  0.0301 -0.1120
 7247W        W11311   6.052   0.912   0.548  0.2037  0.0200  0.3661
 7248W        W11312   7.551   6.356   2.733 -0.5666 -0.0957 -0.4423
 7249W        W11313   4.817   5.144   9.265  0.1843  0.0362 -0.1890
 7250W        W11314   9.430   9.635   8.751 -0.1422 -0.0979  0.2445
 7251W        W11315   0.023   0.921   8.784 -0.2187  0.1489 -0.0313
 7252W        W11316   4.080   1.735   2.626 -0.0939 -0.0260  0.3737
 7253W        W11317   5.370  10.438   8.832  0.1050  0.1601  0.4018
 7254W        W11318   8.864   7.698   2.177 -0.0812 -0.1256 -0.1591
 7255W        W11319   9.254   6.301  11.386  0.1271 -0.2870  0.2605
 7256W        W11320   8.434   4.181  11.350 -0.0818  0.0615 -0.1716
 7257W        W11321   7.315   6.584   0.552  0.0024 -0.6089  0.2678
 7258W        W11322   1.116   0.979   9.549 -0.1498 -0.1018 -0.1297
 7259W        W11323   5.825   8.052   8.094 -0.0747 -0.1297  0.1655
 7260W        W11324   3.540   2.326   9.368 -0.0788 -0.0074 -0.0299
 7261W        W11325   2.135   0.243   8.085 -0.0431  0.0338 -0.2066
 7262W        W11326   0.164   3.588   2.615  0.2800 -0.1692  0.2353
 7263W        W11327   9.712   6.387   9.870 -0.1691 -0.0468  0.0273
 7264W        W11328   9.195   2.110  11.113  0.2096 -0.0236 -0.1049
 7265W        W11329   1.525   9.582   2.019  0.1742  0.1188  0.0520
 7266W        W11330   1.041   0.374   1.570  0.1566  0.2473 -0.1640
 7267W        W11331   9.853   0.058   2.157 -0.2611  0.4217 -0.2503
 7268W        W11332   0.267   3.234   1.773  0.0083 -0.0672 -0.0197
 7269W        W11333   6.972   9.317   1.628 -0.3461  0.2668  0.0563
 7270W        W11334   1.887   5.617   0.998  0.1198 -0.3835 -0.1364
 7271W        W11335   7.483   2.598   9.895 -0.1069 -0.3599 -0.3719
 7272W        W11336   0.709   1.997   0.082 -0.1264 -0.0197  0.2388
 7273W        W11337   5.453   0.171   0.137 -0.1485 -0.0819 -0.0474
 7274W        W11338   4.604   7.946  10.469 -0.0698  0.1582 -0.1529
 7275W        W11339   2.874  10.339   8.306  0.3130 -0.3510  0.1054
 7276W        W11340   8.630   4.522   9.255  0.1420  0.2420 -0.0190
 7277W        W11341   6.184   1.734   1.411  0.0451  0.1113  0.0497
 7278W        W11342   9.294  10.078   1.365  0.1154 -0.2743  0.1432
 7279W        W11343   3.628   0.214  11.553 -0.2035  0.4485  0.0397
 7280W        W11344   3.527  10.227  11.510  0.0242  0.0341 -0.1201
 7281W        W11345   0.080   2.012   2.485  0.2929 -0.0341 -0.2614
 7282W        W11346   4.010   6.781   8.994  0.3291  0.1007  0.0612
 7283W        W11347   3.165   4.764   3.531  0.2639 -0.2484 -0.2589
 7284W        W11348   4.008   5.025   9.296  0.4301 -0.0513 -0.1793
 7285W        W11349   9.184   4.139  11.484 -0.0974 -0.3718  0.0760
 7286W        W11350   1.226   1.050   2.259 -0.0278  0.2250  0.1325
 7287W        W11351   3.147   2.379  10.235  0.0240 -0.0697  0.0403
 7288W        W11352   6.073   9.315   8.711 -0.1193  0.2464  0.0190
 7289W        W11353   7.945   0.206   9.639  0.1880 -0.3206 -0.3451
 7290W        W11354   5.142   9.176  10.315 -0.1706 -0.1307  0.1915
 7291W        W11355  10.121   5.298   0.461  0.2912  0.1305 -0.2079
 7292W        W11356   9.951   6.583   0.406  0.2778 -0.1788  0.0501
 7293W        W11357   1.227   7.620   8.819 -0.0233  0.0911 -0.0293
 7294W        W11358   1.615   3.748   1.679 -0.0102 -0.0207  0.1072
 7295W        W11359   0.048   0.478   9.072 -0.4056  0.1388 -0.0812
 7296W        W11360   6.140   2.663   8.700  0.3278 -0.0967 -0.1269
 7297W        W11361   6.394  10.042   0.427 -0.2314  0.3150 -0.1465
 7298W        W11362   8.982   0.195   8.013  0.3767  0.0540 -0.0674
 7299W        W11363   5.188   6.632   1.746  0.1841 -0.0886 -0.2328
 7300W        W11364   0.631   2.748   9.302 -0.2150  0.2501 -0.3770
 7301W        W11365   6.097   0.135  11.395  0.5046 -0.1686 -0.2089
 7302W        W11366   6.388   7.584  10.185  0.0857  0.0053  0.0913
 7303W        W11367   5.442   2.104   1.196  0.2853  0.0041  0.3585
 7304W        W11368   7.125   4.710   2.905  0.0519  0.1065 -0.0447
 7305W        W11369   2.822   2.489   0.851  0.0662 -0.1424 -0.1785
 7306W        W11370   8.278   9.077   0.964  0.0169 -0.1801  0.1434
 7307W        W11371   4.228   2.279  11.366  0.0510 -0.0624 -0.0528
 7308W        W11372   8.026   6.429   3.003 -0.0960  0.0963 -0.0971
 7309W        W11373   5.970   7.235   1.393  0.1408 -0.1015  0.1457
 7310W        W11374   8.007   0.487  10.299 -0.0814 -0.1367  0.2237
 7311W        W11375   2.947   9.933   0.398 -0.0250 -0.2120 -0.0601
 7312W        W11376   1.435   4.504   1.779 -0.0630  0.2220 -0.2450
 7313ION    NA+11377  10.196   0.779   0.250  0.2444 -0.1334  0.0195
 7314ION    NA+11378   6.324   8.968   9.319 -0.0300 -0.3460 -0.1546
 7315ION    NA+11379   0.006   3.198   9.727 -0.0916  0.1446  0.1602
 7316ION    NA+11380   8.487   7.446   3.699  0.2103  0.0360  0.1206
 7317ION    NA+11381   7.457   4.589   9.524 -0.1688 -0.0982 -0.0523
 7318ION    NA+11382  10.377   8.309   9.111 -0.2849 -0.1483  0.2021
 7319ION    NA+11383   7.671   1.337   0.057 -0.4653  0.0068 -0.2205
 7320ION    NA+11384   5.349   8.319   1.582 -0.3951  0.3440  0.1122
 7321ION    NA+11385   4.473   1.647  10.475 -0.4335 -0.2863  0.0451
 7322ION    NA+11386   5.421   2.701   3.309 -0.1578  0.0241 -0.2281
 7323ION    NA+11387   0.759   3.628   9.932 -0.3097 -0.0182  0.0444
 7324ION    NA+11388   5.071   9.666  10.322  0.1560  0.4106  0.2302
 7325ION    NA+11389   0.422  10.257   3.760  0.2144 -0.1383 -0.1899
 7326ION    NA+11390   3.886   7.707   9.326 -0.0536 -0.0614 -0.0485
 7327ION    NA+11391   2.026   8.498  11.349 -0.4105  0.2785 -0.2222
 7328ION    NA+11392   0.680  10.113   2.949 -0.0808  0.3551 -0.2541
 7329ION    NA+11393   3.987   2.355   0.949 -0.2590  0.1888  0.2231
 7330ION    NA+11394   0.121  10.393   1.297  0.0969 -0.0491  0.1299
 7331ION    NA+11395   8.770   3.223   7.721 -0.2107  0.1974  0.0502
 7332ION    NA+11396   9.674   3.633  11.515 -0.1913  0.1519  0.0275
 7333ION    NA+11397   8.132   7.634   7.365  0.2100  0.2804  0.0898
 7334ION    NA+11398   0.671   8.735  10.315  0.1915 -0.0307 -0.0108
 7335ION    NA+11399   4.774   0.430   3.160  0.1799  0.1079 -0.1326
 7336ION    NA+11400   4.666   5.564   0.887  0.0444  0.1059 -0.3207
 7337ION    NA+11401   2.198  10.462   0.203  0.0331 -0.0272 -0.0748
 7338ION    NA+11402   1.620   4.609   1.056  0.1704 -0.0674 -0.0943
 7339ION    NA+11403   9.563   2.911   9.077  0.0910  0.0573 -0.2176
 7340ION    NA+11404   7.806   2.991   2.699 -0.0481  0.0186 -0.0178
 7341ION    NA+11405   2.607   9.719   1.307 -0.0930 -0.1625  0.2109
 7342ION    NA+11406   9.929   1.814   2.953 -0.1045 -0.1728  0.1275
 7343ION    NA+11407   6.769   0.963   2.862  0.0949  0.4857 -0.4728
 7344ION    NA+11408   7.971   2.132   0.040  0.1257  0.0305  0.2059
 7345ION    NA+11409   7.498  10.054   0.173  0.2734 -0.1850  0.0480
 7346ION    NA+11410   5.570   5.480   2.888  0.0781 -0.1276  0.0546
 7347ION    NA+11411   9.715   4.885   8.069 -0.0063 -0.0654  0.0066
 7348ION    NA+11412   4.418   8.006   3.754 -0.0477 -0.0660  0.0339
 7349ION    NA+11413   2.483   3.329   7.834  0.0671  0.2318  0.1062
 7350ION    NA+11414   8.424   2.083  10.908  0.2248  0.3211 -0.4172
 7351ION    NA+11415   5.294   4.781  11.552  0.0766 -0.0249 -0.1016
 7352ION    NA+11416   1.600   6.565   8.348  0.2921 -0.1276  0.4724
 7353ION    NA+11417   7.446   8.564   3.558 -0.0097 -0.0518 -0.1762
 7354ION    NA+11418   2.077   8.055   0.864 -0.0050  0.3212 -0.0661
 7355ION    NA+11419   4.408   0.678  10.524  0.2401  0.0490 -0.0032
 7356ION    NA+11420   1.637   6.815   1.193  0.2082 -0.0527  0.0341
 7357ION    NA+11421   4.166   6.005   7.953  0.0191 -0.1463 -0.0276
 7358ION    NA+11422   3.847   0.231   2.622  0.0072 -0.0030 -0.1730
 7359ION    NA+11423   1.608   3.660  10.480 -0.0139  0.1870 -0.0936
 7360ION    NA+11424   5.251   9.786   7.686  0.1892  0.0815 -0.1738
 7361ION    NA+11425  10.338   4.966  11.109 -0.0063  0.0390  0.3609
 7362ION    NA+11426   7.344   2.005  11.143  0.2229  0.0776  0.4014
 7363ION    NA+11427   9.539   7.661   7.698 -0.0817  0.1254 -0.2503
 7364ION    NA+11428   5.549   5.569   9.808 -0.1959 -0.3298  0.0707
 7365ION    NA+11429  10.542   5.817   9.195 -0.3057  0.0323  0.2231
 7366ION    NA+11430   9.116   2.190  10.601 -0.0340  0.0755 -0.0069
 7367ION    NA+11431   7.509   5.584   0.305 -0.0595  0.1092  0.1604
 7368ION    NA+11432   6.880   7.873   3.656 -0.2811  0.2433 -0.0358
 7369ION    NA+11433   0.204   8.321   0.791  0.1023 -0.0623 -0.0117
 7370ION    NA+11434   2.913   9.984   9.690  0.4212 -0.2125  0.1653
 7371ION    NA+11435   8.921   8.911   9.046 -0.0591 -0.4104  0.1494
 7372ION    NA+11436   8.425  10.449   0.521 -0.1341 -0.1972  0.0849
 7373ION    NA+11437   5.127   5.930   7.702  0.0378  0.0866 -0.3983
 7374ION    NA+11438   3.034   3.180   2.420 -0.3676 -0.1083  0.2598
 7375ION    NA+11439   0.100   7.873   1.137  0.1994 -0.1346  0.0372
 7376ION    NA+11440   2.856   3.166   7.460 -0.1454  0.0840 -0.2035
 7377ION    NA+11441   3.092   4.867   9.388  0.0143 -0.4026  0.0310
 7378ION    NA+11442   1.745   4.627   7.498 -0.1146  0.3902  0.2696
 7379ION    NA+11443   0.697   6.796   7.612 -0.4691 -0.0663 -0.0940
 7380ION    NA+11444  10.059   1.940  10.786 -0.1755  0.2946  0.1614
 7381ION    NA+11445   0.474   8.706   7.516 -0.1336  0.0980  0.0966
 7382ION    NA+11446  10.585   4.651   8.002 -0.0599 -0.2387 -0.2221
 7383ION    NA+11447   2.463   5.199   0.630 -0.0110 -0.1123 -0.1302
 7384ION    NA+11448   2.687   6.900   4.098 -0.3025  0.0151  0.3641
 7385ION    NA+11449   9.685   4.535  10.813 -0.2800  0.1505  0.1143
 7386ION    NA+11450   1.048   5.347   9.291 -0.2164  0.0104 -0.1077
 7387ION    NA+11451   8.737   8.378   7.409  0.0081 -0.2537 -0.0553
 7388ION    NA+11452   8.184   1.142  10.890  0.0819  0.1730  0.0960
 7389ION    NA+11453   9.383   9.008   2.659  0.1864 -0.0653 -0.1629
 7390ION    CL-11454   9.579   2.187  10.796 -0.1784  0.2400  0.1840
 7391ION    CL-11455   0.595   7.681   1.137  0.2404  0.0417  0.1115
 7392ION    CL-11456  10.206   4.775   8.348  0.0762 -0.0248  0.1551
 7393ION    CL-11457   7.658   2.812   0.008 -0.1625 -0.1118  0.1903
 7394ION    CL-11458  10.481   5.387   8.937  0.0774  0.1614 -0.0663
 7395ION    CL-11459   6.083   6.175  11.315  0.1212 -0.2328 -0.1535
 7396ION    CL-11460   9.721   4.076  11.215 -0.2334 -0.0651 -0.0186
 7397ION    CL-11461   0.571   9.236  11.044 -0.0287  0.1220  0.1399
 7398ION    CL-11462   7.801  10.274   1.687 -0.1532  0.2473  0.2191
 7399ION    CL-11463   4.205   0.573   8.181 -0.2684 -0.0766 -0.1210
 7400ION    CL-11464   9.258   3.028   9.507 -0.1827 -0.1294  0.0735
 7401ION    CL-11465   5.856  10.274   8.744  0.2148 -0.3377 -0.1117
 7402ION    CL-11466   2.751   4.547   3.731 -0.1753  0.0263 -0.3190
 7403ION    CL-11467   7.753  10.489   8.604  0.0809 -0.2622 -0.0538
 7404ION    CL-11468   1.796   6.782   7.907  0.0571  0.0018  0.0992
 7405ION    CL-11469   9.764   1.933   3.428  0.3485 -0.1857  0.0474
 7406ION    CL-11470   3.064   2.682   2.495  0.0388  0.1137  0.1050
 7407ION    CL-11471   5.364   5.336   0.099 -0.1258 -0.3058 -0.0161
 7408ION    CL-11472   6.744   9.534   2.599  0.2798  0.2102  0.3070
 7409ION    CL-11473   2.104   8.772   2.542  0.1431  0.1480 -0.1724
 7410ION    CL-11474   7.997   0.999  10.425 -0.3036  0.1240 -0.0673
 7411ION    CL-11475   9.965   5.692   2.535  0.0837  0.0294  0.1018
 7412ION    CL-11476   7.319   5.637   0.785 -0.0616 -0.0986  0.1587
 7413ION    CL-11477   0.460   8.288  10.437  0.0384  0.0583  0.1189
 7414ION    CL-11478   1.376   3.250  10.288  0.4726 -0.3058  0.0213
 7415ION    CL-11479  10.155   4.769  10.681  0.2453  0.2573  0.2314
 7416ION    CL-11480   0.692   1.666   2.461  0.0559  0.1600 -0.0378
 7417ION    CL-11481   4.360   0.385   2.806 -0.0679 -0.0713  0.0589
 7418ION    CL-11482   8.621   9.058   7.505  0.3919  0.0154  0.1542
 7419ION    CL-11483   2.450  10.202   0.540 -0.1197  0.3477 -0.1867
 7420ION    CL-11484   3.992   4.788  11.194  0.2070  0.4447  0.4014
 7421ION    CL-11485   3.464   2.382   0.742 -0.0187 -0.1245 -0.0772
 7422ION    CL-11486   5.716   7.963   1.691  0.2754  0.1367  0.2352
 7423ION    CL-11487   1.327   7.077   1.673  0.1529 -0.0848  0.3134
 7424ION    CL-11488   7.199   4.643   9.062 -0.0569  0.0574  0.0793
 7425ION    CL-11489   2.609   1.392   3.013  0.0564 -0.0402  0.2728
 7426ION    CL-11490   2.525   5.059   2.840  0.3788 -0.2485 -0.0101
 7427ION    CL-11491   1.091   6.590   8.545 -0.1589 -0.2346  0.0799
 7428ION    CL-11492   1.121   2.733   3.037  0.0796  0.0250 -0.0779
 7429ION    CL-11493   4.190   0.006   0.635 -0.2902 -0.2141  0.0164
 7430ION    CL-11494   7.357   2.933   2.840 -0.4708  0.3585  0.2297
 7431ION    CL-11495   9.852   1.148   0.294 -0.0098  0.0234 -0.1952
 7432ION    CL-11496   6.203   4.204   9.094  0.0666  0.1376 -0.1314
 7433ION    CL-11497   8.182   4.079   8.574 -0.1928  0.0574 -0.1590
 7434ION    CL-11498   4.371   1.985   9.828  0.3068 -0.0700  0.1941
 7435ION    CL-11499   3.730   8.146   9.079  0.1440 -0.0036 -0.1323
 7436ION    CL-11500   2.734   7.910  10.975  0.0371 -0.1581  0.2686
 7437ION    CL-11501  10.001   8.536   7.965 -0.0669 -0.1665 -0.0236
 7438ION    CL-11502   8.072  10.302   2.811  0.1661  0.1500 -0.2539
 7439ION    CL-11503   2.106   4.975   0.403  0.1637 -0.3046 -0.0479
 7440ION    CL-11504   8.693   0.935  10.945  0.0208  0.1925 -0.4050
 7441ION    CL-11505   8.867   2.766   8.536  0.0149  0.0486  0.0759
 7442ION    CL-11506   0.654   5.593   9.428 -0.0818  0.1023 -0.0427
 7443ION    CL-11507   3.836   6.735   3.229 -0.3797 -0.1259 -0.3508
 7444ION    CL-11508   3.046   9.857   8.438  0.1078  0.1374  0.0845
 7445ION    CL-11509   2.782   8.016   2.826  0.0729 -0.0523 -0.2008
 7446ION    CL-11510   2.711   5.000   8.570  0.1049 -0.2869 -0.0572
 7447ION    CL-11511   4.266   1.116  10.849 -0.3257  0.0040 -0.0271
 7448ION    CL-11512   1.658   5.968   1.255 -0.4050 -0.0233  0.0458
 7449ION    CL-11513   9.401   9.450   2.869 -0.2748  0.1036  0.0634
 7450ION    CL-11514   6.801   0.123   1.853  0.0049 -0.3345 -0.2148
 7451ION    CL-11515   4.541   2.663   2.586 -0.0481  0.2458  0.0859
 7452ION    CL-11516   0.766   8.849   9.830  0.0539 -0.0602  0.1724
 7453ION    CL-11517   3.113   4.388   9.217 -0.1431 -0.1549 -0.1081
 7454ION    CL-11518   3.558   7.743   3.376  0.0343 -0.0469  0.0735
 7455ION    CL-11519  10.286   8.201   0.923  0.4054  0.1229 -0.1305
 7456ION    CL-11520   9.150   9.221   8.617 -0.0688 -0.1246 -0.3497
 7457ION    CL-11521   0.102   0.959   8.107  0.0817 -0.0561  0.0116
 7458ION    CL-11522   8.534   1.575   2.920 -0.0581 -0.1277  0.1444
 7459ION    CL-11523   7.753   1.746  11.427  0.0618 -0.2760 -0.2463
 7460ION    CL-11524   7.787  10.194  11.455 -0.0688  0.3390  0.2517
 7461ION    CL-11525   2.552   3.505   2.856 -0.0984  0.0474  0.0558
 7462ION    CL-11526  10.369   2.001   2.815  0.0844  0.0536  0.2984
 7463ION    CL-11527   8.471   3.422   3.314  0.0728 -0.1144 -0.0243
 7464ION    CL-11528   9.731   4.365   3.048  0.2333 -0.1525 -0.0071
 7465ION    CL-11529   5.271   4.560   9.758 -0.2026  0.3144  0.1670
 7466ION    CL-11530   2.841  10.108  10.192  0.1644  0.0346  0.1196
  10.62248  10.62248  11.64237
