Protein in INSANE! Membrane UpperLeaflet>POPC=1.0 LowerLeaflet>POPC=1.0
10365
    1AU     AUC    1   3.225   7.886   6.088 -0.0703 -0.0456  0.0494
    1AU     AUC    2   3.438   7.848   5.893  0.0648 -0.0070 -0.0012
    1AU     AUC    3   3.235   8.122   5.871  0.0652 -0.0717  0.0036
    1AU     AUC    4   3.138   7.675   6.317 -0.0524 -0.0311  0.0362
    1AU     AUC    5   2.900   7.918   6.232 -0.0372  0.0052 -0.0043
    1AU     AUC    6   2.942   7.677   6.038 -0.0657 -0.0459 -0.0373
    1AU     AUC    7   3.161   7.820   5.760  0.0502  0.1014  0.0495
    1AU     AUC    8   3.277   7.994   6.401  0.0846  0.0002 -0.0244
    1AU     AUC    9   3.446   8.145   6.135  0.0626  0.0011  0.0789
    1AU     AUC   10   3.098   8.212   6.147 -0.0631 -0.0616  0.0407
    1AU     AUC   11   2.908   7.998   5.937  0.0639  0.0386  0.0329
    1AU     AUC   12   3.461   7.765   6.227  0.0452  0.0374 -0.0177
    1AU     AUC   13   3.298   7.603   6.006  0.0118  0.0517 -0.0528
    1AU     AUC   14   3.715   7.835   5.678  0.0313  0.0467  0.0113
    1AU     AUC   15   3.529   8.109   5.642  0.1034 -0.0208 -0.0017
    1AU     AUC   16   3.270   8.363   5.623 -0.0379 -0.0403 -0.0200
    1AU     AUC   17   3.091   7.455   6.580  0.1088  0.0098 -0.0177
    1AU     AUC   18   2.822   7.678   6.525  0.0261  0.0716  0.0733
    1AU     AUC   19   2.594   7.951   6.434  0.0293 -0.0866  0.0104
    1AU     AUC   20   2.706   7.422   5.982 -0.0125  0.0179  0.0399
    1AU     AUC   21   2.903   7.513   5.710  0.1029  0.0825 -0.0353
    1AU     AUC   22   3.093   7.688   5.462  0.0637 -0.0959 -0.0674
    1AU     AUC   23   3.263   8.095   6.712  0.0738 -0.0644  0.0894
    1AU     AUC   24   3.483   8.228   6.488 -0.0345 -0.0395  0.0431
    1AU     AUC   25   3.723   8.368   6.216 -0.0346 -0.0108  0.0085
    1AU     AUC   26   2.955   8.543   6.208 -0.0045  0.0624 -0.0177
    1AU     AUC   27   2.775   8.335   5.966  0.0467 -0.0026  0.0253
    1AU     AUC   28   2.604   8.125   5.761 -0.0206  0.0037  0.0223
    1AU     AUC   29   3.752   7.679   6.363  0.0227 -0.0317 -0.0048
    1AU     AUC   30   3.585   7.448   6.163 -0.0928  0.0766  0.0569
    1AU     AUC   31   3.374   7.267   5.942 -0.0049 -0.0505  0.0207
    1AU     AUC   32   3.130   8.455   5.920 -0.0171  0.0670  0.0148
    1AU     AUC   33   2.943   8.268   5.687  0.0785  0.0291  0.0298
    1AU     AUC   34   3.781   7.709   6.011  0.0964 -0.0499  0.0595
    1AU     AUC   35   3.564   7.538   5.786 -0.0546  0.0491  0.0178
    1AU     AUC   36   2.733   8.253   6.319  0.0945  0.0316 -0.0179
    1AU     AUC   37   2.575   8.022   6.066  0.0559  0.0918  0.0066
    1AU     AUC   38   3.415   7.549   6.484 -0.0234 -0.0054 -0.0783
    1AU     AUC   39   3.274   7.330   6.311  0.0575  0.0655  0.0146
    1AU     AUC   40   3.418   7.774   5.548  0.0218  0.0377 -0.0016
    1AU     AUC   41   3.152   8.053   5.514 -0.0795  0.0550  0.0442
    1AU     AUC   42   2.895   7.421   6.290 -0.0523 -0.0595 -0.0729
    1AU     AUC   43   2.648   7.673   6.230  0.0864 -0.1069 -0.0429
    1AU     AUC   44   3.747   8.091   5.956  0.1447 -0.0664  0.0042
    1AU     AUC   45   3.529   8.411   5.930  0.0056  0.0396 -0.0661
    1AU     AUC   46   3.151   7.796   6.701 -0.1037 -0.0664 -0.0365
    1AU     AUC   47   2.927   8.024   6.553  0.0514  0.0280  0.0070
    1AU     AUC   48   2.615   7.762   5.859 -0.0323  0.1033 -0.0223
    1AU     AUC   49   2.859   7.901   5.603 -0.0824  0.0630 -0.0423
    1AU     AUC   50   3.109   8.299   6.450 -0.0385  0.0983 -0.0139
    1AU     AUC   51   3.341   8.454   6.245  0.1130  0.0257 -0.1049
    1AU     AUC   52   3.046   7.351   5.969  0.0812  0.0544  0.0500
    1AU     AUC   53   3.231   7.455   5.663 -0.0132  0.1029  0.0044
    1AU     AUC   54   3.540   7.897   6.582  0.0497 -0.0135  0.0824
    1AU     AUC   55   3.736   7.997   6.269  0.0915  0.0203  0.0741
    1AU    AUSL   56   3.065   8.616   5.621  0.0349 -0.0248 -0.0510
    1AU    AUSL   57   3.166   8.748   6.069  0.0247  0.0312 -0.0568
    1AU     AUL   58   3.179   8.912   5.685 -0.0053  0.0461  0.0150
    1AU       S   59   3.420   9.092   6.013  0.5105 -0.0049  0.1040
    1AU     LIG   60   3.142   9.364   6.101 -0.6761 -0.2755  0.0811
    1AU     LIG   61   2.773   9.507   5.967 -0.1221 -0.1307 -0.1404
    1AU     LIG   62   2.628   9.827   5.770 -0.0643 -0.1091 -0.1651
    1AU       S   63   2.749   8.919   5.508  0.1877 -0.1651  0.1636
    1AU     LIG   64   3.038   9.131   5.276 -0.1848 -0.1668  0.1922
    1AU     LIG   65   3.198   9.338   4.970 -0.1644 -0.0634  0.0554
    1AU     LIG   66   3.439   9.494   4.624 -0.0079  0.4198 -0.0711
    1AU    AUSL   67   2.764   8.692   5.941  0.1213 -0.0032 -0.1252
    1AU    AUSL   68   2.436   8.385   5.903 -0.0045 -0.0342  0.0450
    1AU     AUL   69   2.334   8.727   5.840  0.0999 -0.0119  0.0227
    1AU       S   70   2.739   8.946   5.795 -0.2577 -0.3027 -0.1634
    1AU     LIG   71   2.381   9.180   5.631 -0.0303 -0.1992  0.2166
    1AU     LIG   72   2.174   9.491   5.701  0.1896 -0.1722  0.1539
    1AU     LIG   73   1.793   9.499   6.011 -0.0343  0.3240 -0.0185
    1AU       S   74   2.320   8.789   6.294 -0.3926 -0.1664  0.5389
    1AU     LIG   75   2.279   9.265   6.182 -0.4232 -0.2626  0.1674
    1AU     LIG   76   2.265   9.690   6.184 -0.0983 -0.1779  0.1269
    1AU     LIG   77   2.120   9.957   5.965 -0.4497 -0.0553 -0.1655
    1AU    AUSL   78   2.668   8.490   5.555 -0.0297 -0.0398 -0.0676
    1AU    AUSL   79   3.001   8.316   5.310  0.0361  0.0759  0.1059
    1AU     AUL   80   2.956   8.607   5.244  0.0721 -0.0559 -0.0033
    1AU       S   81   2.587   8.657   5.485  0.1525  0.0391  0.2928
    1AU     LIG   82   2.171   8.868   5.326 -0.0403  0.0837 -0.1105
    1AU     LIG   83   1.712   8.797   5.202 -0.1590  0.2320  0.0827
    1AU     LIG   84   1.287   8.721   5.037  0.0585 -0.2151  0.0837
    1AU       S   85   2.657   8.308   5.082 -0.1175 -0.4287  0.4688
    1AU     LIG   86   2.581   8.703   4.957  0.0897 -0.4020  0.4679
    1AU     LIG   87   2.383   8.946   4.524 -0.0930 -0.0249  0.2685
    1AU     LIG   88   2.384   9.204   4.327 -0.5428 -0.0525 -0.0436
    1AU    AUSL   89   3.866   7.468   5.704 -0.0071 -0.0709  0.0176
    1AU    AUSL   90   3.479   7.288   5.612  0.0025  0.0362 -0.0455
    1AU     AUL   91   3.790   7.141   5.500  0.0628 -0.0700 -0.0316
    1AU       S   92   4.111   7.049   5.779  0.3593 -0.5202 -0.0399
    1AU     LIG   93   4.414   7.008   5.491 -0.1866 -0.5896 -0.0648
    1AU     LIG   94   4.763   7.182   5.630  0.6515 -0.4827  0.2396
    1AU     LIG   95   5.180   7.357   5.418  0.3694 -0.0859 -0.4474
    1AU       S   96   3.672   7.306   5.077  0.0066 -0.0032 -0.3032
    1AU     LIG   97   3.642   6.901   5.035  0.2350 -0.0964  0.2917
    1AU     LIG   98   3.484   6.668   5.232  0.1227  0.0103  0.3172
    1AU     LIG   99   3.121   6.457   5.181  0.3487 -0.1527 -0.1621
    1AU    AUSL  100   4.034   7.429   6.092 -0.0079 -0.0295  0.0286
    1AU    AUSL  101   4.080   7.827   5.790 -0.0764  0.0559  0.0607
    1AU     AUL  102   4.206   7.507   5.724 -0.0453 -0.0218 -0.0767
    1AU       S  103   4.530   7.818   5.836 -0.0990  0.1295  0.0720
    1AU     LIG  104   4.897   7.667   5.886 -0.2772  0.0000 -0.0063
    1AU     LIG  105   5.178   8.004   5.996  0.0339 -0.3461 -0.0261
    1AU     LIG  106   5.534   8.199   6.021 -0.2730  0.2327  0.0568
    1AU       S  107   4.157   7.060   5.910  0.2221  0.4581  0.1788
    1AU     LIG  108   4.533   7.265   6.052  0.0635  0.4572  0.1885
    1AU     LIG  109   4.728   7.232   6.455  0.0400  0.0769  0.3622
    1AU     LIG  110   4.710   7.461   6.830  0.2814  0.3250 -0.3847
    1AU    AUSL  111   3.664   7.227   5.998  0.0014 -0.0462 -0.0228
    1AU    AUSL  112   3.734   7.419   6.417 -0.0380  0.0467 -0.0024
    1AU     AUL  113   3.989   7.240   6.312  0.0452  0.0554  0.0655
    1AU       S  114   3.873   6.909   6.591 -0.1343  0.0427  0.0387
    1AU     LIG  115   4.218   6.834   6.409 -0.0495  0.0015  0.2661
    1AU     LIG  116   4.578   6.748   6.267 -0.0502 -0.0208  0.1992
    1AU     LIG  117   4.662   6.758   5.890 -0.2377 -0.2220  0.2380
    1AU       S  118   3.840   7.018   5.936  0.3532  0.0649  0.1659
    1AU     LIG  119   3.600   6.715   5.753 -0.0695  0.1198  0.2928
    1AU     LIG  120   3.298   6.431   5.797  0.0981 -0.1070 -0.0795
    1AU     LIG  121   3.170   6.072   5.903 -0.3874 -0.3616 -0.1277
    1AU    AUSL  122   2.309   8.211   6.302 -0.0340  0.1317 -0.0645
    1AU    AUSL  123   2.292   7.974   5.915  0.0726  0.0252  0.1073
    1AU     AUL  124   2.120   8.295   5.987  0.0176 -0.0555 -0.0023
    1AU       S  125   2.149   8.654   6.277  0.2816  0.0653  0.5477
    1AU     LIG  126   1.919   9.028   6.348  0.1548  0.1196  0.2612
    1AU     LIG  127   1.427   9.142   6.183 -0.3767 -0.1228 -0.1549
    1AU     LIG  128   0.915   9.139   6.283 -0.0762  0.0810  0.1150
    1AU       S  129   1.959   7.913   6.205  0.3249  0.0133 -0.0845
    1AU     LIG  130   1.814   8.300   6.449 -0.0677 -0.0544  0.1806
    1AU     LIG  131   1.617   8.684   6.525  0.1455 -0.0622  0.2129
    1AU     LIG  132   1.186   8.753   6.564 -0.1180  0.1458  0.1319
    1AU    AUSL  133   2.678   8.411   6.250 -0.0334  0.1127 -0.0413
    1AU    AUSL  134   2.564   8.281   6.649  0.0411  0.0004  0.0613
    1AU     AUL  135   2.295   8.299   6.561  0.0392  0.0973  0.0224
    1AU       S  136   2.466   8.623   6.848  0.2555  0.0453  0.0974
    1AU     LIG  137   2.056   8.690   6.745 -0.0639  0.0271  0.1514
    1AU     LIG  138   1.748   8.943   6.901 -0.1675 -0.2672  0.3364
    1AU     LIG  139   1.468   9.192   6.647  0.1739  0.1940  0.1225
    1AU       S  140   2.471   8.727   6.304 -0.2930  0.2628 -0.2058
    1AU     LIG  141   2.718   9.067   6.287  0.1354 -0.2534 -0.4564
    1AU     LIG  142   2.677   9.510   6.515 -0.3152  0.1092  0.1628
    1AU     LIG  143   2.912   9.808   6.804 -0.1271  0.2862  0.0166
    1AU    AUSL  144   3.447   7.266   6.695 -0.0079 -0.0547  0.0481
    1AU    AUSL  145   3.654   7.689   6.725 -0.1010  0.0807  0.0367
    1AU     AUL  146   3.828   7.415   6.727 -0.0355  0.0128 -0.0047
    1AU       S  147   3.744   6.933   6.794 -0.0732 -0.1852  0.3060
    1AU     LIG  148   3.822   6.499   6.815 -0.1782  0.3754  0.1367
    1AU     LIG  149   4.025   6.079   6.874 -0.1317  0.0189  0.1254
    1AU     LIG  150   4.392   5.959   7.198  0.0596 -0.0603  0.2125
    1AU       S  151   3.638   7.501   7.115 -0.2274  0.0965 -0.2441
    1AU     LIG  152   3.937   7.228   7.220 -0.0007 -0.1669  0.3523
    1AU     LIG  153   4.191   7.026   7.545  0.3466 -0.0108  0.1872
    1AU     LIG  154   4.666   7.072   7.744 -0.1349 -0.4450  0.1891
    1AU    AUSL  155   3.532   7.042   6.336 -0.0645  0.0092  0.0395
    1AU    AUSL  156   3.112   7.064   6.497  0.0872 -0.0397  0.0649
    1AU     AUL  157   3.315   6.949   6.721  0.0159  0.0242 -0.0058
    1AU       S  158   3.148   6.752   6.362 -0.1763  0.4001  0.0934
    1AU     LIG  159   3.118   6.502   6.714 -0.2369  0.0408  0.0943
    1AU     LIG  160   3.387   6.074   6.695  0.1620 -0.2342  0.1167
    1AU     LIG  161   3.609   5.690   6.742 -0.0909  0.1290 -0.0191
    1AU       S  162   3.671   6.898   6.408 -0.1649  0.0852  0.1918
    1AU     LIG  163   3.910   6.571   6.147 -0.0353 -0.1394  0.2224
    1AU     LIG  164   4.225   6.494   5.867  0.2195 -0.1357  0.0810
    1AU     LIG  165   4.482   6.339   5.612 -0.0913 -0.2510 -0.3116
    1AU    AUSL  166   3.322   7.892   5.252  0.0247 -0.0567  0.0025
    1AU    AUSL  167   3.627   7.650   5.412 -0.0786 -0.1200 -0.0868
    1AU     AUL  168   3.514   7.823   5.002  0.1136  0.0956  0.0799
    1AU       S  169   3.740   7.494   5.237  0.0373 -0.0335  0.0106
    1AU     LIG  170   4.117   7.611   5.256 -0.0596  0.1927 -0.2946
    1AU     LIG  171   4.346   7.973   5.360  0.0478  0.0311  0.1985
    1AU     LIG  172   4.743   8.070   5.530 -0.0141 -0.1592 -0.2393
    1AU       S  173   3.541   8.290   4.967  0.3058  0.1434  0.0805
    1AU     LIG  174   3.413   8.235   4.602 -0.2698  0.2751 -0.2650
    1AU     LIG  175   3.332   8.583   4.288 -0.1933  0.3033 -0.0286
    1AU     LIG  176   3.407   8.897   3.950 -0.1537 -0.0464 -0.0312
    1AU    AUSL  177   3.753   8.037   5.353  0.0115 -0.1161  0.0158
    1AU    AUSL  178   3.747   8.477   5.541 -0.0253 -0.0358 -0.0017
    1AU     AUL  179   4.002   8.300   5.293  0.0267  0.0467 -0.0436
    1AU       S  180   3.600   8.344   5.053  0.2863  0.0377 -0.0273
    1AU     LIG  181   3.936   8.598   4.864  0.0430  0.2591  0.3456
    1AU     LIG  182   4.363   8.682   4.960 -0.0619 -0.2615 -0.1803
    1AU     LIG  183   4.570   8.558   5.325  0.0023  0.3656  0.1132
    1AU       S  184   4.081   8.683   5.560 -0.1514 -0.2773 -0.2416
    1AU     LIG  185   3.952   8.854   5.257 -0.1905  0.1091 -0.0206
    1AU     LIG  186   3.696   9.126   4.922 -0.3033 -0.0742 -0.0600
    1AU     LIG  187   3.919   9.444   4.683 -0.2216 -0.0201 -0.3282
    1AU    AUSL  188   3.387   8.270   5.442 -0.0526 -0.0967 -0.0020
    1AU    AUSL  189   2.898   7.900   5.178 -0.0175 -0.0144 -0.0109
    1AU     AUL  190   3.131   8.108   5.062 -0.0057  0.0842 -0.0564
    1AU       S  191   2.594   8.169   5.043 -0.3875  0.2845  0.3692
    1AU     LIG  192   2.355   7.918   4.823 -0.3745 -0.5459  0.0676
    1AU     LIG  193   2.556   7.505   4.750 -0.2274 -0.1386  0.1736
    1AU     LIG  194   2.670   7.061   4.547  0.2239  0.3095  0.0288
    1AU       S  195   3.423   8.455   5.155  0.1017 -0.0841  0.1372
    1AU     LIG  196   3.435   8.837   5.190 -0.0880  0.0848 -0.1187
    1AU     LIG  197   3.513   9.196   5.390  0.1113  0.2255 -0.0712
    1AU     LIG  198   3.200   9.506   5.615 -0.2188  0.0685 -0.1470
    1AU    AUSL  199   2.492   7.317   6.272 -0.0961 -0.0284 -0.0380
    1AU    AUSL  200   2.423   7.804   6.279  0.0570  0.0220 -0.0473
    1AU     AUL  201   2.166   7.397   6.207 -0.0937  0.0083 -0.0443
    1AU       S  202   2.109   7.822   6.367 -0.4128 -0.1821 -0.3901
    1AU     LIG  203   2.038   7.908   6.725  0.1199  0.2485  0.2872
    1AU     LIG  204   2.015   7.650   7.058 -0.1499 -0.0835  0.1579
    1AU     LIG  205   2.260   7.376   7.258  0.0446 -0.2585  0.1495
    1AU       S  206   2.274   7.044   6.504 -0.2442  0.0154  0.4067
    1AU     LIG  207   2.161   6.583   6.545 -0.1854  0.0446 -0.1583
    1AU     LIG  208   1.979   6.270   6.256  0.0730 -0.1475 -0.1340
    1AU     LIG  209   2.007   5.925   5.985 -0.2206 -0.0275 -0.0614
    1AU    AUSL  210   2.823   7.394   6.511 -0.1524  0.0801 -0.0116
    1AU    AUSL  211   2.809   7.050   6.176 -0.0307  0.0280 -0.0625
    1AU     AUL  212   2.723   7.031   6.453 -0.0196 -0.0783  0.0073
    1AU       S  213   2.326   7.118   6.681 -0.2800  0.3178 -0.0478
    1AU     LIG  214   1.932   6.988   6.868  0.0576 -0.0479  0.0663
    1AU     LIG  215   1.450   6.872   6.981 -0.1634 -0.1454  0.1633
    1AU     LIG  216   1.363   6.967   7.387 -0.1484 -0.0511  0.2100
    1AU       S  217   2.903   6.604   6.254 -0.3037  0.0722  0.0179
    1AU     LIG  218   2.512   6.639   6.172  0.1504  0.2611  0.1100
    1AU     LIG  219   2.380   6.471   5.863  0.0110 -0.0597 -0.1013
    1AU     LIG  220   1.983   6.412   5.665  0.1971 -0.0337 -0.1832
    1AU    AUSL  221   2.453   7.583   6.633  0.0291 -0.0535 -0.0946
    1AU    AUSL  222   2.837   7.575   6.899 -0.0281  0.0598  0.0245
    1AU     AUL  223   2.683   7.314   6.865 -0.0402  0.0055  0.0228
    1AU       S  224   2.556   7.701   7.101 -0.0367 -0.1544  0.3409
    1AU     LIG  225   2.725   7.312   7.328  0.2354 -0.3416 -0.1056
    1AU     LIG  226   3.047   7.216   7.682 -0.0191  0.2733 -0.1464
    1AU     LIG  227   3.269   7.322   8.121 -0.1688 -0.2626 -0.2947
    1AU       S  228   2.285   7.474   6.680 -0.0597 -0.0194 -0.1623
    1AU     LIG  229   1.866   7.439   6.623  0.1484 -0.2607 -0.0873
    1AU     LIG  230   1.453   7.288   6.684  0.0825 -0.0827  0.2432
    1AU     LIG  231   1.076   7.383   6.370  0.1995 -0.0362 -0.0885
    1AU    AUSL  232   3.850   8.476   5.964 -0.0626  0.0795 -0.0697
    1AU    AUSL  233   3.426   8.537   5.800  0.0108  0.0169 -0.0793
    1AU     AUL  234   3.674   8.768   5.675  0.0754 -0.0119 -0.0052
    1AU       S  235   4.068   8.633   5.914 -0.2875 -0.1180 -0.0014
    1AU     LIG  236   4.204   8.793   6.302  0.1387  0.2988 -0.3054
    1AU     LIG  237   4.465   9.003   6.438  0.1409  0.1947  0.1019
    1AU     LIG  238   4.593   9.437   6.306 -0.0516 -0.4137 -0.0364
    1AU       S  239   3.574   9.121   5.942  0.1247 -0.0320  0.0453
    1AU     LIG  240   3.661   9.510   5.783  0.0187  0.0775  0.0419
    1AU     LIG  241   3.783   9.946   5.934  0.5249  0.2794 -0.0888
    1AU     LIG  242   4.013  10.243   6.037 -0.2157 -0.0338 -0.2209
    1AU    AUSL  243   3.762   8.099   5.756 -0.0247 -0.0650 -0.0447
    1AU    AUSL  244   4.112   8.149   6.056  0.0179 -0.0274 -0.0036
    1AU     AUL  245   4.101   8.178   5.723 -0.0180  0.0102  0.0232
    1AU       S  246   4.220   8.583   5.734  0.0678 -0.3876  0.2533
    1AU     LIG  247   4.550   8.852   5.825  0.2840  0.0229 -0.0443
    1AU     LIG  248   4.950   8.914   6.126 -0.7497 -0.0197  0.1357
    1AU     LIG  249   5.192   9.408   6.178  0.3820  0.2216 -0.2900
    1AU       S  250   4.476   8.078   5.975  0.0743  0.0837 -0.2587
    1AU     LIG  251   4.885   8.330   6.195  0.5129 -0.1489 -0.3965
    1AU     LIG  252   5.274   8.553   6.241 -0.0067  0.0099 -0.1337
    1AU     LIG  253   5.631   8.540   6.470 -0.0708 -0.1933  0.1367
    1AU    AUSL  254   2.998   7.987   6.964  0.0650 -0.0012 -0.0737
    1AU    AUSL  255   3.232   7.595   6.782 -0.0537  0.0513  0.0701
    1AU     AUL  256   3.044   7.643   7.143 -0.0379  0.0243 -0.0146
    1AU       S  257   3.438   7.423   7.144 -0.0870 -0.0652  0.6051
    1AU     LIG  258   3.265   7.127   7.191 -0.0115 -0.2084 -0.0643
    1AU     LIG  259   2.909   6.765   7.106  0.1811  0.0198 -0.0259
    1AU     LIG  260   2.614   6.651   6.759  0.0733 -0.0100  0.0119
    1AU       S  261   2.661   7.870   7.232  0.2170  0.0493 -0.1470
    1AU     LIG  262   2.892   7.700   7.580  0.0538  0.4868 -0.2088
    1AU     LIG  263   3.371   7.661   7.681 -0.2106 -0.2533  0.1406
    1AU     LIG  264   3.589   7.317   7.585  0.1152  0.0083  0.2204
    1AU    AUSL  265   2.724   7.896   6.644  0.0498  0.0320 -0.0852
    1AU    AUSL  266   2.996   8.266   6.655  0.0489 -0.0798 -0.0013
    1AU     AUL  267   2.755   8.186   6.937 -0.0116  0.0088  0.0420
    1AU       S  268   2.670   8.598   7.008  0.6185 -0.3679 -0.2348
    1AU     LIG  269   2.532   8.308   7.464 -0.4804 -0.3269  0.2129
    1AU     LIG  270   2.280   7.902   7.536  0.0966 -0.1169  0.1999
    1AU     LIG  271   1.995   7.657   7.679  0.0588 -0.2670 -0.3018
    1AU       S  272   2.454   7.838   7.014 -0.1567 -0.2216 -0.0840
    1AU     LIG  273   2.266   8.237   7.078  0.1798  0.0734  0.2238
    1AU     LIG  274   2.208   8.687   7.284  0.1604 -0.5333 -0.1747
    1AU     LIG  275   2.248   8.930   7.670  0.0989  0.2330  0.2090
    1AU    AUSL  276   2.411   7.801   5.544 -0.1850 -0.0211 -0.0032
    1AU    AUSL  277   2.505   7.589   5.935  0.0455 -0.0373 -0.0084
    1AU     AUL  278   2.167   7.660   5.804 -0.0504 -0.0359 -0.0613
    1AU       S  279   1.919   7.753   6.170 -0.4062  0.0740  0.0251
    1AU     LIG  280   1.641   7.390   6.194  0.1354  0.0230  0.0245
    1AU     LIG  281   1.470   7.015   5.947 -0.0774  0.0016  0.3861
    1AU     LIG  282   1.131   6.801   5.585  0.0492  0.2171 -0.0968
    1AU       S  283   2.202   7.793   5.380  0.0142  0.1574 -0.2027
    1AU     LIG  284   1.881   7.990   5.616 -0.1277 -0.2014 -0.1536
    1AU     LIG  285   1.588   8.109   5.922  0.0389  0.1099 -0.1566
    1AU     LIG  286   1.232   8.005   6.122  0.0301 -0.0299 -0.2929
    1AU    AUSL  287   2.508   7.371   5.571 -0.0257  0.0810 -0.0365
    1AU    AUSL  288   2.942   7.229   5.405  0.0314 -0.0205 -0.0068
    1AU     AUL  289   2.680   7.269   5.181 -0.0092 -0.0723  0.0232
    1AU       S  290   2.305   7.337   5.499  0.0327 -0.0085 -0.1722
    1AU     LIG  291   1.923   7.279   5.706  0.1054  0.1357  0.1482
    1AU     LIG  292   1.667   7.579   5.738 -0.0417 -0.2001 -0.0686
    1AU     LIG  293   1.379   7.847   5.476 -0.0765  0.4845  0.0051
    1AU       S  294   2.868   6.871   5.374 -0.1259  0.0050 -0.2180
    1AU     LIG  295   3.025   6.946   5.005 -0.0901  0.5452 -0.0303
    1AU     LIG  296   3.188   7.012   4.582  0.1883 -0.1905  0.1174
    1AU     LIG  297   3.501   6.852   4.504 -0.0516 -0.0426  0.0328
    1AU    AUSL  298   2.838   7.636   5.502  0.0352 -0.0353  0.0582
    1AU    AUSL  299   2.720   8.080   5.545  0.0479  0.0217  0.0272
    1AU     AUL  300   2.647   7.747   5.251 -0.0804 -0.0461 -0.0240
    1AU       S  301   2.461   8.173   5.263  0.0731 -0.4913 -0.0126
    1AU     LIG  302   2.164   8.335   5.439 -0.2928 -0.0127 -0.1318
    1AU     LIG  303   1.822   8.609   5.652  0.3938  0.2793  0.2678
    1AU     LIG  304   1.641   8.568   6.056 -0.1979  0.0202 -0.3478
    1AU       S  305   2.247   7.509   5.220  0.0142  0.0457 -0.1621
    1AU     LIG  306   1.823   7.465   5.193 -0.0060  0.3859 -0.1183
    1AU     LIG  307   1.448   7.532   4.991  0.2085  0.1632  0.1410
    1AU     LIG  308   1.175   7.934   5.037 -0.2137  0.0434 -0.7330
    1AU    AUSL  309   3.227   8.591   6.458  0.0018  0.0444 -0.0311
    1AU    AUSL  310   3.582   8.709   6.184 -0.0026  0.0461  0.0163
    1AU     AUL  311   3.252   8.909   6.380 -0.0702  0.0173  0.0729
    1AU       S  312   3.428   8.901   6.809  0.0640 -0.1135  0.2608
    1AU     LIG  313   3.647   9.212   6.547 -0.2123 -0.0334 -0.2955
    1AU     LIG  314   3.613   9.576   6.315  0.2539 -0.3265 -0.2298
    1AU     LIG  315   3.199   9.934   6.326 -0.2493  0.0739 -0.1292
    1AU       S  316   3.686   8.899   6.153  0.1771  0.0688  0.1498
    1AU     LIG  317   4.008   9.266   6.134  0.1233 -0.0707 -0.2399
    1AU     LIG  318   4.148   9.676   6.200  0.0444 -0.2833  0.3449
    1AU     LIG  319   4.469   9.976   6.118  0.1547 -0.1902 -0.1164
    1AU    AUSL  320   3.337   8.410   6.850 -0.0406  0.0683 -0.0080
    1AU    AUSL  321   2.832   8.653   6.560  0.0850  0.0023  0.0052
    1AU     AUL  322   3.052   8.614   6.818  0.0195  0.0582  0.0659
    1AU       S  323   3.428   8.812   6.948  0.0505  0.0634  0.2480
    1AU     LIG  324   3.178   8.977   7.193 -0.0419 -0.1338 -0.4239
    1AU     LIG  325   3.072   9.373   7.197 -0.0312 -0.2867 -0.3162
    1AU     LIG  326   2.985   9.831   7.327  0.2608  0.1128  0.0915
    1AU       S  327   2.631   8.757   6.767 -0.0656 -0.0147  0.2092
    1AU     LIG  328   2.843   9.112   6.785 -0.0937 -0.1879 -0.0540
    1AU     LIG  329   3.167   9.337   6.650 -0.0786  0.0589 -0.3278
    1AU     LIG  330   3.420   9.620   6.788  0.2760  0.0351  0.0343
    1AU    AUSL  331   3.637   8.574   6.571  0.0291  0.1063  0.1012
    1AU    AUSL  332   3.638   8.142   6.703 -0.0075  0.0637 -0.0756
    1AU     AUL  333   3.676   8.398   6.943  0.0756 -0.0514 -0.0241
    1AU       S  334   4.111   8.336   6.791  0.0390 -0.2927 -0.2857
    1AU     LIG  335   4.621   8.350   6.974  0.0354 -0.3161 -0.3715
    1AU     LIG  336   4.896   8.279   6.829  0.0287 -0.1494  0.0576
    1AU     LIG  337   5.294   8.537   6.832  0.1347 -0.1891 -0.2665
    1AU       S  338   3.694   8.799   6.735  0.4571  0.3782 -0.2993
    1AU     LIG  339   4.000   9.080   6.798 -0.2463  0.0946 -0.1901
    1AU     LIG  340   4.041   9.517   6.644  0.4684 -0.0028 -0.1086
    1AU     LIG  341   3.918   9.957   6.496  0.0283 -0.2716 -0.1455
    1AU    AUSL  342   3.162   7.022   5.715  0.0706 -0.0383 -0.1371
    1AU    AUSL  343   3.263   7.474   5.289  0.0044  0.0536  0.0137
    1AU     AUL  344   3.290   7.077   5.380  0.0269 -0.0567  0.0437
    1AU       S  345   3.006   6.761   5.562 -0.5074 -0.0882  0.0923
    1AU     LIG  346   2.845   6.352   5.566 -0.1086  0.2018  0.1724
    1AU     LIG  347   2.963   6.044   5.424 -0.0335 -0.0719  0.1563
    1AU     LIG  348   3.168   5.934   5.243  0.2395  0.0375 -0.0870
    1AU       S  349   3.443   7.381   5.036  0.3440  0.1702  0.4124
    1AU     LIG  350   3.039   7.590   4.849 -0.2360  0.0556  0.2502
    1AU     LIG  351   2.829   7.934   4.661 -0.2637  0.4847  0.0027
    1AU     LIG  352   2.626   7.927   4.377  0.0586 -0.0450  0.3960
    1AU    AUSL  353   2.827   7.281   5.825  0.0014 -0.0185  0.0100
    1AU    AUSL  354   3.216   7.168   6.101 -0.0778 -0.0043 -0.0300
    1AU     AUL  355   2.867   6.935   5.944  0.0748 -0.0431  0.0146
    1AU       S  356   2.640   6.929   5.570  0.0153 -0.0717 -0.0468
    1AU     LIG  357   2.344   7.002   5.862  0.0455  0.2496 -0.2717
    1AU     LIG  358   1.934   6.851   5.989  0.1156 -0.1337 -0.0748
    1AU     LIG  359   1.722   6.955   6.430 -0.1744 -0.0393  0.0926
    1AU       S  360   3.241   6.769   6.152  0.5485  0.0454 -0.0966
    1AU     LIG  361   3.493   6.385   6.338 -0.0328  0.1590  0.0198
    1AU     LIG  362   3.773   6.108   6.461 -0.0695  0.2994  0.0634
    1AU     LIG  363   4.071   5.748   6.490  0.2014 -0.0616  0.2093
    1AU    AUSL  364   3.998   7.916   6.618  0.0531 -0.0054 -0.0131
    1AU    AUSL  365   3.431   7.927   7.000 -0.0170 -0.0789  0.0178
    1AU     AUL  366   3.851   7.919   6.952 -0.0203 -0.0313  0.0295
    1AU       S  367   3.501   7.720   7.191  0.1602  0.1261  0.1664
    1AU     LIG  368   3.961   7.635   7.492  0.3241  0.1504  0.0910
    1AU     LIG  369   3.984   7.340   7.866 -0.1723 -0.2455  0.0787
    1AU     LIG  370   4.259   6.973   8.067  0.4729 -0.0574  0.1845
    1AU       S  371   4.209   8.149   6.804 -0.0020  0.1192  0.3786
    1AU     LIG  372   4.541   7.911   6.691  0.0883  0.2462 -0.0901
    1AU     LIG  373   4.765   7.786   6.426  0.3367  0.0047  0.0869
    1AU     LIG  374   5.081   7.591   6.339  0.1723 -0.0976 -0.0990
    1AU    AUSL  375   3.878   8.284   6.384  0.0974  0.0453  0.0097
    1AU    AUSL  376   3.918   7.801   6.225  0.0724  0.0888 -0.0583
    1AU     AUL  377   4.209   8.046   6.351  0.1141 -0.0383 -0.1406
    1AU       S  378   4.061   8.403   6.669 -0.3138 -0.1374  0.4243
    1AU     LIG  379   4.525   8.457   6.498  0.0072  0.1640 -0.0052
    1AU     LIG  380   4.890   8.761   6.552  0.3635 -0.0803  0.1562
    1AU     LIG  381   4.966   9.225   6.592 -0.1733 -0.4917 -0.2062
    1AU       S  382   4.418   7.714   6.120  0.3595  0.2420  0.1331
    1AU     LIG  383   4.281   7.531   6.530  0.1193  0.3086 -0.1575
    1AU     LIG  384   4.321   7.164   6.818 -0.3157 -0.1478 -0.3805
    1AU     LIG  385   4.186   6.773   6.968  0.5201 -0.3205 -0.3875
    2POPC   NC3  386   6.176   1.897   8.023 -0.0650 -0.0466 -0.2914
    2POPC   PO4  387   5.741   1.918   8.238  0.1303 -0.0606  0.1655
    2POPC   GL1  388   5.741   2.172   7.771 -0.3767  0.2986 -0.3601
    2POPC   GL2  389   5.738   1.820   7.531  0.0566 -0.1945 -0.0705
    2POPC   C1A  390   5.746   2.375   7.374  0.0602  0.0763  0.3587
    2POPC   D2A  391   5.676   2.090   7.033 -0.0647  0.0765 -0.1177
    2POPC   C3A  392   5.383   2.006   6.741  0.1200  0.2292 -0.1465
    2POPC   C4A  393   5.305   1.683   6.386 -0.2509  0.2137 -0.0191
    2POPC   C1B  394   5.490   1.659   7.158  0.0974  0.1749 -0.1667
    2POPC   C2B  395   5.330   1.491   6.823  0.0739 -0.0641 -0.1937
    2POPC   C3B  396   4.882   1.515   6.575 -0.1360  0.1647 -0.1701
    2POPC   C4B  397   4.733   1.748   6.228 -0.0737 -0.2564  0.1520
    3POPC   NC3  398   7.590   8.222   8.413 -0.2163  0.0143  0.0189
    3POPC   PO4  399   7.810   7.891   8.369  0.1684  0.5796  0.1369
    3POPC   GL1  400   7.758   8.120   7.927  0.0310  0.1235  0.2454
    3POPC   GL2  401   7.894   8.326   7.847 -0.2679  0.0811  0.2796
    3POPC   C1A  402   7.522   7.997   7.664  0.1587 -0.2193 -0.0601
    3POPC   D2A  403   7.546   7.936   7.319  0.1843  0.5316  0.0915
    3POPC   C3A  404   7.441   7.936   6.860 -0.1039  0.3165 -0.0463
    3POPC   C4A  405   7.460   8.142   6.382  0.2998  0.0857 -0.1916
    3POPC   C1B  406   8.063   8.082   7.464 -0.1432 -0.1046  0.0585
    3POPC   C2B  407   8.086   7.841   7.075 -0.1050 -0.1682  0.1741
    3POPC   C3B  408   8.251   7.533   6.721 -0.1848  0.2414  0.3180
    3POPC   C4B  409   8.120   7.161   6.501  0.1982 -0.2780  0.1344
    4POPC   NC3  410   9.582   1.383   8.127  0.0776  0.3215 -0.0544
    4POPC   PO4  411   9.356   1.054   8.281 -0.0445 -0.0018 -0.2878
    4POPC   GL1  412   9.215   1.029   7.865 -0.1169 -0.1156 -0.1762
    4POPC   GL2  413   9.437   1.158   7.740 -0.1074 -0.3253  0.0099
    4POPC   C1A  414   9.521   0.786   7.448  0.0416 -0.3857 -0.2651
    4POPC   D2A  415   9.444   0.382   7.247 -0.0454  0.1420 -0.0522
    4POPC   C3A  416   9.062   0.181   7.363  0.0090  0.1677  0.2129
    4POPC   C4A  417   8.793  -0.109   7.220  0.1887  0.0790 -0.3201
    4POPC   C1B  418   9.309   1.273   7.304 -0.1276 -0.1561 -0.5253
    4POPC   C2B  419   9.656   1.537   7.141  0.1326  0.1452 -0.2274
    4POPC   C3B  420   9.688   1.824   6.840 -0.0643 -0.0726  0.2240
    4POPC   C4B  421   9.673   1.957   6.330  0.3534  0.0755  0.1558
    5POPC   NC3  422   1.707   7.596   8.994 -0.0761 -0.1436  0.4031
    5POPC   PO4  423   1.447   7.424   8.605  0.0560 -0.0431 -0.0770
    5POPC   GL1  424   1.463   7.550   8.226  0.0656 -0.2275 -0.2966
    5POPC   GL2  425   1.181   7.653   8.068 -0.0109 -0.1422 -0.0908
    5POPC   C1A  426   1.772   7.858   8.092  0.4018 -0.0286  0.1194
    5POPC   D2A  427   2.137   7.994   8.094 -0.0295 -0.0165 -0.0593
    5POPC   C3A  428   2.475   7.805   7.962  0.0706  0.0359  0.2213
    5POPC   C4A  429   2.486   7.485   7.742 -0.1000  0.0619 -0.1286
    5POPC   C1B  430   1.426   7.903   7.687 -0.2533 -0.0494 -0.2310
    5POPC   C2B  431   1.560   8.079   7.307 -0.0447 -0.2698 -0.1241
    5POPC   C3B  432   1.582   7.977   6.874  0.1078  0.2360  0.1011
    5POPC   C4B  433   1.531   7.810   6.504 -0.0799 -0.0538  0.2861
    6POPC   NC3  434   6.880   3.853   8.147 -0.1346 -0.1153  0.3223
    6POPC   PO4  435   7.311   3.981   8.070  0.2198 -0.1738 -0.0314
    6POPC   GL1  436   7.284   3.923   7.618 -0.0150 -0.0810 -0.4133
    6POPC   GL2  437   7.629   3.926   7.469  0.0271  0.1035 -0.2529
    6POPC   C1A  438   7.199   3.838   7.290 -0.2280  0.0781 -0.0196
    6POPC   D2A  439   7.496   4.050   6.917 -0.0370  0.0053 -0.1485
    6POPC   C3A  440   7.411   3.990   6.509 -0.1455  0.0254  0.0916
    6POPC   C4A  441   7.511   3.658   6.080  0.0866 -0.0578 -0.2873
    6POPC   C1B  442   7.972   3.676   7.334 -0.1479 -0.2492 -0.0054
    6POPC   C2B  443   7.986   3.536   6.953 -0.1122 -0.0418 -0.0862
    6POPC   C3B  444   8.028   3.266   6.652 -0.1377 -0.1759  0.1555
    6POPC   C4B  445   8.133   2.936   6.467  0.0429  0.3127 -0.0540
    7POPC   NC3  446   1.087   7.856   8.586  0.2417 -0.0781 -0.2275
    7POPC   PO4  447   0.661   7.950   8.711  0.0759 -0.1663  0.2470
    7POPC   GL1  448   0.680   7.824   8.197 -0.0790 -0.3864  0.0009
    7POPC   GL2  449   0.464   7.681   8.037 -0.1974 -0.1050 -0.3191
    7POPC   C1A  450   0.894   8.011   7.748  0.0262 -0.1493 -0.0768
    7POPC   D2A  451   0.687   7.983   7.399 -0.1629 -0.2584  0.0684
    7POPC   C3A  452   0.875   8.145   6.999  0.1291 -0.0301 -0.0958
    7POPC   C4A  453   0.840   8.334   6.625  0.1537 -0.1277  0.1762
    7POPC   C1B  454   0.201   7.853   7.618  0.2419 -0.0448  0.2312
    7POPC   C2B  455   0.277   7.860   7.187 -0.0930  0.0636  0.0284
    7POPC   C3B  456   0.213   7.976   6.725  0.0249  0.3043  0.4643
    7POPC   C4B  457   0.456   8.076   6.257  0.3076 -0.4978 -0.1909
    8POPC   NC3  458   7.453   9.077   8.136 -0.0851 -0.1677 -0.2735
    8POPC   PO4  459   7.506   8.634   8.019 -0.2332  0.0339 -0.0583
    8POPC   GL1  460   7.479   8.533   7.619 -0.3487  0.1002 -0.0638
    8POPC   GL2  461   7.175   8.460   7.513 -0.2550  0.0525 -0.1256
    8POPC   C1A  462   7.698   8.374   7.277  0.0862 -0.3167 -0.2040
    8POPC   D2A  463   7.852   8.317   6.848 -0.1646  0.2207  0.1566
    8POPC   C3A  464   7.920   7.873   6.593  0.1384 -0.1235 -0.0345
    8POPC   C4A  465   7.988   7.583   6.326  0.2128  0.2950 -0.0264
    8POPC   C1B  466   7.215   8.461   7.181  0.1138 -0.0443  0.1582
    8POPC   C2B  467   7.165   8.529   6.634 -0.0000 -0.0621  0.2313
    8POPC   C3B  468   7.150   8.423   6.170 -0.0193 -0.0761  0.0245
    8POPC   C4B  469   7.271   8.559   5.658  0.0499  0.0079 -0.0546
    9POPC   NC3  470   7.932   5.907   8.341 -0.0193  0.2283 -0.2889
    9POPC   PO4  471   8.440   6.055   8.271  0.2210  0.0206 -0.0807
    9POPC   GL1  472   8.354   5.973   7.905 -0.0172  0.1529 -0.0987
    9POPC   GL2  473   8.334   5.619   7.837 -0.0797  0.3134  0.0848
    9POPC   C1A  474   8.286   6.050   7.418 -0.0062 -0.0291 -0.0703
    9POPC   D2A  475   8.161   6.139   7.039  0.3354 -0.1067  0.1116
    9POPC   C3A  476   7.929   6.488   6.809 -0.2847  0.0843 -0.5201
    9POPC   C4A  477   7.859   6.706   6.376 -0.0891 -0.3455  0.2338
    9POPC   C1B  478   8.237   5.528   7.376  0.0989 -0.1211 -0.1205
    9POPC   C2B  479   8.008   5.531   7.006 -0.3266  0.0458 -0.5023
    9POPC   C3B  480   8.128   5.333   6.608 -0.3764  0.0893  0.0811
    9POPC   C4B  481   7.931   5.240   6.229  0.1569 -0.0894 -0.0623
   10POPC   NC3  482   6.403   8.206   8.711  0.2605 -0.1310  0.1546
   10POPC   PO4  483   6.231   8.516   8.457 -0.0905  0.3709  0.1383
   10POPC   GL1  484   6.250   8.481   7.925  0.2255  0.1571 -0.0442
   10POPC   GL2  485   6.552   8.383   7.770  0.2376  0.0937  0.0729
   10POPC   C1A  486   5.993   8.416   7.692 -0.2189 -0.0504  0.0261
   10POPC   D2A  487   5.800   8.403   7.375 -0.1384  0.0331 -0.0309
   10POPC   C3A  488   5.716   8.598   7.002 -0.1790  0.3634 -0.1801
   10POPC   C4A  489   5.845   9.024   6.853 -0.0266  0.1427 -0.2272
   10POPC   C1B  490   6.332   8.180   7.388  0.0094 -0.0972  0.3524
   10POPC   C2B  491   6.414   8.057   6.910 -0.2093 -0.0543  0.1900
   10POPC   C3B  492   6.340   7.853   6.457  0.0928  0.3739 -0.0916
   10POPC   C4B  493   6.105   7.693   6.156 -0.0886 -0.2698  0.2186
   11POPC   NC3  494   1.962   1.698   7.953  0.1747  0.3512  0.1308
   11POPC   PO4  495   1.772   1.943   8.212 -0.0222 -0.1333  0.0035
   11POPC   GL1  496   1.932   2.193   7.771 -0.2330 -0.1436  0.0464
   11POPC   GL2  497   2.120   2.488   7.715 -0.2162  0.1464  0.0488
   11POPC   C1A  498   1.915   2.300   7.296 -0.2263 -0.0595 -0.2952
   11POPC   D2A  499   1.881   2.250   6.875  0.0496  0.4140  0.0270
   11POPC   C3A  500   2.220   2.409   6.627  0.0242 -0.1619 -0.0444
   11POPC   C4A  501   2.563   2.298   6.340  0.3955  0.2625 -0.1445
   11POPC   C1B  502   2.362   2.184   7.454  0.0029  0.1718  0.1234
   11POPC   C2B  503   2.396   2.022   7.105 -0.0465  0.2044  0.2720
   11POPC   C3B  504   2.519   1.815   6.784 -0.0715 -0.1396  0.0148
   11POPC   C4B  505   2.603   1.605   6.291 -0.0250 -0.1538 -0.0153
   12POPC   NC3  506   9.474   3.897   8.182 -0.2216 -0.2913  0.0912
   12POPC   PO4  507   9.807   3.951   7.889  0.3352 -0.0459 -0.1978
   12POPC   GL1  508   9.584   3.666   7.631 -0.1812 -0.0351 -0.0851
   12POPC   GL2  509   9.339   3.799   7.468 -0.2692 -0.0615  0.2349
   12POPC   C1A  510   9.528   3.367   7.306  0.0668 -0.0774  0.0245
   12POPC   D2A  511   9.802   3.081   7.055 -0.0098  0.2154 -0.0871
   12POPC   C3A  512   9.561   2.827   6.847 -0.1121  0.1991 -0.0313
   12POPC   C4A  513   9.649   2.486   6.799 -0.1724  0.2719  0.2436
   12POPC   C1B  514   9.435   3.848   7.040  0.2051 -0.5246  0.0315
   12POPC   C2B  515   9.465   3.834   6.578 -0.1008  0.1044  0.0893
   12POPC   C3B  516   9.577   3.779   6.132  0.0368 -0.1753  0.0774
   12POPC   C4B  517   9.752   3.480   5.880 -0.3725 -0.0960  0.0338
   13POPC   NC3  518   2.806   2.372   8.467  0.3325 -0.0261  0.2816
   13POPC   PO4  519   2.992   2.119   8.183  0.2423 -0.0701 -0.4323
   13POPC   GL1  520   3.014   2.314   7.770  0.0310 -0.2453  0.2964
   13POPC   GL2  521   2.848   2.057   7.687  0.0425  0.0989 -0.1702
   13POPC   C1A  522   2.786   2.405   7.392 -0.0429  0.1194 -0.2857
   13POPC   D2A  523   2.725   2.834   7.207  0.1448  0.0506  0.0204
   13POPC   C3A  524   3.004   3.060   7.129 -0.3972 -0.1805 -0.0724
   13POPC   C4A  525   3.375   3.264   7.343  0.0257  0.1138 -0.1647
   13POPC   C1B  526   2.996   1.730   7.577 -0.0716 -0.1132 -0.0884
   13POPC   C2B  527   3.277   1.530   7.213 -0.2730 -0.0366  0.1134
   13POPC   C3B  528   3.587   1.289   7.102  0.3116  0.0935  0.4538
   13POPC   C4B  529   3.635   1.027   6.828  0.3810  0.0562  0.1885
   14POPC   NC3  530   5.551   7.963   8.908 -0.0941  0.4603  0.2776
   14POPC   PO4  531   5.163   7.778   8.612 -0.0993  0.0391  0.0936
   14POPC   GL1  532   4.889   8.117   8.420  0.0563  0.2789  0.3167
   14POPC   GL2  533   5.101   8.165   8.088  0.2370  0.4864  0.3958
   14POPC   C1A  534   4.816   8.575   8.168 -0.2398  0.2200  0.0075
   14POPC   D2A  535   4.912   8.955   7.939 -0.0862 -0.0167 -0.0476
   14POPC   C3A  536   4.720   8.841   7.534  0.0581 -0.0512 -0.3238
   14POPC   C4A  537   4.871   8.754   7.068 -0.1590  0.0172 -0.2878
   14POPC   C1B  538   4.691   8.054   7.951  0.4429 -0.2237  0.2510
   14POPC   C2B  539   4.404   7.997   7.624  0.2224  0.1299 -0.2004
   14POPC   C3B  540   4.232   8.034   7.322  0.2356  0.4288 -0.0799
   14POPC   C4B  541   3.718   8.099   7.423  0.3050 -0.0052  0.0632
   15POPC   NC3  542   1.299   0.480   7.955  0.0234  0.3797 -0.0950
   15POPC   PO4  543   1.587   0.790   8.096 -0.2316 -0.2052  0.0205
   15POPC   GL1  544   1.660   0.707   7.599 -0.1467  0.0574  0.0214
   15POPC   GL2  545   1.838   0.945   7.433  0.2579  0.1312 -0.0871
   15POPC   C1A  546   1.663   0.487   7.239 -0.1130  0.0086 -0.0656
   15POPC   D2A  547   1.928   0.456   6.910  0.1587 -0.1314 -0.2937
   15POPC   C3A  548   2.026   0.368   6.504 -0.0572  0.2196 -0.1060
   15POPC   C4A  549   2.145   0.736   6.211  0.5543 -0.0452 -0.0747
   15POPC   C1B  550   1.892   1.111   7.064  0.1242 -0.2312  0.1565
   15POPC   C2B  551   2.175   1.313   6.722  0.2719  0.0338 -0.0263
   15POPC   C3B  552   2.372   1.093   6.423 -0.2560 -0.2716  0.0553
   15POPC   C4B  553   2.475   1.132   6.050  0.0078  0.3512  0.0353
   16POPC   NC3  554   7.268   5.915   8.048  0.0281 -0.0362  0.1522
   16POPC   PO4  555   7.150   6.223   7.928  0.3192  0.0677  0.0863
   16POPC   GL1  556   7.276   6.022   7.473  0.0451 -0.1179 -0.6490
   16POPC   GL2  557   7.373   5.722   7.608 -0.0426  0.1072  0.2925
   16POPC   C1A  558   7.227   5.922   7.086 -0.0255 -0.1278 -0.0721
   16POPC   D2A  559   7.155   5.895   6.730 -0.2040 -0.2741  0.1528
   16POPC   C3A  560   7.056   5.580   6.679  0.1741 -0.2906  0.0421
   16POPC   C4A  561   6.781   5.230   6.711 -0.3145 -0.0191 -0.0555
   16POPC   C1B  562   7.585   5.493   7.329 -0.0332  0.0153 -0.0072
   16POPC   C2B  563   7.512   5.472   6.900  0.1579 -0.4026  0.4344
   16POPC   C3B  564   7.587   5.483   6.488 -0.2402 -0.0059  0.1551
   16POPC   C4B  565   7.557   5.705   6.198 -0.3301 -0.1186 -0.1181
   17POPC   NC3  566   3.115   3.577   8.105  0.2288 -0.3561 -0.0651
   17POPC   PO4  567   2.672   3.820   8.034 -0.0271  0.0119 -0.0654
   17POPC   GL1  568   2.896   3.927   7.660  0.0058  0.0116 -0.1209
   17POPC   GL2  569   3.216   3.692   7.607  0.1844  0.2081 -0.1958
   17POPC   C1A  570   3.170   4.237   7.272  0.0371  0.0569 -0.0158
   17POPC   D2A  571   3.017   4.567   6.895  0.0320 -0.2417  0.2195
   17POPC   C3A  572   2.637   4.500   6.624 -0.3062 -0.1667 -0.1946
   17POPC   C4A  573   2.272   4.228   6.461  0.0111 -0.2355  0.0981
   17POPC   C1B  574   3.385   3.763   7.220 -0.1891 -0.2583  0.2057
   17POPC   C2B  575   3.693   4.065   7.004  0.0029  0.1719 -0.1395
   17POPC   C3B  576   3.891   4.407   6.723  0.0026 -0.1579 -0.0461
   17POPC   C4B  577   3.959   4.651   6.340  0.2179  0.0766  0.0214
   18POPC   NC3  578   5.207   1.458   8.341  0.0087  0.2279  0.0419
   18POPC   PO4  579   4.711   1.519   8.381 -0.1394 -0.1870  0.1361
   18POPC   GL1  580   4.775   1.631   7.939 -0.0205 -0.0142  0.1644
   18POPC   GL2  581   5.088   1.650   7.891  0.0298 -0.0113 -0.2391
   18POPC   C1A  582   4.684   1.757   7.505  0.2895 -0.1182  0.0705
   18POPC   D2A  583   4.469   1.651   7.087  0.0770 -0.0561  0.2972
   18POPC   C3A  584   4.521   1.412   6.875  0.0063 -0.0340  0.1481
   18POPC   C4A  585   4.494   1.189   6.471 -0.3937  0.1515 -0.1590
   18POPC   C1B  586   5.181   1.449   7.600 -0.0390  0.3192  0.0949
   18POPC   C2B  587   5.414   1.189   7.319  0.0570 -0.0395 -0.0428
   18POPC   C3B  588   5.464   0.677   7.280 -0.0862 -0.0179  0.0630
   18POPC   C4B  589   5.508   0.204   7.075  0.1277  0.0600  0.1266
   19POPC   NC3  590   8.651   5.454   8.236  0.3057 -0.1920  0.0486
   19POPC   PO4  591   8.826   5.793   8.331 -0.0703 -0.0193  0.2611
   19POPC   GL1  592   8.830   5.723   7.901 -0.0599  0.0042  0.0804
   19POPC   GL2  593   9.076   5.784   7.766  0.0675  0.0559 -0.0324
   19POPC   C1A  594   8.702   5.660   7.462 -0.1323 -0.3297  0.3999
   19POPC   D2A  595   8.676   5.836   7.076 -0.0060  0.1977 -0.1367
   19POPC   C3A  596   8.980   5.953   6.844  0.1547  0.1433  0.0896
   19POPC   C4A  597   8.909   6.026   6.392 -0.2384 -0.0744 -0.1217
   19POPC   C1B  598   8.955   6.168   7.497 -0.1307 -0.0222  0.2035
   19POPC   C2B  599   8.804   6.357   7.151  0.1433  0.1239  0.1617
   19POPC   C3B  600   8.661   6.382   6.687  0.0683 -0.1525 -0.0246
   19POPC   C4B  601   8.251   6.372   6.439 -0.2000 -0.3300 -0.0854
   20POPC   NC3  602   1.720   5.926   8.518  0.1812 -0.0536  0.1498
   20POPC   PO4  603   1.934   5.502   8.276  0.0372 -0.4598 -0.1605
   20POPC   GL1  604   2.226   5.577   7.897 -0.0601 -0.0367  0.2846
   20POPC   GL2  605   2.469   5.751   7.944  0.2867 -0.0441 -0.1751
   20POPC   C1A  606   2.215   5.595   7.446  0.2089 -0.1757 -0.2325
   20POPC   D2A  607   2.128   5.683   6.914 -0.1717  0.2883 -0.2249
   20POPC   C3A  608   2.225   6.103   6.693  0.3413 -0.0374  0.1285
   20POPC   C4A  609   2.465   6.151   6.331 -0.1547 -0.1004 -0.0870
   20POPC   C1B  610   2.634   6.052   7.624 -0.1313  0.0904 -0.0060
   20POPC   C2B  611   2.641   5.957   7.136  0.3860 -0.1010  0.0086
   20POPC   C3B  612   2.700   6.129   6.810  0.1800  0.0143 -0.2821
   20POPC   C4B  613   2.977   6.099   6.427  0.1743 -0.3253 -0.0115
   21POPC   NC3  614   5.893   6.343   8.628  0.1740 -0.1957  0.0615
   21POPC   PO4  615   5.676   6.621   8.395  0.1352  0.4215 -0.0970
   21POPC   GL1  616   5.756   6.730   7.913  0.3007 -0.1282  0.0853
   21POPC   GL2  617   5.915   6.779   7.726 -0.1495 -0.0818 -0.0372
   21POPC   C1A  618   5.558   6.958   7.459  0.2546 -0.3324  0.0931
   21POPC   D2A  619   5.788   7.163   7.017  0.1663  0.1834  0.0198
   21POPC   C3A  620   5.753   7.076   6.643  0.1896 -0.0682 -0.1057
   21POPC   C4A  621   5.778   6.754   6.336 -0.0567 -0.2139  0.1245
   21POPC   C1B  622   5.921   6.601   7.230 -0.4297 -0.2902 -0.3096
   21POPC   C2B  623   5.640   6.690   6.842 -0.0954 -0.0696 -0.1047
   21POPC   C3B  624   5.437   6.357   6.572 -0.0505 -0.0030 -0.0944
   21POPC   C4B  625   5.217   6.137   6.240 -0.1203 -0.2188 -0.1060
   22POPC   NC3  626   4.795   9.496   9.186  0.0041  0.0704  0.1101
   22POPC   PO4  627   4.849   9.087   8.992  0.0540  0.1772  0.0662
   22POPC   GL1  628   4.635   9.316   8.681 -0.2676 -0.0074  0.1508
   22POPC   GL2  629   4.252   9.144   8.585 -0.0642 -0.1025  0.0747
   22POPC   C1A  630   4.390   9.601   8.407  0.3877 -0.0827 -0.0321
   22POPC   D2A  631   3.921   9.601   8.200 -0.3423 -0.0915  0.1110
   22POPC   C3A  632   3.864   9.918   7.903 -0.1083 -0.0606 -0.0290
   22POPC   C4A  633   3.895  10.326   7.764  0.0933  0.2443  0.1860
   22POPC   C1B  634   4.345   8.867   8.248 -0.0309  0.1786 -0.0749
   22POPC   C2B  635   4.251   8.868   7.785  0.3230 -0.0917  0.1570
   22POPC   C3B  636   4.342   8.599   7.315  0.1771 -0.0419  0.3017
   22POPC   C4B  637   4.376   8.777   6.878  0.2832  0.0794  0.0490
   23POPC   NC3  638   8.070   0.807   7.792 -0.1067 -0.1244  0.2865
   23POPC   PO4  639   7.696   0.611   7.625 -0.0075  0.3021  0.2194
   23POPC   GL1  640   7.770   0.525   7.263  0.0080  0.0815 -0.2801
   23POPC   GL2  641   7.946   0.293   7.152 -0.1097 -0.1844 -0.0079
   23POPC   C1A  642   7.585   0.652   6.873  0.0419  0.0004  0.2745
   23POPC   D2A  643   7.602   0.784   6.460  0.0604 -0.1255  0.1011
   23POPC   C3A  644   7.724   0.750   6.005  0.0859 -0.1124  0.0322
   23POPC   C4A  645   7.787   0.632   5.554  0.0312  0.1355 -0.0765
   23POPC   C1B  646   8.340   0.035   7.183  0.2266  0.0283  0.0096
   23POPC   C2B  647   8.380  -0.329   6.971  0.0264 -0.0406 -0.0561
   23POPC   C3B  648   8.166  -0.503   6.607 -0.1792 -0.1704  0.1280
   23POPC   C4B  649   8.014  -0.748   6.414 -0.1091 -0.0696  0.0947
   24POPC   NC3  650   9.215   2.158   7.943 -0.2216  0.0029 -0.0510
   24POPC   PO4  651   9.409   1.888   8.142 -0.2699  0.0801  0.2107
   24POPC   GL1  652   9.365   1.674   7.709  0.0798  0.1042  0.0013
   24POPC   GL2  653   9.716   1.572   7.609  0.2113  0.0801 -0.0145
   24POPC   C1A  654   9.218   1.764   7.337  0.1323 -0.0452  0.2485
   24POPC   D2A  655   9.117   1.609   7.017  0.3805 -0.0960  0.1964
   24POPC   C3A  656   9.306   1.651   6.543  0.2325  0.0776  0.1186
   24POPC   C4A  657   9.319   1.658   6.040 -0.0469  0.2592 -0.1520
   24POPC   C1B  658   9.845   1.181   7.392  0.1419 -0.1951  0.1031
   24POPC   C2B  659   9.776   0.863   7.016 -0.2658 -0.2442 -0.3868
   24POPC   C3B  660   9.563   0.687   6.726  0.2616  0.0266  0.0191
   24POPC   C4B  661   9.474   0.309   6.462  0.0816  0.1846  0.2554
   25POPC   NC3  662   5.952   3.970   8.021 -0.0931 -0.0241 -0.3750
   25POPC   PO4  663   6.424   3.704   8.134 -0.0333 -0.0526  0.2234
   25POPC   GL1  664   6.454   3.785   7.755 -0.1093  0.0468 -0.1613
   25POPC   GL2  665   6.761   3.719   7.654  0.3028 -0.0875 -0.2270
   25POPC   C1A  666   6.213   3.985   7.432  0.0894  0.2435 -0.1408
   25POPC   D2A  667   5.810   4.003   7.326 -0.1051 -0.1836  0.0188
   25POPC   C3A  668   5.804   3.900   6.905  0.3714 -0.0334  0.0060
   25POPC   C4A  669   5.730   3.904   6.422  0.1263 -0.0373  0.1164
   25POPC   C1B  670   6.611   3.438   7.354  0.2257  0.4017 -0.2751
   25POPC   C2B  671   6.610   3.293   6.882 -0.3097  0.0345  0.2690
   25POPC   C3B  672   6.613   3.554   6.575  0.1878  0.0351 -0.0125
   25POPC   C4B  673   6.742   3.507   6.093  0.0182 -0.0018  0.2610
   26POPC   NC3  674   3.474   7.113   9.144  0.1940 -0.0873 -0.0068
   26POPC   PO4  675   3.993   7.220   9.279  0.1329  0.1516 -0.1916
   26POPC   GL1  676   4.095   7.382   8.850 -0.3845  0.1945 -0.1576
   26POPC   GL2  677   4.194   7.119   8.579 -0.1350  0.2147 -0.0932
   26POPC   C1A  678   3.955   7.617   8.545  0.1661 -0.1808  0.0561
   26POPC   D2A  679   3.676   7.710   8.104 -0.0522 -0.0671  0.1122
   26POPC   C3A  680   3.839   8.048   7.978  0.0455  0.1784 -0.0237
   26POPC   C4A  681   3.420   8.303   7.795  0.2127 -0.3354  0.2317
   26POPC   C1B  682   3.838   7.129   8.335  0.1075 -0.1592 -0.0609
   26POPC   C2B  683   3.661   6.962   7.979  0.1666  0.2577 -0.0894
   26POPC   C3B  684   3.857   6.748   7.762 -0.2856  0.0631 -0.1278
   26POPC   C4B  685   4.172   6.539   7.768  0.1876 -0.1379  0.0354
   27POPC   NC3  686   5.773   8.834   9.002  0.1377  0.1446 -0.1749
   27POPC   PO4  687   5.815   8.692   8.649  0.3005  0.0104  0.0960
   27POPC   GL1  688   5.423   8.873   8.235  0.0999 -0.0404  0.0666
   27POPC   GL2  689   5.461   9.170   8.130  0.2523 -0.1361 -0.3816
   27POPC   C1A  690   5.383   8.558   7.841 -0.0218 -0.0222 -0.3684
   27POPC   D2A  691   5.340   8.514   7.405 -0.1526 -0.0069 -0.2181
   27POPC   C3A  692   5.442   8.112   7.174  0.3768 -0.1548  0.2238
   27POPC   C4A  693   5.609   7.744   7.015  0.2259 -0.0406 -0.0513
   27POPC   C1B  694   5.355   9.028   7.680  0.1618  0.1777  0.0876
   27POPC   C2B  695   5.045   9.175   7.392  0.1782 -0.1412  0.0383
   27POPC   C3B  696   4.825   9.290   7.039 -0.0131 -0.3239  0.0407
   27POPC   C4B  697   4.531   9.384   6.765  0.1628  0.0660 -0.1205
   28POPC   NC3  698   5.688   7.091   8.280 -0.1830  0.0712 -0.1056
   28POPC   PO4  699   5.316   6.954   8.416 -0.1344  0.3095 -0.2136
   28POPC   GL1  700   5.098   6.986   7.979 -0.3332 -0.0672 -0.0803
   28POPC   GL2  701   5.130   6.735   7.595 -0.2370 -0.0316  0.2152
   28POPC   C1A  702   5.126   7.357   7.698  0.2384  0.0819 -0.1929
   28POPC   D2A  703   5.381   7.478   7.327 -0.0611 -0.0735 -0.0283
   28POPC   C3A  704   5.048   7.600   7.215 -0.0732 -0.1840 -0.1078
   28POPC   C4A  705   5.111   7.743   6.811  0.3144 -0.0527  0.0836
   28POPC   C1B  706   5.093   7.072   7.248 -0.0940 -0.2212  0.2679
   28POPC   C2B  707   5.157   7.224   6.858 -0.1708  0.1145  0.2527
   28POPC   C3B  708   5.255   7.133   6.380 -0.0529 -0.2943 -0.0432
   28POPC   C4B  709   5.022   7.209   6.050  0.1687 -0.0663 -0.0039
   29POPC   NC3  710   8.386   6.927   8.414 -0.2505  0.0464  0.5818
   29POPC   PO4  711   8.814   6.755   8.204  0.0135 -0.1185  0.0481
   29POPC   GL1  712   8.500   6.915   7.958  0.2713  0.0696 -0.0929
   29POPC   GL2  713   8.133   7.012   7.974 -0.0588  0.1061 -0.2096
   29POPC   C1A  714   8.255   6.908   7.510 -0.1302 -0.0674 -0.1366
   29POPC   D2A  715   7.976   6.630   7.344  0.0354 -0.4024  0.0439
   29POPC   C3A  716   7.618   6.903   7.091 -0.1561 -0.1047  0.0210
   29POPC   C4A  717   7.686   7.065   6.705  0.1825 -0.0460  0.1686
   29POPC   C1B  718   7.796   7.089   7.592 -0.1927 -0.2386  0.2745
   29POPC   C2B  719   7.436   7.308   7.368  0.2346 -0.1938 -0.1878
   29POPC   C3B  720   7.515   7.468   6.950  0.1659 -0.0911 -0.1369
   29POPC   C4B  721   7.479   7.641   6.476  0.0627 -0.0994  0.3845
   30POPC   NC3  722   2.347   6.758   9.034  0.1886  0.2288  0.0853
   30POPC   PO4  723   2.037   6.699   8.771 -0.0378 -0.2708  0.0299
   30POPC   GL1  724   2.399   6.559   8.507 -0.0863 -0.0888 -0.1188
   30POPC   GL2  725   2.250   6.633   8.307  0.1697 -0.0896  0.3771
   30POPC   C1A  726   2.753   6.636   8.307 -0.0467 -0.0719 -0.0895
   30POPC   D2A  727   2.769   6.818   7.967  0.1329 -0.0826 -0.1231
   30POPC   C3A  728   2.557   6.872   7.533  0.3946 -0.2395 -0.2156
   30POPC   C4A  729   2.387   6.935   7.141  0.1944  0.2869  0.0592
   30POPC   C1B  730   2.334   7.050   8.112  0.2759  0.1716  0.0674
   30POPC   C2B  731   2.153   7.083   7.722 -0.1128  0.0968  0.3017
   30POPC   C3B  732   1.845   7.108   7.371 -0.5229 -0.2366  0.0539
   30POPC   C4B  733   1.546   7.485   7.263 -0.0333 -0.1609  0.1585
   31POPC   NC3  734   8.451   3.274   8.228 -0.2452 -0.3491 -0.0077
   31POPC   PO4  735   8.749   3.579   8.218  0.2631 -0.0226  0.0858
   31POPC   GL1  736   8.605   3.544   7.813  0.3010 -0.0831 -0.0248
   31POPC   GL2  737   8.572   3.852   7.626  0.2904  0.0200  0.2357
   31POPC   C1A  738   8.458   3.446   7.320 -0.3177  0.2707  0.0485
   31POPC   D2A  739   8.500   3.380   6.904  0.0835  0.0529 -0.3388
   31POPC   C3A  740   8.437   3.512   6.462  0.0398 -0.0462 -0.0452
   31POPC   C4A  741   8.031   3.327   6.195 -0.2313  0.0816 -0.1824
   31POPC   C1B  742   8.894   4.007   7.348  0.0311 -0.3787  0.3263
   31POPC   C2B  743   9.199   4.271   7.161 -0.1847  0.1984  0.0290
   31POPC   C3B  744   9.281   4.379   6.713 -0.0468 -0.0440  0.1499
   31POPC   C4B  745   9.270   4.780   6.466  0.2285 -0.0006  0.1245
   32POPC   NC3  746   7.543   4.380   8.234 -0.0241  0.0795 -0.1536
   32POPC   PO4  747   7.896   4.637   8.034  0.1294 -0.0187  0.2706
   32POPC   GL1  748   7.776   4.552   7.584  0.5696 -0.0583  0.1908
   32POPC   GL2  749   7.469   4.419   7.714  0.1087  0.1611  0.0140
   32POPC   C1A  750   7.750   4.446   7.028  0.0185  0.2203 -0.1059
   32POPC   D2A  751   7.822   4.439   6.509 -0.0616 -0.2323  0.1735
   32POPC   C3A  752   8.109   4.285   6.218 -0.0741 -0.2691 -0.2057
   32POPC   C4A  753   8.416   4.406   6.051  0.2151 -0.2344 -0.0054
   32POPC   C1B  754   7.288   4.399   7.375 -0.2921 -0.0031  0.1139
   32POPC   C2B  755   7.036   4.297   7.083  0.1484  0.0492  0.1329
   32POPC   C3B  756   7.002   4.192   6.656  0.2360 -0.0766 -0.0767
   32POPC   C4B  757   6.787   3.990   6.413  0.3007 -0.1667  0.2205
   33POPC   NC3  758   4.487   1.948   8.174  0.2759  0.0048  0.3942
   33POPC   PO4  759   4.048   2.113   8.044 -0.0192  0.0592 -0.0804
   33POPC   GL1  760   4.150   1.875   7.691  0.1782  0.0167  0.0815
   33POPC   GL2  761   3.966   2.082   7.533 -0.0150  0.4630  0.0772
   33POPC   C1A  762   4.269   1.420   7.522 -0.3483 -0.1120  0.3038
   33POPC   D2A  763   4.082   1.280   7.274 -0.1671 -0.0779  0.1229
   33POPC   C3A  764   4.176   1.035   6.838 -0.0728 -0.3020 -0.0939
   33POPC   C4A  765   4.248   0.702   6.471 -0.0323  0.3291  0.1499
   33POPC   C1B  766   3.804   2.296   7.156 -0.1955 -0.0047 -0.1804
   33POPC   C2B  767   3.806   2.486   6.821  0.0771 -0.0590  0.1434
   33POPC   C3B  768   3.702   2.648   6.503  0.1395 -0.2204  0.0008
   33POPC   C4B  769   3.485   2.594   6.101  0.2007  0.4799  0.0299
   34POPC   NC3  770   3.924   2.554   7.941 -0.2241  0.0030 -0.2551
   34POPC   PO4  771   3.567   2.824   8.122  0.0268 -0.1239 -0.1331
   34POPC   GL1  772   3.385   2.640   7.725 -0.0147 -0.0846  0.1636
   34POPC   GL2  773   3.545   2.352   7.680 -0.0736  0.0093  0.2644
   34POPC   C1A  774   3.435   2.587   7.265 -0.0365  0.4273 -0.1098
   34POPC   D2A  775   3.269   2.418   6.877  0.1077  0.2151 -0.2556
   34POPC   C3A  776   3.128   2.652   6.503 -0.1064 -0.0629  0.2690
   34POPC   C4A  777   3.097   3.029   6.614  0.0719 -0.0833 -0.0671
   34POPC   C1B  778   3.381   2.072   7.374  0.0206  0.4031  0.2597
   34POPC   C2B  779   3.357   1.914   6.905 -0.0905 -0.0014 -0.1890
   34POPC   C3B  780   3.563   1.630   6.581  0.0956 -0.0453 -0.1109
   34POPC   C4B  781   3.422   1.306   6.349  0.2237  0.0934  0.0832
   35POPC   NC3  782   6.333   0.974   7.973  0.0924 -0.0826  0.3132
   35POPC   PO4  783   5.998   0.683   7.996 -0.0231  0.0670  0.0689
   35POPC   GL1  784   5.654   0.527   7.759  0.1684  0.0892 -0.0937
   35POPC   GL2  785   5.803   0.249   7.604  0.0330  0.0547  0.3983
   35POPC   C1A  786   5.332   0.270   7.578 -0.1442 -0.1442 -0.0439
   35POPC   D2A  787   5.087  -0.007   7.339 -0.0277 -0.0131 -0.2514
   35POPC   C3A  788   4.997   0.141   6.949 -0.2749 -0.3942 -0.1683
   35POPC   C4A  789   4.898   0.057   6.508  0.1098 -0.1814  0.1476
   35POPC   C1B  790   6.121   0.432   7.315 -0.0445  0.5371 -0.0532
   35POPC   C2B  791   6.291   0.259   6.854 -0.0829 -0.0381  0.0560
   35POPC   C3B  792   6.385   0.214   6.452  0.1111 -0.3075  0.2985
   35POPC   C4B  793   6.571   0.064   6.080  0.2835  0.1824 -0.1552
   36POPC   NC3  794   4.354   0.786   8.772 -0.1515 -0.0325 -0.1926
   36POPC   PO4  795   4.688   0.608   8.617  0.0906 -0.2930  0.1443
   36POPC   GL1  796   4.796   0.580   8.222 -0.1956 -0.0617  0.3220
   36POPC   GL2  797   5.078   0.511   8.044  0.0937 -0.0832  0.0420
   36POPC   C1A  798   4.641   0.797   7.883 -0.3369 -0.0304  0.1056
   36POPC   D2A  799   4.352   0.909   7.631  0.1568 -0.0396 -0.0261
   36POPC   C3A  800   4.249   0.574   7.292 -0.1969  0.0003 -0.3015
   36POPC   C4A  801   4.086   0.529   6.872 -0.1551  0.1841  0.0759
   36POPC   C1B  802   4.882   0.392   7.642  0.2687  0.2368  0.1565
   36POPC   C2B  803   4.710   0.344   7.334 -0.0277  0.3475 -0.2040
   36POPC   C3B  804   4.530   0.130   7.095  0.1225 -0.3102  0.1578
   36POPC   C4B  805   4.389   0.157   6.636  0.1881 -0.3032  0.1639
   37POPC   NC3  806   7.738   5.095   8.347 -0.1964  0.2082 -0.1528
   37POPC   PO4  807   7.564   5.576   8.379  0.4723  0.0153 -0.0439
   37POPC   GL1  808   7.770   5.489   7.992  0.1588 -0.2262 -0.2234
   37POPC   GL2  809   7.716   5.202   7.820  0.0616 -0.1397  0.1427
   37POPC   C1A  810   7.839   5.754   7.681  0.2935  0.0438  0.0079
   37POPC   D2A  811   7.722   5.978   7.205 -0.0528 -0.1208  0.2450
   37POPC   C3A  812   7.718   5.924   6.764 -0.3304  0.3466 -0.2033
   37POPC   C4A  813   7.961   5.767   6.505  0.2155 -0.0419  0.2827
   37POPC   C1B  814   7.942   5.076   7.490 -0.0772  0.1058 -0.3273
   37POPC   C2B  815   7.878   5.081   7.016 -0.0584  0.1925 -0.3459
   37POPC   C3B  816   7.809   4.958   6.704  0.1238 -0.0004 -0.0260
   37POPC   C4B  817   7.578   4.890   6.275  0.1546 -0.1166  0.1922
   38POPC   NC3  818   2.533   5.499   8.896 -0.1380  0.0411 -0.1560
   38POPC   PO4  819   2.164   5.747   8.715 -0.1411  0.1804  0.2193
   38POPC   GL1  820   2.297   5.957   8.374  0.0907 -0.0520 -0.0637
   38POPC   GL2  821   2.606   6.031   8.359  0.1966 -0.0278  0.0030
   38POPC   C1A  822   2.109   6.070   7.980 -0.0802  0.0786  0.3252
   38POPC   D2A  823   2.141   6.074   7.526 -0.1814  0.0203  0.0486
   38POPC   C3A  824   1.911   6.131   7.170 -0.3306  0.1054 -0.1572
   38POPC   C4A  825   1.721   6.422   6.833 -0.0726 -0.1062  0.2173
   38POPC   C1B  826   2.575   6.297   8.041  0.1811 -0.0812  0.3178
   38POPC   C2B  827   2.316   6.539   7.751  0.3382 -0.2331  0.0037
   38POPC   C3B  828   2.072   6.653   7.472 -0.1166  0.2523 -0.0932
   38POPC   C4B  829   1.714   6.581   7.322  0.0206 -0.1467  0.3782
   39POPC   NC3  830   6.994   7.354   8.047  0.1596  0.0944 -0.3288
   39POPC   PO4  831   7.367   7.169   8.231 -0.0837 -0.0969  0.1405
   39POPC   GL1  832   7.346   7.026   7.816 -0.0642  0.0711 -0.0672
   39POPC   GL2  833   7.060   7.093   7.586  0.1457 -0.0131  0.2426
   39POPC   C1A  834   7.429   6.704   7.476  0.1609 -0.0624 -0.0314
   39POPC   D2A  835   7.375   6.391   7.109  0.0265  0.1428  0.0405
   39POPC   C3A  836   7.325   6.409   6.665 -0.1412  0.1716  0.0773
   39POPC   C4A  837   7.670   6.216   6.375 -0.2338 -0.3245  0.2260
   39POPC   C1B  838   7.101   6.861   7.149 -0.4064  0.3904  0.1045
   39POPC   C2B  839   7.205   6.864   6.798 -0.0628 -0.1556  0.0807
   39POPC   C3B  840   7.363   6.848   6.381 -0.0610  0.3054 -0.0444
   39POPC   C4B  841   7.675   7.185   6.175  0.3754 -0.0456 -0.1325
   40POPC   NC3  842   7.215   1.126   8.013 -0.3581 -0.1507  0.1377
   40POPC   PO4  843   6.817   0.974   7.917  0.1250 -0.6072 -0.1546
   40POPC   GL1  844   6.835   1.021   7.477 -0.1170 -0.0736 -0.4576
   40POPC   GL2  845   6.600   1.331   7.535 -0.0265  0.3454 -0.2837
   40POPC   C1A  846   6.956   1.328   7.133 -0.1629 -0.2485  0.1008
   40POPC   D2A  847   7.090   1.532   6.725  0.1004 -0.2620 -0.2700
   40POPC   C3A  848   7.261   1.717   6.359  0.0478  0.3469  0.0993
   40POPC   C4A  849   7.635   2.056   6.185 -0.6348  0.1265 -0.2141
   40POPC   C1B  850   6.452   1.297   7.080  0.0346  0.1157  0.1708
   40POPC   C2B  851   6.590   1.092   6.737 -0.2420  0.0496  0.5532
   40POPC   C3B  852   6.518   1.154   6.371 -0.3034 -0.0887  0.2700
   40POPC   C4B  853   6.331   1.041   5.984  0.1647  0.1647  0.3572
   41POPC   NC3  854   8.781   0.276   8.061 -0.2046 -0.2728 -0.2067
   41POPC   PO4  855   8.336   0.362   7.843 -0.2663 -0.0772  0.6417
   41POPC   GL1  856   8.289   0.526   7.367 -0.2480  0.2578 -0.3788
   41POPC   GL2  857   8.587   0.537   7.352  0.2256  0.1338 -0.1430
   41POPC   C1A  858   8.250   0.634   6.956 -0.1091 -0.1906 -0.0948
   41POPC   D2A  859   8.071   0.595   6.536  0.1140 -0.1882  0.0332
   41POPC   C3A  860   7.748   0.260   6.243  0.2629  0.1775  0.1376
   41POPC   C4A  861   7.592   0.259   5.873 -0.1168 -0.1549  0.4989
   41POPC   C1B  862   8.702   0.382   6.967 -0.2627 -0.0713  0.0612
   41POPC   C2B  863   8.856   0.027   6.716 -0.2203 -0.3619 -0.1745
   41POPC   C3B  864   9.232  -0.311   6.536  0.1433 -0.0900  0.2644
   41POPC   C4B  865   9.630  -0.274   6.427 -0.1608  0.2511 -0.0824
   42POPC   NC3  866   6.640   6.278   8.009 -0.3080  0.0215 -0.0449
   42POPC   PO4  867   6.385   6.583   7.851  0.1589  0.1288  0.0847
   42POPC   GL1  868   6.566   6.574   7.425  0.2227  0.1506 -0.1826
   42POPC   GL2  869   6.945   6.425   7.451 -0.0461 -0.1197 -0.2637
   42POPC   C1A  870   6.451   6.652   7.036  0.0607  0.1070 -0.0178
   42POPC   D2A  871   6.277   6.667   6.610  0.0361 -0.1271 -0.1998
   42POPC   C3A  872   6.396   6.842   6.155  0.0888  0.2046 -0.1689
   42POPC   C4A  873   6.644   6.975   5.822 -0.1280  0.0187 -0.0503
   42POPC   C1B  874   6.867   6.374   7.030 -0.1070 -0.3014 -0.1573
   42POPC   C2B  875   6.748   6.455   6.604 -0.0177  0.1696 -0.1428
   42POPC   C3B  876   7.020   6.365   6.314 -0.0153  0.0219 -0.1082
   42POPC   C4B  877   7.114   5.869   6.243  0.0190 -0.0756 -0.1446
   43POPC   NC3  878   2.092   0.867   7.918  0.2194 -0.2624 -0.0549
   43POPC   PO4  879   1.865   1.235   7.856 -0.0364 -0.0058 -0.0277
   43POPC   GL1  880   2.063   1.421   7.507  0.2941  0.0649 -0.0506
   43POPC   GL2  881   1.921   1.710   7.370  0.0300  0.1678 -0.2882
   43POPC   C1A  882   2.313   1.431   7.188  0.2162  0.0535  0.2239
   43POPC   D2A  883   2.802   1.511   7.181 -0.2073 -0.1818 -0.0252
   43POPC   C3A  884   2.929   1.991   7.154 -0.0418  0.0252 -0.0374
   43POPC   C4A  885   2.721   2.354   6.879  0.0646  0.1649 -0.2402
   43POPC   C1B  886   1.994   1.747   6.957 -0.1224 -0.3172 -0.0618
   43POPC   C2B  887   2.094   1.902   6.496  0.0979  0.0324 -0.0912
   43POPC   C3B  888   2.259   1.937   6.153 -0.0546 -0.0507  0.0490
   43POPC   C4B  889   2.256   2.085   5.760  0.1515  0.2425 -0.5250
   44POPC   NC3  890   5.649   1.474   8.022 -0.1435 -0.0645 -0.1753
   44POPC   PO4  891   6.059   1.404   8.100  0.4427 -0.0062  0.0203
   44POPC   GL1  892   6.072   1.412   7.675  0.0503 -0.1413  0.0840
   44POPC   GL2  893   6.189   1.684   7.505 -0.1099  0.2131  0.0474
   44POPC   C1A  894   5.875   1.312   7.266  0.4593  0.5358  0.0589
   44POPC   D2A  895   5.796   1.329   6.877  0.2239 -0.1501  0.3131
   44POPC   C3A  896   5.742   1.684   6.689 -0.0618  0.1574 -0.3866
   44POPC   C4A  897   5.947   2.037   6.479  0.0679  0.1835  0.1890
   44POPC   C1B  898   6.198   2.191   7.398 -0.0669  0.2287 -0.0768
   44POPC   C2B  899   6.156   2.553   7.192  0.0248 -0.0215 -0.1383
   44POPC   C3B  900   5.831   2.542   6.899  0.0140 -0.2217  0.1864
   44POPC   C4B  901   5.499   2.459   6.614 -0.1246 -0.0272  0.1156
   45POPC   NC3  902   8.995   8.622   8.326 -0.0924  0.1866  0.1198
   45POPC   PO4  903   8.729   8.318   8.102  0.0426 -0.1283 -0.1281
   45POPC   GL1  904   8.999   8.301   7.729  0.1395 -0.0212 -0.0093
   45POPC   GL2  905   9.274   8.373   7.951  0.1977  0.0027  0.2853
   45POPC   C1A  906   9.114   7.999   7.481  0.0934  0.0266  0.3831
   45POPC   D2A  907   8.969   7.588   7.403 -0.1093 -0.1246  0.3244
   45POPC   C3A  908   9.122   7.329   7.125 -0.0701 -0.2108 -0.1382
   45POPC   C4A  909   9.013   7.512   6.752  0.0476  0.1055  0.0968
   45POPC   C1B  910   9.638   8.720   7.798  0.0310 -0.2547  0.0487
   45POPC   C2B  911   9.904   8.873   7.521  0.0192 -0.1723 -0.0324
   45POPC   C3B  912   9.678   9.138   7.339  0.1324 -0.2212 -0.0214
   45POPC   C4B  913   9.707   9.382   6.970  0.1183  0.3659  0.2469
   46POPC   NC3  914   8.865   0.990   8.196 -0.0939  0.1983 -0.0446
   46POPC   PO4  915   8.486   0.846   8.041  0.1964  0.1679 -0.2122
   46POPC   GL1  916   8.372   1.171   7.709 -0.0141 -0.0334 -0.2883
   46POPC   GL2  917   8.733   1.203   7.731  0.0633  0.2230  0.2936
   46POPC   C1A  918   8.476   1.023   7.361  0.0282 -0.0202  0.0839
   46POPC   D2A  919   8.694   0.894   6.949  0.0837  0.1617 -0.1422
   46POPC   C3A  920   9.007   1.153   6.806  0.3825 -0.4043 -0.2467
   46POPC   C4A  921   9.429   1.203   6.854 -0.1489 -0.0954 -0.1598
   46POPC   C1B  922   8.954   0.966   7.491 -0.0555  0.1960  0.0022
   46POPC   C2B  923   9.109   0.676   7.128 -0.1369 -0.0476 -0.2739
   46POPC   C3B  924   9.044   0.596   6.731  0.1560  0.0629 -0.0270
   46POPC   C4B  925   9.091   0.574   6.293  0.0464  0.2257  0.2983
   47POPC   NC3  926   6.875   9.542   8.059 -0.0086 -0.0968  0.0035
   47POPC   PO4  927   7.076   9.346   7.824 -0.0127  0.0016  0.1882
   47POPC   GL1  928   6.762   9.488   7.521  0.1090  0.3600 -0.0929
   47POPC   GL2  929   6.665   9.740   7.294  0.3919 -0.1028 -0.1922
   47POPC   C1A  930   6.953   9.438   7.117 -0.0734  0.1403 -0.1986
   47POPC   D2A  931   7.182   9.519   6.695 -0.1327 -0.1784 -0.3494
   47POPC   C3A  932   7.160   9.758   6.440  0.0173  0.0430  0.0645
   47POPC   C4A  933   7.011   9.974   6.056 -0.2579 -0.0418 -0.4150
   47POPC   C1B  934   6.779   9.841   6.903 -0.5048  0.4246 -0.1531
   47POPC   C2B  935   6.659   9.563   6.594  0.1644  0.0427  0.0494
   47POPC   C3B  936   6.721   9.235   6.724 -0.2853  0.1928  0.0197
   47POPC   C4B  937   7.007   8.942   6.945 -0.0431 -0.2306 -0.4643
   48POPC   NC3  938   4.404   4.087   8.214  0.4515 -0.0337 -0.0012
   48POPC   PO4  939   4.210   4.452   8.390 -0.0530  0.0625 -0.1958
   48POPC   GL1  940   4.297   4.500   7.851  0.2090  0.1701 -0.0411
   48POPC   GL2  941   4.270   4.124   7.684 -0.2575 -0.2028  0.1675
   48POPC   C1A  942   4.529   4.624   7.489 -0.3221  0.6113 -0.0056
   48POPC   D2A  943   4.831   4.353   7.184 -0.2640  0.1132 -0.1839
   48POPC   C3A  944   4.941   4.359   6.724  0.1165  0.3489  0.0972
   48POPC   C4A  945   5.180   4.696   6.607  0.1696 -0.0516 -0.0832
   48POPC   C1B  946   4.365   4.072   7.220  0.3228  0.0035 -0.4221
   48POPC   C2B  947   4.430   4.062   6.845 -0.1056 -0.0147  0.4292
   48POPC   C3B  948   4.462   4.423   6.525  0.0227  0.0503 -0.2899
   48POPC   C4B  949   4.910   4.534   6.244 -0.2353  0.3593 -0.2383
   49POPC   NC3  950   6.445   0.140   7.806  0.3077 -0.0831  0.0902
   49POPC   PO4  951   6.118  -0.099   7.836 -0.0219 -0.1298  0.0689
   49POPC   GL1  952   6.177  -0.012   7.419  0.0200  0.0807 -0.0306
   49POPC   GL2  953   6.242  -0.278   7.419 -0.2476  0.3012  0.0994
   49POPC   C1A  954   5.855  -0.150   7.034 -0.1323  0.0862 -0.1043
   49POPC   D2A  955   5.850   0.090   6.686  0.1102 -0.2648  0.3483
   49POPC   C3A  956   5.906   0.497   6.638  0.1828  0.0990 -0.0896
   49POPC   C4A  957   6.151   0.844   6.610 -0.1316 -0.0213 -0.1712
   49POPC   C1B  958   6.345  -0.237   6.999  0.0347 -0.0633  0.1382
   49POPC   C2B  959   6.187  -0.314   6.549 -0.1675 -0.3161 -0.3078
   49POPC   C3B  960   6.439  -0.462   6.215  0.2138  0.1884  0.0569
   49POPC   C4B  961   6.895  -0.312   6.128  0.1982 -0.1126 -0.1960
   50POPC   NC3  962   5.087   4.722   8.684  0.2181  0.4044  0.1094
   50POPC   PO4  963   4.637   4.528   8.621 -0.0693 -0.1246 -0.0751
   50POPC   GL1  964   4.645   4.791   8.294  0.3668  0.4448  0.1615
   50POPC   GL2  965   4.918   4.725   8.125  0.1892 -0.1680  0.2391
   50POPC   C1A  966   4.565   4.946   7.872 -0.2011  0.3245 -0.1670
   50POPC   D2A  967   4.651   5.181   7.475 -0.1768 -0.1344  0.0562
   50POPC   C3A  968   4.698   5.297   7.077 -0.2732 -0.2956  0.3855
   50POPC   C4A  969   4.758   5.436   6.692  0.0661  0.0321  0.0707
   50POPC   C1B  970   5.165   4.903   7.741  0.1616  0.2587 -0.0772
   50POPC   C2B  971   5.006   4.904   7.290 -0.0140 -0.0116 -0.1316
   50POPC   C3B  972   4.686   4.771   6.969  0.0197 -0.0655 -0.2791
   50POPC   C4B  973   4.712   4.897   6.540  0.2645 -0.0183  0.2354
   51POPC   NC3  974   3.312   5.450   8.658 -0.0938  0.1655 -0.1166
   51POPC   PO4  975   2.946   5.695   8.526  0.3117 -0.2384  0.2347
   51POPC   GL1  976   3.009   5.805   8.054 -0.3506 -0.2102 -0.0527
   51POPC   GL2  977   2.940   5.525   7.846 -0.5187 -0.0756 -0.0447
   51POPC   C1A  978   3.076   6.192   7.867 -0.3222 -0.0710 -0.0479
   51POPC   D2A  979   2.966   6.519   7.606 -0.1618  0.1587  0.1829
   51POPC   C3A  980   2.578   6.411   7.299  0.3441  0.2090  0.2000
   51POPC   C4A  981   2.229   6.454   7.053 -0.1303  0.1263  0.3633
   51POPC   C1B  982   2.692   5.512   7.450 -0.0691  0.2081 -0.0339
   51POPC   C2B  983   2.585   5.485   6.986  0.0035 -0.2582 -0.0204
   51POPC   C3B  984   2.550   5.726   6.572 -0.3125  0.4163 -0.1456
   51POPC   C4B  985   2.400   5.654   6.213  0.1486 -0.3164 -0.2041
   52POPC   NC3  986   8.487   4.268   8.516  0.1851  0.0273 -0.3001
   52POPC   PO4  987   8.119   4.229   8.247  0.0032 -0.3053 -0.1696
   52POPC   GL1  988   8.197   4.330   7.696  0.0314 -0.0902 -0.1813
   52POPC   GL2  989   8.305   4.667   7.601 -0.1772  0.2389  0.1013
   52POPC   C1A  990   8.055   4.189   7.361 -0.1157  0.0808  0.2982
   52POPC   D2A  991   8.048   4.041   6.962  0.0282 -0.3651 -0.0264
   52POPC   C3A  992   8.305   4.232   6.682  0.1630  0.0738 -0.3202
   52POPC   C4A  993   8.718   4.309   6.647  0.1124  0.0077  0.4091
   52POPC   C1B  994   8.189   4.697   7.152  0.1818  0.1712 -0.0434
   52POPC   C2B  995   8.443   4.709   6.855 -0.0391  0.2075 -0.3515
   52POPC   C3B  996   8.627   4.864   6.484 -0.2155 -0.2427 -0.0512
   52POPC   C4B  997   8.983   5.160   6.299  0.0127  0.0069 -0.0572
   53POPC   NC3  998   9.296   6.943   8.299  0.2512 -0.0340 -0.0170
   53POPC   PO4  999   9.257   7.401   8.245 -0.3516 -0.2175 -0.0989
   53POPC   GL1 1000   9.343   7.295   7.857  0.0294 -0.3532  0.0948
   53POPC   GL2 1001   9.497   6.960   7.827  0.0008 -0.0522  0.0440
   53POPC   C1A 1002   8.967   7.086   7.609 -0.1219 -0.1428  0.0150
   53POPC   D2A 1003   8.852   6.841   7.222  0.2147 -0.2909  0.2827
   53POPC   C3A 1004   9.000   6.907   6.783  0.0291  0.2415  0.0024
   53POPC   C4A 1005   9.358   7.157   6.716  0.0775  0.1726  0.0617
   53POPC   C1B 1006   9.544   7.099   7.435  0.0885 -0.4586 -0.0221
   53POPC   C2B 1007   9.460   6.882   7.120 -0.1513 -0.0103  0.4021
   53POPC   C3B 1008   9.712   6.549   7.002 -0.1159  0.0212 -0.1077
   53POPC   C4B 1009  10.011   6.125   6.974  0.1788 -0.1534 -0.1140
   54POPC   NC3 1010   2.684   1.035   8.777 -0.1213  0.0113 -0.3967
   54POPC   PO4 1011   2.739   1.325   8.434 -0.2471 -0.0776 -0.0843
   54POPC   GL1 1012   2.791   1.059   8.005  0.1595  0.0869 -0.2313
   54POPC   GL2 1013   2.579   0.972   7.792 -0.1429 -0.2829  0.0783
   54POPC   C1A 1014   3.110   1.005   7.665  0.1504  0.0844  0.1730
   54POPC   D2A 1015   3.212   0.948   7.179  0.0824  0.3221 -0.1076
   54POPC   C3A 1016   3.139   1.287   6.800  0.3906  0.2246  0.4366
   54POPC   C4A 1017   2.972   1.627   6.680 -0.2253 -0.0829 -0.0963
   54POPC   C1B 1018   2.611   1.118   7.396  0.0076 -0.2190  0.1896
   54POPC   C2B 1019   2.631   1.087   6.883  0.1431 -0.1553  0.1341
   54POPC   C3B 1020   2.887   1.164   6.382 -0.3715 -0.1391  0.0336
   54POPC   C4B 1021   2.960   1.393   5.867 -0.3053 -0.0646 -0.1108
   55POPC   NC3 1022   9.291   5.863   8.193  0.1086 -0.2381  0.1987
   55POPC   PO4 1023   9.724   6.032   8.130  0.3823  0.1978 -0.0701
   55POPC   GL1 1024   9.663   5.701   7.783  0.1543  0.0640 -0.1035
   55POPC   GL2 1025   9.590   5.421   7.956 -0.2860  0.1364 -0.0448
   55POPC   C1A 1026   9.453   5.746   7.508 -0.3359  0.2594 -0.2137
   55POPC   D2A 1027   9.126   5.664   7.191  0.2519  0.1175 -0.0200
   55POPC   C3A 1028   9.107   5.210   7.264 -0.0062  0.2713  0.0865
   55POPC   C4A 1029   9.054   4.837   6.914  0.1113  0.0945 -0.0111
   55POPC   C1B 1030   9.564   5.277   7.525 -0.0070  0.4444 -0.0556
   55POPC   C2B 1031   9.663   5.284   7.135  0.2979  0.0309  0.2199
   55POPC   C3B 1032   9.311   5.260   6.800 -0.0215 -0.2368 -0.1385
   55POPC   C4B 1033   8.923   5.409   6.754 -0.1548  0.2446  0.0797
   56POPC   NC3 1034   5.480   9.403   8.555 -0.3130 -0.1517 -0.0922
   56POPC   PO4 1035   5.189   9.443   8.882 -0.2335 -0.1061  0.2174
   56POPC   GL1 1036   5.007   9.493   8.392 -0.0232  0.0421 -0.1072
   56POPC   GL2 1037   4.972   9.160   8.383 -0.1399  0.0271 -0.0997
   56POPC   C1A 1038   4.795   9.791   8.132 -0.0068  0.0245 -0.0956
   56POPC   D2A 1039   4.436   9.975   7.915  0.0262 -0.1615 -0.0832
   56POPC   C3A 1040   4.200   9.841   7.517 -0.0930 -0.0232 -0.0196
   56POPC   C4A 1041   4.082   9.585   7.190 -0.1806 -0.1435 -0.2614
   56POPC   C1B 1042   4.596   9.301   8.086 -0.2432 -0.1969 -0.1418
   56POPC   C2B 1043   4.289   9.417   7.810  0.1769 -0.1603 -0.0792
   56POPC   C3B 1044   3.803   9.286   7.552  0.0850 -0.1070  0.1952
   56POPC   C4B 1045   3.548   9.490   7.784  0.2095  0.0924 -0.1540
   57POPC   NC3 1046   3.744   4.562   8.006  0.1442 -0.1269  0.0112
   57POPC   PO4 1047   3.318   4.438   7.884  0.1756  0.0742 -0.2411
   57POPC   GL1 1048   3.407   4.645   7.471 -0.0007 -0.0417  0.2278
   57POPC   GL2 1049   3.612   4.853   7.407  0.1821 -0.0978  0.1031
   57POPC   C1A 1050   3.555   4.537   7.025 -0.0854 -0.0392 -0.1084
   57POPC   D2A 1051   3.514   4.719   6.634  0.2990  0.0555  0.1796
   57POPC   C3A 1052   3.517   4.378   6.292  0.0560 -0.3086  0.1601
   57POPC   C4A 1053   3.282   4.090   6.106 -0.1018  0.3969 -0.0189
   57POPC   C1B 1054   3.390   5.048   7.012 -0.2482 -0.1044 -0.0800
   57POPC   C2B 1055   3.122   5.044   6.687 -0.3583  0.2431 -0.2168
   57POPC   C3B 1056   2.939   5.348   6.460 -0.0553  0.2180 -0.1197
   57POPC   C4B 1057   2.929   5.567   6.094  0.0755  0.0315  0.0982
   58POPC   NC3 1058   4.988   6.606   8.554  0.0128  0.1968  0.3030
   58POPC   PO4 1059   4.935   6.175   8.407 -0.1526 -0.1302 -0.1889
   58POPC   GL1 1060   4.936   6.166   7.927  0.3024  0.1281  0.0437
   58POPC   GL2 1061   5.081   5.814   7.868  0.0350  0.1942  0.3653
   58POPC   C1A 1062   4.922   6.156   7.424 -0.0603 -0.0504 -0.0892
   58POPC   D2A 1063   4.869   5.958   6.949 -0.0250  0.1125  0.1588
   58POPC   C3A 1064   4.839   6.238   6.607  0.0320 -0.5695 -0.2311
   58POPC   C4A 1065   4.666   6.202   6.192 -0.2461 -0.0539  0.1847
   58POPC   C1B 1066   5.344   5.963   7.624 -0.1386 -0.1656 -0.1795
   58POPC   C2B 1067   5.303   5.899   7.171 -0.1629 -0.3316 -0.0357
   58POPC   C3B 1068   5.640   5.771   6.965 -0.2950  0.1228 -0.0255
   58POPC   C4B 1069   5.683   5.302   6.893 -0.2628 -0.1732  0.1367
   59POPC   NC3 1070   1.094   2.012   8.350 -0.2233 -0.1051  0.1460
   59POPC   PO4 1071   0.900   2.322   8.033  0.0430 -0.1885  0.3923
   59POPC   GL1 1072   0.794   2.255   7.625 -0.1714  0.1427  0.0830
   59POPC   GL2 1073   0.554   1.972   7.533 -0.0090 -0.0675  0.0845
   59POPC   C1A 1074   1.038   1.827   7.397  0.1558  0.3166 -0.1084
   59POPC   D2A 1075   1.019   1.525   7.034 -0.1238 -0.1031 -0.1409
   59POPC   C3A 1076   1.130   1.703   6.562 -0.3921 -0.0356 -0.0229
   59POPC   C4A 1077   1.082   1.780   6.074 -0.0807 -0.0976 -0.1691
   59POPC   C1B 1078   0.341   1.787   7.293 -0.0194 -0.3578 -0.0064
   59POPC   C2B 1079   0.419   1.630   7.011  0.1428 -0.1435  0.0487
   59POPC   C3B 1080   0.167   1.360   6.703  0.2758 -0.3840  0.0956
   59POPC   C4B 1081   0.344   0.956   6.569  0.2704  0.1871 -0.1079
   60POPC   NC3 1082   6.685   5.505   8.229 -0.1454  0.0349 -0.2446
   60POPC   PO4 1083   6.844   5.679   7.943 -0.0361  0.0516  0.3861
   60POPC   GL1 1084   6.897   5.467   7.559  0.0032  0.1055 -0.0468
   60POPC   GL2 1085   6.905   5.684   7.360  0.0428 -0.0190 -0.2880
   60POPC   C1A 1086   7.079   5.282   7.131  0.0432  0.1329  0.1409
   60POPC   D2A 1087   7.217   5.075   6.724  0.1574  0.1263  0.2505
   60POPC   C3A 1088   7.149   5.191   6.317  0.2034  0.0319 -0.2987
   60POPC   C4A 1089   7.425   5.265   6.035  0.2272  0.1455 -0.0996
   60POPC   C1B 1090   6.645   5.637   6.994  0.1402  0.0929  0.1597
   60POPC   C2B 1091   6.596   5.746   6.569 -0.2442  0.1299  0.1904
   60POPC   C3B 1092   6.581   6.006   6.228 -0.2285 -0.1256 -0.0046
   60POPC   C4B 1093   6.603   6.402   6.023 -0.0888  0.2522 -0.0842
   61POPC   NC3 1094   7.151   0.610   7.786  0.0670  0.2983  0.1088
   61POPC   PO4 1095   6.914   0.235   7.792 -0.3873 -0.0018  0.1316
   61POPC   GL1 1096   6.900   0.431   7.315 -0.1636  0.0142  0.1360
   61POPC   GL2 1097   7.256   0.497   7.181 -0.3093  0.3330 -0.2506
   61POPC   C1A 1098   6.998   0.833   6.973 -0.0439  0.3247 -0.0718
   61POPC   D2A 1099   7.164   1.035   6.581 -0.0559  0.1943  0.0045
   61POPC   C3A 1100   7.104   1.241   6.305 -0.0357 -0.2002 -0.0237
   61POPC   C4A 1101   6.750   1.667   6.284  0.4182  0.1425  0.0546
   61POPC   C1B 1102   7.199   0.353   6.831 -0.0506 -0.3141 -0.1491
   61POPC   C2B 1103   7.141   0.527   6.472  0.0348 -0.2606 -0.0579
   61POPC   C3B 1104   7.197   0.808   6.109 -0.2596 -0.1505 -0.1215
   61POPC   C4B 1105   7.294   0.821   5.689 -0.0892  0.0339 -0.0342
   62POPC   NC3 1106   6.753   1.847   8.717 -0.0026 -0.1043  0.0511
   62POPC   PO4 1107   6.715   1.952   8.184  0.1329  0.2626  0.2151
   62POPC   GL1 1108   6.910   2.064   7.815  0.0969 -0.2668  0.0966
   62POPC   GL2 1109   6.642   1.900   7.569  0.1510 -0.1072  0.1126
   62POPC   C1A 1110   7.083   1.964   7.309  0.0671 -0.1069  0.2637
   62POPC   D2A 1111   7.205   2.111   6.958  0.0003  0.0400  0.1946
   62POPC   C3A 1112   7.491   1.902   6.711  0.2239  0.2447 -0.0969
   62POPC   C4A 1113   7.842   2.077   6.665  0.0284 -0.1286  0.1308
   62POPC   C1B 1114   6.569   1.787   7.121 -0.1337  0.0280 -0.2066
   62POPC   C2B 1115   6.511   1.569   6.693 -0.0766 -0.0641  0.1179
   62POPC   C3B 1116   6.244   1.616   6.376  0.0099 -0.1231 -0.1356
   62POPC   C4B 1117   5.963   1.820   6.030  0.3262  0.1004 -0.2430
   63POPC   NC3 1118   8.564   2.364   8.550  0.0923 -0.0704 -0.0592
   63POPC   PO4 1119   8.785   2.284   8.126 -0.1574 -0.0739 -0.1872
   63POPC   GL1 1120   8.743   2.040   7.783 -0.0742 -0.1604  0.0265
   63POPC   GL2 1121   8.964   2.170   7.456  0.1696 -0.2734 -0.0367
   63POPC   C1A 1122   8.860   1.649   7.730 -0.1362 -0.1566  0.2043
   63POPC   D2A 1123   8.741   1.438   7.359  0.2930  0.0336 -0.0185
   63POPC   C3A 1124   8.587   1.489   6.865 -0.0099 -0.1053 -0.1250
   63POPC   C4A 1125   8.465   1.508   6.328 -0.1622 -0.2112 -0.3573
   63POPC   C1B 1126   8.751   1.927   7.209 -0.2517  0.3265  0.0322
   63POPC   C2B 1127   8.447   1.963   6.782  0.1448  0.0466 -0.3772
   63POPC   C3B 1128   8.245   1.997   6.350  0.1778 -0.0592  0.4632
   63POPC   C4B 1129   8.502   2.014   5.846  0.3784  0.1485 -0.0651
   64POPC   NC3 1130   2.747   7.544   9.335  0.0779 -0.0227 -0.0648
   64POPC   PO4 1131   2.934   7.174   9.020  0.0599 -0.4174  0.1170
   64POPC   GL1 1132   3.087   7.145   8.628  0.0886 -0.0114 -0.1065
   64POPC   GL2 1133   2.771   7.121   8.461  0.4163  0.0328  0.4812
   64POPC   C1A 1134   3.313   6.877   8.326  0.2477 -0.0465  0.2043
   64POPC   D2A 1135   3.250   6.650   7.988  0.0113  0.4042  0.0524
   64POPC   C3A 1136   3.395   6.807   7.624  0.0414  0.0096  0.0445
   64POPC   C4A 1137   3.328   6.613   7.256 -0.3715 -0.0990  0.0696
   64POPC   C1B 1138   2.789   7.374   8.117  0.1873 -0.3667  0.1781
   64POPC   C2B 1139   2.980   7.743   8.056  0.1436  0.2296  0.0164
   64POPC   C3B 1140   3.194   8.116   8.176 -0.3248  0.0493 -0.1555
   64POPC   C4B 1141   3.106   8.596   8.073  0.3157  0.0696  0.0443
   65POPC   NC3 1142   5.796   1.056   8.867  0.1319  0.0419 -0.3531
   65POPC   PO4 1143   5.486   1.051   8.477  0.1826  0.0089  0.1184
   65POPC   GL1 1144   5.190   1.098   8.026 -0.0674  0.1029  0.3112
   65POPC   GL2 1145   4.871   1.177   8.055  0.1243 -0.3935 -0.2401
   65POPC   C1A 1146   5.116   0.891   7.683 -0.2270  0.0567  0.0641
   65POPC   D2A 1147   4.958   0.755   7.263 -0.0229  0.3649 -0.0250
   65POPC   C3A 1148   5.136   0.645   6.810 -0.0776 -0.0700 -0.0672
   65POPC   C4A 1149   5.353   0.354   6.568  0.1459 -0.0867  0.2601
   65POPC   C1B 1150   4.736   1.219   7.582 -0.3705 -0.1055  0.0461
   65POPC   C2B 1151   4.569   1.020   7.224  0.1062  0.0929  0.2790
   65POPC   C3B 1152   4.599   0.770   6.876  0.0180  0.1818  0.0012
   65POPC   C4B 1153   4.782   0.570   6.453 -0.1003 -0.1669 -0.2968
   66POPC   NC3 1154   4.996   3.487   8.726 -0.1739 -0.1647  0.3060
   66POPC   PO4 1155   4.899   3.345   8.288 -0.2938 -0.0582 -0.1392
   66POPC   GL1 1156   5.164   3.428   7.880 -0.0651  0.2790 -0.0679
   66POPC   GL2 1157   5.513   3.102   7.794  0.1136 -0.1598 -0.1620
   66POPC   C1A 1158   5.124   3.390   7.361  0.3832  0.0994 -0.1111
   66POPC   D2A 1159   5.016   3.323   7.003 -0.3343  0.2715 -0.0701
   66POPC   C3A 1160   5.055   3.664   6.636 -0.4800 -0.1681 -0.0397
   66POPC   C4A 1161   4.937   4.052   6.413  0.2250  0.1259  0.0303
   66POPC   C1B 1162   5.152   2.889   7.450 -0.1599 -0.1711  0.0215
   66POPC   C2B 1163   4.703   2.872   7.282  0.0987  0.3701 -0.0223
   66POPC   C3B 1164   4.480   2.637   6.941 -0.1596  0.0191 -0.2369
   66POPC   C4B 1165   4.237   2.592   6.589 -0.3458  0.1770  0.1603
   67POPC   NC3 1166   0.898   6.268   8.444  0.1548  0.1185 -0.2710
   67POPC   PO4 1167   1.302   6.153   8.428  0.0056 -0.1175  0.3046
   67POPC   GL1 1168   1.246   6.364   8.018  0.1598  0.0318  0.0152
   67POPC   GL2 1169   0.890   6.293   7.878 -0.2550 -0.0318 -0.0523
   67POPC   C1A 1170   1.219   6.501   7.537 -0.3909  0.0544  0.1090
   67POPC   D2A 1171   1.234   6.345   7.131 -0.0244 -0.1968  0.2304
   67POPC   C3A 1172   0.996   6.746   6.905  0.1083  0.2373 -0.1605
   67POPC   C4A 1173   1.075   7.203   7.026  0.1365 -0.0008  0.2093
   67POPC   C1B 1174   0.587   6.467   7.609 -0.0676  0.2118  0.0495
   67POPC   C2B 1175   0.524   6.533   7.202  0.0755  0.1068 -0.0436
   67POPC   C3B 1176   0.446   6.710   6.812 -0.2712  0.4063  0.2123
   67POPC   C4B 1177   0.295   6.457   6.512 -0.1325  0.1344  0.2372
   68POPC   NC3 1178   5.533   0.665   8.217  0.0534 -0.1751  0.0755
   68POPC   PO4 1179   5.659   1.014   7.943  0.0229  0.0056 -0.1905
   68POPC   GL1 1180   5.958   0.894   7.546 -0.2076  0.2582 -0.1579
   68POPC   GL2 1181   6.280   0.929   7.421  0.0456  0.0050  0.1479
   68POPC   C1A 1182   5.916   0.820   7.074 -0.0080 -0.0769 -0.1683
   68POPC   D2A 1183   5.566   0.860   6.787  0.0938 -0.1486 -0.1535
   68POPC   C3A 1184   5.607   1.272   6.420  0.2170 -0.0591  0.1438
   68POPC   C4A 1185   5.910   1.294   6.039 -0.2131  0.2478 -0.2217
   68POPC   C1B 1186   6.524   0.694   7.081  0.0499 -0.3136  0.0674
   68POPC   C2B 1187   6.686   0.599   6.674 -0.2458 -0.3283  0.0428
   68POPC   C3B 1188   6.680   0.656   6.226  0.0746  0.0256 -0.0307
   68POPC   C4B 1189   6.380   0.495   5.968  0.2733  0.1118  0.2961
   69POPC   NC3 1190   4.135   4.970   8.494  0.0844  0.2210  0.0897
   69POPC   PO4 1191   3.607   4.898   8.441 -0.0540  0.0788 -0.1247
   69POPC   GL1 1192   3.785   5.046   8.109  0.0865 -0.1817  0.1416
   69POPC   GL2 1193   4.123   4.934   8.042  0.5173  0.0253 -0.1650
   69POPC   C1A 1194   3.773   5.216   7.706  0.1265  0.0013 -0.1897
   69POPC   D2A 1195   3.641   5.330   7.307  0.0342 -0.1850 -0.1204
   69POPC   C3A 1196   3.352   5.583   7.141  0.1088  0.2802  0.2362
   69POPC   C4A 1197   3.049   5.728   6.768 -0.0650  0.0200  0.0663
   69POPC   C1B 1198   4.163   4.970   7.610 -0.2996 -0.1517 -0.2020
   69POPC   C2B 1199   4.064   4.990   7.205  0.0736 -0.1020 -0.0284
   69POPC   C3B 1200   3.947   5.239   6.898  0.1423  0.2441 -0.3545
   69POPC   C4B 1201   3.830   5.309   6.493  0.1074 -0.2634  0.0356
   70POPC   NC3 1202   6.965   6.898   8.498  0.1112 -0.0574 -0.0946
   70POPC   PO4 1203   6.559   6.922   8.140  0.2047 -0.0595 -0.0697
   70POPC   GL1 1204   6.549   7.037   7.690  0.3878  0.1991  0.3352
   70POPC   GL2 1205   6.621   7.351   7.577 -0.3026 -0.1072  0.1741
   70POPC   C1A 1206   6.200   7.068   7.411  0.2918  0.1482 -0.0642
   70POPC   D2A 1207   6.235   7.112   6.850 -0.0532 -0.2357 -0.1922
   70POPC   C3A 1208   6.213   7.264   6.477  0.0921  0.0080 -0.4421
   70POPC   C4A 1209   5.889   7.274   6.181  0.1481  0.0708 -0.1606
   70POPC   C1B 1210   6.649   7.115   7.162  0.0290 -0.1040 -0.1114
   70POPC   C2B 1211   6.740   6.973   6.760 -0.3399  0.0330 -0.0030
   70POPC   C3B 1212   6.837   6.881   6.317 -0.0011 -0.1169  0.0547
   70POPC   C4B 1213   7.158   6.991   5.846  0.4013 -0.2750  0.3334
   71POPC   NC3 1214   8.243   0.267   8.319  0.0206 -0.1962  0.0796
   71POPC   PO4 1215   8.144  -0.144   8.036 -0.3850  0.0340 -0.0098
   71POPC   GL1 1216   8.010  -0.382   7.603  0.0688  0.1848 -0.1027
   71POPC   GL2 1217   7.795  -0.250   7.398  0.2018 -0.0819 -0.0167
   71POPC   C1A 1218   7.993  -0.691   7.261  0.0845  0.1621 -0.0965
   71POPC   D2A 1219   8.095  -0.869   6.943  0.1884  0.0419 -0.1415
   71POPC   C3A 1220   8.465  -0.922   6.692 -0.0027  0.2953 -0.2529
   71POPC   C4A 1221   8.644  -1.235   6.604  0.1831  0.0042  0.1123
   71POPC   C1B 1222   7.899  -0.247   7.011  0.1944  0.1090  0.0918
   71POPC   C2B 1223   7.693  -0.503   6.739 -0.0577  0.2218  0.1183
   71POPC   C3B 1224   7.377  -0.641   6.464  0.0361 -0.1224 -0.2244
   71POPC   C4B 1225   7.237  -0.626   6.115 -0.2684  0.0474  0.0127
   72POPC   NC3 1226   3.211   1.308   8.296 -0.0955  0.2583 -0.1465
   72POPC   PO4 1227   3.663   1.211   8.246  0.1040  0.0979 -0.2566
   72POPC   GL1 1228   3.824   1.216   7.755  0.2380  0.1169  0.3308
   72POPC   GL2 1229   3.593   1.078   7.547 -0.0712 -0.1045  0.0273
   72POPC   C1A 1230   3.731   1.599   7.497 -0.1366 -0.2313 -0.1861
   72POPC   D2A 1231   3.918   1.784   7.113  0.2319  0.7295  0.0116
   72POPC   C3A 1232   4.029   1.511   6.803  0.2204  0.3517  0.1784
   72POPC   C4A 1233   3.977   1.525   6.370 -0.1149  0.1346 -0.4325
   72POPC   C1B 1234   3.656   0.737   7.320  0.0989  0.3309 -0.0961
   72POPC   C2B 1235   3.753   0.288   7.355 -0.2717  0.3542  0.1892
   72POPC   C3B 1236   3.497  -0.076   7.325  0.2269  0.1338 -0.0477
   72POPC   C4B 1237   3.568  -0.455   7.085 -0.2334  0.1762  0.3082
   73POPC   NC3 1238   8.524   4.547   8.132  0.0285 -0.1460 -0.1133
   73POPC   PO4 1239   8.933   4.406   8.290 -0.2270 -0.0610  0.1016
   73POPC   GL1 1240   9.332   4.476   8.004  0.1090  0.2401  0.0386
   73POPC   GL2 1241   9.748   4.462   8.091 -0.3536 -0.1010  0.0785
   73POPC   C1A 1242   9.332   4.342   7.630  0.3366  0.0145 -0.0487
   73POPC   D2A 1243   9.651   4.208   7.430  0.1568  0.1735 -0.0949
   73POPC   C3A 1244   9.809   4.271   7.130 -0.0438 -0.0142  0.1973
   73POPC   C4A 1245  10.086   4.610   6.785  0.0259 -0.0125 -0.2899
   73POPC   C1B 1246   9.786   4.658   7.659 -0.1193 -0.0382  0.2570
   73POPC   C2B 1247   9.967   4.890   7.277 -0.1111 -0.1074 -0.2637
   73POPC   C3B 1248  10.177   5.137   6.968 -0.0454 -0.1465 -0.0521
   73POPC   C4B 1249  10.177   5.300   6.537 -0.1222 -0.0047 -0.1578
   74POPC   NC3 1250   3.741   5.833   8.846  0.0857 -0.2476 -0.1896
   74POPC   PO4 1251   3.403   5.933   8.763  0.2114 -0.2998  0.0323
   74POPC   GL1 1252   3.549   5.781   8.336  0.1711 -0.1199 -0.0432
   74POPC   GL2 1253   3.806   5.925   8.383  0.0562 -0.1336  0.2042
   74POPC   C1A 1254   3.471   5.527   7.965  0.0301  0.1271 -0.0409
   74POPC   D2A 1255   3.392   5.702   7.621 -0.0372  0.1494 -0.2308
   74POPC   C3A 1256   3.092   5.940   7.420  0.2265 -0.1263 -0.0210
   74POPC   C4A 1257   3.037   6.252   7.230 -0.0443 -0.3216 -0.1489
   74POPC   C1B 1258   4.186   6.190   8.115  0.2987  0.2633  0.0462
   74POPC   C2B 1259   4.335   6.112   7.819  0.4395  0.0889  0.0934
   74POPC   C3B 1260   4.645   5.813   7.746  0.2303  0.1127 -0.1678
   74POPC   C4B 1261   4.891   5.627   7.459  0.1395 -0.0357  0.1235
   75POPC   NC3 1262   2.028   3.664   8.145 -0.2530 -0.0090 -0.0433
   75POPC   PO4 1263   2.280   3.329   8.155 -0.0528 -0.0088  0.0898
   75POPC   GL1 1264   2.404   3.420   7.685  0.1801  0.0166  0.1610
   75POPC   GL2 1265   2.192   3.693   7.621 -0.0098  0.0057 -0.2413
   75POPC   C1A 1266   2.469   3.256   7.191  0.1596  0.1851  0.0714
   75POPC   D2A 1267   2.619   3.386   6.859 -0.0937 -0.0681  0.5056
   75POPC   C3A 1268   2.389   3.240   6.494  0.1731  0.2933  0.0931
   75POPC   C4A 1269   2.078   2.965   6.347  0.0956  0.2119  0.1335
   75POPC   C1B 1270   2.452   3.776   7.349  0.1248 -0.0624  0.1869
   75POPC   C2B 1271   2.622   3.908   7.012 -0.0817 -0.1850 -0.0303
   75POPC   C3B 1272   2.610   3.889   6.604  0.3615 -0.4442  0.1570
   75POPC   C4B 1273   2.795   3.723   6.297  0.4832 -0.1911 -0.0580
   76POPC   NC3 1274   5.444   8.384   8.631  0.0337  0.0422 -0.0867
   76POPC   PO4 1275   5.506   8.042   8.345  0.0507 -0.0391  0.0751
   76POPC   GL1 1276   5.748   8.010   7.921 -0.2376 -0.0159 -0.1729
   76POPC   GL2 1277   5.429   7.763   7.791 -0.3836 -0.0384 -0.2000
   76POPC   C1A 1278   5.847   7.938   7.487 -0.0220  0.2454  0.1700
   76POPC   D2A 1279   5.923   8.072   7.020  0.2231 -0.0341 -0.0333
   76POPC   C3A 1280   5.593   8.137   6.711  0.1448 -0.0973  0.1924
   76POPC   C4A 1281   5.210   8.130   6.506 -0.2964 -0.0376  0.4811
   76POPC   C1B 1282   5.157   7.981   7.585  0.1686  0.0429 -0.2864
   76POPC   C2B 1283   4.947   8.099   7.303 -0.2085 -0.0270  0.0957
   76POPC   C3B 1284   4.606   7.751   7.193  0.3171  0.1662 -0.1643
   76POPC   C4B 1285   4.265   7.620   7.035  0.1099 -0.2100 -0.0303
   77POPC   NC3 1286   7.055   8.832   7.923 -0.2862 -0.1015 -0.0120
   77POPC   PO4 1287   6.565   8.787   8.116  0.1996 -0.1446  0.1296
   77POPC   GL1 1288   6.681   8.854   7.641  0.0263 -0.0840  0.0526
   77POPC   GL2 1289   7.034   8.991   7.452 -0.1721 -0.2854 -0.0325
   77POPC   C1A 1290   6.658   8.549   7.215 -0.3149 -0.2400 -0.0834
   77POPC   D2A 1291   6.703   8.514   6.788 -0.3151  0.2055  0.1420
   77POPC   C3A 1292   6.668   8.844   6.428 -0.3386  0.0471 -0.1721
   77POPC   C4A 1293   6.803   8.904   5.948  0.1705  0.0911 -0.3059
   77POPC   C1B 1294   6.568   9.087   7.190  0.2884  0.2355 -0.3377
   77POPC   C2B 1295   6.332   8.962   6.897  0.1789 -0.4567  0.1249
   77POPC   C3B 1296   6.096   8.901   6.433 -0.1003 -0.2178  0.2391
   77POPC   C4B 1297   6.081   9.001   6.017  0.1255 -0.2536  0.1615
   78POPC   NC3 1298   5.602   2.619   7.895  0.1102 -0.1492 -0.2135
   78POPC   PO4 1299   5.215   2.416   8.013 -0.3336 -0.0955  0.3877
   78POPC   GL1 1300   5.253   2.416   7.592  0.3180  0.0430  0.0138
   78POPC   GL2 1301   5.299   2.113   7.463 -0.2097 -0.4269 -0.1068
   78POPC   C1A 1302   4.958   2.414   7.196 -0.0283 -0.0227  0.1431
   78POPC   D2A 1303   4.985   2.326   6.834  0.0709 -0.2357 -0.0664
   78POPC   C3A 1304   4.880   1.987   6.690  0.0168 -0.1796 -0.1849
   78POPC   C4A 1305   4.451   1.866   6.627 -0.0684  0.1278  0.1541
   78POPC   C1B 1306   5.030   1.847   7.164 -0.1644 -0.1297 -0.1233
   78POPC   C2B 1307   4.971   1.476   7.161  0.2332 -0.1077 -0.0858
   78POPC   C3B 1308   5.041   1.168   6.949 -0.0251 -0.0101 -0.0803
   78POPC   C4B 1309   5.121   1.003   6.510  0.1371 -0.0939  0.2793
   79POPC   NC3 1310   2.963   8.837   9.415 -0.1514  0.0357 -0.0580
   79POPC   PO4 1311   2.541   8.749   9.315 -0.0788 -0.2531 -0.0253
   79POPC   GL1 1312   2.530   8.705   8.832  0.0801  0.2203  0.1262
   79POPC   GL2 1313   2.428   8.925   8.571  0.0422  0.1884  0.2010
   79POPC   C1A 1314   2.591   8.434   8.498  0.0037  0.2225 -0.1537
   79POPC   D2A 1315   2.571   8.270   8.101 -0.0286  0.0440  0.0392
   79POPC   C3A 1316   2.878   8.178   7.796 -0.4627 -0.0150 -0.2360
   79POPC   C4A 1317   3.173   8.058   7.434  0.0432 -0.0611  0.0494
   79POPC   C1B 1318   2.731   8.862   8.227  0.0586 -0.0152 -0.2308
   79POPC   C2B 1319   2.729   8.725   7.812  0.1593 -0.0307  0.0591
   79POPC   C3B 1320   2.935   8.627   7.410  0.1146  0.1358  0.0312
   79POPC   C4B 1321   3.407   8.514   7.360 -0.0441 -0.1240 -0.1082
   80POPC   NC3 1322   1.637   4.473   8.137  0.0958 -0.4739 -0.3093
   80POPC   PO4 1323   1.362   4.324   8.007  0.0095  0.3987  0.0826
   80POPC   GL1 1324   1.146   4.498   7.671  0.0248  0.3581  0.2967
   80POPC   GL2 1325   0.845   4.377   7.563  0.0268 -0.1529  0.0124
   80POPC   C1A 1326   1.162   4.622   7.246 -0.3098  0.1570  0.4736
   80POPC   D2A 1327   1.251   4.441   6.782 -0.1813 -0.0600 -0.0277
   80POPC   C3A 1328   1.681   4.458   6.593 -0.0006 -0.1112  0.1427
   80POPC   C4A 1329   2.024   4.512   6.740 -0.1925  0.0367 -0.3008
   80POPC   C1B 1330   0.622   3.959   7.381 -0.3992 -0.2122  0.0460
   80POPC   C2B 1331   0.775   3.608   7.143  0.1588  0.2226  0.2899
   80POPC   C3B 1332   1.042   3.239   7.304 -0.0092 -0.0561 -0.0138
   80POPC   C4B 1333   0.987   2.837   7.348  0.1064  0.0537 -0.0719
   81POPC   NC3 1334   1.257   0.103   8.597  0.0139 -0.2976  0.0904
   81POPC   PO4 1335   1.338  -0.034   8.167 -0.0395 -0.0306  0.1003
   81POPC   GL1 1336   1.270  -0.207   7.766 -0.0563 -0.0592  0.2041
   81POPC   GL2 1337   1.614  -0.120   7.551 -0.3020 -0.0534  0.1796
   81POPC   C1A 1338   1.432  -0.554   7.586  0.3032  0.3074 -0.0380
   81POPC   D2A 1339   1.323  -0.795   7.151 -0.2536  0.3396 -0.1478
   81POPC   C3A 1340   0.981  -0.711   7.027  0.0192  0.2107 -0.0513
   81POPC   C4A 1341   0.769  -1.075   7.117 -0.0450  0.1253 -0.2614
   81POPC   C1B 1342   2.069  -0.021   7.444 -0.0166  0.4411  0.2434
   81POPC   C2B 1343   2.386   0.301   7.203  0.1303 -0.0230 -0.0086
   81POPC   C3B 1344   2.504   0.360   6.697  0.1167 -0.0807 -0.4011
   81POPC   C4B 1345   2.608   0.376   6.284  0.0854 -0.0582  0.1890
   82POPC   NC3 1346   2.754   9.275   9.028  0.2336  0.0725  0.0334
   82POPC   PO4 1347   2.975   9.536   8.861  0.2518 -0.2598  0.2908
   82POPC   GL1 1348   2.879   9.232   8.530 -0.0458 -0.0663  0.1703
   82POPC   GL2 1349   2.523   9.300   8.249 -0.0928 -0.1171  0.1888
   82POPC   C1A 1350   3.163   9.199   8.206 -0.1198  0.2981 -0.1343
   82POPC   D2A 1351   3.286   9.033   7.756  0.3091 -0.1479  0.1463
   82POPC   C3A 1352   3.620   8.840   7.624 -0.0812 -0.1986 -0.1185
   82POPC   C4A 1353   3.849   8.763   7.195 -0.0036  0.2204 -0.1042
   82POPC   C1B 1354   2.447   9.389   7.769  0.2668 -0.2275 -0.1383
   82POPC   C2B 1355   2.557   9.594   7.490 -0.1177 -0.1066  0.2092
   82POPC   C3B 1356   2.575   9.492   7.032 -0.1727  0.2095 -0.1672
   82POPC   C4B 1357   2.256   9.672   6.709  0.0810  0.2050 -0.0653
   83POPC   NC3 1358   9.638   2.718   8.499  0.0915  0.0881 -0.0024
   83POPC   PO4 1359   9.915   2.756   8.146  0.1412  0.1330  0.1024
   83POPC   GL1 1360   9.898   2.666   7.679 -0.0582 -0.1489 -0.3452
   83POPC   GL2 1361  10.187   2.589   7.406 -0.1000 -0.1278 -0.0382
   83POPC   C1A 1362   9.687   2.736   7.386 -0.1845  0.3118 -0.4379
   83POPC   D2A 1363   9.242   2.885   7.245 -0.1258  0.0683  0.2213
   83POPC   C3A 1364   8.955   2.547   7.138  0.0446 -0.1475  0.0643
   83POPC   C4A 1365   8.590   2.366   7.027  0.0926 -0.2056  0.2300
   83POPC   C1B 1366  10.066   2.653   7.035 -0.1087 -0.0355  0.0134
   83POPC   C2B 1367  10.061   2.767   6.681 -0.3622 -0.1904  0.1990
   83POPC   C3B 1368  10.163   3.211   6.603  0.1942  0.2479 -0.1021
   83POPC   C4B 1369  10.472   3.365   6.210 -0.1340  0.1229  0.0279
   84POPC   NC3 1370   9.189   4.801   8.489 -0.2084  0.0050  0.2239
   84POPC   PO4 1371   8.737   4.945   8.408 -0.5378  0.0940  0.3330
   84POPC   GL1 1372   8.700   5.010   7.995 -0.0448  0.0630  0.2662
   84POPC   GL2 1373   8.952   4.846   7.949 -0.0359  0.3329  0.2800
   84POPC   C1A 1374   8.550   5.249   7.596 -0.1123 -0.0629 -0.0053
   84POPC   D2A 1375   8.471   5.107   7.272  0.0936  0.0955  0.0856
   84POPC   C3A 1376   8.479   5.330   6.949 -0.3857  0.4055 -0.1596
   84POPC   C4A 1377   8.560   5.673   6.631  0.2614  0.0896 -0.0061
   84POPC   C1B 1378   8.976   4.825   7.609 -0.0460 -0.1163  0.0776
   84POPC   C2B 1379   8.711   4.635   7.320 -0.1593  0.0028 -0.0903
   84POPC   C3B 1380   8.509   4.263   7.185  0.4673 -0.1133  0.3366
   84POPC   C4B 1381   8.523   3.863   6.965  0.1345  0.0499  0.1028
   85POPC   NC3 1382   3.202   0.331   8.630  0.4518 -0.1567  0.1212
   85POPC   PO4 1383   2.937   0.772   8.433  0.2063 -0.2696  0.2933
   85POPC   GL1 1384   2.989   0.517   8.069 -0.0630  0.2517 -0.1561
   85POPC   GL2 1385   3.415   0.707   7.936  0.2252 -0.0915 -0.1068
   85POPC   C1A 1386   2.837   0.206   7.792  0.1107 -0.3663  0.0515
   85POPC   D2A 1387   3.050  -0.146   7.757 -0.2798 -0.0143  0.1633
   85POPC   C3A 1388   2.878  -0.515   7.587 -0.0396 -0.0007 -0.0959
   85POPC   C4A 1389   2.623  -0.653   7.223  0.1394  0.1022 -0.0407
   85POPC   C1B 1390   3.268   0.347   7.640  0.2418  0.1227  0.1802
   85POPC   C2B 1391   3.274   0.418   7.130  0.1207 -0.2363 -0.0167
   85POPC   C3B 1392   3.560   0.435   6.768 -0.0678 -0.1421 -0.0634
   85POPC   C4B 1393   3.746   0.745   6.444 -0.0891  0.2736  0.0216
   86POPC   NC3 1394   0.341   5.166   8.480 -0.0858  0.1933 -0.3286
   86POPC   PO4 1395   0.020   4.772   8.607 -0.0971  0.1608  0.3572
   86POPC   GL1 1396  -0.073   4.977   8.194  0.3991 -0.1890  0.3755
   86POPC   GL2 1397  -0.266   4.960   7.884 -0.1298 -0.0690  0.2078
   86POPC   C1A 1398   0.278   5.107   7.782 -0.0395  0.2150  0.1626
   86POPC   D2A 1399   0.410   5.332   7.407 -0.1045 -0.2042 -0.0977
   86POPC   C3A 1400   0.160   5.703   7.246 -0.4335 -0.1139  0.0950
   86POPC   C4A 1401  -0.164   5.931   7.035 -0.2953  0.1029  0.1594
   86POPC   C1B 1402  -0.313   4.785   7.370 -0.3207 -0.1489 -0.3760
   86POPC   C2B 1403  -0.140   4.722   6.945  0.4507  0.2583  0.0994
   86POPC   C3B 1404   0.058   5.043   6.625  0.2886 -0.1638  0.0417
   86POPC   C4B 1405   0.046   5.000   6.179 -0.1947 -0.0929  0.0017
   87POPC   NC3 1406   5.870   4.627   8.522  0.0327 -0.0823 -0.0389
   87POPC   PO4 1407   6.038   4.459   8.141 -0.0739 -0.0353  0.2392
   87POPC   GL1 1408   6.189   4.465   7.763  0.0992  0.2045 -0.3968
   87POPC   GL2 1409   6.463   4.593   7.590  0.3532  0.0960 -0.1911
   87POPC   C1A 1410   5.903   4.495   7.443  0.0803  0.2671  0.2870
   87POPC   D2A 1411   6.056   4.813   7.059  0.1456 -0.2345  0.0228
   87POPC   C3A 1412   6.327   4.819   6.721 -0.0830 -0.2068  0.1273
   87POPC   C4A 1413   6.512   4.556   6.411  0.0257 -0.1682 -0.3420
   87POPC   C1B 1414   6.511   4.611   7.171 -0.0005  0.1537  0.1575
   87POPC   C2B 1415   6.550   4.319   6.845 -0.1136  0.0609 -0.0233
   87POPC   C3B 1416   6.323   3.986   6.720  0.1161 -0.0731  0.1806
   87POPC   C4B 1417   6.247   3.629   6.960 -0.0423  0.0198  0.0791
   88POPC   NC3 1418   1.402   2.270   8.056  0.0268 -0.0686  0.2899
   88POPC   PO4 1419   1.724   2.524   8.092  0.0683  0.2822 -0.0653
   88POPC   GL1 1420   1.608   2.644   7.699  0.1941  0.0317 -0.0567
   88POPC   GL2 1421   1.382   2.365   7.557 -0.1725 -0.0538  0.0487
   88POPC   C1A 1422   1.478   3.062   7.445  0.3685 -0.0567  0.1246
   88POPC   D2A 1423   1.462   3.144   6.980  0.1352  0.3954  0.0647
   88POPC   C3A 1424   1.610   3.461   6.695  0.2822 -0.2227 -0.0023
   88POPC   C4A 1425   1.578   3.969   6.568 -0.2342 -0.1897  0.4139
   88POPC   C1B 1426   1.080   2.327   7.229  0.0626 -0.2940  0.0615
   88POPC   C2B 1427   0.782   2.117   7.004  0.1276  0.1549 -0.1765
   88POPC   C3B 1428   0.720   2.233   6.612  0.3657 -0.0068 -0.1389
   88POPC   C4B 1429   0.867   2.122   6.290  0.2010  0.2479 -0.1020
   89POPC   NC3 1430   0.023   6.503   8.057  0.0763 -0.0914 -0.1840
   89POPC   PO4 1431  -0.377   6.439   8.361 -0.2573 -0.4489 -0.0974
   89POPC   GL1 1432  -0.449   6.348   7.945  0.0660 -0.1969 -0.1136
   89POPC   GL2 1433  -0.302   6.227   7.686  0.3435  0.4362  0.0853
   89POPC   C1A 1434  -0.623   6.587   7.713  0.2054  0.0756 -0.1029
   89POPC   D2A 1435  -1.090   6.550   7.555  0.2555 -0.3875 -0.1540
   89POPC   C3A 1436  -1.570   6.519   7.848  0.0577 -0.0407 -0.0255
   89POPC   C4A 1437  -2.003   6.238   7.680 -0.3620  0.0543  0.2838
   89POPC   C1B 1438  -0.423   6.303   7.185  0.1138  0.1270  0.1293
   89POPC   C2B 1439  -0.505   6.379   6.727 -0.0248  0.0152  0.0341
   89POPC   C3B 1440  -0.274   6.480   6.335 -0.0652 -0.0245 -0.0227
   89POPC   C4B 1441  -0.263   6.397   5.907  0.0408 -0.0624 -0.0334
   90POPC   NC3 1442   6.642   4.652   8.101 -0.2730  0.1729  0.2216
   90POPC   PO4 1443   7.046   4.454   8.237  0.0379  0.2054  0.1345
   90POPC   GL1 1444   6.960   4.269   7.820  0.2345  0.1151  0.0989
   90POPC   GL2 1445   6.980   4.570   7.709 -0.0745 -0.0610 -0.1581
   90POPC   C1A 1446   6.696   4.194   7.504 -0.3427 -0.1256  0.2903
   90POPC   D2A 1447   6.700   3.866   7.075 -0.1650  0.1536 -0.0587
   90POPC   C3A 1448   7.047   3.695   6.821  0.1604 -0.0313  0.2071
   90POPC   C4A 1449   7.117   3.547   6.383 -0.0385  0.2560 -0.1995
   90POPC   C1B 1450   6.952   4.807   7.277  0.2670  0.0486 -0.1673
   90POPC   C2B 1451   6.856   4.671   6.759  0.1367 -0.0889  0.2215
   90POPC   C3B 1452   7.009   4.693   6.323 -0.1682  0.1995  0.1267
   90POPC   C4B 1453   7.341   4.426   6.279  0.1211  0.0969  0.2769
   91POPC   NC3 1454   1.310   6.616   8.572 -0.1940 -0.2139  0.0765
   91POPC   PO4 1455   0.945   6.801   8.283  0.0378 -0.0404 -0.2963
   91POPC   GL1 1456   0.941   6.837   7.850 -0.2825 -0.0038 -0.2839
   91POPC   GL2 1457   1.049   7.192   7.788 -0.0743 -0.0320  0.1867
   91POPC   C1A 1458   0.852   6.905   7.452 -0.0250  0.1838 -0.1311
   91POPC   D2A 1459   0.643   7.048   7.135  0.0241 -0.2667  0.0720
   91POPC   C3A 1460   0.660   7.141   6.705  0.0051  0.0634 -0.2650
   91POPC   C4A 1461   0.441   7.126   6.333 -0.2363 -0.1145 -0.4037
   91POPC   C1B 1462   1.080   7.498   7.508  0.0334  0.2206  0.1582
   91POPC   C2B 1463   1.160   7.781   7.210 -0.2941  0.0325  0.0907
   91POPC   C3B 1464   1.099   7.749   6.836  0.1262  0.0069  0.0441
   91POPC   C4B 1465   0.930   7.875   6.509 -0.0148 -0.0463 -0.0269
   92POPC   NC3 1466   1.502   5.238   8.237 -0.0417  0.1017 -0.0798
   92POPC   PO4 1467   1.234   5.415   8.064 -0.3243 -0.0544  0.1575
   92POPC   GL1 1468   1.236   5.612   7.649  0.1978  0.0948 -0.1324
   92POPC   GL2 1469   1.063   5.888   7.627  0.1842 -0.4335 -0.0934
   92POPC   C1A 1470   1.334   5.655   7.203 -0.2686 -0.1901 -0.1027
   92POPC   D2A 1471   1.515   5.962   6.968  0.0467  0.0994 -0.0675
   92POPC   C3A 1472   1.677   5.862   6.623 -0.0129  0.0309  0.0235
   92POPC   C4A 1473   1.954   5.605   6.415 -0.0220  0.1582 -0.2785
   92POPC   C1B 1474   0.748   6.043   7.288 -0.0475 -0.2779 -0.2031
   92POPC   C2B 1475   0.784   6.257   6.813  0.0052  0.0175 -0.1594
   92POPC   C3B 1476   0.821   6.221   6.361 -0.1560  0.2108  0.0107
   92POPC   C4B 1477   1.092   6.418   6.082  0.1112 -0.2232 -0.0003
   93POPC   NC3 1478   2.344   8.284   9.290 -0.0913 -0.2941  0.1261
   93POPC   PO4 1479   2.610   7.951   9.081 -0.1311 -0.0841  0.1864
   93POPC   GL1 1480   2.638   7.820   8.674  0.0354 -0.1602 -0.0178
   93POPC   GL2 1481   2.878   7.583   8.646 -0.2662  0.2348  0.1573
   93POPC   C1A 1482   2.324   7.566   8.517 -0.1583  0.3604 -0.2968
   93POPC   D2A 1483   2.174   7.491   8.148  0.1214 -0.0128  0.1391
   93POPC   C3A 1484   1.858   7.294   8.070 -0.3431 -0.0788 -0.0233
   93POPC   C4A 1485   1.581   7.320   7.825 -0.1252  0.0688 -0.0893
   93POPC   C1B 1486   3.306   7.687   8.536 -0.1104  0.1543 -0.3432
   93POPC   C2B 1487   3.612   7.906   8.519 -0.2045 -0.0460 -0.3458
   93POPC   C3B 1488   3.945   8.228   8.526  0.0928 -0.0925 -0.1523
   93POPC   C4B 1489   4.005   8.658   8.571 -0.2090 -0.0059  0.0535
   94POPC   NC3 1490   2.309   0.135   8.224 -0.0536  0.0459  0.0901
   94POPC   PO4 1491   2.466   0.504   8.216  0.2319 -0.1799  0.1210
   94POPC   GL1 1492   2.437   0.485   7.755 -0.1850 -0.1835 -0.4943
   94POPC   GL2 1493   2.209   0.603   7.538  0.1112 -0.1999  0.2296
   94POPC   C1A 1494   2.783   0.660   7.415  0.1415  0.0243  0.2706
   94POPC   D2A 1495   2.821   0.602   6.943 -0.4010  0.1331  0.4082
   94POPC   C3A 1496   3.081   0.596   6.592 -0.0612  0.0103  0.2250
   94POPC   C4A 1497   3.267   0.845   6.182  0.0347 -0.0742 -0.3184
   94POPC   C1B 1498   2.282   0.826   7.146  0.2389 -0.0330  0.0764
   94POPC   C2B 1499   2.255   0.809   6.774  0.1676  0.1266 -0.1660
   94POPC   C3B 1500   1.823   0.826   6.605  0.0195  0.2415 -0.0145
   94POPC   C4B 1501   1.374   0.829   6.501 -0.0912 -0.1064 -0.0716
   95POPC   NC3 1502   0.222   8.005   8.412  0.0319 -0.1867 -0.0566
   95POPC   PO4 1503  -0.181   8.201   8.415  0.2658 -0.3178  0.1467
   95POPC   GL1 1504   0.058   8.355   8.115 -0.3678 -0.0278  0.2967
   95POPC   GL2 1505   0.422   8.408   7.995 -0.0259 -0.0842 -0.1521
   95POPC   C1A 1506  -0.055   8.285   7.633 -0.1602 -0.1973 -0.2386
   95POPC   D2A 1507  -0.122   8.090   7.120 -0.2178 -0.2228 -0.3106
   95POPC   C3A 1508  -0.506   8.004   6.970  0.2524  0.1326 -0.2454
   95POPC   C4A 1509  -0.782   7.987   6.601  0.1562  0.2690 -0.0373
   95POPC   C1B 1510   0.401   8.429   7.481 -0.2998  0.1981  0.0622
   95POPC   C2B 1511   0.395   8.330   7.076 -0.2882  0.0505 -0.0193
   95POPC   C3B 1512   0.374   8.483   6.646  0.1313  0.0882 -0.1231
   95POPC   C4B 1513   0.170   8.665   6.337 -0.1249  0.1164  0.3838
   96POPC   NC3 1514   0.936   5.857   8.154 -0.1801  0.1243 -0.1380
   96POPC   PO4 1515   0.730   5.457   8.304 -0.0054 -0.1482 -0.1929
   96POPC   GL1 1516   0.714   5.546   7.849  0.2932  0.0054  0.2478
   96POPC   GL2 1517   0.764   5.240   7.783 -0.0859 -0.2705  0.0169
   96POPC   C1A 1518   0.833   5.576   7.345 -0.1963  0.0144 -0.0018
   96POPC   D2A 1519   0.525   5.665   6.923 -0.2598  0.3809 -0.1698
   96POPC   C3A 1520   0.432   5.944   6.577 -0.1647 -0.1543  0.1603
   96POPC   C4A 1521  -0.020   6.031   6.472 -0.0991 -0.0852  0.3326
   96POPC   C1B 1522   0.744   4.855   7.613 -0.0701  0.4099 -0.1215
   96POPC   C2B 1523   0.682   4.595   7.195  0.3336  0.0030  0.0004
   96POPC   C3B 1524   0.758   4.220   6.934 -0.0880  0.1228  0.1110
   96POPC   C4B 1525   0.736   3.813   6.660  0.0856  0.0912  0.2146
   97POPC   NC3 1526   7.888   0.160   7.650  0.0076 -0.0653  0.0038
   97POPC   PO4 1527   7.444   0.205   7.914 -0.0018  0.0520  0.1547
   97POPC   GL1 1528   7.433   0.127   7.499 -0.2260  0.0829  0.0884
   97POPC   GL2 1529   7.209  -0.016   7.432  0.0115  0.0250  0.3440
   97POPC   C1A 1530   7.496   0.077   7.089 -0.0373 -0.0837 -0.0773
   97POPC   D2A 1531   7.629   0.205   6.703 -0.0482  0.1581 -0.1846
   97POPC   C3A 1532   7.940   0.058   6.629 -0.1731 -0.0360  0.1643
   97POPC   C4A 1533   8.340   0.038   6.661  0.0714 -0.3747 -0.1004
   97POPC   C1B 1534   7.424  -0.428   7.128 -0.1767 -0.0801 -0.0718
   97POPC   C2B 1535   7.564  -0.874   7.039 -0.0197  0.2566  0.0540
   97POPC   C3B 1536   7.646  -1.018   6.624  0.3122 -0.2900 -0.2717
   97POPC   C4B 1537   7.639  -1.101   6.161  0.2081  0.0101  0.1837
   98POPC   NC3 1538   1.185   1.153   8.250 -0.2422 -0.0632  0.2399
   98POPC   PO4 1539   1.319   1.502   8.166  0.2577 -0.1947 -0.0385
   98POPC   GL1 1540   1.537   1.610   7.754 -0.0393 -0.0512  0.1152
   98POPC   GL2 1541   1.499   1.882   7.638 -0.1176  0.0184  0.1684
   98POPC   C1A 1542   1.549   1.416   7.281 -0.3501 -0.1173 -0.1710
   98POPC   D2A 1543   1.497   1.308   6.781  0.0638 -0.1300  0.0570
   98POPC   C3A 1544   1.677   1.538   6.436  0.0049  0.2128 -0.0682
   98POPC   C4A 1545   2.083   1.442   6.261 -0.0784 -0.0333 -0.2072
   98POPC   C1B 1546   1.529   2.008   7.164 -0.2466 -0.1019 -0.0089
   98POPC   C2B 1547   1.530   1.860   6.804  0.0698  0.3329 -0.0936
   98POPC   C3B 1548   1.567   2.129   6.439 -0.2951 -0.0736 -0.1579
   98POPC   C4B 1549   1.535   2.286   6.053  0.0612  0.0615  0.3040
   99POPC   NC3 1550   7.879   2.637   7.913 -0.3268 -0.1058 -0.1763
   99POPC   PO4 1551   8.117   3.149   7.910  0.3225  0.0290  0.3186
   99POPC   GL1 1552   8.477   3.005   7.663 -0.1523 -0.1534  0.1938
   99POPC   GL2 1553   8.695   3.084   7.744  0.0602  0.0818 -0.1215
   99POPC   C1A 1554   8.708   2.996   7.204 -0.2001  0.1295  0.0307
   99POPC   D2A 1555   8.901   3.062   6.846 -0.2479  0.1345  0.0319
   99POPC   C3A 1556   8.971   3.477   6.619  0.0987  0.0365 -0.0653
   99POPC   C4A 1557   9.003   3.844   6.789  0.3039 -0.0261  0.1664
   99POPC   C1B 1558   8.887   3.346   7.497 -0.1637 -0.2382  0.0593
   99POPC   C2B 1559   8.991   3.501   7.139 -0.1570  0.1748  0.0602
   99POPC   C3B 1560   9.375   3.293   6.841 -0.0562 -0.0738  0.2145
   99POPC   C4B 1561   9.648   3.318   6.522  0.0472  0.0111  0.1468
  100POPC   NC3 1562   2.475   5.494   8.390 -0.1797 -0.0120  0.2912
  100POPC   PO4 1563   2.277   5.106   8.155  0.1440 -0.1721 -0.3155
  100POPC   GL1 1564   1.907   5.144   7.882  0.1036 -0.2007 -0.0547
  100POPC   GL2 1565   1.681   5.290   7.778 -0.4261  0.0630  0.2041
  100POPC   C1A 1566   2.003   5.191   7.417 -0.3045  0.2133  0.2263
  100POPC   D2A 1567   2.100   5.197   6.885 -0.0172 -0.2011  0.1174
  100POPC   C3A 1568   1.841   4.953   6.517 -0.2100  0.1399  0.1828
  100POPC   C4A 1569   1.953   4.699   6.237  0.1240  0.3466  0.2032
  100POPC   C1B 1570   1.739   5.640   7.560  0.2135  0.2804 -0.3246
  100POPC   C2B 1571   1.484   6.034   7.510 -0.0927 -0.3131 -0.2481
  100POPC   C3B 1572   1.740   6.327   7.750  0.1041 -0.5172 -0.1288
  100POPC   C4B 1573   1.714   6.780   7.876 -0.3040  0.1775 -0.1652
  101POPC   NC3 1574   6.151   7.213   8.034 -0.1593  0.0777 -0.1198
  101POPC   PO4 1575   6.438   7.481   8.002 -0.1599 -0.2170  0.0016
  101POPC   GL1 1576   6.157   7.590   7.703  0.2818  0.2239 -0.0334
  101POPC   GL2 1577   6.374   7.745   7.524  0.3260  0.2104 -0.1553
  101POPC   C1A 1578   5.997   7.525   7.262  0.0110  0.1269 -0.0223
  101POPC   D2A 1579   6.100   7.615   6.891 -0.2189  0.1119 -0.0986
  101POPC   C3A 1580   5.790   7.556   6.612  0.2759  0.0598  0.0257
  101POPC   C4A 1581   5.571   7.783   6.331  0.1695 -0.1606 -0.2254
  101POPC   C1B 1582   6.511   7.580   7.166 -0.1005  0.0236 -0.0583
  101POPC   C2B 1583   6.620   7.484   6.745 -0.1116  0.1181 -0.3302
  101POPC   C3B 1584   6.678   7.497   6.336  0.1358  0.1411  0.0158
  101POPC   C4B 1585   6.462   7.380   6.020  0.2937 -0.1294 -0.1310
  102POPC   NC3 1586   6.169   5.890   8.556 -0.3003 -0.3089 -0.0797
  102POPC   PO4 1587   5.825   6.011   8.238 -0.1187 -0.4049 -0.2430
  102POPC   GL1 1588   5.921   6.262   7.833  0.0594 -0.0550 -0.1800
  102POPC   GL2 1589   6.082   6.087   7.708 -0.0180 -0.1572  0.1876
  102POPC   C1A 1590   5.532   6.433   7.557  0.1096  0.0509  0.1713
  102POPC   D2A 1591   5.382   6.401   7.192  0.1174 -0.0607 -0.1889
  102POPC   C3A 1592   4.976   6.495   7.016 -0.2359 -0.2706  0.0852
  102POPC   C4A 1593   4.716   6.869   6.820 -0.0392 -0.0100 -0.0552
  102POPC   C1B 1594   5.849   6.124   7.314 -0.0353 -0.1165 -0.2145
  102POPC   C2B 1595   5.848   6.223   6.873  0.0150  0.2938 -0.1111
  102POPC   C3B 1596   5.708   6.013   6.396  0.1899  0.1127 -0.1907
  102POPC   C4B 1597   5.565   5.763   6.067 -0.3074  0.1527 -0.0683
  103POPC   NC3 1598   4.778   2.396   8.247  0.2421  0.2328 -0.1437
  103POPC   PO4 1599   4.470   2.494   8.016 -0.4520 -0.1357  0.0356
  103POPC   GL1 1600   4.403   2.375   7.689  0.1011 -0.2045 -0.0711
  103POPC   GL2 1601   4.126   2.549   7.503  0.3240 -0.0297  0.4884
  103POPC   C1A 1602   4.409   2.210   7.321 -0.2672 -0.1671  0.0179
  103POPC   D2A 1603   4.218   2.205   6.900 -0.1549  0.1266  0.0139
  103POPC   C3A 1604   3.972   2.091   6.592  0.2659  0.0692  0.2266
  103POPC   C4A 1605   3.534   2.167   6.369  0.0185 -0.1468  0.1070
  103POPC   C1B 1606   3.940   2.827   7.200  0.0557 -0.0634  0.3501
  103POPC   C2B 1607   3.597   2.911   6.935  0.1038 -0.1986 -0.2986
  103POPC   C3B 1608   3.387   3.394   6.878 -0.2357 -0.2678 -0.0565
  103POPC   C4B 1609   3.577   3.638   6.721  0.0808  0.1321  0.1050
  104POPC   NC3 1610   9.085   9.191   8.176 -0.1393  0.2899  0.2516
  104POPC   PO4 1611   8.965   9.324   7.812  0.3604  0.1952 -0.0413
  104POPC   GL1 1612   8.772   9.149   7.415 -0.2533  0.1062 -0.1925
  104POPC   GL2 1613   8.447   9.117   7.383  0.0649  0.3286  0.0008
  104POPC   C1A 1614   8.791   9.114   6.948 -0.3237 -0.1711  0.0136
  104POPC   D2A 1615   8.673   9.169   6.568 -0.0411 -0.1991  0.3583
  104POPC   C3A 1616   8.652   9.514   6.335  0.1201 -0.0879  0.1089
  104POPC   C4A 1617   8.663   9.974   6.250 -0.4866 -0.0237 -0.1884
  104POPC   C1B 1618   8.306   8.681   7.367 -0.1874  0.4892  0.3243
  104POPC   C2B 1619   8.301   8.324   7.038  0.0569 -0.0286  0.0881
  104POPC   C3B 1620   8.342   8.064   6.676 -0.4190  0.0946 -0.0257
  104POPC   C4B 1621   8.471   7.792   6.379 -0.3148 -0.1650 -0.4229
  105POPC   NC3 1622   6.669   8.248   8.236 -0.0721 -0.0104  0.3526
  105POPC   PO4 1623   6.825   7.779   8.311  0.0842  0.4727  0.1343
  105POPC   GL1 1624   6.789   7.783   7.820 -0.1736  0.1226 -0.2123
  105POPC   GL2 1625   7.136   7.643   7.687 -0.0305  0.1221 -0.1023
  105POPC   C1A 1626   6.828   8.062   7.447 -0.1500 -0.0302  0.0143
  105POPC   D2A 1627   6.943   8.053   7.061 -0.1225  0.0849  0.2367
  105POPC   C3A 1628   6.918   8.101   6.623 -0.0200  0.0320  0.1077
  105POPC   C4A 1629   6.719   8.243   6.265  0.2530  0.0995 -0.0711
  105POPC   C1B 1630   6.998   7.569   7.259 -0.1329  0.2132 -0.0621
  105POPC   C2B 1631   7.088   7.323   6.998 -0.0889 -0.1829 -0.3691
  105POPC   C3B 1632   7.138   7.324   6.601 -0.3781  0.2187 -0.1319
  105POPC   C4B 1633   7.115   7.280   6.235 -0.0869 -0.0918 -0.1521
  106POPC   NC3 1634   5.887   5.507   7.901 -0.0129 -0.0024 -0.0697
  106POPC   PO4 1635   6.443   5.404   7.859  0.4242 -0.1279  0.1524
  106POPC   GL1 1636   6.428   5.778   7.534  0.1049  0.1210  0.2776
  106POPC   GL2 1637   6.570   6.049   7.560  0.0476  0.0228 -0.1062
  106POPC   C1A 1638   6.159   5.685   7.161 -0.1082 -0.1939 -0.1301
  106POPC   D2A 1639   6.075   5.777   6.711  0.0568 -0.0109  0.0077
  106POPC   C3A 1640   5.861   5.509   6.443  0.1218  0.2515  0.1071
  106POPC   C4A 1641   5.422   5.595   6.509  0.0935  0.1763 -0.2342
  106POPC   C1B 1642   6.388   6.185   7.134  0.0888  0.1653  0.1047
  106POPC   C2B 1643   6.328   6.198   6.709 -0.0842  0.1000  0.1575
  106POPC   C3B 1644   6.138   6.316   6.274  0.0836  0.0365 -0.0470
  106POPC   C4B 1645   6.122   6.384   5.883  0.0858  0.2847  0.1288
  107POPC   NC3 1646   7.922   1.258   8.625  0.1402 -0.0980  0.3456
  107POPC   PO4 1647   7.972   1.627   8.385 -0.2927  0.1719 -0.3871
  107POPC   GL1 1648   8.054   1.604   7.968  0.1419  0.2620  0.2862
  107POPC   GL2 1649   8.336   1.694   7.778 -0.1932  0.0204  0.1792
  107POPC   C1A 1650   7.828   1.747   7.614  0.0757  0.2414 -0.2243
  107POPC   D2A 1651   7.627   1.969   7.209 -0.1407  0.2295 -0.1499
  107POPC   C3A 1652   7.472   2.396   7.315  0.1230 -0.2561  0.0705
  107POPC   C4A 1653   7.458   2.868   7.170  0.1196  0.0038 -0.0356
  107POPC   C1B 1654   8.248   1.535   7.338  0.2738  0.0916  0.1633
  107POPC   C2B 1655   7.911   1.541   7.032  0.1563  0.1926 -0.1964
  107POPC   C3B 1656   8.070   1.608   6.606  0.2356  0.1883 -0.1917
  107POPC   C4B 1657   7.965   1.669   6.104 -0.0227  0.3078  0.0802
  108POPC   NC3 1658   7.217   3.426   7.797 -0.3707 -0.0002 -0.0837
  108POPC   PO4 1659   7.180   3.004   7.962 -0.4385  0.1109  0.3923
  108POPC   GL1 1660   6.978   2.993   7.608  0.1476  0.0486  0.1046
  108POPC   GL2 1661   7.136   2.744   7.483  0.0967  0.1632 -0.1220
  108POPC   C1A 1662   7.076   3.257   7.215  0.1644 -0.1704 -0.0415
  108POPC   D2A 1663   7.158   3.167   6.815  0.1854  0.2485  0.0895
  108POPC   C3A 1664   6.798   3.066   6.466 -0.2093  0.0147  0.1113
  108POPC   C4A 1665   6.400   3.023   6.456 -0.1536  0.1752  0.1662
  108POPC   C1B 1666   6.991   2.682   7.042  0.0380 -0.4566 -0.0806
  108POPC   C2B 1667   6.854   2.595   6.655  0.4505 -0.1017 -0.0811
  108POPC   C3B 1668   6.668   2.569   6.286  0.1503 -0.3161  0.2040
  108POPC   C4B 1669   6.810   2.398   5.870  0.3662  0.1828 -0.1232
  109POPC   NC3 1670   0.181   7.761   8.860 -0.0813  0.3747  0.1765
  109POPC   PO4 1671  -0.163   7.698   8.529  0.2014  0.2040 -0.1617
  109POPC   GL1 1672  -0.019   7.681   8.056  0.2767  0.0841 -0.1569
  109POPC   GL2 1673  -0.153   7.933   7.946 -0.0416 -0.2155  0.1005
  109POPC   C1A 1674   0.128   7.353   7.800 -0.2111  0.3485  0.3901
  109POPC   D2A 1675   0.214   7.369   7.267 -0.1577 -0.0108 -0.1487
  109POPC   C3A 1676   0.186   7.067   6.965  0.1539 -0.2768  0.2307
  109POPC   C4A 1677   0.079   6.980   6.612 -0.2040  0.1926 -0.0752
  109POPC   C1B 1678  -0.214   7.696   7.617  0.2058 -0.1173  0.0996
  109POPC   C2B 1679  -0.192   7.623   7.251 -0.2164 -0.0755  0.1317
  109POPC   C3B 1680  -0.156   7.613   6.867 -0.2722 -0.3323  0.3703
  109POPC   C4B 1681   0.099   7.473   6.592 -0.3137 -0.0643  0.1586
  110POPC   NC3 1682   0.041   6.273   8.534 -0.2400  0.2297  0.1821
  110POPC   PO4 1683   0.476   6.500   8.421 -0.1223 -0.1678  0.0434
  110POPC   GL1 1684   0.491   6.757   8.011  0.4567  0.0051  0.0230
  110POPC   GL2 1685   0.586   7.141   8.056 -0.2842  0.0918  0.0911
  110POPC   C1A 1686   0.354   6.892   7.600 -0.1965 -0.0726  0.4145
  110POPC   D2A 1687  -0.037   6.620   7.497 -0.2673  0.1437  0.0870
  110POPC   C3A 1688   0.140   6.165   7.493  0.0420  0.2669 -0.1633
  110POPC   C4A 1689   0.443   5.881   7.637 -0.1483  0.2850 -0.1511
  110POPC   C1B 1690   0.599   7.390   7.667  0.0355  0.1625 -0.0379
  110POPC   C2B 1691   0.715   7.544   7.226  0.0335  0.1822 -0.1563
  110POPC   C3B 1692   0.515   7.586   6.855  0.0035 -0.2927  0.0287
  110POPC   C4B 1693   0.563   7.580   6.446  0.1297 -0.3684 -0.2090
  111POPC   NC3 1694   2.092   4.462   8.372  0.0227 -0.0412  0.0244
  111POPC   PO4 1695   2.137   4.684   7.992 -0.0134  0.3477  0.1201
  111POPC   GL1 1696   2.336   4.797   7.622  0.2071  0.1448  0.0354
  111POPC   GL2 1697   2.438   5.169   7.641  0.0275 -0.1500  0.0530
  111POPC   C1A 1698   2.081   4.746   7.218  0.1873 -0.1383  0.1919
  111POPC   D2A 1699   1.632   4.750   7.044 -0.0047 -0.1115 -0.0892
  111POPC   C3A 1700   1.523   5.192   7.069  0.1141  0.0047  0.3204
  111POPC   C4A 1701   1.598   5.418   6.801  0.0211 -0.0349 -0.0410
  111POPC   C1B 1702   2.465   5.057   7.214  0.2819 -0.2210 -0.1798
  111POPC   C2B 1703   2.654   4.984   6.840  0.1920 -0.2464 -0.3908
  111POPC   C3B 1704   2.399   4.971   6.477  0.1483 -0.1860  0.1039
  111POPC   C4B 1705   2.308   5.083   6.097 -0.0545  0.4458  0.3880
  112POPC   NC3 1706   3.750   5.037   8.874  0.0873 -0.2791  0.2671
  112POPC   PO4 1707   3.823   5.398   8.494  0.0858  0.2416 -0.1105
  112POPC   GL1 1708   4.045   5.500   8.204 -0.1864 -0.3450  0.0215
  112POPC   GL2 1709   4.351   5.701   8.113 -0.1934 -0.0319 -0.0223
  112POPC   C1A 1710   3.951   5.750   7.871  0.1230  0.1029  0.0020
  112POPC   D2A 1711   3.992   5.855   7.400  0.0425  0.3568  0.1034
  112POPC   C3A 1712   3.973   6.404   7.314 -0.2611  0.2132  0.1220
  112POPC   C4A 1713   3.808   6.797   7.287  0.1857  0.1841 -0.1109
  112POPC   C1B 1714   4.293   5.399   7.826 -0.1446  0.2813  0.1600
  112POPC   C2B 1715   4.211   5.442   7.384 -0.0699 -0.0678 -0.1642
  112POPC   C3B 1716   4.309   5.548   6.961  0.1601  0.0811 -0.0399
  112POPC   C4B 1717   4.502   5.913   6.537 -0.0122 -0.0864  0.1248
  113POPC   NC3 1718   6.778   2.768   8.062 -0.0952  0.1051 -0.2871
  113POPC   PO4 1719   6.501   2.910   7.790  0.1465  0.2381 -0.0166
  113POPC   GL1 1720   6.548   2.739   7.420  0.0652  0.0578 -0.0493
  113POPC   GL2 1721   6.736   2.392   7.469 -0.0462  0.2200  0.0351
  113POPC   C1A 1722   6.516   2.857   7.014 -0.1594 -0.2531  0.3946
  113POPC   D2A 1723   6.317   2.525   6.697 -0.0473 -0.0523  0.1126
  113POPC   C3A 1724   6.241   2.146   6.873 -0.0218  0.0740 -0.1686
  113POPC   C4A 1725   6.108   1.791   7.054  0.3585  0.0289 -0.0106
  113POPC   C1B 1726   6.668   2.310   7.140  0.1933  0.0393 -0.1360
  113POPC   C2B 1727   6.761   2.061   6.737 -0.0311 -0.0998 -0.1148
  113POPC   C3B 1728   6.937   2.149   6.224 -0.0687  0.0687 -0.0801
  113POPC   C4B 1729   7.079   1.881   5.876 -0.3485 -0.3589  0.1705
  114POPC   NC3 1730   3.534   7.724   9.902  0.0607  0.0924 -0.0382
  114POPC   PO4 1731   3.607   7.967   9.474 -0.1786  0.3759 -0.2213
  114POPC   GL1 1732   3.335   8.146   9.036 -0.2235 -0.2126 -0.3394
  114POPC   GL2 1733   3.101   8.082   8.822 -0.1118  0.2655  0.1953
  114POPC   C1A 1734   3.539   8.372   8.762 -0.0209 -0.0495  0.1755
  114POPC   D2A 1735   3.482   8.460   8.331 -0.0297 -0.1773  0.1513
  114POPC   C3A 1736   3.849   8.624   8.022 -0.1827  0.0279  0.1498
  114POPC   C4A 1737   4.032   8.410   7.653 -0.1453  0.0502 -0.1542
  114POPC   C1B 1738   3.054   8.426   8.645 -0.0223 -0.3276  0.1261
  114POPC   C2B 1739   3.229   8.887   8.656  0.0283  0.0946  0.0521
  114POPC   C3B 1740   3.636   8.904   8.374 -0.0599  0.2208 -0.1774
  114POPC   C4B 1741   3.827   9.127   8.038  0.2657 -0.0840 -0.1150
  115POPC   NC3 1742   8.516   2.730   8.125  0.3250 -0.3139 -0.0033
  115POPC   PO4 1743   8.320   2.498   8.111  0.3953  0.5092 -0.3422
  115POPC   GL1 1744   8.331   2.321   7.784 -0.0964 -0.2258 -0.1919
  115POPC   GL2 1745   8.571   2.507   7.580  0.1363  0.1337  0.1137
  115POPC   C1A 1746   8.297   2.060   7.439 -0.1111 -0.0321  0.0097
  115POPC   D2A 1747   8.090   2.161   7.075 -0.1011 -0.1271  0.4383
  115POPC   C3A 1748   8.243   2.407   6.647  0.1813  0.1689 -0.0886
  115POPC   C4A 1749   7.860   2.526   6.425 -0.0278  0.2690  0.0160
  115POPC   C1B 1750   8.149   2.607   7.341 -0.0165 -0.3481 -0.1536
  115POPC   C2B 1751   7.830   2.576   7.022 -0.2136 -0.0994  0.0800
  115POPC   C3B 1752   7.525   2.502   6.789 -0.1256 -0.1257  0.0875
  115POPC   C4B 1753   7.331   2.397   6.505  0.1389 -0.1044  0.1192
  116POPC   NC3 1754   7.849   7.372   8.229 -0.4878  0.3798  0.0071
  116POPC   PO4 1755   8.243   7.383   8.330 -0.0449  0.1854 -0.1855
  116POPC   GL1 1756   8.362   7.570   7.971  0.1003  0.0552  0.1329
  116POPC   GL2 1757   8.064   7.745   7.958 -0.2503  0.1337 -0.0220
  116POPC   C1A 1758   8.578   7.346   7.612 -0.1271  0.2264 -0.1302
  116POPC   D2A 1759   8.558   7.397   7.167 -0.2002  0.0067  0.0065
  116POPC   C3A 1760   8.614   7.236   6.687 -0.0020 -0.1617  0.1137
  116POPC   C4A 1761   8.480   6.825   6.526  0.0303 -0.0458  0.4295
  116POPC   C1B 1762   8.010   7.572   7.593  0.0247 -0.2286 -0.0423
  116POPC   C2B 1763   8.103   7.324   7.252  0.0537 -0.2544 -0.0336
  116POPC   C3B 1764   8.210   7.087   6.994 -0.0907  0.1983  0.1020
  116POPC   C4B 1765   8.397   6.636   6.993 -0.1311  0.2942  0.0840
  117POPC   NC3 1766   1.495   3.839   8.071 -0.3404 -0.2863  0.1779
  117POPC   PO4 1767   1.595   3.494   7.877 -0.1479  0.2080 -0.0021
  117POPC   GL1 1768   1.873   3.290   7.711 -0.0321 -0.2617 -0.2636
  117POPC   GL2 1769   1.960   3.010   7.703  0.1968  0.0425 -0.1888
  117POPC   C1A 1770   1.931   3.334   7.223  0.0833 -0.1268 -0.0693
  117POPC   D2A 1771   2.022   3.220   6.825 -0.1525 -0.1364  0.0084
  117POPC   C3A 1772   1.930   2.803   6.776 -0.1449 -0.0518 -0.0931
  117POPC   C4A 1773   1.754   2.580   6.524  0.0507  0.0156  0.0675
  117POPC   C1B 1774   1.855   2.821   7.311  0.0262  0.0388 -0.2251
  117POPC   C2B 1775   1.546   2.619   7.067  0.0651 -0.0247  0.3962
  117POPC   C3B 1776   1.308   2.669   6.749  0.2619  0.1092 -0.2106
  117POPC   C4B 1777   1.225   2.492   6.355 -0.3113  0.0834 -0.0004
  118POPC   NC3 1778   5.844   0.192   8.099  0.1679 -0.0809 -0.2153
  118POPC   PO4 1779   5.432   0.207   8.336 -0.1210 -0.1502 -0.0281
  118POPC   GL1 1780   5.292   0.010   8.036 -0.0967 -0.0817 -0.1965
  118POPC   GL2 1781   5.554  -0.157   7.844 -0.2631  0.2273  0.3374
  118POPC   C1A 1782   5.062  -0.256   7.822  0.1312  0.4099  0.1784
  118POPC   D2A 1783   4.735  -0.129   7.694 -0.0207  0.0152 -0.1807
  118POPC   C3A 1784   4.545  -0.262   7.404  0.3420 -0.1557 -0.3414
  118POPC   C4A 1785   4.240  -0.602   7.282 -0.0419 -0.0398  0.3160
  118POPC   C1B 1786   5.497  -0.232   7.403 -0.0966 -0.0541  0.1713
  118POPC   C2B 1787   5.304  -0.272   6.955 -0.0129 -0.0376 -0.1271
  118POPC   C3B 1788   5.430  -0.144   6.580  0.0804 -0.0586 -0.0415
  118POPC   C4B 1789   5.742  -0.300   6.389 -0.0042 -0.0690 -0.1599
  119POPC   NC3 1790   0.500   4.296   7.925 -0.0471  0.0138 -0.0673
  119POPC   PO4 1791   0.585   3.741   8.056  0.1806 -0.0300  0.0581
  119POPC   GL1 1792   0.372   3.636   7.655  0.2042  0.3077 -0.0439
  119POPC   GL2 1793   0.226   3.220   7.728  0.0022 -0.0274 -0.1867
  119POPC   C1A 1794   0.210   3.662   7.255  0.1658  0.1738 -0.2671
  119POPC   D2A 1795   0.173   3.701   6.771 -0.1300 -0.1397  0.4263
  119POPC   C3A 1796   0.222   4.110   6.470  0.1124 -0.0718 -0.3501
  119POPC   C4A 1797   0.588   4.280   6.451 -0.2273 -0.2121  0.3364
  119POPC   C1B 1798   0.456   3.248   7.368 -0.0117 -0.0740 -0.2059
  119POPC   C2B 1799   0.660   3.061   7.031 -0.3093  0.1359  0.2941
  119POPC   C3B 1800   0.844   2.616   6.891 -0.0179  0.2319 -0.0799
  119POPC   C4B 1801   1.195   2.219   6.771  0.0546 -0.1166  0.1091
  120POPC   NC3 1802   7.527   3.445   8.505 -0.0729  0.0714  0.2812
  120POPC   PO4 1803   7.602   3.578   8.050 -0.0777 -0.1216  0.1087
  120POPC   GL1 1804   7.717   3.427   7.691  0.2096  0.0625  0.0518
  120POPC   GL2 1805   7.583   3.027   7.629 -0.0497 -0.0531 -0.1288
  120POPC   C1A 1806   7.557   3.394   7.230 -0.1424 -0.0625  0.2181
  120POPC   D2A 1807   7.515   3.559   6.804 -0.0977  0.0524  0.1855
  120POPC   C3A 1808   7.533   3.257   6.454  0.1667 -0.0661 -0.1990
  120POPC   C4A 1809   7.704   2.969   6.118 -0.2136 -0.0016  0.2358
  120POPC   C1B 1810   7.908   3.029   7.271  0.1333  0.3777  0.3175
  120POPC   C2B 1811   8.274   2.894   6.972 -0.1690  0.1235 -0.0450
  120POPC   C3B 1812   8.566   2.728   6.695 -0.2878  0.0282 -0.0150
  120POPC   C4B 1813   8.623   3.040   6.304  0.0846 -0.2354 -0.4013
  121POPC   NC3 1814   4.260   7.814   9.206 -0.0028  0.0673 -0.1378
  121POPC   PO4 1815   4.557   8.156   9.240  0.1750 -0.0700  0.2359
  121POPC   GL1 1816   4.660   8.181   8.847  0.0617  0.1179  0.2262
  121POPC   GL2 1817   4.345   7.989   8.726  0.0003 -0.1925  0.2051
  121POPC   C1A 1818   4.455   8.419   8.552 -0.1983 -0.1356 -0.1598
  121POPC   D2A 1819   4.320   8.414   8.129  0.1448  0.1063 -0.3894
  121POPC   C3A 1820   4.505   8.484   7.771 -0.3219  0.1159  0.2385
  121POPC   C4A 1821   4.953   8.453   7.656 -0.1162  0.2668  0.2248
  121POPC   C1B 1822   4.319   7.898   8.287 -0.1822 -0.3461 -0.2265
  121POPC   C2B 1823   4.449   7.532   7.998 -0.2156  0.0475 -0.0617
  121POPC   C3B 1824   4.448   7.473   7.574 -0.2181 -0.0845  0.0454
  121POPC   C4B 1825   4.577   7.279   7.271  0.1303  0.1258  0.1481
  122POPC   NC3 1826   2.976   4.246   8.184 -0.1300 -0.1066  0.5289
  122POPC   PO4 1827   3.373   3.980   7.986 -0.0936 -0.1373  0.1969
  122POPC   GL1 1828   3.761   4.047   7.765  0.1207  0.1733  0.1663
  122POPC   GL2 1829   3.648   4.233   7.567 -0.2883 -0.0406 -0.3191
  122POPC   C1A 1830   3.978   3.844   7.372 -0.0937  0.1051 -0.2117
  122POPC   D2A 1831   4.163   3.711   7.014  0.0985  0.2370  0.0999
  122POPC   C3A 1832   4.012   3.872   6.544 -0.2167  0.1119 -0.0852
  122POPC   C4A 1833   3.907   4.103   6.276  0.0861  0.3569  0.1145
  122POPC   C1B 1834   3.922   4.476   7.375 -0.2422  0.0495 -0.1262
  122POPC   C2B 1835   4.208   4.561   7.044  0.0827 -0.1090 -0.3089
  122POPC   C3B 1836   4.204   4.863   6.715  0.1367  0.0349  0.1622
  122POPC   C4B 1837   4.306   5.231   6.489 -0.3797 -0.4773  0.0599
  123POPC   NC3 1838   0.743   4.084   8.372  0.0332  0.0770  0.3231
  123POPC   PO4 1839   0.958   4.051   7.972 -0.0385  0.1580 -0.4066
  123POPC   GL1 1840   1.174   3.994   7.610  0.4374 -0.1651  0.1633
  123POPC   GL2 1841   1.202   3.591   7.600 -0.1295 -0.1939  0.1693
  123POPC   C1A 1842   1.178   4.030   7.208  0.1717  0.0028  0.3799
  123POPC   D2A 1843   1.242   3.778   6.901 -0.0006  0.2390  0.1742
  123POPC   C3A 1844   1.087   3.351   6.797 -0.2496  0.2291  0.2691
  123POPC   C4A 1845   1.060   3.006   6.449  0.1242 -0.0693 -0.0844
  123POPC   C1B 1846   1.478   3.579   7.256  0.0143 -0.0107  0.1333
  123POPC   C2B 1847   1.855   3.843   7.050 -0.1137  0.1338  0.2163
  123POPC   C3B 1848   1.708   4.239   7.073  0.1315 -0.2070  0.1940
  123POPC   C4B 1849   1.504   4.344   7.401  0.1275  0.3469 -0.2003
  124POPC   NC3 1850   3.896   3.239   8.069  0.2283 -0.2071 -0.2900
  124POPC   PO4 1851   4.066   3.675   8.064 -0.1696  0.0476 -0.0018
  124POPC   GL1 1852   4.326   3.547   7.716  0.2075  0.0006  0.0034
  124POPC   GL2 1853   4.114   3.390   7.516  0.1927 -0.1379  0.2515
  124POPC   C1A 1854   4.538   3.350   7.315  0.1387  0.2460  0.4015
  124POPC   D2A 1855   4.366   3.127   6.942 -0.2386 -0.2500 -0.0267
  124POPC   C3A 1856   4.648   3.238   6.589  0.1595 -0.0221  0.0486
  124POPC   C4A 1857   5.103   3.211   6.449 -0.1888 -0.0118 -0.2990
  124POPC   C1B 1858   3.847   3.359   7.196 -0.0983  0.3243 -0.2275
  124POPC   C2B 1859   3.889   3.264   6.782 -0.1036  0.2963 -0.0981
  124POPC   C3B 1860   3.566   3.118   6.444 -0.1768  0.3195 -0.1690
  124POPC   C4B 1861   3.255   3.041   6.097  0.1034 -0.0626 -0.0960
  125POPC   NC3 1862   2.188   9.652   9.103  0.0787 -0.0468  0.0340
  125POPC   PO4 1863   2.405   9.551   8.661 -0.3719 -0.3478 -0.0052
  125POPC   GL1 1864   2.027   9.417   8.472  0.0914  0.1205  0.0277
  125POPC   GL2 1865   1.890   9.546   8.185  0.2025 -0.1165 -0.0079
  125POPC   C1A 1866   2.071   9.032   8.163 -0.1093  0.0973 -0.0511
  125POPC   D2A 1867   2.285   8.665   8.085  0.4198 -0.1220 -0.0057
  125POPC   C3A 1868   2.175   8.487   7.763  0.0685  0.0607  0.1793
  125POPC   C4A 1869   1.915   8.194   7.671  0.1632  0.0135 -0.0916
  125POPC   C1B 1870   1.945   9.352   7.833 -0.1931  0.0140  0.0382
  125POPC   C2B 1871   1.954   9.162   7.357  0.2291 -0.2456 -0.2013
  125POPC   C3B 1872   2.137   9.244   7.087 -0.3294  0.1356  0.0253
  125POPC   C4B 1873   2.272   9.134   6.683 -0.1726  0.2976  0.0258
  126POPC   NC3 1874   4.152   6.829   9.019  0.4311 -0.2386 -0.0901
  126POPC   PO4 1875   4.427   6.698   8.742 -0.1180 -0.0180  0.0138
  126POPC   GL1 1876   4.277   6.597   8.379  0.0894  0.2956 -0.0126
  126POPC   GL2 1877   4.585   6.479   8.239 -0.0413 -0.2371 -0.2903
  126POPC   C1A 1878   3.908   6.625   8.228  0.2452 -0.0574  0.1870
  126POPC   D2A 1879   3.683   6.263   8.026 -0.0963  0.3029 -0.1039
  126POPC   C3A 1880   3.565   6.295   7.570  0.4084  0.3059  0.0604
  126POPC   C4A 1881   3.516   6.043   7.205 -0.3662  0.0896  0.0402
  126POPC   C1B 1882   4.677   6.524   7.764  0.2304  0.3820 -0.0098
  126POPC   C2B 1883   4.510   6.638   7.331  0.2738  0.1705 -0.1572
  126POPC   C3B 1884   4.469   6.406   6.861 -0.1296 -0.0345 -0.0579
  126POPC   C4B 1885   4.223   6.350   6.496 -0.0045 -0.0814  0.0928
  127POPC   NC3 1886   2.104   2.870   8.153 -0.2463  0.0581 -0.2481
  127POPC   PO4 1887   2.546   2.820   8.334 -0.1987 -0.1632  0.2359
  127POPC   GL1 1888   2.527   2.900   7.880 -0.0160 -0.1131 -0.1518
  127POPC   GL2 1889   2.794   2.874   7.750 -0.2636 -0.0282 -0.1173
  127POPC   C1A 1890   2.357   2.847   7.553 -0.3547  0.2824  0.2645
  127POPC   D2A 1891   2.287   2.581   7.181 -0.0609 -0.3271  0.2842
  127POPC   C3A 1892   2.402   2.805   6.815  0.0009 -0.1304  0.1303
  127POPC   C4A 1893   2.647   2.822   6.373  0.0632  0.0082  0.0730
  127POPC   C1B 1894   2.809   3.189   7.560  0.2096 -0.0744 -0.2253
  127POPC   C2B 1895   2.913   3.562   7.247  0.0527  0.2057 -0.0788
  127POPC   C3B 1896   3.086   3.775   6.826 -0.2421  0.1357 -0.1405
  127POPC   C4B 1897   3.296   4.121   6.678  0.0693 -0.3577  0.2231
  128POPC   NC3 1898   0.074   9.573   8.559  0.1054 -0.2119  0.0517
  128POPC   PO4 1899  -0.153   9.735   8.278  0.1310 -0.1077  0.0128
  128POPC   GL1 1900   0.104   9.848   7.886  0.2912 -0.0471 -0.1973
  128POPC   GL2 1901   0.395   9.787   7.865 -0.0788  0.0390 -0.0515
  128POPC   C1A 1902  -0.056   9.643   7.566 -0.0744  0.0352  0.1027
  128POPC   D2A 1903  -0.444   9.395   7.385 -0.1153  0.0149 -0.0059
  128POPC   C3A 1904  -0.433   9.153   7.022 -0.0101  0.1317 -0.0373
  128POPC   C4A 1905  -0.522   8.721   6.938  0.1156  0.0662 -0.4858
  128POPC   C1B 1906   0.541   9.910   7.441 -0.0345  0.1176  0.0527
  128POPC   C2B 1907   0.265   9.909   7.137 -0.0358  0.4134  0.1622
  128POPC   C3B 1908  -0.060   9.843   6.870 -0.2267  0.2261  0.2572
  128POPC   C4B 1909  -0.414   9.688   6.981 -0.0959 -0.0610 -0.0853
  129POPC   NC3 1910   1.389   1.116   7.802  0.1795  0.3489 -0.1130
  129POPC   PO4 1911   1.037   0.860   7.868  0.0606  0.2967  0.1290
  129POPC   GL1 1912   1.128   0.629   7.463 -0.1339  0.1174 -0.1180
  129POPC   GL2 1913   1.277   0.306   7.477  0.1101  0.1884  0.1608
  129POPC   C1A 1914   0.897   0.504   7.231 -0.0914  0.2185 -0.0997
  129POPC   D2A 1915   0.737   0.068   7.025  0.1993 -0.0159  0.2249
  129POPC   C3A 1916   0.860  -0.320   6.763 -0.0170 -0.1303  0.1038
  129POPC   C4A 1917   0.569  -0.620   6.651  0.2487 -0.0973 -0.0417
  129POPC   C1B 1918   1.356   0.111   7.103  0.0981  0.0520 -0.1129
  129POPC   C2B 1919   1.161   0.045   6.681 -0.0456  0.0783  0.1907
  129POPC   C3B 1920   1.275  -0.054   6.299 -0.0424  0.0986  0.0836
  129POPC   C4B 1921   1.271   0.233   5.959 -0.3730 -0.0307  0.0796
  130POPC   NC3 1922   0.173   1.778   8.103 -0.1634  0.0811  0.2187
  130POPC   PO4 1923   0.029   2.062   7.753 -0.1548  0.2509 -0.0350
  130POPC   GL1 1924  -0.135   2.101   7.332 -0.3769 -0.0911 -0.1608
  130POPC   GL2 1925   0.117   2.260   7.280 -0.3459  0.1098  0.0667
  130POPC   C1A 1926  -0.359   2.182   7.004  0.0083  0.1673 -0.0285
  130POPC   D2A 1927  -0.612   2.049   6.750  0.2904  0.1692 -0.0209
  130POPC   C3A 1928  -0.898   2.278   6.516  0.2521  0.1571 -0.2380
  130POPC   C4A 1929  -1.218   2.509   6.217 -0.1522  0.1506  0.3255
  130POPC   C1B 1930   0.313   2.197   6.874  0.0409  0.3727 -0.0510
  130POPC   C2B 1931   0.391   1.815   6.492 -0.1122  0.3034 -0.3228
  130POPC   C3B 1932   0.714   1.428   6.614 -0.1218 -0.0980 -0.1387
  130POPC   C4B 1933   0.896   1.032   6.889  0.0250  0.1532  0.0267
  131POPC   NC3 1934   6.272   3.244   8.129 -0.1898  0.1461 -0.1479
  131POPC   PO4 1935   5.925   2.936   8.067 -0.1940  0.1664  0.1969
  131POPC   GL1 1936   5.934   3.010   7.683 -0.2582 -0.0637 -0.2446
  131POPC   GL2 1937   6.189   3.271   7.617 -0.0034  0.0698 -0.2284
  131POPC   C1A 1938   5.775   2.853   7.308  0.0638 -0.2213 -0.0514
  131POPC   D2A 1939   5.381   2.645   7.091 -0.1124 -0.2513  0.0798
  131POPC   C3A 1940   5.008   2.809   6.874 -0.1510  0.1406  0.1408
  131POPC   C4A 1941   4.711   2.733   6.495  0.2431 -0.2654  0.1462
  131POPC   C1B 1942   6.164   3.215   7.263 -0.2155 -0.2427 -0.0279
  131POPC   C2B 1943   6.044   3.035   6.868 -0.0370 -0.0710  0.0547
  131POPC   C3B 1944   5.929   2.885   6.417  0.1740 -0.0632 -0.1318
  131POPC   C4B 1945   5.669   2.683   6.189  0.0141  0.2063  0.0075
  132POPC   NC3 1946   6.665   5.196   8.649 -0.0104  0.0183 -0.0471
  132POPC   PO4 1947   6.910   5.044   8.337 -0.2673 -0.0307  0.1454
  132POPC   GL1 1948   6.841   5.086   7.946 -0.3049  0.3286 -0.0080
  132POPC   GL2 1949   6.687   5.035   7.661 -0.0727  0.0683 -0.2861
  132POPC   C1A 1950   7.203   5.149   7.621  0.1317  0.0944  0.1301
  132POPC   D2A 1951   7.508   4.920   7.463 -0.1172  0.0199  0.1276
  132POPC   C3A 1952   7.454   4.881   7.109 -0.1835  0.0381  0.1767
  132POPC   C4A 1953   7.360   4.575   6.754  0.0353  0.1613 -0.0186
  132POPC   C1B 1954   6.479   5.121   7.179  0.1432 -0.2364  0.0381
  132POPC   C2B 1955   6.277   5.371   6.813 -0.0871 -0.0013 -0.1596
  132POPC   C3B 1956   6.354   5.312   6.394 -0.1398 -0.0528 -0.1363
  132POPC   C4B 1957   6.258   5.341   6.056 -0.1646 -0.0968  0.1753
  133POPC   NC3 1958   7.245   1.867   8.133 -0.1795  0.2110 -0.2755
  133POPC   PO4 1959   7.488   1.515   8.187 -0.0238  0.0679 -0.4097
  133POPC   GL1 1960   7.546   1.337   7.712  0.2020 -0.3182 -0.0406
  133POPC   GL2 1961   7.813   1.208   7.546 -0.0063  0.0056 -0.0192
  133POPC   C1A 1962   7.416   1.497   7.326  0.3061 -0.0648 -0.2325
  133POPC   D2A 1963   7.559   1.205   6.910  0.0114 -0.0527  0.1103
  133POPC   C3A 1964   7.624   1.337   6.466 -0.3221 -0.0825 -0.0305
  133POPC   C4A 1965   8.018   1.192   6.346  0.1369  0.0437 -0.2829
  133POPC   C1B 1966   7.988   0.996   7.188  0.2392 -0.0163  0.0363
  133POPC   C2B 1967   8.145   1.134   6.838 -0.1949  0.2100 -0.0939
  133POPC   C3B 1968   8.477   1.099   6.522  0.2617 -0.2829 -0.0949
  133POPC   C4B 1969   8.620   0.714   6.444  0.0105 -0.3442  0.3019
  134POPC   NC3 1970   8.404   9.178   7.854  0.1792 -0.0574 -0.0841
  134POPC   PO4 1971   8.593   8.893   8.257  0.0731  0.1355 -0.2877
  134POPC   GL1 1972   8.775   8.813   7.889 -0.2648  0.1915 -0.0201
  134POPC   GL2 1973   9.145   8.819   7.852 -0.0773  0.0635  0.0688
  134POPC   C1A 1974   8.800   8.664   7.466 -0.2686 -0.4603 -0.4508
  134POPC   D2A 1975   8.804   8.382   7.074  0.1702  0.2916 -0.0155
  134POPC   C3A 1976   8.628   7.932   7.061 -0.1179 -0.1596 -0.1325
  134POPC   C4A 1977   8.445   7.836   7.491 -0.3234  0.0736  0.0251
  134POPC   C1B 1978   9.266   8.792   7.441 -0.0914 -0.0968  0.0583
  134POPC   C2B 1979   9.622   8.588   7.178  0.0318 -0.0824 -0.0610
  134POPC   C3B 1980   9.618   8.347   6.690  0.1290  0.1222 -0.0073
  134POPC   C4B 1981   9.426   7.996   6.529  0.3507 -0.0147 -0.2295
  135POPC   NC3 1982   5.714   5.039   8.259  0.0253  0.1169 -0.2326
  135POPC   PO4 1983   5.438   4.757   8.304  0.0532  0.0937 -0.1130
  135POPC   GL1 1984   5.337   4.428   7.988 -0.2891  0.2227 -0.0881
  135POPC   GL2 1985   5.592   4.353   7.838 -0.0511  0.2928  0.1689
  135POPC   C1A 1986   4.956   4.448   7.697 -0.1516 -0.2308 -0.1679
  135POPC   D2A 1987   4.730   4.168   7.757 -0.2005  0.0209 -0.0803
  135POPC   C3A 1988   4.724   3.892   7.505  0.0618  0.3605  0.1947
  135POPC   C4A 1989   4.856   3.794   7.030  0.2554 -0.0701 -0.0165
  135POPC   C1B 1990   5.415   4.544   7.432  0.1503  0.0356 -0.0365
  135POPC   C2B 1991   5.355   4.297   7.060 -0.0266  0.2915  0.2393
  135POPC   C3B 1992   5.355   4.167   6.633 -0.2914  0.0207  0.1161
  135POPC   C4B 1993   5.343   4.295   6.251  0.0569  0.3871 -0.2705
  136POPC   NC3 1994   0.867   8.862   8.430  0.0093  0.2620 -0.1571
  136POPC   PO4 1995   0.598   9.078   8.514  0.0859 -0.3100 -0.3389
  136POPC   GL1 1996   0.868   9.287   8.181 -0.1799  0.0279 -0.3612
  136POPC   GL2 1997   0.838   9.582   8.000 -0.0165 -0.1352 -0.0291
  136POPC   C1A 1998   0.935   9.131   7.729  0.2691 -0.1231  0.1285
  136POPC   D2A 1999   0.644   9.036   7.382  0.1683 -0.0058  0.0144
  136POPC   C3A 2000   0.312   8.933   7.039 -0.2145  0.0577 -0.1278
  136POPC   C4A 2001  -0.114   8.892   6.765 -0.4598 -0.0636 -0.0018
  136POPC   C1B 2002   0.873   9.570   7.511 -0.1857 -0.0524 -0.0267
  136POPC   C2B 2003   1.085   9.435   7.219 -0.1040 -0.2125 -0.2266
  136POPC   C3B 2004   1.490   9.365   7.108  0.2315  0.2335 -0.0415
  136POPC   C4B 2005   1.808   9.634   6.973  0.0320  0.0656 -0.1272
  137POPC   NC3 2006   5.392   3.260   8.352 -0.1741  0.2676 -0.0888
  137POPC   PO4 2007   5.221   3.755   8.348 -0.1155  0.0797  0.0730
  137POPC   GL1 2008   5.364   3.883   8.005 -0.0132  0.1797 -0.1303
  137POPC   GL2 2009   5.241   3.918   7.750 -0.1836 -0.0810 -0.1195
  137POPC   C1A 2010   5.605   3.602   7.661  0.0165 -0.2103  0.1753
  137POPC   D2A 2011   5.669   3.482   7.252  0.0020 -0.0668  0.1074
  137POPC   C3A 2012   5.479   3.151   7.094  0.3513  0.2607  0.2144
  137POPC   C4A 2013   5.449   2.943   6.720 -0.1272 -0.0819 -0.1221
  137POPC   C1B 2014   5.282   3.850   7.432 -0.0879 -0.0627 -0.0877
  137POPC   C2B 2015   5.322   3.760   7.042 -0.0478 -0.1067 -0.0143
  137POPC   C3B 2016   5.551   3.512   6.696 -0.1036  0.1754 -0.0784
  137POPC   C4B 2017   6.053   3.490   6.487 -0.2959 -0.2374 -0.1780
  138POPC   NC3 2018   1.519   8.786   9.332 -0.0655  0.0444  0.0677
  138POPC   PO4 2019   1.630   8.486   8.896 -0.1407 -0.2761  0.3390
  138POPC   GL1 2020   1.607   8.280   8.443  0.1619  0.0489  0.2692
  138POPC   GL2 2021   1.405   8.132   8.211  0.0289 -0.2629  0.0179
  138POPC   C1A 2022   1.761   8.522   8.114  0.2035  0.5857  0.0164
  138POPC   D2A 2023   1.804   8.727   7.720  0.1579 -0.0066 -0.2230
  138POPC   C3A 2024   1.696   8.557   7.363  0.1438  0.1123  0.0547
  138POPC   C4A 2025   1.822   8.356   6.997  0.3168 -0.1017 -0.0163
  138POPC   C1B 2026   1.458   8.408   7.741  0.1103 -0.1486  0.0760
  138POPC   C2B 2027   1.211   8.440   7.307 -0.0219 -0.1918  0.0757
  138POPC   C3B 2028   1.329   8.449   6.923  0.0486  0.0532  0.0298
  138POPC   C4B 2029   1.304   8.258   6.518 -0.0168 -0.1186 -0.5210
  139POPC   NC3 2030   0.890   1.370   7.892  0.0579 -0.4403  0.0952
  139POPC   PO4 2031   0.454   1.428   7.909 -0.0123 -0.0697 -0.1865
  139POPC   GL1 2032   0.641   1.381   7.451  0.1572 -0.0943  0.2829
  139POPC   GL2 2033   1.025   1.173   7.404  0.0623 -0.2688 -0.0881
  139POPC   C1A 2034   0.474   1.146   7.061 -0.2710 -0.1338 -0.0411
  139POPC   D2A 2035   0.512   0.643   6.999  0.1715 -0.0502  0.1689
  139POPC   C3A 2036   0.820   0.596   6.712 -0.0834  0.0747 -0.2124
  139POPC   C4A 2037   1.039   0.448   6.398  0.0571 -0.0156 -0.1377
  139POPC   C1B 2038   1.356   0.926   7.151 -0.1159 -0.4034  0.1275
  139POPC   C2B 2039   1.280   0.568   6.904  0.0604  0.1817  0.1592
  139POPC   C3B 2040   1.513   0.373   6.588  0.2928 -0.1669  0.3212
  139POPC   C4B 2041   1.673  -0.104   6.515 -0.2174  0.0397 -0.1701
  140POPC   NC3 2042   5.897   8.938   8.209 -0.1917 -0.2351  0.0919
  140POPC   PO4 2043   5.878   9.439   8.239  0.0698  0.1209  0.1816
  140POPC   GL1 2044   5.913   9.193   7.753  0.2895 -0.1127  0.0194
  140POPC   GL2 2045   6.142   8.965   7.720  0.2131 -0.2263  0.0924
  140POPC   C1A 2046   5.708   9.020   7.351  0.1747 -0.0717 -0.2510
  140POPC   D2A 2047   5.386   8.976   7.076  0.2487 -0.2308 -0.2406
  140POPC   C3A 2048   5.451   9.036   6.556  0.3811  0.1940 -0.1951
  140POPC   C4A 2049   5.477   9.000   6.095  0.0537 -0.1244  0.4906
  140POPC   C1B 2050   6.179   8.733   7.325 -0.1086 -0.1831 -0.3126
  140POPC   C2B 2051   6.212   8.511   6.900 -0.0617  0.1898  0.1080
  140POPC   C3B 2052   6.187   8.287   6.539 -0.0151 -0.1071  0.0564
  140POPC   C4B 2053   5.947   8.199   6.342  0.0854  0.1449 -0.0839
  141POPC   NC3 2054   0.102   9.027   8.654  0.1764  0.1021  0.4583
  141POPC   PO4 2055  -0.192   9.220   8.402 -0.0385 -0.0174 -0.0558
  141POPC   GL1 2056   0.216   9.001   8.167  0.2903 -0.0789 -0.0914
  141POPC   GL2 2057   0.363   9.331   8.132 -0.1992 -0.0280  0.1106
  141POPC   C1A 2058   0.543   8.845   7.945 -0.1613 -0.1697 -0.2967
  141POPC   D2A 2059   0.857   8.578   7.695  0.1503  0.2511  0.2989
  141POPC   C3A 2060   1.262   8.825   7.891 -0.3288  0.1219 -0.0070
  141POPC   C4A 2061   1.571   8.965   8.123  0.0422 -0.0748 -0.0821
  141POPC   C1B 2062   0.456   9.327   7.684  0.0187 -0.1470  0.1802
  141POPC   C2B 2063   0.458   9.454   7.271  0.1513  0.1455 -0.2430
  141POPC   C3B 2064   0.387   9.585   6.742  0.2338 -0.0845  0.0878
  141POPC   C4B 2065   0.285  10.104   6.651  0.1024  0.0803 -0.0788
  142POPC   NC3 2066   5.326   5.829   8.320 -0.0090 -0.1511  0.0134
  142POPC   PO4 2067   5.384   5.391   8.124 -0.3021 -0.0263 -0.1110
  142POPC   GL1 2068   5.445   5.318   7.712  0.1782  0.2237  0.0505
  142POPC   GL2 2069   5.657   5.513   7.486  0.3197  0.2522 -0.0365
  142POPC   C1A 2070   5.651   5.016   7.335  0.3788  0.2582 -0.4083
  142POPC   D2A 2071   5.490   4.834   6.955 -0.0608 -0.1906  0.0043
  142POPC   C3A 2072   5.751   4.522   6.741  0.1295 -0.3091  0.0784
  142POPC   C4A 2073   6.068   4.386   6.900 -0.2294 -0.0983 -0.0817
  142POPC   C1B 2074   5.302   5.367   7.265  0.2856  0.0559  0.1351
  142POPC   C2B 2075   5.196   5.220   6.800 -0.0207  0.1770 -0.1599
  142POPC   C3B 2076   5.084   5.159   6.402 -0.0612 -0.1335 -0.1294
  142POPC   C4B 2077   5.292   5.373   6.073 -0.0932 -0.0025 -0.2457
  143POPC   NC3 2078   2.437   4.192   7.839  0.1535  0.1330  0.1218
  143POPC   PO4 2079   2.007   4.147   7.947  0.1822 -0.0085  0.3020
  143POPC   GL1 2080   1.985   4.379   7.591  0.1654 -0.2915 -0.2544
  143POPC   GL2 2081   2.059   4.156   7.419  0.0521  0.2991  0.0124
  143POPC   C1A 2082   1.679   4.788   7.582 -0.2644  0.0267  0.1183
  143POPC   D2A 2083   1.276   5.061   7.552 -0.0590  0.1460  0.0465
  143POPC   C3A 2084   0.992   5.078   7.164 -0.0366  0.0500  0.0398
  143POPC   C4A 2085   0.837   4.858   6.813  0.0825 -0.2197  0.0773
  143POPC   C1B 2086   2.341   4.338   7.159 -0.0144 -0.3445  0.0124
  143POPC   C2B 2087   2.632   4.608   7.223  0.0764  0.1119 -0.1332
  143POPC   C3B 2088   2.921   4.903   7.247  0.0546  0.1848  0.0837
  143POPC   C4B 2089   3.179   5.233   7.484  0.3327  0.0477 -0.0901
  144POPC   NC3 2090   3.497   5.475   4.223  0.0142  0.1720 -0.2022
  144POPC   PO4 2091   3.349   5.047   4.267 -0.0286  0.0626  0.0651
  144POPC   GL1 2092   3.121   5.289   4.634 -0.2370 -0.2402  0.0173
  144POPC   GL2 2093   3.425   5.286   4.829 -0.0170  0.0347 -0.0189
  144POPC   C1A 2094   3.030   5.711   4.725 -0.3119 -0.1777 -0.0110
  144POPC   D2A 2095   3.052   6.180   4.774 -0.3882 -0.0816 -0.1312
  144POPC   C3A 2096   2.731   6.239   5.021 -0.0076  0.0800  0.3146
  144POPC   C4A 2097   2.403   6.261   4.883 -0.0367 -0.0261 -0.2935
  144POPC   C1B 2098   3.226   5.452   5.179  0.1839  0.0422  0.1452
  144POPC   C2B 2099   3.335   5.552   5.652  0.1894  0.0026 -0.3220
  144POPC   C3B 2100   3.357   5.314   6.018 -0.2076 -0.0133  0.1281
  144POPC   C4B 2101   3.546   4.992   6.202 -0.2319  0.1371 -0.3420
  145POPC   NC3 2102   2.938   3.828   4.611 -0.1912  0.1676  0.0514
  145POPC   PO4 2103   3.281   3.675   4.694 -0.0145  0.3641  0.1026
  145POPC   GL1 2104   3.248   3.826   5.059 -0.0645 -0.1896  0.3484
  145POPC   GL2 2105   2.945   3.903   5.100 -0.2682 -0.0804 -0.0778
  145POPC   C1A 2106   3.254   4.108   5.457  0.1114  0.2036 -0.0522
  145POPC   D2A 2107   3.206   4.473   5.727  0.1170  0.1253 -0.0009
  145POPC   C3A 2108   3.581   4.701   5.818  0.0596 -0.5435 -0.0388
  145POPC   C4A 2109   4.050   4.705   5.869 -0.1719 -0.1552  0.1863
  145POPC   C1B 2110   2.808   3.831   5.519  0.2328 -0.0793  0.3278
  145POPC   C2B 2111   2.551   3.521   5.804 -0.0420 -0.0393  0.0154
  145POPC   C3B 2112   2.152   3.497   6.139 -0.0731  0.1157  0.0197
  145POPC   C4B 2113   2.049   3.679   6.567 -0.0310  0.1788 -0.1033
  146POPC   NC3 2114   2.113   2.253   4.473 -0.1776  0.2090 -0.0383
  146POPC   PO4 2115   2.440   2.478   4.433  0.1325 -0.0981  0.1693
  146POPC   GL1 2116   2.403   2.651   4.792  0.0598 -0.1546  0.1055
  146POPC   GL2 2117   2.623   2.546   5.076  0.5280  0.1783 -0.2051
  146POPC   C1A 2118   2.132   2.853   5.149 -0.0170 -0.1801 -0.0431
  146POPC   D2A 2119   1.890   2.741   5.353 -0.1405 -0.1263 -0.4352
  146POPC   C3A 2120   1.999   2.799   5.830 -0.1531  0.0919 -0.0800
  146POPC   C4A 2121   1.977   2.484   6.113 -0.0133 -0.0733 -0.1276
  146POPC   C1B 2122   2.919   2.393   5.411 -0.1659 -0.1075 -0.0015
  146POPC   C2B 2123   2.991   2.053   5.622 -0.2368 -0.5174 -0.1642
  146POPC   C3B 2124   2.649   1.766   5.724  0.0462 -0.0123  0.0057
  146POPC   C4B 2125   2.247   1.578   5.815 -0.1346  0.1503  0.2464
  147POPC   NC3 2126   6.582   6.457   3.988  0.3195 -0.2854  0.0967
  147POPC   PO4 2127   6.189   6.684   3.912  0.0189  0.0288  0.1264
  147POPC   GL1 2128   6.325   6.695   4.400 -0.0478 -0.1702 -0.0997
  147POPC   GL2 2129   5.980   6.638   4.571  0.0026  0.6661  0.0032
  147POPC   C1A 2130   6.605   6.635   4.813  0.0624  0.0562  0.0396
  147POPC   D2A 2131   6.859   6.504   5.245 -0.2487 -0.3875 -0.2465
  147POPC   C3A 2132   7.034   6.550   5.603  0.0667 -0.0077  0.1310
  147POPC   C4A 2133   7.116   6.047   5.792  0.0660 -0.0374  0.1349
  147POPC   C1B 2134   6.105   6.971   4.879  0.0339  0.1289  0.2440
  147POPC   C2B 2135   6.001   7.205   5.270 -0.1030  0.0396  0.0163
  147POPC   C3B 2136   5.648   7.317   5.542 -0.0077  0.1000 -0.1584
  147POPC   C4B 2137   5.425   7.415   5.847 -0.3626 -0.3240 -0.1153
  148POPC   NC3 2138   0.414   8.113   3.788 -0.0339 -0.0460 -0.1958
  148POPC   PO4 2139   0.311   7.751   3.784  0.0831  0.1180 -0.0402
  148POPC   GL1 2140   0.454   7.805   4.209  0.1861  0.0314  0.0139
  148POPC   GL2 2141   0.137   7.869   4.429  0.0436 -0.1632  0.1402
  148POPC   C1A 2142   0.729   8.153   4.355  0.1235  0.0116 -0.0208
  148POPC   D2A 2143   1.130   8.157   4.486 -0.0474 -0.0507 -0.1234
  148POPC   C3A 2144   1.417   7.893   4.569  0.0652 -0.0384 -0.2820
  148POPC   C4A 2145   1.724   7.801   4.228 -0.2811  0.1482 -0.4207
  148POPC   C1B 2146   0.401   8.040   4.726  0.2449  0.2133 -0.0682
  148POPC   C2B 2147   0.688   7.918   5.061 -0.0046  0.0074 -0.0924
  148POPC   C3B 2148   0.902   7.788   5.491 -0.1187 -0.3486  0.0760
  148POPC   C4B 2149   0.724   7.779   6.003  0.1212 -0.5164  0.0765
  149POPC   NC3 2150   6.285   8.966   4.080  0.3156 -0.1353  0.2286
  149POPC   PO4 2151   6.495   9.218   4.185 -0.1035  0.3133  0.1597
  149POPC   GL1 2152   6.580   8.873   4.489 -0.1622  0.0162 -0.2276
  149POPC   GL2 2153   6.515   9.022   4.692 -0.3007  0.2108  0.3480
  149POPC   C1A 2154   6.306   8.533   4.868 -0.2749  0.0639  0.0693
  149POPC   D2A 2155   6.126   8.580   5.265 -0.3188 -0.2541 -0.0818
  149POPC   C3A 2156   6.282   8.649   5.652  0.0139  0.0079  0.0291
  149POPC   C4A 2157   6.286   8.588   6.106  0.0652  0.1392 -0.1785
  149POPC   C1B 2158   6.375   8.977   5.170 -0.1501 -0.1249 -0.0175
  149POPC   C2B 2159   5.919   9.037   5.474 -0.0419  0.1289  0.0359
  149POPC   C3B 2160   5.468   8.996   5.555  0.2944 -0.1333 -0.0129
  149POPC   C4B 2161   5.203   8.899   5.482  0.1458  0.1691  0.3846
  150POPC   NC3 2162   3.328   8.175   3.132  0.2934 -0.0202 -0.0014
  150POPC   PO4 2163   2.995   8.401   3.033  0.0822  0.0871 -0.0376
  150POPC   GL1 2164   2.994   8.470   3.422  0.0778  0.3523  0.1479
  150POPC   GL2 2165   2.924   8.805   3.606  0.1421  0.1176 -0.1564
  150POPC   C1A 2166   3.383   8.387   3.740 -0.0737 -0.0193  0.0811
  150POPC   D2A 2167   3.493   8.160   4.072  0.0690 -0.1840  0.2522
  150POPC   C3A 2168   3.694   7.932   4.163 -0.1191  0.4436  0.0301
  150POPC   C4A 2169   4.057   8.232   4.293  0.0977  0.1336  0.1971
  150POPC   C1B 2170   2.894   8.529   3.965 -0.3758  0.2524 -0.3290
  150POPC   C2B 2171   2.676   8.579   4.307  0.0540  0.1255 -0.0017
  150POPC   C3B 2172   2.404   8.371   4.589 -0.1120  0.0587 -0.2252
  150POPC   C4B 2173   2.116   8.441   4.999 -0.1049 -0.0316 -0.0132
  151POPC   NC3 2174   1.226   2.955   4.518 -0.0531 -0.3126  0.0206
  151POPC   PO4 2175   0.764   2.919   4.705  0.2836 -0.3024 -0.0519
  151POPC   GL1 2176   1.004   2.585   4.735  0.3163  0.4155  0.0521
  151POPC   GL2 2177   0.708   2.317   4.863 -0.0762  0.2731 -0.0079
  151POPC   C1A 2178   1.340   2.426   5.168 -0.0029 -0.2065  0.4815
  151POPC   D2A 2179   1.462   2.546   5.589 -0.3349  0.0472  0.3170
  151POPC   C3A 2180   1.835   2.313   5.650 -0.0917  0.1676 -0.0067
  151POPC   C4A 2181   1.774   1.852   5.911 -0.2270 -0.0505 -0.2653
  151POPC   C1B 2182   0.807   2.192   5.279  0.1112  0.1918  0.0557
  151POPC   C2B 2183   0.684   2.025   5.744  0.2029 -0.0841 -0.0369
  151POPC   C3B 2184   0.394   2.161   6.044 -0.1274 -0.0158 -0.3839
  151POPC   C4B 2185   0.245   2.360   6.345  0.1460 -0.1748  0.0088
  152POPC   NC3 2186   2.695   6.239   3.591 -0.3051  0.0327  0.1513
  152POPC   PO4 2187   2.916   6.050   3.715 -0.2038 -0.0156  0.1950
  152POPC   GL1 2188   2.618   6.122   4.082  0.2016 -0.0312 -0.1046
  152POPC   GL2 2189   2.350   6.323   4.009 -0.0197  0.1340  0.0725
  152POPC   C1A 2190   2.620   6.445   4.381 -0.2483 -0.1564 -0.0391
  152POPC   D2A 2191   2.860   6.601   4.672 -0.0753  0.1752  0.2063
  152POPC   C3A 2192   2.538   6.762   5.026  0.1054  0.0245  0.1589
  152POPC   C4A 2193   2.413   6.527   5.360 -0.2127  0.0957  0.0546
  152POPC   C1B 2194   2.088   6.509   4.351 -0.0661 -0.0384 -0.2064
  152POPC   C2B 2195   2.124   6.669   4.764  0.0839 -0.0439 -0.1613
  152POPC   C3B 2196   1.892   6.518   5.176  0.1055  0.3644  0.1781
  152POPC   C4B 2197   1.638   6.829   5.476  0.2975  0.3660 -0.0915
  153POPC   NC3 2198   2.497   3.711   4.241  0.0664 -0.0182  0.2112
  153POPC   PO4 2199   2.495   3.637   4.682 -0.0313 -0.4209  0.2735
  153POPC   GL1 2200   2.500   3.875   5.002  0.3084 -0.0849  0.0868
  153POPC   GL2 2201   2.404   3.630   5.284 -0.4031 -0.1098  0.0539
  153POPC   C1A 2202   2.399   4.129   5.377 -0.3543 -0.0985  0.1909
  153POPC   D2A 2203   2.674   4.256   5.669 -0.1698  0.0531 -0.0752
  153POPC   C3A 2204   2.716   4.586   5.497  0.2465  0.1633 -0.2619
  153POPC   C4A 2205   2.643   4.979   5.364 -0.0975 -0.1616 -0.0386
  153POPC   C1B 2206   2.026   3.399   5.579 -0.0155  0.1564 -0.4410
  153POPC   C2B 2207   1.758   3.560   5.883  0.1789  0.2546  0.2522
  153POPC   C3B 2208   1.637   3.349   6.190 -0.0035 -0.5551 -0.0528
  153POPC   C4B 2209   1.524   3.039   6.485 -0.2530 -0.0955 -0.0337
  154POPC   NC3 2210   0.968   2.197   4.464  0.0700 -0.2004 -0.0256
  154POPC   PO4 2211   1.449   2.363   4.458 -0.3406  0.2894 -0.0843
  154POPC   GL1 2212   1.572   2.195   4.838  0.2740 -0.1587  0.1593
  154POPC   GL2 2213   1.953   2.396   4.912  0.0991 -0.0277 -0.0721
  154POPC   C1A 2214   1.551   2.041   5.334 -0.1968 -0.1866  0.2020
  154POPC   D2A 2215   1.271   2.056   5.735  0.0331  0.2673  0.1498
  154POPC   C3A 2216   1.059   2.388   5.802  0.1410  0.3467 -0.1429
  154POPC   C4A 2217   0.660   2.531   5.726  0.0204 -0.0120 -0.0055
  154POPC   C1B 2218   1.603   2.758   4.941 -0.2507 -0.1285 -0.0971
  154POPC   C2B 2219   1.459   2.950   5.279  0.1966  0.2270  0.0807
  154POPC   C3B 2220   1.064   2.844   5.419 -0.0276  0.0364  0.2866
  154POPC   C4B 2221   0.580   2.831   5.371 -0.2176 -0.2288  0.1026
  155POPC   NC3 2222   2.011   1.298   4.033 -0.1368  0.0276 -0.2237
  155POPC   PO4 2223   2.357   1.567   4.080  0.0612  0.0516 -0.1013
  155POPC   GL1 2224   2.250   1.352   4.463 -0.1013  0.3791  0.1218
  155POPC   GL2 2225   2.429   1.080   4.413  0.1293 -0.1309  0.2035
  155POPC   C1A 2226   2.019   1.077   4.738  0.0830 -0.2042  0.1345
  155POPC   D2A 2227   1.988   0.969   5.169  0.0457  0.0681 -0.0644
  155POPC   C3A 2228   1.641   1.026   5.465  0.1272 -0.2840  0.1448
  155POPC   C4A 2229   1.255   1.065   5.594  0.0921  0.3482 -0.0488
  155POPC   C1B 2230   2.589   0.976   4.780  0.1620 -0.1543 -0.1977
  155POPC   C2B 2231   2.700   0.999   5.298  0.0231 -0.1798 -0.1300
  155POPC   C3B 2232   2.985   0.912   5.710 -0.0681 -0.2514  0.4044
  155POPC   C4B 2233   2.770   0.761   6.011 -0.1898 -0.1652 -0.1836
  156POPC   NC3 2234   3.266   2.878   4.613 -0.0523 -0.1304 -0.0851
  156POPC   PO4 2235   3.292   3.148   4.929  0.2576  0.0248  0.1010
  156POPC   GL1 2236   3.076   2.917   5.164  0.3408  0.0552 -0.1587
  156POPC   GL2 2237   3.088   2.718   5.058  0.5663  0.1833 -0.1723
  156POPC   C1A 2238   2.827   2.876   5.471  0.0190  0.0477  0.0177
  156POPC   D2A 2239   2.446   2.960   5.622 -0.1175  0.3710  0.1700
  156POPC   C3A 2240   2.541   3.069   5.996  0.0411 -0.0867  0.0237
  156POPC   C4A 2241   2.864   3.273   6.225  0.0863  0.0744  0.0624
  156POPC   C1B 2242   3.305   2.827   5.587 -0.1378  0.2712 -0.1668
  156POPC   C2B 2243   2.948   2.705   5.945 -0.4707 -0.2175 -0.3126
  156POPC   C3B 2244   2.522   2.556   5.871 -0.2112  0.1103 -0.1657
  156POPC   C4B 2245   2.349   2.478   5.488  0.0071  0.0531 -0.0324
  157POPC   NC3 2246   2.402   1.211   3.717  0.3590 -0.1348 -0.0578
  157POPC   PO4 2247   1.986   0.873   3.658  0.3024  0.1149 -0.0243
  157POPC   GL1 2248   2.268   0.764   4.024 -0.1729  0.0162 -0.1037
  157POPC   GL2 2249   2.492   0.452   3.950  0.0093 -0.0390 -0.0281
  157POPC   C1A 2250   2.223   0.581   4.458 -0.1839 -0.0966 -0.0095
  157POPC   D2A 2251   2.297   0.306   4.715  0.0230 -0.0608  0.0421
  157POPC   C3A 2252   2.295   0.522   5.118 -0.3633  0.0175  0.2823
  157POPC   C4A 2253   2.343   0.113   5.378 -0.1989 -0.0724  0.0621
  157POPC   C1B 2254   2.693   0.272   4.380 -0.1015  0.1920  0.0686
  157POPC   C2B 2255   2.759   0.444   4.795 -0.0181 -0.4372  0.2099
  157POPC   C3B 2256   2.803   0.337   5.159  0.0257  0.1241  0.1824
  157POPC   C4B 2257   2.967   0.264   5.470 -0.2098  0.2345 -0.1154
  158POPC   NC3 2258   1.588   2.143   4.054 -0.3052 -0.4861  0.3109
  158POPC   PO4 2259   1.315   1.884   4.329  0.0001  0.2943 -0.0232
  158POPC   GL1 2260   1.426   1.709   4.685  0.1810  0.1822 -0.0250
  158POPC   GL2 2261   1.094   1.943   4.897 -0.1873 -0.1121  0.2382
  158POPC   C1A 2262   1.706   1.391   4.964  0.0561 -0.2072  0.2993
  158POPC   D2A 2263   1.902   1.547   5.373 -0.0446 -0.1632  0.0134
  158POPC   C3A 2264   2.328   1.719   5.356 -0.0385  0.2663 -0.0459
  158POPC   C4A 2265   2.628   2.004   5.308 -0.2115 -0.0676 -0.1099
  158POPC   C1B 2266   1.326   1.593   5.185 -0.0621  0.5826 -0.0698
  158POPC   C2B 2267   1.487   1.505   5.634  0.1739  0.2451  0.1131
  158POPC   C3B 2268   1.657   1.341   5.950  0.0126 -0.0025  0.0510
  158POPC   C4B 2269   1.681   0.937   6.067 -0.0738 -0.0429 -0.0498
  159POPC   NC3 2270   3.248   6.788   2.885  0.1144  0.0586 -0.1685
  159POPC   PO4 2271   2.807   7.017   2.887  0.2915 -0.0491  0.1905
  159POPC   GL1 2272   2.739   7.047   3.252 -0.3757  0.2360 -0.2214
  159POPC   GL2 2273   2.924   6.656   3.290  0.1138 -0.2338  0.1530
  159POPC   C1A 2274   2.511   6.909   3.587 -0.1910 -0.0432 -0.1783
  159POPC   D2A 2275   2.721   6.695   3.959 -0.3302 -0.0765  0.1946
  159POPC   C3A 2276   3.107   6.606   4.146 -0.0626  0.0120 -0.0008
  159POPC   C4A 2277   3.559   6.612   3.967  0.1098 -0.0732  0.0031
  159POPC   C1B 2278   3.057   6.877   3.618 -0.4194  0.2533 -0.0246
  159POPC   C2B 2279   3.367   7.084   4.007  0.1335 -0.2451 -0.1787
  159POPC   C3B 2280   3.468   7.293   4.292 -0.0811 -0.0336  0.3154
  159POPC   C4B 2281   3.411   7.613   4.530  0.0938 -0.1449 -0.0660
  160POPC   NC3 2282   1.887   0.276   3.653  0.1664 -0.1389 -0.2541
  160POPC   PO4 2283   1.407   0.096   3.741 -0.0736 -0.1392  0.1309
  160POPC   GL1 2284   1.478  -0.170   4.165 -0.0228  0.0371  0.0402
  160POPC   GL2 2285   1.199  -0.235   4.399  0.2871  0.2473 -0.0576
  160POPC   C1A 2286   1.768  -0.131   4.567  0.2821 -0.4054  0.0077
  160POPC   D2A 2287   1.898  -0.024   4.891 -0.1553  0.1863  0.2296
  160POPC   C3A 2288   2.133  -0.326   5.184 -0.0447 -0.0964  0.3466
  160POPC   C4A 2289   2.471  -0.541   5.055 -0.0357 -0.0915 -0.1450
  160POPC   C1B 2290   1.296  -0.176   4.815 -0.3748  0.2976 -0.2705
  160POPC   C2B 2291   1.602  -0.421   5.058 -0.0899  0.1866 -0.1786
  160POPC   C3B 2292   1.777  -0.428   5.515 -0.1273 -0.2213  0.0509
  160POPC   C4B 2293   1.839  -0.680   5.835 -0.0688  0.2841 -0.3101
  161POPC   NC3 2294   3.045   4.656   4.248 -0.1899 -0.0067 -0.0519
  161POPC   PO4 2295   2.789   4.508   4.623  0.1981  0.1888 -0.1548
  161POPC   GL1 2296   2.777   4.685   4.977  0.2833  0.1272  0.1151
  161POPC   GL2 2297   2.913   4.369   5.104  0.0937  0.2362  0.2369
  161POPC   C1A 2298   3.138   4.834   5.290 -0.0973  0.1569  0.1617
  161POPC   D2A 2299   3.146   4.944   5.662 -0.1866  0.0400 -0.1820
  161POPC   C3A 2300   2.918   5.019   5.921 -0.0759  0.1316  0.1881
  161POPC   C4A 2301   3.059   4.701   6.275 -0.0220 -0.1430 -0.0550
  161POPC   C1B 2302   3.317   4.359   5.044 -0.3472  0.0123  0.2049
  161POPC   C2B 2303   3.592   4.471   5.349  0.3505 -0.0557 -0.2001
  161POPC   C3B 2304   3.877   4.288   5.709  0.3214  0.1737 -0.1401
  161POPC   C4B 2305   4.232   4.146   5.869 -0.0069 -0.0498 -0.0564
  162POPC   NC3 2306   9.082   4.022   4.552 -0.2886 -0.1982  0.2212
  162POPC   PO4 2307   8.667   3.778   4.359 -0.0726 -0.0346 -0.3097
  162POPC   GL1 2308   8.412   3.879   4.832  0.0016  0.0672 -0.1076
  162POPC   GL2 2309   8.043   3.911   4.833  0.3333 -0.1566  0.2352
  162POPC   C1A 2310   8.298   3.532   5.100  0.1279 -0.0918 -0.0091
  162POPC   D2A 2311   8.049   3.157   5.304  0.0240 -0.2420 -0.0866
  162POPC   C3A 2312   8.096   3.069   5.713  0.0542 -0.0776 -0.3421
  162POPC   C4A 2313   8.129   2.805   5.986  0.0863  0.0943 -0.3893
  162POPC   C1B 2314   8.211   4.037   5.254  0.1044  0.2043 -0.1379
  162POPC   C2B 2315   8.033   4.075   5.663 -0.1449  0.3174  0.2060
  162POPC   C3B 2316   8.065   3.788   6.026 -0.2488  0.0111 -0.0809
  162POPC   C4B 2317   7.909   3.849   6.448 -0.2499 -0.1081  0.0217
  163POPC   NC3 2318   6.710   8.578   4.136 -0.0746  0.2015 -0.1545
  163POPC   PO4 2319   6.398   8.562   3.892 -0.1731  0.1492 -0.1008
  163POPC   GL1 2320   6.229   8.453   4.388  0.1677  0.4665  0.2482
  163POPC   GL2 2321   6.079   8.728   4.498  0.0355 -0.1012 -0.2882
  163POPC   C1A 2322   5.950   8.255   4.734 -0.0598 -0.3600 -0.1973
  163POPC   D2A 2323   5.899   8.200   5.172 -0.2948  0.3188  0.0210
  163POPC   C3A 2324   5.757   8.084   5.533 -0.1027  0.3300  0.1887
  163POPC   C4A 2325   5.450   7.807   5.595 -0.0682 -0.1095 -0.2564
  163POPC   C1B 2326   5.982   8.920   4.867 -0.2368 -0.1514 -0.0232
  163POPC   C2B 2327   5.717   9.250   5.075 -0.1550 -0.0319  0.0466
  163POPC   C3B 2328   5.620   9.505   5.424 -0.2115 -0.0107 -0.2369
  163POPC   C4B 2329   5.500   9.455   5.810 -0.2138 -0.2326  0.2936
  164POPC   NC3 2330   1.056   9.342   3.113 -0.0948  0.1437  0.2303
  164POPC   PO4 2331   0.884   9.092   3.448  0.0597  0.0102  0.2987
  164POPC   GL1 2332   1.025   8.896   3.756  0.0802  0.1164 -0.2084
  164POPC   GL2 2333   1.440   8.885   3.812 -0.2779 -0.0659  0.1949
  164POPC   C1A 2334   1.080   8.516   4.001 -0.0453  0.2081 -0.0379
  164POPC   D2A 2335   0.954   8.113   3.896  0.1944  0.1254  0.1613
  164POPC   C3A 2336   1.190   7.842   3.687 -0.3822 -0.1091  0.2195
  164POPC   C4A 2337   1.596   7.636   3.689  0.0345 -0.0028 -0.0278
  164POPC   C1B 2338   1.549   8.769   4.147  0.2667  0.0610  0.0635
  164POPC   C2B 2339   1.409   8.566   4.552  0.0230  0.0242 -0.2335
  164POPC   C3B 2340   1.513   8.282   4.905  0.0118  0.1260 -0.0835
  164POPC   C4B 2341   1.507   8.347   5.382 -0.2744 -0.1243 -0.0216
  165POPC   NC3 2342   2.308   4.556   3.852  0.1827  0.0072  0.0765
  165POPC   PO4 2343   2.440   4.640   4.243 -0.2860  0.1510 -0.1571
  165POPC   GL1 2344   2.311   4.676   4.627 -0.0474 -0.4011  0.0222
  165POPC   GL2 2345   2.066   4.807   4.618 -0.0960  0.1868 -0.1740
  165POPC   C1A 2346   2.300   4.597   5.118 -0.1262  0.2796  0.0075
  165POPC   D2A 2347   2.213   4.820   5.652 -0.1881 -0.0430 -0.1277
  165POPC   C3A 2348   1.793   4.938   5.771  0.2723  0.0002  0.1128
  165POPC   C4A 2349   1.497   4.918   6.049 -0.2266 -0.0973 -0.2977
  165POPC   C1B 2350   1.860   4.678   5.029 -0.1989 -0.0471 -0.2357
  165POPC   C2B 2351   1.570   4.774   5.304 -0.1171 -0.1191  0.2696
  165POPC   C3B 2352   1.351   5.098   5.534 -0.2205 -0.1938 -0.0573
  165POPC   C4B 2353   1.258   5.404   5.897  0.1708  0.3247 -0.0399
  166POPC   NC3 2354   7.603   5.813   4.333  0.0339 -0.0822  0.3660
  166POPC   PO4 2355   7.814   5.412   4.264  0.1790  0.0908  0.0330
  166POPC   GL1 2356   7.535   5.428   4.634 -0.0836  0.0824  0.2407
  166POPC   GL2 2357   7.478   5.032   4.694  0.1991 -0.2431  0.1230
  166POPC   C1A 2358   7.529   5.541   5.100  0.1180  0.2810  0.1504
  166POPC   D2A 2359   7.409   5.941   5.266 -0.0563 -0.1995 -0.0955
  166POPC   C3A 2360   6.995   6.052   5.275  0.2107  0.0465 -0.0868
  166POPC   C4A 2361   6.547   6.068   5.113  0.2232 -0.0364 -0.1129
  166POPC   C1B 2362   7.321   5.013   5.085 -0.3060  0.0533  0.1974
  166POPC   C2B 2363   7.311   4.984   5.517 -0.1830  0.1556 -0.0605
  166POPC   C3B 2364   7.430   4.766   5.786 -0.1081 -0.0525 -0.0263
  166POPC   C4B 2365   7.731   4.528   5.736 -0.1795 -0.1034 -0.1249
  167POPC   NC3 2366   7.000   2.497   3.694 -0.0612 -0.0743 -0.4711
  167POPC   PO4 2367   6.737   2.458   4.137 -0.3406 -0.1989 -0.0017
  167POPC   GL1 2368   6.802   2.105   4.392 -0.1353 -0.2112 -0.1132
  167POPC   GL2 2369   6.595   2.135   4.511 -0.0716  0.2583  0.2682
  167POPC   C1A 2370   7.190   2.044   4.612 -0.0347  0.1922  0.1162
  167POPC   D2A 2371   7.568   1.968   4.543 -0.4401  0.0994 -0.1692
  167POPC   C3A 2372   7.788   1.557   4.736  0.0824  0.1313 -0.0217
  167POPC   C4A 2373   7.943   1.525   5.040 -0.1664  0.2096 -0.2143
  167POPC   C1B 2374   6.648   2.197   4.997  0.2407 -0.1185 -0.0537
  167POPC   C2B 2375   6.394   2.387   5.222 -0.2110  0.0763 -0.0927
  167POPC   C3B 2376   6.253   2.390   5.592 -0.1751  0.1979  0.0013
  167POPC   C4B 2377   5.874   2.438   5.766  0.2046 -0.0359 -0.0436
  168POPC   NC3 2378   9.564   4.916   4.401  0.0066 -0.2068 -0.2500
  168POPC   PO4 2379   9.179   5.084   4.375 -0.2373 -0.1702 -0.1350
  168POPC   GL1 2380   9.162   5.021   4.764  0.1928  0.0645 -0.0352
  168POPC   GL2 2381   9.471   5.147   4.855 -0.2668  0.3576 -0.0565
  168POPC   C1A 2382   9.103   5.144   5.312 -0.0303  0.0732 -0.2740
  168POPC   D2A 2383   9.425   5.053   5.684  0.0428  0.1171  0.2559
  168POPC   C3A 2384   9.139   4.790   5.960 -0.1310 -0.0235  0.3254
  168POPC   C4A 2385   8.900   4.564   6.242 -0.5642  0.3561 -0.0426
  168POPC   C1B 2386   9.353   4.717   5.069 -0.0133  0.2052 -0.3313
  168POPC   C2B 2387   9.094   4.635   5.522  0.0750 -0.0072 -0.0033
  168POPC   C3B 2388   8.908   4.265   5.843  0.0904 -0.0024 -0.2124
  168POPC   C4B 2389   9.048   4.120   6.257 -0.3145  0.1042 -0.0446
  169POPC   NC3 2390   7.971   2.738   4.024  0.1441 -0.0103 -0.2032
  169POPC   PO4 2391   7.523   2.633   4.337 -0.5499  0.0280 -0.2392
  169POPC   GL1 2392   7.305   2.634   4.623  0.0410 -0.4864 -0.1153
  169POPC   GL2 2393   7.008   2.509   4.610  0.1182  0.0243 -0.0253
  169POPC   C1A 2394   7.516   2.495   4.980 -0.0654  0.4561 -0.0533
  169POPC   D2A 2395   7.883   2.647   5.256  0.0897  0.2295  0.2796
  169POPC   C3A 2396   7.736   2.744   5.640  0.1459  0.2937 -0.1315
  169POPC   C4A 2397   7.558   2.496   5.938 -0.1191 -0.1099  0.0783
  169POPC   C1B 2398   7.002   2.631   5.112 -0.0848 -0.1397 -0.2409
  169POPC   C2B 2399   7.157   2.679   5.545 -0.2512  0.3017  0.1555
  169POPC   C3B 2400   7.141   2.728   6.013  0.1779  0.2092 -0.0599
  169POPC   C4B 2401   7.282   2.856   6.469 -0.1380  0.1056 -0.0601
  170POPC   NC3 2402   5.373   5.968   3.952 -0.0683  0.1708 -0.0208
  170POPC   PO4 2403   5.762   5.873   4.203 -0.0231 -0.1752  0.1780
  170POPC   GL1 2404   5.599   6.127   4.566  0.0227  0.1819  0.0238
  170POPC   GL2 2405   5.294   6.080   4.501  0.1931 -0.1799 -0.0203
  170POPC   C1A 2406   5.673   6.308   4.930 -0.0161  0.0610 -0.0494
  170POPC   D2A 2407   5.721   6.290   5.300  0.2034 -0.0219  0.0414
  170POPC   C3A 2408   5.384   6.402   5.606  0.0148 -0.0303 -0.0238
  170POPC   C4A 2409   4.988   6.277   5.801  0.0675 -0.0449 -0.1738
  170POPC   C1B 2410   5.145   6.218   4.969 -0.1131  0.1964  0.1175
  170POPC   C2B 2411   4.884   6.281   5.254 -0.3973  0.0900  0.1637
  170POPC   C3B 2412   4.791   6.665   5.398  0.0086 -0.1515 -0.1323
  170POPC   C4B 2413   4.921   6.956   5.135  0.2059 -0.0187 -0.1186
  171POPC   NC3 2414   7.113   8.172   4.078 -0.0806  0.1324 -0.0664
  171POPC   PO4 2415   7.442   8.392   4.283 -0.1659  0.2440 -0.1011
  171POPC   GL1 2416   7.180   8.216   4.615 -0.0241  0.1605  0.0317
  171POPC   GL2 2417   7.448   8.202   4.822 -0.3202 -0.0418 -0.0074
  171POPC   C1A 2418   6.980   8.196   5.039 -0.1683  0.1819  0.4728
  171POPC   D2A 2419   6.915   7.981   5.478  0.1134  0.3788 -0.1100
  171POPC   C3A 2420   7.041   8.065   5.872  0.2511 -0.0835 -0.2611
  171POPC   C4A 2421   7.057   7.834   6.245 -0.0695 -0.2135  0.0248
  171POPC   C1B 2422   7.529   8.248   5.248  0.2833 -0.1018 -0.0756
  171POPC   C2B 2423   7.667   8.148   5.743  0.1828  0.3421 -0.0744
  171POPC   C3B 2424   7.930   8.177   6.148 -0.1962 -0.0468  0.2558
  171POPC   C4B 2425   8.154   8.508   6.460  0.1662  0.1866  0.0913
  172POPC   NC3 2426   7.929   9.095   4.160 -0.1354  0.1761  0.1728
  172POPC   PO4 2427   7.551   8.863   4.346 -0.1897 -0.3244 -0.0328
  172POPC   GL1 2428   7.555   8.686   4.761  0.0616 -0.1816  0.1204
  172POPC   GL2 2429   7.266   8.650   4.990 -0.1085 -0.0735 -0.2446
  172POPC   C1A 2430   7.853   8.620   5.196 -0.0004 -0.2769  0.1852
  172POPC   D2A 2431   7.785   8.616   5.656  0.0536 -0.3689  0.0030
  172POPC   C3A 2432   8.147   8.719   5.981  0.3356  0.0931 -0.1387
  172POPC   C4A 2433   8.494   8.904   6.200  0.4187  0.0023 -0.0615
  172POPC   C1B 2434   7.199   8.947   5.299  0.0206 -0.0825  0.0005
  172POPC   C2B 2435   7.489   9.006   5.663  0.0284  0.2691  0.1538
  172POPC   C3B 2436   7.687   9.137   6.040  0.2725 -0.1084  0.1828
  172POPC   C4B 2437   7.652   9.491   6.336 -0.1513 -0.0492 -0.2183
  173POPC   NC3 2438   6.038   4.251   4.289 -0.1587 -0.2019  0.0045
  173POPC   PO4 2439   5.809   3.865   4.147 -0.1533 -0.2058  0.1768
  173POPC   GL1 2440   5.858   3.752   4.527 -0.3067 -0.1425  0.2033
  173POPC   GL2 2441   6.132   3.755   4.554 -0.2779  0.0037  0.2954
  173POPC   C1A 2442   5.727   3.581   4.888  0.0797  0.1576 -0.1836
  173POPC   D2A 2443   5.650   3.729   5.312 -0.2017 -0.2452  0.0488
  173POPC   C3A 2444   5.506   4.085   5.500  0.3094  0.1861  0.1136
  173POPC   C4A 2445   5.345   4.370   5.741 -0.0790 -0.1292 -0.2720
  173POPC   C1B 2446   6.185   3.726   4.994 -0.0471 -0.0122 -0.2571
  173POPC   C2B 2447   6.173   3.719   5.428  0.0884  0.1323 -0.0870
  173POPC   C3B 2448   6.008   3.899   5.716 -0.0866 -0.2312 -0.0248
  173POPC   C4B 2449   5.665   3.993   5.949  0.1872  0.0488  0.0947
  174POPC   NC3 2450   7.929   0.364   4.297 -0.2145 -0.2109  0.1041
  174POPC   PO4 2451   7.538   0.165   4.237  0.4170  0.0431  0.1407
  174POPC   GL1 2452   7.441   0.018   4.560 -0.1173  0.1596  0.0368
  174POPC   GL2 2453   7.629   0.239   4.790 -0.0755  0.1611  0.0736
  174POPC   C1A 2454   7.300  -0.187   5.028  0.3268  0.0199  0.0840
  174POPC   D2A 2455   7.181  -0.234   5.418 -0.1389  0.0236  0.1402
  174POPC   C3A 2456   6.856  -0.503   5.494 -0.0180 -0.1906 -0.1116
  174POPC   C4A 2457   6.437  -0.570   5.678 -0.0095 -0.2499  0.0834
  174POPC   C1B 2458   7.473   0.377   5.281 -0.1191 -0.1420 -0.0421
  174POPC   C2B 2459   7.222   0.268   5.538  0.1483  0.0355  0.1410
  174POPC   C3B 2460   6.827   0.092   5.620 -0.0769 -0.0986 -0.1938
  174POPC   C4B 2461   6.384   0.191   5.587 -0.2354 -0.0422 -0.0151
  175POPC   NC3 2462   8.907   1.196   4.198  0.1560 -0.0732  0.3895
  175POPC   PO4 2463   9.289   1.038   4.476  0.4438 -0.0731 -0.0850
  175POPC   GL1 2464   9.136   0.910   4.791 -0.1608  0.1094  0.1497
  175POPC   GL2 2465   9.318   0.815   5.045  0.3470  0.0011 -0.0567
  175POPC   C1A 2466   8.788   0.818   5.032 -0.3638 -0.2156 -0.1500
  175POPC   D2A 2467   8.675   0.624   5.360  0.1979  0.2009 -0.3253
  175POPC   C3A 2468   8.531   0.228   5.433 -0.1006  0.1662  0.1544
  175POPC   C4A 2469   8.232  -0.142   5.338  0.1511  0.0323  0.0942
  175POPC   C1B 2470   9.587   0.928   5.339  0.3237 -0.0093  0.1313
  175POPC   C2B 2471   9.871   0.840   5.741  0.0367 -0.2519  0.0626
  175POPC   C3B 2472  10.100   0.699   5.887 -0.1112  0.0477 -0.0178
  175POPC   C4B 2473  10.293   0.555   6.245  0.1555 -0.2241  0.0113
  176POPC   NC3 2474   1.462   4.899   4.276  0.1510  0.1376 -0.3561
  176POPC   PO4 2475   1.247   4.450   4.393 -0.0582  0.2040  0.1892
  176POPC   GL1 2476   0.965   4.368   4.832 -0.1984 -0.0639 -0.0926
  176POPC   GL2 2477   0.876   4.639   5.019 -0.0146 -0.0548 -0.0172
  176POPC   C1A 2478   1.053   4.170   5.212 -0.0539  0.1946  0.2151
  176POPC   D2A 2479   1.444   4.285   5.340 -0.3526 -0.0576 -0.2335
  176POPC   C3A 2480   1.636   4.053   5.674  0.0628 -0.0928 -0.0854
  176POPC   C4A 2481   1.464   3.881   6.069 -0.1772 -0.2350  0.0136
  176POPC   C1B 2482   1.013   4.598   5.486  0.1377 -0.1253  0.1389
  176POPC   C2B 2483   1.428   4.514   5.731 -0.2090  0.1506  0.1568
  176POPC   C3B 2484   1.658   4.356   6.058 -0.1427  0.1528  0.1845
  176POPC   C4B 2485   1.895   4.054   6.186  0.0645  0.3225  0.1159
  177POPC   NC3 2486   2.725   8.760   3.175  0.1438 -0.3329  0.2687
  177POPC   PO4 2487   2.330   8.704   2.865 -0.1237  0.0252 -0.0347
  177POPC   GL1 2488   2.368   8.210   3.042 -0.1103 -0.1364  0.0925
  177POPC   GL2 2489   2.649   8.043   3.152 -0.0144 -0.3244 -0.2921
  177POPC   C1A 2490   2.157   8.211   3.383 -0.2052  0.2645  0.2504
  177POPC   D2A 2491   2.032   8.420   3.734 -0.2392 -0.0802 -0.1773
  177POPC   C3A 2492   2.030   8.682   4.109  0.0498 -0.1515  0.1776
  177POPC   C4A 2493   1.861   9.177   4.214 -0.0929 -0.0552 -0.2461
  177POPC   C1B 2494   2.809   7.951   3.484  0.2305 -0.1682 -0.0208
  177POPC   C2B 2495   2.899   7.884   3.843 -0.0220 -0.2639 -0.2282
  177POPC   C3B 2496   3.057   8.161   4.258  0.2201  0.2634 -0.1192
  177POPC   C4B 2497   2.981   8.403   4.685  0.3295 -0.1782  0.0746
  178POPC   NC3 2498   4.826   5.366   4.389  0.1727  0.0075 -0.0145
  178POPC   PO4 2499   5.253   5.056   4.222  0.2708  0.1889  0.1404
  178POPC   GL1 2500   5.170   5.247   4.713  0.0303  0.1722  0.0069
  178POPC   GL2 2501   5.245   4.908   4.880 -0.0332 -0.0323  0.2675
  178POPC   C1A 2502   4.995   5.585   4.907  0.2609 -0.1185  0.0019
  178POPC   D2A 2503   4.647   5.813   4.772 -0.0486  0.1216 -0.0451
  178POPC   C3A 2504   4.735   6.157   4.468 -0.0338 -0.0020 -0.0975
  178POPC   C4A 2505   4.443   6.522   4.356  0.0993 -0.0093 -0.0431
  178POPC   C1B 2506   5.719   4.952   5.125 -0.1430 -0.0908  0.2241
  178POPC   C2B 2507   5.720   4.883   5.599  0.0920  0.1342  0.0484
  178POPC   C3B 2508   5.825   5.093   5.976  0.1033  0.0448 -0.4013
  178POPC   C4B 2509   5.834   4.950   6.475  0.1370 -0.1342 -0.0486
  179POPC   NC3 2510   5.744   7.984   3.560 -0.1732  0.0501 -0.0007
  179POPC   PO4 2511   5.534   8.212   3.813  0.1660 -0.4483  0.0462
  179POPC   GL1 2512   5.395   8.268   4.253  0.0381  0.0794  0.1557
  179POPC   GL2 2513   5.591   8.474   4.413  0.0447  0.3343  0.0785
  179POPC   C1A 2514   5.249   8.174   4.631 -0.0591  0.0459 -0.0602
  179POPC   D2A 2515   5.385   8.185   5.115  0.0828  0.1330 -0.3532
  179POPC   C3A 2516   5.147   8.264   5.420 -0.0584 -0.0013 -0.0235
  179POPC   C4A 2517   5.160   8.524   5.756  0.1202 -0.0734  0.0993
  179POPC   C1B 2518   5.547   8.579   4.785  0.1415 -0.2799 -0.2532
  179POPC   C2B 2519   5.593   8.660   5.222 -0.1676 -0.1373  0.3471
  179POPC   C3B 2520   5.604   8.530   5.575 -0.3092  0.4315  0.1280
  179POPC   C4B 2521   5.801   8.608   5.936  0.0924 -0.2020 -0.0404
  180POPC   NC3 2522   0.466   7.299   3.602 -0.1039  0.0371 -0.1000
  180POPC   PO4 2523   0.859   7.188   3.472 -0.1128 -0.3203 -0.0472
  180POPC   GL1 2524   1.320   7.139   3.771 -0.0506 -0.1035 -0.2324
  180POPC   GL2 2525   1.531   6.893   3.771  0.0891 -0.0917  0.1059
  180POPC   C1A 2526   1.385   7.343   4.115  0.0757 -0.2433  0.2061
  180POPC   D2A 2527   1.090   7.723   4.230 -0.2792  0.0470  0.2907
  180POPC   C3A 2528   0.814   7.756   4.594  0.0409  0.4417 -0.0733
  180POPC   C4A 2529   0.471   7.540   4.729  0.2576 -0.5437  0.0916
  180POPC   C1B 2530   1.598   6.736   4.182  0.1284 -0.1799  0.2086
  180POPC   C2B 2531   1.692   6.532   4.639  0.3990  0.1946  0.4901
  180POPC   C3B 2532   1.894   6.227   4.747  0.0182  0.1968 -0.0909
  180POPC   C4B 2533   2.274   6.062   4.459 -0.1273  0.0015  0.1578
  181POPC   NC3 2534   1.250   6.838   3.313 -0.3108 -0.2666  0.0015
  181POPC   PO4 2535   1.026   6.757   3.807 -0.1867  0.2900 -0.0470
  181POPC   GL1 2536   1.055   6.851   4.239 -0.1242 -0.1124  0.3228
  181POPC   GL2 2537   0.758   6.657   4.407  0.3212  0.1997  0.0915
  181POPC   C1A 2538   1.317   6.870   4.591  0.1105  0.2920 -0.1081
  181POPC   D2A 2539   1.592   7.176   4.711  0.0354  0.1238 -0.1502
  181POPC   C3A 2540   1.783   6.990   5.043  0.0029 -0.1186  0.0139
  181POPC   C4A 2541   2.071   6.982   5.341 -0.1566  0.1143  0.2245
  181POPC   C1B 2542   0.923   6.692   4.806 -0.1974 -0.0145  0.2103
  181POPC   C2B 2543   0.943   6.520   5.225  0.0389 -0.1938 -0.0517
  181POPC   C3B 2544   0.945   6.226   5.569 -0.1482 -0.0931  0.2142
  181POPC   C4B 2545   0.778   6.037   5.872 -0.0627 -0.1030 -0.2101
  182POPC   NC3 2546   4.871   9.485   3.880 -0.1660  0.0488 -0.1613
  182POPC   PO4 2547   4.892   8.950   3.950 -0.1523  0.3617  0.3525
  182POPC   GL1 2548   4.577   8.849   4.327  0.1853 -0.0331 -0.1522
  182POPC   GL2 2549   4.366   9.009   4.539  0.0651 -0.0625  0.0620
  182POPC   C1A 2550   4.743   8.911   4.770  0.3202 -0.2081  0.1437
  182POPC   D2A 2551   4.780   9.083   5.185 -0.0129  0.4164 -0.0170
  182POPC   C3A 2552   4.394   9.014   5.422  0.0762 -0.1520  0.2974
  182POPC   C4A 2553   4.049   9.142   5.669  0.1587  0.1041 -0.0933
  182POPC   C1B 2554   4.300   9.179   4.940  0.1586 -0.2673 -0.1893
  182POPC   C2B 2555   3.964   9.387   5.205 -0.1274 -0.2305 -0.1070
  182POPC   C3B 2556   3.594   9.640   5.229 -0.0357 -0.2360  0.0448
  182POPC   C4B 2557   3.508   9.943   5.459  0.5039  0.3888  0.1161
  183POPC   NC3 2558   3.269   5.867   3.422  0.1762 -0.2555 -0.0697
  183POPC   PO4 2559   3.491   5.902   3.813  0.1158  0.4868  0.3939
  183POPC   GL1 2560   3.345   6.116   4.059 -0.0926  0.1290 -0.3476
  183POPC   GL2 2561   3.314   5.897   4.394 -0.1220  0.1728  0.0073
  183POPC   C1A 2562   3.535   6.334   4.402  0.0649  0.0032  0.0028
  183POPC   D2A 2563   3.475   6.449   4.793  0.0680  0.1201 -0.2589
  183POPC   C3A 2564   3.759   6.236   5.089 -0.1909  0.0036  0.0422
  183POPC   C4A 2565   4.107   6.181   5.301  0.2686  0.1938 -0.2888
  183POPC   C1B 2566   3.567   5.765   4.769 -0.2449  0.2185  0.4613
  183POPC   C2B 2567   3.611   5.809   5.146  0.1167 -0.0468  0.1889
  183POPC   C3B 2568   3.602   6.041   5.555  0.0617 -0.2445  0.4189
  183POPC   C4B 2569   3.733   6.156   5.937 -0.0315 -0.1554  0.1495
  184POPC   NC3 2570   6.256   2.244   4.203 -0.0160  0.0241  0.0541
  184POPC   PO4 2571   5.930   1.999   4.054  0.0109  0.0782 -0.1147
  184POPC   GL1 2572   5.738   2.104   4.466  0.0341 -0.2750 -0.3863
  184POPC   GL2 2573   6.050   2.299   4.607  0.0384  0.1258 -0.0611
  184POPC   C1A 2574   5.427   2.140   4.753  0.1397 -0.2173  0.0795
  184POPC   D2A 2575   5.075   1.945   4.952  0.0679  0.0697 -0.0443
  184POPC   C3A 2576   4.978   1.952   5.434  0.3756 -0.1855 -0.0499
  184POPC   C4A 2577   4.612   1.763   5.699 -0.1500 -0.4423 -0.0799
  184POPC   C1B 2578   5.887   2.289   4.957 -0.1087  0.0541  0.1702
  184POPC   C2B 2579   5.924   2.031   5.389 -0.1246 -0.5057 -0.1367
  184POPC   C3B 2580   5.840   1.592   5.554 -0.0587 -0.0155  0.1814
  184POPC   C4B 2581   6.268   1.548   5.802  0.1136  0.0193  0.2142
  185POPC   NC3 2582   8.825   4.657   4.020  0.1996  0.3716 -0.3426
  185POPC   PO4 2583   9.130   4.493   4.286  0.0302  0.0631  0.0412
  185POPC   GL1 2584   8.981   4.448   4.803  0.0284  0.0616  0.0744
  185POPC   GL2 2585   8.789   4.267   4.947 -0.0112 -0.3867 -0.1870
  185POPC   C1A 2586   8.772   4.699   5.144 -0.0633  0.0973 -0.1115
  185POPC   D2A 2587   8.664   5.036   5.470 -0.0745 -0.2875 -0.0178
  185POPC   C3A 2588   8.920   5.277   5.810  0.2665 -0.1131 -0.2795
  185POPC   C4A 2589   8.931   5.634   6.025  0.1870 -0.2155 -0.1418
  185POPC   C1B 2590   8.791   4.181   5.266 -0.0587  0.2493  0.2765
  185POPC   C2B 2591   9.087   3.943   5.419  0.0657  0.3294  0.1896
  185POPC   C3B 2592   9.019   3.761   5.783 -0.1843  0.1290 -0.1529
  185POPC   C4B 2593   8.960   3.618   6.174  0.0108 -0.3104  0.0949
  186POPC   NC3 2594   5.205   1.264   4.333 -0.0895 -0.1870 -0.2478
  186POPC   PO4 2595   5.066   0.827   4.164  0.2688  0.1150 -0.2914
  186POPC   GL1 2596   5.089   0.819   4.646 -0.2136  0.0990  0.1583
  186POPC   GL2 2597   4.950   0.470   4.521  0.2036 -0.4942  0.3307
  186POPC   C1A 2598   5.195   0.701   5.093  0.0642  0.2116  0.0720
  186POPC   D2A 2599   5.331   0.707   5.509  0.0347 -0.1664  0.0293
  186POPC   C3A 2600   5.302   0.313   5.784 -0.0293  0.1248  0.0387
  186POPC   C4A 2601   5.412   0.130   6.149  0.0389 -0.0445 -0.1068
  186POPC   C1B 2602   4.728   0.466   4.842  0.0819  0.2360  0.1189
  186POPC   C2B 2603   4.685   0.269   5.260  0.1389 -0.1040 -0.1404
  186POPC   C3B 2604   4.804   0.172   5.656 -0.1029  0.2054 -0.1789
  186POPC   C4B 2605   4.852   0.013   5.991  0.0685  0.0978  0.3526
  187POPC   NC3 2606   6.557   0.675   4.285  0.0808  0.3690  0.2668
  187POPC   PO4 2607   6.612   0.260   4.361  0.0027  0.1133  0.0677
  187POPC   GL1 2608   6.462   0.350   4.755 -0.0178 -0.1987 -0.1209
  187POPC   GL2 2609   6.122   0.135   4.686 -0.0010  0.0371  0.0882
  187POPC   C1A 2610   6.138   0.381   5.143 -0.1955 -0.0634 -0.1367
  187POPC   D2A 2611   5.815   0.339   5.488  0.1300  0.5067 -0.4006
  187POPC   C3A 2612   5.763   0.472   5.882 -0.0446  0.0450 -0.0362
  187POPC   C4A 2613   5.868   0.787   6.169 -0.0285 -0.0695 -0.1816
  187POPC   C1B 2614   5.760   0.036   5.017  0.0530 -0.5530  0.1134
  187POPC   C2B 2615   5.267  -0.293   5.056 -0.0536 -0.0827  0.0826
  187POPC   C3B 2616   5.219  -0.771   4.983 -0.1703 -0.0729 -0.1243
  187POPC   C4B 2617   5.044  -1.114   5.028 -0.3473  0.3569 -0.3303
  188POPC   NC3 2618   7.573   4.552   3.954 -0.2282 -0.0095  0.2691
  188POPC   PO4 2619   8.079   4.530   4.087  0.0684  0.0481 -0.0616
  188POPC   GL1 2620   7.772   4.339   4.442  0.4495  0.0586  0.1360
  188POPC   GL2 2621   7.429   4.543   4.428  0.2166 -0.1108  0.3449
  188POPC   C1A 2622   7.786   4.300   4.913 -0.0604 -0.3655 -0.3180
  188POPC   D2A 2623   7.801   4.306   5.246 -0.0114  0.0207 -0.1296
  188POPC   C3A 2624   7.537   4.010   5.604 -0.2487 -0.1360 -0.1525
  188POPC   C4A 2625   7.627   4.113   6.055  0.0571 -0.2010  0.0834
  188POPC   C1B 2626   7.398   4.572   4.859 -0.0424 -0.1116  0.4203
  188POPC   C2B 2627   7.329   4.462   5.339 -0.7528 -0.3544 -0.0864
  188POPC   C3B 2628   7.259   4.335   5.760 -0.0160 -0.1014 -0.0237
  188POPC   C4B 2629   7.086   3.968   5.999 -0.0744  0.1871 -0.0301
  189POPC   NC3 2630   4.993   7.785   2.915  0.1317 -0.0436 -0.0068
  189POPC   PO4 2631   5.130   7.449   3.207  0.1187  0.2304 -0.1287
  189POPC   GL1 2632   5.258   7.462   3.690 -0.0530  0.1543  0.2167
  189POPC   GL2 2633   5.129   7.754   3.952 -0.2322  0.0281 -0.3259
  189POPC   C1A 2634   5.584   7.255   3.892  0.1072 -0.0539 -0.1821
  189POPC   D2A 2635   5.727   7.378   4.306  0.0566 -0.0533 -0.0715
  189POPC   C3A 2636   5.686   7.142   4.641  0.0242  0.2251 -0.2583
  189POPC   C4A 2637   5.496   7.121   5.042  0.2899 -0.3153  0.1117
  189POPC   C1B 2638   5.139   7.380   4.229  0.1560 -0.2170 -0.0262
  189POPC   C2B 2639   5.133   7.205   4.686  0.1923  0.2543 -0.1424
  189POPC   C3B 2640   4.941   7.407   4.975  0.2501  0.0133 -0.1260
  189POPC   C4B 2641   4.701   7.581   5.386  0.1300 -0.0738 -0.2911
  190POPC   NC3 2642   2.370   6.885   2.725 -0.2283 -0.2646 -0.1274
  190POPC   PO4 2643   2.524   7.309   2.610  0.1289 -0.1584 -0.0694
  190POPC   GL1 2644   2.613   7.521   3.004  0.1296 -0.0135 -0.0226
  190POPC   GL2 2645   2.831   7.529   3.224 -0.1424 -0.0137  0.0260
  190POPC   C1A 2646   2.292   7.716   3.306  0.0529 -0.1522 -0.2625
  190POPC   D2A 2647   2.076   7.467   3.642  0.5088  0.1553 -0.0118
  190POPC   C3A 2648   2.200   7.573   4.101  0.1265  0.0054  0.2579
  190POPC   C4A 2649   2.059   7.578   4.554  0.0344 -0.1895  0.0145
  190POPC   C1B 2650   3.112   7.388   3.542 -0.1068  0.2805  0.0359
  190POPC   C2B 2651   2.876   7.215   3.941 -0.1142 -0.1719 -0.0352
  190POPC   C3B 2652   2.507   7.148   4.058 -0.0592  0.1292  0.2913
  190POPC   C4B 2653   2.214   6.831   3.991  0.1360 -0.0317  0.2885
  191POPC   NC3 2654   2.785   0.312   3.560 -0.2462  0.2237  0.0909
  191POPC   PO4 2655   3.002   0.679   3.722 -0.0643 -0.0729 -0.1783
  191POPC   GL1 2656   3.030   0.529   4.093 -0.1067 -0.2092  0.1870
  191POPC   GL2 2657   3.111   0.344   4.119 -0.1267  0.0526 -0.0356
  191POPC   C1A 2658   3.085   0.723   4.515 -0.0469  0.2712  0.0500
  191POPC   D2A 2659   3.035   0.839   4.998 -0.0696 -0.2934 -0.2119
  191POPC   C3A 2660   3.015   1.335   5.128 -0.2283 -0.0078 -0.2352
  191POPC   C4A 2661   2.973   1.625   5.306  0.4143  0.2322 -0.2992
  191POPC   C1B 2662   3.281   0.247   4.540  0.0857 -0.2418  0.0590
  191POPC   C2B 2663   3.007  -0.019   4.694  0.0628  0.2934  0.0183
  191POPC   C3B 2664   2.624  -0.084   4.998 -0.0306  0.0045  0.1091
  191POPC   C4B 2665   2.775  -0.201   5.355 -0.0157 -0.0115 -0.0005
  192POPC   NC3 2666   4.341   9.077   3.202  0.0557  0.2565 -0.1734
  192POPC   PO4 2667   4.021   9.322   3.377  0.4018 -0.0097  0.1287
  192POPC   GL1 2668   4.038   9.114   3.700  0.0098  0.0216 -0.1686
  192POPC   GL2 2669   4.296   8.903   3.824  0.0567 -0.2084  0.1010
  192POPC   C1A 2670   3.887   9.108   4.097 -0.2452  0.1879  0.1942
  192POPC   D2A 2671   3.666   9.143   4.428 -0.6197  0.0803  0.2073
  192POPC   C3A 2672   3.224   9.105   4.410 -0.2476 -0.1314  0.1372
  192POPC   C4A 2673   2.904   8.970   4.123  0.0429 -0.0966  0.1140
  192POPC   C1B 2674   4.343   8.492   4.000  0.0166  0.4934 -0.0110
  192POPC   C2B 2675   4.609   8.274   4.208 -0.0486 -0.1830 -0.1512
  192POPC   C3B 2676   4.840   7.898   4.365  0.2023 -0.3055 -0.1131
  192POPC   C4B 2677   5.142   7.695   4.565  0.0331 -0.0516 -0.1134
  193POPC   NC3 2678   8.277   5.435   4.390 -0.2645 -0.1701 -0.0787
  193POPC   PO4 2679   8.048   5.826   4.541 -0.1704  0.0857 -0.1852
  193POPC   GL1 2680   7.963   5.734   4.972  0.0190  0.5579  0.0455
  193POPC   GL2 2681   8.391   5.684   4.933  0.2021  0.0790 -0.0200
  193POPC   C1A 2682   7.880   5.709   5.429 -0.0156 -0.1844  0.2398
  193POPC   D2A 2683   7.891   5.440   5.741  0.2374  0.0439  0.2170
  193POPC   C3A 2684   7.741   5.177   5.609 -0.0701  0.3199  0.1143
  193POPC   C4A 2685   7.734   4.787   5.303 -0.0061 -0.3584  0.0426
  193POPC   C1B 2686   8.379   5.876   5.290  0.2696  0.1428  0.0367
  193POPC   C2B 2687   8.366   6.226   5.437 -0.1500 -0.4480 -0.0086
  193POPC   C3B 2688   8.447   6.477   5.792 -0.1775  0.0643 -0.1020
  193POPC   C4B 2689   8.699   6.558   6.141 -0.1879  0.0940 -0.1394
  194POPC   NC3 2690   7.837   6.266   4.710  0.3421  0.0491  0.3509
  194POPC   PO4 2691   7.776   6.578   4.380  0.3656 -0.0835 -0.2392
  194POPC   GL1 2692   7.415   6.790   4.603 -0.2668 -0.1620 -0.1650
  194POPC   GL2 2693   7.696   6.887   4.846 -0.2358 -0.2258 -0.2161
  194POPC   C1A 2694   7.095   6.943   4.828 -0.1966  0.1716  0.0989
  194POPC   D2A 2695   6.923   7.016   5.162 -0.2176 -0.0489 -0.0732
  194POPC   C3A 2696   6.921   7.428   5.383  0.1295  0.0581 -0.2097
  194POPC   C4A 2697   6.928   7.536   5.816  0.2284  0.1961 -0.0241
  194POPC   C1B 2698   7.761   6.726   5.207  0.1336  0.0689 -0.1860
  194POPC   C2B 2699   8.001   6.529   5.598 -0.1128 -0.0539 -0.0734
  194POPC   C3B 2700   7.946   6.364   5.941 -0.2933 -0.0285  0.3606
  194POPC   C4B 2701   8.087   5.903   5.968  0.3330 -0.0750  0.1790
  195POPC   NC3 2702   7.863   7.604   4.221 -0.3498 -0.0700 -0.1923
  195POPC   PO4 2703   8.223   7.332   4.252  0.0861 -0.1395  0.0564
  195POPC   GL1 2704   8.203   7.457   4.702 -0.0726  0.4694 -0.0350
  195POPC   GL2 2705   8.550   7.607   4.746 -0.1707 -0.1063  0.0508
  195POPC   C1A 2706   8.239   7.591   5.164  0.0598 -0.1132  0.0506
  195POPC   D2A 2707   8.422   7.821   5.512 -0.3772  0.1399 -0.5223
  195POPC   C3A 2708   8.668   7.611   5.807 -0.0940  0.2804  0.1184
  195POPC   C4A 2709   8.874   7.383   6.294  0.1044  0.4529  0.2148
  195POPC   C1B 2710   8.744   7.429   5.133  0.0667  0.0926 -0.1476
  195POPC   C2B 2711   9.010   7.755   5.379  0.0096 -0.3494 -0.1192
  195POPC   C3B 2712   9.440   7.862   5.549 -0.2752  0.0982 -0.0304
  195POPC   C4B 2713   9.808   7.983   5.795 -0.0318  0.3152 -0.1794
  196POPC   NC3 2714   6.182   9.661   4.190 -0.0800  0.0286 -0.2240
  196POPC   PO4 2715   6.019   9.336   3.966 -0.0402  0.1012  0.0504
  196POPC   GL1 2716   5.848   9.201   4.265 -0.2288 -0.2291 -0.1526
  196POPC   GL2 2717   5.972   9.320   4.538  0.0813 -0.2927 -0.0356
  196POPC   C1A 2718   5.618   8.961   4.501 -0.0044  0.0757 -0.0011
  196POPC   D2A 2719   5.135   8.743   4.363 -0.1152 -0.0539  0.4303
  196POPC   C3A 2720   4.828   8.376   4.605 -0.1534  0.1003  0.0627
  196POPC   C4A 2721   4.369   8.197   4.685  0.0523  0.1215 -0.0242
  196POPC   C1B 2722   6.197   9.403   4.934 -0.1674  0.0425  0.1317
  196POPC   C2B 2723   6.122   9.539   5.364  0.0299 -0.0221  0.0919
  196POPC   C3B 2724   6.025   9.550   5.846  0.0015  0.0975 -0.1821
  196POPC   C4B 2725   5.968   9.811   6.173 -0.2049  0.0558 -0.0571
  197POPC   NC3 2726   7.511   6.460   3.681  0.3010 -0.1053  0.1978
  197POPC   PO4 2727   7.076   6.369   4.025 -0.0776 -0.2015  0.2218
  197POPC   GL1 2728   6.798   6.275   4.419 -0.1688 -0.3377  0.0787
  197POPC   GL2 2729   6.729   5.912   4.567  0.3762  0.0270 -0.2165
  197POPC   C1A 2730   6.988   6.266   4.801  0.1223 -0.1677  0.1220
  197POPC   D2A 2731   7.360   6.407   5.061 -0.2862  0.1569 -0.2571
  197POPC   C3A 2732   7.543   6.377   5.495 -0.2564 -0.1786  0.1080
  197POPC   C4A 2733   7.416   6.432   5.970  0.2110 -0.0204 -0.2649
  197POPC   C1B 2734   6.316   6.249   4.716  0.0253 -0.0539 -0.2039
  197POPC   C2B 2735   6.126   6.480   5.044  0.1669 -0.1522  0.0683
  197POPC   C3B 2736   5.921   6.752   5.308 -0.1744 -0.0114 -0.0631
  197POPC   C4B 2737   5.728   6.740   5.796  0.3116 -0.2697 -0.0913
  198POPC   NC3 2738   5.773   1.308   4.443  0.1061 -0.0139 -0.1208
  198POPC   PO4 2739   5.560   1.634   4.242 -0.1362 -0.3067 -0.0538
  198POPC   GL1 2740   5.434   1.610   4.638 -0.0455  0.2245 -0.2809
  198POPC   GL2 2741   5.757   1.701   4.866 -0.1289  0.0463 -0.2815
  198POPC   C1A 2742   5.141   1.403   5.024 -0.1936  0.0666 -0.1562
  198POPC   D2A 2743   4.827   1.518   5.325 -0.0826 -0.0263 -0.0011
  198POPC   C3A 2744   5.109   1.495   5.664 -0.2820 -0.0072 -0.0723
  198POPC   C4A 2745   5.455   1.503   5.956 -0.0796 -0.4519 -0.0329
  198POPC   C1B 2746   5.432   1.770   5.213  0.2638 -0.0771 -0.0835
  198POPC   C2B 2747   5.506   1.913   5.651  0.1912 -0.2248 -0.1726
  198POPC   C3B 2748   5.117   1.961   5.991  0.0029 -0.0882 -0.2142
  198POPC   C4B 2749   5.104   2.271   6.286  0.1535  0.2206  0.1272
  199POPC   NC3 2750   8.555   6.470   3.997 -0.3449 -0.2358  0.1913
  199POPC   PO4 2751   8.640   6.458   4.427 -0.0668  0.0041  0.1174
  199POPC   GL1 2752   8.709   6.659   4.751 -0.1457  0.3124  0.0788
  199POPC   GL2 2753   8.610   7.066   4.647  0.1468 -0.0884 -0.1296
  199POPC   C1A 2754   8.906   6.948   5.033 -0.1842  0.1829  0.0206
  199POPC   D2A 2755   9.131   7.116   5.316  0.1045  0.0291 -0.1997
  199POPC   C3A 2756   9.138   7.325   5.762 -0.1089  0.1817 -0.2553
  199POPC   C4A 2757   9.343   7.645   6.097 -0.1847  0.2713  0.6268
  199POPC   C1B 2758   8.305   7.061   5.043 -0.3155 -0.1947  0.0412
  199POPC   C2B 2759   8.323   7.112   5.400 -0.1535 -0.1614  0.3129
  199POPC   C3B 2760   8.264   7.345   5.735 -0.0994 -0.2653 -0.0502
  199POPC   C4B 2761   8.420   7.379   6.135 -0.0213  0.3344  0.0145
  200POPC   NC3 2762   0.611   6.097   4.344 -0.1104 -0.2266 -0.0670
  200POPC   PO4 2763   0.908   5.758   4.337  0.0124  0.1206  0.1370
  200POPC   GL1 2764   0.883   5.934   4.800 -0.2306 -0.0008  0.1978
  200POPC   GL2 2765   1.081   6.215   4.786 -0.1063  0.0408 -0.0241
  200POPC   C1A 2766   0.788   5.869   5.230  0.2419  0.0332 -0.2370
  200POPC   D2A 2767   0.906   5.609   5.645  0.1246  0.2056  0.0160
  200POPC   C3A 2768   0.966   5.686   6.146 -0.0019 -0.3015 -0.1319
  200POPC   C4A 2769   1.127   5.882   6.568  0.0645 -0.0245 -0.1487
  200POPC   C1B 2770   1.397   6.622   5.019 -0.0565 -0.3221  0.2519
  200POPC   C2B 2771   1.283   7.035   5.053  0.3495  0.0198  0.2251
  200POPC   C3B 2772   1.379   7.309   5.479  0.1172  0.2494 -0.0639
  200POPC   C4B 2773   1.186   7.536   5.845  0.2100  0.1266 -0.2270
  201POPC   NC3 2774   6.998   7.371   4.226 -0.0095 -0.0946 -0.1021
  201POPC   PO4 2775   6.899   7.808   4.307 -0.1622  0.4786  0.2176
  201POPC   GL1 2776   7.058   7.702   4.649  0.1709 -0.1337  0.1128
  201POPC   GL2 2777   6.995   7.395   4.738  0.1886 -0.1363  0.0178
  201POPC   C1A 2778   7.363   7.723   5.072  0.0598  0.0389 -0.0321
  201POPC   D2A 2779   7.650   7.767   5.341 -0.1095 -0.0966  0.0955
  201POPC   C3A 2780   7.944   7.754   5.687  0.4513 -0.2861  0.0642
  201POPC   C4A 2781   8.290   7.883   5.996  0.3681  0.0430 -0.0009
  201POPC   C1B 2782   7.362   7.257   5.084 -0.1553  0.0935 -0.2705
  201POPC   C2B 2783   7.332   7.012   5.414  0.0019  0.0669 -0.1092
  201POPC   C3B 2784   7.621   6.841   5.682  0.4487 -0.3161  0.1985
  201POPC   C4B 2785   8.017   6.923   5.972  0.0478 -0.2263  0.1604
  202POPC   NC3 2786   0.066   3.254   4.525  0.2919 -0.3945 -0.1374
  202POPC   PO4 2787  -0.342   3.616   4.473 -0.0846  0.0013  0.0101
  202POPC   GL1 2788  -0.402   3.697   4.906  0.2073  0.1824 -0.1874
  202POPC   GL2 2789  -0.250   3.591   5.160 -0.1737 -0.3132  0.0231
  202POPC   C1A 2790  -0.869   3.708   5.035  0.3175 -0.2503  0.0708
  202POPC   D2A 2791  -0.999   3.586   5.481 -0.3361 -0.1055  0.2084
  202POPC   C3A 2792  -1.151   3.897   5.805 -0.1722 -0.1341  0.1808
  202POPC   C4A 2793  -1.153   3.959   6.231  0.1247 -0.1097 -0.0997
  202POPC   C1B 2794  -0.196   3.824   5.610 -0.1320 -0.2427 -0.1816
  202POPC   C2B 2795  -0.331   4.140   5.848 -0.1785  0.2279 -0.0431
  202POPC   C3B 2796  -0.252   4.374   6.203 -0.0620  0.1977  0.0780
  202POPC   C4B 2797  -0.019   4.544   6.442  0.1629  0.0726  0.3573
  203POPC   NC3 2798   1.368   5.873   4.454  0.0318  0.1879  0.4180
  203POPC   PO4 2799   1.432   5.502   4.585 -0.0432  0.2100 -0.2551
  203POPC   GL1 2800   1.454   5.793   4.957 -0.0057  0.0391  0.1691
  203POPC   GL2 2801   1.512   6.185   5.040 -0.0065  0.3333  0.0110
  203POPC   C1A 2802   1.304   5.827   5.390  0.1416  0.2325 -0.2434
  203POPC   D2A 2803   1.311   5.995   5.871  0.1204 -0.0377  0.1627
  203POPC   C3A 2804   1.514   5.857   6.149 -0.3495  0.2229  0.1609
  203POPC   C4A 2805   1.493   5.452   6.346  0.0609 -0.1271  0.0218
  203POPC   C1B 2806   1.447   6.358   5.483 -0.1508  0.1297 -0.0579
  203POPC   C2B 2807   1.552   6.434   5.926  0.1589  0.0039  0.1718
  203POPC   C3B 2808   1.497   6.485   6.300  0.0131  0.2582 -0.2019
  203POPC   C4B 2809   1.241   6.392   6.598 -0.0390  0.1455  0.2504
  204POPC   NC3 2810   4.043   5.612   3.869 -0.1397 -0.0204 -0.0169
  204POPC   PO4 2811   4.045   5.349   4.130 -0.1153 -0.0324 -0.1909
  204POPC   GL1 2812   4.339   5.510   4.472  0.1332  0.0086 -0.1214
  204POPC   GL2 2813   4.119   5.686   4.613  0.2172 -0.0765 -0.2897
  204POPC   C1A 2814   4.344   5.385   4.889 -0.1374  0.1882 -0.1484
  204POPC   D2A 2815   4.428   5.545   5.290  0.0362  0.2205 -0.0353
  204POPC   C3A 2816   4.391   5.887   5.624 -0.1814 -0.0954  0.1989
  204POPC   C4A 2817   4.206   6.007   6.072  0.1152 -0.0524 -0.1309
  204POPC   C1B 2818   4.088   5.809   4.993 -0.3080 -0.0884  0.0507
  204POPC   C2B 2819   3.983   5.625   5.477  0.3510 -0.2667 -0.1577
  204POPC   C3B 2820   3.854   5.665   5.971  0.0339 -0.1189  0.1537
  204POPC   C4B 2821   3.504   5.748   6.260  0.0005  0.0083  0.1522
  205POPC   NC3 2822   9.193   2.499   4.138  0.3641  0.0886  0.1312
  205POPC   PO4 2823   9.668   2.364   4.309  0.1134  0.0528 -0.1092
  205POPC   GL1 2824   9.726   2.110   4.743  0.1780 -0.1214 -0.0230
  205POPC   GL2 2825   9.381   1.857   4.892 -0.0255 -0.1597 -0.2954
  205POPC   C1A 2826  10.065   2.049   5.137 -0.0145  0.1875 -0.1170
  205POPC   D2A 2827   9.967   2.247   5.539  0.4168 -0.1404  0.0635
  205POPC   C3A 2828   9.838   1.920   5.743 -0.2738  0.0000 -0.0894
  205POPC   C4A 2829  10.039   1.644   5.962 -0.0005  0.0480  0.0937
  205POPC   C1B 2830   8.964   1.937   5.109 -0.4301  0.4771 -0.0689
  205POPC   C2B 2831   8.887   2.291   5.456 -0.0150  0.3597 -0.1609
  205POPC   C3B 2832   8.796   2.472   5.835  0.1762  0.0827 -0.0868
  205POPC   C4B 2833   8.627   2.805   5.888 -0.2193 -0.0397  0.1122
  206POPC   NC3 2834   6.682   7.879   3.827 -0.2426  0.0283 -0.0298
  206POPC   PO4 2835   6.511   8.112   4.150 -0.0767 -0.1737  0.1154
  206POPC   GL1 2836   6.592   8.081   4.606 -0.3692  0.2513 -0.3405
  206POPC   GL2 2837   6.741   8.413   4.585  0.2372  0.3217 -0.0931
  206POPC   C1A 2838   6.714   7.787   4.999  0.2194 -0.0752  0.0799
  206POPC   D2A 2839   6.436   7.697   5.402  0.0598  0.0748  0.0421
  206POPC   C3A 2840   6.407   7.289   5.521  0.2262  0.0229  0.1095
  206POPC   C4A 2841   6.126   7.026   5.702  0.2981 -0.0590 -0.1294
  206POPC   C1B 2842   6.751   8.650   4.996 -0.1077  0.1361  0.1803
  206POPC   C2B 2843   6.724   8.657   5.454 -0.4355  0.0037  0.2052
  206POPC   C3B 2844   6.645   8.365   5.791  0.2751 -0.0631  0.0070
  206POPC   C4B 2845   6.530   7.855   5.885  0.1080 -0.1729  0.0751
  207POPC   NC3 2846   6.071   1.472   4.108 -0.2578 -0.0957  0.0727
  207POPC   PO4 2847   6.126   0.961   4.285  0.0513 -0.0060 -0.4761
  207POPC   GL1 2848   6.270   1.168   4.589 -0.0478 -0.3310  0.0759
  207POPC   GL2 2849   6.092   1.307   4.781 -0.2197  0.0932 -0.0488
  207POPC   C1A 2850   6.514   1.327   5.035 -0.2935  0.0710 -0.3874
  207POPC   D2A 2851   6.247   1.401   5.367  0.0902  0.1071  0.4358
  207POPC   C3A 2852   5.922   1.052   5.542 -0.3953  0.0185 -0.1846
  207POPC   C4A 2853   6.073   0.683   5.609  0.0188 -0.1472 -0.0428
  207POPC   C1B 2854   5.803   1.267   5.106  0.0054  0.1920  0.0215
  207POPC   C2B 2855   5.437   1.210   5.437 -0.0742  0.3348 -0.1164
  207POPC   C3B 2856   5.367   1.018   5.880  0.1215 -0.3682 -0.0450
  207POPC   C4B 2857   5.385   0.757   6.164  0.4305  0.0023  0.1258
  208POPC   NC3 2858   5.590   5.434   4.087  0.1449  0.0737 -0.1449
  208POPC   PO4 2859   5.321   5.539   4.286  0.0450 -0.0036 -0.1769
  208POPC   GL1 2860   5.566   5.578   4.600  0.0900  0.1143 -0.0376
  208POPC   GL2 2861   5.854   5.526   4.524  0.1838  0.0906 -0.0296
  208POPC   C1A 2862   5.519   5.809   4.985  0.0381  0.1550  0.1873
  208POPC   D2A 2863   5.440   5.913   5.425 -0.1370 -0.1608 -0.0199
  208POPC   C3A 2864   5.751   6.055   5.722  0.2457  0.0338  0.1112
  208POPC   C4A 2865   5.674   6.295   6.027  0.1587 -0.1833 -0.2858
  208POPC   C1B 2866   5.852   5.429   5.000 -0.2010 -0.1279 -0.1281
  208POPC   C2B 2867   5.388   5.348   5.200 -0.1568  0.0805  0.0988
  208POPC   C3B 2868   5.288   5.167   5.582 -0.0015  0.0505 -0.0169
  208POPC   C4B 2869   4.938   4.824   5.685 -0.2085  0.2142  0.1930
  209POPC   NC3 2870   3.681   3.942   4.637  0.0832 -0.3000  0.0239
  209POPC   PO4 2871   4.116   4.031   4.549  0.1121  0.2145 -0.0297
  209POPC   GL1 2872   4.224   4.162   4.892 -0.2401 -0.1788 -0.0790
  209POPC   GL2 2873   3.878   4.230   5.064 -0.1316  0.1397 -0.0693
  209POPC   C1A 2874   4.307   4.177   5.323 -0.0417 -0.2104  0.1933
  209POPC   D2A 2875   4.485   4.489   5.587 -0.0902  0.0713  0.3690
  209POPC   C3A 2876   4.496   4.582   6.006 -0.3761  0.0038 -0.0003
  209POPC   C4A 2877   4.568   5.023   6.102 -0.0813  0.4193  0.1139
  209POPC   C1B 2878   3.715   3.984   5.337 -0.0515  0.2353  0.0342
  209POPC   C2B 2879   3.636   3.858   5.814 -0.0573  0.1437 -0.2780
  209POPC   C3B 2880   3.793   3.648   6.113 -0.0674 -0.0558 -0.2699
  209POPC   C4B 2881   4.181   3.450   6.389 -0.1496 -0.1301  0.3050
  210POPC   NC3 2882   6.320   8.111   3.665  0.1495 -0.1947  0.0326
  210POPC   PO4 2883   6.141   7.758   3.869 -0.2926 -0.0395  0.0097
  210POPC   GL1 2884   6.164   7.844   4.381 -0.1012  0.0817  0.4905
  210POPC   GL2 2885   5.915   7.840   4.423  0.0686 -0.1949 -0.0484
  210POPC   C1A 2886   6.234   7.866   4.881 -0.0118  0.0158  0.1287
  210POPC   D2A 2887   6.408   8.185   5.168 -0.1132  0.0670  0.1323
  210POPC   C3A 2888   6.256   8.093   5.553  0.2472 -0.3344  0.3609
  210POPC   C4A 2889   6.076   8.220   5.840  0.1254  0.0418 -0.0855
  210POPC   C1B 2890   5.677   7.869   4.778  0.1319 -0.1329 -0.1139
  210POPC   C2B 2891   5.436   7.612   5.061  0.1073 -0.0986  0.3169
  210POPC   C3B 2892   5.027   7.859   5.078  0.0265 -0.1973 -0.1563
  210POPC   C4B 2893   4.725   8.130   5.062  0.2710 -0.0562 -0.1206
  211POPC   NC3 2894   1.958   3.403   4.357  0.1994  0.0197 -0.3485
  211POPC   PO4 2895   1.488   3.403   4.366  0.1321 -0.1224 -0.2357
  211POPC   GL1 2896   1.485   3.542   4.759 -0.1209 -0.3237  0.1447
  211POPC   GL2 2897   1.476   3.224   4.855  0.0840 -0.0383 -0.2546
  211POPC   C1A 2898   1.421   3.854   5.108 -0.0850 -0.1119  0.0086
  211POPC   D2A 2899   1.236   3.777   5.464  0.3024  0.0146 -0.0610
  211POPC   C3A 2900   1.140   4.113   5.695 -0.0848  0.1454  0.0193
  211POPC   C4A 2901   0.803   4.327   5.898  0.1390 -0.0699 -0.2745
  211POPC   C1B 2902   1.149   3.372   5.114 -0.2521 -0.1791  0.3453
  211POPC   C2B 2903   1.031   3.332   5.572 -0.3313  0.2474  0.3929
  211POPC   C3B 2904   1.210   3.408   5.944 -0.0980 -0.1179 -0.0976
  211POPC   C4B 2905   1.176   3.615   6.398  0.1980  0.1374 -0.1707
  212POPC   NC3 2906   7.316   0.915   3.547  0.0622  0.2678  0.3487
  212POPC   PO4 2907   7.257   0.927   3.991 -0.0906  0.0242 -0.0294
  212POPC   GL1 2908   7.109   1.114   4.360  0.1653 -0.1352  0.3737
  212POPC   GL2 2909   7.266   1.065   4.563 -0.0352  0.1493  0.0068
  212POPC   C1A 2910   6.976   1.390   4.695  0.0950  0.0792  0.2606
  212POPC   D2A 2911   7.343   1.657   4.947  0.0762 -0.2835 -0.4210
  212POPC   C3A 2912   7.421   1.786   5.389 -0.2398 -0.1779  0.0276
  212POPC   C4A 2913   7.636   1.791   5.755  0.0052  0.0032  0.1799
  212POPC   C1B 2914   7.200   1.092   4.965 -0.1200  0.0418 -0.1520
  212POPC   C2B 2915   7.099   1.246   5.331 -0.0026  0.0254  0.0919
  212POPC   C3B 2916   7.251   1.324   5.731  0.2635  0.2167  0.1900
  212POPC   C4B 2917   7.573   1.272   5.996  0.1139  0.0143 -0.1404
  213POPC   NC3 2918   8.408   1.055   3.570  0.0672 -0.0700 -0.2271
  213POPC   PO4 2919   8.622   0.865   3.899  0.1400 -0.0815  0.1319
  213POPC   GL1 2920   8.410   1.098   4.339 -0.0100 -0.3734  0.0978
  213POPC   GL2 2921   8.690   1.124   4.661 -0.2421 -0.0139  0.0582
  213POPC   C1A 2922   8.269   1.376   4.588 -0.1646  0.0563  0.0433
  213POPC   D2A 2923   8.514   1.600   4.912  0.0298  0.1019 -0.3497
  213POPC   C3A 2924   8.460   1.645   5.337  0.2032  0.0381  0.2775
  213POPC   C4A 2925   8.806   1.607   5.712  0.1285 -0.0483  0.2197
  213POPC   C1B 2926   8.336   1.153   5.024 -0.2121  0.1962  0.1118
  213POPC   C2B 2927   8.106   0.982   5.338 -0.0786 -0.0929  0.1313
  213POPC   C3B 2928   8.299   0.681   5.745  0.1728  0.2000 -0.0457
  213POPC   C4B 2929   8.197   0.832   6.131  0.0449 -0.0427 -0.1452
  214POPC   NC3 2930   8.008   8.646   4.384  0.0543 -0.0406 -0.2120
  214POPC   PO4 2931   8.309   8.429   4.202  0.0947 -0.0881 -0.0117
  214POPC   GL1 2932   8.642   8.657   4.490  0.0762 -0.3439  0.0790
  214POPC   GL2 2933   8.795   8.488   4.620  0.0827  0.3443 -0.0710
  214POPC   C1A 2934   8.807   8.853   4.881  0.2819 -0.0322 -0.0864
  214POPC   D2A 2935   8.980   8.746   5.360  0.0448 -0.5168  0.0272
  214POPC   C3A 2936   8.974   8.785   5.794 -0.1976 -0.0561  0.1062
  214POPC   C4A 2937   8.941   8.626   6.279  0.0138 -0.4278 -0.1667
  214POPC   C1B 2938   9.037   8.198   4.822 -0.1693  0.0349  0.0709
  214POPC   C2B 2939   9.126   8.264   5.354 -0.1460 -0.1453 -0.1819
  214POPC   C3B 2940   9.376   8.308   5.716  0.4857  0.0695  0.1167
  214POPC   C4B 2941   9.544   8.325   6.135 -0.0914  0.0640 -0.1050
  215POPC   NC3 2942   9.606   8.782   4.246 -0.4415  0.0897  0.1385
  215POPC   PO4 2943   9.832   8.596   3.904  0.4157  0.2280  0.2393
  215POPC   GL1 2944  10.177   8.616   4.201 -0.2145 -0.0232  0.4400
  215POPC   GL2 2945  10.385   8.788   4.076  0.0317 -0.1736  0.2332
  215POPC   C1A 2946  10.280   8.626   4.603 -0.2652 -0.0604 -0.1665
  215POPC   D2A 2947  10.615   8.396   4.846  0.2508 -0.3284  0.0595
  215POPC   C3A 2948  10.656   8.287   5.344 -0.1485 -0.3272 -0.0008
  215POPC   C4A 2949  10.792   8.235   5.692 -0.0826 -0.3415 -0.2422
  215POPC   C1B 2950  10.794   8.928   4.340  0.3068  0.3882  0.2218
  215POPC   C2B 2951  10.726   9.019   4.777  0.0067 -0.0517 -0.2962
  215POPC   C3B 2952  10.840   9.198   5.204 -0.1251  0.2045  0.1182
  215POPC   C4B 2953  11.056   8.945   5.533  0.1798 -0.2177  0.1062
  216POPC   NC3 2954   2.791   2.986   4.724  0.1386  0.0818  0.0715
  216POPC   PO4 2955   2.452   3.136   4.450 -0.1383  0.0501  0.0559
  216POPC   GL1 2956   2.332   3.194   4.878  0.5016 -0.1173 -0.2501
  216POPC   GL2 2957   2.508   3.173   5.147  0.0461  0.2094  0.0747
  216POPC   C1A 2958   1.886   3.271   5.122  0.0254  0.0275  0.1439
  216POPC   D2A 2959   1.561   3.399   5.447  0.2769  0.0275 -0.0645
  216POPC   C3A 2960   1.567   3.060   5.753 -0.0985 -0.1292 -0.3033
  216POPC   C4A 2961   1.532   2.801   6.041 -0.1463  0.1473 -0.0769
  216POPC   C1B 2962   2.774   3.316   5.390 -0.0768  0.0509 -0.1347
  216POPC   C2B 2963   2.979   3.257   5.729 -0.0112 -0.2040  0.0509
  216POPC   C3B 2964   3.161   3.646   5.855  0.0489  0.0100  0.1141
  216POPC   C4B 2965   3.281   3.566   6.267  0.2100 -0.1411 -0.0221
  217POPC   NC3 2966   7.879   7.057   4.438  0.0646 -0.0141 -0.1418
  217POPC   PO4 2967   7.509   7.218   4.342 -0.0839 -0.2198  0.1104
  217POPC   GL1 2968   7.644   7.423   4.746 -0.1158 -0.0390  0.2564
  217POPC   GL2 2969   7.760   7.747   4.775 -0.2021 -0.2182  0.0295
  217POPC   C1A 2970   7.846   7.285   5.101 -0.0770 -0.1364 -0.0864
  217POPC   D2A 2971   7.847   7.229   5.476  0.0474  0.2648 -0.1737
  217POPC   C3A 2972   7.478   7.378   5.679 -0.2233 -0.1247 -0.1336
  217POPC   C4A 2973   7.438   7.738   5.982 -0.0386  0.1617  0.0430
  217POPC   C1B 2974   7.909   8.074   5.000  0.0373  0.0396  0.1231
  217POPC   C2B 2975   8.068   8.101   5.350  0.0673 -0.1745 -0.0684
  217POPC   C3B 2976   8.298   8.303   5.745  0.0705  0.1203  0.1799
  217POPC   C4B 2977   8.473   8.354   6.130  0.0134 -0.0592  0.1429
  218POPC   NC3 2978   0.363   4.776   4.715 -0.2231  0.0758 -0.0591
  218POPC   PO4 2979   0.278   5.232   4.599 -0.2167 -0.2021 -0.0639
  218POPC   GL1 2980   0.205   5.330   5.047  0.1565 -0.0841 -0.0390
  218POPC   GL2 2981   0.428   5.378   5.219 -0.2263  0.0659 -0.2345
  218POPC   C1A 2982  -0.085   5.435   5.371  0.0507  0.2205  0.1052
  218POPC   D2A 2983  -0.039   5.594   5.811  0.1820  0.1802  0.0305
  218POPC   C3A 2984  -0.281   5.389   6.140  0.2455  0.1330  0.0965
  218POPC   C4A 2985  -0.421   5.627   6.437 -0.1782  0.1721 -0.0603
  218POPC   C1B 2986   0.360   5.721   5.509  0.2700 -0.1233 -0.0048
  218POPC   C2B 2987   0.416   5.709   5.962 -0.1123 -0.0659  0.1147
  218POPC   C3B 2988   0.168   5.569   6.251 -0.1218 -0.3062  0.0921
  218POPC   C4B 2989   0.075   5.594   6.771 -0.0198 -0.2365 -0.2567
  219POPC   NC3 2990   4.314   1.207   3.802 -0.2382  0.2503 -0.5840
  219POPC   PO4 2991   4.200   1.509   4.210  0.0621  0.2624  0.1149
  219POPC   GL1 2992   3.951   1.259   4.529  0.1314  0.2974 -0.0939
  219POPC   GL2 2993   3.608   1.065   4.466 -0.0076 -0.3300 -0.0343
  219POPC   C1A 2994   4.010   1.074   4.942 -0.0976  0.2280 -0.1218
  219POPC   D2A 2995   3.846   1.085   5.377 -0.0221 -0.2056  0.3710
  219POPC   C3A 2996   4.080   1.081   5.713  0.0414  0.2390 -0.1087
  219POPC   C4A 2997   4.075   1.092   6.206  0.1571  0.1502 -0.2205
  219POPC   C1B 2998   3.646   0.721   4.778 -0.0344  0.4553  0.0877
  219POPC   C2B 2999   3.801   0.533   5.173  0.3080  0.1936  0.0718
  219POPC   C3B 3000   3.732   0.677   5.634  0.1856 -0.0758 -0.0432
  219POPC   C4B 3001   3.676   0.845   5.979 -0.0224  0.0793 -0.1831
  220POPC   NC3 3002   0.489   0.312   4.564 -0.1543  0.1381  0.2449
  220POPC   PO4 3003   0.721   0.051   4.317  0.0529  0.0704  0.0755
  220POPC   GL1 3004   0.796  -0.069   4.756 -0.2105  0.0031 -0.1922
  220POPC   GL2 3005   0.454   0.050   4.967  0.0659  0.0408  0.1387
  220POPC   C1A 3006   0.889  -0.119   5.126  0.1370  0.1415  0.0268
  220POPC   D2A 3007   0.850  -0.076   5.535  0.1355 -0.2716 -0.1640
  220POPC   C3A 3008   0.588  -0.300   5.879  0.3089  0.1223  0.1755
  220POPC   C4A 3009   0.440  -0.306   6.268  0.1629 -0.2310  0.0823
  220POPC   C1B 3010   0.047   0.107   5.195  0.2981 -0.0935 -0.0004
  220POPC   C2B 3011  -0.210  -0.062   5.457  0.1541  0.0300  0.1220
  220POPC   C3B 3012  -0.426  -0.146   5.849  0.1420 -0.2985 -0.1938
  220POPC   C4B 3013  -0.574   0.095   6.178  0.1162  0.0817  0.1131
  221POPC   NC3 3014   0.805   1.207   4.319 -0.1131  0.3341 -0.1008
  221POPC   PO4 3015   1.236   1.367   4.326 -0.1167 -0.2409  0.3338
  221POPC   GL1 3016   1.129   1.269   4.814 -0.1226 -0.0185  0.0148
  221POPC   GL2 3017   1.076   0.972   4.733  0.3013 -0.0839 -0.0548
  221POPC   C1A 3018   0.913   1.161   5.201  0.0316  0.2417 -0.1472
  221POPC   D2A 3019   0.805   0.860   5.450 -0.0343  0.1882 -0.1135
  221POPC   C3A 3020   0.843   0.869   5.852 -0.1014 -0.1640  0.2664
  221POPC   C4A 3021   1.186   0.733   5.984  0.0045 -0.2902 -0.3430
  221POPC   C1B 3022   1.218   0.795   5.123  0.2065 -0.3928  0.0266
  221POPC   C2B 3023   1.466   0.582   5.460 -0.0086  0.3083  0.0225
  221POPC   C3B 3024   1.981   0.598   5.548  0.2001 -0.1155 -0.0325
  221POPC   C4B 3025   2.381   0.611   5.683  0.0340  0.2020 -0.2815
  222POPC   NC3 3026   9.058   5.227   3.942 -0.1433  0.1060  0.2284
  222POPC   PO4 3027   9.196   5.579   4.111  0.0649 -0.1340  0.1070
  222POPC   GL1 3028   9.135   5.554   4.563 -0.0720 -0.0083  0.0383
  222POPC   GL2 3029   8.868   5.759   4.734  0.1198  0.1382  0.4388
  222POPC   C1A 3030   9.286   5.538   4.996 -0.3521 -0.2068 -0.0815
  222POPC   D2A 3031   9.604   5.833   5.136 -0.0032 -0.1549 -0.0048
  222POPC   C3A 3032   9.659   6.083   5.486  0.3502 -0.0182  0.0116
  222POPC   C4A 3033  10.131   6.224   5.476 -0.0790  0.0766 -0.0089
  222POPC   C1B 3034   8.754   6.069   4.965  0.1376  0.3308  0.2689
  222POPC   C2B 3035   8.767   6.464   5.264  0.3237 -0.0715  0.1322
  222POPC   C3B 3036   8.813   6.830   5.556 -0.0262 -0.0104  0.3421
  222POPC   C4B 3037   8.588   6.974   5.822 -0.0392 -0.2009  0.0305
  223POPC   NC3 3038   4.399   3.622   4.490 -0.0883 -0.0269 -0.0635
  223POPC   PO4 3039   4.549   3.141   4.496 -0.2191  0.0884  0.1807
  223POPC   GL1 3040   4.314   2.946   4.877 -0.0310 -0.1702  0.2229
  223POPC   GL2 3041   4.370   3.269   4.970  0.0595  0.0282  0.1152
  223POPC   C1A 3042   4.361   2.794   5.370  0.2524  0.1310 -0.2455
  223POPC   D2A 3043   4.379   2.720   5.810  0.0116  0.0798  0.2670
  223POPC   C3A 3044   4.583   3.086   6.110 -0.1373  0.2320  0.3803
  223POPC   C4A 3045   4.849   3.468   6.109 -0.1128 -0.1454  0.1735
  223POPC   C1B 3046   4.039   3.239   5.314 -0.0611  0.1822 -0.0281
  223POPC   C2B 3047   3.818   2.849   5.451  0.1306  0.1984 -0.2188
  223POPC   C3B 3048   3.892   2.501   5.782  0.2231  0.1709 -0.1275
  223POPC   C4B 3049   4.003   2.332   6.178 -0.1418  0.1654  0.1546
  224POPC   NC3 3050   0.442   1.563   4.105  0.1735  0.2366  0.0963
  224POPC   PO4 3051   0.379   1.412   4.477  0.0771 -0.2334  0.0901
  224POPC   GL1 3052   0.283   1.588   4.908  0.2983  0.0156  0.3025
  224POPC   GL2 3053   0.001   1.455   5.140  0.2786 -0.0889  0.2412
  224POPC   C1A 3054   0.357   1.628   5.414 -0.1566 -0.0603  0.3286
  224POPC   D2A 3055   0.051   1.374   5.624 -0.0090 -0.0004  0.1159
  224POPC   C3A 3056   0.009   1.323   6.031  0.1242  0.1726 -0.1247
  224POPC   C4A 3057  -0.249   1.093   6.395 -0.2103  0.0996 -0.2802
  224POPC   C1B 3058  -0.174   1.808   5.357  0.0753 -0.0172 -0.1464
  224POPC   C2B 3059  -0.548   1.871   5.605 -0.1181 -0.0823 -0.2407
  224POPC   C3B 3060  -0.608   2.129   5.968 -0.0292 -0.2950  0.0356
  224POPC   C4B 3061  -0.875   1.856   6.191  0.1228  0.2736  0.0074
  225POPC   NC3 3062   8.377   9.560   3.661  0.0463  0.4127 -0.2104
  225POPC   PO4 3063   8.280   9.446   4.048  0.2515  0.1166  0.1102
  225POPC   GL1 3064   8.016   9.581   4.384  0.0955 -0.2584  0.0669
  225POPC   GL2 3065   8.257   9.727   4.516  0.1421 -0.1731 -0.0975
  225POPC   C1A 3066   7.823   9.508   4.765 -0.2498  0.0410 -0.1160
  225POPC   D2A 3067   7.723   9.633   5.220 -0.2156 -0.0751  0.1238
  225POPC   C3A 3068   7.755   9.464   5.646  0.0593 -0.2255 -0.1604
  225POPC   C4A 3069   7.339   9.490   5.883  0.2414  0.0503 -0.2683
  225POPC   C1B 3070   8.202   9.910   4.924  0.1432 -0.0033  0.1336
  225POPC   C2B 3071   8.098  10.157   5.245 -0.0498  0.0819 -0.1739
  225POPC   C3B 3072   8.044   9.937   5.656  0.2624 -0.3564  0.0792
  225POPC   C4B 3073   8.162   9.888   6.099 -0.1425 -0.1322  0.1420
  226POPC   NC3 3074   1.706   8.371   2.558  0.0948 -0.1968 -0.0392
  226POPC   PO4 3075   1.742   7.921   2.636  0.1473 -0.1949  0.3229
  226POPC   GL1 3076   1.623   8.023   3.029 -0.3328  0.5608 -0.1651
  226POPC   GL2 3077   1.820   7.753   3.219  0.1370  0.2676  0.0609
  226POPC   C1A 3078   1.553   8.136   3.498  0.2280  0.0536 -0.0574
  226POPC   D2A 3079   1.457   8.230   3.955  0.1308  0.0230  0.0954
  226POPC   C3A 3080   1.732   8.310   4.223  0.2010 -0.0700 -0.0885
  226POPC   C4A 3081   1.936   8.651   4.574  0.0609  0.1283 -0.0018
  226POPC   C1B 3082   1.947   7.940   3.734 -0.0353 -0.1242 -0.0098
  226POPC   C2B 3083   2.129   8.015   4.192 -0.1478 -0.0726  0.0156
  226POPC   C3B 3084   1.973   8.114   4.608  0.0925 -0.3682 -0.0011
  226POPC   C4B 3085   1.914   8.005   5.058  0.3510  0.0701 -0.2965
  227POPC   NC3 3086   8.863   0.735   4.405  0.0334  0.0488 -0.1594
  227POPC   PO4 3087   9.233   0.458   4.448  0.0655 -0.1781  0.1467
  227POPC   GL1 3088   9.455   0.430   4.730  0.1892  0.2901 -0.0247
  227POPC   GL2 3089   9.837   0.507   4.776 -0.0990 -0.0899  0.0115
  227POPC   C1A 3090   9.289   0.332   5.178  0.0912  0.0662  0.0168
  227POPC   D2A 3091   9.316   0.514   5.518  0.1464  0.0432  0.0372
  227POPC   C3A 3092   9.557   0.290   5.891  0.1564 -0.2123 -0.1463
  227POPC   C4A 3093   9.892   0.194   6.190  0.0090 -0.0611  0.0198
  227POPC   C1B 3094  10.064   0.596   5.228  0.3556 -0.0044  0.3872
  227POPC   C2B 3095  10.172   0.249   5.498 -0.2185  0.0277 -0.3416
  227POPC   C3B 3096   9.947  -0.080   5.629 -0.2277 -0.1323  0.0924
  227POPC   C4B 3097   9.709  -0.282   5.957 -0.0506 -0.1235  0.1547
  228POPC   NC3 3098   7.073   9.305   3.830 -0.0257 -0.1403  0.3962
  228POPC   PO4 3099   6.968   9.120   4.201 -0.1616 -0.0664  0.0887
  228POPC   GL1 3100   7.003   9.165   4.639 -0.0926 -0.1366 -0.2312
  228POPC   GL2 3101   7.359   9.161   4.711 -0.0058 -0.1310  0.0683
  228POPC   C1A 3102   6.835   9.323   5.004 -0.1898 -0.1857 -0.0376
  228POPC   D2A 3103   6.679   9.674   5.187 -0.1064  0.0394 -0.1956
  228POPC   C3A 3104   6.730  10.125   5.142  0.1136  0.0577 -0.0707
  228POPC   C4A 3105   6.783  10.523   5.058 -0.3085  0.0336 -0.1652
  228POPC   C1B 3106   7.648   9.081   5.061  0.1198 -0.2832 -0.0461
  228POPC   C2B 3107   7.937   9.100   5.396 -0.0681 -0.1230  0.0565
  228POPC   C3B 3108   8.127   9.178   5.786  0.2019 -0.3200  0.0303
  228POPC   C4B 3109   8.172   9.439   6.174 -0.2914  0.0555  0.2221
  229POPC   NC3 3110   4.276   2.624   4.175 -0.0277  0.3057 -0.1819
  229POPC   PO4 3111   4.699   2.604   4.319  0.0457 -0.0326  0.0934
  229POPC   GL1 3112   4.916   2.563   4.761 -0.0588  0.0730  0.3816
  229POPC   GL2 3113   4.905   2.851   4.900 -0.1490 -0.2191  0.0642
  229POPC   C1A 3114   4.781   2.475   5.174 -0.1089 -0.0106  0.0370
  229POPC   D2A 3115   4.508   2.338   5.538  0.0258  0.0664 -0.2513
  229POPC   C3A 3116   4.678   2.238   5.937 -0.1230 -0.1101  0.1674
  229POPC   C4A 3117   4.575   2.268   6.316  0.0057 -0.1750 -0.0885
  229POPC   C1B 3118   5.030   2.959   5.321  0.1084  0.1221  0.0208
  229POPC   C2B 3119   4.958   2.583   5.671 -0.1933 -0.0580 -0.0677
  229POPC   C3B 3120   4.891   2.637   6.058  0.0082  0.1199 -0.0216
  229POPC   C4B 3121   5.193   2.761   6.322  0.0704 -0.4463  0.1456
  230POPC   NC3 3122   6.667   1.640   3.616  0.1268 -0.3006  0.2001
  230POPC   PO4 3123   6.489   1.825   4.056  0.0999  0.0755  0.2162
  230POPC   GL1 3124   6.421   1.641   4.412 -0.2800 -0.1024  0.2594
  230POPC   GL2 3125   6.168   1.789   4.471  0.1186 -0.1259 -0.1818
  230POPC   C1A 3126   6.713   1.786   4.785 -0.4667  0.0661 -0.4510
  230POPC   D2A 3127   6.832   1.680   5.238  0.2228 -0.0575 -0.1953
  230POPC   C3A 3128   6.732   1.415   5.646 -0.2308  0.1570  0.1251
  230POPC   C4A 3129   6.823   1.117   5.901  0.1654 -0.1350  0.0517
  230POPC   C1B 3130   6.266   1.735   4.911  0.4751  0.3539 -0.1021
  230POPC   C2B 3131   6.387   1.875   5.461  0.0779  0.1409  0.3535
  230POPC   C3B 3132   6.422   2.033   5.859  0.0469 -0.0473  0.1295
  230POPC   C4B 3133   6.425   2.087   6.226 -0.0761 -0.2802 -0.1660
  231POPC   NC3 3134   7.899   2.310   4.319  0.0954 -0.1422  0.0013
  231POPC   PO4 3135   8.293   2.653   4.395 -0.0718 -0.1166  0.0068
  231POPC   GL1 3136   8.489   2.488   4.724 -0.3489 -0.0418 -0.0038
  231POPC   GL2 3137   8.866   2.490   4.689 -0.1537 -0.0120 -0.1643
  231POPC   C1A 3138   8.617   2.636   5.152  0.0778  0.1070  0.2286
  231POPC   D2A 3139   8.363   2.676   5.507 -0.0805  0.0841 -0.0596
  231POPC   C3A 3140   8.161   2.392   5.604 -0.2286  0.3170  0.0939
  231POPC   C4A 3141   8.033   2.270   5.928  0.3034  0.2568  0.4824
  231POPC   C1B 3142   9.122   2.738   4.997  0.1970  0.0166  0.4835
  231POPC   C2B 3143   9.311   2.853   5.352  0.1648 -0.1793  0.6257
  231POPC   C3B 3144   9.250   3.344   5.575  0.1092  0.2834  0.2093
  231POPC   C4B 3145   9.222   3.308   5.966  0.0960  0.1235 -0.0907
  232POPC   NC3 3146   8.207   4.075   4.360  0.2014 -0.1488  0.0797
  232POPC   PO4 3147   8.482   4.268   4.559  0.4427 -0.2746  0.0448
  232POPC   GL1 3148   8.229   4.467   4.680  0.1055  0.0105  0.2081
  232POPC   GL2 3149   8.346   4.447   5.032  0.1299 -0.0165  0.2558
  232POPC   C1A 3150   7.907   4.791   4.712 -0.1327  0.4200  0.0749
  232POPC   D2A 3151   7.910   5.185   5.012  0.1418  0.2072 -0.0302
  232POPC   C3A 3152   8.245   5.397   5.325 -0.0175 -0.0329  0.1533
  232POPC   C4A 3153   8.433   5.402   5.749 -0.0146 -0.0097  0.1279
  232POPC   C1B 3154   8.467   4.446   5.503  0.0483  0.0367  0.2258
  232POPC   C2B 3155   8.648   4.766   5.841  0.0049  0.1495  0.0265
  232POPC   C3B 3156   8.414   5.125   6.148 -0.2170 -0.1817  0.2089
  232POPC   C4B 3157   8.383   5.528   6.219 -0.2053 -0.2249  0.1311
  233POPC   NC3 3158   9.370   6.867   4.077 -0.0425 -0.1830 -0.0063
  233POPC   PO4 3159   9.734   6.913   4.311 -0.0566 -0.0635  0.1840
  233POPC   GL1 3160   9.811   7.203   4.625  0.0052 -0.0774 -0.1866
  233POPC   GL2 3161   9.537   7.418   4.607  0.0695  0.0720  0.0540
  233POPC   C1A 3162   9.915   7.273   5.036  0.3016  0.3092 -0.2580
  233POPC   D2A 3163  10.019   7.145   5.500 -0.0289 -0.0268 -0.1273
  233POPC   C3A 3164  10.066   7.036   5.901  0.0314  0.1410 -0.0292
  233POPC   C4A 3165   9.625   7.145   6.190 -0.1180  0.1690 -0.2406
  233POPC   C1B 3166   9.715   7.654   4.875 -0.0659 -0.3247  0.3211
  233POPC   C2B 3167   9.925   7.808   5.183 -0.0204  0.0545 -0.0059
  233POPC   C3B 3168  10.204   8.118   5.553  0.0241 -0.0195  0.1049
  233POPC   C4B 3169  10.377   8.469   5.785  0.1436 -0.0180  0.1884
  234POPC   NC3 3170   9.068   6.057   4.327 -0.1257  0.0484  0.0932
  234POPC   PO4 3171   9.069   6.455   4.099 -0.0269 -0.3308 -0.1233
  234POPC   GL1 3172   9.216   6.515   4.526 -0.1627 -0.0543  0.0250
  234POPC   GL2 3173   9.361   6.714   4.611  0.0530  0.0549  0.1417
  234POPC   C1A 3174   9.140   6.439   4.969 -0.2144  0.3109  0.0250
  234POPC   D2A 3175   9.164   6.133   5.296  0.0199  0.5776 -0.0895
  234POPC   C3A 3176   8.857   6.061   5.632  0.1235  0.1036  0.0112
  234POPC   C4A 3177   8.541   6.049   5.986 -0.1360 -0.0873 -0.0311
  234POPC   C1B 3178   9.473   7.002   4.945  0.0876  0.3485 -0.2246
  234POPC   C2B 3179   9.606   6.951   5.329  0.0964  0.0770 -0.0303
  234POPC   C3B 3180   9.814   6.663   5.657  0.1040  0.2152  0.1399
  234POPC   C4B 3181   9.841   6.660   6.092  0.1450  0.0330  0.1775
  235POPC   NC3 3182   0.620   3.894   4.377  0.0171  0.1723  0.1378
  235POPC   PO4 3183   0.299   4.284   4.457 -0.0245 -0.0763 -0.1362
  235POPC   GL1 3184   0.505   4.275   4.782  0.0155 -0.2494 -0.0872
  235POPC   GL2 3185   0.538   3.977   4.848 -0.0643 -0.2227 -0.4660
  235POPC   C1A 3186   0.538   4.230   5.261 -0.0876 -0.0005 -0.1164
  235POPC   D2A 3187   0.345   4.178   5.629 -0.3655  0.2079 -0.1178
  235POPC   C3A 3188   0.329   3.950   5.997  0.0448  0.3135  0.4491
  235POPC   C4A 3189   0.393   3.662   6.259  0.3739  0.2465  0.0219
  235POPC   C1B 3190   0.779   3.683   5.067  0.0352 -0.0911  0.2398
  235POPC   C2B 3191   0.608   3.331   5.288  0.2438 -0.0175 -0.0079
  235POPC   C3B 3192   0.472   3.231   5.723  0.0919 -0.1592  0.0714
  235POPC   C4B 3193   0.347   3.052   6.148  0.2375  0.0278  0.0494
  236POPC   NC3 3194   3.637   9.289   3.034 -0.0450  0.3554 -0.0325
  236POPC   PO4 3195   3.861   8.815   3.249 -0.1058  0.0875 -0.0714
  236POPC   GL1 3196   3.968   8.533   3.606  0.1153 -0.1754 -0.1383
  236POPC   GL2 3197   3.828   8.565   3.880 -0.0457  0.0851  0.2653
  236POPC   C1A 3198   3.786   8.081   3.667 -0.0755  0.0062  0.2567
  236POPC   D2A 3199   3.361   7.871   3.588  0.1173 -0.0720 -0.1011
  236POPC   C3A 3200   3.290   7.646   4.034 -0.4187  0.0354  0.0438
  236POPC   C4A 3201   2.982   7.462   4.357  0.0036  0.0897 -0.3942
  236POPC   C1B 3202   3.799   8.689   4.340 -0.1742 -0.4276 -0.0713
  236POPC   C2B 3203   3.506   8.753   4.721 -0.2526 -0.2003  0.0935
  236POPC   C3B 3204   3.036   8.904   4.784 -0.2669 -0.0011 -0.1308
  236POPC   C4B 3205   2.783   9.212   4.685  0.1612  0.3471  0.3286
  237POPC   NC3 3206   0.702   5.513   4.689  0.0741  0.3131  0.1224
  237POPC   PO4 3207   0.673   5.102   4.915 -0.2655 -0.0800  0.2670
  237POPC   GL1 3208   0.451   4.821   5.249  0.2233 -0.1372 -0.1211
  237POPC   GL2 3209   0.108   4.907   5.329 -0.0611 -0.1988 -0.1992
  237POPC   C1A 3210   0.545   4.724   5.674 -0.1828  0.0276  0.1590
  237POPC   D2A 3211   1.038   4.858   5.873  0.0920 -0.0109 -0.1735
  237POPC   C3A 3212   1.116   4.665   6.345 -0.1045 -0.2161 -0.1598
  237POPC   C4A 3213   1.396   4.982   6.663  0.0460  0.0478 -0.2767
  237POPC   C1B 3214   0.289   5.151   5.699  0.0189  0.3039  0.0649
  237POPC   C2B 3215   0.637   5.192   5.971 -0.1914  0.1942 -0.3628
  237POPC   C3B 3216   0.956   5.174   6.273  0.0750  0.0699  0.2737
  237POPC   C4B 3217   1.023   5.359   6.653 -0.1014  0.2005  0.3145
  238POPC   NC3 3218   6.752   3.583   3.720 -0.2792 -0.1291  0.1154
  238POPC   PO4 3219   6.673   3.294   3.917 -0.1543  0.1241  0.2456
  238POPC   GL1 3220   6.786   3.233   4.286  0.2890  0.1105 -0.0759
  238POPC   GL2 3221   6.474   3.334   4.373 -0.1287 -0.3504  0.0384
  238POPC   C1A 3222   6.936   3.041   4.717 -0.2318 -0.0967  0.2462
  238POPC   D2A 3223   7.379   3.036   4.926 -0.1816  0.2722 -0.0914
  238POPC   C3A 3224   7.573   3.167   5.344 -0.1987  0.1095 -0.1621
  238POPC   C4A 3225   7.729   3.358   5.759  0.0799  0.1706 -0.0460
  238POPC   C1B 3226   6.296   3.296   4.786 -0.1909 -0.1118 -0.1874
  238POPC   C2B 3227   6.341   3.269   5.223  0.0526 -0.0070 -0.1974
  238POPC   C3B 3228   6.409   3.355   5.673  0.2358  0.1313 -0.2149
  238POPC   C4B 3229   6.227   3.380   6.079  0.0316 -0.0325  0.0762
  239POPC   NC3 3230   5.020   2.967   4.420  0.3023 -0.0385  0.1891
  239POPC   PO4 3231   5.371   2.901   4.178 -0.1458  0.0818  0.1956
  239POPC   GL1 3232   5.612   2.906   4.566  0.0231 -0.1322  0.0067
  239POPC   GL2 3233   5.619   2.611   4.605  0.0972  0.2108  0.1582
  239POPC   C1A 3234   5.826   3.080   4.886 -0.1190 -0.1624 -0.0094
  239POPC   D2A 3235   5.844   3.237   5.316  0.0511 -0.0223 -0.0048
  239POPC   C3A 3236   6.063   2.994   5.566 -0.2110 -0.3155 -0.0033
  239POPC   C4A 3237   5.927   3.004   5.968 -0.0161  0.1281  0.3009
  239POPC   C1B 3238   5.346   2.579   4.935  0.2924  0.0034  0.1365
  239POPC   C2B 3239   5.290   2.377   5.410  0.1314 -0.2792 -0.1150
  239POPC   C3B 3240   5.338   2.456   5.908 -0.2149  0.2278 -0.2351
  239POPC   C4B 3241   5.570   2.165   6.165  0.1547  0.1028  0.2134
  240POPC   NC3 3242   9.575   7.312   4.098  0.0394 -0.1294 -0.3592
  240POPC   PO4 3243  10.049   7.325   4.121  0.1084 -0.2201  0.3366
  240POPC   GL1 3244  10.329   7.161   4.403 -0.2888  0.0410  0.0781
  240POPC   GL2 3245  10.334   7.048   4.734 -0.1848 -0.0623  0.1297
  240POPC   C1A 3246  10.756   7.281   4.593  0.1674 -0.1286  0.0775
  240POPC   D2A 3247  10.647   7.412   4.950 -0.2464  0.0798  0.0013
  240POPC   C3A 3248  10.299   7.470   5.240  0.1057 -0.4181  0.0181
  240POPC   C4A 3249  10.130   7.603   5.622 -0.1002 -0.0247  0.0048
  240POPC   C1B 3250  10.490   7.024   5.158  0.2280  0.1202  0.0073
  240POPC   C2B 3251  10.532   7.182   5.587 -0.4698 -0.1420  0.0764
  240POPC   C3B 3252  10.563   7.024   6.029 -0.5041 -0.1696 -0.0685
  240POPC   C4B 3253  10.909   6.941   6.394 -0.2976  0.0591  0.4249
  241POPC   NC3 3254   3.448   2.368   4.036 -0.0303 -0.0641  0.1200
  241POPC   PO4 3255   3.811   2.493   4.339  0.2145  0.2230  0.0582
  241POPC   GL1 3256   3.719   2.487   4.712  0.0444 -0.3811  0.0642
  241POPC   GL2 3257   3.456   2.487   4.917  0.1544 -0.1370  0.3229
  241POPC   C1A 3258   4.015   2.540   5.024  0.0607  0.3142  0.2580
  241POPC   D2A 3259   4.043   2.320   5.337  0.1369  0.0212 -0.0349
  241POPC   C3A 3260   3.683   2.071   5.580  0.0551  0.1434  0.0312
  241POPC   C4A 3261   3.741   1.891   6.000 -0.0411 -0.1522 -0.0617
  241POPC   C1B 3262   3.533   2.472   5.282  0.0031  0.1887  0.1524
  241POPC   C2B 3263   3.346   2.399   5.736  0.0677  0.2707  0.1152
  241POPC   C3B 3264   3.104   2.264   6.132 -0.0386  0.2117  0.3456
  241POPC   C4B 3265   3.017   2.128   6.575  0.0758 -0.3345 -0.0965
  242POPC   NC3 3266   9.081   8.081   3.906  0.0101 -0.0830 -0.1996
  242POPC   PO4 3267   8.987   7.743   4.079 -0.2604  0.0305 -0.2639
  242POPC   GL1 3268   9.340   7.849   4.374 -0.3496  0.1648  0.0378
  242POPC   GL2 3269   9.107   7.773   4.671  0.3245  0.2319  0.2012
  242POPC   C1A 3270   9.492   8.110   4.664  0.0807  0.2738 -0.1077
  242POPC   D2A 3271   9.494   8.072   5.054  0.2821 -0.1149 -0.0528
  242POPC   C3A 3272   9.752   8.237   5.387 -0.1829 -0.0701  0.1847
  242POPC   C4A 3273   9.875   8.489   5.793  0.0365  0.0363 -0.2188
  242POPC   C1B 3274   9.269   7.564   5.012  0.0999  0.3171  0.0021
  242POPC   C2B 3275   9.489   7.448   5.340 -0.1210  0.3281 -0.1736
  242POPC   C3B 3276   9.645   7.407   5.742  0.1095  0.0327 -0.0106
  242POPC   C4B 3277   9.936   7.562   6.055  0.4014 -0.0415  0.0001
  243POPC   NC3 3278   7.068   5.441   3.882 -0.2597 -0.1309  0.1873
  243POPC   PO4 3279   7.339   5.306   4.182  0.2657 -0.3304 -0.1412
  243POPC   GL1 3280   7.054   5.448   4.543  0.0482 -0.1401 -0.0923
  243POPC   GL2 3281   6.744   5.295   4.610  0.0410  0.1479 -0.3727
  243POPC   C1A 3282   6.996   5.684   4.948  0.0806  0.3248  0.4224
  243POPC   D2A 3283   7.109   5.526   5.346  0.1519 -0.2365  0.0792
  243POPC   C3A 3284   7.371   5.591   5.646 -0.1132  0.0773 -0.2273
  243POPC   C4A 3285   7.646   5.947   5.777 -0.1993 -0.0919  0.1864
  243POPC   C1B 3286   6.772   5.185   4.998  0.0409  0.1000 -0.1795
  243POPC   C2B 3287   6.821   5.120   5.387  0.0469 -0.0560 -0.0162
  243POPC   C3B 3288   6.962   5.278   5.752 -0.6590 -0.2120  0.0653
  243POPC   C4B 3289   6.785   5.454   6.195  0.1262  0.0148  0.0177
  244POPC   NC3 3290   2.879   5.179   4.206 -0.0324  0.2801  0.2532
  244POPC   PO4 3291   2.403   5.100   4.021  0.0535 -0.3477  0.2808
  244POPC   GL1 3292   2.393   5.217   4.507 -0.0277 -0.0894  0.3705
  244POPC   GL2 3293   2.583   5.072   4.620 -0.1100 -0.3147 -0.0634
  244POPC   C1A 3294   2.185   5.182   4.955  0.3664 -0.0893 -0.2308
  244POPC   D2A 3295   1.924   5.198   5.348  0.0119 -0.0138  0.3966
  244POPC   C3A 3296   1.660   5.504   5.371 -0.4071  0.2087 -0.2902
  244POPC   C4A 3297   1.733   5.970   5.600  0.0339  0.1925 -0.1786
  244POPC   C1B 3298   2.646   5.307   4.945  0.1897 -0.0615 -0.3339
  244POPC   C2B 3299   2.327   5.507   5.283  0.0821 -0.1047  0.0540
  244POPC   C3B 3300   2.088   5.586   5.612  0.2104 -0.0266  0.0714
  244POPC   C4B 3301   1.742   5.423   5.896  0.0844  0.3480  0.2736
  245POPC   NC3 3302   7.200   3.382   4.005 -0.2506  0.1350  0.1323
  245POPC   PO4 3303   7.011   3.761   4.197  0.2268 -0.1672  0.1813
  245POPC   GL1 3304   6.949   3.766   4.677  0.1264 -0.0535 -0.0920
  245POPC   GL2 3305   6.618   3.692   4.763 -0.0343  0.0544 -0.0075
  245POPC   C1A 3306   7.126   3.554   4.825  0.3621 -0.1104  0.1462
  245POPC   D2A 3307   6.997   3.205   5.185  0.1329  0.3922  0.0684
  245POPC   C3A 3308   6.877   3.159   5.601  0.0141 -0.0311 -0.1734
  245POPC   C4A 3309   6.645   3.048   5.958 -0.0060  0.1900 -0.3880
  245POPC   C1B 3310   6.730   3.607   5.147 -0.1005 -0.1270  0.2699
  245POPC   C2B 3311   6.754   3.705   5.574  0.0570  0.0467  0.0611
  245POPC   C3B 3312   6.503   3.893   5.894  0.2029 -0.3780  0.0717
  245POPC   C4B 3313   6.179   3.883   6.197  0.2474 -0.0433  0.0877
  246POPC   NC3 3314   4.297   6.652   2.793 -0.2748 -0.3540  0.0107
  246POPC   PO4 3315   4.208   7.049   3.008  0.1034 -0.2236  0.0468
  246POPC   GL1 3316   3.938   7.032   3.382  0.0041  0.0342 -0.2023
  246POPC   GL2 3317   3.566   7.309   3.442  0.2912  0.6877  0.0285
  246POPC   C1A 3318   3.881   7.081   3.735  0.0623 -0.2657  0.0228
  246POPC   D2A 3319   3.926   6.974   4.131 -0.3843 -0.0217 -0.2285
  246POPC   C3A 3320   4.231   7.019   4.430 -0.0328 -0.1210  0.0068
  246POPC   C4A 3321   4.710   6.975   4.498  0.0474  0.3826  0.3121
  246POPC   C1B 3322   3.744   7.561   3.767  0.0108 -0.4004 -0.3121
  246POPC   C2B 3323   3.955   7.489   4.197 -0.1134 -0.1205 -0.0178
  246POPC   C3B 3324   3.862   7.852   4.611 -0.0901  0.0543  0.0059
  246POPC   C4B 3325   4.062   7.967   4.929  0.3048 -0.1795 -0.0620
  247POPC   NC3 3326   7.798   3.827   3.806  0.1312 -0.5414 -0.0905
  247POPC   PO4 3327   7.675   3.474   4.193 -0.1869 -0.2315  0.1794
  247POPC   GL1 3328   7.602   3.665   4.611 -0.1621 -0.1617  0.3168
  247POPC   GL2 3329   7.548   3.935   4.646  0.2461 -0.0090  0.0702
  247POPC   C1A 3330   7.821   3.400   4.913 -0.1977 -0.0609  0.0567
  247POPC   D2A 3331   7.873   3.698   5.332 -0.1872 -0.1010 -0.1050
  247POPC   C3A 3332   8.230   3.567   5.608 -0.3441  0.1496 -0.0798
  247POPC   C4A 3333   8.467   3.366   5.900  0.1015  0.1787 -0.0007
  247POPC   C1B 3334   7.452   3.942   5.058 -0.1845 -0.2066  0.2433
  247POPC   C2B 3335   7.261   3.717   5.341  0.2468 -0.0455  0.2493
  247POPC   C3B 3336   7.175   3.516   5.687 -0.1715  0.1261  0.0940
  247POPC   C4B 3337   7.253   3.191   6.019  0.1616 -0.0970  0.1119
  248POPC   NC3 3338   3.737   1.464   4.144  0.1348  0.1644 -0.2152
  248POPC   PO4 3339   3.924   1.064   4.074  0.1261 -0.0175 -0.1519
  248POPC   GL1 3340   4.320   1.001   4.318  0.0912  0.0599  0.2236
  248POPC   GL2 3341   4.466   0.874   4.195 -0.0208  0.1767 -0.0558
  248POPC   C1A 3342   4.252   0.689   4.658 -0.2185 -0.2474 -0.0637
  248POPC   D2A 3343   4.292   0.563   5.140  0.0497 -0.1022  0.2189
  248POPC   C3A 3344   4.404   0.730   5.481 -0.1863 -0.3054  0.0336
  248POPC   C4A 3345   4.430   0.794   5.876 -0.1218 -0.2608 -0.1567
  248POPC   C1B 3346   4.668   0.993   4.678  0.1334 -0.0401 -0.0501
  248POPC   C2B 3347   4.706   1.001   5.147 -0.2801  0.3269  0.2343
  248POPC   C3B 3348   4.934   1.035   5.591  0.0566  0.1102 -0.3752
  248POPC   C4B 3349   4.947   0.718   5.945  0.3568 -0.1235  0.0054
  249POPC   NC3 3350   1.560   3.927   3.791 -0.0881  0.0849  0.4279
  249POPC   PO4 3351   1.932   3.810   4.071  0.0971 -0.1370  0.0249
  249POPC   GL1 3352   1.997   3.884   4.560  0.1375  0.0796  0.2830
  249POPC   GL2 3353   1.993   3.664   4.838 -0.1169 -0.0277 -0.0780
  249POPC   C1A 3354   2.072   4.150   5.003 -0.2742 -0.3629 -0.2442
  249POPC   D2A 3355   1.944   4.364   5.482 -0.0957 -0.0206 -0.1186
  249POPC   C3A 3356   2.237   4.377   5.866 -0.1791  0.0374 -0.0562
  249POPC   C4A 3357   2.538   4.644   6.053 -0.1599  0.1785 -0.0536
  249POPC   C1B 3358   1.905   3.782   5.262 -0.1934  0.2635  0.1572
  249POPC   C2B 3359   2.111   3.885   5.690  0.0527 -0.1047  0.0648
  249POPC   C3B 3360   2.391   3.925   6.063 -0.0316  0.1637  0.1638
  249POPC   C4B 3361   2.769   4.219   6.213  0.1227  0.2478  0.0565
  250POPC   NC3 3362   4.756   5.067   3.755 -0.4528 -0.1968 -0.2581
  250POPC   PO4 3363   4.453   5.056   4.221 -0.0445  0.0411 -0.0070
  250POPC   GL1 3364   4.482   4.990   4.695  0.0489  0.1891 -0.1960
  250POPC   GL2 3365   4.721   5.024   4.791  0.1932  0.0259 -0.0102
  250POPC   C1A 3366   4.441   4.915   5.220 -0.2125  0.2245  0.1470
  250POPC   D2A 3367   4.486   4.996   5.584  0.1369  0.0686  0.0937
  250POPC   C3A 3368   4.347   5.357   5.733 -0.0974  0.1954  0.2184
  250POPC   C4A 3369   4.419   5.552   6.130 -0.2842  0.0741  0.0148
  250POPC   C1B 3370   4.845   5.149   5.257  0.0880  0.0683  0.0065
  250POPC   C2B 3371   4.851   5.374   5.645  0.4210  0.2141  0.0081
  250POPC   C3B 3372   4.855   5.761   5.960  0.3033 -0.2524 -0.0640
  250POPC   C4B 3373   4.957   5.746   6.295  0.2297  0.1210  0.0483
  251POPC   NC3 3374   6.527   4.911   4.249  0.0723 -0.2068 -0.2028
  251POPC   PO4 3375   6.425   4.542   4.142  0.3136 -0.0532 -0.2106
  251POPC   GL1 3376   6.424   4.477   4.610 -0.0873  0.1044  0.5452
  251POPC   GL2 3377   6.623   4.245   4.773 -0.0915  0.0822 -0.2443
  251POPC   C1A 3378   6.316   4.630   4.997  0.0049 -0.3524 -0.0961
  251POPC   D2A 3379   6.192   4.909   5.347  0.0394 -0.6257 -0.0619
  251POPC   C3A 3380   6.265   4.795   5.720 -0.1405  0.0514  0.0669
  251POPC   C4A 3381   6.206   4.758   6.137  0.1271 -0.3619 -0.1974
  251POPC   C1B 3382   6.449   4.125   5.114 -0.0483 -0.0547 -0.0443
  251POPC   C2B 3383   6.336   4.301   5.490  0.2202  0.5220 -0.1470
  251POPC   C3B 3384   6.191   4.333   5.935 -0.0464 -0.1361  0.0684
  251POPC   C4B 3385   6.062   4.283   6.402 -0.1355 -0.1831  0.0085
  252POPC   NC3 3386   2.941   2.033   4.473 -0.1209 -0.2167 -0.0070
  252POPC   PO4 3387   3.307   2.126   4.424  0.1145  0.3287  0.0191
  252POPC   GL1 3388   3.379   1.871   4.722  0.0181 -0.0989 -0.3123
  252POPC   GL2 3389   3.008   1.677   4.784  0.0988  0.1269  0.1597
  252POPC   C1A 3390   3.489   1.519   4.765  0.1502  0.3066 -0.0316
  252POPC   D2A 3391   3.485   1.120   5.017  0.3250  0.0268  0.3307
  252POPC   C3A 3392   3.361   1.231   5.469  0.0205 -0.1204 -0.0038
  252POPC   C4A 3393   3.617   1.349   5.847 -0.0162  0.0753 -0.2767
  252POPC   C1B 3394   2.567   1.582   4.876 -0.0134  0.0359 -0.4675
  252POPC   C2B 3395   2.331   1.331   5.092 -0.0100  0.1093  0.2180
  252POPC   C3B 3396   2.269   1.159   5.510  0.0978 -0.1881  0.2894
  252POPC   C4B 3397   2.074   1.015   5.776  0.0771 -0.1342 -0.0315
  253POPC   NC3 3398   0.417   9.001   3.665 -0.0920  0.1110 -0.3874
  253POPC   PO4 3399   0.229   9.048   4.057 -0.0943 -0.0401 -0.0730
  253POPC   GL1 3400   0.296   9.007   4.449  0.0947  0.1494 -0.0532
  253POPC   GL2 3401   0.132   8.891   4.760 -0.0260 -0.2203  0.1430
  253POPC   C1A 3402   0.527   9.066   4.868 -0.0870 -0.0108  0.2741
  253POPC   D2A 3403   0.747   8.788   5.197  0.0818 -0.0685 -0.0488
  253POPC   C3A 3404   0.486   8.392   5.133 -0.2321 -0.3240 -0.0211
  253POPC   C4A 3405   0.143   8.421   4.857  0.2138  0.2088 -0.1531
  253POPC   C1B 3406   0.234   8.768   5.256  0.0908  0.4579  0.1159
  253POPC   C2B 3407   0.139   8.999   5.605 -0.1822  0.2278 -0.3711
  253POPC   C3B 3408   0.324   8.968   5.978 -0.0610  0.1078 -0.0659
  253POPC   C4B 3409   0.687   8.707   6.249  0.3599 -0.2289 -0.0931
  254POPC   NC3 3410   4.739   0.558   3.916  0.1190 -0.1091 -0.1400
  254POPC   PO4 3411   4.979   0.272   3.954 -0.1060  0.1383  0.0854
  254POPC   GL1 3412   4.610   0.145   4.167 -0.1667 -0.0963 -0.1116
  254POPC   GL2 3413   4.389   0.359   4.234  0.0654  0.3535  0.0692
  254POPC   C1A 3414   4.636  -0.096   4.560  0.0280 -0.0988  0.2714
  254POPC   D2A 3415   4.799  -0.151   5.010  0.1913 -0.0676 -0.1690
  254POPC   C3A 3416   4.468  -0.157   5.280  0.1732 -0.1843 -0.0588
  254POPC   C4A 3417   4.337  -0.171   5.725 -0.1031  0.0851  0.1303
  254POPC   C1B 3418   4.212   0.225   4.532  0.1479  0.2828 -0.0656
  254POPC   C2B 3419   4.230   0.089   4.929  0.1152  0.0554  0.1153
  254POPC   C3B 3420   4.067   0.137   5.376 -0.4437 -0.3622  0.2234
  254POPC   C4B 3421   4.259   0.289   5.634  0.2505 -0.0677 -0.6375
  255POPC   NC3 3422   6.774   4.094   3.918 -0.1699  0.0692  0.1301
  255POPC   PO4 3423   7.036   4.425   3.927 -0.0444  0.1444  0.1281
  255POPC   GL1 3424   6.934   4.403   4.334  0.1736  0.1448  0.2419
  255POPC   GL2 3425   6.994   4.761   4.516 -0.1354  0.2144  0.2165
  255POPC   C1A 3426   7.142   4.200   4.771 -0.0002  0.0375  0.0552
  255POPC   D2A 3427   6.989   4.076   5.127  0.0539 -0.0231 -0.0179
  255POPC   C3A 3428   6.814   4.196   5.615  0.0329  0.2095  0.1272
  255POPC   C4A 3429   6.671   4.353   5.960 -0.1698  0.1394 -0.2537
  255POPC   C1B 3430   6.868   4.634   4.925  0.3190 -0.0197  0.1989
  255POPC   C2B 3431   6.847   4.643   5.294  0.0771  0.2405 -0.1433
  255POPC   C3B 3432   6.916   4.768   5.772 -0.2161  0.1792 -0.0557
  255POPC   C4B 3433   6.638   4.956   6.040  0.1036  0.2855  0.2310
  256POPC   NC3 3434   8.711   4.719   4.485 -0.0389 -0.2843 -0.2000
  256POPC   PO4 3435   8.698   5.192   4.290 -0.0313 -0.0759  0.0241
  256POPC   GL1 3436   8.665   5.299   4.674  0.0560 -0.0686  0.0225
  256POPC   GL2 3437   8.408   5.036   4.813 -0.1819  0.1278 -0.1454
  256POPC   C1A 3438   8.781   5.395   5.015  0.3607  0.1579  0.1226
  256POPC   D2A 3439   8.840   5.660   5.258 -0.0827  0.1190 -0.1723
  256POPC   C3A 3440   9.188   5.656   5.538 -0.1598  0.0358  0.1214
  256POPC   C4A 3441   9.282   5.909   5.873  0.0482  0.1544  0.2570
  256POPC   C1B 3442   8.298   4.888   5.175  0.0391 -0.4109 -0.3085
  256POPC   C2B 3443   8.179   4.965   5.584  0.1602  0.0932  0.1947
  256POPC   C3B 3444   8.073   4.761   5.994 -0.1917 -0.3238  0.2203
  256POPC   C4B 3445   8.180   4.769   6.452  0.0731  0.1808  0.2584
  257POPC   NC3 3446   9.619   1.569   4.562 -0.2748 -0.1465 -0.0337
  257POPC   PO4 3447   9.201   1.520   4.341 -0.1697  0.2470 -0.2351
  257POPC   GL1 3448   9.032   1.459   4.766  0.0902 -0.1167 -0.4042
  257POPC   GL2 3449   9.239   1.370   4.934  0.0119  0.0500 -0.1931
  257POPC   C1A 3450   8.800   1.282   5.179 -0.2805 -0.2630 -0.0552
  257POPC   D2A 3451   8.616   1.082   5.537 -0.0219  0.1425 -0.0329
  257POPC   C3A 3452   8.672   1.124   5.983 -0.0144 -0.2680 -0.1802
  257POPC   C4A 3453   8.975   1.198   6.295 -0.0433  0.0334  0.2041
  257POPC   C1B 3454   9.268   1.401   5.359 -0.1258 -0.0364  0.2227
  257POPC   C2B 3455   9.199   1.266   5.727 -0.4083 -0.0607 -0.0285
  257POPC   C3B 3456   9.335   0.903   5.948 -0.1718  0.0230  0.0441
  257POPC   C4B 3457   9.742   0.706   6.214 -0.1687  0.0561  0.2914
  258POPC   NC3 3458   3.588   3.249   4.490  0.0963 -0.3696  0.1402
  258POPC   PO4 3459   3.897   3.588   4.354  0.1628 -0.1261 -0.0671
  258POPC   GL1 3460   3.972   3.470   4.796  0.0692 -0.2186  0.0577
  258POPC   GL2 3461   3.730   3.551   4.941 -0.2412 -0.3089  0.0319
  258POPC   C1A 3462   4.173   3.727   5.161  0.1131  0.3502  0.1198
  258POPC   D2A 3463   4.045   3.750   5.592  0.1839  0.2385  0.1999
  258POPC   C3A 3464   4.381   3.440   5.833  0.0861  0.1248  0.1498
  258POPC   C4A 3465   4.681   3.161   5.647  0.3881 -0.3232 -0.3429
  258POPC   C1B 3466   3.562   3.509   5.376 -0.0341 -0.1336  0.0137
  258POPC   C2B 3467   3.647   3.200   5.738  0.0027 -0.1551  0.1717
  258POPC   C3B 3468   3.909   2.996   6.039 -0.3457  0.3292 -0.0097
  258POPC   C4B 3469   4.142   2.983   6.337 -0.4199  0.3314 -0.1139
  259POPC   NC3 3470   6.213   7.176   3.887  0.1795  0.4418  0.1662
  259POPC   PO4 3471   6.520   7.015   4.071  0.0648  0.0197 -0.2896
  259POPC   GL1 3472   6.524   7.152   4.573  0.1286 -0.1165 -0.1195
  259POPC   GL2 3473   6.517   7.321   4.989  0.0430 -0.0168  0.1358
  259POPC   C1A 3474   6.152   7.371   4.546  0.1563  0.2046  0.1624
  259POPC   D2A 3475   5.950   7.470   4.850  0.4200 -0.0148 -0.1261
  259POPC   C3A 3476   5.962   7.734   5.275  0.0554  0.2142 -0.1653
  259POPC   C4A 3477   6.005   7.621   5.709  0.1963 -0.3187 -0.2829
  259POPC   C1B 3478   6.395   6.908   5.246  0.0866  0.0282 -0.1451
  259POPC   C2B 3479   6.432   6.636   5.579  0.0902 -0.1287  0.1581
  259POPC   C3B 3480   6.580   6.161   5.597  0.2175  0.0787 -0.2300
  259POPC   C4B 3481   6.703   5.747   5.741  0.0945  0.0664 -0.0931
  260POPC   NC3 3482   4.332   7.491   2.968  0.0007 -0.0919  0.1425
  260POPC   PO4 3483   4.223   7.891   3.092  0.1302 -0.0397  0.2501
  260POPC   GL1 3484   4.275   8.005   3.546 -0.0721  0.0833 -0.2526
  260POPC   GL2 3485   4.538   8.162   3.546 -0.3250  0.1134  0.1286
  260POPC   C1A 3486   4.165   7.883   3.931 -0.2003  0.1248 -0.1182
  260POPC   D2A 3487   4.306   7.797   4.373  0.0343 -0.0547  0.0632
  260POPC   C3A 3488   4.150   7.468   4.744  0.1242  0.2042 -0.2162
  260POPC   C4A 3489   3.819   7.259   4.611 -0.1004  0.3161  0.0090
  260POPC   C1B 3490   4.665   7.766   3.813  0.2139  0.2279 -0.0499
  260POPC   C2B 3491   4.613   7.441   4.191 -0.0427 -0.1336  0.0129
  260POPC   C3B 3492   4.687   7.468   4.584 -0.0889 -0.0158 -0.0722
  260POPC   C4B 3493   4.523   7.714   4.909 -0.1394 -0.1103  0.0163
  261POPC   NC3 3494   5.700   2.478   4.107 -0.1001 -0.2441  0.1252
  261POPC   PO4 3495   5.950   2.758   4.249  0.4428 -0.0430 -0.3399
  261POPC   GL1 3496   6.187   2.757   4.633 -0.3371  0.1211 -0.0450
  261POPC   GL2 3497   6.495   2.674   4.498  0.2149  0.2899 -0.2060
  261POPC   C1A 3498   6.127   2.783   5.077  0.2960  0.3111 -0.4183
  261POPC   D2A 3499   5.727   2.629   5.293 -0.3261  0.1602  0.0511
  261POPC   C3A 3500   5.522   2.891   5.668 -0.0718  0.1474 -0.2223
  261POPC   C4A 3501   5.204   3.144   5.911  0.1401  0.2508  0.2420
  261POPC   C1B 3502   6.555   2.729   4.906  0.0991  0.4386 -0.0569
  261POPC   C2B 3503   6.548   2.778   5.442 -0.4585  0.3245 -0.1321
  261POPC   C3B 3504   6.296   2.725   5.948 -0.1244 -0.2727 -0.1369
  261POPC   C4B 3505   6.083   2.431   6.288  0.2087 -0.1167  0.1516
  262POPC   NC3 3506   9.654   0.722   4.327  0.2742 -0.0733 -0.1941
  262POPC   PO4 3507  10.080   0.877   4.483  0.0165  0.0985  0.3493
  262POPC   GL1 3508  10.250   0.950   4.915 -0.1485  0.1038 -0.3709
  262POPC   GL2 3509  10.358   1.231   4.813 -0.1120 -0.2357 -0.1399
  262POPC   C1A 3510  10.104   1.096   5.399  0.2779  0.0094  0.0118
  262POPC   D2A 3511  10.231   1.274   5.701 -0.0749 -0.1315 -0.0945
  262POPC   C3A 3512  10.233   1.174   6.073 -0.0985  0.0405  0.1572
  262POPC   C4A 3513  10.521   0.985   6.326 -0.0626  0.2266  0.1070
  262POPC   C1B 3514  10.485   1.612   5.094 -0.0623 -0.1209  0.1881
  262POPC   C2B 3515  10.649   1.597   5.567 -0.0808 -0.0041 -0.0252
  262POPC   C3B 3516  10.684   1.348   5.900 -0.4140 -0.1204  0.2744
  262POPC   C4B 3517  10.948   1.272   6.231 -0.0960 -0.0236  0.0724
  263POPC   NC3 3518   1.877   6.138   3.875 -0.0440  0.3303 -0.1539
  263POPC   PO4 3519   1.698   5.726   4.091  0.0284  0.1667  0.1453
  263POPC   GL1 3520   1.865   5.751   4.542 -0.2452 -0.0170  0.0958
  263POPC   GL2 3521   2.100   5.568   4.672 -0.4143  0.0131  0.0995
  263POPC   C1A 3522   1.927   5.783   5.029  0.1669  0.0211  0.0617
  263POPC   D2A 3523   2.087   6.068   5.265  0.0647  0.3430 -0.1611
  263POPC   C3A 3524   2.403   5.985   5.495  0.0043 -0.0544 -0.1502
  263POPC   C4A 3525   2.696   5.933   5.818  0.2920 -0.1979  0.2151
  263POPC   C1B 3526   2.400   5.751   4.854 -0.0331 -0.1963  0.0865
  263POPC   C2B 3527   2.685   5.741   5.124  0.0200  0.2413 -0.0414
  263POPC   C3B 3528   2.821   5.544   5.462  0.1409 -0.3402 -0.0017
  263POPC   C4B 3529   2.489   5.406   5.788  0.1144  0.2156 -0.1302
  264POPC   NC3 3530   8.863   9.232   4.319 -0.2370  0.2131  0.2962
  264POPC   PO4 3531   9.085   8.809   4.269 -0.1111  0.0063 -0.0115
  264POPC   GL1 3532   9.259   8.868   4.650  0.0209  0.1456  0.1152
  264POPC   GL2 3533   9.412   8.616   4.686 -0.0815  0.0604  0.0053
  264POPC   C1A 3534   9.241   9.078   5.018 -0.1964  0.1244 -0.1084
  264POPC   D2A 3535   9.209   9.193   5.398 -0.2472  0.0766 -0.0378
  264POPC   C3A 3536   8.726   9.357   5.454 -0.1598  0.2111  0.1842
  264POPC   C4A 3537   8.508   9.596   5.772 -0.3901 -0.0602 -0.1314
  264POPC   C1B 3538   9.466   8.589   5.095  0.2413 -0.1683  0.3552
  264POPC   C2B 3539   9.454   8.766   5.503  0.0157  0.2356 -0.0468
  264POPC   C3B 3540   9.496   8.819   5.917 -0.0055 -0.1452  0.1233
  264POPC   C4B 3541   9.358   8.926   6.307 -0.0256 -0.0309  0.2027
  265POPC   NC3 3542   5.345   0.415   4.265  0.0859  0.1569 -0.0245
  265POPC   PO4 3543   5.544   0.854   4.440  0.2446 -0.2403  0.0145
  265POPC   GL1 3544   5.603   0.536   4.759  0.1317 -0.0839 -0.0725
  265POPC   GL2 3545   5.312   0.291   4.770 -0.3060  0.1663  0.2369
  265POPC   C1A 3546   5.689   0.716   5.150 -0.1247  0.2336 -0.0513
  265POPC   D2A 3547   6.232   0.934   5.164 -0.2718 -0.1714  0.2804
  265POPC   C3A 3548   6.604   0.806   5.567 -0.0180 -0.0593  0.2914
  265POPC   C4A 3549   6.811   0.620   5.659 -0.0731  0.0625 -0.1044
  265POPC   C1B 3550   5.277   0.195   5.195  0.0827  0.0135  0.1259
  265POPC   C2B 3551   5.171  -0.027   5.509 -0.1033 -0.0782  0.1130
  265POPC   C3B 3552   4.979  -0.340   5.517  0.0181 -0.2122  0.2169
  265POPC   C4B 3553   4.757  -0.419   5.815 -0.0750  0.4011 -0.1898
  266POPC   NC3 3554   9.610   5.855   4.242 -0.0094 -0.2914 -0.0739
  266POPC   PO4 3555   9.855   6.064   4.515 -0.0484  0.0313 -0.2733
  266POPC   GL1 3556   9.779   6.321   4.842  0.0643 -0.1934 -0.1599
  266POPC   GL2 3557   9.855   6.648   4.726 -0.2640  0.0221  0.1314
  266POPC   C1A 3558   9.593   6.438   5.176  0.1266  0.0606 -0.1197
  266POPC   D2A 3559   9.252   6.534   5.459  0.1089  0.1954  0.0018
  266POPC   C3A 3560   9.342   6.849   5.786  0.1167  0.0139  0.0478
  266POPC   C4A 3561   9.210   6.918   6.284 -0.2434  0.0968  0.0150
  266POPC   C1B 3562  10.019   6.775   5.136  0.4770  0.2946  0.0095
  266POPC   C2B 3563  10.301   6.722   5.524  0.1815  0.3601 -0.1562
  266POPC   C3B 3564  10.325   6.533   5.938 -0.1647  0.1499  0.0956
  266POPC   C4B 3565   9.933   6.155   5.996  0.3751  0.1119  0.1907
  267POPC   NC3 3566   4.978   2.214   3.819  0.0257 -0.0574  0.0686
  267POPC   PO4 3567   4.651   2.045   4.143  0.3595 -0.2952 -0.0451
  267POPC   GL1 3568   4.679   2.127   4.607 -0.1896 -0.0118  0.0274
  267POPC   GL2 3569   4.461   1.771   4.727  0.0341 -0.2453 -0.2239
  267POPC   C1A 3570   4.397   2.142   5.021 -0.1560 -0.0472  0.1539
  267POPC   D2A 3571   4.202   1.858   5.391  0.0990 -0.3838 -0.1494
  267POPC   C3A 3572   4.145   2.066   5.755  0.0508  0.0347  0.0356
  267POPC   C4A 3573   4.254   1.931   6.191 -0.0225  0.3292  0.0789
  267POPC   C1B 3574   4.404   1.412   4.930 -0.0395  0.2679 -0.3188
  267POPC   C2B 3575   4.281   1.363   5.322  0.1942  0.1467  0.1574
  267POPC   C3B 3576   4.558   1.265   5.671  0.1716  0.0005 -0.0056
  267POPC   C4B 3577   4.851   1.225   6.088 -0.2935 -0.0619  0.3222
  268POPC   NC3 3578   1.297   0.897   4.265 -0.5139 -0.2107  0.1104
  268POPC   PO4 3579   0.878   0.673   4.272  0.2707  0.1287  0.1783
  268POPC   GL1 3580   0.974   0.450   4.639 -0.0405  0.0428 -0.1630
  268POPC   GL2 3581   0.797   0.541   4.846  0.0484  0.2758 -0.0673
  268POPC   C1A 3582   1.309   0.347   4.936  0.2331  0.0312  0.6370
  268POPC   D2A 3583   1.373   0.145   5.282  0.2625 -0.0960  0.0025
  268POPC   C3A 3584   1.351  -0.157   5.574 -0.4151  0.1120 -0.0448
  268POPC   C4A 3585   1.084  -0.345   5.874 -0.1428 -0.1365 -0.2586
  268POPC   C1B 3586   0.890   0.429   5.226  0.3767 -0.0977 -0.1006
  268POPC   C2B 3587   0.897   0.387   5.698  0.0177 -0.0338  0.1101
  268POPC   C3B 3588   0.706   0.158   5.927  0.2518  0.1688  0.0070
  268POPC   C4B 3589   0.826  -0.060   6.253  0.4417  0.2589 -0.2112
  269POPC   NC3 3590   0.304   2.574   4.677  0.1373  0.2547 -0.2572
  269POPC   PO4 3591  -0.050   2.763   4.589 -0.0766 -0.4291  0.1620
  269POPC   GL1 3592  -0.104   2.669   5.000  0.0030  0.1399  0.1914
  269POPC   GL2 3593  -0.111   2.356   5.209  0.1195  0.1480 -0.0645
  269POPC   C1A 3594   0.142   2.704   5.427 -0.0624  0.1153  0.1140
  269POPC   D2A 3595   0.238   2.625   5.910 -0.0988  0.0152 -0.1252
  269POPC   C3A 3596   0.753   2.673   6.146 -0.0837 -0.1282  0.2699
  269POPC   C4A 3597   1.064   2.853   5.900 -0.1639 -0.0718 -0.1906
  269POPC   C1B 3598  -0.272   2.321   5.528  0.0039  0.2879  0.1068
  269POPC   C2B 3599  -0.165   2.281   5.979 -0.2862 -0.0132  0.1754
  269POPC   C3B 3600  -0.362   2.326   6.443 -0.2389 -0.1032 -0.1993
  269POPC   C4B 3601  -0.621   2.649   6.669  0.3220  0.0752 -0.0638
  270POPC   NC3 3602   4.159   2.038   4.238  0.0630 -0.2045 -0.1529
  270POPC   PO4 3603   3.726   1.938   4.125  0.0030  0.1982  0.0261
  270POPC   GL1 3604   3.833   1.784   4.504  0.0152  0.0828  0.0521
  270POPC   GL2 3605   4.035   1.954   4.688 -0.0246 -0.3058 -0.1389
  270POPC   C1A 3606   3.944   1.609   4.953 -0.0448 -0.3504 -0.1704
  270POPC   D2A 3607   3.776   1.564   5.415 -0.0862  0.0399 -0.0222
  270POPC   C3A 3608   4.091   1.536   5.815  0.3160 -0.3794 -0.3078
  270POPC   C4A 3609   4.415   1.451   6.088  0.0702 -0.0619  0.1387
  270POPC   C1B 3610   3.732   2.019   5.033  0.0305 -0.1152  0.0402
  270POPC   C2B 3611   3.422   1.803   5.228  0.2199  0.4426  0.0354
  270POPC   C3B 3612   3.347   1.699   5.706 -0.2648 -0.3169  0.0872
  270POPC   C4B 3613   3.263   1.782   6.114  0.1049  0.0769  0.4542
  271POPC   NC3 3614   1.301   0.657   3.638  0.1692 -0.0587 -0.3911
  271POPC   PO4 3615   1.602   0.642   3.915 -0.0086 -0.1838  0.0936
  271POPC   GL1 3616   1.796   0.400   4.259 -0.4288 -0.2879  0.3641
  271POPC   GL2 3617   1.612   0.373   4.510 -0.2623 -0.2392  0.1155
  271POPC   C1A 3618   2.157   0.039   4.284  0.2787 -0.0506  0.4191
  271POPC   D2A 3619   2.268  -0.215   4.680  0.1080  0.0150  0.0981
  271POPC   C3A 3620   1.949  -0.569   4.755 -0.1022 -0.1258 -0.3106
  271POPC   C4A 3621   1.535  -0.706   4.682  0.0169  0.0078 -0.2703
  271POPC   C1B 3622   1.865   0.539   4.775 -0.3324  0.2049 -0.0249
  271POPC   C2B 3623   1.803   0.329   5.145 -0.2494 -0.2040 -0.2582
  271POPC   C3B 3624   1.725   0.172   5.682 -0.0383 -0.1124 -0.0756
  271POPC   C4B 3625   1.682   0.468   6.147 -0.0883 -0.1512  0.2057
  272POPC   NC3 3626   5.120   4.289   4.192 -0.0180  0.2521 -0.1429
  272POPC   PO4 3627   5.232   3.783   4.071 -0.0954 -0.1005  0.1421
  272POPC   GL1 3628   5.243   3.889   4.479  0.2722  0.4685  0.1297
  272POPC   GL2 3629   5.524   4.166   4.517 -0.0157  0.0116 -0.3306
  272POPC   C1A 3630   4.995   3.872   4.748  0.0316 -0.1766 -0.1274
  272POPC   D2A 3631   4.688   3.966   5.050 -0.1669  0.3077 -0.0823
  272POPC   C3A 3632   4.901   4.195   5.393  0.0014 -0.0386  0.2887
  272POPC   C4A 3633   4.895   4.197   5.823  0.3092 -0.2019 -0.2327
  272POPC   C1B 3634   5.463   3.990   4.925 -0.0826 -0.0068  0.0230
  272POPC   C2B 3635   5.161   3.750   5.231 -0.2661 -0.0502 -0.0503
  272POPC   C3B 3636   5.089   3.701   5.687  0.1088 -0.1865  0.3584
  272POPC   C4B 3637   5.296   3.723   6.130  0.1873  0.0549  0.1433
  273POPC   NC3 3638   4.490   5.881   3.760 -0.0573 -0.1066 -0.0699
  273POPC   PO4 3639   4.184   6.116   3.656  0.1310  0.1001 -0.1379
  273POPC   GL1 3640   3.949   6.209   4.033 -0.1611  0.0772  0.2087
  273POPC   GL2 3641   3.843   5.919   4.189  0.1272 -0.1313 -0.1478
  273POPC   C1A 3642   3.935   6.558   4.348 -0.1250 -0.1240  0.0444
  273POPC   D2A 3643   4.002   6.697   4.765 -0.2803 -0.1493  0.0143
  273POPC   C3A 3644   4.121   7.037   4.966 -0.1710 -0.1416 -0.3471
  273POPC   C4A 3645   4.495   7.209   4.950  0.1660  0.5215  0.0638
  273POPC   C1B 3646   3.988   6.153   4.584 -0.0458 -0.0598 -0.0618
  273POPC   C2B 3647   4.291   6.245   4.763  0.0074 -0.0660  0.0917
  273POPC   C3B 3648   4.527   6.045   5.135 -0.0526 -0.1116 -0.4072
  273POPC   C4B 3649   4.894   5.808   5.328 -0.1740 -0.1272  0.1172
  274POPC   NC3 3650   9.668   9.581   3.951 -0.1950 -0.1305  0.2346
  274POPC   PO4 3651   9.605   9.276   4.334  0.1122 -0.2376 -0.0921
  274POPC   GL1 3652   9.584   9.421   4.756 -0.1254  0.1631  0.1551
  274POPC   GL2 3653   9.418   9.662   4.830  0.0136 -0.2140  0.0029
  274POPC   C1A 3654   9.711   9.290   5.153 -0.3511  0.2059 -0.0097
  274POPC   D2A 3655  10.199   9.294   5.371 -0.0426  0.0358  0.1110
  274POPC   C3A 3656  10.469   8.992   5.636  0.0011 -0.0577 -0.0730
  274POPC   C4A 3657  10.830   8.808   5.912 -0.1959  0.0793  0.2378
  274POPC   C1B 3658   9.095   9.583   5.074  0.2092  0.1320 -0.0278
  274POPC   C2B 3659   9.028   9.772   5.508 -0.0896 -0.3446  0.1503
  274POPC   C3B 3660   8.884  10.036   5.811  0.2828 -0.2449  0.1616
  274POPC   C4B 3661   8.869  10.452   5.793 -0.2983 -0.0248 -0.1715
  275POPC   NC3 3662   4.033   4.760   4.047  0.0189  0.2848  0.1313
  275POPC   PO4 3663   3.607   4.659   4.205  0.0814 -0.2232 -0.0212
  275POPC   GL1 3664   3.809   4.494   4.558 -0.3573  0.1555 -0.2351
  275POPC   GL2 3665   3.668   4.637   4.740 -0.2387 -0.1899  0.1051
  275POPC   C1A 3666   4.130   4.655   4.904  0.0911 -0.1216  0.1377
  275POPC   D2A 3667   4.007   4.738   5.334  0.0316 -0.0007 -0.1446
  275POPC   C3A 3668   4.025   5.172   5.317 -0.1856 -0.1207 -0.0761
  275POPC   C4A 3669   3.898   5.383   5.007 -0.0496 -0.2063 -0.4100
  275POPC   C1B 3670   3.632   4.893   5.042  0.1790 -0.2854 -0.2763
  275POPC   C2B 3671   3.577   5.132   5.477  0.0793  0.0697  0.1161
  275POPC   C3B 3672   3.721   5.169   5.780 -0.0076 -0.0828  0.1366
  275POPC   C4B 3673   4.033   5.115   6.089 -0.1196 -0.0492  0.1337
  276POPC   NC3 3674   8.438   2.790   3.869  0.2914 -0.0252  0.3166
  276POPC   PO4 3675   8.249   2.320   3.911  0.0204  0.1579 -0.2167
  276POPC   GL1 3676   8.359   2.113   4.329 -0.0011  0.2642 -0.2743
  276POPC   GL2 3677   8.288   1.882   4.407 -0.4392 -0.1287 -0.0030
  276POPC   C1A 3678   8.621   2.023   4.759 -0.1953 -0.0978  0.0777
  276POPC   D2A 3679   8.511   2.128   5.156 -0.2618 -0.4104 -0.0315
  276POPC   C3A 3680   8.036   1.941   5.425  0.0993 -0.0764 -0.0625
  276POPC   C4A 3681   7.644   2.261   5.468 -0.0686  0.0978 -0.0789
  276POPC   C1B 3682   8.057   1.983   4.813  0.3002 -0.1631  0.0093
  276POPC   C2B 3683   7.713   2.042   5.037  0.2243 -0.1240  0.1294
  276POPC   C3B 3684   7.250   2.108   5.113 -0.1127  0.0536  0.0239
  276POPC   C4B 3685   6.965   2.174   5.413 -0.0497  0.1250  0.0612
  277POPC   NC3 3686   6.649   5.580   3.705 -0.1121 -0.1041 -0.0583
  277POPC   PO4 3687   6.625   5.396   4.100 -0.0669 -0.1994 -0.1508
  277POPC   GL1 3688   6.332   5.517   4.456 -0.2299 -0.2297  0.0616
  277POPC   GL2 3689   6.229   5.859   4.385 -0.1485 -0.2452 -0.0132
  277POPC   C1A 3690   6.369   5.546   4.872  0.0966  0.2801 -0.3210
  277POPC   D2A 3691   6.542   5.563   5.272  0.0327 -0.1102 -0.2409
  277POPC   C3A 3692   6.262   5.379   5.531 -0.0741 -0.0656 -0.0943
  277POPC   C4A 3693   5.865   5.494   5.650  0.3576 -0.0206 -0.3220
  277POPC   C1B 3694   5.982   5.865   4.833  0.0990  0.1628  0.3392
  277POPC   C2B 3695   6.025   5.895   5.245  0.2099 -0.0685  0.2279
  277POPC   C3B 3696   6.189   5.828   5.748 -0.4828  0.1111  0.1636
  277POPC   C4B 3697   6.194   5.792   6.200  0.0495  0.0234  0.2695
  278POPC   NC3 3698   8.998   3.401   4.232 -0.1645  0.0567  0.0282
  278POPC   PO4 3699   8.967   3.051   4.326  0.2656 -0.1111  0.2895
  278POPC   GL1 3700   9.293   3.132   4.702 -0.0325  0.0991  0.0121
  278POPC   GL2 3701   9.554   3.122   4.931  0.1972 -0.0055  0.2992
  278POPC   C1A 3702   9.005   3.201   5.108  0.1203 -0.1346  0.4801
  278POPC   D2A 3703   8.824   3.082   5.479  0.3493 -0.1856 -0.4984
  278POPC   C3A 3704   9.071   2.829   5.752 -0.4011  0.1086 -0.0769
  278POPC   C4A 3705   9.168   2.667   6.173  0.0435 -0.2572  0.1303
  278POPC   C1B 3706   9.668   3.206   5.376 -0.2567  0.0636 -0.3351
  278POPC   C2B 3707   9.584   2.955   5.849  0.0613  0.2056  0.0980
  278POPC   C3B 3708   9.592   2.875   6.240 -0.0888  0.0146 -0.1433
  278POPC   C4B 3709   9.235   3.068   6.405  0.1212 -0.0208 -0.2862
  279POPC   NC3 3710   5.599   6.534   4.287 -0.0180 -0.1502  0.0649
  279POPC   PO4 3711   5.230   6.479   4.058 -0.0831 -0.1999 -0.1617
  279POPC   GL1 3712   5.115   6.597   4.520  0.2399  0.1166  0.1970
  279POPC   GL2 3713   5.381   6.644   4.719  0.0387 -0.1700  0.2934
  279POPC   C1A 3714   4.835   6.560   4.832 -0.3650 -0.0025  0.0400
  279POPC   D2A 3715   4.481   6.674   4.847 -0.1487 -0.0948  0.3709
  279POPC   C3A 3716   4.336   6.605   5.170 -0.0140  0.2658  0.1399
  279POPC   C4A 3717   3.999   6.644   5.464 -0.1796 -0.0504 -0.1589
  279POPC   C1B 3718   5.368   6.673   5.087 -0.2124 -0.2177 -0.1528
  279POPC   C2B 3719   5.296   6.849   5.603 -0.1071 -0.1466  0.0341
  279POPC   C3B 3720   5.150   6.657   5.995  0.2404 -0.2332 -0.0776
  279POPC   C4B 3721   5.036   6.711   6.441 -0.1516  0.1772 -0.0812
  280POPC   NC3 3722   6.051   5.104   4.176 -0.0137 -0.1304 -0.0985
  280POPC   PO4 3723   6.045   4.736   4.417 -0.1554 -0.2219  0.1113
  280POPC   GL1 3724   5.873   4.527   4.755  0.0830  0.0613 -0.0112
  280POPC   GL2 3725   6.033   4.162   4.778  0.2029  0.0612  0.0268
  280POPC   C1A 3726   5.568   4.467   5.025  0.0914 -0.0129  0.1234
  280POPC   D2A 3727   5.327   4.716   5.358 -0.3936  0.1243  0.1705
  280POPC   C3A 3728   4.945   4.650   5.222  0.3476  0.0603 -0.0782
  280POPC   C4A 3729   4.607   4.446   4.947  0.2713 -0.1699 -0.0337
  280POPC   C1B 3730   5.927   4.145   5.166 -0.2867  0.0819  0.0340
  280POPC   C2B 3731   5.875   4.403   5.473 -0.1782  0.1745  0.1076
  280POPC   C3B 3732   5.725   4.525   6.035 -0.1066 -0.1158 -0.1877
  280POPC   C4B 3733   5.360   4.785   6.060 -0.2597  0.0032 -0.0979
  281POPC   NC3 3734   4.206   9.559   3.742  0.3051  0.0407 -0.0568
  281POPC   PO4 3735   4.017   9.851   3.924  0.1550 -0.0924 -0.1395
  281POPC   GL1 3736   3.636   9.903   4.050  0.3452  0.0340 -0.1522
  281POPC   GL2 3737   3.739   9.717   4.359 -0.0632 -0.0787 -0.1297
  281POPC   C1A 3738   3.290   9.545   4.166  0.0438  0.0439  0.0462
  281POPC   D2A 3739   2.820   9.486   4.178 -0.3318  0.0145 -0.4373
  281POPC   C3A 3740   2.556   9.457   3.865  0.2931  0.1122  0.0262
  281POPC   C4A 3741   2.319   9.146   3.801  0.1284 -0.1506  0.1574
  281POPC   C1B 3742   3.699   9.943   4.781 -0.0284 -0.2901  0.1810
  281POPC   C2B 3743   3.305  10.097   4.990  0.1294  0.0659 -0.1511
  281POPC   C3B 3744   3.320  10.422   5.367 -0.0796  0.0768 -0.1367
  281POPC   C4B 3745   3.330  10.189   5.802 -0.1715  0.0410 -0.1994
  282POPC   NC3 3746   8.696   8.113   4.341  0.2522  0.0583 -0.0035
  282POPC   PO4 3747   8.297   7.814   4.192  0.0548 -0.0467  0.2884
  282POPC   GL1 3748   8.284   8.033   4.600  0.1283 -0.0367 -0.0952
  282POPC   GL2 3749   8.224   8.296   4.691 -0.0702  0.1279  0.2209
  282POPC   C1A 3750   8.484   8.024   5.038  0.2465 -0.2202  0.1539
  282POPC   D2A 3751   8.652   8.319   5.208 -0.1197 -0.2964  0.0433
  282POPC   C3A 3752   8.797   8.356   5.708 -0.0018  0.1323 -0.0951
  282POPC   C4A 3753   9.023   8.147   6.096 -0.1843  0.0534 -0.1714
  282POPC   C1B 3754   8.332   8.601   4.956 -0.3219  0.1383 -0.1927
  282POPC   C2B 3755   8.432   8.760   5.331 -0.2037  0.1401 -0.1582
  282POPC   C3B 3756   8.503   8.960   5.640  0.2888  0.0991 -0.0612
  282POPC   C4B 3757   8.750   9.192   5.953 -0.4407  0.1100  0.0527
  283POPC   NC3 3758   7.638   1.167   4.240  0.0315  0.0299 -0.0717
  283POPC   PO4 3759   7.941   0.836   4.213  0.2056 -0.7074  0.1770
  283POPC   GL1 3760   8.018   0.713   4.627 -0.2173  0.1154  0.4729
  283POPC   GL2 3761   7.805   1.014   4.754  0.0915  0.0012  0.3450
  283POPC   C1A 3762   8.382   0.629   4.901 -0.0853  0.1139 -0.1214
  283POPC   D2A 3763   8.667   0.292   4.957 -0.2585 -0.0612 -0.0428
  283POPC   C3A 3764   8.612  -0.132   4.992 -0.0237  0.1323  0.0035
  283POPC   C4A 3765   8.371  -0.538   5.038 -0.0362  0.1041 -0.0218
  283POPC   C1B 3766   7.548   0.819   5.068  0.0939 -0.0510  0.1110
  283POPC   C2B 3767   7.591   1.114   5.371  0.0490 -0.1961  0.0843
  283POPC   C3B 3768   7.926   1.373   5.563  0.6259  0.1556 -0.0042
  283POPC   C4B 3769   8.208   1.353   5.803 -0.3583 -0.1384  0.3667
  284POPC   NC3 3770   1.861   7.100   2.755  0.1485  0.2458  0.0048
  284POPC   PO4 3771   1.707   6.742   2.921  0.3467 -0.1842 -0.0811
  284POPC   GL1 3772   2.106   6.912   3.152 -0.2559 -0.1436  0.2193
  284POPC   GL2 3773   2.238   7.224   3.202  0.1094 -0.2521  0.0190
  284POPC   C1A 3774   1.995   6.986   3.548 -0.3469  0.1680 -0.1852
  284POPC   D2A 3775   1.859   7.209   4.047 -0.0574  0.3270 -0.1805
  284POPC   C3A 3776   2.104   7.064   4.470 -0.2069 -0.3649  0.4199
  284POPC   C4A 3777   2.255   7.135   4.877 -0.0436  0.0056  0.3596
  284POPC   C1B 3778   2.540   7.412   3.633 -0.1642 -0.0426  0.0195
  284POPC   C2B 3779   2.426   7.809   3.767 -0.2963 -0.3828  0.0364
  284POPC   C3B 3780   2.474   8.217   3.870  0.0749 -0.2197 -0.0864
  284POPC   C4B 3781   2.450   8.706   3.859  0.0650  0.3528 -0.1321
  285POPC   NC3 3782   5.566   3.425   3.858 -0.1107  0.2291 -0.1505
  285POPC   PO4 3783   5.368   3.382   4.354  0.0503 -0.2372 -0.2088
  285POPC   GL1 3784   5.256   3.483   4.764 -0.0406  0.1491  0.3240
  285POPC   GL2 3785   4.846   3.344   4.832 -0.1547 -0.2659 -0.0322
  285POPC   C1A 3786   5.388   3.225   5.080  0.1428 -0.1532  0.0169
  285POPC   D2A 3787   5.347   3.356   5.519  0.0566 -0.0451  0.1190
  285POPC   C3A 3788   5.729   3.446   5.786 -0.0867 -0.3748 -0.0870
  285POPC   C4A 3789   5.648   3.301   6.221 -0.1341 -0.1718  0.1793
  285POPC   C1B 3790   4.700   3.526   5.292  0.0087 -0.0602  0.1372
  285POPC   C2B 3791   4.584   3.861   5.583  0.2428  0.0201  0.0626
  285POPC   C3B 3792   4.571   3.929   6.149 -0.1876 -0.1243  0.1683
  285POPC   C4B 3793   4.579   3.706   6.577 -0.0811 -0.0715 -0.0458
  286POPC   NC3 3794   9.563   4.064   4.309  0.2964 -0.1807 -0.4262
  286POPC   PO4 3795   9.683   4.035   4.730  0.1524  0.0964 -0.1251
  286POPC   GL1 3796   9.810   4.048   5.042 -0.0593  0.0618  0.0414
  286POPC   GL2 3797   9.819   4.446   5.060 -0.2327 -0.1963  0.0512
  286POPC   C1A 3798  10.021   3.758   5.322  0.1413  0.0840 -0.0009
  286POPC   D2A 3799  10.412   3.728   5.573  0.0409  0.1261  0.0297
  286POPC   C3A 3800  10.554   3.908   6.066 -0.1930 -0.0557  0.0383
  286POPC   C4A 3801  10.762   4.171   6.406 -0.0654 -0.0860 -0.0574
  286POPC   C1B 3802   9.641   4.426   5.352  0.0668  0.3224  0.0831
  286POPC   C2B 3803   9.708   4.526   5.805 -0.2873 -0.2276  0.0706
  286POPC   C3B 3804   9.987   4.439   6.070 -0.1804 -0.0865 -0.0812
  286POPC   C4B 3805  10.311   4.827   6.329 -0.2305  0.0127  0.1020
  287W        W 3806   5.745   8.106   2.348 -0.1817  0.1279  0.0700
  288W        W 3807   0.231   7.718  12.096 -0.0792 -0.0053  0.2497
  289W        W 3808   4.156   4.228  11.777 -0.1087  0.2544 -0.2230
  290W        W 3809   8.642   8.209   0.206  0.0131  0.1231 -0.0791
  291W        W 3810   4.710   2.221   9.423 -0.0787  0.0317  0.0273
  292W        W 3811   9.032   7.634   9.517 -0.2251  0.1308 -0.1547
  293W        W 3812   4.349   1.469   2.934  0.2555  0.1182  0.0234
  294W        W 3813   7.892   4.174  12.498 -0.1829  0.0910 -0.0368
  295W        W 3814   2.164   8.850   9.600  0.1673 -0.0341 -0.1249
  296W        W 3815   4.966   6.035   0.876 -0.0794  0.2644 -0.0696
  297W        W 3816   2.214   3.985   2.334  0.0335 -0.1966  0.2951
  298W        W 3817   8.710   1.971   8.891 -0.3603 -0.3841  0.1322
  299W        W 3818   7.927   5.223  12.448  0.0003  0.0928 -0.0301
  300W        W 3819   7.057   8.933   1.960 -0.2001 -0.0680  0.1335
  301W        W 3820   5.084   8.958  10.149  0.0375 -0.2423  0.0984
  302W        W 3821   9.684   2.413   1.503  0.1225  0.2600  0.0229
  303W        W 3822   9.675   1.920   8.570 -0.1755  0.0474 -0.0805
  304W        W 3823   2.297   1.672   3.127  0.1319  0.2306  0.0232
  305W        W 3824   7.957   4.989   9.093 -0.3003  0.1818 -0.1772
  306W        W 3825   8.091   6.661   0.637  0.2830 -0.1103 -0.3090
  307W        W 3826   0.129   4.527   9.800  0.1044  0.0679 -0.0055
  308W        W 3827   7.575   6.224   2.797 -0.0220 -0.1570 -0.0047
  309W        W 3828   2.665   9.190   3.424  0.0960 -0.2450 -0.0812
  310W        W 3829   9.334   6.075   3.847 -0.0226 -0.0843 -0.1110
  311W        W 3830   8.581   6.300   9.747 -0.0530  0.1652  0.0966
  312W        W 3831   4.555   2.500  10.388 -0.0359 -0.1530 -0.0907
  313W        W 3832   1.330   0.249   1.190 -0.1950  0.1450  0.0843
  314W        W 3833   7.468   3.756   1.475 -0.1501  0.0871 -0.1547
  315W        W 3834   6.017   9.314  12.439 -0.0410  0.5224 -0.0003
  316W        W 3835   6.512   7.433   2.445  0.2441  0.0817 -0.2054
  317W        W 3836   5.949   6.197   9.723 -0.2308  0.1040 -0.0173
  318W        W 3837   0.281   7.819   2.537 -0.0102  0.0783 -0.0805
  319W        W 3838   0.403   6.594   1.620 -0.1523  0.1810 -0.1579
  320W        W 3839   2.176   0.262  10.877  0.0573 -0.3075  0.1219
  321W        W 3840   7.461   3.834  10.417  0.0160 -0.4174 -0.1383
  322W        W 3841   5.998   3.256  12.102 -0.2496 -0.0525 -0.0953
  323W        W 3842   0.661   1.652  11.361  0.0609  0.0295  0.3208
  324W        W 3843   0.840   3.430   9.253  0.0585 -0.0642 -0.0378
  325W        W 3844   5.574   7.160   3.023 -0.2355  0.4299 -0.0607
  326W        W 3845   7.906   9.157   3.184  0.0432 -0.0406  0.3686
  327W        W 3846   6.599   5.705   8.715 -0.0769 -0.0603  0.1912
  328W        W 3847   8.914   0.516   2.047  0.2567 -0.0661  0.0020
  329W        W 3848   7.768   3.072   2.285  0.1767 -0.1416  0.3602
  330W        W 3849   9.036   1.901   1.692  0.1878 -0.1520  0.0930
  331W        W 3850   7.395   1.610   2.260  0.3196  0.0199 -0.2967
  332W        W 3851   2.575   2.268   9.292 -0.3200 -0.1309 -0.1159
  333W        W 3852   0.724   2.317   2.751 -0.4082  0.1113  0.0907
  334W        W 3853   8.998   8.998   1.629 -0.0188 -0.0821 -0.1456
  335W        W 3854   6.701   2.228   2.862 -0.0888 -0.1016  0.0452
  336W        W 3855   5.032   6.663   9.537 -0.0055  0.0672 -0.0673
  337W        W 3856   7.927   6.322   2.347  0.0526  0.2425  0.0002
  338W        W 3857   0.305   0.970   1.479  0.1125  0.0198 -0.0071
  339W        W 3858   5.492   9.193   2.551  0.0559 -0.0922 -0.0957
  340W        W 3859   8.623   5.704   1.940 -0.1043 -0.1210  0.1760
  341W        W 3860   4.235   3.739   9.994 -0.3970  0.1933 -0.1326
  342W        W 3861   7.028   8.468  12.272  0.0034 -0.1717 -0.0267
  343W        W 3862   9.578   2.906   0.266  0.2901  0.1219 -0.0993
  344W        W 3863   7.338   3.074   1.991  0.2407  0.0628 -0.2884
  345W        W 3864   0.596   0.807   1.974  0.1343  0.1838  0.0300
  346W        W 3865   2.924   4.751   9.123  0.1634  0.2546 -0.0308
  347W        W 3866   0.045   2.285   8.243 -0.2453  0.0963  0.2185
  348W        W 3867   5.807   9.024   2.184  0.2166  0.5511 -0.1746
  349W        W 3868   9.448   3.735   2.809 -0.2454  0.0459  0.1457
  350W        W 3869   7.458   1.418   2.746  0.1504 -0.0420 -0.3703
  351W        W 3870   2.253   5.924  10.972  0.2623 -0.3263 -0.2378
  352W        W 3871   5.960   9.173   8.713  0.0069  0.0588  0.1886
  353W        W 3872   1.417   0.975   9.615 -0.0211  0.2250  0.1310
  354W        W 3873   5.000   8.385   3.908  0.1089  0.2284 -0.1809
  355W        W 3874   4.840   2.429   1.704 -0.4345 -0.1444  0.1585
  356W        W 3875   0.471   6.577   9.238 -0.0439 -0.0648 -0.1113
  357W        W 3876   6.264   2.226  10.869  0.0510  0.1005 -0.0805
  358W        W 3877   0.652   5.716   1.096  0.0812  0.0918  0.1843
  359W        W 3878   4.177   9.058   0.022 -0.0225  0.1020  0.2419
  360W        W 3879   3.342   9.191   9.052  0.0682 -0.3702 -0.2935
  361W        W 3880   9.497   1.423   8.654 -0.0611  0.1088  0.4194
  362W        W 3881   6.803   2.548   9.260  0.0046  0.1341 -0.0519
  363W        W 3882   1.919   5.048  10.105  0.0042 -0.0043 -0.1277
  364W        W 3883   8.969   3.008   1.827 -0.1051  0.2394 -0.1948
  365W        W 3884   1.018   5.448   5.055  0.1240 -0.1901  0.0875
  366W        W 3885   5.292   1.357   3.298 -0.0046  0.1382 -0.0472
  367W        W 3886   5.355   8.913   8.734  0.1052  0.3159 -0.3304
  368W        W 3887   8.906   1.202   3.615 -0.1261  0.0807  0.0529
  369W        W 3888   7.336   2.987   9.489  0.1378 -0.0790 -0.1909
  370W        W 3889   9.284   2.490   7.579 -0.2200 -0.1419 -0.3181
  371W        W 3890   7.126   0.490   4.592  0.1575  0.0404 -0.1810
  372W        W 3891   7.534   3.440   9.458 -0.1626 -0.0858 -0.1047
  373W        W 3892   5.900   0.528   2.974 -0.2428 -0.1709  0.1740
  374W        W 3893   8.427   0.249   0.971 -0.2280 -0.2554 -0.1549
  375W        W 3894   4.979   8.157   1.326 -0.0255  0.5783  0.0763
  376W        W 3895   7.380   6.382  12.436 -0.2105  0.3123 -0.0807
  377W        W 3896   3.815   5.434  11.483  0.0624  0.0171 -0.0319
  378W        W 3897   7.492   6.778  12.146 -0.2386 -0.0578  0.2168
  379W        W 3898   8.246   3.517   0.995  0.1747  0.0703  0.0721
  380W        W 3899   2.097   1.975   4.072 -0.0628 -0.2103 -0.0056
  381W        W 3900   5.379   8.546   2.516 -0.1524  0.0888 -0.2035
  382W        W 3901   1.793   7.744   0.930 -0.2545  0.4032  0.2228
  383W        W 3902   5.098   5.476   3.840  0.0831  0.0908  0.2879
  384W        W 3903   4.827   9.352   1.859 -0.1010 -0.0575  0.4241
  385W        W 3904   0.599   2.586  11.051  0.1123  0.1361 -0.1723
  386W        W 3905   0.777   0.397  11.901  0.0757 -0.1842 -0.0621
  387W        W 3906   3.905   1.693   0.592  0.1099  0.1010  0.0072
  388W        W 3907   1.227   9.624   2.715  0.1356 -0.1143 -0.1565
  389W        W 3908   7.188   8.286   8.160 -0.2184 -0.0081 -0.1226
  390W        W 3909   3.509   4.149   9.327  0.0793  0.1062  0.0857
  391W        W 3910   3.855   8.785   0.341 -0.2605  0.0260 -0.0914
  392W        W 3911   8.635   2.946   4.731 -0.0741  0.0816  0.0867
  393W        W 3912   0.391   9.343  10.390  0.0681 -0.0523 -0.1619
  394W        W 3913   9.126   6.429  12.228  0.0446  0.0758  0.0122
  395W        W 3914   0.547   5.795   3.581 -0.1245 -0.0366 -0.0910
  396W        W 3915   9.038   4.490   1.478 -0.2430 -0.1437 -0.1243
  397W        W 3916   9.039   9.583  10.924 -0.1554 -0.0867 -0.0768
  398W        W 3917   6.130   8.881  10.346 -0.0169 -0.0623  0.0219
  399W        W 3918   8.972   3.112   8.151 -0.0522  0.1024 -0.0883
  400W        W 3919   8.281   4.070  10.310 -0.0875  0.0405 -0.4421
  401W        W 3920   3.199   3.025   9.110  0.3956 -0.0334 -0.1313
  402W        W 3921   4.330   7.373   1.568 -0.3241 -0.1163  0.0849
  403W        W 3922   0.509   2.846   9.878  0.0880  0.0195  0.1559
  404W        W 3923   2.350   0.065   2.357 -0.1267  0.1692 -0.0676
  405W        W 3924   1.514   0.074   2.122 -0.1079 -0.2207 -0.0214
  406W        W 3925   7.348   5.461  11.001 -0.2136  0.3963  0.1733
  407W        W 3926   0.214   8.257   8.993 -0.0692 -0.2393  0.0922
  408W        W 3927   6.514   5.116  10.694 -0.0965 -0.3423 -0.0490
  409W        W 3928   7.123   8.384   1.226  0.1327 -0.0783  0.1930
  410W        W 3929   6.147   7.418   0.856 -0.2500 -0.1019  0.5726
  411W        W 3930   5.744   2.346   2.732 -0.0764  0.1118 -0.0276
  412W        W 3931   5.771   7.219   2.561 -0.0857 -0.2855  0.1413
  413W        W 3932   0.467   4.573   8.380 -0.0808  0.0953 -0.1510
  414W        W 3933   6.475   4.732   1.484 -0.0279 -0.0491  0.1008
  415W        W 3934   5.781   3.852   3.014  0.1854  0.0792  0.0595
  416W        W 3935   4.847   1.346   0.628  0.1398  0.0075 -0.1534
  417W        W 3936   4.624   8.337   0.869 -0.2138  0.3085 -0.0192
  418W        W 3937   4.571   0.207   0.611  0.1577 -0.1637  0.0775
  419W        W 3938   3.883   4.943   2.265 -0.0076  0.0535 -0.1254
  420W        W 3939   9.289   1.860  11.320  0.0191 -0.0569  0.5791
  421W        W 3940   4.071   6.597   0.448  0.1445 -0.3553  0.0700
  422W        W 3941   6.112   9.250   9.349 -0.1668 -0.0997  0.1187
  423W        W 3942   0.250   6.057   3.981 -0.2214  0.0911 -0.3206
  424W        W 3943   8.962   8.011   2.563 -0.3229  0.2446  0.0153
  425W        W 3944   5.773   0.125   3.229 -0.2136  0.0041  0.1676
  426W        W 3945   7.897   2.828  10.518  0.1247 -0.4172  0.0622
  427W        W 3946   7.349   2.028  10.407  0.0286 -0.3905 -0.1692
  428W        W 3947   8.501   9.613   2.838 -0.0199 -0.0779  0.2276
  429W        W 3948   4.405   5.863   3.238 -0.1313  0.0310  0.0714
  430W        W 3949   8.730   0.586   1.593  0.1544  0.1181 -0.1805
  431W        W 3950   2.555   1.813   2.085  0.0779  0.0993 -0.3434
  432W        W 3951   3.661   3.456   9.793 -0.1915  0.0179 -0.1631
  433W        W 3952   7.796   7.090   3.093 -0.2702  0.0511 -0.0478
  434W        W 3953   6.268   2.540   9.358  0.2294  0.2738  0.0047
  435W        W 3954   3.109   2.217  10.144  0.0916 -0.2767 -0.0475
  436W        W 3955   6.203   5.820   2.263 -0.1463 -0.0160 -0.0858
  437W        W 3956   1.436   3.771  11.334 -0.1151 -0.1938  0.0574
  438W        W 3957   8.876   3.668   2.654 -0.0001  0.4153 -0.1167
  439W        W 3958   1.795   8.921   3.045  0.1484 -0.3482 -0.2938
  440W        W 3959   1.643   7.093   2.174  0.0706 -0.2094 -0.0534
  441W        W 3960   3.983   3.808   2.569  0.2186 -0.4204  0.5683
  442W        W 3961   4.436   0.249   9.791 -0.0485 -0.0333  0.0156
  443W        W 3962   8.681   7.432   4.303  0.1373 -0.1474 -0.0468
  444W        W 3963   4.089   3.173   9.048  0.1047  0.3256 -0.2455
  445W        W 3964   7.282   5.382   8.027 -0.3126  0.1303  0.1784
  446W        W 3965   8.981   9.568   0.985  0.1809 -0.3235  0.2763
  447W        W 3966   4.752   6.308   3.922 -0.0003  0.1058  0.2205
  448W        W 3967   2.500   0.814  12.274  0.0077 -0.1417 -0.0386
  449W        W 3968   7.574   3.028   3.996 -0.0691 -0.1672  0.0886
  450W        W 3969   1.859   1.502   9.552  0.0534 -0.2009 -0.1557
  451W        W 3970   7.733   7.105  11.795  0.3098  0.1473  0.0075
  452W        W 3971   0.924   8.304   0.556 -0.1022  0.0160  0.0689
  453W        W 3972   8.221   2.574   0.679 -0.1630  0.0161  0.1131
  454W        W 3973   9.533   5.395   2.321  0.1577  0.2126  0.0470
  455W        W 3974   6.585   8.381   2.021 -0.2766 -0.1780 -0.1528
  456W        W 3975   4.539   3.258  12.191  0.0458 -0.2742 -0.2411
  457W        W 3976   7.170   5.162   0.141 -0.1839 -0.1762  0.0975
  458W        W 3977   3.186   3.217   2.980 -0.1707 -0.1867 -0.1196
  459W        W 3978   4.799   0.384  11.606 -0.2589  0.1903  0.0295
  460W        W 3979   6.438   7.028  11.378  0.1755  0.1087  0.0650
  461W        W 3980   0.882   8.783   0.313  0.0576  0.2464  0.0349
  462W        W 3981   2.597   6.418   9.300 -0.4248  0.2131  0.1241
  463W        W 3982   0.290   4.431  11.113 -0.0365  0.0392 -0.4715
  464W        W 3983   4.317   2.482   9.437 -0.0080 -0.1778 -0.3121
  465W        W 3984   6.326   8.967  12.200  0.1184 -0.3106 -0.0401
  466W        W 3985   6.100   1.585   2.431  0.0433 -0.1950 -0.0989
  467W        W 3986   8.832   1.724  11.437  0.2592 -0.3518  0.1823
  468W        W 3987   2.442   4.337  12.426 -0.0347  0.1166  0.2126
  469W        W 3988   0.922   9.680   3.534 -0.1055 -0.0837 -0.0732
  470W        W 3989   8.152   2.056   3.482  0.1873 -0.0707 -0.2076
  471W        W 3990   3.086   4.584  10.859 -0.1470 -0.1542  0.0154
  472W        W 3991   2.098   1.698   8.468 -0.3481 -0.0434  0.0979
  473W        W 3992   9.548   3.888   9.706 -0.2130  0.0641  0.2314
  474W        W 3993   5.205   6.917   2.731 -0.0822 -0.0506 -0.2584
  475W        W 3994   7.350   5.115   3.229  0.0621 -0.0169 -0.1775
  476W        W 3995   7.542   6.617   8.723 -0.0439  0.2723  0.2837
  477W        W 3996   3.408   8.938   0.185  0.0352 -0.3935  0.1684
  478W        W 3997   7.117   3.294   8.811  0.2367 -0.0071  0.4725
  479W        W 3998   5.167   5.491  12.506  0.2366 -0.1253  0.0409
  480W        W 3999   6.242   4.932   9.030  0.0257 -0.1340 -0.0779
  481W        W 4000   6.734   6.775   9.073  0.0107  0.0349 -0.2349
  482W        W 4001   6.514   6.672   9.580 -0.0381  0.1509  0.1106
  483W        W 4002   4.936   0.828   1.195  0.0878 -0.3173 -0.1240
  484W        W 4003   5.704   5.519  10.372 -0.2348  0.1398  0.0604
  485W        W 4004   9.155   8.847   2.522  0.1686  0.1562  0.0973
  486W        W 4005   3.877   4.950   0.006 -0.0349 -0.0127  0.0958
  487W        W 4006   4.851   7.804   9.470 -0.3037 -0.2848 -0.0451
  488W        W 4007   8.106   6.676   4.809  0.1162  0.4181 -0.2096
  489W        W 4008   2.262   9.522  11.101 -0.0400  0.0520 -0.2319
  490W        W 4009   3.990   2.960   4.374 -0.1948 -0.0631  0.1343
  491W        W 4010   4.242   8.755  11.755 -0.0138 -0.2290 -0.1188
  492W        W 4011   5.208   2.915  10.980 -0.0489  0.0587  0.2441
  493W        W 4012   9.003   7.751  10.897 -0.2077  0.0357  0.3976
  494W        W 4013   7.244   7.031  11.819  0.1909  0.1296  0.3276
  495W        W 4014   5.362   2.397   3.131 -0.1469 -0.0992 -0.3119
  496W        W 4015   1.011   4.811   4.066 -0.1662 -0.2251  0.1989
  497W        W 4016   8.379   5.659   0.577 -0.1027 -0.1012  0.0528
  498W        W 4017   0.237   9.203   9.494 -0.0136  0.0963  0.1833
  499W        W 4018   4.928   2.578  11.508 -0.1751  0.5352 -0.1346
  500W        W 4019   1.585   8.377  10.817  0.0794 -0.1282  0.0964
  501W        W 4020   4.199   9.114  10.139 -0.3695 -0.0853  0.1275
  502W        W 4021   2.619   6.193  11.237  0.0625  0.0593  0.1068
  503W        W 4022   5.606   2.813   2.655  0.3868  0.1244 -0.0642
  504W        W 4023   7.254   0.794   9.897  0.3741  0.1450  0.3951
  505W        W 4024   8.367   4.952  10.505 -0.0292  0.0346  0.1721
  506W        W 4025   1.625   2.978   4.214 -0.0270  0.2394 -0.2150
  507W        W 4026   0.078   8.354   4.377  0.0054 -0.0689  0.1139
  508W        W 4027   3.921   9.017  12.077 -0.1203 -0.1688  0.1021
  509W        W 4028   8.338   2.609  10.442 -0.1599  0.2070  0.2692
  510W        W 4029   4.467   1.447   1.668  0.2632 -0.0652 -0.0373
  511W        W 4030   4.253   2.791   8.726 -0.0525 -0.2732 -0.1250
  512W        W 4031   2.167   3.108   1.684 -0.1046 -0.0685 -0.1575
  513W        W 4032   6.684   7.529  10.436 -0.1161 -0.0826 -0.0768
  514W        W 4033   9.557   2.671   3.799 -0.0333  0.0207 -0.0657
  515W        W 4034   8.516   4.031   3.312 -0.1653  0.3141  0.0166
  516W        W 4035   1.580   3.514   0.786 -0.0088 -0.1501 -0.0138
  517W        W 4036   6.799   1.868  11.840  0.1552  0.1157 -0.1102
  518W        W 4037   4.936   8.846   0.226  0.0134 -0.0576 -0.0715
  519W        W 4038   7.084   4.666   3.423  0.0108  0.1121 -0.2812
  520W        W 4039   8.300   1.190   0.990 -0.1274  0.0807 -0.2361
  521W        W 4040   4.503   2.505   0.618  0.0656  0.0467  0.0692
  522W        W 4041   0.014   0.997   8.781 -0.0392  0.3086  0.1501
  523W        W 4042   8.758   3.346   3.306  0.2431 -0.0426  0.3243
  524W        W 4043   7.858   4.509   2.031  0.0263  0.2459 -0.0472
  525W        W 4044   6.927   7.740  11.682 -0.0815 -0.0144 -0.0515
  526W        W 4045   2.576   6.100   8.872 -0.2573  0.1480  0.0599
  527W        W 4046   1.059   3.022   2.950  0.0073 -0.1494 -0.3700
  528W        W 4047   4.804   5.102  10.883  0.3744 -0.1718 -0.1035
  529W        W 4048   6.357   2.168  12.030 -0.2074 -0.3454 -0.1200
  530W        W 4049   9.559   5.035   3.139 -0.1069  0.1428 -0.4077
  531W        W 4050   0.837   8.317   8.334  0.0646  0.1442 -0.0788
  532W        W 4051   6.303   4.548   0.449  0.0561 -0.1760  0.0399
  533W        W 4052   3.697   3.317   0.010 -0.0057 -0.1694  0.2792
  534W        W 4053   1.840   2.552   4.169  0.0619 -0.4217  0.2993
  535W        W 4054   7.240   6.700  11.458 -0.0902  0.0005  0.1305
  536W        W 4055   1.065   4.841  11.493 -0.0537  0.0833 -0.1636
  537W        W 4056   5.058   2.826   2.958  0.1758  0.4335 -0.0024
  538W        W 4057   2.897   4.358   8.661  0.0083  0.1895 -0.0704
  539W        W 4058   1.499   3.472  10.914 -0.0079 -0.5441 -0.5141
  540W        W 4059   0.113   6.475   9.581 -0.1150 -0.1644  0.1796
  541W        W 4060   5.297   0.232   3.039 -0.0344 -0.0467 -0.1159
  542W        W 4061   2.672   7.289   0.812 -0.2099  0.2958 -0.0920
  543W        W 4062   7.204   3.347   1.136  0.0429  0.1004  0.1558
  544W        W 4063   9.668   4.566   3.030  0.1557  0.0386 -0.0188
  545W        W 4064   2.150   8.989  10.128  0.2939 -0.0704 -0.3022
  546W        W 4065   6.243   3.323   1.196 -0.0342 -0.4308  0.1707
  547W        W 4066   6.751   7.284  11.788  0.0379 -0.0926  0.1780
  548W        W 4067   0.406   2.170   1.587 -0.0689  0.1606 -0.2104
  549W        W 4068   9.112   1.974  10.426  0.0531  0.1947  0.1453
  550W        W 4069   0.550   8.815   9.780  0.3210 -0.1020  0.1039
  551W        W 4070   8.815   2.416   2.460  0.0440 -0.0762  0.5176
  552W        W 4071   4.153   6.835  11.950  0.1468  0.0538  0.0891
  553W        W 4072   4.960   3.490   2.377 -0.1300 -0.3905  0.0255
  554W        W 4073   0.538   5.568  11.310 -0.1975  0.1443  0.1967
  555W        W 4074   9.180   6.914   0.035 -0.2740  0.0509  0.1098
  556W        W 4075   2.931   2.021   1.364 -0.0259 -0.2788  0.0983
  557W        W 4076   2.613   6.559  12.208 -0.1132 -0.1847  0.0588
  558W        W 4077   0.953   2.667   0.638  0.0048  0.1483  0.0427
  559W        W 4078   9.025   0.776   0.690  0.1181  0.1459  0.1055
  560W        W 4079   5.265   0.980   9.749 -0.0317  0.1425 -0.3530
  561W        W 4080   3.853   4.138  10.901  0.0079 -0.0593  0.1198
  562W        W 4081   6.029   2.070   9.271 -0.0202 -0.0846  0.3088
  563W        W 4082   0.719   2.939   9.433 -0.2623  0.3639 -0.0810
  564W        W 4083   7.577   5.783   8.932  0.4343 -0.0955  0.1746
  565W        W 4084   2.783   5.656  12.270  0.0157  0.3030 -0.5547
  566W        W 4085   0.034   9.227  11.797 -0.2039  0.2059  0.0624
  567W        W 4086   4.332   9.121   1.756  0.1549 -0.2345 -0.0039
  568W        W 4087   2.560   2.230  10.342 -0.1146  0.0998  0.0148
  569W        W 4088   0.692   5.525   2.270 -0.0692  0.1723  0.1732
  570W        W 4089   0.141   7.807  10.577 -0.4424 -0.3900  0.1448
  571W        W 4090   3.567   7.386   0.963  0.1100  0.1779  0.2075
  572W        W 4091   0.721   2.358  12.272  0.2365 -0.1005  0.0909
  573W        W 4092   2.939   1.411   9.755  0.5298 -0.1969  0.0591
  574W        W 4093   7.620   9.568   1.158 -0.1799 -0.5130 -0.2838
  575W        W 4094   3.296   1.133   1.700 -0.1373  0.3346  0.0982
  576W        W 4095   1.139   5.779   2.204  0.1005  0.0422 -0.1284
  577W        W 4096   9.059   3.731   9.355 -0.1208 -0.1617  0.2931
  578W        W 4097   6.630   1.339  12.089 -0.3809  0.3595 -0.3171
  579W        W 4098   1.410   5.770   3.199 -0.1707 -0.0124  0.0236
  580W        W 4099   2.257   7.446  10.595 -0.0267 -0.0263 -0.1627
  581W        W 4100   9.205   0.467   2.506 -0.0737 -0.1457  0.1158
  582W        W 4101   3.873   0.856   2.411 -0.1898  0.0444 -0.0482
  583W        W 4102   3.998   1.718   3.755  0.0109  0.2243 -0.2730
  584W        W 4103   3.974   9.587  11.781  0.1291 -0.2353 -0.1285
  585W        W 4104   6.647   9.493  11.595 -0.0707 -0.1291 -0.1513
  586W        W 4105   1.260   5.729   3.631  0.2880  0.2469 -0.2784
  587W        W 4106   5.506   9.321   9.723 -0.1893  0.0340 -0.0415
  588W        W 4107   8.262   2.313   9.907 -0.3282  0.1247 -0.3618
  589W        W 4108   4.727   6.438  10.283  0.0687  0.2654  0.2875
  590W        W 4109   0.001   8.139  10.926 -0.1786 -0.3351  0.0706
  591W        W 4110   8.349   5.495   9.652 -0.0892  0.1106 -0.0695
  592W        W 4111   4.940   3.998  11.630  0.0850  0.3732  0.1218
  593W        W 4112   1.456   2.941   2.721  0.0130 -0.0325 -0.0733
  594W        W 4113   7.010   8.402   0.695 -0.1656  0.1333 -0.0654
  595W        W 4114   0.509   6.221   8.837  0.1125 -0.1884 -0.2232
  596W        W 4115   2.217   8.321   2.560 -0.1987 -0.1215 -0.2676
  597W        W 4116   2.288   2.703   3.006 -0.0554  0.2199  0.0728
  598W        W 4117   8.997   2.490   1.970 -0.1787  0.0490  0.1026
  599W        W 4118   6.838   2.319  12.141 -0.0696 -0.1372 -0.0148
  600W        W 4119   7.854   1.820  10.055  0.1724  0.2234  0.0172
  601W        W 4120   7.845   8.099  11.368 -0.1440 -0.0270  0.1394
  602W        W 4121   1.656   0.532   3.264  0.0586  0.0747 -0.3461
  603W        W 4122   2.946   8.471   0.064 -0.0331 -0.1129 -0.4253
  604W        W 4123   9.366   4.311   3.813  0.1604 -0.5693  0.1681
  605W        W 4124   1.759   1.300   8.950 -0.0708 -0.0619  0.4472
  606W        W 4125   7.616   0.312  10.739  0.0215 -0.0846 -0.1115
  607W        W 4126   4.831   0.750   9.084 -0.1536  0.0135  0.2597
  608W        W 4127   4.477   3.781   9.067  0.1809 -0.0073 -0.0944
  609W        W 4128   2.021   6.937  12.113  0.0157  0.3050 -0.0327
  610W        W 4129   6.008   5.759  12.138  0.1497  0.0411 -0.1316
  611W        W 4130   2.088   8.247   1.539  0.1980 -0.3226 -0.3390
  612W        W 4131   6.383   0.215  10.162  0.2855  0.0629  0.3318
  613W        W 4132   4.571   4.204   2.678  0.0477  0.0097 -0.0033
  614W        W 4133   5.900   8.780  12.403  0.1753  0.2446  0.0127
  615W        W 4134   4.238   3.313   4.090  0.1226  0.2669  0.1892
  616W        W 4135   6.370   4.166  12.442 -0.0688  0.0943 -0.3192
  617W        W 4136   3.023   6.919   1.916  0.2841  0.0794 -0.0695
  618W        W 4137   4.778   7.438   9.811  0.1959  0.0768 -0.2788
  619W        W 4138   9.283   2.191  12.205 -0.2604 -0.0480  0.1929
  620W        W 4139   6.950   0.058   4.750  0.1209 -0.1419 -0.1759
  621W        W 4140   4.902   3.633  11.292  0.2793  0.2544 -0.0819
  622W        W 4141   8.737   4.361   7.708 -0.0727  0.0583 -0.0483
  623W        W 4142   0.998   0.374  10.915 -0.0902 -0.0926  0.0763
  624W        W 4143   4.552   7.614   2.090 -0.3155 -0.1652 -0.0538
  625W        W 4144   9.117   0.393  11.002 -0.0528  0.3356 -0.0865
  626W        W 4145   7.761   8.766   9.743 -0.0277 -0.0154  0.0568
  627W        W 4146   6.864   6.015   9.640  0.1014 -0.0273  0.1135
  628W        W 4147   9.064   8.458   8.940  0.2095  0.0943 -0.2158
  629W        W 4148   1.384   4.932   2.397  0.0198  0.3427 -0.2948
  630W        W 4149   1.771   7.487   0.490  0.1196 -0.2893 -0.2343
  631W        W 4150   0.023   2.707  10.195 -0.3974  0.1891  0.2609
  632W        W 4151   7.433   7.986   1.207  0.1464 -0.1009  0.2604
  633W        W 4152   3.631   7.373   8.772  0.3662  0.0575 -0.2015
  634W        W 4153   6.923   2.896  11.099  0.0392  0.2514 -0.1567
  635W        W 4154   3.535   1.691   1.971  0.0300  0.2124  0.2873
  636W        W 4155   2.671   4.952  10.821 -0.3189  0.4013  0.2216
  637W        W 4156   0.620   7.683   3.109  0.2044  0.1890  0.0675
  638W        W 4157   4.735   1.625   0.144 -0.2862 -0.0980 -0.1838
  639W        W 4158   6.659   8.825  11.029 -0.0389 -0.3238  0.1023
  640W        W 4159   0.648   7.754  10.645 -0.0591 -0.1646 -0.1961
  641W        W 4160   8.702   9.139   9.989 -0.2469 -0.0462  0.0187
  642W        W 4161   7.720   8.244  11.853  0.2567 -0.1482 -0.1052
  643W        W 4162   3.529   8.066  10.310  0.1795  0.1884  0.4314
  644W        W 4163   2.931   3.042   8.628 -0.1459 -0.1267 -0.0292
  645W        W 4164   3.285   0.099   0.914  0.0424  0.0898 -0.2800
  646W        W 4165   4.547   4.215   3.220  0.1492 -0.4025  0.0527
  647W        W 4166   7.684   9.472   7.928 -0.0213  0.0848  0.0917
  648W        W 4167   2.923   6.477   2.305  0.0222 -0.0018 -0.4609
  649W        W 4168   0.949   1.330   0.454 -0.1512 -0.1113  0.0913
  650W        W 4169   5.661   6.375   9.120 -0.0801  0.0702 -0.0459
  651W        W 4170   6.359   1.900   3.143 -0.3630 -0.1315  0.0135
  652W        W 4171   9.119   6.725   2.362  0.2160  0.1409  0.0214
  653W        W 4172   9.608   5.745   0.570  0.1875  0.1685 -0.0749
  654W        W 4173   5.405   4.873   9.723  0.0161  0.0637 -0.4355
  655W        W 4174   6.082   7.369  10.071  0.3056 -0.0095 -0.0339
  656W        W 4175   6.180   8.428   0.617  0.0722  0.0541 -0.3416
  657W        W 4176   3.865   2.849   3.868  0.1515 -0.0311 -0.0207
  658W        W 4177   6.346   1.022  10.263 -0.0340 -0.4239  0.1790
  659W        W 4178   0.727   7.475   9.581 -0.0140  0.3492 -0.2415
  660W        W 4179   2.223   5.553   3.280  0.1139 -0.3367  0.0868
  661W        W 4180   2.257   3.959   9.269  0.0086  0.1650 -0.1495
  662W        W 4181   2.480   8.724   0.277  0.1397  0.0671  0.2677
  663W        W 4182   2.017   4.453   9.386 -0.0555  0.1602 -0.0200
  664W        W 4183   6.684   4.242  10.265 -0.2473 -0.3018 -0.0907
  665W        W 4184   0.119   3.329   9.686  0.1690 -0.0854  0.3951
  666W        W 4185   1.154   4.900   7.993 -0.2089 -0.0725  0.1700
  667W        W 4186   2.498   8.411   1.235  0.0953  0.1210 -0.0440
  668W        W 4187   8.971   2.943   9.014 -0.4482 -0.2714 -0.4428
  669W        W 4188   3.307   4.411   8.989  0.1521  0.0544  0.0107
  670W        W 4189   7.953   2.601  11.840 -0.0889  0.0940  0.2551
  671W        W 4190   1.431   1.446   9.802 -0.2004 -0.1529  0.1208
  672W        W 4191   6.053   4.678   9.512 -0.3538  0.1310  0.6277
  673W        W 4192   7.118   1.493   1.339  0.1500 -0.2208  0.0204
  674W        W 4193   6.569   9.392   9.772 -0.0866  0.2257 -0.0886
  675W        W 4194   5.867   4.845   2.070 -0.3609 -0.1733  0.0034
  676W        W 4195   2.264   5.781   9.227  0.0014  0.1943  0.0331
  677W        W 4196   9.510   5.836   2.534 -0.2260  0.2526  0.0114
  678W        W 4197   8.867   7.741   7.823 -0.0975 -0.2055  0.4296
  679W        W 4198   7.838   6.175   8.751  0.0230  0.1589 -0.3019
  680W        W 4199   8.811   2.182  12.152  0.3627  0.0367 -0.0403
  681W        W 4200   6.552   7.139   0.594 -0.1185 -0.0369 -0.0979
  682W        W 4201   2.608   4.563   9.976 -0.0162 -0.1437 -0.1065
  683W        W 4202   0.624   1.904   8.170 -0.0902 -0.1513  0.2789
  684W        W 4203   9.556   5.728  10.105 -0.0763  0.3787 -0.0977
  685W        W 4204   1.459   8.970   0.476  0.1182  0.1320 -0.1873
  686W        W 4205   6.139   8.677  11.800 -0.2979 -0.2366  0.0158
  687W        W 4206   2.855   5.553  10.313  0.2174 -0.0265  0.2262
  688W        W 4207   0.605   8.553   3.566 -0.1726  0.0193 -0.0841
  689W        W 4208   6.798   3.253  12.000  0.2831  0.3393 -0.1717
  690W        W 4209   0.134   2.948   2.725 -0.2239  0.0946 -0.1339
  691W        W 4210   5.372   7.185  12.199  0.2287 -0.0029 -0.1150
  692W        W 4211   9.324   2.406   4.714  0.1148 -0.2777  0.0826
  693W        W 4212   2.307   4.917   1.334  0.3950 -0.0959  0.0583
  694W        W 4213   5.819   0.595  12.334  0.1489  0.2068 -0.1257
  695W        W 4214   7.493   8.357   3.720  0.2357  0.4580  0.3623
  696W        W 4215   9.599   0.127  11.876  0.0327 -0.1152 -0.3052
  697W        W 4216   9.574   8.956   3.654  0.1220  0.0458 -0.0587
  698W        W 4217   0.080   5.202   0.733 -0.0335 -0.1326  0.0523
  699W        W 4218   5.564   8.367   9.757 -0.0891  0.2541  0.3356
  700W        W 4219   2.788   6.952   1.131  0.0223  0.3091 -0.0966
  701W        W 4220   1.956   8.723  11.030 -0.1921 -0.0022 -0.0869
  702W        W 4221   4.116   8.301   0.463  0.0997 -0.2200  0.0793
  703W        W 4222   1.166   1.798   0.380 -0.2046  0.2100 -0.1807
  704W        W 4223   1.720   8.603   1.307 -0.1186 -0.1464  0.0212
  705W        W 4224   7.867   1.963   9.130  0.1763  0.2681  0.2620
  706W        W 4225   9.215   7.417   0.855 -0.0755  0.1003  0.0473
  707W        W 4226   2.221   9.391   1.605  0.1341 -0.0438 -0.1290
  708W        W 4227   2.987   3.378   4.399  0.0380 -0.0659 -0.1258
  709W        W 4228   8.318   6.877  11.872  0.3370 -0.0912 -0.0219
  710W        W 4229   3.761   0.544   3.599 -0.1339  0.2103 -0.1386
  711W        W 4230   7.712   7.315   2.311  0.0174 -0.0757  0.1761
  712W        W 4231   6.585   7.560   2.987 -0.0402  0.0708 -0.1057
  713W        W 4232   2.725   9.094  11.859 -0.0525 -0.1336 -0.1362
  714W        W 4233   7.515   8.421  11.426  0.0539  0.0314 -0.0259
  715W        W 4234   0.712   1.700   1.477  0.4275 -0.4225 -0.2426
  716W        W 4235   5.421   9.442   3.193 -0.1747  0.0136 -0.1824
  717W        W 4236   9.558   8.259  11.617  0.1646  0.1301  0.3539
  718W        W 4237   8.701   6.713   9.514  0.0292 -0.3437 -0.0997
  719W        W 4238   2.624   5.317   1.344 -0.2953  0.1428  0.2539
  720W        W 4239   7.829   9.133  12.167 -0.1616 -0.0978  0.0628
  721W        W 4240   5.822   9.711   1.063 -0.3913  0.0773  0.0522
  722W        W 4241   7.312   9.687  10.393  0.0260  0.0261 -0.1246
  723W        W 4242   1.122   6.330   4.308 -0.0338  0.1155 -0.0848
  724W        W 4243   4.982   6.780  10.704 -0.0006 -0.1391 -0.2560
  725W        W 4244   0.015   0.017   2.122  0.0023  0.2725  0.1483
  726W        W 4245   3.074   5.118   1.185  0.0589 -0.1555 -0.1131
  727W        W 4246   8.829   4.870   2.112  0.1108 -0.2004 -0.1232
  728W        W 4247   6.356   8.758   0.186 -0.0313 -0.0773 -0.0173
  729W        W 4248   9.277   0.092   0.670 -0.0672  0.3486  0.0778
  730W        W 4249   6.112   2.569   7.674 -0.2587 -0.0599  0.0763
  731W        W 4250   6.835   2.777   0.168 -0.0867 -0.1546  0.3069
  732W        W 4251   7.119   9.469  11.451 -0.1888  0.2540 -0.1474
  733W        W 4252   0.134   4.645   0.643  0.2003 -0.0158 -0.0301
  734W        W 4253   7.462   8.297   0.170  0.3244 -0.2134  0.0122
  735W        W 4254   4.700   8.463  10.876  0.2966 -0.1334 -0.0736
  736W        W 4255   0.129   5.076  11.607  0.0574 -0.2834  0.3070
  737W        W 4256   2.236   8.345  11.983 -0.1243 -0.2160  0.0840
  738W        W 4257   0.954   6.316   9.440  0.0913  0.0221  0.2152
  739W        W 4258   2.981   2.130   0.112  0.2113 -0.0127  0.2346
  740W        W 4259   6.618   3.501   1.837  0.1770 -0.0463  0.0813
  741W        W 4260   0.863   0.094  12.265  0.0778  0.1335 -0.0061
  742W        W 4261   1.318   0.757  10.572  0.4377 -0.0696 -0.0386
  743W        W 4262   4.268   5.028   1.937 -0.0810  0.1460 -0.1400
  744W        W 4263   8.304   4.733   2.833 -0.1267 -0.1103  0.0511
  745W        W 4264   3.766   2.006  12.045 -0.1411  0.2029  0.1551
  746W        W 4265   5.308   7.510   2.656 -0.4381  0.2643  0.0144
  747W        W 4266   9.523   1.942  10.811 -0.2049 -0.2298  0.0798
  748W        W 4267   9.105   7.258   1.356  0.2476 -0.2455 -0.1593
  749W        W 4268   5.908   2.354   9.642 -0.2802 -0.0824  0.1734
  750W        W 4269   0.919   8.704   3.135  0.4439 -0.2977  0.3994
  751W        W 4270   4.946   7.941  12.130 -0.0785 -0.2695 -0.0501
  752W        W 4271   0.990   1.575   3.959  0.2284  0.1882 -0.2056
  753W        W 4272   4.297   5.066   2.519  0.0126 -0.0801  0.1394
  754W        W 4273   0.253   0.199  11.058 -0.0013  0.1060  0.2462
  755W        W 4274   8.079   0.664   1.293  0.2297  0.2910 -0.0658
  756W        W 4275   4.065   8.278   1.013 -0.1009  0.0456 -0.0733
  757W        W 4276   4.749   3.986   4.066  0.2030  0.0523 -0.2887
  758W        W 4277   1.082   3.733   8.423 -0.0772  0.2239  0.0753
  759W        W 4278   3.424   1.915   7.809  0.1000  0.2600 -0.1883
  760W        W 4279   2.312   1.010   1.281  0.3848  0.0785  0.2225
  761W        W 4280   0.146   4.219   1.453 -0.1608 -0.1925 -0.2061
  762W        W 4281   5.831   6.218   2.362 -0.0676  0.1799 -0.2669
  763W        W 4282   6.721   8.786   8.595  0.0545  0.0969  0.2114
  764W        W 4283   4.448   1.709   0.654 -0.3074  0.0434 -0.0666
  765W        W 4284   9.692   8.714   9.643  0.0598  0.2315  0.2997
  766W        W 4285   6.329   7.906   9.682 -0.1009 -0.1573 -0.1810
  767W        W 4286   0.882   8.461   9.884  0.1424  0.0933 -0.2971
  768W        W 4287   6.747   7.418   1.477  0.2699 -0.1395  0.2367
  769W        W 4288   3.772   5.459   1.883 -0.2572 -0.1180 -0.1347
  770W        W 4289   2.945   8.904   1.788 -0.0414 -0.0763 -0.0193
  771W        W 4290   2.794   5.794  10.857 -0.0947 -0.3358  0.3457
  772W        W 4291   3.714   3.079   9.459 -0.0339  0.0421 -0.0083
  773W        W 4292   0.603   3.186  11.761 -0.0444 -0.0140 -0.2752
  774W        W 4293   6.615   5.346   9.128 -0.0865  0.0307  0.0352
  775W        W 4294   8.248   6.701   1.842 -0.1872  0.1602 -0.1157
  776W        W 4295   7.873   4.395  10.965 -0.0313 -0.2815 -0.0246
  777W        W 4296   4.172   5.303  10.238 -0.1251  0.0436  0.4206
  778W        W 4297   1.038   1.859   7.880  0.0150 -0.2074 -0.1365
  779W        W 4298   1.931   7.177   0.049 -0.2435 -0.1729  0.1059
  780W        W 4299   8.181   0.270   0.545  0.3849 -0.0830 -0.2388
  781W        W 4300   8.588   9.565  12.233 -0.2085  0.1071  0.1018
  782W        W 4301   3.543   3.480   3.247 -0.1675  0.2044  0.0128
  783W        W 4302   9.383   7.673   3.783  0.0659  0.0188  0.0006
  784W        W 4303   6.012   8.485  11.338 -0.2865 -0.1205 -0.0230
  785W        W 4304   5.279   3.179   2.689  0.0560 -0.2867  0.2534
  786W        W 4305   6.601   7.036  12.238 -0.0586 -0.0296 -0.1705
  787W        W 4306   4.477   0.863   9.493  0.0125 -0.2092  0.2101
  788W        W 4307   6.214   1.975  10.430  0.2424  0.0909 -0.1096
  789W        W 4308   0.760   9.660   2.924 -0.0194 -0.2796 -0.1686
  790W        W 4309   8.177   8.662  12.117 -0.0303 -0.0990  0.2544
  791W        W 4310   2.661   1.889   9.945 -0.1256 -0.2555  0.2043
  792W        W 4311   8.292   5.880  10.089  0.0734  0.1896 -0.0788
  793W        W 4312   5.883   5.101   8.750  0.3707 -0.1214  0.0928
  794W        W 4313   4.496   5.332  12.417  0.3117 -0.0838 -0.0862
  795W        W 4314   1.934   5.211   0.461  0.0961  0.0364 -0.0312
  796W        W 4315   1.000   9.265   1.675  0.0314  0.2527  0.0287
  797W        W 4316   9.117   6.524  10.209 -0.0534  0.2547 -0.0338
  798W        W 4317   5.087   5.968   8.837  0.3511  0.3563  0.0797
  799W        W 4318   4.018   3.645   8.896  0.2112  0.1261 -0.0008
  800W        W 4319   5.059   6.826   1.278 -0.0232  0.0725 -0.1869
  801W        W 4320   9.337   4.149   3.212  0.2573 -0.0222  0.0061
  802W        W 4321   3.290   6.080   1.018 -0.1751  0.0390 -0.0284
  803W        W 4322   1.454   0.666   0.833  0.1142  0.1707  0.0078
  804W        W 4323   3.461   2.551   9.008  0.3742 -0.4162  0.0504
  805W        W 4324   6.932   0.298  10.888 -0.2236 -0.1773 -0.1069
  806W        W 4325   7.295   3.271  11.098 -0.4343 -0.0914 -0.1191
  807W        W 4326   8.636   2.771   2.149  0.4704 -0.0211 -0.0427
  808W        W 4327   2.165   5.012  10.848 -0.2557  0.1099  0.1484
  809W        W 4328   4.074   0.758   3.313  0.0360  0.4030 -0.0278
  810W        W 4329   5.030   5.078   9.115 -0.1168  0.0559  0.1754
  811W        W 4330   8.615   1.804  12.396  0.2925  0.1935 -0.0948
  812W        W 4331   4.174   6.314   9.227  0.0289  0.2293 -0.0199
  813W        W 4332   9.390   1.191   3.721 -0.2841 -0.1862 -0.2615
  814W        W 4333   5.924   1.806  10.855 -0.0511  0.0498 -0.2298
  815W        W 4334   6.652   0.084  12.295 -0.1841 -0.1859 -0.0334
  816W        W 4335   7.082   7.166   0.501 -0.0221 -0.0637 -0.0433
  817W        W 4336   6.788   2.421   1.034  0.0083 -0.0295  0.0263
  818W        W 4337   0.288   8.539  12.394 -0.1061  0.0588 -0.1534
  819W        W 4338   6.148   4.095   2.611  0.0725  0.4009  0.0492
  820W        W 4339   2.034   0.250   1.501  0.0999 -0.1207 -0.1511
  821W        W 4340   8.892   6.725   3.153  0.1182  0.0951  0.1262
  822W        W 4341   9.367   3.610  11.265 -0.4157  0.1574 -0.0666
  823W        W 4342   6.162   4.179  10.248  0.1030 -0.1497 -0.1865
  824W        W 4343   0.052   7.799  11.495 -0.1665 -0.2241  0.4371
  825W        W 4344   4.741   2.489   2.715 -0.0047 -0.0659 -0.1164
  826W        W 4345   1.938   1.881   2.809  0.0054 -0.0369 -0.2527
  827W        W 4346   1.043   8.875  10.677 -0.0463  0.0968 -0.0463
  828W        W 4347   5.334   4.559  10.328  0.0132 -0.4517 -0.1880
  829W        W 4348   7.979   0.165   8.749 -0.2585  0.0437  0.0239
  830W        W 4349   5.257   0.387   2.150 -0.1902 -0.0042 -0.0396
  831W        W 4350   0.745   5.117  11.809  0.2568  0.3668  0.0087
  832W        W 4351   3.150   8.980  11.638  0.1466 -0.2047 -0.1062
  833W        W 4352   4.745   3.225   7.770  0.0993 -0.2901  0.0825
  834W        W 4353   8.136   4.222   9.348 -0.2977 -0.3136  0.1151
  835W        W 4354   4.734   3.315   0.924  0.1541  0.0579  0.0454
  836W        W 4355   8.019   1.481   2.793  0.1389  0.2055 -0.3013
  837W        W 4356   3.355   0.020   2.933 -0.4213 -0.0348 -0.1764
  838W        W 4357   5.969   8.982  11.375 -0.4086  0.3815 -0.1867
  839W        W 4358   6.060   2.408   2.045 -0.1868 -0.0263 -0.0624
  840W        W 4359   2.346   1.381  12.378 -0.0437 -0.1956  0.1147
  841W        W 4360   6.100   3.280   3.736 -0.0014  0.2822 -0.1859
  842W        W 4361   2.962   2.778   0.346 -0.1940 -0.0608 -0.0391
  843W        W 4362   2.101   1.687   1.930  0.0537  0.4142 -0.0190
  844W        W 4363   2.070   4.740  12.089 -0.4548  0.0335  0.0563
  845W        W 4364   8.100   6.581   8.893 -0.0400  0.0781  0.0324
  846W        W 4365   7.929   1.898   1.485 -0.1430 -0.5090  0.1054
  847W        W 4366   4.749   9.305   3.052  0.3515 -0.2800 -0.3226
  848W        W 4367   4.463   9.424   2.264 -0.1757  0.4701 -0.1486
  849W        W 4368   5.447   6.091   3.329 -0.0232  0.0582 -0.1897
  850W        W 4369   7.859   4.021   1.735  0.3592  0.2250  0.0004
  851W        W 4370   2.641   4.719   9.561 -0.1419  0.0591  0.1995
  852W        W 4371   5.299   5.741   1.196 -0.3953  0.1533 -0.2004
  853W        W 4372   1.161   4.174   3.941  0.3205 -0.0108 -0.2461
  854W        W 4373   1.916   2.027  12.307 -0.0851 -0.0655 -0.0173
  855W        W 4374   0.521   9.499   3.911 -0.3599 -0.2138 -0.1347
  856W        W 4375   8.062   3.873  12.164  0.3851 -0.0657 -0.0106
  857W        W 4376   7.270   4.703  11.636  0.0257  0.2268  0.0339
  858W        W 4377   7.374   2.153   2.238  0.3586 -0.1547 -0.0227
  859W        W 4378   2.820   9.565   2.333  0.1412 -0.3424  0.0302
  860W        W 4379   0.628   9.128   2.920  0.1297 -0.1061 -0.1911
  861W        W 4380   4.333   9.150  11.433 -0.0135 -0.0748 -0.0503
  862W        W 4381   8.173   7.340   9.366  0.0753 -0.4111  0.3587
  863W        W 4382   2.124   6.557  10.031  0.1759 -0.2230  0.0965
  864W        W 4383   3.786   7.480  11.368 -0.1698 -0.1108 -0.0042
  865W        W 4384   5.449   3.010  10.437 -0.0568  0.3856  0.3178
  866W        W 4385   7.699   4.433   9.185  0.0268  0.0317 -0.2064
  867W        W 4386   3.086   2.245  12.108  0.1005  0.0237  0.1374
  868W        W 4387   0.137   4.390  12.256 -0.2028 -0.1575 -0.0771
  869W        W 4388   6.140   6.989   9.756 -0.2062 -0.0858  0.0872
  870W        W 4389   9.692   2.096   0.768 -0.0741  0.0430 -0.3305
  871W        W 4390   0.143   4.142  10.647 -0.2517  0.1186  0.1578
  872W        W 4391   1.272   4.469   2.351 -0.3276 -0.1465  0.0550
  873W        W 4392   2.729   3.818   1.402  0.0650  0.3088 -0.2550
  874W        W 4393   0.112   0.661   1.069  0.0161 -0.3043 -0.2973
  875W        W 4394   9.662   3.175   3.690  0.0240  0.2663  0.1272
  876W        W 4395   2.258   1.332   8.778  0.2342  0.0539 -0.1861
  877W        W 4396   6.211   6.306   8.268  0.0059 -0.0994  0.2096
  878W        W 4397   7.877   1.080  10.347  0.1459 -0.1484  0.0138
  879W        W 4398   2.985   3.806   4.082 -0.0081  0.2304  0.1687
  880W        W 4399   8.126   3.133   2.789  0.2744 -0.1547 -0.2031
  881W        W 4400   6.279   8.011   8.019  0.0636  0.1422  0.0376
  882W        W 4401   8.917   4.569  11.457  0.1434  0.3013  0.0311
  883W        W 4402   9.007   1.433   9.440 -0.3499  0.1770  0.0330
  884W        W 4403   8.244   2.968   0.296  0.0339  0.0894  0.2638
  885W        W 4404   1.528   7.256   0.877  0.4319  0.0661 -0.1482
  886W        W 4405   2.868   5.146   8.599 -0.1542 -0.0402  0.0544
  887W        W 4406   3.167   8.221  12.184  0.3423 -0.1867  0.0577
  888W        W 4407   0.488   9.416   3.416 -0.1510  0.1802 -0.2588
  889W        W 4408   7.127   2.663   0.510 -0.1840 -0.1192 -0.1486
  890W        W 4409   8.259   0.310  10.083 -0.2450 -0.1076 -0.1106
  891W        W 4410   9.114   5.630   2.206 -0.3661 -0.0293  0.1533
  892W        W 4411   6.017   6.793   1.883  0.0225 -0.1644 -0.0888
  893W        W 4412   3.611   3.631   2.246 -0.1654  0.0196  0.1261
  894W        W 4413   2.473   2.372   9.822 -0.0002 -0.0751 -0.1974
  895W        W 4414   6.312   3.061  11.776  0.3495 -0.1559 -0.3119
  896W        W 4415   9.523   0.010   2.619 -0.0169  0.2361 -0.3129
  897W        W 4416   1.362   0.075   9.225 -0.0162 -0.0162 -0.0254
  898W        W 4417   5.831   1.416   9.690 -0.2208 -0.0184 -0.0569
  899W        W 4418   1.823   5.658   0.198 -0.0677  0.1566  0.3070
  900W        W 4419   5.954   9.600   0.591  0.2828 -0.3565  0.1908
  901W        W 4420   8.600   5.556  11.979 -0.2916  0.0212  0.2141
  902W        W 4421   0.626   6.787   0.185  0.0364  0.2448 -0.1169
  903W        W 4422   2.697   5.058  10.257 -0.0862  0.1960 -0.0857
  904W        W 4423   2.141   5.469   1.442 -0.0115  0.0190  0.0252
  905W        W 4424   5.434   4.956   8.839  0.0141 -0.0372  0.0340
  906W        W 4425   2.328   1.485   9.862 -0.2930  0.2350 -0.0364
  907W        W 4426   3.040   9.281   1.479 -0.1425 -0.1226 -0.0654
  908W        W 4427   5.482   4.180   2.591  0.2786  0.2334 -0.4366
  909W        W 4428   4.544   0.696   0.839 -0.2823 -0.1740 -0.1102
  910W        W 4429   0.797   8.615  11.019  0.0200 -0.0879  0.1123
  911W        W 4430   6.708   9.115   0.937 -0.0611  0.0942 -0.4750
  912W        W 4431   0.017   4.006   3.598 -0.0381  0.0684 -0.0182
  913W        W 4432   3.451   1.809   8.942 -0.2250  0.0974  0.2502
  914W        W 4433   1.309   7.094   2.858 -0.1230  0.1655 -0.1903
  915W        W 4434   3.834   4.774  10.901 -0.0974 -0.0817  0.1661
  916W        W 4435   4.982   0.372   3.415 -0.0411  0.3258  0.2332
  917W        W 4436   0.945   5.986   0.731  0.1015  0.2723  0.1121
  918W        W 4437   6.071   6.630  11.654  0.0423  0.2135 -0.0866
  919W        W 4438   9.670   4.497   4.170  0.1997  0.2406 -0.1340
  920W        W 4439   2.262   4.553   0.962  0.1482  0.0463  0.3431
  921W        W 4440   5.617   4.544   1.709  0.2578  0.1273  0.3078
  922W        W 4441   7.404   8.558   8.861 -0.5004 -0.0001  0.2388
  923W        W 4442   8.116   3.494   4.490  0.1147 -0.1262  0.1902
  924W        W 4443   2.502   7.111   9.343 -0.1548  0.1288 -0.0576
  925W        W 4444   5.777   5.730   2.551 -0.2392  0.2770 -0.2962
  926W        W 4445   2.832   8.603  10.200  0.0057  0.2277 -0.2357
  927W        W 4446   7.638   9.580   3.055 -0.0161  0.2614  0.2296
  928W        W 4447   5.158   0.845   1.699  0.0676 -0.1002 -0.2505
  929W        W 4448   9.511   3.805   8.672  0.0107  0.2351 -0.4742
  930W        W 4449   1.928   9.590  11.577  0.1032 -0.0265  0.0359
  931W        W 4450   6.469   8.385   9.643 -0.3275 -0.1932 -0.0470
  932W        W 4451   6.064   6.907  10.255  0.2936  0.2664  0.3105
  933W        W 4452   6.833   1.068  11.720 -0.3592  0.0872  0.3237
  934W        W 4453   0.039   0.847   3.823 -0.0689  0.1608 -0.0501
  935W        W 4454   0.792   7.328  10.864 -0.1221  0.0272  0.1377
  936W        W 4455   0.737   7.120   2.953  0.0599  0.2141 -0.0929
  937W        W 4456   5.869   8.099  10.089  0.1664 -0.0950 -0.0893
  938W        W 4457   7.181   4.073   0.592  0.2124  0.0129  0.3180
  939W        W 4458   0.622   5.613  11.785 -0.1382 -0.1055  0.0402
  940W        W 4459   8.511   8.836   0.895  0.1274  0.0141  0.0490
  941W        W 4460   2.313   3.171   9.534  0.4589  0.1317 -0.0785
  942W        W 4461   4.681   6.969   9.503  0.3434 -0.0927  0.1224
  943W        W 4462   4.226   3.462   1.586  0.2290  0.0250  0.0277
  944W        W 4463   7.816   0.407   9.807  0.0699 -0.1667  0.2826
  945W        W 4464   0.606   4.071  10.357  0.0310  0.1472 -0.2627
  946W        W 4465   1.780   4.721  10.448 -0.0034 -0.0390 -0.2510
  947W        W 4466   9.029   9.210  12.244  0.0570  0.1223 -0.3037
  948W        W 4467   3.173   9.582  10.135 -0.0755 -0.4411  0.0651
  949W        W 4468   0.117   4.430   8.906 -0.0722  0.2101  0.0735
  950W        W 4469   7.584   1.639   3.464 -0.3447  0.3575  0.0302
  951W        W 4470   0.663   9.337   9.856  0.0186  0.1325 -0.0674
  952W        W 4471   2.213   5.260  11.697  0.1743  0.5149 -0.3384
  953W        W 4472   8.052   4.751  11.705  0.1303  0.0216 -0.0151
  954W        W 4473   6.961   4.640  10.362  0.3029 -0.0640 -0.0364
  955W        W 4474   2.032   0.881  11.623 -0.0789  0.3249  0.1616
  956W        W 4475   2.772   6.711   8.779  0.0630  0.1854  0.0320
  957W        W 4476   9.652   8.674   1.014  0.0095 -0.1319  0.0812
  958W        W 4477   8.741   8.635  11.285 -0.0954 -0.0404  0.1780
  959W        W 4478   3.005   6.821  10.517 -0.0242 -0.2603  0.0125
  960W        W 4479   8.141   2.101   2.665 -0.1311 -0.0613 -0.2538
  961W        W 4480   2.300   1.895  11.266  0.0235 -0.0813  0.2411
  962W        W 4481   5.376   3.019   2.159 -0.4482  0.1123 -0.1459
  963W        W 4482   3.332   0.658   0.903  0.0230 -0.0556  0.0427
  964W        W 4483   9.286   7.788   1.178  0.1597 -0.0352 -0.1088
  965W        W 4484   8.903   8.304   3.505 -0.1624  0.1343  0.1419
  966W        W 4485   9.464   2.418   9.792 -0.1812 -0.1021 -0.0130
  967W        W 4486   0.677   6.635   9.763  0.0966  0.0952 -0.0185
  968W        W 4487   6.629   0.325   9.052 -0.7197  0.1484 -0.0759
  969W        W 4488   7.277   4.813   0.514  0.1065  0.1116  0.0886
  970W        W 4489   2.499   3.925  12.029 -0.1167 -0.1413 -0.0996
  971W        W 4490   5.545   7.748   3.164  0.0930  0.2033 -0.2266
  972W        W 4491   0.582   8.177  10.956 -0.2187 -0.1921  0.2156
  973W        W 4492   8.708   3.802   0.899  0.0084  0.0013 -0.3650
  974W        W 4493   1.292   4.237   1.895  0.1156  0.5972  0.1661
  975W        W 4494   5.355   2.661   0.656  0.2694  0.1464  0.4295
  976W        W 4495   6.103   0.753  11.926 -0.0472 -0.1744 -0.1029
  977W        W 4496   1.146   3.347  12.502  0.0901 -0.3901  0.3135
  978W        W 4497   1.198   8.550  10.282 -0.0525 -0.3249  0.0210
  979W        W 4498   4.204   7.200  11.561  0.0800 -0.1176 -0.6727
  980W        W 4499   6.953   6.147  12.330  0.2447 -0.0946  0.1241
  981W        W 4500   6.171   6.093   2.710  0.1970 -0.0309 -0.1038
  982W        W 4501   6.519   1.548  10.353  0.2308  0.0586 -0.0994
  983W        W 4502   3.054   5.335   2.917 -0.1930 -0.0095 -0.2762
  984W        W 4503   4.011   6.346   8.684  0.0797 -0.0320  0.0469
  985W        W 4504   1.803   2.882   3.214 -0.1404 -0.1436  0.2291
  986W        W 4505   4.148   2.170  11.015  0.0595 -0.0506 -0.1040
  987W        W 4506   3.603   6.143  10.390 -0.1133 -0.2446 -0.2167
  988W        W 4507   8.092   6.628   3.911  0.1190 -0.0238  0.1238
  989W        W 4508   4.179   2.646  10.728  0.1677 -0.1610  0.0722
  990W        W 4509   0.886   7.754  12.005  0.1994 -0.0745  0.3009
  991W        W 4510   0.246   3.042   9.284 -0.2055 -0.2318 -0.2785
  992W        W 4511   7.965   2.419   8.476 -0.2592  0.0767  0.1475
  993W        W 4512   1.909   7.811   8.612  0.2114  0.3471  0.0633
  994W        W 4513   0.237   2.793   4.136 -0.2611  0.0438 -0.2038
  995W        W 4514   8.499   5.164   8.747 -0.1444  0.2231  0.0296
  996W        W 4515   8.083   5.595   3.049 -0.1895  0.1335 -0.0453
  997W        W 4516   3.581   9.254   0.671 -0.0501 -0.1489  0.0615
  998W        W 4517   1.837   0.954   2.430 -0.0132  0.1533 -0.0012
  999W        W 4518   4.445   4.799   0.460  0.1961 -0.1982  0.3362
 1000W        W 4519   8.872   7.774   0.363  0.0583 -0.1804  0.0177
 1001W        W 4520   0.432   3.901   2.072  0.1532  0.1169 -0.0119
 1002W        W 4521   4.603   5.427   9.191 -0.2684 -0.2189 -0.0334
 1003W        W 4522   6.831   0.309   1.214 -0.1477 -0.0909  0.0123
 1004W        W 4523   7.997   5.529   0.315 -0.0945 -0.2320  0.1369
 1005W        W 4524   8.059   0.583  10.613  0.1997 -0.1073  0.1344
 1006W        W 4525   2.796   0.643   9.168 -0.1120  0.2574 -0.2568
 1007W        W 4526   3.413   5.750   9.997  0.1275  0.0784 -0.2462
 1008W        W 4527   6.112   3.564  10.531  0.1630  0.0836  0.2217
 1009W        W 4528   2.652   2.056   4.071  0.3926 -0.1078  0.0884
 1010W        W 4529   8.804   6.041   2.320  0.0655  0.4528 -0.0567
 1011W        W 4530   8.713   0.716   3.368  0.1956  0.0409 -0.1830
 1012W        W 4531   8.360   6.644   2.365 -0.0945  0.1180  0.3219
 1013W        W 4532   7.885   2.060   8.057 -0.0078  0.1376  0.1305
 1014W        W 4533   7.926   8.690   8.960  0.1737  0.2617  0.0620
 1015W        W 4534   1.942   9.455   0.565 -0.0333  0.1497 -0.0038
 1016W        W 4535   2.054   7.286   0.828  0.0952  0.1240  0.0709
 1017W        W 4536   7.638   5.280  10.578 -0.3840 -0.0078  0.0901
 1018W        W 4537   5.980   7.110   0.450 -0.0975  0.0634 -0.0700
 1019W        W 4538   7.319   2.694   3.347  0.1278 -0.2715 -0.2282
 1020W        W 4539   0.954   1.624  12.517  0.1903 -0.1423  0.1732
 1021W        W 4540   2.391   3.440   1.277  0.1332 -0.1861 -0.0721
 1022W        W 4541   7.796   6.534   9.762 -0.0345  0.0044  0.0609
 1023W        W 4542   0.899   1.718   9.451 -0.0551  0.1845 -0.1212
 1024W        W 4543   2.739   4.535  10.481  0.3365  0.2523  0.2279
 1025W        W 4544   2.759   4.048  11.636 -0.0478  0.1891  0.1179
 1026W        W 4545   2.150   1.135   3.195 -0.1858 -0.0631 -0.2114
 1027W        W 4546   0.473   1.060   0.192  0.0654 -0.0489  0.4385
 1028W        W 4547   0.270   5.242   9.019  0.1585 -0.0961  0.2800
 1029W        W 4548   2.112   2.531  12.256  0.2363 -0.1350  0.0463
 1030W        W 4549   4.507   1.263   8.767  0.0582  0.2808  0.0323
 1031W        W 4550   5.664   8.838   9.499 -0.1406 -0.1568  0.1218
 1032W        W 4551   6.317   1.864   2.086 -0.1422  0.0099 -0.1083
 1033W        W 4552   8.792   2.816  11.579  0.3668  0.4278 -0.0358
 1034W        W 4553   4.237   4.600   8.927 -0.2837 -0.2311 -0.0065
 1035W        W 4554   9.281   0.001   7.868 -0.1432  0.1450 -0.2112
 1036W        W 4555   6.866   3.528  11.200  0.0847  0.0965 -0.3041
 1037W        W 4556   2.248   1.904   9.531  0.2943  0.0603 -0.1605
 1038W        W 4557   4.700   3.045   4.021  0.0613  0.0764  0.1900
 1039W        W 4558   5.232   5.175   0.612 -0.0621 -0.0149 -0.2427
 1040W        W 4559   5.826   0.368   1.375  0.0810 -0.0603 -0.2621
 1041W        W 4560   8.211   0.498   3.334  0.1289 -0.2462 -0.0863
 1042W        W 4561   7.378   8.984   3.097 -0.0756 -0.1085 -0.1790
 1043W        W 4562   6.896   4.692  11.346 -0.1524 -0.2031 -0.0830
 1044W        W 4563   8.432   4.670  11.329 -0.3186 -0.4365 -0.2066
 1045W        W 4564   4.877   2.354   2.238 -0.0462 -0.1848 -0.1505
 1046W        W 4565   5.421   4.634   4.417 -0.0517 -0.0798  0.0536
 1047W        W 4566   0.057   7.292  11.329 -0.1677 -0.0674  0.1609
 1048W        W 4567   9.373   4.438   0.687  0.4008  0.0282 -0.0430
 1049W        W 4568   5.167   9.131   3.594 -0.1120  0.2550  0.0660
 1050W        W 4569   1.159   8.436   2.441  0.1174 -0.0861  0.1037
 1051W        W 4570   4.557   4.424  10.811 -0.1484  0.3131  0.0027
 1052W        W 4571   1.202   6.569  12.363 -0.2342  0.2731 -0.2587
 1053W        W 4572   7.057   2.297   8.299  0.1895 -0.3761  0.2165
 1054W        W 4573   6.811   1.497   9.736  0.0275  0.1204 -0.0915
 1055W        W 4574   0.940   2.563   9.165  0.0881  0.1636  0.0114
 1056W        W 4575   2.636   7.389  10.993  0.1238  0.1657  0.1311
 1057W        W 4576   1.064   0.670   2.350 -0.0434 -0.1559 -0.1053
 1058W        W 4577   8.395   5.176   1.954 -0.1491 -0.2366  0.0798
 1059W        W 4578   8.694   7.373  12.136 -0.1699 -0.0366  0.1523
 1060W        W 4579   3.957   3.446   2.975 -0.1962  0.1149 -0.0465
 1061W        W 4580   7.826   3.036   9.484  0.1480 -0.2437  0.0007
 1062W        W 4581   0.382   6.093   9.953  0.2709 -0.1076  0.0719
 1063W        W 4582   7.875   8.537   1.927 -0.2833 -0.0987  0.1912
 1064W        W 4583   0.481   8.762  11.966 -0.0859  0.1338  0.1873
 1065W        W 4584   0.033   2.534   9.232  0.3814 -0.2057  0.1517
 1066W        W 4585   8.820   0.160  11.444 -0.3138 -0.1990  0.1154
 1067W        W 4586   0.993   6.561   1.219  0.1251 -0.0249 -0.0913
 1068W        W 4587   1.716   7.628   0.023  0.0324 -0.1229 -0.0473
 1069W        W 4588   0.845   9.202   1.101  0.0726  0.0097  0.1410
 1070W        W 4589   2.168   4.192   8.845 -0.1564  0.1939 -0.0459
 1071W        W 4590   3.841   9.375   9.297 -0.2258 -0.1519  0.0525
 1072W        W 4591   0.953   6.255   3.040 -0.0419  0.0457 -0.2107
 1073W        W 4592   1.395   4.730   4.780  0.3998  0.0888 -0.2422
 1074W        W 4593   4.792   5.927  11.993  0.1144 -0.2202  0.1212
 1075W        W 4594   9.263   9.453  11.709 -0.2690 -0.1373 -0.3431
 1076W        W 4595   9.337   1.149   9.088 -0.2474 -0.2144 -0.0471
 1077W        W 4596   9.058   5.936   2.772 -0.0284  0.2629 -0.1249
 1078W        W 4597   4.957   2.882  11.997  0.0335  0.2240  0.2965
 1079W        W 4598   2.267   0.977   9.576 -0.1675  0.0621  0.0856
 1080W        W 4599   2.275   1.411   9.288  0.0129 -0.0158  0.2514
 1081W        W 4600   2.298   2.388  11.351 -0.1038 -0.0663 -0.1150
 1082W        W 4601   4.989   2.719  10.556 -0.1371 -0.1486 -0.1319
 1083W        W 4602   6.865   7.302   9.045 -0.2523 -0.1098 -0.0816
 1084W        W 4603   8.632   6.372  11.022  0.1590  0.0534 -0.2201
 1085W        W 4604   4.931   6.988   0.867  0.0591 -0.3692  0.2189
 1086W        W 4605   9.409   2.912   1.527 -0.1881 -0.0080 -0.1022
 1087W        W 4606   8.486   1.534   8.680  0.4498  0.1019  0.2657
 1088W        W 4607   4.452   4.468   1.621  0.0973 -0.0558 -0.0337
 1089W        W 4608   8.375   6.939  10.446  0.3047 -0.0241  0.0933
 1090W        W 4609   7.174   4.924   8.949  0.0740 -0.0110 -0.1416
 1091W        W 4610   1.501   6.155   1.506 -0.0104 -0.3181  0.0414
 1092W        W 4611   7.642   2.300   2.740  0.0812 -0.0240  0.0512
 1093W        W 4612   5.604   5.038  10.269 -0.0686  0.0154  0.1798
 1094W        W 4613   4.012   7.798  11.731 -0.2948  0.3541  0.0180
 1095W        W 4614   8.618   4.561   1.219  0.1248  0.0874 -0.0138
 1096W        W 4615   2.464   6.982  11.882  0.0525  0.4304 -0.4015
 1097W        W 4616   9.331   1.407   0.169 -0.4505 -0.3022  0.1208
 1098W        W 4617   3.720   7.741   3.293 -0.0005 -0.0220 -0.1239
 1099W        W 4618   6.640   5.962   4.065  0.1883 -0.1704  0.1280
 1100W        W 4619   5.111   4.047   0.992  0.0621  0.1790  0.0372
 1101W        W 4620   6.527   1.535   7.992  0.2522 -0.1174  0.2781
 1102W        W 4621   2.128   7.436   9.591 -0.0564 -0.1366 -0.1413
 1103W        W 4622   1.731   7.710   9.839 -0.1320 -0.1995 -0.3220
 1104W        W 4623   6.483   4.085  11.950 -0.0811  0.0029 -0.4050
 1105W        W 4624   5.651   7.290   7.808 -0.2477 -0.0625 -0.1353
 1106W        W 4625   7.879   7.116   3.940  0.0221  0.1108  0.1425
 1107W        W 4626   8.785   9.364  10.432 -0.2330  0.1800  0.2387
 1108W        W 4627   5.232   0.091   0.207  0.0744  0.1589  0.1596
 1109W        W 4628   4.043   0.066  10.423  0.0623 -0.2635 -0.1129
 1110W        W 4629   4.903   6.735   9.052  0.0421 -0.2769 -0.1562
 1111W        W 4630   0.258   5.353  12.017  0.0764  0.0040  0.1403
 1112W        W 4631   7.192   9.137  10.184  0.1206  0.0166  0.1208
 1113W        W 4632   5.069   4.186   2.851 -0.0770  0.2573 -0.0702
 1114W        W 4633   3.463   4.959   3.367 -0.0826 -0.2702  0.0431
 1115W        W 4634   5.202   5.256  11.259 -0.0474 -0.2172 -0.1063
 1116W        W 4635   1.597   5.175   4.922 -0.1607  0.0261 -0.4446
 1117W        W 4636   6.464   9.619   8.235  0.1547 -0.0739 -0.2023
 1118W        W 4637   4.932   3.747   9.159  0.1031 -0.0682 -0.0600
 1119W        W 4638   0.518   1.282   2.163 -0.1042 -0.2025 -0.0804
 1120W        W 4639   6.234   8.178  11.840  0.0181  0.4463 -0.1175
 1121W        W 4640   1.124   8.377   8.803  0.1756  0.0393  0.0185
 1122W        W 4641   6.367   4.621   9.974  0.2130  0.2053 -0.0387
 1123W        W 4642   7.315   2.223   4.148 -0.3678 -0.1567 -0.0466
 1124W        W 4643   7.426   9.040  12.437 -0.2576  0.0809  0.2299
 1125W        W 4644   7.969   6.167   5.225  0.1766  0.2434 -0.3763
 1126W        W 4645   0.473   3.468  11.229  0.1596 -0.2944 -0.0197
 1127W        W 4646   3.245   4.625   3.747  0.2592  0.3256  0.0424
 1128W        W 4647   5.643   5.910   9.994  0.0253  0.0255 -0.0405
 1129W        W 4648   7.731   8.016   2.925 -0.0557 -0.1422 -0.1468
 1130W        W 4649   2.656   3.017   9.072  0.1987 -0.0883 -0.1738
 1131W        W 4650   3.262   3.944   2.183 -0.2925  0.1009  0.1613
 1132W        W 4651   9.571   0.335   3.462 -0.0861  0.1036  0.4568
 1133W        W 4652   0.923   3.493  12.019  0.0946  0.0576 -0.0878
 1134W        W 4653   0.339   7.974   9.833  0.0133 -0.2072  0.0318
 1135W        W 4654   7.432   8.467   9.341 -0.1447 -0.2280 -0.0990
 1136W        W 4655   7.221   8.706   8.420 -0.0316 -0.3692  0.0569
 1137W        W 4656   1.450   6.302   3.349 -0.2942  0.2031  0.0053
 1138W        W 4657   7.660   6.101  11.888  0.0477 -0.0350 -0.1034
 1139W        W 4658   5.950   3.525   8.986 -0.1017 -0.0037  0.1206
 1140W        W 4659   8.842   4.103  12.487  0.1665  0.3239 -0.1464
 1141W        W 4660   1.220   5.457   8.985  0.3314  0.3445  0.0637
 1142W        W 4661   4.794   1.733   2.593  0.2111  0.1145 -0.0196
 1143W        W 4662   0.194   1.451   1.463  0.1061  0.0793  0.1858
 1144W        W 4663   2.551   0.813   3.430  0.3279  0.0112 -0.4013
 1145W        W 4664   5.889   4.242   2.197 -0.1282  0.1099 -0.1121
 1146W        W 4665   7.532   8.595  12.194 -0.1593  0.2624 -0.0046
 1147W        W 4666   4.330   7.156   2.048 -0.0867  0.0653 -0.0226
 1148W        W 4667   8.801   6.949  11.699  0.3455 -0.2198 -0.1348
 1149W        W 4668   8.299   3.178   2.313  0.0457  0.0635 -0.0455
 1150W        W 4669   8.230   0.730   9.821 -0.2455  0.3575  0.2621
 1151W        W 4670   6.633   1.614  11.365 -0.1881 -0.2101  0.2637
 1152W        W 4671   3.893   6.876  11.376 -0.0062  0.4630  0.3009
 1153W        W 4672   0.642   4.123   9.261  0.0110  0.2054  0.1371
 1154W        W 4673   4.097   3.248   9.916  0.1171 -0.0772 -0.1654
 1155W        W 4674   0.937   7.065   9.799  0.0671  0.3560  0.1758
 1156W        W 4675   1.228   2.204  12.220  0.1036  0.2587 -0.1482
 1157W        W 4676   1.513   1.122   1.132  0.0213  0.2037 -0.1678
 1158W        W 4677   2.686   9.439  10.873 -0.2492 -0.0203  0.1234
 1159W        W 4678   5.370   4.169   0.586  0.1352 -0.2208 -0.1500
 1160W        W 4679   5.114   5.298  10.550 -0.0434  0.0230 -0.1581
 1161W        W 4680   6.270   9.484   2.635  0.0419  0.2936  0.3940
 1162W        W 4681   4.343   2.990  11.092  0.2976  0.2019  0.2338
 1163W        W 4682   9.686   9.015  10.942 -0.0044  0.2517 -0.1142
 1164W        W 4683   0.995   6.904  10.687  0.0381  0.1364 -0.0528
 1165W        W 4684   4.666   4.746   9.131  0.0077 -0.2320 -0.2092
 1166W        W 4685   8.480   7.441  10.707  0.2779 -0.1275 -0.0514
 1167W        W 4686   7.225   5.792   1.288 -0.3265 -0.1385  0.0563
 1168W        W 4687   5.064   0.362   1.650  0.1591  0.4148  0.3336
 1169W        W 4688   7.411   7.718   4.328 -0.0872 -0.0124 -0.1655
 1170W        W 4689   1.002   7.350   8.334 -0.0778  0.4826 -0.1131
 1171W        W 4690   3.814   6.486  12.218 -0.2369 -0.1361  0.1011
 1172W        W 4691   9.185   8.809   9.290 -0.0452  0.0424  0.1301
 1173W        W 4692   8.095   3.734   0.173  0.0030 -0.0878  0.2121
 1174W        W 4693   8.315   2.798   3.088  0.0300 -0.1102  0.0390
 1175W        W 4694   7.709   1.830   2.552 -0.1171 -0.3253 -0.2059
 1176W        W 4695   1.079   7.928   3.095  0.3678 -0.1110  0.0338
 1177W        W 4696   4.099   6.574   0.956  0.1122  0.1347  0.2038
 1178W        W 4697   0.835   7.925   0.176 -0.2659  0.1032  0.0085
 1179W        W 4698   8.596   4.488   2.426  0.0226 -0.3877 -0.0562
 1180W        W 4699   2.075   8.726   9.109 -0.1034  0.1499  0.0971
 1181W        W 4700   3.569   6.782  11.824 -0.2065  0.0201  0.0220
 1182W        W 4701   5.017   8.438  12.218 -0.0213  0.0959  0.0009
 1183W        W 4702   8.554   4.037   8.106  0.0775  0.2101 -0.0321
 1184W        W 4703   3.767   8.645   9.406 -0.0078  0.0087 -0.0986
 1185W        W 4704   4.641   6.827  12.147 -0.2210 -0.0450  0.3628
 1186W        W 4705   3.800   0.821  11.754 -0.0442 -0.0476 -0.0920
 1187W        W 4706   1.648   8.983  11.425  0.3283  0.0527 -0.1031
 1188W        W 4707   1.885   0.296   9.430  0.0428  0.3088 -0.0002
 1189W        W 4708   7.960   9.055   8.187 -0.0461 -0.1983  0.1440
 1190W        W 4709   8.310   8.540   2.236  0.3153 -0.1742  0.0223
 1191W        W 4710   3.482   8.918   2.282 -0.0014  0.3122  0.2500
 1192W        W 4711   4.068   4.528   0.591 -0.0765 -0.1229  0.1815
 1193W        W 4712   9.541   0.400   3.978 -0.2100 -0.1177 -0.0801
 1194W        W 4713   3.697   7.114   2.951  0.1787 -0.3203 -0.0510
 1195W        W 4714   4.076   6.253   2.554 -0.0545  0.0511 -0.0460
 1196W        W 4715   7.642   5.741   2.397  0.3157 -0.1002  0.0574
 1197W        W 4716   3.692   8.433   0.698 -0.1745  0.2234 -0.1782
 1198W        W 4717   1.582   2.028   1.235  0.0803 -0.0174 -0.0879
 1199W        W 4718   0.110   7.932   3.316 -0.3983  0.0280  0.3451
 1200W        W 4719   9.631   9.498  10.324 -0.0999  0.1619 -0.0537
 1201W        W 4720   9.549   0.521   0.499  0.0550  0.0799 -0.2491
 1202W        W 4721   9.435   4.046   9.199  0.0960 -0.1766  0.0204
 1203W        W 4722   4.086   0.944   8.079 -0.4011  0.2205  0.0522
 1204W        W 4723   3.220   2.103   9.292  0.1964 -0.2787 -0.1264
 1205W        W 4724   1.420   4.729   1.120  0.1520 -0.1550  0.3272
 1206W        W 4725   2.148   5.270   8.712  0.1250  0.2063  0.2932
 1207W        W 4726   6.908   8.814   1.304  0.0189 -0.0493  0.0574
 1208W        W 4727   8.875   8.113  11.928  0.1353  0.0240  0.1559
 1209W        W 4728   3.265   6.733   8.874 -0.2523 -0.0513  0.1423
 1210W        W 4729   6.088   1.050  12.432 -0.0209 -0.1096  0.1427
 1211W        W 4730   4.368   2.909  11.790 -0.1414 -0.4273  0.3409
 1212W        W 4731   7.535   2.830  12.086  0.0764 -0.1156 -0.0205
 1213W        W 4732   1.269   6.332  11.727  0.4277  0.1481  0.0958
 1214W        W 4733   9.407   3.044  10.152  0.2893 -0.1261  0.1243
 1215W        W 4734   7.435   6.228   9.607  0.2514 -0.0504  0.1667
 1216W        W 4735   0.812   1.183  11.519 -0.0891  0.3386 -0.1452
 1217W        W 4736   6.974   2.998   2.377 -0.5157  0.1954 -0.2401
 1218W        W 4737   1.847   0.720   0.507  0.0062  0.2163 -0.4395
 1219W        W 4738   7.929   9.593  11.857 -0.0067  0.3900  0.2157
 1220W        W 4739   6.342   6.781  10.903 -0.3091  0.4109 -0.1989
 1221W        W 4740   3.378   9.334   1.136 -0.1340  0.0056  0.4235
 1222W        W 4741   0.274   4.249   0.888 -0.0678 -0.1751  0.0581
 1223W        W 4742   7.257   3.851  11.453 -0.0183  0.2144 -0.0754
 1224W        W 4743   2.097   3.137   9.002  0.1811 -0.3431  0.4751
 1225W        W 4744   6.444   3.239   0.413  0.0257  0.0335  0.0107
 1226W        W 4745   6.992   1.534   2.554  0.1526 -0.2421 -0.2910
 1227W        W 4746   2.489   5.920  10.211 -0.3242  0.3069  0.0000
 1228W        W 4747   1.632   1.987   9.542 -0.0164 -0.1475 -0.0391
 1229W        W 4748   6.671   9.480   3.001  0.0262  0.0062 -0.0203
 1230W        W 4749   2.880   2.581   1.347 -0.0453  0.2355 -0.2863
 1231W        W 4750   7.680   1.281   3.147  0.0735 -0.1382  0.0516
 1232W        W 4751   1.943   8.836   2.444 -0.0972 -0.0906  0.0437
 1233W        W 4752   1.184   2.758   7.989 -0.1922 -0.1441 -0.3713
 1234W        W 4753   6.321   2.428   3.286  0.4086  0.1696  0.0748
 1235W        W 4754   2.618   3.301  11.131  0.1055  0.0851  0.1018
 1236W        W 4755   1.795   5.032  11.809 -0.2611 -0.1177  0.1685
 1237W        W 4756   5.327   2.797   9.972  0.1683  0.0400 -0.0521
 1238W        W 4757   1.195   8.600  11.580 -0.1813 -0.0920 -0.0373
 1239W        W 4758   1.452   9.447  11.480 -0.1785  0.1144 -0.0994
 1240W        W 4759   4.558   3.200   8.676 -0.1059 -0.1537  0.0699
 1241W        W 4760   5.996   2.454   8.221  0.0344  0.0185  0.3562
 1242W        W 4761   7.534   7.573   3.116 -0.1328 -0.0216 -0.1948
 1243W        W 4762   1.991   9.049   0.197  0.2352  0.1135  0.1117
 1244W        W 4763   9.612   0.272  10.170 -0.1271  0.2531  0.0586
 1245W        W 4764   5.681   2.259   8.628 -0.0958  0.0147  0.4286
 1246W        W 4765   8.427   9.218   4.497  0.1550  0.0764  0.1260
 1247W        W 4766   2.279   8.403  10.373 -0.1030  0.0140  0.1689
 1248W        W 4767   0.288   0.432   9.478  0.1458  0.4300  0.0275
 1249W        W 4768   7.436   7.711   0.771  0.2057  0.1748  0.0200
 1250W        W 4769   2.918   8.404   9.137 -0.1603 -0.1764 -0.1336
 1251W        W 4770   1.776   5.086   2.125  0.0345 -0.0820 -0.0620
 1252W        W 4771   0.339   5.388   3.788 -0.2456 -0.0230 -0.1382
 1253W        W 4772   5.723   0.146   2.011  0.1040 -0.0666 -0.1810
 1254W        W 4773   6.982   4.204  11.204  0.1639  0.1852  0.1486
 1255W        W 4774   8.432   0.941   2.119  0.1237  0.1471 -0.0296
 1256W        W 4775   0.577   9.207   0.361  0.0689 -0.2296 -0.0718
 1257W        W 4776   2.456   6.527   3.262 -0.0866 -0.0304 -0.2315
 1258W        W 4777   7.505   3.114  10.706  0.0346 -0.0049 -0.1374
 1259W        W 4778   7.890   7.297  10.618 -0.3319  0.3946 -0.0096
 1260W        W 4779   7.693   1.509   8.953  0.4032 -0.3246 -0.0170
 1261W        W 4780   7.886   9.177   1.365 -0.0250  0.3646 -0.0361
 1262W        W 4781   2.796   0.129   8.355 -0.2249  0.4805  0.3392
 1263W        W 4782   2.253   1.209  10.235  0.1951  0.1964  0.2069
 1264W        W 4783   7.176   9.538   1.537 -0.0240  0.1557 -0.3284
 1265W        W 4784   2.787   0.828   0.255  0.0719 -0.2498  0.1003
 1266W        W 4785   8.374   6.314   9.261  0.1290  0.0600 -0.1719
 1267W        W 4786   9.305   6.311   1.523  0.4603 -0.0004  0.1264
 1268W        W 4787   3.944   7.995  10.007 -0.2698 -0.3803  0.0952
 1269W        W 4788   0.070   5.408  10.962 -0.1080  0.0991 -0.3220
 1270W        W 4789   4.012   7.811  10.537 -0.0921  0.2144  0.2545
 1271W        W 4790   0.084   9.663   3.027  0.1038 -0.0090 -0.1315
 1272W        W 4791   5.986   8.075   8.418  0.3277 -0.1072 -0.4007
 1273W        W 4792   4.423   0.471   3.023 -0.1764 -0.0528  0.5611
 1274W        W 4793   2.216   3.210   3.041 -0.1186  0.2239 -0.1069
 1275W        W 4794   9.062   2.515  10.784  0.0221  0.1783  0.2215
 1276W        W 4795   3.645   6.609   2.568  0.1034  0.1511 -0.1479
 1277W        W 4796   8.659   9.095   9.513 -0.0967  0.0698  0.2814
 1278W        W 4797   6.180   6.313  11.008 -0.2024 -0.2838  0.1025
 1279W        W 4798   3.063   5.294  10.813 -0.1619 -0.1110  0.3921
 1280W        W 4799   9.149   8.328  10.186 -0.1774 -0.3361 -0.0537
 1281W        W 4800   5.001   8.039   0.729 -0.0573 -0.0258 -0.2686
 1282W        W 4801   0.166   4.927   3.653  0.3739 -0.3988 -0.3318
 1283W        W 4802   1.412   4.108   2.950 -0.0119  0.0093  0.2578
 1284W        W 4803   0.867   5.753   8.691  0.0761  0.0642  0.1033
 1285W        W 4804   7.154   6.566  10.558 -0.0678 -0.2100 -0.0057
 1286W        W 4805   2.163   9.140  10.750  0.1731  0.0211  0.0856
 1287W        W 4806   1.453   6.812  10.809  0.1027  0.2297  0.0062
 1288W        W 4807   0.210   9.424   1.752  0.2658  0.1234  0.0013
 1289W        W 4808   3.256   1.149   1.159  0.0196 -0.2050 -0.3346
 1290W        W 4809   1.938   3.281   3.496 -0.0833 -0.1633  0.1662
 1291W        W 4810   7.318   4.164  12.499 -0.0429  0.0960  0.2040
 1292W        W 4811   5.871   7.728   9.783 -0.2897 -0.0269  0.1081
 1293W        W 4812   1.515   5.128   2.849 -0.1229  0.3840 -0.0396
 1294W        W 4813   3.560   7.914   2.791 -0.1066  0.4511  0.3258
 1295W        W 4814   9.208   2.688   0.556 -0.0462 -0.0762 -0.1588
 1296W        W 4815   7.134   2.856  11.685  0.0231  0.1160 -0.0146
 1297W        W 4816   1.839   5.502   2.972  0.0402 -0.2529  0.0242
 1298W        W 4817   3.735   1.714   3.269 -0.1787 -0.1868  0.0083
 1299W        W 4818   4.779   1.897   3.492  0.0564  0.3728  0.0861
 1300W        W 4819   1.524   0.182  11.709 -0.0504 -0.1784 -0.0399
 1301W        W 4820   8.301   8.599   2.703  0.1352  0.1253 -0.1999
 1302W        W 4821   6.938   7.158  11.340 -0.2825 -0.1556 -0.0021
 1303W        W 4822   0.664   5.510   2.769 -0.0633 -0.4604 -0.2018
 1304W        W 4823   4.999   8.558  11.357 -0.2022  0.0689 -0.2008
 1305W        W 4824   6.020   0.791   4.756 -0.0275  0.0894 -0.0611
 1306W        W 4825   3.287   4.416   0.487 -0.1036  0.1552 -0.2252
 1307W        W 4826   3.919   7.109   2.463  0.0635 -0.0789  0.3821
 1308W        W 4827   1.290   9.456   1.247  0.0332  0.1722  0.2825
 1309W        W 4828   7.513   1.264   0.506 -0.1543 -0.1193  0.1917
 1310W        W 4829   9.438   8.610  11.151  0.2618  0.0911 -0.0814
 1311W        W 4830   7.983   8.653   1.401 -0.5009  0.0454 -0.1688
 1312W        W 4831   0.204   1.032   2.867 -0.2875 -0.1150 -0.1592
 1313W        W 4832   1.969   4.584  11.526  0.1638 -0.1452 -0.1072
 1314W        W 4833   6.531   3.665   0.226 -0.2315  0.2704 -0.1780
 1315W        W 4834   5.474   8.112   0.058  0.2850 -0.2560 -0.2384
 1316W        W 4835   1.673   5.464   8.745 -0.1362  0.1314  0.1577
 1317W        W 4836   1.498   9.312   8.496  0.0157 -0.2745 -0.2790
 1318W        W 4837   5.062   1.732  10.594  0.1247 -0.2785 -0.1085
 1319W        W 4838   7.493   0.522   3.834 -0.0674  0.0480 -0.3170
 1320W        W 4839   8.766   8.201  10.518  0.0127  0.1585 -0.1743
 1321W        W 4840   3.138   1.664   3.401 -0.0902 -0.2646  0.1047
 1322W        W 4841   5.241   2.452   4.369  0.0207 -0.0381 -0.1061
 1323W        W 4842   4.264   6.329  10.234  0.2375 -0.2426 -0.2091
 1324W        W 4843   1.598   2.034  11.826  0.0971 -0.3444 -0.2567
 1325W        W 4844   5.783   2.367   0.689  0.2313  0.3530  0.1643
 1326W        W 4845   1.478   2.878   1.296  0.1961 -0.0535 -0.0551
 1327W        W 4846   5.822   0.061   8.660  0.1320  0.3798  0.0882
 1328W        W 4847   7.256   2.380  11.175  0.2060  0.0467 -0.3821
 1329W        W 4848   1.635   0.220   0.212  0.2951 -0.0543  0.0096
 1330W        W 4849   7.212   1.517  11.389  0.2561 -0.2388  0.1859
 1331W        W 4850   9.332   3.461   9.665  0.1977  0.1649 -0.3188
 1332W        W 4851   5.613   7.359   8.705 -0.0352 -0.3231  0.0567
 1333W        W 4852   2.334   0.392   9.146 -0.1632  0.0445 -0.0116
 1334W        W 4853   6.141   8.884  10.870 -0.0300 -0.1313 -0.0880
 1335W        W 4854   5.835   1.961   1.873 -0.1872 -0.0203 -0.1482
 1336W        W 4855   2.576   6.269  11.713  0.0302 -0.0340 -0.1938
 1337W        W 4856   6.007   6.613   0.073 -0.0428 -0.2210  0.0709
 1338W        W 4857   5.642   2.923   1.016 -0.0839  0.2157  0.0656
 1339W        W 4858   1.702   3.743   9.778  0.1778  0.0322 -0.3670
 1340W        W 4859   6.523   9.613   9.304  0.0216 -0.1601 -0.0054
 1341W        W 4860   6.036   4.487   1.294  0.2024  0.1081  0.0683
 1342W        W 4861   5.771   8.554   0.268  0.2268  0.2472 -0.1080
 1343W        W 4862   0.777   4.408  11.221  0.3070 -0.2453  0.2532
 1344W        W 4863   7.759   4.776  11.317 -0.1702 -0.1482  0.1534
 1345W        W 4864   0.922   2.378   8.712  0.0239  0.1856  0.2930
 1346W        W 4865   9.235   6.755   9.787  0.0471 -0.0798  0.2960
 1347W        W 4866   9.311   6.624  10.794 -0.1068  0.1867  0.0390
 1348W        W 4867   2.440   0.850   2.421  0.2978  0.0892  0.1598
 1349W        W 4868   6.268   8.698   8.901  0.1731  0.1995 -0.0045
 1350W        W 4869   3.076   1.896   1.820  0.0381  0.0282 -0.1667
 1351W        W 4870   5.746   6.688   9.828  0.0465 -0.1784  0.4144
 1352W        W 4871   8.368   4.039   1.423 -0.0862 -0.1271  0.2032
 1353W        W 4872   3.539   7.557  10.371  0.3831 -0.1633 -0.2624
 1354W        W 4873   2.459   1.562  11.644 -0.0703 -0.3494 -0.4250
 1355W        W 4874   4.971   9.630   0.693 -0.0050  0.1801 -0.1209
 1356W        W 4875   2.352   3.748   8.547 -0.0687 -0.2106 -0.0845
 1357W        W 4876   5.702   5.804   2.015 -0.0710 -0.0000 -0.2879
 1358W        W 4877   0.627   0.674  12.354  0.3073  0.2535 -0.2921
 1359W        W 4878   3.865   3.100   3.423  0.2270  0.0032  0.4213
 1360W        W 4879   9.318   6.599   9.321  0.0359  0.3157 -0.0719
 1361W        W 4880   6.017   4.772   3.340  0.1303 -0.2070 -0.0890
 1362W        W 4881   0.075   6.370  10.899 -0.0903 -0.1993  0.3521
 1363W        W 4882   9.485   9.116  11.381 -0.1195  0.1391  0.0444
 1364W        W 4883   2.320   4.520  10.770  0.2028 -0.2397 -0.0519
 1365W        W 4884   8.004   8.071   0.394  0.0033  0.1299 -0.0651
 1366W        W 4885   5.139   2.391  11.082 -0.3506  0.1290  0.0400
 1367W        W 4886   1.799   6.972   9.753  0.0472 -0.0934  0.0154
 1368W        W 4887   7.309   3.948   9.530 -0.0709 -0.0644  0.2831
 1369W        W 4888   3.443   3.950  11.213 -0.2003  0.2339 -0.1930
 1370W        W 4889   5.349   4.917  11.578 -0.0156 -0.0467  0.2097
 1371W        W 4890   5.776   3.763  12.002  0.1610  0.0353  0.2973
 1372W        W 4891   4.152   8.637   9.853 -0.1771 -0.0808 -0.0757
 1373W        W 4892   1.790   9.617   1.131 -0.3023 -0.0420 -0.0297
 1374W        W 4893   7.420   9.285   1.886 -0.0742  0.1679  0.1633
 1375W        W 4894   9.385   8.245   1.366  0.0798 -0.1152  0.1964
 1376W        W 4895   1.166   8.450   1.936  0.0829 -0.0702 -0.4045
 1377W        W 4896   1.382   4.006   0.670  0.3725 -0.1297 -0.0467
 1378W        W 4897   0.244   2.979  11.288  0.1240 -0.2849  0.2369
 1379W        W 4898   7.786   6.469   9.265 -0.1980 -0.0248  0.1464
 1380W        W 4899   5.465   9.436   0.600 -0.2533 -0.2124  0.1128
 1381W        W 4900   7.124   2.138   0.637  0.0199  0.0812  0.0785
 1382W        W 4901   8.621   3.282   9.110  0.0950  0.0639  0.0921
 1383W        W 4902   5.580   2.645  11.306 -0.0857  0.1641  0.0551
 1384W        W 4903   0.512   9.608   2.194  0.1865 -0.2975 -0.1383
 1385W        W 4904   6.643   7.823   0.107 -0.4086 -0.1264  0.2068
 1386W        W 4905   3.651   9.698   3.363 -0.2180  0.0071  0.1474
 1387W        W 4906   0.832   5.675   1.793  0.0463  0.0070  0.1384
 1388W        W 4907   5.166   8.058   3.395 -0.0755 -0.0324  0.0621
 1389W        W 4908   8.283   4.116   3.807  0.0500  0.0464 -0.1630
 1390W        W 4909   6.252   1.944   0.169 -0.1057  0.0443  0.1152
 1391W        W 4910   8.478   3.660  11.452 -0.1419  0.3874 -0.0008
 1392W        W 4911   8.188   4.408   3.213  0.1265 -0.0385  0.2714
 1393W        W 4912   3.392   6.231   9.873 -0.0840  0.0289 -0.0879
 1394W        W 4913   8.513   2.141   0.814  0.0957 -0.2127  0.0802
 1395W        W 4914   6.038   1.480   1.768 -0.0474 -0.0455  0.0194
 1396W        W 4915   2.680   7.281  10.283 -0.3480  0.0326 -0.0127
 1397W        W 4916   8.386   3.080   9.592  0.0467 -0.1911  0.0642
 1398W        W 4917   3.497   2.385  11.865  0.0371 -0.0293 -0.1992
 1399W        W 4918   6.279   8.210   2.464  0.0195  0.1472 -0.0338
 1400W        W 4919   8.229   3.639   4.068  0.0307 -0.0850  0.4369
 1401W        W 4920   3.393   3.017   3.487  0.3043 -0.1137 -0.3303
 1402W        W 4921   1.982   2.979   2.630 -0.2429  0.2969 -0.1092
 1403W        W 4922   1.714   1.334   4.455 -0.2407  0.1127 -0.2750
 1404W        W 4923   9.352   6.368  11.236 -0.0678 -0.0231  0.2412
 1405W        W 4924   6.407   1.185   1.509 -0.1659  0.1087  0.1100
 1406W        W 4925   2.260   6.338   0.873 -0.1244  0.2281 -0.3935
 1407W        W 4926   8.970   7.351   0.040 -0.0305 -0.1091 -0.1013
 1408W        W 4927   9.670   3.538  10.102  0.2468  0.2281 -0.1677
 1409W        W 4928   6.282   4.288  11.497  0.0829  0.2012 -0.1427
 1410W        W 4929   3.456   4.085   3.441  0.0649  0.0236 -0.0197
 1411W        W 4930   5.109   9.500  11.572  0.2064  0.1961 -0.2245
 1412W        W 4931   9.580   1.382  10.715 -0.0424 -0.1483  0.1212
 1413W        W 4932   0.627   9.181   2.015 -0.0893  0.2112  0.0311
 1414W        W 4933   5.518   6.901   9.396 -0.0374 -0.2044 -0.1498
 1415W        W 4934   7.589   3.408   3.679 -0.1318 -0.1606 -0.0233
 1416W        W 4935   1.647   3.009   8.188  0.1884  0.1139 -0.0867
 1417W        W 4936   6.623   9.010   9.284  0.0176  0.0070  0.3204
 1418W        W 4937   2.815   3.504  12.107  0.2619  0.3273  0.1533
 1419W        W 4938   0.220   7.319  10.846  0.1283 -0.1227 -0.0272
 1420W        W 4939   0.441   5.844  12.284  0.2087  0.2077 -0.0800
 1421W        W 4940   9.584   4.569  10.838  0.1954 -0.3352  0.0125
 1422W        W 4941   1.628   5.229   3.415 -0.0934 -0.1342  0.3513
 1423W        W 4942   2.933   2.947  12.350  0.2302 -0.1071 -0.2144
 1424W        W 4943   4.822   8.370  10.407 -0.1061  0.0993  0.0279
 1425W        W 4944   6.264   6.146  12.372 -0.1763 -0.1684  0.1489
 1426W        W 4945   6.395   5.678   9.584  0.0843  0.2155  0.2245
 1427W        W 4946   7.098   7.428   8.611  0.0734 -0.0271  0.1995
 1428W        W 4947   7.065   7.222  12.245  0.0614  0.0562 -0.2042
 1429W        W 4948   9.277   3.217   0.615 -0.1851  0.1127 -0.0241
 1430W        W 4949   2.825   6.349  10.131  0.0273 -0.1041  0.0147
 1431W        W 4950   9.075   5.650   3.629  0.2632 -0.0552  0.0737
 1432W        W 4951   8.920   9.092   1.114  0.0714 -0.0687  0.1404
 1433W        W 4952   3.676   6.893   2.123 -0.0239  0.2976  0.0738
 1434W        W 4953   5.861   7.002   0.937  0.2740  0.2591  0.0307
 1435W        W 4954   6.230   7.974  11.351 -0.1116 -0.0328 -0.3759
 1436W        W 4955   6.476   1.378   2.004 -0.4798 -0.0770  0.1664
 1437W        W 4956   6.468   3.451   3.359 -0.0049  0.3071 -0.1855
 1438W        W 4957   5.756   9.538   2.810  0.2108 -0.2908 -0.1106
 1439W        W 4958   9.129   1.931  11.840 -0.0658 -0.2886 -0.0159
 1440W        W 4959   4.420   0.324  12.521  0.3122  0.2397 -0.0861
 1441W        W 4960   7.191   4.008   2.639 -0.2683  0.1569  0.2574
 1442W        W 4961   5.310   9.641   1.064  0.1910  0.1353 -0.1707
 1443W        W 4962   4.568   0.132   3.614  0.2112 -0.1504 -0.1886
 1444W        W 4963   4.456   5.226   8.277 -0.1730 -0.1280 -0.0120
 1445W        W 4964   4.443   4.232   0.477  0.2685 -0.3380 -0.1558
 1446W        W 4965   6.226   0.137   2.955  0.1294 -0.2220  0.0940
 1447W        W 4966   9.096   9.313   0.424 -0.0221  0.1442 -0.2008
 1448W        W 4967   9.496   8.589   0.051 -0.0988 -0.0391  0.3255
 1449W        W 4968   0.070   4.954  11.131  0.0265  0.1053 -0.2913
 1450W        W 4969   7.007   9.314   9.200  0.1642 -0.3382 -0.1132
 1451W        W 4970   4.531   2.660  12.139 -0.2080 -0.2421 -0.1607
 1452W        W 4971   3.101   7.601  11.148 -0.0424  0.3578  0.0791
 1453W        W 4972   2.300   1.481   1.067  0.0051 -0.1441  0.0823
 1454W        W 4973   7.150   7.454   1.204  0.4356 -0.3124 -0.2768
 1455W        W 4974   5.285   4.618   2.760  0.1324 -0.3634  0.0715
 1456W        W 4975   6.311   6.707   0.511 -0.0609 -0.0663 -0.0715
 1457W        W 4976   3.816   4.451   8.704 -0.4245 -0.0679  0.4456
 1458W        W 4977   8.786   4.770  10.891 -0.2162 -0.0580  0.1905
 1459W        W 4978   7.686   9.226   8.591 -0.2570 -0.2833  0.1413
 1460W        W 4979   6.379   7.937  12.252  0.1319 -0.3454 -0.3077
 1461W        W 4980   6.717   0.667   2.265  0.0857  0.0234 -0.0806
 1462W        W 4981   7.486   1.097   8.478  0.1198  0.0359  0.3446
 1463W        W 4982   8.066   3.349   9.881 -0.1592  0.0775  0.1895
 1464W        W 4983   8.760   7.128   8.656 -0.1270 -0.0872  0.1202
 1465W        W 4984   3.981   0.161   9.150 -0.0605 -0.2582 -0.2793
 1466W        W 4985   4.517   3.783   0.954  0.1743 -0.2679  0.0521
 1467W        W 4986   0.619   0.180  11.414 -0.1121  0.0186 -0.3582
 1468W        W 4987   6.865   8.914  12.382  0.1220  0.2671 -0.2669
 1469W        W 4988   6.420   6.007   9.953  0.2611  0.0979  0.4505
 1470W        W 4989   0.825   6.425  11.540  0.5948  0.1122  0.3904
 1471W        W 4990   1.920   0.856   0.993  0.1439  0.2923 -0.2283
 1472W        W 4991   4.671   8.718   3.390  0.0014  0.1463  0.1492
 1473W        W 4992   0.521   2.129   3.298  0.2705 -0.1308  0.1604
 1474W        W 4993   4.607   2.440   0.067  0.0673  0.0676  0.0185
 1475W        W 4994   4.094   0.407   0.481 -0.3494  0.1953 -0.1200
 1476W        W 4995   2.599   0.421  10.581  0.3048 -0.1822 -0.0224
 1477W        W 4996   4.680   1.525   4.335 -0.2934  0.0028  0.0040
 1478W        W 4997   5.297   7.443   8.231  0.2143 -0.0428  0.1813
 1479W        W 4998   0.351   8.519   8.565  0.0249 -0.3282  0.0204
 1480W        W 4999   1.124   5.514  11.664  0.2040 -0.0813 -0.0086
 1481W        W 5000   8.627   0.524   0.550 -0.1322  0.1877  0.1566
 1482W        W 5001   4.593   3.258   9.132 -0.2883  0.1675 -0.2399
 1483W        W 5002   2.719   3.109   2.685  0.2462 -0.0041 -0.1932
 1484W        W 5003   4.914   0.842   0.604 -0.3153  0.3908  0.1086
 1485W        W 5004   6.332   0.481  12.347 -0.4864 -0.1078  0.2733
 1486W        W 5005   5.230   8.423  10.122 -0.0044 -0.0211 -0.1107
 1487W        W 5006   8.079   7.838  10.916 -0.0488 -0.1655  0.3433
 1488W        W 5007   9.554   1.830   9.741  0.0772  0.0572  0.3194
 1489W        W 5008   5.115   3.567   1.154  0.0796  0.0157 -0.0326
 1490W        W 5009   4.952   1.695   9.355 -0.2660 -0.0853  0.3326
 1491W        W 5010   3.275   5.989   9.364  0.0646 -0.0772  0.0423
 1492W        W 5011   7.687   4.218  10.155  0.3430 -0.1137  0.0002
 1493W        W 5012   9.043   3.443  12.209 -0.0656  0.0056 -0.4482
 1494W        W 5013   0.848   8.800   1.717 -0.1065  0.0115  0.1488
 1495W        W 5014   3.724   5.912   9.509  0.0471 -0.1885  0.1628
 1496W        W 5015   2.505   2.865  11.386  0.0892 -0.1635  0.0033
 1497W        W 5016   3.423   2.861   4.134  0.1972  0.1127 -0.0684
 1498W        W 5017   7.258   2.569   1.180  0.1976  0.4628  0.0513
 1499W        W 5018   3.437   1.491   3.763 -0.3222 -0.2821 -0.2977
 1500W        W 5019   4.006   4.220   1.582  0.3011 -0.0939 -0.4223
 1501W        W 5020   0.023   1.565  11.272  0.1324  0.0449  0.0094
 1502W        W 5021   6.971   2.277  10.083 -0.1541  0.0364 -0.0449
 1503W        W 5022   0.495   2.230   8.491  0.3180 -0.1523 -0.2469
 1504W        W 5023   2.825   1.022   1.557  0.1063  0.2025  0.1170
 1505W        W 5024   3.279   8.163   0.716  0.0552 -0.2044 -0.0645
 1506W        W 5025   5.224   7.206  10.703  0.2023  0.1614 -0.0505
 1507W        W 5026   1.833   1.504  12.269 -0.2438 -0.1729  0.0234
 1508W        W 5027   5.853   8.652   4.032 -0.0098 -0.3084  0.2502
 1509W        W 5028   4.985   9.230   9.582 -0.0983 -0.2403 -0.1934
 1510W        W 5029   8.780   3.246   8.622 -0.1599  0.1094 -0.2869
 1511W        W 5030   0.253   5.779   2.041 -0.2023 -0.0024 -0.0197
 1512W        W 5031   0.850   0.389   7.805  0.5018 -0.4144 -0.1177
 1513W        W 5032   7.015   4.536   0.856 -0.4120 -0.3902 -0.0245
 1514W        W 5033   1.183   8.456   3.518 -0.1962 -0.1763  0.0556
 1515W        W 5034   0.443   3.679   9.430 -0.1237  0.0065 -0.0202
 1516W        W 5035   0.864   9.326   2.490  0.0156 -0.0675 -0.1488
 1517W        W 5036   5.827   1.314   1.249 -0.0902  0.2351  0.4204
 1518W        W 5037   3.433   5.600  11.145  0.1182 -0.2081  0.2969
 1519W        W 5038   9.399   5.116  10.753 -0.3010 -0.3882 -0.2234
 1520W        W 5039   0.454   1.932  12.479  0.0649  0.4387  0.1027
 1521W        W 5040   0.656   9.567   8.587  0.0539 -0.1352 -0.3125
 1522W        W 5041   6.942   1.390  11.003 -0.2381  0.1862  0.0474
 1523W        W 5042   7.410   5.873   3.821  0.0526 -0.0162 -0.1960
 1524W        W 5043   1.346   7.348   0.331  0.0498 -0.3615 -0.0174
 1525W        W 5044   6.171   4.054   8.498  0.3778  0.0357  0.1407
 1526W        W 5045   3.622   1.494   0.109 -0.2765  0.2326 -0.1920
 1527W        W 5046   6.281   1.536   9.461 -0.0492  0.2149  0.3302
 1528W        W 5047   8.791   1.416   9.991  0.0076  0.1945 -0.1056
 1529W        W 5048   7.493   5.962  10.941 -0.0447  0.0484  0.1221
 1530W        W 5049   0.577   5.184   9.859  0.1516  0.0737  0.1924
 1531W        W 5050   3.760   6.307   2.103 -0.0900 -0.0176 -0.1453
 1532W        W 5051   4.796   0.606   2.090  0.0145  0.2502  0.1690
 1533W        W 5052   5.241   2.568   1.923 -0.2839 -0.0788 -0.1057
 1534W        W 5053   6.420   1.598   8.451  0.0531 -0.2680 -0.0223
 1535W        W 5054   8.753   8.488   2.449  0.0871 -0.1301 -0.3903
 1536W        W 5055   0.544   3.376   4.520 -0.2591 -0.1953 -0.0587
 1537W        W 5056   8.980   3.871  10.925  0.0715 -0.0983 -0.0730
 1538W        W 5057   9.259   2.341   8.395  0.2313 -0.1908 -0.1603
 1539W        W 5058   9.108   2.796   9.821 -0.1230  0.2510  0.0585
 1540W        W 5059   3.015   0.928   3.099  0.0031  0.0218 -0.1023
 1541W        W 5060   1.193   3.847   1.118  0.0269  0.1329 -0.0099
 1542W        W 5061   3.679   1.413  11.939  0.1245  0.0737 -0.2286
 1543W        W 5062   4.128   8.188   2.653  0.2570  0.0480 -0.1195
 1544W        W 5063   4.678   5.455  11.214  0.0066 -0.2939 -0.0346
 1545W        W 5064   0.149   0.831   9.896 -0.0746  0.0702 -0.0157
 1546W        W 5065   6.663   4.670  11.785 -0.0273 -0.1465 -0.0317
 1547W        W 5066   9.521   0.311  12.358 -0.1477  0.0728 -0.0529
 1548W        W 5067   0.318   2.533   3.007  0.1327  0.0991  0.1088
 1549W        W 5068   9.216   0.995  11.750 -0.0495  0.1157 -0.1099
 1550W        W 5069   3.618   0.024  12.244  0.0169 -0.3021 -0.1165
 1551W        W 5070   2.945   2.619   2.235  0.0035  0.2183 -0.2229
 1552W        W 5071   5.184   3.254  12.307 -0.1112 -0.0086 -0.0965
 1553W        W 5072   8.246   7.172   0.788 -0.1652 -0.0108  0.1519
 1554W        W 5073   4.309   2.831   0.123  0.1579  0.0472 -0.3377
 1555W        W 5074   8.757   8.492   3.979 -0.4400  0.0743 -0.0261
 1556W        W 5075   1.620   6.355   8.855 -0.1749 -0.0799 -0.0454
 1557W        W 5076   5.502   2.873  12.191 -0.1122 -0.1601  0.4028
 1558W        W 5077   1.383   0.498   9.480  0.1044  0.1430  0.3652
 1559W        W 5078   2.383   4.419   3.046 -0.0052 -0.2235 -0.1107
 1560W        W 5079   6.401   4.622  10.483  0.0602 -0.1228 -0.1910
 1561W        W 5080   3.178   4.866  10.452  0.0579  0.2501  0.2844
 1562W        W 5081   7.025   3.146   0.459  0.1247 -0.2656  0.0510
 1563W        W 5082   8.755   2.925   1.340 -0.0478  0.1131 -0.0468
 1564W        W 5083   2.179   9.087  11.424 -0.2090 -0.0535  0.0078
 1565W        W 5084   6.996   2.916   0.964 -0.0422 -0.1416  0.0850
 1566W        W 5085   1.140   4.968   0.770  0.2016 -0.1030 -0.1309
 1567W        W 5086   2.423   3.972   2.774 -0.0366 -0.0976  0.0245
 1568W        W 5087   9.588   0.788  12.124  0.2493 -0.2319 -0.0143
 1569W        W 5088   4.479   5.576   1.210 -0.1888  0.2212 -0.1335
 1570W        W 5089   7.797   2.357  10.154  0.1433 -0.2693 -0.6343
 1571W        W 5090   9.428   4.197   1.147  0.1898  0.0136 -0.1226
 1572W        W 5091   5.312   5.775   2.798  0.0140  0.1175 -0.0811
 1573W        W 5092   8.772   4.762   0.770  0.0351 -0.0358 -0.0501
 1574W        W 5093   6.614   7.529  11.334 -0.0739  0.2092 -0.0194
 1575W        W 5094   1.000   6.308   3.557  0.2150 -0.0084 -0.0650
 1576W        W 5095   3.217   3.973   8.495 -0.0928 -0.0636 -0.0909
 1577W        W 5096   3.749   2.971   4.832  0.0437  0.3022 -0.3228
 1578W        W 5097   7.025   5.965  10.616  0.3463 -0.2656  0.2261
 1579W        W 5098   8.697   3.433  10.535  0.0946  0.2782 -0.0753
 1580W        W 5099   4.334   9.183   9.078 -0.0942 -0.0319 -0.0289
 1581W        W 5100   9.451   4.808   9.849  0.0436  0.3457  0.0894
 1582W        W 5101   9.102   2.214   0.615 -0.0510 -0.3744 -0.1869
 1583W        W 5102   5.911   0.261   2.463  0.1664  0.0908 -0.0807
 1584W        W 5103   7.203   7.398  10.534  0.1634 -0.1427  0.2397
 1585W        W 5104   7.254   0.894   8.992 -0.1268 -0.0916  0.1258
 1586W        W 5105   2.482   4.417   9.106  0.0412 -0.3058 -0.2588
 1587W        W 5106   2.262   9.026   0.629  0.0854 -0.1009  0.1184
 1588W        W 5107   6.092   0.887  10.909  0.0118 -0.1517  0.2325
 1589W        W 5108   7.667   4.896  11.989 -0.0001  0.0542 -0.1704
 1590W        W 5109   2.314   5.561   0.529 -0.0755  0.2866  0.0012
 1591W        W 5110   3.941   2.741   9.757  0.3048  0.5090 -0.0438
 1592W        W 5111   8.420   9.050   1.869 -0.2385 -0.1951  0.1934
 1593W        W 5112   8.689   4.185   4.123 -0.0901  0.2884  0.0915
 1594W        W 5113   3.536   2.054   3.625 -0.0641  0.0622  0.0750
 1595W        W 5114   5.516   1.533  12.179  0.1067  0.0289  0.3995
 1596W        W 5115   9.693   2.979   8.922 -0.2862  0.4430  0.0541
 1597W        W 5116   5.710   8.619   0.761 -0.0376  0.1194 -0.0162
 1598W        W 5117   1.810   4.365  10.109 -0.4273  0.2179  0.0138
 1599W        W 5118   9.021   8.429  12.504  0.1563 -0.1595  0.1614
 1600W        W 5119   0.955   5.177   2.571 -0.3505  0.0911 -0.3021
 1601W        W 5120   0.323   7.558   1.729  0.0051  0.3953 -0.1014
 1602W        W 5121   1.318   8.105  11.160 -0.2135 -0.0873 -0.0450
 1603W        W 5122   3.064   1.168   4.552  0.0544  0.2137 -0.2972
 1604W        W 5123   3.714   3.223  11.850 -0.1701 -0.0708 -0.1561
 1605W        W 5124   3.373   4.449   8.506  0.1082  0.2420  0.1122
 1606W        W 5125   2.923   6.716  11.823  0.0159  0.0630  0.1661
 1607W        W 5126   8.157   3.838   9.707  0.1828  0.1390 -0.0492
 1608W        W 5127   8.973   2.928   3.847  0.1389  0.0679  0.1350
 1609W        W 5128   7.827   3.964   1.104  0.0974  0.0728 -0.2030
 1610W        W 5129   4.830   4.900   0.893 -0.3554 -0.0000  0.0980
 1611W        W 5130   3.185   2.887  10.316 -0.0454 -0.2904  0.0113
 1612W        W 5131   5.736   3.358   2.806 -0.3924 -0.0956  0.0712
 1613W        W 5132   6.977   2.845   8.524 -0.0382  0.0462  0.0997
 1614W        W 5133   5.700   1.156  10.991 -0.4249 -0.1300 -0.3145
 1615W        W 5134   4.215   0.606   3.850  0.2254 -0.2584  0.1117
 1616W        W 5135   7.212   5.848   9.364 -0.1936  0.1012 -0.1783
 1617W        W 5136   4.999   2.512   9.198 -0.1893 -0.1577 -0.3765
 1618W        W 5137   9.221   1.560   1.379 -0.0209 -0.2632 -0.1865
 1619W        W 5138   5.560   6.125   1.018 -0.2021  0.0046 -0.0236
 1620W        W 5139   8.535   3.168  12.195  0.2179 -0.2226 -0.1358
 1621W        W 5140   6.082   6.273   4.105 -0.2748 -0.0755  0.0250
 1622W        W 5141   5.768   0.139   9.345 -0.1272  0.0469 -0.0774
 1623W        W 5142   5.622   9.364   1.877  0.0309 -0.0985 -0.0013
 1624W        W 5143   8.679   6.742  10.057 -0.0633  0.1339 -0.0105
 1625W        W 5144   9.193   3.178  11.602  0.4219 -0.0314 -0.1765
 1626W        W 5145   9.190   3.522   7.967  0.3807 -0.0238  0.0645
 1627W        W 5146   7.074   6.848  10.192  0.3642  0.1680  0.0637
 1628W        W 5147   6.190   0.690   2.366 -0.1140  0.1344  0.2688
 1629W        W 5148   5.605   7.365   9.552 -0.2735  0.0364  0.0003
 1630W        W 5149   8.145   2.677   1.579  0.1404 -0.0932  0.2961
 1631W        W 5150   5.460   5.385  11.680 -0.0388  0.0853  0.4187
 1632W        W 5151   2.748   7.846   2.083  0.1239  0.1622  0.1550
 1633W        W 5152   7.372   3.676   9.021  0.0999 -0.1809  0.0014
 1634W        W 5153   8.879   0.982   9.676  0.0389 -0.0250 -0.0599
 1635W        W 5154   1.003   4.566   1.570  0.3226 -0.0976 -0.1186
 1636W        W 5155   0.428   3.689  11.731  0.1035 -0.1107 -0.0649
 1637W        W 5156   5.453   4.405   8.735 -0.3489 -0.1112  0.1331
 1638W        W 5157   4.365   7.437   0.298 -0.0859 -0.1939  0.3371
 1639W        W 5158   1.171   4.276   8.978 -0.1976  0.0637 -0.1314
 1640W        W 5159   0.898   5.389   0.764  0.2412 -0.0979  0.0444
 1641W        W 5160   7.192   0.916   0.349 -0.1994 -0.2197  0.0771
 1642W        W 5161   9.186   0.259   8.757 -0.2053 -0.0739  0.1055
 1643W        W 5162   7.762   0.188   1.978  0.1330 -0.3573 -0.3435
 1644W        W 5163   4.600   0.179  10.845 -0.2454 -0.2948 -0.2719
 1645W        W 5164   3.794   2.675  11.066  0.0244  0.0414  0.1073
 1646W        W 5165   6.232   0.426   8.409  0.0811  0.1030  0.0020
 1647W        W 5166   7.557   8.696   0.536 -0.0731  0.1437  0.1114
 1648W        W 5167   4.747   6.285   9.782  0.1955  0.0490 -0.1248
 1649W        W 5168   5.701   0.662   2.170 -0.0944 -0.2487  0.1018
 1650W        W 5169   1.286   2.207  10.329  0.1407  0.0860  0.2007
 1651W        W 5170   8.566   7.231   0.348 -0.0845  0.1340  0.1254
 1652W        W 5171   9.172   2.973   3.354 -0.1395  0.1010  0.1433
 1653W        W 5172   4.332   4.084   9.557  0.1615  0.0312 -0.0103
 1654W        W 5173   8.310   8.447   0.601  0.0406 -0.2469  0.3076
 1655W        W 5174   8.145   5.093   0.367  0.0631 -0.1463  0.1324
 1656W        W 5175   9.237   7.400  10.551  0.0568 -0.2658  0.0749
 1657W        W 5176   9.020   7.589   2.846 -0.0837 -0.1142  0.1509
 1658W        W 5177   8.319   7.852  10.457 -0.3211 -0.2378  0.1142
 1659W        W 5178   2.655   4.605   2.418 -0.1925  0.0217 -0.0562
 1660W        W 5179   4.942   8.101  11.141 -0.1597  0.1677  0.0473
 1661W        W 5180   8.470   2.506   1.257  0.2067 -0.1543  0.2238
 1662W        W 5181   2.735   5.950   9.405 -0.0672 -0.1938  0.3384
 1663W        W 5182   3.618   4.448  12.492  0.2664 -0.1909 -0.0208
 1664W        W 5183   5.175   2.886   8.095  0.1906 -0.0256  0.0696
 1665W        W 5184   4.391   3.323   3.165 -0.0088  0.1959  0.1159
 1666W        W 5185   6.130   1.940   3.603 -0.1836  0.3748  0.1847
 1667W        W 5186   3.638   1.906   9.468  0.0900 -0.0073  0.1292
 1668W        W 5187   9.674   6.076   2.945  0.0360  0.0212  0.2660
 1669W        W 5188   2.374   5.733  11.418  0.2800  0.2958  0.0368
 1670W        W 5189   8.795   0.844   0.144 -0.0247 -0.1307  0.0147
 1671W        W 5190   6.514   2.694   2.749 -0.0409  0.0679  0.0456
 1672W        W 5191   3.586   4.141   1.296 -0.1485  0.2399  0.0526
 1673W        W 5192   5.132   6.963   3.264  0.0489 -0.0652  0.0242
 1674W        W 5193   0.875   7.282   0.187 -0.0480 -0.2165 -0.1282
 1675W        W 5194   5.483   6.774  10.411 -0.1713 -0.0052  0.1108
 1676W        W 5195   8.490   2.845   8.726 -0.2524 -0.0625 -0.1000
 1677W        W 5196   4.986   9.600   3.392 -0.1872  0.0297 -0.0547
 1678W        W 5197   4.844   4.037   8.725 -0.0445  0.0300 -0.3030
 1679W        W 5198   4.796   7.728   0.406  0.1695 -0.0886 -0.1775
 1680W        W 5199   6.113   5.080   4.805  0.3028 -0.1672 -0.4586
 1681W        W 5200   1.809   5.864   9.068 -0.1493  0.1334 -0.0664
 1682W        W 5201   5.086   0.719  11.390 -0.2127  0.2501 -0.1557
 1683W        W 5202   0.071   8.105   0.017  0.1289  0.1584 -0.0624
 1684W        W 5203   1.730   5.672   1.337 -0.4307  0.0205 -0.2081
 1685W        W 5204   8.730   5.322   0.734 -0.1562  0.2226  0.1102
 1686W        W 5205   4.241   4.743  11.695 -0.0177 -0.3241  0.1462
 1687W        W 5206   7.718   7.947   8.895 -0.1474  0.1307 -0.0205
 1688W        W 5207   4.948   1.942   9.813 -0.0951 -0.5759  0.1238
 1689W        W 5208   8.544   7.818   2.938  0.2117  0.0619  0.1339
 1690W        W 5209   7.911   4.876  10.763  0.0463 -0.0319  0.1888
 1691W        W 5210   1.982   5.874   1.718 -0.0125  0.2735  0.0131
 1692W        W 5211   5.923   7.283   9.098  0.1100 -0.3890  0.2080
 1693W        W 5212   0.466   2.835  10.404  0.0437 -0.3704  0.0955
 1694W        W 5213   3.067   6.291   8.882  0.0388 -0.3653  0.2925
 1695W        W 5214   5.732   4.819   7.795 -0.1053 -0.2412  0.1747
 1696W        W 5215   0.123   6.328  12.311  0.0132  0.0150 -0.0656
 1697W        W 5216   3.660   8.139  12.457  0.0747  0.1934  0.1961
 1698W        W 5217   3.728   4.621   2.615  0.0658 -0.0679  0.1434
 1699W        W 5218   0.927   4.515   8.198  0.2138  0.1333 -0.0848
 1700W        W 5219   0.793   6.677   8.855 -0.2822  0.0365 -0.0336
 1701W        W 5220   0.893   5.755   3.210 -0.1628 -0.5428 -0.1741
 1702W        W 5221   7.343   8.661   2.653 -0.2861  0.0751 -0.0040
 1703W        W 5222   2.467   9.593   0.612 -0.0825  0.2718 -0.1040
 1704W        W 5223   3.541   6.662   0.211 -0.0433  0.0885 -0.1568
 1705W        W 5224   0.346   7.973   0.544 -0.0939 -0.2732  0.0314
 1706W        W 5225   0.658   2.243   2.021 -0.2232  0.0566  0.0405
 1707W        W 5226   7.661   1.546   1.718  0.0046 -0.2175  0.2345
 1708W        W 5227   4.866   0.160   8.674  0.0667 -0.2766 -0.1054
 1709W        W 5228   3.483   5.279  12.487 -0.1953 -0.3503  0.0259
 1710W        W 5229   0.432   2.932   0.409 -0.2126 -0.2551  0.1802
 1711W        W 5230   9.180   6.759   8.796 -0.4220 -0.2581  0.0502
 1712W        W 5231   8.146   3.692   7.973  0.1059  0.1362  0.1630
 1713W        W 5232   2.764   0.221   0.955 -0.3079 -0.0348  0.1689
 1714W        W 5233   2.006   8.184   0.975  0.3144  0.0818  0.1099
 1715W        W 5234   1.017   6.235   8.928 -0.2835 -0.1710  0.1519
 1716W        W 5235   4.441   3.416  11.713 -0.0146 -0.1346 -0.1142
 1717W        W 5236   8.350   3.766   9.022 -0.0810  0.0504  0.0654
 1718W        W 5237   1.629   5.048  10.873  0.1724  0.1292  0.1499
 1719W        W 5238   9.677   7.114   9.690 -0.1357  0.3455  0.1386
 1720W        W 5239   7.940   6.094  10.729 -0.1767 -0.1737 -0.2726
 1721W        W 5240   4.291   9.224  11.923  0.0190  0.0848  0.2090
 1722W        W 5241   1.895   2.493  11.780  0.1677 -0.0998  0.1113
 1723W        W 5242   1.879   4.640   3.014  0.0241  0.0663  0.1206
 1724W        W 5243   8.944   8.012   0.844 -0.2713 -0.0341 -0.2868
 1725W        W 5244   2.065   3.347  10.909  0.2879 -0.0324 -0.0667
 1726W        W 5245   8.559   0.714   1.166 -0.1836 -0.1948 -0.1146
 1727W        W 5246   4.007   5.013   9.707 -0.2584  0.2347  0.1091
 1728W        W 5247   3.410   7.164  11.382  0.0104  0.1662 -0.0095
 1729W        W 5248   8.756   6.425  11.917  0.0423 -0.2085  0.3031
 1730W        W 5249   6.231   8.909   0.841  0.0007  0.0682 -0.1941
 1731W        W 5250   8.785   0.142   1.337  0.1411 -0.2949 -0.0243
 1732W        W 5251   5.600   8.752  11.946  0.0114 -0.0594  0.3652
 1733W        W 5252   4.172   8.524  12.524  0.0249  0.1062  0.1809
 1734W        W 5253   2.369   0.978   0.713  0.0071  0.0426 -0.1340
 1735W        W 5254   6.497   4.485  11.075  0.3519  0.1767 -0.2637
 1736W        W 5255   4.771   7.663  10.274  0.0669 -0.1934 -0.1019
 1737W        W 5256   0.815   7.349   3.983  0.0278 -0.2087 -0.3018
 1738W        W 5257   8.773   8.631   1.893  0.0332 -0.4085 -0.0614
 1739W        W 5258   8.438   5.413   3.432  0.1535  0.2221 -0.1593
 1740W        W 5259   2.575   6.641   9.836  0.1225  0.0889 -0.0640
 1741W        W 5260   7.541   3.197   9.061 -0.1300 -0.1483  0.4234
 1742W        W 5261   3.259   0.210  11.431  0.0003 -0.3886 -0.1094
 1743W        W 5262   8.245   5.394  10.678 -0.0519 -0.1658  0.0790
 1744W        W 5263   1.660   5.866  10.757  0.2170  0.4206  0.1928
 1745W        W 5264   1.163   8.983   2.129  0.0874  0.0712  0.0816
 1746W        W 5265   6.110   1.451   0.839  0.0125 -0.1039 -0.0524
 1747W        W 5266   7.988   3.388   8.328 -0.1967 -0.1420 -0.6281
 1748W        W 5267   4.289   6.922  10.910 -0.0140  0.2601 -0.0644
 1749W        W 5268   5.547   6.422  11.728 -0.4290 -0.3647 -0.0285
 1750W        W 5269   2.795   1.023   4.089  0.1372  0.0354 -0.0234
 1751W        W 5270   4.776   9.692   0.128 -0.0693 -0.0575  0.0343
 1752W        W 5271   0.671   6.435  12.345 -0.3829 -0.1838  0.1272
 1753W        W 5272   2.968   3.886   2.663  0.4496 -0.0383  0.0204
 1754W        W 5273   5.897   6.947   4.199 -0.0666 -0.0672 -0.0071
 1755W        W 5274   8.396   2.975  10.760  0.1812  0.0553 -0.1838
 1756W        W 5275   0.150   2.994   1.460 -0.1397  0.0222 -0.2285
 1757W        W 5276   3.097   5.173  10.007 -0.0852 -0.1186  0.1901
 1758W        W 5277   1.820   5.231   4.439 -0.0362 -0.1039 -0.0011
 1759W        W 5278   7.045   7.410   2.863 -0.2832  0.1491  0.2363
 1760W        W 5279   0.680   1.284   3.610  0.2988  0.2722  0.0356
 1761W        W 5280   8.931   6.202   0.195 -0.0874  0.0195  0.0119
 1762W        W 5281   8.722   8.554   9.368 -0.0886  0.1608  0.1268
 1763W        W 5282   5.483   9.649   4.038 -0.2571 -0.1746 -0.1172
 1764W        W 5283   2.519   1.323   2.831 -0.5720 -0.0888  0.0788
 1765W        W 5284   7.391   6.766   4.110  0.1436  0.0200 -0.0214
 1766W        W 5285   8.359   0.369   2.124 -0.2498 -0.2609  0.2326
 1767W        W 5286   4.779   5.921  10.225  0.2937 -0.0198 -0.0439
 1768W        W 5287   7.171   4.299   8.683 -0.0358  0.2245 -0.0478
 1769W        W 5288   6.009   0.065  12.258 -0.3941 -0.1335 -0.5165
 1770W        W 5289   6.438   5.474  11.208  0.1411  0.0134 -0.4571
 1771W        W 5290   7.882   9.549   0.703 -0.0540  0.0582 -0.3560
 1772W        W 5291   2.583   4.732   0.203  0.1564 -0.1498 -0.0220
 1773W        W 5292   7.375   8.094  12.252 -0.0554 -0.0038 -0.0543
 1774W        W 5293   8.405   0.550   4.219  0.1448  0.0563  0.1530
 1775W        W 5294   7.542   5.281   8.941 -0.0926 -0.0628 -0.0606
 1776W        W 5295   4.699   8.160   2.023  0.1833 -0.0585 -0.1163
 1777W        W 5296   7.787   0.911   9.855 -0.2209  0.1524  0.1329
 1778W        W 5297   1.279   8.008   9.881 -0.0413  0.0273 -0.0776
 1779W        W 5298   6.334   4.764   8.464  0.0529 -0.2121 -0.0935
 1780W        W 5299   0.384   6.500   2.902 -0.4184  0.0608 -0.0503
 1781W        W 5300   3.774   8.048   1.455 -0.0712 -0.4042  0.0597
 1782W        W 5301   9.250   5.821  11.390  0.0295 -0.1191 -0.2383
 1783W        W 5302   5.683   9.362   3.640  0.0918  0.1725  0.2072
 1784W        W 5303   5.138   8.149   8.996  0.5565 -0.4202  0.1278
 1785W        W 5304   7.682   6.030   1.032  0.1906 -0.0146  0.0982
 1786W        W 5305   4.514   6.629   0.637 -0.0711 -0.0737 -0.1261
 1787W        W 5306   0.360   5.392  12.516  0.1901 -0.1704  0.0216
 1788W        W 5307   7.524   0.465   2.703 -0.0484  0.1324  0.0842
 1789W        W 5308   3.753   1.163   3.576 -0.0462 -0.0127  0.1149
 1790W        W 5309   0.330   0.257   8.395  0.0803 -0.1621  0.2087
 1791W        W 5310   9.682   3.072   3.194 -0.0566  0.2059 -0.0398
 1792W        W 5311   0.176   6.267   2.491 -0.1099 -0.0295 -0.0435
 1793W        W 5312   0.989   2.081   2.444  0.0360  0.2114  0.0219
 1794W        W 5313   1.939   2.658   1.050 -0.2483 -0.0390  0.0911
 1795W        W 5314   5.919   4.611   0.808 -0.2258  0.1248 -0.0000
 1796W        W 5315   5.096   5.550   9.221 -0.2417  0.2815 -0.0096
 1797W        W 5316   6.853   0.841  10.321 -0.0358 -0.1552  0.0770
 1798W        W 5317   3.173   5.112   3.835  0.4930 -0.1285 -0.1144
 1799W        W 5318   3.646   4.013   8.857  0.1100  0.1198  0.1450
 1800W        W 5319   7.067   4.995   9.529  0.0960 -0.1748 -0.3548
 1801W        W 5320   7.582   5.701   3.345  0.2006 -0.1204 -0.2334
 1802W        W 5321   0.103   7.612   0.236  0.0589  0.3055 -0.0592
 1803W        W 5322   5.827   3.968   0.698 -0.1122  0.1323 -0.0271
 1804W        W 5323   0.151   4.863  10.570 -0.1971 -0.1386 -0.0317
 1805W        W 5324   8.243   9.339  10.878  0.0164  0.0919  0.2555
 1806W        W 5325   3.304   7.681   0.595  0.0406  0.2547  0.0422
 1807W        W 5326   4.446   7.645  11.339  0.2992  0.1908  0.1552
 1808W        W 5327   4.179   4.742   2.876  0.0740 -0.0220  0.1329
 1809W        W 5328   4.606   8.428   9.687 -0.0055 -0.1777 -0.4629
 1810W        W 5329   2.431   0.503   9.717  0.0644 -0.0228  0.1686
 1811W        W 5330   7.921   4.365   3.645  0.2061  0.0544  0.1164
 1812W        W 5331   3.728   4.249   0.395 -0.2410  0.3319 -0.2328
 1813W        W 5332   8.454   7.193   9.762 -0.1469  0.1198 -0.1258
 1814W        W 5333   7.745   3.906   8.434  0.0749 -0.1889  0.0054
 1815W        W 5334   1.671   7.559   1.411 -0.0656 -0.1723  0.0798
 1816W        W 5335   1.018   2.719   1.763  0.2035 -0.6511 -0.1719
 1817W        W 5336   8.285   6.057   0.076 -0.1373 -0.1605 -0.2555
 1818W        W 5337   6.278   0.687   9.916  0.1839 -0.0071 -0.2224
 1819W        W 5338   0.527   5.164  10.821 -0.2462 -0.3396  0.0286
 1820W        W 5339   1.904   1.457  11.403  0.3737 -0.2023  0.0506
 1821W        W 5340   0.496   8.961  10.738 -0.6462 -0.0219 -0.0839
 1822W        W 5341   6.757   8.573  10.034  0.0632  0.0776  0.0197
 1823W        W 5342   1.124   4.856   9.664 -0.2251  0.2098 -0.2466
 1824W        W 5343   8.734   8.827   8.905 -0.0323  0.0572  0.1447
 1825W        W 5344   7.903   9.034   1.827  0.1096 -0.4373 -0.0062
 1826W        W 5345   0.253   0.051   3.620 -0.0159 -0.2499 -0.1871
 1827W        W 5346   1.170   5.892  12.013  0.0969  0.0537 -0.3135
 1828W        W 5347   3.808   5.414   2.558 -0.2024 -0.2746 -0.4038
 1829W        W 5348   5.626   3.534  12.428 -0.0920 -0.0092 -0.1007
 1830W        W 5349   8.070   0.039   3.295  0.4033  0.0050  0.0402
 1831W        W 5350   2.315   3.830   1.850  0.2818  0.4658 -0.0396
 1832W        W 5351   1.862   4.421   4.390 -0.0784 -0.0747 -0.1368
 1833W        W 5352   0.838   5.112   5.464  0.1473  0.1981  0.2278
 1834W        W 5353   0.747   3.817   2.507 -0.3060 -0.2937 -0.1287
 1835W        W 5354   5.696   5.479   9.069 -0.3014 -0.0321 -0.1276
 1836W        W 5355   1.662   5.292   1.709  0.1191  0.0125 -0.1466
 1837W        W 5356   3.835   6.680   3.010 -0.0126  0.0597  0.3688
 1838W        W 5357   4.891   7.060  10.231  0.1056 -0.1558 -0.0693
 1839W        W 5358   2.418   3.478  10.125 -0.0127  0.1160 -0.1888
 1840W        W 5359   7.061   5.264   2.862  0.1259 -0.1530  0.0017
 1841W        W 5360   5.999   8.241   9.501 -0.2494  0.3636  0.2178
 1842W        W 5361   8.833   0.891  10.809 -0.0018 -0.1997 -0.2112
 1843W        W 5362   5.108   1.675   1.515 -0.1992  0.0825  0.1122
 1844W        W 5363   6.731   4.838   2.706 -0.2044 -0.3547  0.4967
 1845W        W 5364   1.869   3.794   0.522 -0.2557 -0.1374  0.0407
 1846W        W 5365   4.948   2.125   3.009 -0.2710 -0.1530 -0.3248
 1847W        W 5366   2.384   6.994  12.450 -0.1771 -0.0835  0.2108
 1848W        W 5367   7.398   7.233   0.852  0.0822 -0.0876 -0.1121
 1849W        W 5368   7.638   5.091   0.357  0.0259 -0.0060  0.0457
 1850W        W 5369   3.243   2.407   1.057 -0.0694  0.0152  0.0845
 1851W        W 5370   4.579   4.946  10.068 -0.1675  0.5899  0.0697
 1852W        W 5371   5.794   7.288  11.904  0.0450 -0.3791 -0.1386
 1853W        W 5372   5.042   9.204   0.978 -0.0181 -0.2237 -0.2295
 1854W        W 5373   0.951   4.464  10.072 -0.4303 -0.0902 -0.0672
 1855W        W 5374   9.191   8.551   1.692  0.0580 -0.0467  0.0153
 1856W        W 5375   3.842   8.263   3.216 -0.3052  0.2195 -0.1731
 1857W        W 5376   7.842   1.908   3.052  0.1751  0.1418  0.0997
 1858W        W 5377   7.611   7.304   0.391  0.1919  0.1630 -0.0178
 1859W        W 5378   8.458   7.942   1.525 -0.0854  0.3728 -0.0008
 1860W        W 5379   8.147   1.550  10.468 -0.0684  0.2176  0.0868
 1861W        W 5380   1.007   2.988   1.328  0.0010 -0.1380 -0.0772
 1862W        W 5381   2.267   5.824   1.006 -0.1376 -0.1999 -0.0148
 1863W        W 5382   9.223   7.211  12.103  0.0207  0.2438  0.1415
 1864W        W 5383   6.275   4.410   8.828  0.3194  0.1125  0.1910
 1865W        W 5384   0.388   6.874   2.012  0.2338  0.0337 -0.2319
 1866W        W 5385   0.538   1.125   0.658 -0.1922  0.0850  0.0519
 1867W        W 5386   4.023   3.185   2.390  0.2344  0.1542  0.0493
 1868W        W 5387   2.297   7.446   0.353  0.0647  0.0311 -0.0331
 1869W        W 5388   6.637   2.342  10.448 -0.0285 -0.1696 -0.0353
 1870W        W 5389   3.606   4.635  10.128 -0.1297  0.1026 -0.4210
 1871W        W 5390   2.934   4.929   3.389  0.3482  0.1176  0.4350
 1872W        W 5391   5.283   1.151   3.768  0.1645  0.0865  0.3580
 1873W        W 5392   8.754   7.285   8.190  0.0791  0.0225 -0.3685
 1874W        W 5393   3.224   0.551  10.145  0.1517 -0.2474  0.1427
 1875W        W 5394   8.421   3.469  10.939 -0.2213 -0.2700  0.0347
 1876W        W 5395   5.345   3.331   9.813  0.1618 -0.2455 -0.1009
 1877W        W 5396   1.146   6.347  10.827  0.0334 -0.5293 -0.1453
 1878W        W 5397   7.838   2.123   9.627  0.1259  0.0963 -0.0045
 1879W        W 5398   5.733   5.085   0.787 -0.0339  0.1394 -0.1594
 1880W        W 5399   6.094   5.258   9.386 -0.1316  0.1155 -0.0614
 1881W        W 5400   4.437   9.629   3.205 -0.0712  0.0547  0.1929
 1882W        W 5401   1.104   5.687   0.344 -0.0369  0.0782 -0.0411
 1883W        W 5402   7.890   8.591   0.877  0.2363 -0.0638 -0.0193
 1884W        W 5403   5.352   9.158   4.119  0.3111 -0.3759 -0.2925
 1885W        W 5404   5.829   2.649  10.130  0.1749 -0.2137  0.2229
 1886W        W 5405   3.145   8.068   9.908 -0.0131 -0.0915  0.2625
 1887W        W 5406   5.813   2.815   0.484 -0.1020 -0.0332  0.0918
 1888W        W 5407   6.673   6.257  11.927 -0.1767 -0.3957  0.1149
 1889W        W 5408   8.349   0.267  12.081  0.0697 -0.2032 -0.1743
 1890W        W 5409   1.836   8.388   9.427 -0.0749 -0.1242  0.2554
 1891W        W 5410   6.607   6.148   8.817 -0.0191 -0.4704  0.2116
 1892W        W 5411   8.779   3.385   2.060 -0.2906  0.1020 -0.1437
 1893W        W 5412   6.721   8.073  11.324  0.1366 -0.0048  0.5051
 1894W        W 5413   4.186   5.557  10.761  0.1303  0.1109  0.4688
 1895W        W 5414   8.018   6.403   1.362  0.5880 -0.1690 -0.0153
 1896W        W 5415   0.894   4.602   8.674  0.1765  0.2486  0.3740
 1897W        W 5416   4.512   2.138   1.012  0.0108  0.3872  0.0268
 1898W        W 5417   4.075   6.802  10.089  0.0473 -0.0377 -0.1762
 1899W        W 5418   6.636   9.323   3.539 -0.1960  0.1612 -0.0888
 1900W        W 5419   1.386   1.818   3.623 -0.1743  0.4036  0.1802
 1901W        W 5420   0.295   6.503  10.292 -0.0068  0.2692 -0.0332
 1902W        W 5421   4.904   2.335   0.837  0.0737  0.1825 -0.3243
 1903W        W 5422   6.118   0.307   9.048  0.1328  0.2131 -0.0293
 1904W        W 5423   7.274   7.100   3.266 -0.4015 -0.3339  0.2115
 1905W        W 5424   4.051   4.078  12.282  0.0106 -0.1821 -0.3058
 1906W        W 5425   0.283   8.210   2.922  0.0223  0.1339  0.0085
 1907W        W 5426   1.370   5.792   0.990  0.2403 -0.1808  0.2882
 1908W        W 5427   1.278   3.098   8.495 -0.0701 -0.2218 -0.1926
 1909W        W 5428   8.012   8.303   8.659 -0.1186 -0.2085 -0.2163
 1910W        W 5429   5.378   2.715   9.430 -0.0474  0.0930 -0.1056
 1911W        W 5430   3.762   0.384   1.467 -0.0563  0.2419  0.0401
 1912W        W 5431   6.267   7.274  10.497 -0.1357  0.2028  0.2480
 1913W        W 5432   8.794   6.951   4.205  0.0242  0.3460  0.2833
 1914W        W 5433   7.049   0.424   3.548  0.2550  0.1066 -0.4007
 1915W        W 5434   4.145   6.678   2.286  0.0654  0.0088 -0.2323
 1916W        W 5435   4.092   1.447   2.007  0.0889  0.0570 -0.0693
 1917W        W 5436   9.689   7.160   2.571 -0.1022  0.2595 -0.0959
 1918W        W 5437   1.583   8.100   1.367 -0.0922  0.0072  0.0788
 1919W        W 5438   6.726   9.605  11.101  0.0986 -0.2170  0.1668
 1920W        W 5439   1.527   9.334   2.992  0.0059 -0.0293 -0.1939
 1921W        W 5440   8.925   8.260   1.318  0.0804 -0.1722  0.1873
 1922W        W 5441   3.209   3.464   1.955 -0.0598 -0.1395 -0.1654
 1923W        W 5442   2.053   7.984   9.538 -0.1032 -0.0403 -0.4757
 1924W        W 5443   8.711   0.059   0.581  0.0504  0.0614 -0.1132
 1925W        W 5444   1.610   6.223  10.286 -0.1822  0.1840 -0.2408
 1926W        W 5445   0.796   5.175   8.809 -0.0223 -0.1532  0.3293
 1927W        W 5446   7.159   6.921  11.004  0.0525 -0.2781  0.0528
 1928W        W 5447   3.309   4.273  11.622 -0.0643 -0.1308  0.0268
 1929W        W 5448   7.345   5.960   4.760 -0.2344  0.0699  0.4631
 1930W        W 5449   4.056   9.559   9.959 -0.0928 -0.3224  0.1775
 1931W        W 5450   8.627   9.628   7.639  0.3427 -0.1290  0.0978
 1932W        W 5451   4.686   3.616   1.931 -0.1430  0.0383 -0.1579
 1933W        W 5452   8.283   6.801   4.343 -0.0224  0.1858 -0.0696
 1934W        W 5453   2.139   2.198   3.226 -0.1202  0.1599 -0.2878
 1935W        W 5454   2.113   3.826  11.643  0.0337 -0.0562  0.1550
 1936W        W 5455   3.917   2.224   9.803 -0.0850 -0.0744  0.2053
 1937W        W 5456   1.151   7.627  12.461  0.0840  0.1535 -0.0095
 1938W        W 5457   5.472   0.630   2.627 -0.1019  0.1254 -0.1398
 1939W        W 5458   4.414   4.429  12.175 -0.1730  0.0393  0.0624
 1940W        W 5459   8.341   8.228   9.507  0.2576 -0.0474 -0.0171
 1941W        W 5460   1.130   2.715  12.450 -0.0901 -0.2588 -0.2606
 1942W        W 5461   5.400   7.481  11.448 -0.0925  0.1299  0.1159
 1943W        W 5462   3.815   1.744   2.443  0.0291 -0.3148  0.2001
 1944W        W 5463   7.319   1.781   3.096  0.2955 -0.1226 -0.3310
 1945W        W 5464   3.955   0.220   8.660 -0.2791 -0.1834 -0.2344
 1946W        W 5465   9.636   6.638   1.778  0.3699  0.1310 -0.1667
 1947W        W 5466   2.402   2.665   2.445 -0.1390 -0.2156 -0.0290
 1948W        W 5467   2.201   3.849  10.802 -0.1386 -0.1990  0.2489
 1949W        W 5468   3.415   4.243   9.816  0.0759 -0.0970 -0.1649
 1950W        W 5469   6.220   9.359   0.985  0.0246  0.1638  0.1858
 1951W        W 5470   8.815   6.714  10.562 -0.1497 -0.1223 -0.2863
 1952W        W 5471   8.519   9.393   1.058  0.1289  0.3369 -0.1021
 1953W        W 5472   1.042   9.407   3.925  0.3322 -0.2299  0.2883
 1954W        W 5473   0.449   7.280  11.884  0.1299  0.0935 -0.0545
 1955W        W 5474   0.725   0.332   3.868 -0.1052  0.1054 -0.1164
 1956W        W 5475   2.274   9.167   8.976  0.2545  0.0089 -0.1573
 1957W        W 5476   2.163   5.826   2.688  0.1060 -0.3407 -0.0365
 1958W        W 5477   8.756   1.830   2.102  0.1163 -0.1831  0.0705
 1959W        W 5478   6.134   5.243   2.327  0.0823  0.0429 -0.1787
 1960W        W 5479   6.685   7.113   3.165 -0.0642  0.1532  0.0357
 1961W        W 5480   3.212   6.307  10.699 -0.0665 -0.0799  0.2064
 1962W        W 5481   2.297   4.277  10.299 -0.3110  0.2732  0.0141
 1963W        W 5482   6.696   7.541  12.223  0.0708  0.0266 -0.0066
 1964W        W 5483   7.834   1.668   4.280  0.0551  0.1671  0.1832
 1965W        W 5484   1.598   3.962  12.344 -0.2417  0.2314 -0.1438
 1966W        W 5485   8.297   4.740   8.853  0.4444  0.0603  0.3358
 1967W        W 5486   8.908   0.328   9.619  0.2034  0.0321  0.1535
 1968W        W 5487   6.393   2.786   1.145  0.0688 -0.1037  0.0916
 1969W        W 5488   7.985   3.608   2.493 -0.0102  0.1059 -0.1872
 1970W        W 5489   4.625   6.788   1.543 -0.2074 -0.1837  0.2402
 1971W        W 5490   1.984   1.015  12.159 -0.1533  0.2184 -0.1049
 1972W        W 5491   4.386   9.700   8.866  0.0179  0.1054  0.0738
 1973W        W 5492   8.942   3.554   0.541 -0.1728 -0.0736 -0.2094
 1974W        W 5493   3.694   2.721   1.177 -0.0641  0.3605 -0.2790
 1975W        W 5494   0.913   3.009  10.186  0.2631  0.2716 -0.0547
 1976W        W 5495   7.368   7.713   8.142  0.0758  0.3434 -0.3421
 1977W        W 5496   8.370   1.107   8.530  0.2631 -0.0480 -0.0794
 1978W        W 5497   4.481   5.625   0.543 -0.0483 -0.2398 -0.0048
 1979W        W 5498   0.187   1.031  10.718  0.1125 -0.2879 -0.5387
 1980W        W 5499   8.281   4.052   0.858 -0.0382 -0.1700 -0.4068
 1981W        W 5500   9.535   3.622   3.995  0.0420  0.2423 -0.2330
 1982W        W 5501   7.477   4.939   1.662 -0.0082  0.0807 -0.0218
 1983W        W 5502   5.398   1.641   1.907 -0.1489 -0.1626 -0.2291
 1984W        W 5503   6.254   3.506   8.609  0.0210  0.0145 -0.0673
 1985W        W 5504   9.403   5.966  10.924 -0.1279 -0.0453 -0.2327
 1986W        W 5505   2.554   8.891  12.338 -0.0767 -0.2365  0.0954
 1987W        W 5506   8.936   3.535   1.355 -0.0986  0.3466  0.1521
 1988W        W 5507   2.900   1.036   2.618 -0.0261 -0.0236  0.0800
 1989W        W 5508   6.986   7.889   0.984  0.3177 -0.3140  0.0143
 1990W        W 5509   2.835   1.796  10.442  0.1062  0.1713 -0.3250
 1991W        W 5510   1.809   7.321  11.257 -0.1328 -0.2442 -0.1386
 1992W        W 5511   2.397   0.112   1.822 -0.3849  0.0221  0.4251
 1993W        W 5512   2.130   6.412   2.894  0.0011  0.0983 -0.2733
 1994W        W 5513   7.130   6.258  11.049  0.0222  0.0429  0.2283
 1995W        W 5514   1.457   4.635   9.282  0.1444 -0.3088  0.1637
 1996W        W 5515   0.428   4.719   3.274 -0.0110  0.0875 -0.1961
 1997W        W 5516   4.491   4.483  10.300 -0.1698  0.3285  0.1606
 1998W        W 5517   2.314   2.236   2.758 -0.2224 -0.0364  0.1164
 1999W        W 5518   0.747   3.611   0.172 -0.4020 -0.1013  0.2425
 2000W        W 5519   4.390   5.261  11.597  0.1815  0.0334 -0.2961
 2001W        W 5520   6.129   8.467   1.152 -0.0334 -0.1292 -0.0579
 2002W        W 5521   1.815   6.383   8.353 -0.3747  0.1312  0.0858
 2003W        W 5522   8.414   1.947   1.247 -0.0360  0.0730 -0.0887
 2004W        W 5523   3.202   2.880   2.630 -0.1250  0.0305  0.0339
 2005W        W 5524   6.055   6.605   9.419  0.0571 -0.3075  0.1989
 2006W        W 5525   3.661   9.482   3.816 -0.0041  0.1413 -0.1367
 2007W        W 5526   9.569   9.125   9.125 -0.3095 -0.1526  0.0518
 2008W        W 5527   1.655   4.400   0.702 -0.0897 -0.0408  0.2156
 2009W        W 5528   7.081   3.394   8.306  0.0603  0.0767 -0.0302
 2010W        W 5529   2.463   1.279  10.647  0.0645 -0.0734 -0.2266
 2011W        W 5530   6.192   8.226   0.174  0.1249  0.2410 -0.0407
 2012W        W 5531   5.059   6.794   1.842 -0.2317 -0.0920 -0.0468
 2013W        W 5532   8.600   8.582  10.237  0.2381  0.0638  0.2159
 2014W        W 5533   2.549   0.371  12.475 -0.2312  0.0839 -0.2565
 2015W        W 5534   8.821   8.073   9.488 -0.0265  0.0292  0.1032
 2016W        W 5535   1.363   8.526   2.931 -0.0594 -0.0972  0.0627
 2017W        W 5536   8.964   9.652   0.066  0.2277 -0.0314  0.0726
 2018W        W 5537   0.109   0.651  11.061  0.1551 -0.0001 -0.2121
 2019W        W 5538   1.434   5.201  11.418  0.0438 -0.0976 -0.1473
 2020W        W 5539   1.762   3.813   2.674  0.0334 -0.3037  0.1490
 2021W        W 5540   9.283   1.302   9.950  0.0065 -0.2846  0.1293
 2022W        W 5541   5.728   6.338  10.229  0.0296 -0.1608 -0.3342
 2023W        W 5542   0.777   7.726   3.558  0.0125  0.0996  0.0092
 2024W        W 5543   8.050   1.319   0.551 -0.1133 -0.2284  0.1078
 2025W        W 5544   3.192   6.712  11.408  0.1304 -0.1217  0.0518
 2026W        W 5545   5.565   0.895  10.595 -0.2945  0.3304  0.0883
 2027W        W 5546   4.475   0.346  10.338 -0.0233  0.0305  0.0814
 2028W        W 5547   0.310   5.576   8.097 -0.0089 -0.0554  0.2433
 2029W        W 5548   7.528   9.490  12.307 -0.0187  0.1245 -0.1033
 2030W        W 5549   9.676   3.342   8.605  0.3297 -0.1687 -0.1157
 2031W        W 5550   0.006   4.691  11.893  0.0904 -0.2379 -0.2092
 2032W        W 5551   3.864   5.989  10.027  0.2093  0.0195 -0.0085
 2033W        W 5552   3.158   2.829  11.909 -0.0951  0.0121 -0.0290
 2034W        W 5553   6.237   7.772   2.755 -0.0199 -0.1885 -0.1207
 2035W        W 5554   4.313   8.394   3.153  0.0500  0.1160 -0.0737
 2036W        W 5555   7.591   9.143   0.792 -0.0060 -0.1930 -0.2576
 2037W        W 5556   5.703   1.061   3.476 -0.2007 -0.1239  0.2153
 2038W        W 5557   7.662   7.692  12.319 -0.2354 -0.3576  0.0760
 2039W        W 5558   7.079   0.059   9.212 -0.1240  0.0114  0.2473
 2040W        W 5559   6.442   0.259   2.516 -0.2481 -0.0500  0.1428
 2041W        W 5560   3.651   7.433   2.096  0.1853 -0.0703 -0.0335
 2042W        W 5561   0.163   1.017   7.876 -0.2944 -0.1719 -0.1584
 2043W        W 5562   7.412   8.099  11.021 -0.1478  0.1963  0.0099
 2044W        W 5563   3.834   5.959  11.516 -0.0663 -0.0928  0.2859
 2045W        W 5564   0.017   6.526   1.198 -0.0771 -0.0609  0.0704
 2046W        W 5565   6.183   7.755  10.669 -0.1452 -0.0429 -0.0565
 2047W        W 5566   1.003   0.545   0.964  0.0002 -0.0938  0.0527
 2048W        W 5567   3.918   7.202   1.776  0.0350  0.0890  0.3262
 2049W        W 5568   2.781   0.416  11.962  0.0387  0.1077 -0.1930
 2050W        W 5569   4.117   6.769   9.510 -0.2354  0.0671  0.1430
 2051W        W 5570   2.045   0.396  10.416  0.1108  0.1310  0.2146
 2052W        W 5571   3.706   7.012   9.651  0.0963 -0.2288  0.2428
 2053W        W 5572   9.060   4.826   0.290  0.2092  0.3198 -0.2029
 2054W        W 5573   1.806   4.990   1.327  0.2588 -0.1603  0.0351
 2055W        W 5574   8.774   5.798   0.827  0.1500  0.2090 -0.1053
 2056W        W 5575   1.527   3.415   9.312  0.5069  0.0633  0.0945
 2057W        W 5576   1.810   2.726   8.594  0.1894 -0.0675 -0.0504
 2058W        W 5577   5.844   5.209   3.609  0.0048  0.0983  0.1869
 2059W        W 5578   2.484   2.641   3.974 -0.1848 -0.0928 -0.0784
 2060W        W 5579   8.878   1.251  11.379  0.1686  0.0496  0.0946
 2061W        W 5580   2.608   4.117  10.762  0.1047 -0.0457 -0.1682
 2062W        W 5581   0.077   7.017   3.768 -0.3893  0.1897 -0.1904
 2063W        W 5582   7.102   3.465   1.727 -0.3073  0.3950 -0.2196
 2064W        W 5583   8.161   3.389  12.375  0.0441  0.0787  0.0038
 2065W        W 5584   2.292   4.768  10.372  0.2733  0.0240  0.3214
 2066W        W 5585   2.758   0.054   9.779 -0.2093 -0.2055 -0.0850
 2067W        W 5586   1.218   1.296  10.755 -0.0989 -0.2293 -0.0342
 2068W        W 5587   8.614   0.248   3.142 -0.0464  0.1062 -0.1137
 2069W        W 5588   4.427   8.501   2.401  0.0875 -0.0157  0.4352
 2070W        W 5589   6.132   1.949   9.786 -0.1927  0.0886  0.0311
 2071W        W 5590   1.384   2.679   3.267 -0.2322  0.2429  0.0106
 2072W        W 5591   9.444   5.260  11.287  0.0987  0.0971 -0.3090
 2073W        W 5592   4.163   1.302   2.519 -0.0962 -0.1095 -0.2101
 2074W        W 5593   5.664   4.094  11.540 -0.0743  0.1125  0.0868
 2075W        W 5594   3.826   7.522   1.391  0.3228  0.0532  0.2301
 2076W        W 5595   8.605   3.766  12.212 -0.1176 -0.1556  0.1004
 2077W        W 5596   0.881   1.373  12.017  0.0138  0.0597 -0.1943
 2078W        W 5597   3.680   0.579   0.352 -0.0095  0.2497 -0.0190
 2079W        W 5598   8.651   7.769   8.315 -0.3156  0.0685 -0.0626
 2080W        W 5599   0.308   5.775   2.537  0.1025  0.2125 -0.1351
 2081W        W 5600   4.278   0.477   1.782 -0.0442 -0.0974  0.0584
 2082W        W 5601   9.275   8.085   1.879  0.2822  0.0452  0.1107
 2083W        W 5602   3.165   3.792  11.933 -0.0812  0.0445  0.2732
 2084W        W 5603   5.859   0.881   9.660  0.3612 -0.2628  0.0283
 2085W        W 5604   3.499   9.214  12.238  0.0868  0.2895  0.0044
 2086W        W 5605   0.072   2.865   0.812 -0.2698 -0.4107  0.0904
 2087W        W 5606   9.606   3.555   9.190 -0.0030  0.0246 -0.0078
 2088W        W 5607   5.245   1.073   2.826 -0.2849 -0.0994  0.0523
 2089W        W 5608   0.978   8.704   9.412 -0.0208 -0.0826 -0.1719
 2090W        W 5609   7.502   8.558  10.717  0.0627 -0.1361 -0.1236
 2091W        W 5610   5.270   5.811  10.544 -0.0886  0.0395  0.1202
 2092W        W 5611   9.411   1.895   0.332  0.2277  0.1974 -0.0089
 2093W        W 5612   2.677   0.036   9.248 -0.1087  0.1240 -0.1128
 2094W        W 5613   1.737   2.310   3.534  0.0180 -0.1880 -0.0159
 2095W        W 5614   6.547   7.487   9.921  0.0393 -0.1264 -0.1328
 2096W        W 5615   7.851   4.731   0.629  0.2332  0.0641 -0.0985
 2097W        W 5616   3.226   5.532   9.610  0.0343  0.0298 -0.4192
 2098W        W 5617   7.420   1.114   1.581 -0.2202 -0.2369 -0.1062
 2099W        W 5618   8.465   8.038   2.415 -0.0028  0.0507 -0.0358
 2100W        W 5619   8.878   5.951  11.048 -0.1860  0.2200 -0.0548
 2101W        W 5620   6.857   5.412  11.493  0.3812 -0.2409  0.4988
 2102W        W 5621   6.171   1.435  11.083 -0.0813 -0.1950 -0.0920
 2103W        W 5622   0.922   6.140  10.067 -0.2210 -0.0665  0.0933
 2104W        W 5623   6.955   5.441   1.121 -0.0503  0.0776 -0.2533
 2105W        W 5624   5.622   0.794   1.258  0.0530 -0.2002 -0.1215
 2106W        W 5625   8.233   9.096  12.462 -0.0614  0.2733 -0.3160
 2107W        W 5626   0.992   4.061   0.278  0.0668  0.1806 -0.2854
 2108W        W 5627   5.772   1.689  10.316  0.0679 -0.0679 -0.0743
 2109W        W 5628   6.067   5.448   0.993  0.0953 -0.2201 -0.2714
 2110W        W 5629   1.269   3.814   9.236  0.0580  0.2151 -0.2846
 2111W        W 5630   6.889   6.004   8.326  0.1549  0.2452 -0.1748
 2112W        W 5631   9.650   3.351   2.502  0.0018 -0.1398  0.0450
 2113W        W 5632   0.057   1.194   4.210  0.2620  0.1102 -0.0940
 2114W        W 5633   2.385   4.739  11.266  0.2149  0.3350  0.0244
 2115W        W 5634   3.952   2.335   3.850  0.0506 -0.0721 -0.4112
 2116W        W 5635   9.116   3.447   8.940 -0.2075 -0.3287  0.1173
 2117W        W 5636   9.453   7.659   2.570  0.0024  0.0847 -0.2874
 2118W        W 5637   2.963   5.267   0.011 -0.1793 -0.3944 -0.0787
 2119W        W 5638   0.206   1.836  11.630 -0.1787  0.2062 -0.2333
 2120W        W 5639   5.907   3.159   8.532 -0.1481 -0.0561  0.1247
 2121W        W 5640   1.198   8.984   2.759 -0.4304  0.1105  0.0781
 2122W        W 5641   1.856   4.919   8.417  0.0538  0.1175 -0.2612
 2123W        W 5642   3.274   0.124   8.137 -0.2965 -0.1216 -0.1742
 2124W        W 5643   1.004   4.402  10.765  0.2691 -0.0422 -0.0264
 2125W        W 5644   5.996   3.998  11.205 -0.0355 -0.1719  0.1881
 2126W        W 5645   8.691   0.409  12.434 -0.0661 -0.0814 -0.0464
 2127W        W 5646   6.967   3.891   1.563  0.0935  0.1807 -0.1551
 2128W        W 5647   3.581   0.991  11.325 -0.0099  0.0372 -0.2263
 2129W        W 5648   0.950   8.058  10.265 -0.4660  0.0242 -0.0897
 2130W        W 5649   5.164   1.606   3.931 -0.1787  0.0281  0.3445
 2131W        W 5650   7.187   8.667  11.065 -0.5596  0.0392  0.0746
 2132W        W 5651   3.877   5.126   2.942  0.2004 -0.3476 -0.1874
 2133W        W 5652   4.454   2.227   9.871 -0.2055  0.1058  0.1192
 2134W        W 5653   1.568   0.713  11.865 -0.0514 -0.1806  0.2409
 2135W        W 5654   6.036   3.530   0.297  0.0731  0.0405 -0.0660
 2136W        W 5655   0.208   2.694   3.436 -0.0947  0.1187 -0.2145
 2137W        W 5656   2.306   5.653   9.711 -0.1496 -0.0627  0.0758
 2138W        W 5657   6.404   4.106   1.496 -0.1604 -0.3015 -0.1478
 2139W        W 5658   5.062   2.548  12.367  0.1022 -0.0357 -0.0489
 2140W        W 5659   6.770   3.132  11.509  0.1413  0.0600  0.1011
 2141W        W 5660   1.854   5.519   2.390 -0.2860  0.3398 -0.2811
 2142W        W 5661   8.228   6.135   3.158 -0.0210  0.3636  0.1518
 2143W        W 5662   2.078   1.723   0.164  0.0006  0.0674 -0.1342
 2144W        W 5663   3.715   4.102  11.881  0.1054  0.3342 -0.0999
 2145W        W 5664   9.501   1.512   0.923  0.2992  0.0612  0.3007
 2146W        W 5665   1.289   1.549  12.066 -0.2552  0.0063  0.1564
 2147W        W 5666   8.488   6.509   3.453  0.0751 -0.3313  0.1763
 2148W        W 5667   8.661   7.598   9.999 -0.3641 -0.0127 -0.3428
 2149W        W 5668   0.822   4.014   0.725  0.0241 -0.0170  0.0753
 2150W        W 5669   8.851   2.208   1.126 -0.3034 -0.0466 -0.1579
 2151W        W 5670   4.729   4.541   0.103  0.2075 -0.0091 -0.0436
 2152W        W 5671   7.191   1.438   9.149  0.1349 -0.1111  0.1776
 2153W        W 5672   0.578   6.441   2.272  0.3119 -0.2515 -0.1030
 2154W        W 5673   8.488   5.055   2.400 -0.0142  0.0719 -0.2430
 2155W        W 5674   6.139   2.735   2.414  0.3127 -0.4385  0.0564
 2156W        W 5675   2.919   5.649   1.613  0.1488  0.1136 -0.1170
 2157W        W 5676   3.170   2.090  11.575  0.0240 -0.0273  0.0951
 2158W        W 5677   8.210   3.601   1.840 -0.2843 -0.1639 -0.1102
 2159W        W 5678   9.609   9.169   0.161 -0.0449 -0.3628 -0.0519
 2160W        W 5679   0.784   2.835  12.042 -0.2783  0.2185 -0.2306
 2161W        W 5680   3.034   0.702  10.615 -0.1724 -0.0764  0.0397
 2162W        W 5681   1.528   9.492   9.560 -0.0530 -0.0107  0.0014
 2163W        W 5682   5.336   5.074   3.606 -0.0958 -0.1288  0.2262
 2164W        W 5683   6.846   4.686   8.659  0.0329  0.1770 -0.0882
 2165W        W 5684   1.999   3.431  12.451 -0.3704 -0.0774  0.1664
 2166W        W 5685   0.569   4.251   9.773  0.1648  0.0104  0.2357
 2167W        W 5686   7.249   3.340  11.624 -0.0578 -0.5818  0.1372
 2168W        W 5687   8.867   0.028   4.572 -0.4048 -0.0732 -0.1622
 2169W        W 5688   2.473   6.027   3.070 -0.0667  0.2471 -0.0979
 2170W        W 5689   2.777   4.830  12.303  0.0962  0.1065  0.2546
 2171W        W 5690   1.770   5.622   3.586  0.0407 -0.1271 -0.0205
 2172W        W 5691   0.418   3.652   8.502 -0.3984  0.1316 -0.2153
 2173W        W 5692   3.778   4.575   3.128  0.2989 -0.3069  0.3686
 2174W        W 5693   1.743   7.584   2.183  0.1479 -0.2330 -0.0747
 2175W        W 5694   8.576   5.962   3.517 -0.0177 -0.2927  0.0755
 2176W        W 5695   9.644   7.225  12.328 -0.0544  0.1492  0.1308
 2177W        W 5696   6.901   7.959  12.205 -0.0791  0.2171 -0.0931
 2178W        W 5697   1.712   2.472  10.378  0.0061  0.1519  0.0935
 2179W        W 5698   1.634   2.975  11.724 -0.2828 -0.3232  0.1589
 2180W        W 5699   7.639   0.420   3.262 -0.1040 -0.2028 -0.0718
 2181W        W 5700   4.133   1.251   8.454 -0.0152 -0.2113  0.0533
 2182W        W 5701   0.712   3.437   2.841 -0.1386  0.0551 -0.1712
 2183W        W 5702   9.316   2.583   2.415  0.0960  0.0631  0.2667
 2184W        W 5703   2.415   8.763   2.361  0.1885  0.0520 -0.0321
 2185W        W 5704   8.640   2.856   0.026 -0.0518 -0.0206 -0.0393
 2186W        W 5705   9.402   0.919   9.546  0.0416 -0.1453  0.3835
 2187W        W 5706   6.527   6.954  10.049 -0.0524  0.0904  0.2502
 2188W        W 5707   2.126   2.049   9.999  0.0873  0.2186 -0.0135
 2189W        W 5708   7.569   3.209   9.923  0.0469 -0.2673 -0.1379
 2190W        W 5709   7.317   4.787   8.486  0.1153  0.0913 -0.3917
 2191W        W 5710   4.878   8.685   1.203  0.1041  0.0113 -0.2273
 2192W        W 5711   3.701   2.419   2.996 -0.1945  0.0258 -0.0762
 2193W        W 5712   8.771   4.904   2.790 -0.1232  0.0169  0.1726
 2194W        W 5713   0.219   8.851   0.323 -0.0320  0.1230  0.0866
 2195W        W 5714   7.405   3.733   3.267 -0.0063 -0.0995  0.1684
 2196W        W 5715   5.200   1.285   1.128  0.0049 -0.0947 -0.2185
 2197W        W 5716   2.671   3.992   8.907  0.3388  0.2285  0.1633
 2198W        W 5717   8.771   7.701   1.200  0.0638  0.0383 -0.1581
 2199W        W 5718   6.433   6.387   3.062  0.2966 -0.0122  0.3544
 2200W        W 5719   6.861   1.870  10.416 -0.0284  0.1053 -0.5148
 2201W        W 5720   5.076   8.287   9.562 -0.1288 -0.1689  0.0162
 2202W        W 5721   4.483   4.064  12.528 -0.0135 -0.1441 -0.0544
 2203W        W 5722   3.386   5.770  10.681  0.1627  0.0720  0.3020
 2204W        W 5723   6.324   0.142   1.098 -0.2000  0.3135 -0.1489
 2205W        W 5724   7.516   0.715   9.461  0.1371 -0.4112 -0.0344
 2206W        W 5725   1.030   3.961  11.043 -0.0725 -0.0413  0.0879
 2207W        W 5726   6.277   1.279   8.776  0.3707 -0.3885  0.1582
 2208W        W 5727   1.927   6.859   1.823  0.0120 -0.0761 -0.0871
 2209W        W 5728   1.575   2.189   9.086  0.1210  0.2323  0.2905
 2210W        W 5729   0.910   2.227   1.579  0.0682  0.4208  0.0124
 2211W        W 5730   3.357   7.158  12.426  0.0225 -0.1701 -0.0075
 2212W        W 5731   1.712   7.784  11.468  0.0483  0.1646 -0.3066
 2213W        W 5732   0.621   2.519   4.308  0.1530  0.2557  0.0372
 2214W        W 5733   6.787   3.730  11.681 -0.0917 -0.1600  0.1216
 2215W        W 5734   1.953   0.288   7.772  0.4170 -0.0513 -0.0509
 2216W        W 5735   2.191   2.541  10.305 -0.1274  0.3765 -0.1385
 2217W        W 5736   7.120   5.448   8.578  0.0809 -0.2597 -0.1683
 2218W        W 5737   3.164   9.381  11.324 -0.2485  0.3177 -0.0086
 2219W        W 5738   1.947   5.069  11.290  0.2009 -0.2214  0.0760
 2220W        W 5739   1.989   2.939   4.627 -0.2447 -0.6076  0.2591
 2221W        W 5740   0.184   6.023   1.418 -0.0959 -0.0285  0.1035
 2222W        W 5741   1.348   2.602   8.429  0.1306 -0.5807  0.0960
 2223W        W 5742   4.476   1.244  10.836 -0.1867 -0.3151  0.0150
 2224W        W 5743   4.195   7.814   1.229  0.3647  0.0715  0.0903
 2225W        W 5744   2.509   8.458  11.132  0.0754 -0.0951  0.0531
 2226W        W 5745   6.225   1.511   9.997 -0.0024 -0.3019  0.0704
 2227W        W 5746   5.588   5.154   3.177  0.2268 -0.0976  0.1983
 2228W        W 5747   8.824   9.252   8.597  0.2242 -0.1247  0.1419
 2229W        W 5748   0.067   2.324   8.800  0.0923  0.5278  0.0540
 2230W        W 5749   0.490   0.904   2.484 -0.3030  0.3151  0.5562
 2231W        W 5750   3.374   2.694  11.455  0.0169 -0.0685 -0.0113
 2232W        W 5751   8.400   5.599  12.463 -0.0977  0.0252 -0.1663
 2233W        W 5752   8.400   1.381  12.183 -0.0937  0.0441  0.0862
 2234W        W 5753   0.043   7.261   8.273 -0.1591  0.1157  0.1662
 2235W        W 5754   6.477   2.212  11.538 -0.0542  0.0530 -0.3180
 2236W        W 5755   7.225   2.245   9.306 -0.1807 -0.1848 -0.0663
 2237W        W 5756   0.103   7.231   8.798 -0.0773 -0.1213 -0.1184
 2238W        W 5757   8.265   5.498   1.603 -0.1709 -0.0185 -0.2539
 2239W        W 5758   3.480   7.775   1.776  0.0777  0.2132 -0.0470
 2240W        W 5759   6.207   4.992   0.609 -0.2271  0.0599  0.0880
 2241W        W 5760   8.086   1.542   3.456 -0.0825 -0.0341 -0.0209
 2242W        W 5761   3.309   7.836  10.765  0.0087  0.2374  0.1271
 2243W        W 5762   7.537   1.407  10.348  0.2271  0.2506 -0.4352
 2244W        W 5763   7.847   0.410   8.120  0.0493  0.3040 -0.1509
 2245W        W 5764   5.398   5.425   8.665 -0.1700  0.0234 -0.1177
 2246W        W 5765   6.240   2.358  10.070 -0.0931  0.0473  0.0765
 2247W        W 5766   7.295   9.157   1.258  0.2967 -0.1003 -0.0776
 2248W        W 5767   4.142   3.525  12.364 -0.1589 -0.1726  0.3364
 2249W        W 5768   7.825   2.786   3.104 -0.1379 -0.0893 -0.1352
 2250W        W 5769   3.406   0.841   8.468 -0.1227 -0.1945 -0.3288
 2251W        W 5770   7.867   0.145  10.355 -0.2442 -0.0537 -0.0148
 2252W        W 5771   6.364   1.119   9.758  0.4067  0.1967 -0.0153
 2253W        W 5772   4.252   0.210   0.972  0.1162 -0.0884  0.2341
 2254W        W 5773   0.169   2.347  12.523  0.0721 -0.2721  0.3596
 2255W        W 5774   0.784   3.810   8.882 -0.1843 -0.0985 -0.3329
 2256W        W 5775   3.651   1.956  10.198  0.1026  0.3611  0.4179
 2257W        W 5776   6.181   4.031   0.365 -0.1060 -0.1488  0.0290
 2258W        W 5777   3.204   2.892   9.645  0.2713  0.2927 -0.0883
 2259W        W 5778   6.498   4.164   8.066 -0.0083 -0.0508  0.0658
 2260W        W 5779   9.197   4.912   9.440  0.1421 -0.1522 -0.0660
 2261W        W 5780   4.359   4.523   4.420 -0.1446  0.0807  0.3210
 2262W        W 5781   5.561   6.586   2.020 -0.0821 -0.0975 -0.0264
 2263W        W 5782   9.246   8.890   2.036 -0.0026  0.0629 -0.1175
 2264W        W 5783   1.751   9.095   8.906  0.0459 -0.0533  0.0734
 2265W        W 5784   6.919   1.435   0.207 -0.3608 -0.0392  0.1341
 2266W        W 5785   4.335   6.551   3.891 -0.4561 -0.0678  0.0955
 2267W        W 5786   0.279   5.498   9.508 -0.0193  0.1084  0.2569
 2268W        W 5787   1.683   2.023   2.012  0.0225  0.0287  0.1831
 2269W        W 5788   8.613   6.629   8.795 -0.5229  0.0316 -0.0059
 2270W        W 5789   4.858   0.421   0.289 -0.0356  0.2455 -0.1467
 2271W        W 5790   6.855   0.185   0.702 -0.1881  0.3496  0.0354
 2272W        W 5791   7.349   1.160  10.911 -0.2687  0.1253  0.1932
 2273W        W 5792   0.295   1.821  10.562 -0.0230  0.1475 -0.0353
 2274W        W 5793   2.625   6.724  11.386  0.1486  0.3905  0.0277
 2275W        W 5794   7.589   8.891  10.324 -0.1905  0.0929 -0.0248
 2276W        W 5795   8.950   7.441  11.695 -0.0708  0.2313 -0.2594
 2277W        W 5796   1.229   0.227   1.656  0.0140  0.3715  0.0300
 2278W        W 5797   5.867   5.051   9.819 -0.0228 -0.1430 -0.0758
 2279W        W 5798   0.823   0.284   1.943  0.0822  0.2699 -0.0823
 2280W        W 5799   5.069   1.992   1.952  0.2635 -0.1480  0.0062
 2281W        W 5800   3.373   2.779   0.639 -0.0137 -0.2327  0.0378
 2282W        W 5801   8.904   1.926   8.397 -0.2542  0.1240  0.0882
 2283W        W 5802   6.688   2.669  11.805  0.3336  0.0705  0.1150
 2284W        W 5803   4.622   8.260   0.368 -0.0245  0.0039  0.2384
 2285W        W 5804   2.264   6.800   0.987  0.0667 -0.0999  0.1858
 2286W        W 5805   9.330   6.118   2.077 -0.2464  0.0748  0.0111
 2287W        W 5806   0.772   3.329   8.544 -0.3381 -0.0705 -0.3782
 2288W        W 5807   6.184   1.639   1.311  0.0465 -0.4333 -0.2103
 2289W        W 5808   7.313   6.950   0.125  0.1424 -0.1111 -0.1930
 2290W        W 5809   0.866   2.142   0.679  0.1111  0.2496  0.1523
 2291W        W 5810   1.218   7.615   1.179 -0.1786  0.3545  0.0622
 2292W        W 5811   3.694   0.445  11.082  0.3388 -0.0318 -0.2369
 2293W        W 5812   3.346   4.837  12.386 -0.0017  0.3198  0.2554
 2294W        W 5813   5.257   5.298   2.784  0.3765  0.2601 -0.1274
 2295W        W 5814   0.065   8.012   1.005 -0.0065  0.0060 -0.0562
 2296W        W 5815   3.211   3.303   9.935  0.0862 -0.1137  0.0609
 2297W        W 5816   1.767   3.389   2.977  0.0619  0.0030  0.1758
 2298W        W 5817   9.115   2.846  11.203  0.3938  0.2716 -0.1111
 2299W        W 5818   0.952   5.996   3.920  0.2003 -0.0540  0.2691
 2300W        W 5819   4.748   4.247  11.215 -0.2302  0.1151 -0.1192
 2301W        W 5820   5.354   3.899  10.678  0.1295 -0.0464  0.2546
 2302W        W 5821   4.786   4.894   9.570 -0.0853  0.2790  0.1293
 2303W        W 5822   2.851   2.592   8.899 -0.1743 -0.0354 -0.0215
 2304W        W 5823   7.208   3.834  12.042 -0.3101 -0.0746 -0.1128
 2305W        W 5824   8.108   5.681  11.811  0.1728 -0.0368  0.2041
 2306W        W 5825   8.723   0.525   8.519  0.1749  0.1110 -0.2937
 2307W        W 5826   6.566   6.519   8.480 -0.1365  0.0762 -0.1941
 2308W        W 5827   8.335   1.523   2.231  0.3417 -0.1861 -0.2571
 2309W        W 5828   3.491   8.483  11.202 -0.0100 -0.1385 -0.1318
 2310W        W 5829   0.959   5.944  11.522 -0.1952  0.3689  0.0745
 2311W        W 5830   1.854   8.888   0.907 -0.1075  0.0680 -0.2446
 2312W        W 5831   0.212   3.717   0.078  0.1568  0.0360 -0.2004
 2313W        W 5832   3.174   3.278   3.889  0.1335  0.1188 -0.2330
 2314W        W 5833   9.655   6.227   0.713  0.0355  0.4446 -0.1521
 2315W        W 5834   7.995   9.362   9.023  0.0318  0.4362  0.2648
 2316W        W 5835   9.083   8.914   0.122 -0.1034  0.1188 -0.2387
 2317W        W 5836   5.981   8.569   9.867 -0.0580  0.0062  0.1869
 2318W        W 5837   0.494   2.030   4.565 -0.1314  0.1500 -0.0602
 2319W        W 5838   4.920   2.588   3.385  0.0406  0.6354  0.1887
 2320W        W 5839   8.585   7.115   2.257 -0.1653 -0.1081 -0.0676
 2321W        W 5840   7.329   3.149   4.425  0.0228  0.0921  0.1132
 2322W        W 5841   8.041   4.494  10.423 -0.1490 -0.0519  0.2161
 2323W        W 5842   3.307   0.659   2.726  0.2337 -0.2339 -0.0467
 2324W        W 5843   7.353   0.620  11.546  0.1469  0.1762 -0.1509
 2325W        W 5844   8.844   3.051   0.447  0.0804  0.2189  0.1957
 2326W        W 5845   1.918   3.769  11.201 -0.0166  0.3630  0.0479
 2327W        W 5846   3.144   8.487  11.637 -0.1992 -0.5510  0.2597
 2328W        W 5847   1.520   8.442   0.810 -0.0799  0.0243 -0.1423
 2329W        W 5848   4.892   5.813   4.157  0.0656 -0.0758 -0.1118
 2330W        W 5849   0.461   4.229   3.398  0.1628 -0.2367  0.0550
 2331W        W 5850   9.217   7.377  10.065  0.0883  0.1327  0.0758
 2332W        W 5851   7.900   4.950  10.295 -0.2829 -0.0433  0.1190
 2333W        W 5852   1.149   3.431   8.893  0.1566 -0.0358 -0.0145
 2334W        W 5853   0.078   0.375  11.498  0.1088  0.1497  0.4924
 2335W        W 5854   2.879   9.677  11.716  0.1541  0.0879  0.1365
 2336W        W 5855   6.235   9.223   0.448  0.3152 -0.1725 -0.0246
 2337W        W 5856   9.169   0.284   1.615 -0.0437  0.1193  0.1792
 2338W        W 5857   5.992   0.302  10.778  0.1225 -0.0109  0.0232
 2339W        W 5858   0.631   1.249   1.206  0.0623  0.0719  0.4985
 2340W        W 5859   9.179   0.043   2.125 -0.2823  0.0620 -0.1182
 2341W        W 5860   8.879   9.577   3.311 -0.0205  0.3513 -0.1576
 2342W        W 5861   0.605   2.660  11.546  0.2199  0.0292 -0.3002
 2343W        W 5862   0.902   2.769  10.611  0.0898 -0.2024 -0.0760
 2344W        W 5863   3.948   2.594  12.009  0.1800 -0.1850 -0.0384
 2345W        W 5864   5.803   2.867  11.703  0.0920 -0.0016 -0.0194
 2346W        W 5865   5.963   9.642   1.568  0.0877 -0.1867 -0.1777
 2347W        W 5866   1.245   2.256   2.055  0.0688 -0.1444 -0.0260
 2348W        W 5867   3.704   8.394   9.835  0.3393 -0.2432  0.1230
 2349W        W 5868   3.263   2.572  12.464  0.5661  0.3492 -0.2905
 2350W        W 5869   8.834   5.258   9.645  0.1044 -0.1267  0.1796
 2351W        W 5870   2.268   0.814  10.607 -0.0560  0.3455 -0.1982
 2352W        W 5871   8.987   9.529   9.585 -0.0306 -0.0595  0.1232
 2353W        W 5872   7.279   0.558  12.157  0.2306  0.3665  0.2274
 2354W        W 5873   0.640   2.495   0.311  0.0783 -0.3036 -0.0428
 2355W        W 5874   4.871   8.705   0.691 -0.2299 -0.2171 -0.0758
 2356W        W 5875   1.174   1.486   1.300  0.0416  0.0601 -0.2033
 2357W        W 5876   8.141   2.974   9.084 -0.2509  0.0111 -0.0151
 2358W        W 5877   8.693   5.702   1.401  0.3555 -0.2665  0.1692
 2359W        W 5878   7.891   8.300   9.258  0.1147  0.0903 -0.2772
 2360W        W 5879   3.291   5.315  11.540 -0.3495  0.2658 -0.1399
 2361W        W 5880   4.692   2.893   8.263 -0.1333 -0.2785 -0.1775
 2362W        W 5881   1.404   6.008   9.775 -0.1255  0.1759 -0.1726
 2363W        W 5882   3.156   1.532   2.373  0.2435  0.0810 -0.0553
 2364W        W 5883   3.202   5.414   3.453 -0.0017  0.2456 -0.0037
 2365W        W 5884   8.443   5.626   2.409  0.0003  0.0287  0.1440
 2366W        W 5885   1.495   6.118   2.240 -0.1066  0.0642  0.0316
 2367W        W 5886   1.144   8.842   9.001  0.1872 -0.0661  0.1415
 2368W        W 5887   3.109   8.825   2.629  0.1950 -0.1856  0.0976
 2369W        W 5888   5.195   6.281   1.307 -0.0768  0.2458 -0.2815
 2370W        W 5889   1.581   4.617   1.618 -0.1397 -0.3179  0.1038
 2371W        W 5890   8.241   4.810  12.319 -0.0399  0.1340  0.0136
 2372W        W 5891   1.225   5.350   4.129  0.1797 -0.3076 -0.0303
 2373W        W 5892   5.632   1.556  11.272 -0.1207  0.0290 -0.0210
 2374W        W 5893   4.438   6.242   0.044  0.2478 -0.3338  0.0655
 2375W        W 5894   6.846   3.240  12.520 -0.0981 -0.2138 -0.1082
 2376W        W 5895   7.585   2.318  10.716  0.0732  0.0853  0.3210
 2377W        W 5896   0.296   5.024   2.866  0.0350  0.1648  0.1287
 2378W        W 5897   7.813   7.086   9.637 -0.1688  0.3885  0.2416
 2379W        W 5898   2.576   6.731  10.299  0.2923 -0.1528 -0.0738
 2380W        W 5899   4.039   7.743   1.773 -0.2401 -0.0520 -0.2595
 2381W        W 5900   3.635   6.269   9.085  0.0714  0.0100 -0.0566
 2382W        W 5901   4.163   5.695   9.466  0.2729  0.3642  0.1640
 2383W        W 5902   3.994   5.916   1.853 -0.1642  0.0178  0.0643
 2384W        W 5903   0.030   2.101   3.268  0.0561  0.4032 -0.0986
 2385W        W 5904   1.752   6.474  11.670  0.0097 -0.1106  0.2142
 2386W        W 5905   9.431   2.655   7.990  0.1655  0.2027 -0.0840
 2387W        W 5906   1.859   1.162   0.177  0.1635 -0.3118  0.2859
 2388W        W 5907   9.307   7.126   9.389  0.3973  0.0868 -0.1316
 2389W        W 5908   8.677   5.164  12.328 -0.0867  0.0978  0.1195
 2390W        W 5909   1.844   2.939   9.545 -0.0719 -0.0974  0.1612
 2391W        W 5910   6.656   5.388   0.290  0.2467  0.1225  0.0760
 2392W        W 5911   9.507   1.262   3.261 -0.0730 -0.2940 -0.3170
 2393W        W 5912   1.126   0.057  10.525 -0.1476 -0.0166  0.0159
 2394W        W 5913   0.102   2.482   0.437 -0.1440  0.0475 -0.1491
 2395W        W 5914   2.609   1.875   8.486 -0.1209  0.0067 -0.2242
 2396W        W 5915   2.286   4.305  11.799  0.0193 -0.1983  0.0367
 2397W        W 5916   9.611   4.912   2.167 -0.3271  0.1847  0.0018
 2398W        W 5917   8.353   5.967  11.126 -0.2128 -0.2015  0.3346
 2399W        W 5918   9.615   4.892   9.126 -0.3278 -0.3936  0.0273
 2400W        W 5919   5.899   5.840   0.702 -0.0072 -0.0179  0.1173
 2401W        W 5920   8.248   8.526   0.102  0.1154  0.2521  0.3365
 2402W        W 5921   1.633   4.299   3.438 -0.1746 -0.0191 -0.0957
 2403W        W 5922   8.366   8.492   3.634 -0.2369  0.0602 -0.0098
 2404W        W 5923   4.360   1.388   7.999  0.2391 -0.1560  0.2615
 2405W        W 5924   9.332   7.505   1.741  0.1478  0.0470 -0.3192
 2406W        W 5925   4.039   3.733  11.850  0.1573  0.2068 -0.3295
 2407W        W 5926   0.360   3.672   1.571 -0.0498 -0.0915  0.0687
 2408W        W 5927   0.860   1.680   4.536 -0.2353  0.1311 -0.2655
 2409W        W 5928   7.211   9.123   8.702  0.3294  0.0106 -0.2139
 2410W        W 5929   9.144   6.524   0.500 -0.1254  0.3010  0.1002
 2411W        W 5930   7.947   8.798   7.703 -0.1666 -0.0371 -0.0897
 2412W        W 5931   8.390   2.989  11.795 -0.0215  0.0125  0.2454
 2413W        W 5932   3.640   2.154   1.890  0.1830 -0.0426  0.2247
 2414W        W 5933   9.438   4.354   8.502  0.0113 -0.1069  0.0542
 2415W        W 5934   4.285   7.179   9.837 -0.1496 -0.0285  0.0355
 2416W        W 5935   8.046   4.494   1.077  0.0549  0.0042 -0.0357
 2417W        W 5936   5.741   0.371   3.944 -0.1296  0.0292 -0.1871
 2418W        W 5937   7.045   6.623   0.771 -0.1447  0.2617  0.1572
 2419W        W 5938   0.802   7.836   0.780 -0.1949 -0.1033 -0.0332
 2420W        W 5939   8.150   0.156  10.811  0.2584  0.0572  0.3197
 2421W        W 5940   1.346   8.938   1.181 -0.1489  0.1996  0.2092
 2422W        W 5941   2.380   2.258  10.899 -0.2340 -0.0960 -0.4991
 2423W        W 5942   4.528   5.069   3.263 -0.0714  0.2474  0.1336
 2424W        W 5943   5.487   6.265  10.739 -0.0150  0.0282 -0.1505
 2425W        W 5944   2.121   5.061   3.167  0.3276  0.0231 -0.2238
 2426W        W 5945   4.670   1.173   2.550 -0.3759 -0.0353 -0.0455
 2427W        W 5946   3.484   4.545  11.991  0.0575  0.1378 -0.1605
 2428W        W 5947   9.669   2.176  10.166  0.0979 -0.0986 -0.2191
 2429W        W 5948   7.394   7.454  10.943  0.0026  0.3018  0.0977
 2430W        W 5949   4.699   7.289  10.695  0.1984 -0.1152 -0.1708
 2431W        W 5950   5.052   6.955  12.478  0.0731 -0.1430 -0.0877
 2432W        W 5951   8.765   1.954   3.988 -0.2969  0.1467 -0.1423
 2433W        W 5952   4.028   3.663  10.991  0.2332  0.1426  0.2710
 2434W        W 5953   0.347   1.963   0.472 -0.1968 -0.1858  0.0140
 2435W        W 5954   4.197   0.468  11.646  0.0464 -0.0468  0.2875
 2436W        W 5955   0.757   3.020   8.948 -0.1003 -0.0125 -0.0308
 2437W        W 5956   5.903   2.325  10.574  0.1441 -0.0100  0.0741
 2438W        W 5957   5.892   3.394   9.616  0.0509 -0.2415 -0.1366
 2439W        W 5958   1.525   6.853  11.976  0.3452 -0.3019 -0.0459
 2440W        W 5959   8.207   8.192  10.093 -0.2157  0.1840 -0.2226
 2441W        W 5960   4.007   2.196   3.347 -0.1169 -0.2253  0.1303
 2442W        W 5961   6.703   6.405  10.122  0.0043  0.2120 -0.1057
 2443W        W 5962   6.472   2.276   3.739 -0.2537  0.2990 -0.2440
 2444W        W 5963   8.262   9.595   1.939  0.3444 -0.1497 -0.0311
 2445W        W 5964   3.608   1.433   1.494 -0.0217  0.1815  0.1223
 2446W        W 5965   1.707   8.941   9.831 -0.1766 -0.1737  0.1205
 2447W        W 5966   8.800   4.409   0.412 -0.1194  0.0460  0.0701
 2448W        W 5967   7.898   6.910   8.476  0.0443  0.1480  0.1051
 2449W        W 5968   7.454   6.152  10.455 -0.0794  0.0385  0.0145
 2450W        W 5969   2.901   0.951   2.065 -0.2657  0.0014  0.1277
 2451W        W 5970   1.144   0.402   2.785 -0.0656 -0.0302 -0.2970
 2452W        W 5971   6.184   2.598  11.881  0.2134 -0.0643  0.0617
 2453W        W 5972   1.445   8.941  11.887 -0.0859 -0.0189  0.1215
 2454W        W 5973   7.623   6.324   0.650 -0.1011  0.1368 -0.1418
 2455W        W 5974   8.669   6.168  10.192  0.2131 -0.2499  0.3755
 2456W        W 5975   0.251   6.303   0.302  0.1320 -0.1007  0.2442
 2457W        W 5976   5.171   3.816   9.593 -0.1495 -0.1589 -0.2052
 2458W        W 5977   7.548   4.505   2.509  0.0932  0.1357 -0.0784
 2459W        W 5978   7.697   3.507   1.016 -0.2309  0.2520 -0.3988
 2460W        W 5979   0.423   7.668   1.096 -0.3414  0.0830  0.2890
 2461W        W 5980   3.394   6.292  12.498  0.0560 -0.3296  0.1242
 2462W        W 5981   2.773   9.082  10.252 -0.3628 -0.3061 -0.1170
 2463W        W 5982   4.087   7.594   2.331  0.1091  0.1219  0.1233
 2464W        W 5983   1.583   4.773  12.203  0.1032  0.1101  0.1673
 2465W        W 5984   5.056   4.698  11.157  0.0269 -0.2330 -0.0393
 2466W        W 5985   4.572   0.821   3.489 -0.0299  0.1082 -0.2253
 2467W        W 5986   7.925   5.009   2.958  0.2000  0.0256  0.0723
 2468W        W 5987   8.524   1.642   9.199 -0.3020  0.0670 -0.0735
 2469W        W 5988   0.802   9.073  11.215  0.2350  0.1321  0.0447
 2470W        W 5989   4.232   6.146   9.728  0.3127  0.2568 -0.0278
 2471W        W 5990   1.200   2.127   9.398  0.0462 -0.1401  0.2838
 2472W        W 5991   7.090   1.238  10.036 -0.2025 -0.1400 -0.0109
 2473W        W 5992   6.768   4.939   1.051  0.0691  0.0644  0.0587
 2474W        W 5993   0.313   5.788   3.070  0.3459  0.0227 -0.0715
 2475W        W 5994   2.060   5.342   9.184  0.1310 -0.0284  0.1792
 2476W        W 5995   1.124   3.360   1.752 -0.2990  0.3371 -0.1667
 2477W        W 5996   1.142   5.355   3.094  0.1367 -0.1422  0.1650
 2478W        W 5997   6.808   7.359  10.870  0.3491 -0.0394 -0.1375
 2479W        W 5998   4.712   7.045   8.516  0.2366  0.1387 -0.2122
 2480W        W 5999   3.194   6.313   2.759 -0.2336 -0.0082  0.2226
 2481W        W 6000   2.719   5.746   3.380 -0.1013 -0.4152 -0.0377
 2482W        W 6001   4.371   1.155  12.456  0.0542  0.2383  0.2129
 2483W        W 6002   3.708   0.066   1.120 -0.2447  0.2134  0.0694
 2484W        W 6003   0.706   8.011   2.769  0.0092  0.0554  0.1897
 2485W        W 6004   1.041   1.858   8.805  0.2829  0.0124  0.4984
 2486W        W 6005   2.440   9.388   9.925 -0.3266 -0.0823 -0.0463
 2487W        W 6006   3.159   1.489   0.672  0.1039 -0.0784  0.2274
 2488W        W 6007   9.128   4.038   0.437 -0.3157 -0.0137  0.2065
 2489W        W 6008   5.187   3.668  12.084 -0.4424 -0.2077 -0.0529
 2490W        W 6009   2.815   4.576  11.487 -0.2256 -0.3279 -0.0959
 2491W        W 6010   1.054   8.316  10.716 -0.0902 -0.0585 -0.2742
 2492W        W 6011   4.197   2.841   8.271  0.0929  0.2040  0.1102
 2493W        W 6012   5.463   0.248   8.961 -0.0914  0.1448 -0.0190
 2494W        W 6013   4.998   5.279   2.016 -0.1609  0.3272  0.0670
 2495W        W 6014   7.696   5.964   0.286  0.1441  0.2864 -0.2248
 2496W        W 6015   4.513   8.567  11.288  0.0008 -0.1390 -0.2321
 2497W        W 6016   1.918   8.134  12.400 -0.1131  0.1877  0.0606
 2498W        W 6017   9.067   9.680   8.352  0.0419  0.1613  0.3461
 2499W        W 6018   2.790   4.223   4.179  0.1371  0.1285 -0.1342
 2500W        W 6019   5.398   3.691   0.802 -0.4540  0.1365 -0.1411
 2501W        W 6020   8.810   5.885  12.360 -0.1042 -0.2203 -0.2057
 2502W        W 6021   8.955   4.990  11.924  0.0574  0.2366  0.2112
 2503W        W 6022   4.120   0.256   3.404 -0.3288  0.0743 -0.0672
 2504W        W 6023   4.258   2.358   8.435 -0.2746 -0.0704 -0.0169
 2505W        W 6024   3.337   8.701   9.134  0.0901  0.0844  0.0042
 2506W        W 6025   3.474   3.550  10.944 -0.1487  0.1276  0.2889
 2507W        W 6026   6.314   3.120   9.999 -0.0127  0.2029 -0.1299
 2508W        W 6027   3.134   3.298  11.676 -0.0539 -0.0139 -0.1630
 2509W        W 6028   8.942   7.148   9.722  0.2167 -0.0866  0.1010
 2510W        W 6029   5.787   1.654   3.291 -0.0877  0.1424  0.4060
 2511W        W 6030   8.326   8.885  11.037 -0.0592  0.2548  0.1003
 2512W        W 6031   0.555   3.217   8.151  0.1813 -0.1322  0.0004
 2513W        W 6032   6.116   6.003   9.037  0.0534  0.0055  0.0024
 2514W        W 6033   1.983   3.532   9.391 -0.3391 -0.3355  0.3728
 2515W        W 6034   9.365   5.608  10.563 -0.0598 -0.0079  0.3192
 2516W        W 6035   5.867   0.339   9.910 -0.1348 -0.3294 -0.0282
 2517W        W 6036   0.471   4.274   2.386 -0.0940  0.1323  0.1488
 2518W        W 6037   4.587   7.161  11.181  0.0691 -0.0681 -0.1897
 2519W        W 6038   0.087   6.812   8.496  0.0492  0.0989  0.3070
 2520W        W 6039   9.302   5.888   9.215 -0.2702  0.1523  0.0071
 2521W        W 6040   9.107   1.550   3.297  0.1054 -0.0409 -0.2779
 2522W        W 6041   9.427   9.341   1.858  0.0028 -0.0480 -0.0772
 2523W        W 6042   0.113   5.613   1.084 -0.3323 -0.2359 -0.0760
 2524W        W 6043   6.792   9.569  10.223  0.1018 -0.1144 -0.1036
 2525W        W 6044   2.808   0.715   0.754 -0.1646  0.1001  0.4600
 2526W        W 6045   4.028   7.399  12.394 -0.1071 -0.0401 -0.1623
 2527W        W 6046   5.921   5.351   1.870 -0.1935  0.2328 -0.0768
 2528W        W 6047   6.546   9.292  12.465 -0.3779 -0.3319 -0.2171
 2529W        W 6048   9.128   3.490  10.225  0.0292 -0.0349 -0.0010
 2530W        W 6049   2.952   4.222   9.280  0.1241 -0.2660  0.3234
 2531W        W 6050   6.698   3.266   2.726  0.2740  0.1586 -0.2914
 2532W        W 6051   7.776   7.856  10.088 -0.1191 -0.3906 -0.2181
 2533W        W 6052   2.817   0.493  11.496 -0.1081  0.1003 -0.1260
 2534W        W 6053   1.181   1.373   8.829 -0.5817 -0.1479  0.0105
 2535W        W 6054   4.501   5.466   1.717 -0.1931 -0.0849 -0.1038
 2536W        W 6055   7.041   4.582  10.854 -0.5852 -0.0924 -0.3785
 2537W        W 6056   9.454   9.635   0.194  0.3844 -0.2711  0.2353
 2538W        W 6057   8.182   2.808  12.291  0.0419  0.0673 -0.2256
 2539W        W 6058   1.735   4.798   9.678  0.1133 -0.1545  0.0216
 2540W        W 6059   5.563   3.372   1.227  0.1582  0.0104  0.3360
 2541W        W 6060   7.926   9.318  10.385 -0.1668  0.3318  0.1943
 2542W        W 6061   1.419   6.393   3.833  0.0670  0.0629 -0.1230
 2543W        W 6062   5.421   6.711  10.974  0.1204  0.1435  0.1190
 2544W        W 6063   1.005   7.544   2.689  0.0530 -0.0311  0.1044
 2545W        W 6064   2.403   0.117  11.575 -0.2163 -0.1428 -0.2087
 2546W        W 6065   9.000   9.240   9.104  0.3401  0.1682 -0.0532
 2547W        W 6066   8.837   5.437   2.655  0.3319  0.0817  0.0313
 2548W        W 6067   3.537   5.537   3.131  0.2523 -0.0158 -0.0940
 2549W        W 6068   2.901   4.401   1.957 -0.1310  0.0796  0.2901
 2550W        W 6069   4.924   9.252   4.376 -0.0274 -0.0530 -0.0190
 2551W        W 6070   4.474   9.493   0.845  0.0132 -0.0127  0.2193
 2552W        W 6071   6.655   0.975   0.034 -0.2093  0.0801  0.0895
 2553W        W 6072   7.206   6.401  11.949  0.2412  0.0014  0.1743
 2554W        W 6073   8.917   0.755  11.467  0.1750  0.1875 -0.2177
 2555W        W 6074   6.043   5.432  10.800 -0.1026 -0.1355  0.1290
 2556W        W 6075   8.657   7.183   1.141  0.0942  0.0270  0.2095
 2557W        W 6076   5.323   2.092  12.067 -0.3011 -0.1467  0.1860
 2558W        W 6077   6.417   0.047   1.616 -0.1829 -0.0080  0.0225
 2559W        W 6078   4.233   4.569   2.366 -0.0010 -0.0471 -0.4367
 2560W        W 6079   5.123   9.037   3.076 -0.0984  0.2642  0.0916
 2561W        W 6080   6.661   4.829   3.216  0.0799  0.0120  0.3877
 2562W        W 6081   4.860   4.758  10.518 -0.2305 -0.0132 -0.1413
 2563W        W 6082   9.417   3.066   2.127  0.1740 -0.0319  0.0728
 2564W        W 6083   3.161   0.442   3.148  0.3399  0.2577 -0.0273
 2565W        W 6084   4.926   5.328   9.687  0.1661  0.0238  0.1348
 2566W        W 6085   1.201   3.071  12.050  0.1989  0.2312 -0.0414
 2567W        W 6086   4.380   3.983   1.714  0.1086 -0.0500 -0.1292
 2568W        W 6087   3.080   7.408   1.090  0.4277  0.1465 -0.0713
 2569W        W 6088   6.894   6.492   3.441 -0.0447 -0.3938  0.1033
 2570W        W 6089   5.997   1.270   0.403  0.2067 -0.1816 -0.0787
 2571W        W 6090   3.738   3.350   3.823  0.0593  0.1812  0.3139
 2572W        W 6091   4.647   6.663   0.197  0.0795 -0.2530 -0.0332
 2573W        W 6092   1.552   2.667   1.898  0.2921  0.4085 -0.1563
 2574W        W 6093   4.972   5.138   8.421 -0.2311  0.2096  0.2794
 2575W        W 6094   0.325   6.484   4.268 -0.0352 -0.1865 -0.2310
 2576W        W 6095   1.038   1.081   3.900 -0.0038 -0.0003 -0.0001
 2577W        W 6096   7.823   5.434   9.279 -0.1563  0.0986 -0.0655
 2578W        W 6097   2.985   6.745   9.257 -0.0758 -0.1177  0.1461
 2579W        W 6098   8.349   8.471   1.710 -0.4004 -0.1426 -0.1591
 2580W        W 6099   1.071   7.990   1.424 -0.2587  0.3412  0.1676
 2581W        W 6100   7.052   2.666  10.649 -0.1287 -0.0599 -0.0732
 2582W        W 6101   7.339   4.735   2.884 -0.1074  0.0262 -0.0984
 2583W        W 6102   3.397   1.175   2.608 -0.0694 -0.0060  0.0266
 2584W        W 6103   9.617   6.707   2.788  0.2005  0.1144  0.2602
 2585W        W 6104   2.907   6.138  12.086 -0.0605 -0.1791  0.0264
 2586W        W 6105   5.402   6.813   8.914 -0.0573 -0.0712  0.0078
 2587W        W 6106   8.870   6.832  12.176  0.0802 -0.1704 -0.3883
 2588W        W 6107   2.514   4.990   8.966 -0.2959  0.2111 -0.3187
 2589W        W 6108   8.908   1.310   8.548 -0.1457 -0.1285  0.0715
 2590W        W 6109   4.203   2.504   2.885 -0.1795  0.3188 -0.2044
 2591W        W 6110   4.395   3.333   8.179  0.0307  0.0401 -0.0473
 2592W        W 6111   9.358   3.351   1.682 -0.2308 -0.1942 -0.2806
 2593W        W 6112   5.613   7.142   1.895  0.0272  0.1567  0.1214
 2594W        W 6113   3.693   6.236   1.633  0.1075 -0.0866  0.3469
 2595W        W 6114   1.013   0.354   9.921  0.0743  0.0867 -0.0883
 2596W        W 6115   7.120   7.950   0.157 -0.1051 -0.3147 -0.2943
 2597W        W 6116   3.312   2.742   8.542  0.0867  0.1117  0.1145
 2598W        W 6117   1.334   9.644  10.972 -0.1262 -0.0200 -0.3680
 2599W        W 6118   6.136   3.716  12.395  0.1764 -0.2859  0.2105
 2600W        W 6119   8.087   2.513   0.163 -0.0007  0.1575  0.0403
 2601W        W 6120   1.200   0.362   0.473  0.1833 -0.0506  0.0429
 2602W        W 6121   9.219   5.467   0.639  0.2402  0.0579 -0.0808
 2603W        W 6122   2.045   5.480  11.070 -0.0450 -0.3338  0.1906
 2604W        W 6123   3.578   8.667  12.286  0.1841  0.3075  0.2636
 2605W        W 6124   0.752   3.323   7.735  0.0884 -0.0319 -0.0912
 2606W        W 6125   2.653   0.926   9.847 -0.3025  0.0921 -0.0457
 2607W        W 6126   5.474   0.163  12.294  0.1611  0.1301 -0.0451
 2608W        W 6127   4.867   4.258   8.266 -0.0998  0.0521 -0.2888
 2609W        W 6128   5.172   8.751   9.716  0.1925  0.0894  0.1985
 2610W        W 6129   1.137   5.095   3.616  0.0046  0.0112 -0.0912
 2611W        W 6130   6.687   4.155   8.524 -0.1814  0.0950  0.2932
 2612W        W 6131   2.786   4.350   3.524  0.0635  0.1313 -0.1288
 2613W        W 6132   8.609   2.218   1.626 -0.2009 -0.2221  0.0452
 2614W        W 6133   8.994   8.878  10.283 -0.1624  0.1098 -0.3243
 2615W        W 6134   7.582   1.867   0.696 -0.1539  0.0368 -0.2183
 2616W        W 6135   0.016   0.416   8.722  0.3721 -0.0728 -0.3461
 2617W        W 6136   7.993   0.491   9.258 -0.0651  0.0314  0.3077
 2618W        W 6137   0.732   6.097  11.954  0.2518 -0.0201 -0.0878
 2619W        W 6138   9.466   7.100  10.839  0.1123 -0.0543 -0.2277
 2620W        W 6139   8.584   1.469   3.287 -0.1826 -0.5570 -0.1062
 2621W        W 6140   7.317   0.264   9.582 -0.2693 -0.0124  0.2216
 2622W        W 6141   1.300   2.733  10.206  0.1730  0.1524 -0.2005
 2623W        W 6142   2.304   2.265  11.869  0.0147  0.1137 -0.0565
 2624W        W 6143   8.764   6.601   1.970 -0.0373 -0.0035 -0.1399
 2625W        W 6144   6.232   7.565   1.365 -0.4220 -0.3206  0.0182
 2626W        W 6145   5.147   3.939   3.256  0.0599 -0.1797  0.3343
 2627W        W 6146   3.257   1.532  11.040 -0.4237 -0.1705 -0.1107
 2628W        W 6147   0.468   7.012  10.049  0.2492 -0.1877 -0.1652
 2629W        W 6148   2.482   7.259   8.862 -0.1441  0.0264 -0.0078
 2630W        W 6149   1.843   0.780   9.439 -0.2534  0.1611  0.3604
 2631W        W 6150   5.243   1.132  11.907  0.2459  0.1571 -0.1393
 2632W        W 6151   7.107   0.717   1.399  0.1597  0.0845  0.0101
 2633W        W 6152   6.231   2.271   2.781  0.0386  0.1446 -0.1455
 2634W        W 6153   5.524   3.053   3.132 -0.1766  0.1961  0.1949
 2635W        W 6154   0.666   8.292   9.194 -0.3290 -0.1695 -0.3291
 2636W        W 6155   6.770   7.297   3.730  0.1563  0.1830  0.2009
 2637W        W 6156   4.263   5.890   9.032  0.1206 -0.0237  0.2810
 2638W        W 6157   6.942   8.906   2.749 -0.1610  0.0034 -0.4481
 2639W        W 6158   8.137   5.401   8.245 -0.3545  0.1938  0.1357
 2640W        W 6159   4.056   1.604  10.608 -0.0834 -0.1290  0.0765
 2641W        W 6160   8.073   0.508  11.163 -0.1109  0.0353  0.1730
 2642W        W 6161   0.729   9.666  10.257 -0.0374  0.0387  0.3163
 2643W        W 6162   7.468   7.586   2.628 -0.0278 -0.0823  0.3597
 2644W        W 6163   1.165   3.172   4.042 -0.5457 -0.1354  0.1264
 2645W        W 6164   4.063   2.718   2.108  0.1357  0.2039  0.0088
 2646W        W 6165   5.327   6.952   2.278 -0.3893 -0.0957 -0.0064
 2647W        W 6166   0.693   3.179  12.408  0.0752 -0.0598  0.1529
 2648W        W 6167   7.784   8.693   2.971  0.2605 -0.1532 -0.1111
 2649W        W 6168   3.295   4.856   0.775  0.2444  0.0039  0.1781
 2650W        W 6169   0.745   5.344   0.265 -0.1008  0.0158 -0.0740
 2651W        W 6170   3.096   4.844   2.127 -0.0255  0.0146  0.1834
 2652W        W 6171   3.247   3.802   1.604 -0.3775  0.0739 -0.0490
 2653W        W 6172   5.280   0.857  10.941  0.3679  0.1562 -0.2212
 2654W        W 6173   6.237   7.793  10.188  0.1581  0.1378  0.1182
 2655W        W 6174   2.948   5.607   2.287 -0.1330  0.1301  0.1951
 2656W        W 6175   2.884   3.433   4.934  0.2035  0.0513 -0.0482
 2657W        W 6176   7.250   3.848   8.575 -0.0763 -0.0832  0.0980
 2658W        W 6177   1.397   8.963  10.236 -0.1297  0.1366  0.3461
 2659W        W 6178   9.184   8.674   1.217 -0.1030  0.1046  0.0042
 2660W        W 6179   7.246   9.376   0.359 -0.0960 -0.0099  0.2664
 2661W        W 6180   5.763   7.210  10.501  0.3172 -0.1107 -0.0699
 2662W        W 6181   6.794   6.557   2.378  0.0804 -0.0464  0.1280
 2663W        W 6182   4.992   8.940  12.252  0.0492  0.0390  0.1371
 2664W        W 6183   7.586   5.339  10.095 -0.0063  0.3657 -0.3706
 2665W        W 6184   1.320   6.624   1.584  0.0353 -0.0364  0.1530
 2666W        W 6185   4.739   3.695   2.847  0.0238 -0.2870 -0.1573
 2667W        W 6186   2.402   4.036   3.832  0.0412 -0.1353 -0.0981
 2668W        W 6187   4.429   2.785   9.933  0.0863 -0.5287 -0.1567
 2669W        W 6188   6.958   8.362   8.673 -0.0322  0.0385  0.0670
 2670W        W 6189   4.299   0.516   8.360  0.1997  0.1491  0.1041
 2671W        W 6190   3.096   7.680  12.265  0.1866  0.3410 -0.1688
 2672W        W 6191   1.527   3.927   4.387  0.0313  0.2719 -0.2350
 2673W        W 6192   3.858   7.897  11.045  0.2767  0.3234  0.0077
 2674W        W 6193   5.322   4.806  10.749  0.1067  0.2342 -0.0925
 2675W        W 6194   3.947   9.654   2.361  0.0797 -0.1725  0.4255
 2676W        W 6195   5.815   5.246   2.771  0.1289  0.0337  0.2729
 2677W        W 6196   1.063   1.108   0.908 -0.1139  0.2253  0.1574
 2678W        W 6197   4.482   3.257   0.193 -0.3834 -0.0940 -0.0789
 2679W        W 6198   3.198   7.611   9.036 -0.3874  0.3367  0.2320
 2680W        W 6199   5.517   2.421   0.147  0.0419  0.1628  0.0718
 2681W        W 6200   2.692   9.372  12.283  0.0750 -0.4589 -0.1065
 2682W        W 6201   7.143   5.138  10.553  0.1131  0.0852 -0.2664
 2683W        W 6202   4.999   7.839   2.426  0.0053  0.2777 -0.0690
 2684W        W 6203   2.655   8.858   1.007  0.1567 -0.1841 -0.1176
 2685W        W 6204   4.549   0.396  12.038  0.1389  0.3397 -0.1405
 2686W        W 6205   4.707   7.692   3.322  0.2980 -0.2057 -0.1561
 2687W        W 6206   5.778   5.726   3.053 -0.0815  0.0364  0.0168
 2688W        W 6207   4.992   7.370   9.321 -0.2338 -0.0438 -0.2394
 2689W        W 6208   6.678   3.302   0.935 -0.2713 -0.2322  0.1608
 2690W        W 6209   8.454   8.717   9.791  0.0700  0.1647 -0.1658
 2691W        W 6210   2.701   5.606   0.879  0.3226 -0.1124  0.1419
 2692W        W 6211   8.418   7.985   0.837 -0.1034  0.2733  0.2213
 2693W        W 6212   8.397   9.670  11.657 -0.2052 -0.4007  0.2615
 2694W        W 6213   6.806   1.333   8.746  0.0829  0.0268  0.2097
 2695W        W 6214   7.392   5.895  12.315  0.3626  0.0466 -0.1202
 2696W        W 6215   0.352   7.723  11.054  0.1785 -0.0489 -0.3382
 2697W        W 6216   0.959   6.485   0.685  0.2703 -0.1933 -0.0434
 2698W        W 6217   6.653   2.871   0.647  0.0295  0.0209  0.1509
 2699W        W 6218   9.310   8.351   0.818 -0.1733  0.3248  0.0559
 2700W        W 6219   3.126   6.414   0.471  0.1861 -0.3186 -0.0752
 2701W        W 6220   8.750   6.301   7.964  0.1324  0.0068  0.0424
 2702W        W 6221   1.215   5.053  12.065  0.2051  0.0325  0.0325
 2703W        W 6222   8.249   4.808  10.023  0.0515  0.1640  0.0158
 2704W        W 6223   5.235   2.331   8.502  0.2004  0.4130  0.0351
 2705W        W 6224   5.673   7.440   0.580  0.1313  0.2014 -0.1955
 2706W        W 6225   2.402   3.215   0.824  0.1660 -0.1355 -0.1034
 2707W        W 6226   4.098   1.287   1.400 -0.0048  0.1578  0.3935
 2708W        W 6227   5.723   1.109   4.010  0.0101  0.0688 -0.0303
 2709W        W 6228   4.871   8.056   9.954 -0.0525  0.1690  0.1593
 2710W        W 6229   5.275   7.759   0.448 -0.2003 -0.0583  0.0760
 2711W        W 6230   8.740   8.133   9.998  0.0611 -0.0945  0.0194
 2712W        W 6231   2.185   8.587  11.481  0.0853 -0.2226 -0.0040
 2713W        W 6232   7.908   5.194   0.814  0.1594  0.1778 -0.0080
 2714W        W 6233   8.389   3.149  10.281 -0.1078  0.1529 -0.1457
 2715W        W 6234   5.485   6.302   9.637 -0.1334  0.0033  0.0659
 2716W        W 6235   6.984   4.967   4.039 -0.1796 -0.0389 -0.0438
 2717W        W 6236   6.739   7.477   9.478  0.3452 -0.0097  0.1773
 2718W        W 6237   5.495   0.224   0.718  0.2136 -0.2240  0.2065
 2719W        W 6238   3.930   6.977   1.250 -0.0089  0.0170 -0.3669
 2720W        W 6239   6.963   5.604  12.460  0.0553 -0.2883  0.0417
 2721W        W 6240   8.918   8.276  11.007  0.0057  0.0500  0.2552
 2722W        W 6241   8.451   6.015  11.631 -0.0121 -0.1119  0.3752
 2723W        W 6242   1.619   2.639  11.256 -0.1743  0.0933 -0.0926
 2724W        W 6243   5.622   7.741   3.959 -0.0782 -0.0322 -0.0087
 2725W        W 6244   4.947   1.073   8.613  0.0218 -0.0036 -0.2800
 2726W        W 6245   4.567   2.057   1.942  0.2148  0.0109 -0.0323
 2727W        W 6246   1.993   4.843   4.057 -0.0981 -0.1136  0.0581
 2728W        W 6247   0.180   4.128   8.381 -0.0115 -0.0225 -0.3232
 2729W        W 6248   4.124   1.952  10.254 -0.1206 -0.0468 -0.2196
 2730W        W 6249   1.096   9.551   2.086 -0.1213  0.0156 -0.1207
 2731W        W 6250   2.778   8.023  12.425 -0.1640  0.1809  0.0151
 2732W        W 6251   1.930   2.446   9.621  0.0571  0.1656 -0.1761
 2733W        W 6252   8.158   5.199  12.023  0.0354 -0.0600  0.1244
 2734W        W 6253   2.420   7.563  10.001 -0.1133 -0.1608 -0.1252
 2735W        W 6254   3.383   2.408  10.897 -0.0807  0.2335 -0.2291
 2736W        W 6255   9.174   1.367  10.407  0.0984 -0.3162  0.2241
 2737W        W 6256   1.439   6.205   9.315  0.1008  0.1434  0.1732
 2738W        W 6257   9.129   3.762   1.949  0.3575  0.0886 -0.4369
 2739W        W 6258   2.059   6.074  11.819  0.0128  0.0527 -0.0694
 2740W        W 6259   0.304   1.219   8.371  0.1919 -0.1207  0.5612
 2741W        W 6260   7.006   3.451   9.337 -0.0460 -0.0516  0.2009
 2742W        W 6261   2.716   5.678   0.253 -0.0508 -0.0120 -0.1932
 2743W        W 6262   7.368   1.965   7.669 -0.1469  0.1504 -0.2536
 2744W        W 6263   1.520   7.122   1.650 -0.5181 -0.4072 -0.0236
 2745W        W 6264   5.389   5.456   1.738  0.0154  0.3076 -0.0266
 2746W        W 6265   2.671   0.945  10.361 -0.1884 -0.1095 -0.0727
 2747W        W 6266   3.456   1.323   3.171  0.3116  0.0459 -0.3415
 2748W        W 6267   2.981   7.546   0.223  0.1614 -0.0236  0.1259
 2749W        W 6268   6.876   1.412   8.276 -0.2131  0.3155  0.1683
 2750W        W 6269   7.761   9.494  10.834 -0.5730 -0.2532  0.1083
 2751W        W 6270   6.397   8.647   2.713  0.0082  0.3103  0.2084
 2752W        W 6271   6.266   0.739   8.857  0.1335 -0.0043  0.1855
 2753W        W 6272   9.511   6.195  11.711  0.2865  0.0522 -0.1684
 2754W        W 6273   7.252   4.738   1.273  0.4142  0.1397  0.0090
 2755W        W 6274   6.134   9.105   1.663 -0.2297  0.0017  0.0923
 2756W        W 6275   5.216   3.181   0.783 -0.2550 -0.3352 -0.0156
 2757W        W 6276   6.059   1.453  12.113  0.2485 -0.3029 -0.0486
 2758W        W 6277   7.925   0.127   3.842 -0.2796  0.0554  0.1253
 2759W        W 6278   5.330   6.106   0.516 -0.4194  0.1072  0.0431
 2760W        W 6279   2.956   2.432   4.070  0.0495 -0.2955 -0.2852
 2761W        W 6280   2.828   8.993   2.270  0.2572  0.0060  0.0529
 2762W        W 6281   6.916   4.254   9.542 -0.0459  0.0362  0.0326
 2763W        W 6282   8.273   2.290  12.033  0.1801  0.1922  0.0609
 2764W        W 6283   1.760   6.802   9.217 -0.1941 -0.1471 -0.1381
 2765W        W 6284   1.228   3.199  10.616 -0.1963  0.1033  0.1348
 2766W        W 6285   9.100   2.361   3.050 -0.0952  0.0312 -0.0595
 2767W        W 6286   8.339   8.458  10.647  0.2182  0.2412 -0.2327
 2768W        W 6287   5.994   9.018   2.654  0.1459  0.2162 -0.0017
 2769W        W 6288   5.139   8.598   3.400 -0.0472 -0.2448 -0.0229
 2770W        W 6289   1.786   9.650  10.712 -0.0509  0.1356 -0.0851
 2771W        W 6290   5.084   2.062   0.020 -0.0411  0.0421 -0.2164
 2772W        W 6291   8.092   9.041   2.263 -0.1708 -0.0476  0.4572
 2773W        W 6292   5.365   0.739   0.818  0.0226  0.1745 -0.2511
 2774W        W 6293   0.496   5.908   8.405 -0.1660 -0.1385 -0.0355
 2775W        W 6294   7.789   3.336  10.361 -0.1678  0.1307  0.0390
 2776W        W 6295   0.331   1.724   1.876  0.1304  0.0224 -0.1041
 2777W        W 6296   5.696   8.626  10.935 -0.0806 -0.2975  0.0781
 2778W        W 6297   9.030   7.849   9.054  0.3130 -0.1351  0.0045
 2779W        W 6298   6.299   1.485   2.924 -0.1245  0.1007 -0.1936
 2780W        W 6299   0.766   4.126  11.814  0.1353 -0.1034 -0.1315
 2781W        W 6300   9.426   9.129   9.621 -0.4475  0.0190 -0.1922
 2782W        W 6301   7.004   0.564   2.759  0.4049 -0.0831 -0.1637
 2783W        W 6302   8.672   2.487   0.430  0.2025 -0.0418 -0.0584
 2784W        W 6303   1.495   4.845   0.323 -0.0129 -0.0710  0.0042
 2785W        W 6304   8.399   7.027  12.404  0.0588 -0.0813  0.0045
 2786W        W 6305   5.920   6.542   2.902  0.0893  0.0294 -0.2014
 2787W        W 6306   2.018   6.013   9.991  0.0978  0.1479  0.0966
 2788W        W 6307   6.584   2.247   1.819  0.2730 -0.1482  0.1259
 2789W        W 6308   8.940   4.392  11.949  0.0432 -0.0949 -0.4507
 2790W        W 6309   3.556   3.162  11.333  0.0809 -0.1252 -0.1620
 2791W        W 6310   8.047   3.442   9.288 -0.0948 -0.0196  0.0243
 2792W        W 6311   7.823   8.263   9.718 -0.0005 -0.1424 -0.2503
 2793W        W 6312   7.260   6.428   0.369 -0.1835  0.0652 -0.1104
 2794W        W 6313   4.471   7.663  12.375 -0.4202  0.1773  0.0811
 2795W        W 6314   8.371   6.582   2.951  0.1422 -0.1344  0.0680
 2796W        W 6315   5.880   1.950   1.030 -0.0885  0.2451 -0.1958
 2797W        W 6316   3.782   0.897   1.694  0.6098 -0.0434 -0.0043
 2798W        W 6317   6.392   7.451   3.470  0.0448  0.2711 -0.0714
 2799W        W 6318   0.344   3.685  10.432  0.2566  0.1264  0.0225
 2800W        W 6319   3.157   3.198   0.841 -0.4092  0.1175 -0.0878
 2801W        W 6320   8.338   6.224   4.783 -0.0037 -0.0408  0.3263
 2802W        W 6321   0.113   0.189   0.753 -0.0445 -0.1858  0.1062
 2803W        W 6322   2.839   8.557   0.643  0.0729  0.1096  0.2079
 2804W        W 6323   7.551   5.211   2.532 -0.0270 -0.1126 -0.2474
 2805W        W 6324   1.195   7.568   2.176  0.1595 -0.1362 -0.1382
 2806W        W 6325   2.059   5.839  10.433  0.2065  0.0605 -0.2343
 2807W        W 6326   0.615   8.159   3.279 -0.2210 -0.0373  0.3852
 2808W        W 6327   5.529   8.092  10.556  0.1253  0.0703  0.2003
 2809W        W 6328   3.111   9.180   9.845  0.0052 -0.1213  0.0499
 2810W        W 6329   8.797   7.211   9.253  0.3609  0.2099 -0.1464
 2811W        W 6330   8.243   6.594   0.153 -0.1318 -0.1076 -0.0446
 2812W        W 6331   3.303   1.541  10.154  0.2649  0.0422 -0.2214
 2813W        W 6332   9.163   0.538  10.016 -0.0261  0.2823  0.2733
 2814W        W 6333   9.695   3.305  11.569  0.2998 -0.1663  0.1914
 2815W        W 6334   6.426   2.722  11.338  0.2239 -0.0022 -0.3656
 2816W        W 6335   6.144   5.084  10.387 -0.2105 -0.1998  0.2655
 2817W        W 6336   6.141   4.566  12.375  0.3422 -0.0788  0.1338
 2818W        W 6337   1.647   8.424  11.349  0.0575 -0.1023 -0.1174
 2819W        W 6338   7.985   5.943   2.724  0.2899 -0.0098  0.1886
 2820W        W 6339   3.771   4.450   3.685  0.1080  0.0539  0.2328
 2821W        W 6340   9.709   8.304  10.421  0.0829 -0.2697  0.1627
 2822W        W 6341   2.642   2.331   0.454  0.3938 -0.1274  0.4420
 2823W        W 6342   1.080   0.703   1.819 -0.0932 -0.0170  0.3377
 2824W        W 6343   9.309   8.070  10.640 -0.0719 -0.1577 -0.2672
 2825W        W 6344   8.104   7.401  12.100 -0.1921 -0.4010  0.0892
 2826W        W 6345   8.999   4.025   7.924 -0.5461 -0.1695 -0.1586
 2827W        W 6346   7.625   3.869   0.325  0.2477 -0.0835  0.2964
 2828W        W 6347   0.107   7.409   9.276 -0.4031  0.0255 -0.1160
 2829W        W 6348   9.031   8.838   9.780 -0.0040 -0.2485  0.0416
 2830W        W 6349   2.294   9.145   3.101  0.0080  0.1641 -0.1233
 2831W        W 6350   4.287   5.724  11.331  0.0945  0.0022  0.0141
 2832W        W 6351   9.456   8.720   8.260  0.0136  0.2267  0.2575
 2833W        W 6352   7.567   0.680   1.243 -0.2711  0.0520 -0.0128
 2834W        W 6353   4.193   7.478   3.423  0.0696 -0.0466 -0.1846
 2835W        W 6354   7.678   0.836  11.234 -0.3520 -0.0766 -0.0677
 2836W        W 6355   5.149   6.760  11.624 -0.1315  0.1106  0.1679
 2837W        W 6356   6.303   3.772   3.941  0.3587  0.4318 -0.2130
 2838W        W 6357   7.502   9.294  11.818 -0.0549 -0.1386  0.0915
 2839W        W 6358   4.166   0.589   1.266 -0.2358  0.0418 -0.0294
 2840W        W 6359   0.285   4.294  11.779  0.0925  0.3827  0.1461
 2841W        W 6360   4.614   5.731   9.801 -0.3050  0.3330 -0.0799
 2842W        W 6361   3.480   6.820   3.359  0.0336 -0.0404 -0.0881
 2843W        W 6362   5.755   3.694  10.182  0.1115 -0.0803  0.4245
 2844W        W 6363   8.813   5.740   0.348  0.2122  0.1402 -0.0341
 2845W        W 6364   7.877   9.084  11.116  0.1272  0.0535 -0.3382
 2846W        W 6365   8.139   8.886   0.441 -0.0365 -0.0365 -0.3004
 2847W        W 6366   4.730   4.920  12.033  0.1783  0.0579 -0.1308
 2848W        W 6367   1.279   7.521   9.760 -0.1158 -0.1792  0.1770
 2849W        W 6368   7.861   7.698   1.974  0.1013  0.1627  0.2877
 2850W        W 6369   1.889   9.230   3.454  0.0081  0.4027  0.3475
 2851W        W 6370   5.284   2.347  10.298  0.2240 -0.2361 -0.1006
 2852W        W 6371   3.039   7.068  11.063 -0.0983 -0.2334 -0.0881
 2853W        W 6372   2.179   4.416   2.042  0.1989 -0.4388  0.1371
 2854W        W 6373   0.503   9.480  12.511 -0.0006 -0.1758 -0.0211
 2855W        W 6374   6.993   3.806  10.306  0.0070 -0.0215 -0.0518
 2856W        W 6375   9.083   4.139   8.805  0.2673 -0.3195  0.1453
 2857W        W 6376   1.835   0.001   2.480 -0.3129  0.0359  0.1593
 2858W        W 6377   3.029   8.850  12.151 -0.1234 -0.2740  0.2287
 2859W        W 6378   9.113   5.152   3.050  0.1047 -0.0327  0.0930
 2860W        W 6379   7.511   0.116  11.753  0.1321  0.3746 -0.1491
 2861W        W 6380   4.518   0.984   8.347  0.1794 -0.0057 -0.2626
 2862W        W 6381   4.621   6.278   3.441 -0.2167  0.1239 -0.1901
 2863W        W 6382   1.728   1.753  10.555  0.3179  0.1805 -0.0719
 2864W        W 6383   4.742   3.074  11.432 -0.1965  0.0727  0.3957
 2865W        W 6384   7.670   2.532   1.887  0.3068  0.1509 -0.0364
 2866W        W 6385   7.248   7.909   8.624  0.0376  0.1933  0.0975
 2867W        W 6386   4.908   0.558  10.548 -0.0054 -0.1705  0.0791
 2868W        W 6387   4.371   2.819   2.549 -0.0936 -0.3518 -0.1344
 2869W        W 6388   1.358   1.591   0.886  0.1483 -0.1662 -0.1025
 2870W        W 6389   9.203   4.140  11.493 -0.0767  0.0463  0.1378
 2871W        W 6390   1.848   2.170  11.426 -0.0865 -0.0931 -0.0803
 2872W        W 6391   8.335   5.040   9.451 -0.3133  0.0149  0.1744
 2873W        W 6392   7.603   8.108   2.008 -0.1501 -0.0911 -0.0206
 2874W        W 6393   3.329   9.470   0.143  0.0501 -0.0997  0.2526
 2875W        W 6394   8.086   9.644   1.234  0.2828 -0.1713  0.2112
 2876W        W 6395   9.383   7.031   3.493 -0.3443 -0.0972 -0.3102
 2877W        W 6396   6.413   5.814   0.657  0.0427 -0.0644  0.1976
 2878W        W 6397   3.294   6.086   2.252 -0.3500  0.0621 -0.1511
 2879W        W 6398   5.383   2.463   3.644  0.2165  0.1084 -0.1062
 2880W        W 6399   2.764   5.071   8.000  0.0384  0.0736  0.0638
 2881W        W 6400   0.105   1.930   1.260  0.0268 -0.1656  0.3714
 2882W        W 6401   1.692   3.411   2.487  0.1303 -0.0780 -0.1947
 2883W        W 6402   1.006   5.760  11.015 -0.0580 -0.0621  0.1051
 2884W        W 6403   5.106   5.720  11.035  0.1082 -0.1972 -0.0873
 2885W        W 6404   3.568   6.369  11.467  0.1286 -0.0368 -0.0455
 2886W        W 6405   8.915   6.371   3.608 -0.0352 -0.0949  0.0125
 2887W        W 6406   1.903   7.844   1.786  0.1807  0.1533  0.0675
 2888W        W 6407   0.033   5.423   2.767  0.0163 -0.1045 -0.2117
 2889W        W 6408   7.342   2.440   7.839 -0.0627  0.0755 -0.0553
 2890W        W 6409   1.617   1.167   0.630  0.0386 -0.1523 -0.3810
 2891W        W 6410   5.893   6.000   3.704  0.0050  0.0402  0.0657
 2892W        W 6411   2.678   2.789   9.564 -0.0360  0.1277 -0.0281
 2893W        W 6412   5.556   8.191   0.578 -0.3255  0.2532 -0.2187
 2894W        W 6413   9.122   6.930   0.935 -0.2269  0.1647 -0.0996
 2895W        W 6414   9.478   3.509  12.348  0.0249 -0.0887  0.1477
 2896W        W 6415   0.824   4.749   4.508 -0.0113 -0.0310 -0.4299
 2897W        W 6416   9.346   5.090  10.278  0.1338 -0.0158  0.3690
 2898W        W 6417   2.467   3.480   3.403  0.0574  0.1587  0.0294
 2899W        W 6418   0.372   1.517  10.905 -0.2820  0.1962 -0.2185
 2900W        W 6419   9.257   7.475  11.252  0.3136  0.0681  0.0483
 2901W        W 6420   2.105   7.931  10.070 -0.1605  0.0286  0.1717
 2902W        W 6421   6.189   2.875   3.518 -0.1584  0.0234 -0.1102
 2903W        W 6422   0.877   2.552   3.656  0.0652 -0.0766 -0.3979
 2904W        W 6423   3.359   1.047  10.888  0.1996  0.1272  0.0065
 2905W        W 6424   8.255   7.553   1.097 -0.1174 -0.0220  0.2799
 2906W        W 6425   9.010   8.000   3.088  0.0812 -0.1504 -0.1585
 2907W        W 6426   7.376   9.358   3.427  0.1964 -0.1826  0.2616
 2908W        W 6427   7.392   4.868   7.962  0.1445  0.2454 -0.0041
 2909W        W 6428   9.672   4.613   1.657 -0.1081  0.0648  0.1272
 2910W        W 6429   2.833   1.443  11.918  0.3504  0.0815  0.2320
 2911W        W 6430   9.375   4.937   0.655  0.4182 -0.1828  0.0110
 2912W        W 6431   1.581   0.588   1.846  0.1248  0.1123  0.0330
 2913W        W 6432   8.212   2.131  10.353  0.1370  0.2522 -0.1494
 2914W        W 6433   2.801   3.667   0.337  0.2372  0.1880 -0.0678
 2915W        W 6434   7.777   6.804   1.650 -0.0662  0.1322  0.0053
 2916W        W 6435   1.807   2.649   9.069 -0.2466  0.2329 -0.1942
 2917W        W 6436   7.452   7.733   1.615 -0.2228  0.1346 -0.0497
 2918W        W 6437   0.915   3.125   0.327 -0.0315  0.1253 -0.2247
 2919W        W 6438   6.490   2.049   9.503  0.0897  0.1570  0.1676
 2920W        W 6439   4.520   9.367   9.789 -0.1801 -0.3706  0.2238
 2921W        W 6440   8.519   6.352   0.538 -0.3229 -0.2413 -0.1034
 2922W        W 6441   8.090   5.793   4.031  0.1342 -0.1139 -0.2010
 2923W        W 6442   3.913   8.536   2.331  0.4079 -0.0493  0.2158
 2924W        W 6443   6.480   4.016   4.324  0.2446  0.0140 -0.0779
 2925W        W 6444   6.432   7.461   1.907  0.0090 -0.0823 -0.1366
 2926W        W 6445   0.007   8.330   0.527  0.1427 -0.1443 -0.1124
 2927W        W 6446   3.544   9.096   3.507  0.1054 -0.1859 -0.0627
 2928W        W 6447   5.555   6.602   1.061  0.0722 -0.1733 -0.2099
 2929W        W 6448   7.784   3.605  10.863 -0.2675 -0.0458 -0.1400
 2930W        W 6449   6.082   6.013   1.147 -0.2669 -0.0575  0.0529
 2931W        W 6450   1.678   3.948   1.213  0.2330 -0.1615 -0.0702
 2932W        W 6451   2.441   4.901   2.802  0.2237 -0.3796  0.0335
 2933W        W 6452   2.404   3.147   2.230  0.1725 -0.2954 -0.0146
 2934W        W 6453   5.548   9.585  10.702  0.1467  0.1989  0.1241
 2935W        W 6454   9.432   3.526   3.278  0.1065  0.1446 -0.1773
 2936W        W 6455   3.728   2.801   0.155  0.2257 -0.5070  0.1113
 2937W        W 6456   0.448   3.279   2.445 -0.3125 -0.2273 -0.3274
 2938W        W 6457   3.471   6.615   9.530  0.2036  0.2562  0.3814
 2939W        W 6458   6.350   0.250  11.890  0.2120  0.2170  0.0061
 2940W        W 6459   0.344   8.297   2.428  0.0208 -0.1980  0.0158
 2941W        W 6460   4.470   6.051   1.002 -0.0893  0.0347 -0.1227
 2942W        W 6461   8.942   1.733   0.357  0.1282 -0.0024  0.0187
 2943W        W 6462   5.879   1.065  10.123  0.0929  0.3640 -0.0764
 2944W        W 6463   4.728   3.719   7.995 -0.2197 -0.2425 -0.1685
 2945W        W 6464   7.031   1.865  12.285 -0.3909  0.2218 -0.0333
 2946W        W 6465   5.665   7.118  10.008 -0.2314 -0.0115 -0.0081
 2947W        W 6466   4.125   9.666   1.806  0.0433 -0.3340 -0.0816
 2948W        W 6467   2.873   2.870   3.727 -0.0820  0.2082  0.0516
 2949W        W 6468   0.602   9.228  11.734  0.2992 -0.0257  0.3346
 2950W        W 6469   2.017   3.808   3.572 -0.2635 -0.0227 -0.2029
 2951W        W 6470   3.220   1.896   9.782 -0.0707  0.3576  0.2165
 2952W        W 6471   2.153   2.447   0.276 -0.1711 -0.2966  0.2198
 2953W        W 6472   8.077   5.710   3.551 -0.0533 -0.1294  0.2897
 2954W        W 6473   8.404   3.368   1.420 -0.1918  0.0148  0.5205
 2955W        W 6474   0.219   2.855  11.793  0.3473 -0.1320 -0.0458
 2956W        W 6475   1.440   0.773   2.826 -0.0387 -0.0535 -0.0026
 2957W        W 6476   7.009   4.482   2.496  0.2409 -0.1192 -0.0950
 2958W        W 6477   6.405   5.156   3.540  0.4032 -0.1343 -0.0067
 2959W        W 6478   9.367   8.107   3.520  0.1070  0.0482 -0.0042
 2960W        W 6479   4.570   3.520   3.827 -0.3957 -0.0169 -0.0516
 2961W        W 6480   9.387   2.852  10.631  0.1739  0.2170 -0.2177
 2962W        W 6481   0.802   4.785  10.438 -0.3994  0.0629  0.3309
 2963W        W 6482   9.083   7.139   2.671  0.0460  0.2816 -0.1133
 2964W        W 6483   5.943   3.028   0.019 -0.0145  0.1776 -0.0679
 2965W        W 6484   8.499   3.158   4.262  0.0344  0.1141  0.0980
 2966W        W 6485   1.643   1.979  10.059  0.0897  0.0815 -0.2246
 2967W        W 6486   2.735   4.582   0.658  0.1889  0.2423  0.0334
 2968W        W 6487   5.292   0.630   3.735  0.0486 -0.0645  0.0859
 2969W        W 6488   9.348   0.811   0.150  0.2323 -0.0001  0.1432
 2970W        W 6489   5.336   1.692   2.946 -0.2185 -0.3420  0.1901
 2971W        W 6490   6.144   1.406   3.602 -0.2225  0.3422  0.1487
 2972W        W 6491   6.820   4.165   0.168 -0.0397 -0.0046  0.0412
 2973W        W 6492   6.421   6.403  11.443 -0.1921  0.0954  0.1598
 2974W        W 6493   7.822   6.561  10.572  0.1492 -0.0355 -0.2211
 2975W        W 6494   0.588   1.260   8.764  0.0422  0.0590  0.0199
 2976W        W 6495   6.011   8.666   3.047  0.0838 -0.2155  0.1135
 2977W        W 6496   3.924   1.627   8.113 -0.0776 -0.1278  0.1717
 2978W        W 6497   9.605   1.386   1.861 -0.0104 -0.1406  0.1680
 2979W        W 6498   9.019   5.291   7.720 -0.1541 -0.3439  0.0669
 2980W        W 6499   8.294   5.055   1.346  0.1183 -0.2053 -0.0316
 2981W        W 6500   6.543   8.838   1.776 -0.2219  0.1378  0.2064
 2982W        W 6501   7.923   5.779  12.389 -0.0874 -0.4131  0.1074
 2983W        W 6502   7.234   7.925   2.923  0.0559 -0.1000  0.0514
 2984W        W 6503   7.249   0.506  10.478  0.1443 -0.3260 -0.0638
 2985W        W 6504   6.722   1.703   9.250  0.0768 -0.0989 -0.0081
 2986W        W 6505   2.797   2.542   2.845 -0.0721 -0.1844  0.0585
 2987W        W 6506   9.409   6.323   2.550  0.0926 -0.5266  0.0944
 2988W        W 6507   4.106   2.432   1.037 -0.1592 -0.4385 -0.0031
 2989W        W 6508   7.268   0.078   2.093  0.1495 -0.0994  0.2209
 2990W        W 6509   4.664   0.397   1.252  0.2564 -0.2310  0.0228
 2991W        W 6510   0.915   4.823   0.278  0.1236 -0.3106  0.0368
 2992W        W 6511   3.101   1.498   0.192 -0.0366  0.2200 -0.1529
 2993W        W 6512   5.408   6.975   0.618  0.0496  0.1979 -0.3680
 2994W        W 6513   5.023   2.998   9.067  0.2601 -0.1113 -0.0566
 2995W        W 6514   3.279   6.915   2.419 -0.1035 -0.0541 -0.0401
 2996W        W 6515   6.388   0.630  10.533 -0.1031  0.1916 -0.2989
 2997W        W 6516   3.350   7.598  11.692 -0.0527 -0.1610  0.0005
 2998W        W 6517   3.038   2.674   8.149  0.0259  0.1981 -0.0466
 2999W        W 6518   1.497   5.469  11.988  0.3629  0.1274 -0.0104
 3000W        W 6519   8.590   1.404   1.831  0.1864 -0.0417 -0.1548
 3001W        W 6520   8.275   0.865  12.090 -0.2179 -0.0336  0.3365
 3002W        W 6521   4.100   3.913   0.356 -0.3165  0.1081 -0.0456
 3003W        W 6522   9.287   0.139   9.303  0.1772  0.1216  0.2212
 3004W        W 6523   7.202   1.560   0.799  0.1617  0.1004  0.1185
 3005W        W 6524   4.762   3.656  12.442 -0.0047  0.0139 -0.4124
 3006W        W 6525   4.600   4.414  11.654 -0.0721  0.2146 -0.2885
 3007W        W 6526   2.940   0.076   1.913 -0.3837 -0.0463  0.0575
 3008W        W 6527   4.180   6.295  11.218 -0.0171 -0.2342 -0.2400
 3009W        W 6528   7.047   2.463   2.569 -0.2243 -0.0178 -0.2708
 3010W        W 6529   1.002   7.112   2.405 -0.0023  0.1169  0.2304
 3011W        W 6530   7.426   1.115   2.102 -0.3825  0.1178 -0.1254
 3012W        W 6531   0.649   8.590  10.461  0.0180  0.1907  0.1513
 3013W        W 6532   4.033   1.842   1.061  0.1867  0.1414 -0.0272
 3014W        W 6533   2.271   0.607  11.245 -0.0525 -0.0187  0.0967
 3015W        W 6534   6.695   3.098   1.389  0.3076  0.2314 -0.2255
 3016W        W 6535   8.822   6.834   3.691  0.3684  0.0313  0.1513
 3017W        W 6536   3.524   9.671   9.012 -0.2086 -0.1273  0.0944
 3018W        W 6537   7.664   9.446  11.379  0.2094 -0.0467 -0.0893
 3019W        W 6538   0.527   3.004   3.670  0.0035 -0.3404 -0.1299
 3020W        W 6539   1.735   4.426   8.701  0.3140  0.0979 -0.0505
 3021W        W 6540   7.660   3.040   8.136 -0.0181  0.1195  0.0355
 3022W        W 6541   5.083   4.001  10.269  0.6583 -0.1106  0.3745
 3023W        W 6542   3.476   3.115   2.210 -0.0362  0.1321  0.0600
 3024W        W 6543   6.291   7.086  11.824 -0.3672 -0.2942  0.0282
 3025W        W 6544   0.866   0.309   9.282 -0.3489 -0.0173  0.0327
 3026W        W 6545   4.329   6.409  12.105  0.1171 -0.2511  0.3770
 3027W        W 6546   4.464   8.793  12.222  0.1163  0.4709  0.0017
 3028W        W 6547   6.319   9.671   8.724 -0.0798 -0.1013 -0.2338
 3029W        W 6548   5.921   8.118   2.978 -0.0666  0.1397  0.0027
 3030W        W 6549   0.548   4.260   1.771 -0.0514  0.1435 -0.0747
 3031W        W 6550   5.251   6.167  10.209  0.1057  0.1129  0.0015
 3032W        W 6551   4.473   3.212   2.250  0.2026  0.4228 -0.2458
 3033W        W 6552   4.349   5.399   2.898  0.0619 -0.0014  0.0488
 3034W        W 6553   9.698   0.022   9.050  0.0098  0.1354 -0.0128
 3035W        W 6554   6.886   8.406   2.459 -0.1061  0.0423  0.1516
 3036W        W 6555   1.479   2.137  11.054  0.1621 -0.3312 -0.0243
 3037W        W 6556   4.295   8.086  11.157 -0.3522 -0.2012 -0.0951
 3038W        W 6557   4.220   3.594   2.056  0.1418 -0.0593  0.1135
 3039W        W 6558   6.423   8.349  10.970  0.0777 -0.2124 -0.0404
 3040W        W 6559   2.858   3.361  10.305  0.1267 -0.1167  0.0974
 3041W        W 6560   7.223   0.634   2.336  0.0189 -0.1587 -0.0740
 3042W        W 6561   2.888   2.050   8.887  0.0572  0.0709 -0.1387
 3043W        W 6562   1.407   3.389   1.287  0.0264 -0.0469  0.2058
 3044W        W 6563   7.402   6.972   2.712 -0.2683 -0.0761 -0.2422
 3045W        W 6564   0.061   8.423   3.336 -0.2638 -0.3284 -0.0081
 3046W        W 6565   6.117   5.622   3.958  0.0443 -0.0585  0.2063
 3047W        W 6566   2.687   9.702  10.277 -0.3962 -0.1835  0.1770
 3048W        W 6567   2.617   7.795   1.244  0.0994 -0.1884  0.0847
 3049W        W 6568   8.623   2.292   2.888  0.0203  0.0312 -0.0304
 3050W        W 6569   3.125   6.643  12.283 -0.4215  0.3058 -0.0870
 3051W        W 6570   0.265   9.563   9.972  0.0504 -0.1989  0.2339
 3052W        W 6571   0.668   8.247  11.816 -0.0085 -0.3596 -0.1187
 3053W        W 6572   6.442   2.205   1.346  0.1819 -0.1266  0.0796
 3054W        W 6573   2.788   2.026   3.565 -0.1991 -0.0608 -0.1794
 3055W        W 6574   1.143   2.348   0.267 -0.1212  0.0028  0.1484
 3056W        W 6575   8.949   7.095  10.838  0.1497  0.1295  0.0730
 3057W        W 6576   0.764   4.386  12.327  0.1266  0.0589  0.1955
 3058W        W 6577   1.233   8.864  12.501  0.0401 -0.0986  0.3242
 3059W        W 6578   8.337   2.548  11.559  0.0798  0.2201  0.0209
 3060W        W 6579   2.638   1.381  11.117 -0.1148 -0.0991 -0.0926
 3061W        W 6580   2.735   2.959   3.163  0.0685 -0.0723  0.0164
 3062W        W 6581   6.177   3.123   2.727 -0.1131  0.1436 -0.1852
 3063W        W 6582   3.816   5.858  10.999 -0.0753  0.2288 -0.0021
 3064W        W 6583   1.631   3.811   3.263 -0.2108  0.1592 -0.2015
 3065W        W 6584   7.128   7.239   2.348  0.0241  0.6435  0.0210
 3066W        W 6585   8.524   4.740   0.188  0.1721  0.1969 -0.0320
 3067W        W 6586   0.918   3.831   9.592  0.0986 -0.0026  0.1086
 3068W        W 6587   9.083   4.526   2.409  0.1293 -0.2026  0.3219
 3069W        W 6588   9.412   3.562   0.312 -0.2629 -0.1917  0.1251
 3070W        W 6589   2.159   0.021   0.006 -0.0601 -0.2936 -0.4412
 3071W        W 6590   3.558   5.241   1.018 -0.4008 -0.0706  0.1775
 3072W        W 6591   8.790   9.299   3.826  0.0418 -0.3934 -0.0860
 3073W        W 6592   9.076   2.495  11.899 -0.0705  0.2088  0.1979
 3074W        W 6593   8.942   8.108   8.611 -0.0724  0.0256 -0.3282
 3075W        W 6594   7.417   8.939  11.388  0.0545 -0.2441 -0.3947
 3076W        W 6595   2.492   4.213   9.621 -0.2592  0.1396 -0.1603
 3077W        W 6596   1.994   7.364   1.798 -0.2576  0.2419  0.2709
 3078W        W 6597   5.361   1.842   8.649 -0.1002 -0.0561  0.0677
 3079W        W 6598   6.329   6.516   8.976 -0.1582 -0.0302  0.0965
 3080W        W 6599   0.571   6.267   1.232  0.0482 -0.0274  0.0229
 3081W        W 6600   4.829   7.729   8.973  0.0212 -0.1524 -0.3269
 3082W        W 6601   4.315   5.987   4.234  0.2610 -0.1635 -0.1272
 3083W        W 6602   8.511   4.623  11.895 -0.0037  0.2477  0.1436
 3084W        W 6603   2.231   6.954   0.446 -0.1674  0.1022 -0.4149
 3085W        W 6604   0.442   8.455   0.826  0.0703  0.0656  0.2058
 3086W        W 6605   0.054   1.537   0.502 -0.1792 -0.0317  0.1001
 3087W        W 6606   2.364   9.297   2.350 -0.2754 -0.0545  0.0900
 3088W        W 6607   2.950   7.518   2.500 -0.2288 -0.1597 -0.1685
 3089W        W 6608   7.823   2.239   7.588  0.0148  0.0928  0.2369
 3090W        W 6609   8.495   0.735   9.371  0.1256 -0.0963  0.0328
 3091W        W 6610   9.418   2.437   0.177  0.0526 -0.3511  0.1273
 3092W        W 6611   5.992   8.303   8.981  0.1753  0.3877  0.0791
 3093W        W 6612   2.215   6.725   9.539  0.0730  0.3332  0.0139
 3094W        W 6613   0.763   5.137   1.630 -0.1267  0.0166 -0.0020
 3095W        W 6614   5.890   6.281   1.732  0.1850 -0.0099 -0.0451
 3096W        W 6615   9.440   0.356   2.975  0.1739  0.3286 -0.1710
 3097W        W 6616   1.299   6.646   9.058  0.0409 -0.1286 -0.0057
 3098W        W 6617   1.316   1.744   2.196 -0.2877 -0.3927  0.3117
 3099W        W 6618   7.693   0.612  10.306 -0.2307  0.2419  0.1209
 3100W        W 6619   5.858   4.020  10.665 -0.1711 -0.0936 -0.0592
 3101W        W 6620   0.578   7.329  11.330 -0.1678 -0.1901  0.0148
 3102W        W 6621   2.719   0.500  10.106  0.2121 -0.1680  0.0248
 3103W        W 6622   0.856   3.415   1.095 -0.0964  0.1382 -0.2090
 3104W        W 6623   8.100   5.803   2.011  0.1862 -0.2340  0.2106
 3105W        W 6624   3.306   2.186   8.632  0.2060  0.1152  0.1474
 3106W        W 6625   3.593   0.350   2.522  0.1631  0.0685  0.1140
 3107W        W 6626   8.076   2.703  11.098  0.1421 -0.0741 -0.1594
 3108W        W 6627   1.219   3.841  10.542  0.0364  0.0572  0.0998
 3109W        W 6628   9.196   6.909   1.797  0.0163  0.1152  0.1075
 3110W        W 6629   6.408   7.862   9.201  0.0226 -0.0342  0.2561
 3111W        W 6630   5.416   8.645  12.441 -0.0405 -0.0161  0.1430
 3112W        W 6631   6.748   0.762   0.499 -0.2027 -0.0645  0.2632
 3113W        W 6632   2.820   7.805   0.715 -0.1194  0.1895 -0.1622
 3114W        W 6633   8.496   7.438   8.901  0.0406 -0.0664 -0.1666
 3115W        W 6634   6.475   6.440   0.949  0.0875 -0.0179  0.0804
 3116W        W 6635   2.340   2.916   1.243  0.0790  0.1665  0.1978
 3117W        W 6636   3.017   7.690   1.658  0.0612  0.0068  0.1046
 3118W        W 6637   4.536   3.825  12.009 -0.0409 -0.0918 -0.2584
 3119W        W 6638   9.208   8.335   4.307 -0.2529 -0.3605 -0.3100
 3120W        W 6639   2.355   8.384   9.891 -0.0431  0.0748  0.1864
 3121W        W 6640   9.257   2.103   8.790 -0.0658  0.1357 -0.2880
 3122W        W 6641   0.320   9.415  10.977 -0.3160 -0.1689 -0.2987
 3123W        W 6642   9.105   2.005   2.483  0.1639  0.0915 -0.1472
 3124W        W 6643   4.447   3.930  11.486 -0.1292  0.0330 -0.2474
 3125W        W 6644   5.461   4.635   0.551  0.2111 -0.0357 -0.1392
 3126W        W 6645   2.626   3.442   1.800  0.1246 -0.0851 -0.2970
 3127W        W 6646   2.584   2.652  12.028  0.1932  0.1071 -0.0070
 3128W        W 6647   0.923   6.655  11.942  0.1198  0.1550 -0.3245
 3129W        W 6648   5.075   4.957  10.075 -0.1264  0.1842 -0.5411
 3130W        W 6649   7.796   3.879   9.268 -0.4033 -0.2923  0.1296
 3131W        W 6650   3.072   4.863  11.901  0.1660 -0.2476  0.1046
 3132W        W 6651   9.330   4.177   5.028 -0.0625  0.2667  0.1160
 3133W        W 6652   2.528   8.939  11.015 -0.3164  0.0381 -0.1341
 3134W        W 6653   3.202   4.776   4.699 -0.2908 -0.3991  0.2512
 3135W        W 6654   7.609   3.547   2.001  0.0837 -0.0933 -0.1505
 3136W        W 6655   0.192   0.547   7.574  0.0160 -0.1040  0.0578
 3137W        W 6656   9.345   3.612  11.814  0.1522  0.1424  0.0142
 3138W        W 6657   4.004   4.086   0.830 -0.0432 -0.0995 -0.2225
 3139W        W 6658   6.746   9.704   3.850 -0.0072  0.0710  0.2046
 3140W        W 6659   9.274   3.684   0.912 -0.2729  0.2036  0.1363
 3141W        W 6660   7.761   2.435  12.335  0.0084 -0.2078  0.0372
 3142W        W 6661   4.775   3.877   1.398  0.0326 -0.0375 -0.0074
 3143W        W 6662   6.522   9.205  10.702 -0.0812 -0.0004  0.0835
 3144W        W 6663   0.460   9.682  11.874  0.1916  0.0980 -0.2362
 3145W        W 6664   7.112   7.833  10.743  0.0575  0.0669  0.4256
 3146W        W 6665   2.407   1.784   0.683 -0.0389  0.0091  0.0451
 3147W        W 6666   9.503   3.358   1.196 -0.0981  0.0913  0.0419
 3148W        W 6667   9.074   1.345  10.910 -0.0418  0.0140  0.4124
 3149W        W 6668   0.203   0.639   0.050 -0.0289 -0.1523 -0.0669
 3150W        W 6669   2.396   5.439  10.173  0.1322 -0.1153 -0.1470
 3151W        W 6670   8.029   1.238  11.247  0.0117  0.0000 -0.1428
 3152W        W 6671   3.083   5.991  10.336  0.1115 -0.2260 -0.1095
 3153W        W 6672   9.538   6.303   9.928  0.2040  0.0887 -0.1245
 3154W        W 6673   5.053   8.929   2.597 -0.1682  0.0516 -0.1446
 3155W        W 6674   8.942   5.916  11.869  0.0593  0.0851 -0.0884
 3156W        W 6675   7.843   9.200   9.442 -0.1979  0.2688 -0.0329
 3157W        W 6676   6.801   0.790   8.837 -0.0008  0.2985  0.1756
 3158W        W 6677   0.883   1.593   8.418  0.2309  0.0644  0.1981
 3159W        W 6678   5.092   4.804   1.380  0.0506  0.1197  0.1453
 3160W        W 6679   2.161   4.909   9.397  0.0653  0.0159  0.3584
 3161W        W 6680   8.855   7.871  11.399 -0.0704  0.0007  0.0331
 3162W        W 6681   8.537   1.066   0.543 -0.1090 -0.3309 -0.0920
 3163W        W 6682   3.378   0.722   1.401  0.0463 -0.0279 -0.1794
 3164W        W 6683   2.970   5.643  11.340  0.0782  0.1577  0.3238
 3165W        W 6684   1.145   4.698  12.426 -0.1590 -0.3482  0.1696
 3166W        W 6685   2.733   0.013   0.193 -0.3266  0.2121 -0.6055
 3167W        W 6686   3.058   9.678  12.233  0.0273 -0.1496 -0.0777
 3168W        W 6687   1.379   4.822   3.264 -0.2746  0.2931  0.0877
 3169W        W 6688   3.635   3.662   9.279  0.0445 -0.1474 -0.1647
 3170W        W 6689   5.366   2.017   0.563  0.1226  0.0734  0.2646
 3171W        W 6690   5.249   8.379   1.677 -0.0744 -0.1216 -0.4543
 3172W        W 6691   8.732   7.386  11.164 -0.0855 -0.2672 -0.2531
 3173W        W 6692   0.365   6.903  11.052  0.0604  0.0738  0.2060
 3174W        W 6693   9.597   1.903   1.683 -0.2360  0.2561  0.4904
 3175W        W 6694   6.452   3.585  11.996  0.1015 -0.3805 -0.1880
 3176W        W 6695   1.494   6.444   0.442 -0.2719 -0.0004  0.0298
 3177W        W 6696   7.350   6.578   1.598 -0.3050 -0.3022  0.0460
 3178W        W 6697   5.014   3.992   2.376 -0.2649  0.1066  0.0301
 3179W        W 6698   9.529   3.100   8.177  0.1103  0.1869 -0.2682
 3180W        W 6699   4.096   1.217   9.045  0.0623 -0.0538  0.1549
 3181W        W 6700   9.693   1.580   2.778 -0.1633 -0.0976  0.0780
 3182W        W 6701   5.790   9.141   0.814  0.0264 -0.0843  0.0982
 3183W        W 6702   0.618   1.821  11.977  0.1322 -0.0413  0.0988
 3184W        W 6703   7.471   4.011   4.164 -0.0844 -0.1070 -0.0442
 3185W        W 6704   9.669   7.435   1.371  0.0627 -0.2101  0.1800
 3186W        W 6705   2.870   3.082  10.753 -0.0872 -0.4256 -0.0806
 3187W        W 6706   8.606   2.254  10.693 -0.3577  0.2884 -0.2117
 3188W        W 6707   4.655   5.426   2.376  0.1784  0.0415  0.0538
 3189W        W 6708   2.857   7.242   1.549 -0.0740  0.3812  0.2321
 3190W        W 6709   7.339   9.636  10.981 -0.2180 -0.0369  0.0599
 3191W        W 6710   0.713   3.472   3.837 -0.0294  0.0566  0.1486
 3192W        W 6711   3.946   2.725   0.616 -0.2083 -0.1856  0.2472
 3193W        W 6712   5.060   2.441   0.319  0.4350  0.1954  0.0077
 3194W        W 6713   7.832   1.093   0.933  0.0691  0.1991 -0.0454
 3195W        W 6714   8.359   5.013   0.848  0.1725 -0.1586 -0.0500
 3196W        W 6715   8.787   8.707  10.731  0.0605 -0.0420  0.1988
 3197W        W 6716   7.458   2.661   2.295 -0.0677  0.1313  0.2699
 3198W        W 6717   8.982   9.351  11.349  0.0819  0.0728  0.2085
 3199W        W 6718   2.370   1.129   0.259 -0.2665  0.2030 -0.1516
 3200W        W 6719   6.265   0.592   1.311  0.0675 -0.0035  0.4721
 3201W        W 6720   3.962   2.689   9.149 -0.3549 -0.2208  0.0362
 3202W        W 6721   6.459   8.857   9.808  0.0247 -0.2287 -0.0639
 3203W        W 6722   7.113   1.612   1.863  0.2056  0.0895 -0.0125
 3204W        W 6723   8.631   5.286   0.277  0.3332  0.2628 -0.0095
 3205W        W 6724   6.931   3.072   3.128 -0.2361 -0.1944  0.3254
 3206W        W 6725   2.361   1.809   8.958 -0.2629 -0.2290 -0.1108
 3207W        W 6726   1.709   3.366   3.914 -0.3715  0.2700  0.0561
 3208W        W 6727   0.636   0.105   9.734 -0.2089  0.0212  0.1505
 3209W        W 6728   8.081   7.100   0.294 -0.2568 -0.0429  0.1334
 3210W        W 6729   5.258   4.290   9.834  0.1047  0.0728 -0.2922
 3211W        W 6730   8.674   6.914   0.714 -0.0620  0.0584  0.4835
 3212W        W 6731   9.105   0.748   1.247 -0.0280 -0.2497 -0.2509
 3213W        W 6732   8.682   8.715   0.344  0.1893  0.2612 -0.0358
 3214W        W 6733   2.516   4.240   1.641 -0.0872 -0.0813 -0.1531
 3215W        W 6734   1.306   9.143  11.091 -0.0777  0.1040  0.1029
 3216W        W 6735   2.464   2.839   0.272  0.0788  0.1728  0.0511
 3217W        W 6736   9.141   2.086   9.969  0.2571 -0.4472  0.1126
 3218W        W 6737   7.809   3.012   3.547  0.4849  0.0895  0.0376
 3219W        W 6738   4.080   9.152   9.628  0.2995  0.0112  0.0257
 3220W        W 6739   6.539   5.976  10.479  0.0370 -0.0360 -0.0186
 3221W        W 6740   1.740   4.115   2.146  0.1236  0.5019 -0.0485
 3222W        W 6741   5.934   4.653  11.382  0.2905 -0.1612 -0.3100
 3223W        W 6742   8.921   2.386   9.014  0.0991  0.4085  0.0560
 3224W        W 6743   9.244   4.736   1.091  0.2154 -0.0723 -0.2212
 3225W        W 6744   8.326   9.447   9.469  0.3352  0.3114 -0.1820
 3226W        W 6745   4.538   5.908   8.582 -0.2185 -0.1588  0.3241
 3227W        W 6746   0.509   1.205   9.792 -0.0136  0.0007 -0.0323
 3228W        W 6747   6.474   9.625   0.609  0.1414 -0.0790 -0.2736
 3229W        W 6748   8.239   0.732   0.801 -0.0615 -0.0333 -0.0729
 3230W        W 6749   2.686   3.553   2.935  0.0171  0.0471 -0.0388
 3231W        W 6750   1.171   1.861  10.733 -0.4130  0.0967 -0.3165
 3232W        W 6751   9.270   9.275  10.052  0.1391  0.1721  0.0852
 3233W        W 6752   1.005   2.305  10.734  0.1077 -0.0633 -0.2228
 3234W        W 6753   2.941   5.768  11.807 -0.0877  0.0518 -0.1149
 3235W        W 6754   4.606   4.066   4.527 -0.2684  0.2351  0.0384
 3236W        W 6755   2.173   3.700   3.107  0.0597 -0.0581  0.1384
 3237W        W 6756   8.780   2.675   0.869 -0.0465  0.0507 -0.1001
 3238W        W 6757   5.574   3.641   9.229  0.0948 -0.0373  0.1575
 3239W        W 6758   2.024   1.723  11.847 -0.0080  0.0495  0.1549
 3240W        W 6759   7.175   5.367   1.600  0.4476 -0.1093  0.1889
 3241W        W 6760   5.702   9.245  10.997 -0.1239  0.3430 -0.2198
 3242W        W 6761   6.492   2.722   2.063  0.0364  0.0380 -0.3750
 3243W        W 6762   0.533   5.629  10.765  0.2215 -0.0893  0.0094
 3244W        W 6763   9.012   4.390   9.241 -0.1627  0.2446 -0.1546
 3245W        W 6764   3.512   0.846   9.810 -0.1214 -0.3382  0.0931
 3246W        W 6765   6.637   5.210   1.520  0.0043  0.0497  0.0618
 3247W        W 6766   5.789   7.588   1.198 -0.0755 -0.0726  0.0743
 3248W        W 6767   6.570   5.844  12.125  0.3977  0.3370 -0.0897
 3249W        W 6768   1.040   5.841   9.243  0.1865  0.1522 -0.2331
 3250W        W 6769   3.574   2.376   0.396  0.0941 -0.0603  0.0412
 3251W        W 6770   6.791   9.208   1.557 -0.0151 -0.0961 -0.0376
 3252W        W 6771   2.209   1.326   2.288  0.0084  0.0022  0.0039
 3253W        W 6772   6.366   3.683   0.737  0.0796  0.2489  0.3474
 3254W        W 6773   4.810   0.202   2.386  0.1448 -0.0952 -0.0518
 3255W        W 6774   8.244   9.056   2.719  0.1507 -0.1057 -0.0704
 3256W        W 6775   6.643   0.606   1.600  0.2292  0.0965 -0.0947
 3257W        W 6776   1.225   1.331  11.268 -0.0679  0.4695 -0.0971
 3258W        W 6777   4.877   2.662   7.795 -0.2283 -0.0979  0.0221
 3259W        W 6778   3.189   1.550   9.221 -0.1428 -0.3132  0.3976
 3260W        W 6779   4.892   3.393  11.792 -0.1120  0.0958 -0.0330
 3261W        W 6780   0.331   1.684   9.927  0.1763 -0.2030 -0.0811
 3262W        W 6781   3.902   3.110   1.886  0.0625 -0.1334 -0.0652
 3263W        W 6782   5.315   9.605  11.137  0.3259 -0.0394  0.1673
 3264W        W 6783   7.942   3.134  10.966  0.0287 -0.0084 -0.1489
 3265W        W 6784   9.680   4.318   2.585  0.4113  0.1679 -0.0310
 3266W        W 6785   6.323   5.225   9.924 -0.0528  0.1310 -0.0291
 3267W        W 6786   7.228   0.129  12.499  0.2670 -0.3953  0.0223
 3268W        W 6787   9.546   8.640   2.847  0.0520  0.0849 -0.1134
 3269W        W 6788   0.104   5.433  10.478 -0.1984  0.0898  0.4144
 3270W        W 6789   7.255   7.652  12.049  0.2558  0.1433  0.2845
 3271W        W 6790   9.657   2.505  11.997  0.1454 -0.0518 -0.3579
 3272W        W 6791   4.556   1.728  10.780 -0.1306  0.0395 -0.0412
 3273W        W 6792   3.255   0.737  11.570 -0.2322  0.2266  0.0187
 3274W        W 6793   6.227   6.528   9.968  0.1561  0.4234 -0.1223
 3275W        W 6794   6.951   9.090   3.271  0.0606 -0.0303 -0.3006
 3276W        W 6795   6.150   0.769   0.305  0.1000  0.0881  0.3357
 3277W        W 6796   8.305   0.109   9.136 -0.0252 -0.2777  0.2739
 3278W        W 6797   3.172   7.339   2.092 -0.2842  0.0221  0.0964
 3279W        W 6798   7.154   3.092   3.606 -0.0735 -0.1258 -0.1861
 3280W        W 6799   2.441   0.780   1.868  0.1998 -0.1774 -0.1274
 3281W        W 6800   3.403   8.404   0.289 -0.2781 -0.0796  0.0311
 3282W        W 6801   0.794   6.661  10.228  0.0664 -0.3497  0.0281
 3283W        W 6802   2.853   2.586  10.648  0.1952  0.1557  0.2060
 3284W        W 6803   8.821   0.035   9.168  0.0249  0.2448 -0.2733
 3285W        W 6804   5.912   2.557   1.144  0.1189 -0.0852 -0.0386
 3286W        W 6805   0.325   5.254   2.400 -0.0026  0.0604 -0.0367
 3287W        W 6806   0.416   9.445   1.281 -0.1705  0.0598  0.0266
 3288W        W 6807   6.025   7.289  11.480  0.2499 -0.2831  0.0731
 3289W        W 6808   4.698   2.035   8.629 -0.0054 -0.1889 -0.0849
 3290W        W 6809   0.906   6.922  12.321  0.1025 -0.4346 -0.1205
 3291W        W 6810   2.707   5.034   0.903  0.1562  0.1343 -0.1099
 3292W        W 6811   2.676   3.336   0.023  0.2892  0.3658  0.0964
 3293W        W 6812   7.818   0.864   8.915 -0.3317  0.1557  0.0129
 3294W        W 6813   0.626   2.106  11.534 -0.0066  0.1011  0.3116
 3295W        W 6814   6.843   9.214  11.961 -0.0287 -0.3652 -0.1025
 3296W        W 6815   1.594   5.168   9.270  0.0793  0.0777 -0.1433
 3297W        W 6816   5.923   1.796   2.839 -0.0079 -0.0074 -0.0133
 3298W        W 6817   9.179   5.368   8.226  0.1045  0.2621 -0.1380
 3299W        W 6818   2.479   9.265   0.225 -0.0066  0.2394  0.0945
 3300W        W 6819   5.033   3.435   0.284  0.0429  0.0449  0.3429
 3301W        W 6820   2.980   8.523   1.470 -0.0319 -0.5379 -0.1576
 3302W        W 6821   1.076   5.778   2.701 -0.3176  0.1172  0.0028
 3303W        W 6822   6.702   8.204  11.822 -0.1141  0.0461  0.2012
 3304W        W 6823   6.883   5.485   9.587  0.1213  0.1347 -0.0399
 3305W        W 6824   4.820   5.555   2.957 -0.1538 -0.4391 -0.2842
 3306W        W 6825   7.332   4.124   1.913  0.1141 -0.3833 -0.0905
 3307W        W 6826   7.718   2.365   3.355  0.3547  0.0220  0.1682
 3308W        W 6827   6.481   7.897   1.651 -0.0762 -0.0766 -0.3022
 3309W        W 6828   7.229   4.646   2.048 -0.1586  0.0729  0.1594
 3310W        W 6829   4.262   5.509   8.690 -0.1493  0.2512  0.0643
 3311W        W 6830   3.499   0.625   9.333  0.0601  0.2418 -0.0105
 3312W        W 6831   9.500   7.992   2.937 -0.1588  0.0196 -0.0416
 3313W        W 6832   8.328   1.085   0.040  0.1072 -0.0973 -0.2192
 3314W        W 6833   9.324   3.109   7.721  0.2594 -0.0570 -0.0465
 3315W        W 6834   9.312   6.508   3.137 -0.0601  0.0634  0.0353
 3316W        W 6835   8.682   9.178  10.945  0.0113 -0.0496 -0.2444
 3317W        W 6836   5.318   1.959   3.421  0.0105  0.0959  0.0373
 3318W        W 6837   1.502   1.016   8.607  0.2518  0.0877  0.0121
 3319W        W 6838   8.589   8.332  12.238  0.3548 -0.0171 -0.0907
 3320W        W 6839   4.911   7.656   8.124 -0.2953 -0.2345 -0.1056
 3321W        W 6840   0.191   1.307   3.721  0.3177  0.2136  0.1214
 3322W        W 6841   9.251   0.830   4.041  0.1498  0.0973 -0.1851
 3323W        W 6842   4.725   5.418  10.216  0.1914 -0.0209  0.4677
 3324W        W 6843   1.611   1.601   4.011 -0.1238 -0.0091 -0.0812
 3325W        W 6844   5.573   8.349   3.242  0.1407 -0.0586  0.1353
 3326W        W 6845   6.377   4.943   0.077  0.1679 -0.1311 -0.2071
 3327W        W 6846   5.774   7.382  12.531 -0.3226 -0.0407 -0.0643
 3328W        W 6847   6.250   6.398   2.091 -0.0605  0.4287  0.0702
 3329W        W 6848   3.046   8.148  10.408 -0.0950 -0.0530 -0.1464
 3330W        W 6849   9.024   2.993   2.442  0.2462 -0.3713 -0.2659
 3331W        W 6850   2.561   0.806   2.907  0.2183 -0.1958 -0.0189
 3332W        W 6851   7.002   0.571   9.276 -0.1725  0.0052 -0.3157
 3333W        W 6852   7.126   0.406   8.809 -0.0763  0.1609 -0.1349
 3334W        W 6853   3.304   2.047   2.287  0.3610 -0.1750 -0.0024
 3335W        W 6854   0.006   1.134   0.002 -0.2679 -0.1206 -0.0920
 3336W        W 6855   3.657   6.023   2.715  0.0090  0.1435 -0.2246
 3337W        W 6856   1.189   4.242  11.547  0.2662 -0.1636  0.2614
 3338W        W 6857   6.821   0.164   9.603 -0.0771  0.1728  0.1860
 3339W        W 6858   0.436   6.990   9.528 -0.3115  0.0926  0.2253
 3340W        W 6859   2.249   7.965  10.546 -0.0616  0.3994 -0.2160
 3341W        W 6860   3.510   4.498   1.634  0.2979  0.3497 -0.0461
 3342W        W 6861   4.135   2.647   3.398  0.0992 -0.2007  0.0413
 3343W        W 6862   7.514   9.132   9.045 -0.2820 -0.0587  0.0658
 3344W        W 6863   5.635   8.557   2.103 -0.4992  0.5915 -0.1952
 3345W        W 6864   0.788   7.684  10.034  0.1554  0.0578  0.1635
 3346W        W 6865   5.964   7.728   8.740 -0.2731 -0.0293  0.1132
 3347W        W 6866   7.099   5.583   3.374  0.1309  0.0403 -0.1189
 3348W        W 6867   0.103   4.314   0.249  0.2896  0.1606  0.0240
 3349W        W 6868   4.585   1.355   9.225 -0.0759  0.0547 -0.2553
 3350W        W 6869   5.594   6.931   0.078  0.3495 -0.0441 -0.1517
 3351W        W 6870   8.320   4.221   0.206  0.1129  0.1329 -0.1842
 3352W        W 6871   4.165   8.714   2.794 -0.0194  0.0309 -0.0195
 3353W        W 6872   8.557   2.669   9.211 -0.1123 -0.0760 -0.0520
 3354W        W 6873   0.570   3.209   1.529  0.0757  0.2694 -0.1213
 3355W        W 6874   4.822   6.575  11.156 -0.1392  0.1385  0.0670
 3356W        W 6875   5.359   5.228   1.092  0.2040 -0.0624 -0.1424
 3357W        W 6876   3.676   5.034  10.443 -0.1860 -0.0830 -0.2893
 3358W        W 6877   5.269   9.261  10.505 -0.0237 -0.3156 -0.2430
 3359W        W 6878   6.221   4.945   7.972  0.1381 -0.2986 -0.1290
 3360W        W 6879   1.841   7.669  10.462  0.3535  0.1280 -0.1688
 3361W        W 6880   4.986   6.170  10.741  0.0221  0.1244  0.1912
 3362W        W 6881   4.473   7.459   9.443 -0.2333  0.7435 -0.1741
 3363W        W 6882   2.944   9.133   0.040  0.0380  0.2092 -0.2327
 3364W        W 6883   3.694   8.918   1.100  0.3915  0.2175 -0.2103
 3365W        W 6884   1.909   7.315  10.146 -0.0869  0.0955 -0.0140
 3366W        W 6885   0.558   7.068   9.057  0.6257  0.0235 -0.0245
 3367W        W 6886   6.845   3.767   3.088 -0.3477 -0.1271  0.0420
 3368W        W 6887   4.603   8.935   2.172 -0.0862  0.0526  0.1497
 3369W        W 6888   2.315   9.356  11.819  0.2208 -0.1708 -0.3170
 3370W        W 6889   7.152   5.809  11.311 -0.1362  0.0270  0.0454
 3371W        W 6890   5.970   5.550   9.985  0.1313  0.1718 -0.2443
 3372W        W 6891   9.493   2.772  11.526 -0.1004  0.0958  0.0561
 3373W        W 6892   4.818   1.317  10.135 -0.0815 -0.0229  0.0014
 3374W        W 6893   7.073   8.095   2.018 -0.0287  0.3532 -0.4374
 3375W        W 6894   4.480   4.755  11.235 -0.0126 -0.1650 -0.0096
 3376W        W 6895   5.382   6.356   8.705  0.1918 -0.0454  0.4153
 3377W        W 6896   1.047   1.285   2.184 -0.2156 -0.1021 -0.0094
 3378W        W 6897   7.613   5.733  11.454  0.0933 -0.3478  0.0479
 3379W        W 6898   5.460   5.413   9.718 -0.0071  0.1553 -0.0258
 3380W        W 6899   2.127   7.263   2.284 -0.1749  0.1090  0.2609
 3381W        W 6900   1.103   4.329   9.562 -0.3124 -0.0399  0.2735
 3382W        W 6901   4.912   7.686  11.633  0.2195 -0.0900  0.0607
 3383W        W 6902   6.815   1.217   2.906  0.3952  0.1315  0.0594
 3384W        W 6903   9.009   7.577   8.646  0.2232  0.0655  0.2308
 3385W        W 6904   3.531   2.586   2.233  0.1505  0.1845  0.0560
 3386W        W 6905   5.075   8.626   2.116 -0.0095  0.0048  0.0783
 3387W        W 6906   0.097   5.880   0.108  0.1031  0.1142 -0.0705
 3388W        W 6907   5.410   7.904  11.072 -0.0745 -0.1454 -0.2118
 3389W        W 6908   7.020   6.995   1.520  0.0754  0.1408  0.1494
 3390W        W 6909   8.124   7.009   1.405 -0.0898 -0.2119  0.3608
 3391W        W 6910   8.762   3.282   0.948  0.1207  0.0376  0.1729
 3392W        W 6911   9.231   2.942   1.048  0.0429 -0.1984 -0.2776
 3393W        W 6912   2.411   3.001  12.342  0.2397  0.1902  0.0418
 3394W        W 6913   6.646   3.259   8.468  0.1048 -0.1272  0.0980
 3395W        W 6914   6.211   1.767  11.737  0.0005  0.0174  0.4142
 3396W        W 6915   1.215   2.963   9.762 -0.1685 -0.0917 -0.1279
 3397W        W 6916   8.556   5.418  10.313 -0.3886  0.1854  0.3359
 3398W        W 6917   7.739   9.675   8.356  0.0808  0.3769 -0.5004
 3399W        W 6918   4.199   5.853  12.385  0.1343  0.1317 -0.1231
 3400W        W 6919   0.512   9.475   0.814 -0.3214  0.0950  0.1183
 3401W        W 6920   5.093   4.451  11.610 -0.2870 -0.1014 -0.1360
 3402W        W 6921   0.421   3.786   9.916 -0.2663  0.2245  0.0222
 3403W        W 6922   8.313   8.925   8.696 -0.1278 -0.2256  0.0102
 3404W        W 6923   4.139   2.402   0.225  0.0978  0.1893  0.1025
 3405W        W 6924   5.546   8.824   2.900 -0.0712  0.1420  0.0758
 3406W        W 6925   3.712   1.304  10.102 -0.0135 -0.1210 -0.0193
 3407W        W 6926   1.919   4.674   0.070 -0.0915 -0.1594  0.1279
 3408W        W 6927   5.560   3.786   0.309  0.3343 -0.0328 -0.1343
 3409W        W 6928   9.629   5.309   0.253  0.2302 -0.1222  0.3661
 3410W        W 6929   7.214   7.622   9.141  0.0159 -0.4074 -0.2728
 3411W        W 6930   3.427   8.561  10.304 -0.0260 -0.0562  0.1811
 3412W        W 6931   0.966   1.590   2.570 -0.1134 -0.0591  0.3257
 3413W        W 6932   1.473   4.636  11.730 -0.2302 -0.0382 -0.1048
 3414W        W 6933   0.749   0.760   3.647  0.1790  0.1589  0.3581
 3415W        W 6934   6.460   0.704   2.881 -0.0375  0.0824 -0.0221
 3416W        W 6935   8.562   2.148  11.196  0.0816  0.1579  0.0403
 3417W        W 6936   5.760   0.401   0.249 -0.0125 -0.3842 -0.2137
 3418W        W 6937   5.476   3.174   9.342 -0.2152  0.2301 -0.0973
 3419W        W 6938   6.879   6.833   4.382 -0.3121  0.0086  0.0633
 3420W        W 6939   1.936   5.001   2.639  0.0593  0.0250 -0.0311
 3421W        W 6940   9.038   0.512   7.710  0.0333  0.0825 -0.1835
 3422W        W 6941   4.455   5.934   1.675  0.0908 -0.2647  0.1880
 3423W        W 6942   1.383   8.070   0.003  0.0759  0.0308  0.2417
 3424W        W 6943   3.784   3.656   1.724  0.5897 -0.1841 -0.1046
 3425W        W 6944   3.866   6.467   9.814 -0.1836  0.3959 -0.1801
 3426W        W 6945   4.533   8.993   0.967 -0.0956 -0.4099  0.1482
 3427W        W 6946   7.596   5.520   1.154 -0.1386 -0.0584 -0.0711
 3428W        W 6947   3.234   4.529   3.221 -0.2004  0.4071  0.1977
 3429W        W 6948   5.269   4.334   1.469  0.0847 -0.1495 -0.2842
 3430W        W 6949   6.022   0.934   8.453 -0.0640 -0.0142 -0.2312
 3431W        W 6950   6.907   9.004   9.714  0.2623 -0.1387 -0.1126
 3432W        W 6951   6.354   9.127  11.721 -0.4023  0.1506 -0.0249
 3433W        W 6952   7.269   3.815   1.003 -0.1071  0.0291  0.0071
 3434W        W 6953   9.564   8.591   8.781  0.1040  0.2843 -0.4542
 3435W        W 6954   0.391   5.854   4.952 -0.2083  0.1776 -0.0580
 3436W        W 6955   7.575   0.681   1.775 -0.1819  0.1680  0.0734
 3437W        W 6956   1.893   3.145   1.203 -0.4757 -0.2654  0.1942
 3438W        W 6957   1.999   3.355   9.871  0.0681 -0.1785 -0.1441
 3439W        W 6958   0.009   7.488   0.731  0.1001 -0.2204 -0.4208
 3440W        W 6959   4.681   5.779   0.046  0.0271  0.1330 -0.1271
 3441W        W 6960   1.241   8.454   1.253 -0.0593 -0.1459 -0.0238
 3442W        W 6961   5.024   2.046   8.978 -0.2212 -0.1131 -0.0884
 3443W        W 6962   5.352   0.107   2.522  0.1573  0.1159  0.0232
 3444W        W 6963   5.867   4.975  12.189  0.1121 -0.1403 -0.0233
 3445W        W 6964   5.668   5.010  11.128 -0.1729  0.2704  0.2766
 3446W        W 6965   1.646   6.939   0.505  0.1529  0.1719 -0.4703
 3447W        W 6966   3.392   5.798  11.659  0.2529 -0.0378 -0.2077
 3448W        W 6967   7.222   4.252  10.471  0.1042  0.2818 -0.2059
 3449W        W 6968   0.719   0.929  10.638 -0.0006 -0.1304  0.2042
 3450W        W 6969   5.157   7.452   2.001  0.1402 -0.0917 -0.1790
 3451W        W 6970   9.044   4.513  10.086 -0.5809 -0.0138 -0.0020
 3452W        W 6971   9.620   8.641   2.294 -0.0390  0.0931  0.2582
 3453W        W 6972   6.116   7.015   3.246 -0.1645 -0.0121  0.1235
 3454W        W 6973   6.019   6.543   3.450 -0.0381 -0.2127 -0.0740
 3455W        W 6974   4.820   2.943  12.507  0.1412  0.1040  0.1935
 3456W        W 6975   4.122   3.554   0.746 -0.0783 -0.0348 -0.2004
 3457W        W 6976   8.230   2.035  11.556  0.0175  0.2576  0.0149
 3458W        W 6977   3.894   8.223  11.458  0.0316  0.0822 -0.2368
 3459W        W 6978   8.041   7.839   9.302 -0.2192 -0.1022 -0.0883
 3460W        W 6979   0.824   1.293   1.749  0.0201  0.0302  0.0110
 3461W        W 6980   5.873   4.476   2.777 -0.0265  0.0904 -0.1144
 3462W        W 6981   7.937   3.155   0.788 -0.2174  0.1449  0.0997
 3463W        W 6982   1.722   3.175  11.274 -0.2385 -0.3603  0.2845
 3464W        W 6983   2.843   3.845   1.901  0.0518 -0.1294  0.0830
 3465W        W 6984   2.997   0.217   2.664 -0.0501 -0.1702  0.2626
 3466W        W 6985   8.167   9.450   8.560 -0.1118  0.1852  0.2916
 3467W        W 6986   1.774   0.283   8.275  0.3520 -0.3732  0.1048
 3468W        W 6987   2.969   5.929   9.855 -0.5232  0.0219  0.1041
 3469W        W 6988   5.351   6.146   1.830 -0.0162 -0.0006 -0.1933
 3470W        W 6989   4.861   0.244  10.066 -0.2535 -0.0117 -0.3959
 3471W        W 6990   3.730   9.188  11.672  0.1657 -0.0868  0.2465
 3472W        W 6991   7.779   6.536  11.692 -0.2746  0.1524  0.2479
 3473W        W 6992   8.267   4.914   4.338 -0.0578 -0.0251 -0.0441
 3474W        W 6993   3.786   2.283   1.379 -0.0738  0.0984 -0.0188
 3475W        W 6994   9.322   8.049  11.192  0.1686 -0.0088 -0.0372
 3476W        W 6995   0.886   2.477  10.203 -0.3073 -0.0456  0.0307
 3477W        W 6996   6.811   2.080   3.392 -0.1126 -0.1669 -0.2135
 3478W        W 6997   6.017   7.029  12.255 -0.3024  0.0354 -0.2627
 3479W        W 6998   2.284   2.853   9.920 -0.0548 -0.1785  0.0428
 3480W        W 6999   2.261   5.071   0.057  0.1349  0.0202  0.1624
 3481W        W 7000   4.672   9.218  12.506 -0.1410 -0.0236  0.1102
 3482W        W 7001   6.796   1.847   0.955 -0.0458  0.1738  0.1820
 3483W        W 7002   0.221   7.084   2.997  0.1931 -0.3565  0.0581
 3484W        W 7003   7.851   2.320   2.293 -0.0276 -0.0281  0.0052
 3485W        W 7004   5.525   0.261  11.540 -0.1364  0.1482  0.1778
 3486W        W 7005   3.932   5.880   2.322  0.0055  0.1714 -0.0379
 3487W        W 7006   8.039   2.412   8.987  0.3621 -0.3185 -0.0501
 3488W        W 7007   2.947   4.682   7.687 -0.2393  0.6653  0.4755
 3489W        W 7008   7.991   3.655   1.422  0.3334  0.2637  0.0476
 3490W        W 7009   5.901   5.084  11.707 -0.2937 -0.0382  0.1628
 3491W        W 7010   0.117   4.045   3.019  0.2170  0.1049  0.4866
 3492W        W 7011   5.259   8.459   0.920  0.2628  0.1320  0.1567
 3493W        W 7012   7.774   4.907   1.222 -0.2776  0.2772 -0.3062
 3494W        W 7013   6.619   0.802  12.092  0.3285  0.0653 -0.1057
 3495W        W 7014   7.461   7.046   1.339 -0.2769 -0.2125 -0.0087
 3496W        W 7015   3.636   2.468   9.502  0.1613 -0.0156  0.1261
 3497W        W 7016   0.750   2.024  10.322  0.0219 -0.1293  0.3292
 3498W        W 7017   1.964   2.946   0.119  0.1633 -0.1409  0.0364
 3499W        W 7018   6.962   7.638   1.915 -0.0677  0.2213  0.2320
 3500W        W 7019   0.079   2.228   3.737  0.0992  0.2959  0.0948
 3501W        W 7020   0.993   9.595  11.706  0.0740  0.1058 -0.2011
 3502W        W 7021   4.196   9.313  10.590 -0.2390  0.1495  0.0805
 3503W        W 7022   4.201   4.547   9.420 -0.0558  0.1475 -0.3155
 3504W        W 7023   7.168   4.672  12.140  0.2568  0.2454  0.0159
 3505W        W 7024   6.852   9.174   8.357  0.0956  0.2024 -0.1734
 3506W        W 7025   5.190   9.633   2.089  0.0539 -0.0542  0.1049
 3507W        W 7026   6.248   4.952  11.055 -0.1399  0.3585  0.2816
 3508W        W 7027   3.736   2.994   7.642  0.2552  0.3853 -0.0006
 3509W        W 7028   4.496   7.163  12.464  0.0203  0.0243 -0.2544
 3510W        W 7029   9.531   0.391   9.677 -0.2063  0.1025 -0.1880
 3511W        W 7030   3.905   0.158   0.115 -0.0778 -0.1283  0.0949
 3512W        W 7031   7.642   1.467   1.150 -0.0396 -0.1047 -0.1639
 3513W        W 7032   7.981   6.068  11.439  0.2208 -0.0199  0.1748
 3514W        W 7033   1.379   8.505   0.298 -0.0546  0.1100 -0.0216
 3515W        W 7034   1.353   0.032  12.406  0.1068 -0.6086 -0.1471
 3516W        W 7035   1.865   0.053  12.104 -0.2345 -0.1237  0.2390
 3517W        W 7036   5.033   2.696   3.907  0.1782 -0.1171  0.1520
 3518W        W 7037   2.721   1.394  10.173 -0.0634 -0.3422 -0.2555
 3519W        W 7038   6.024   3.260   3.204  0.1794  0.0264  0.1952
 3520W        W 7039   0.676   6.005   2.175 -0.0687  0.0686  0.0773
 3521W        W 7040   2.129   8.249   8.532  0.2002 -0.1687  0.0320
 3522W        W 7041   4.024   5.737   0.390  0.1332 -0.0597  0.1502
 3523W        W 7042   4.885   6.058   2.089  0.1103 -0.1018  0.2606
 3524W        W 7043   0.645   3.456   1.975  0.2334 -0.0122 -0.0486
 3525W        W 7044   2.797   3.277   9.483  0.0043  0.1116 -0.0233
 3526W        W 7045   1.935   5.306   9.637  0.3462 -0.1181 -0.1063
 3527W        W 7046   3.706   8.888   9.996 -0.0973 -0.1120 -0.3273
 3528W        W 7047   4.793   6.179   0.405 -0.5762 -0.0125  0.1072
 3529W        W 7048   3.284   2.368   1.592  0.0672 -0.1696 -0.1755
 3530W        W 7049   8.341   4.670   2.014 -0.1110 -0.0160 -0.1661
 3531W        W 7050   8.884   3.067  10.835 -0.2363 -0.1428  0.0246
 3532W        W 7051   9.318   1.034   0.887 -0.1891  0.4557  0.1029
 3533W        W 7052   0.732   9.256   4.395 -0.2651  0.0324  0.4413
 3534W        W 7053   4.449   5.234   9.647 -0.0679 -0.0921 -0.2964
 3535W        W 7054   7.994   2.182   1.084  0.1196 -0.4365  0.1007
 3536W        W 7055   7.135   0.298  10.045  0.6197 -0.4252 -0.4266
 3537W        W 7056   5.232   9.326   1.532  0.0386  0.0098  0.1875
 3538W        W 7057   8.002   0.299  11.619  0.1001 -0.2532 -0.1914
 3539W        W 7058   3.570   7.465  10.910 -0.3197  0.2015 -0.0861
 3540W        W 7059   2.758   1.510   4.373  0.1276 -0.1049  0.0622
 3541W        W 7060   4.995   8.057   0.111  0.2053 -0.3064 -0.0951
 3542W        W 7061   5.878   6.797  10.723  0.0722  0.2054  0.3896
 3543W        W 7062   1.082   4.587   3.632  0.0742 -0.1894  0.1318
 3544W        W 7063   9.521   9.020   1.319 -0.1318 -0.2203  0.1296
 3545W        W 7064   0.899   7.257  10.300  0.1636 -0.0523 -0.2080
 3546W        W 7065   7.868   0.024   9.400 -0.0204  0.1700  0.3479
 3547W        W 7066   3.146   4.888   1.612  0.0974 -0.0594 -0.3600
 3548W        W 7067   4.291   6.282   2.024  0.0870 -0.0136 -0.1350
 3549W        W 7068   1.171   8.271   9.333 -0.4133  0.0072  0.0721
 3550W        W 7069   5.729   1.340  11.721 -0.1419  0.0616 -0.1814
 3551W        W 7070   8.829   4.657  12.355  0.1968 -0.2207  0.1140
 3552W        W 7071   0.401   1.812   3.666 -0.2324  0.2509  0.1633
 3553W        W 7072   1.362   8.735   8.493  0.0338 -0.1133  0.0193
 3554W        W 7073   7.022   1.960   9.670 -0.2092 -0.2104 -0.0306
 3555W        W 7074   2.474   1.720   2.565 -0.1377 -0.3716 -0.0027
 3556W        W 7075   1.472   2.411   9.833 -0.0483  0.1947  0.1624
 3557W        W 7076   9.694   1.344  12.071 -0.0262  0.0653  0.0770
 3558W        W 7077   3.476   3.714   2.704  0.0610 -0.1408 -0.0084
 3559W        W 7078   2.832   9.035   0.554 -0.1758 -0.0324  0.2541
 3560W        W 7079   2.651   2.032   3.105  0.1641 -0.1770 -0.1561
 3561W        W 7080   9.573   1.705   3.518 -0.2062 -0.3677  0.1423
 3562W        W 7081   4.034   0.677  10.273  0.2188  0.1572  0.0077
 3563W        W 7082   5.853   0.573   3.521  0.1644 -0.1611  0.2818
 3564W        W 7083   4.849   5.912   2.565  0.1142  0.2216  0.1419
 3565W        W 7084   9.207   9.351   2.474  0.0879  0.1702  0.0105
 3566W        W 7085   9.405   7.698  12.163 -0.0670 -0.1440  0.0028
 3567W        W 7086   3.314   9.010  10.290 -0.1411 -0.2689 -0.1737
 3568W        W 7087   7.125   5.733   1.912 -0.0368 -0.3668  0.0841
 3569W        W 7088   0.563   0.779   9.168 -0.1858 -0.0607 -0.0138
 3570W        W 7089   4.792   7.241   3.801  0.0384  0.5470 -0.2467
 3571W        W 7090   4.844   7.254   2.368  0.0913  0.0571  0.0641
 3572W        W 7091   5.584   2.718   8.399 -0.0135  0.1978 -0.4710
 3573W        W 7092   6.763   6.672  11.179 -0.0859 -0.0458  0.0091
 3574W        W 7093   7.418   5.820   9.921 -0.1156  0.1010  0.1178
 3575W        W 7094   1.512   7.478   2.600  0.1877 -0.1722 -0.0094
 3576W        W 7095   5.296   9.007  10.974  0.0060 -0.0620 -0.1566
 3577W        W 7096   2.698   6.468   1.209 -0.0337  0.1608  0.2181
 3578W        W 7097   5.206   5.128  12.110 -0.1479 -0.2205  0.0552
 3579W        W 7098   6.863   5.598  11.001 -0.1896 -0.3147 -0.2868
 3580W        W 7099   9.054   2.658  12.466 -0.1660  0.1816  0.1630
 3581W        W 7100   3.293   2.366   2.642 -0.1590  0.1300  0.1490
 3582W        W 7101   7.051   2.885  12.259  0.0830  0.0302  0.3216
 3583W        W 7102   8.031   5.346   2.589 -0.3395 -0.1241  0.1736
 3584W        W 7103   9.558   6.385   4.170 -0.0691  0.0913 -0.1240
 3585W        W 7104   0.323   7.941   9.335 -0.3517  0.1269 -0.2581
 3586W        W 7105   6.564   0.752   9.388  0.1320  0.1801  0.1060
 3587W        W 7106   8.297   3.513  11.895  0.1991  0.1754  0.0040
 3588W        W 7107   8.736   4.321   1.877  0.1271  0.0037  0.0237
 3589W        W 7108   8.397   7.009   3.932  0.1278 -0.0814  0.2374
 3590W        W 7109   2.113   4.278   3.458 -0.0105  0.1807  0.2005
 3591W        W 7110   8.601   8.690  11.822 -0.0734 -0.1015  0.1244
 3592W        W 7111   4.570   6.745   9.890  0.0395 -0.1065  0.1884
 3593W        W 7112   3.102   4.782   8.305  0.4132 -0.0324 -0.0511
 3594W        W 7113   5.972   0.076   3.681  0.2423 -0.0897 -0.0304
 3595W        W 7114   0.494   6.974  10.557 -0.3237 -0.2062 -0.1972
 3596W        W 7115   0.251   4.713   2.412  0.0536 -0.0300  0.0784
 3597W        W 7116   8.708   7.580   2.405 -0.1394 -0.2481  0.1269
 3598W        W 7117   4.659   2.893   1.382 -0.0962  0.1060  0.2016
 3599W        W 7118   1.529   1.089  12.316  0.0502 -0.1406  0.2537
 3600W        W 7119   7.305   7.152   9.412 -0.0377  0.1245 -0.0303
 3601W        W 7120   5.140   6.694  12.096  0.0090  0.0635  0.1342
 3602W        W 7121   4.959   1.575   8.823  0.0661 -0.1497  0.1766
 3603W        W 7122   3.947   8.424  10.308 -0.0839 -0.0521  0.4353
 3604W        W 7123   9.163   4.634   2.914 -0.0683  0.0228 -0.0304
 3605W        W 7124   7.594   7.827   0.324 -0.3784 -0.1785  0.2250
 3606W        W 7125   3.461   1.845   2.773  0.2292 -0.3169  0.0368
 3607W        W 7126   2.334   7.862   0.735 -0.0065 -0.0130  0.0742
 3608W        W 7127   1.477   4.017  10.905 -0.0876 -0.1933 -0.1902
 3609W        W 7128   0.297   5.936  10.385 -0.1022 -0.2146 -0.0710
 3610W        W 7129   7.022   5.911  11.879 -0.0426  0.0142  0.0803
 3611W        W 7130   4.068   0.705   9.774  0.1892 -0.1888  0.2162
 3612W        W 7131   5.081   7.881   1.743 -0.1629  0.2762  0.0090
 3613W        W 7132   8.412   7.286  11.530  0.1010 -0.1000 -0.1297
 3614W        W 7133   8.633   9.469   8.214  0.0299  0.2163 -0.2011
 3615W        W 7134   5.820   2.200   3.191 -0.0865  0.4062  0.1751
 3616W        W 7135   6.124   7.299   8.523 -0.0437  0.0809  0.1325
 3617W        W 7136   9.570   4.503  11.415  0.3122 -0.1818 -0.0080
 3618W        W 7137   1.390   5.463   2.487  0.1260 -0.0826  0.1359
 3619W        W 7138   3.240   4.896   8.783 -0.3102 -0.3225  0.0608
 3620W        W 7139   5.633   3.196  11.108  0.3578  0.0195  0.0144
 3621W        W 7140   4.834   6.367  12.346  0.0821  0.3325  0.0646
 3622W        W 7141   9.529   6.265  10.459 -0.0892 -0.2795 -0.0153
 3623W        W 7142   0.019   6.900   9.247 -0.2023 -0.2412 -0.1028
 3624W        W 7143   0.147   0.962   9.341  0.3272 -0.2468  0.0704
 3625W        W 7144   2.316   5.571  12.528 -0.0932 -0.2974  0.0463
 3626W        W 7145   0.571   3.399   0.667 -0.0859  0.0720  0.1713
 3627W        W 7146   4.429   9.525  11.075 -0.0239  0.1516 -0.0073
 3628W        W 7147   0.843   3.717   1.550 -0.0688 -0.1142  0.0908
 3629W        W 7148   4.758   8.153   3.086 -0.0243  0.0715  0.5372
 3630W        W 7149   7.420   8.146   2.523 -0.1071  0.3135 -0.2258
 3631W        W 7150   2.969   4.111   0.744  0.4690 -0.2896  0.2165
 3632W        W 7151   6.047   0.365  11.474 -0.0350  0.0830  0.0579
 3633W        W 7152   0.326   3.707   3.343  0.0034 -0.2686  0.1906
 3634W        W 7153   3.138   0.630  11.092  0.2288  0.0303 -0.1319
 3635W        W 7154   0.720   1.188   3.098 -0.2267 -0.1009 -0.0709
 3636W        W 7155   6.068   7.236   2.185  0.2715  0.1448  0.0978
 3637W        W 7156   5.781   6.935   3.636 -0.1401 -0.2916 -0.1739
 3638W        W 7157   6.608   0.576   8.128  0.0012 -0.2137  0.3095
 3639W        W 7158   3.829   4.559   9.724  0.2547  0.3170  0.0616
 3640W        W 7159   7.376   6.141   8.497  0.0562 -0.0953  0.0425
 3641W        W 7160   0.440   5.580   0.674 -0.0400 -0.2507 -0.1608
 3642W        W 7161   8.558   1.414   2.799  0.1101  0.1214 -0.3288
 3643W        W 7162   1.286   5.619   8.468 -0.2478  0.0762  0.2883
 3644W        W 7163   5.059   1.908   8.278 -0.0146 -0.2532 -0.1910
 3645W        W 7164   1.046   9.552   9.537  0.1346  0.1519  0.0727
 3646W        W 7165   8.816   8.451   0.866 -0.1721  0.1293 -0.2097
 3647W        W 7166   4.030   5.509   1.444  0.0532 -0.1996 -0.2764
 3648W        W 7167   6.458   0.471  11.014 -0.2115 -0.1529  0.2724
 3649W        W 7168   7.796   1.407  10.833  0.1634 -0.0283 -0.2744
 3650W        W 7169   8.577   1.430   8.187  0.1438 -0.1636 -0.0671
 3651W        W 7170   1.430   6.156  11.208  0.0925  0.0574  0.0313
 3652W        W 7171   2.889   2.135  10.811 -0.1283 -0.2749  0.0528
 3653W        W 7172   7.780   6.219   4.003 -0.2203 -0.2718 -0.0870
 3654W        W 7173   3.024   5.859   0.577  0.1657 -0.1207 -0.1194
 3655W        W 7174   4.005   1.646   9.854 -0.1149 -0.0376 -0.2025
 3656W        W 7175   7.883   8.638   3.912  0.0430 -0.0996  0.1668
 3657W        W 7176   7.900   2.710   2.641  0.1931 -0.0447  0.0519
 3658W        W 7177   1.349   2.591   8.888  0.1774 -0.1146 -0.2171
 3659W        W 7178   5.458   0.036   1.553  0.0583 -0.2897  0.3610
 3660W        W 7179   5.797   7.753  11.649  0.0880 -0.0136  0.1077
 3661W        W 7180   1.012   3.408   4.560 -0.1322 -0.1826 -0.2415
 3662W        W 7181   4.910   3.112   1.921 -0.1393  0.4490 -0.0589
 3663W        W 7182   3.612   0.513   8.887 -0.2030  0.1437  0.3078
 3664W        W 7183   7.664   5.395   1.614  0.1149  0.0839 -0.1599
 3665W        W 7184   4.096   7.213  10.477  0.3300  0.0733  0.0697
 3666W        W 7185   6.196   0.965   3.796 -0.0172 -0.1072  0.1734
 3667W        W 7186   9.443   4.020   0.032  0.1424 -0.0160 -0.3144
 3668W        W 7187   0.133   0.600   3.104 -0.2302  0.0340 -0.2418
 3669W        W 7188   7.310   1.062   1.027  0.3256  0.1589 -0.2067
 3670W        W 7189   4.412   8.232  10.173 -0.0190 -0.0536 -0.0992
 3671W        W 7190   1.635   6.876   1.213 -0.2431  0.0488  0.2874
 3672W        W 7191   1.747   4.353   2.552  0.2218 -0.2182 -0.0903
 3673W        W 7192   8.394   6.136   1.039  0.1616 -0.0855 -0.1897
 3674W        W 7193   9.668   4.508   3.505  0.1772 -0.1541  0.3890
 3675W        W 7194   8.958   0.625   2.948  0.1183 -0.1331 -0.0020
 3676W        W 7195   0.686   6.742   3.302 -0.3334  0.0941  0.0243
 3677W        W 7196   5.870   0.059  10.329  0.1864  0.0234  0.1933
 3678W        W 7197   8.343   3.414   0.491  0.2797 -0.1012  0.0755
 3679W        W 7198   9.230   3.490   8.423  0.0589  0.4063 -0.0829
 3680W        W 7199   3.689   3.882   0.031  0.0402 -0.0433  0.2131
 3681W        W 7200   6.112   4.684   3.840  0.0347 -0.1427  0.1116
 3682W        W 7201   3.750   4.578   9.200 -0.2003  0.1156 -0.0558
 3683W        W 7202   5.718   2.679   3.346 -0.0488  0.0188  0.0423
 3684W        W 7203   5.893   8.909   1.218  0.1780  0.0242 -0.0493
 3685W        W 7204   5.363   9.356   4.580 -0.2118 -0.0230  0.0692
 3686W        W 7205   6.832   5.492  10.477  0.0125 -0.1049  0.0127
 3687W        W 7206   8.404   3.088   1.807 -0.1172 -0.1250  0.1267
 3688W        W 7207   3.975   4.942   0.806 -0.0278 -0.2405  0.3657
 3689W        W 7208   6.506   1.742  10.821 -0.0063 -0.0357  0.0349
 3690W        W 7209   6.862   4.619   9.865  0.1307  0.0164  0.0778
 3691W        W 7210   1.352   2.268  11.521 -0.0268  0.2127 -0.0492
 3692W        W 7211   2.407   6.661   1.538  0.2884 -0.2391 -0.2889
 3693W        W 7212   7.041   5.223   0.614  0.0664 -0.2139 -0.0706
 3694W        W 7213   4.238   1.567   0.209 -0.0168 -0.0346 -0.2608
 3695W        W 7214   7.043   1.593   7.766  0.1251 -0.0495 -0.3659
 3696W        W 7215   3.234   5.817  12.296 -0.2658  0.1361 -0.0922
 3697W        W 7216   6.055   4.418  10.913  0.0172 -0.0573  0.1240
 3698W        W 7217   2.733   7.224   9.811 -0.2031  0.0932 -0.0428
 3699W        W 7218   8.521   7.739  11.865  0.3090  0.1277  0.2374
 3700W        W 7219   1.461   1.615  11.550  0.1607 -0.0819  0.0719
 3701W        W 7220   0.130   1.600   2.313 -0.0923 -0.1960 -0.1076
 3702W        W 7221   1.700   6.761  10.316  0.1423 -0.0722  0.1529
 3703W        W 7222   8.723   8.944   2.242  0.4128 -0.3669  0.2496
 3704W        W 7223   1.958   8.058   2.207  0.2251  0.0211 -0.2106
 3705W        W 7224   2.093   7.804   1.301  0.0127 -0.1557  0.1186
 3706W        W 7225   3.327   1.946  10.568  0.2688  0.1602 -0.1382
 3707W        W 7226   5.948   2.164  11.671  0.4228  0.0484  0.1689
 3708W        W 7227   6.607   5.924   0.111  0.5416  0.1553  0.0420
 3709W        W 7228   1.586   1.025  11.447 -0.0576  0.0900 -0.2654
 3710W        W 7229   9.690   0.666   2.565 -0.4602 -0.0930  0.3055
 3711W        W 7230   5.579   1.934   0.122  0.1817 -0.3985  0.2376
 3712W        W 7231   1.398   4.323  10.438  0.1927  0.1002 -0.0026
 3713W        W 7232   7.933   2.607   4.747  0.0854  0.0639  0.2013
 3714W        W 7233   0.419   4.739   1.878  0.0987 -0.2767  0.0368
 3715W        W 7234   3.095   4.439   0.022  0.1205 -0.3906 -0.0422
 3716W        W 7235   4.001   1.968   2.886 -0.3030 -0.0156  0.0322
 3717W        W 7236   6.215   6.167  11.826 -0.2899 -0.2104 -0.0208
 3718W        W 7237   8.267   3.309   8.735 -0.0560  0.0178 -0.1353
 3719W        W 7238   2.675   3.094  11.795  0.1418  0.2667 -0.1662
 3720W        W 7239   3.287   1.357  12.218 -0.0584 -0.2125  0.2859
 3721W        W 7240   1.736   2.862   3.715 -0.0579 -0.1713  0.0834
 3722W        W 7241   3.727   9.311   1.980  0.3998  0.2158 -0.0482
 3723W        W 7242   3.524   6.317   3.157 -0.0182 -0.1583  0.1813
 3724W        W 7243   0.513   1.901   2.364 -0.1266  0.0705 -0.0147
 3725W        W 7244   2.765   1.946  11.803 -0.0148 -0.1568  0.3867
 3726W        W 7245   4.067   4.771  10.151 -0.1052  0.0891  0.1209
 3727W        W 7246   0.057   6.639   3.263  0.0389 -0.4502  0.2403
 3728W        W 7247   6.982   8.406   2.974  0.2041 -0.1327 -0.0903
 3729W        W 7248   9.691   7.735  10.090 -0.0864  0.0331 -0.3188
 3730W        W 7249   8.686   2.878   3.417 -0.0232 -0.2831 -0.1931
 3731W        W 7250   4.368   2.120   3.723 -0.2031  0.1843  0.2804
 3732W        W 7251   0.284   4.154   3.966  0.0675 -0.3717 -0.0426
 3733W        W 7252   4.918   8.327   2.432  0.1865 -0.1021 -0.1787
 3734W        W 7253   5.406   3.651   2.170 -0.0753 -0.3146  0.0492
 3735W        W 7254   0.061   0.912   1.906 -0.2568 -0.0984 -0.1129
 3736W        W 7255   7.822   8.082   4.338 -0.4537 -0.0022 -0.2448
 3737W        W 7256   3.646   2.807  10.540 -0.1543 -0.1492 -0.4950
 3738W        W 7257   5.586   4.766   1.187 -0.0852  0.1021 -0.3992
 3739W        W 7258   3.059   6.186   8.362 -0.1654  0.0977 -0.0638
 3740W        W 7259   9.666   5.613   4.672 -0.1388 -0.1184 -0.2997
 3741W        W 7260   0.767   8.310   2.211  0.0797 -0.0497  0.0303
 3742W        W 7261   8.160   0.235   2.856  0.1407 -0.1026  0.2417
 3743W        W 7262   8.236   1.801   3.889  0.1426  0.0060  0.0443
 3744W        W 7263   1.840   0.387   1.078 -0.2611 -0.2823  0.2756
 3745W        W 7264   6.886   5.683   0.652  0.1619 -0.1899  0.0284
 3746W        W 7265   6.285   5.962   1.783  0.2731 -0.0137  0.2610
 3747W        W 7266   3.812   8.921   8.994 -0.2897  0.0891  0.0165
 3748W        W 7267   5.040   0.937   3.386 -0.0447  0.0336  0.1263
 3749W        W 7268   3.112   5.354   0.690  0.5354 -0.2381 -0.1737
 3750W        W 7269   1.507   4.624   3.856  0.1784 -0.0409  0.1938
 3751W        W 7270   3.995   5.771   2.963  0.0656 -0.0453 -0.1123
 3752W        W 7271   0.523   5.211  10.348 -0.1027 -0.0425  0.0693
 3753W        W 7272   6.231   6.215   0.406 -0.3708 -0.0421 -0.0552
 3754W        W 7273   2.480   4.703   8.569  0.0575  0.0213 -0.1756
 3755W        W 7274   1.743   6.377  10.878 -0.1312 -0.0311  0.1795
 3756W        W 7275   3.161   9.533   9.408  0.0024  0.1071  0.2074
 3757W        W 7276   5.004   2.178   1.324 -0.5405  0.2332 -0.1482
 3758W        W 7277   6.115   4.679  11.857 -0.2405  0.2810 -0.4839
 3759W        W 7278   6.130   0.326   0.525 -0.1658  0.0359  0.0436
 3760W        W 7279   5.817   6.214   0.182  0.2134  0.3066  0.1691
 3761W        W 7280   0.682   5.308   3.283 -0.3896 -0.2064  0.0740
 3762W        W 7281   4.252   1.153   9.981  0.2802 -0.2545  0.0577
 3763W        W 7282   1.612   0.517   2.440  0.1185  0.1262 -0.0392
 3764W        W 7283   6.396   6.155   9.416 -0.2313  0.0824  0.0631
 3765W        W 7284   9.460   7.596   9.040 -0.0270  0.2016 -0.0000
 3766W        W 7285   8.366   7.408   1.534 -0.0734 -0.1742 -0.2245
 3767W        W 7286   7.760   4.623   9.961  0.0312 -0.0456  0.0522
 3768W        W 7287   3.766   8.342  10.768  0.0891  0.2244 -0.1699
 3769W        W 7288   0.550   6.340   4.777  0.4210  0.1590  0.1603
 3770W        W 7289   3.304   8.363   9.499 -0.0600  0.0517  0.2104
 3771W        W 7290   6.259   9.016   3.595 -0.2100 -0.1001 -0.3655
 3772W        W 7291   0.028   3.247  10.618  0.0443  0.0175  0.0946
 3773W        W 7292   0.705   0.679   2.933 -0.3509 -0.1490 -0.0484
 3774W        W 7293   4.569   4.000  10.480 -0.1372 -0.2407  0.0716
 3775W        W 7294   1.390   7.780  12.081  0.0323 -0.0981  0.4357
 3776W        W 7295   6.883   7.649   0.521 -0.2432 -0.0215 -0.1436
 3777W        W 7296   6.642   8.081   0.671 -0.1622  0.1122 -0.2112
 3778W        W 7297   2.108   2.211   0.714 -0.2332  0.0498 -0.3291
 3779W        W 7298   0.369   0.670   0.604  0.3111 -0.0887  0.4737
 3780W        W 7299   7.217   7.613   9.675 -0.2814 -0.0701 -0.0983
 3781W        W 7300   3.615   2.178   0.848 -0.0795 -0.1868  0.1997
 3782W        W 7301   2.029   7.435  11.686 -0.1200  0.0765 -0.5011
 3783W        W 7302   8.762   6.497   0.947  0.3581 -0.4808  0.4419
 3784W        W 7303   5.902   0.972   1.669  0.1274  0.1355 -0.1470
 3785W        W 7304   7.057   5.814   4.195  0.1075  0.0947 -0.3299
 3786W        W 7305   8.910   0.977  10.234  0.2024 -0.0543 -0.3100
 3787W        W 7306   8.977   0.387   4.023 -0.1694 -0.2243 -0.3035
 3788W        W 7307   9.276   6.945  10.421  0.0007 -0.0205  0.1655
 3789W        W 7308   4.518   0.697   9.968  0.1097 -0.1414 -0.1828
 3790W        W 7309   3.240   3.791  10.163 -0.4109 -0.2479  0.3000
 3791W        W 7310   1.899   6.499   3.341 -0.0641 -0.1241 -0.0233
 3792W        W 7311   4.406   7.160   2.536  0.0752  0.2609  0.0207
 3793W        W 7312   6.691   6.144   1.979 -0.1349 -0.0427 -0.0802
 3794W        W 7313   1.591   2.452  12.526  0.0625  0.2021 -0.0222
 3795W        W 7314   6.333   3.087   1.710  0.0601 -0.1112  0.1954
 3796W        W 7315   8.739   0.210  10.204 -0.2326 -0.3101 -0.2583
 3797W        W 7316   9.509   2.822  12.324  0.3688  0.0946  0.0847
 3798W        W 7317   6.070   2.470   8.880 -0.1003  0.0402  0.1662
 3799W        W 7318   1.893   8.980   1.921  0.3007 -0.1141 -0.1771
 3800W        W 7319   0.347   1.622   0.988  0.2953  0.1055  0.0597
 3801W        W 7320   1.356   8.598   9.785  0.1540  0.1869  0.2215
 3802W        W 7321   2.878   3.086   2.147 -0.0626  0.0444  0.0073
 3803W        W 7322   7.360   5.631  10.479  0.3876 -0.2394 -0.1626
 3804W        W 7323   5.232   4.450   0.124  0.1193 -0.0081 -0.1744
 3805W        W 7324   4.358   6.755  11.413  0.2044  0.0485  0.6342
 3806W        W 7325   9.210   4.978  12.333 -0.0892  0.0776 -0.3586
 3807W        W 7326   9.052   1.490   8.121 -0.1868  0.3093  0.0275
 3808W        W 7327   2.737   2.531  12.521  0.1677 -0.2697  0.1366
 3809W        W 7328   1.697   3.519  10.508  0.0029 -0.1941 -0.0921
 3810W        W 7329   0.727   5.198   4.274  0.1316 -0.0278  0.2629
 3811W        W 7330   0.898   4.847   3.132 -0.0959 -0.1448  0.1501
 3812W        W 7331   7.324   1.634  10.744  0.1895  0.2761  0.0786
 3813W        W 7332   7.433   0.945   7.318 -0.0574  0.2529  0.0574
 3814W        W 7333   3.814   3.218   1.391 -0.0081  0.0479  0.0587
 3815W        W 7334   5.176   6.192  11.998 -0.0144 -0.3598 -0.0421
 3816W        W 7335   8.719   4.700   3.243 -0.1745 -0.0327  0.1138
 3817W        W 7336   5.723   1.295   2.993 -0.1996  0.0156  0.0460
 3818W        W 7337   4.323   6.393   1.421  0.0380 -0.0221  0.0272
 3819W        W 7338   6.523   1.667   0.521  0.0749 -0.0016 -0.0286
 3820W        W 7339   8.890   5.652   3.136 -0.0728 -0.1736 -0.0283
 3821W        W 7340   3.611   3.841  10.626  0.0351  0.0863 -0.1335
 3822W        W 7341   4.771   5.256   0.428 -0.3263  0.1480  0.2530
 3823W        W 7342   6.953   6.670   7.915  0.1192 -0.1445 -0.1297
 3824W        W 7343   7.643   3.691  12.399 -0.0565 -0.0671 -0.1087
 3825W        W 7344   0.607   7.008   8.564  0.0859 -0.1995 -0.0537
 3826W        W 7345   4.568   7.939   2.648  0.0815  0.0012  0.0610
 3827W        W 7346   5.691   8.473   1.386 -0.1123  0.1060  0.0372
 3828W        W 7347   7.976   6.916  10.170 -0.1753 -0.0867  0.1483
 3829W        W 7348   1.673   6.436   9.723 -0.0072 -0.0389  0.2149
 3830W        W 7349   1.889   4.642  11.041  0.1804 -0.2292 -0.0394
 3831W        W 7350   7.925   5.318   2.067 -0.1873 -0.0851  0.3897
 3832W        W 7351   0.358   2.236  11.918  0.2239 -0.1429  0.4467
 3833W        W 7352   4.275   3.176   1.148 -0.0082 -0.0244 -0.0009
 3834W        W 7353   5.713   7.680  10.246 -0.4278 -0.0443 -0.2811
 3835W        W 7354   4.710   9.228   0.503  0.1475 -0.0755 -0.0050
 3836W        W 7355   7.531   6.646  10.212  0.0207  0.2990  0.0350
 3837W        W 7356   0.380   9.020   1.481  0.0689 -0.0794  0.1677
 3838W        W 7357   2.254   5.003   2.241  0.0294  0.0673 -0.2588
 3839W        W 7358   5.959   2.985   1.414  0.0042  0.0389 -0.0165
 3840W        W 7359   1.878   2.470  10.845  0.0264 -0.0379  0.1689
 3841W        W 7360   9.469   8.780   0.565  0.1574 -0.1194 -0.2604
 3842W        W 7361   4.699   6.490   1.135 -0.2375  0.1093 -0.0371
 3843W        W 7362   4.339   2.557  11.395 -0.1540  0.0080 -0.0289
 3844W        W 7363   8.541   5.858   4.379 -0.1462 -0.2206  0.0084
 3845W        W 7364   8.982   8.896   0.660  0.1761 -0.0246  0.0855
 3846W        W 7365   7.819   6.094  10.082 -0.1481 -0.1587 -0.1147
 3847W        W 7366   4.815   2.793   9.594 -0.0684  0.2736  0.2968
 3848W        W 7367   0.100   5.064  10.098 -0.1671 -0.3083 -0.1178
 3849W        W 7368   6.945   6.298   9.208  0.3669 -0.1177 -0.0399
 3850W        W 7369   6.056   0.470   4.340  0.0736  0.3164 -0.0931
 3851W        W 7370   9.368   4.204  10.628 -0.4262  0.0890 -0.0584
 3852W        W 7371   3.187   5.258   8.242 -0.1574 -0.0493  0.1982
 3853W        W 7372   8.453   2.215   2.159 -0.2203  0.1628  0.1673
 3854W        W 7373   6.792   5.706   2.754  0.2502 -0.3226 -0.0033
 3855W        W 7374   7.046   6.178   2.851  0.1282 -0.1915  0.0655
 3856W        W 7375   7.752   7.218  12.352  0.0776 -0.0676  0.1345
 3857W        W 7376   9.086   1.417   1.915  0.1177 -0.1980 -0.1643
 3858W        W 7377   5.499   1.043   4.864 -0.0146 -0.0171  0.1280
 3859W        W 7378   4.444   3.550  10.726 -0.1827  0.1318 -0.0195
 3860W        W 7379   5.751   3.801   2.513  0.3313 -0.1838 -0.0157
 3861W        W 7380   5.821   2.879   9.677  0.1732  0.1486  0.1532
 3862W        W 7381   5.257   2.113   9.396  0.1174 -0.2350  0.1781
 3863W        W 7382   4.790   6.309   1.662 -0.2528  0.2233  0.0060
 3864W        W 7383   1.622   4.232   9.631  0.2894  0.0445  0.0927
 3865W        W 7384   1.707   0.610   9.906 -0.4244  0.0071 -0.2938
 3866W        W 7385   0.458   6.176   8.004  0.0572 -0.0793  0.0216
 3867W        W 7386   2.421   7.662   1.716 -0.2109 -0.1635  0.1938
 3868W        W 7387   0.362   7.199  12.524  0.0341  0.0126  0.2728
 3869W        W 7388   8.865   3.866  11.780 -0.1433 -0.1201  0.2831
 3870W        W 7389   4.491   9.286   4.101  0.0000 -0.2571 -0.0754
 3871W        W 7390   2.989   7.297  11.542  0.5868  0.1167  0.1202
 3872W        W 7391   5.407   8.548   9.151 -0.0722 -0.1637 -0.0487
 3873W        W 7392   7.166   7.691   3.799  0.0084 -0.1305 -0.2408
 3874W        W 7393   6.970   6.027   3.624  0.0049 -0.1850 -0.1817
 3875W        W 7394   4.992   0.322  12.339  0.0662  0.1083 -0.1898
 3876W        W 7395   8.300   2.079   9.417  0.0096  0.0095  0.2541
 3877W        W 7396   7.274   8.515   2.132 -0.2040  0.2013  0.1706
 3878W        W 7397   9.196   0.800   8.742  0.1950 -0.0687  0.2761
 3879W        W 7398   2.873   0.662   1.217  0.0458 -0.2209 -0.0437
 3880W        W 7399   3.524   7.392   2.561  0.0179  0.3810  0.1395
 3881W        W 7400   9.333   1.925   2.953  0.1853  0.0181  0.0928
 3882W        W 7401   2.431   4.747   3.402 -0.6071  0.0649  0.0620
 3883W        W 7402   8.111   1.280   9.091 -0.0081 -0.0027  0.1857
 3884W        W 7403   3.569   6.572   0.719  0.2386  0.0104 -0.2477
 3885W        W 7404   9.432   7.223   3.016  0.1622 -0.1577  0.0069
 3886W        W 7405   7.068   8.757   9.107 -0.3105 -0.1360 -0.3294
 3887W        W 7406   0.371   4.707   0.073 -0.1333 -0.0818 -0.0393
 3888W        W 7407   9.357   2.621   8.896  0.1266  0.2917  0.0026
 3889W        W 7408   3.776   1.984   8.573 -0.0660 -0.2787  0.0267
 3890W        W 7409   4.082   3.030  12.269 -0.1043  0.1245  0.0482
 3891W        W 7410   6.151   5.019   1.155  0.0394  0.0893 -0.2789
 3892W        W 7411   7.352   0.856   3.017  0.0719 -0.2329  0.0891
 3893W        W 7412   7.816   9.533   1.661 -0.0289 -0.1606 -0.2023
 3894W        W 7413   3.769   5.695  10.458  0.0634  0.0676  0.0195
 3895W        W 7414   5.511   0.512   1.714 -0.2785 -0.0591  0.2327
 3896W        W 7415   9.606   6.795  11.329  0.1343  0.1131  0.2376
 3897W        W 7416   3.849   6.996   0.741 -0.1056  0.2270 -0.1108
 3898W        W 7417   4.081   3.030  10.350  0.2531  0.0598  0.1007
 3899W        W 7418   2.513   5.225   9.404 -0.4376 -0.0776 -0.0117
 3900W        W 7419   5.833   7.782   0.234 -0.1794  0.2384 -0.0866
 3901W        W 7420   6.532   0.242  11.421 -0.2536  0.1822  0.0937
 3902W        W 7421   7.592   0.299  11.237 -0.1381 -0.2851 -0.0608
 3903W        W 7422   3.127   1.065  10.057 -0.2509 -0.2418  0.1774
 3904W        W 7423   7.877   8.568  11.088  0.1020 -0.0581  0.1021
 3905W        W 7424   1.259   1.889   2.840  0.3223 -0.3168  0.0402
 3906W        W 7425   4.408   0.019   2.700  0.0615  0.2589  0.1011
 3907W        W 7426   2.467   7.355   1.253  0.0246 -0.0374 -0.2821
 3908W        W 7427   1.245   0.361  12.052 -0.2270  0.0725  0.2672
 3909W        W 7428   8.102   9.078   0.879 -0.0690 -0.1429  0.0313
 3910W        W 7429   1.380   5.914   8.867 -0.1087  0.0450  0.1457
 3911W        W 7430   9.380   9.105  10.556 -0.0302  0.0353 -0.1394
 3912W        W 7431   9.357   5.317   1.897  0.0885 -0.2277  0.0652
 3913W        W 7432   4.285   1.789   3.342  0.2635 -0.0707 -0.1130
 3914W        W 7433   3.438   4.792  11.555 -0.1158  0.3361 -0.2440
 3915W        W 7434   8.254   7.740   9.773  0.1427 -0.0395 -0.1309
 3916W        W 7435   1.213   4.208   8.488  0.0895 -0.2751 -0.0095
 3917W        W 7436   2.689   3.935  10.253  0.1375  0.0683  0.2087
 3918W        W 7437   1.330   4.686   8.445  0.1653 -0.1580  0.0315
 3919W        W 7438   4.306   4.147   1.219  0.0880  0.0646  0.0192
 3920W        W 7439   9.571   1.610   4.021 -0.2242  0.1208 -0.0547
 3921W        W 7440   5.495   8.826  11.416  0.2507 -0.1562  0.1980
 3922W        W 7441   1.550   9.261   0.855  0.1941  0.0377 -0.0317
 3923W        W 7442   3.559   0.442  10.507 -0.2350 -0.0995 -0.2458
 3924W        W 7443   1.865   2.174   1.593 -0.1655  0.0438 -0.2246
 3925W        W 7444   4.350   4.876  12.487 -0.1113 -0.0927  0.0847
 3926W        W 7445   9.409   0.950   2.829 -0.1283  0.0208 -0.3226
 3927W        W 7446   1.018   5.102  10.098 -0.0338  0.0776 -0.2174
 3928W        W 7447   6.517   6.480   0.053 -0.2440  0.0015  0.1978
 3929W        W 7448   3.090   1.554   1.473 -0.3369 -0.0675  0.3863
 3930W        W 7449   7.140   2.547   9.715 -0.0154 -0.1098 -0.3937
 3931W        W 7450   1.291   3.922   2.418 -0.1168 -0.0525  0.1933
 3932W        W 7451   2.770   2.133  11.307 -0.1254  0.1640  0.0387
 3933W        W 7452   8.828   2.823  10.382 -0.1028 -0.1101 -0.1662
 3934W        W 7453   3.538   6.690  10.096 -0.0229 -0.4128  0.0377
 3935W        W 7454   7.148   2.405   1.618  0.0278 -0.0835 -0.0465
 3936W        W 7455   9.698   6.810   0.107 -0.2903  0.1906 -0.0773
 3937W        W 7456   0.318   0.245  12.285 -0.1232 -0.1799  0.1851
 3938W        W 7457   2.933   4.170   9.858  0.1006  0.3325  0.1716
 3939W        W 7458   7.943   4.618   0.157 -0.0045 -0.0583 -0.0727
 3940W        W 7459   7.094   5.870   8.862  0.0181 -0.2376  0.0173
 3941W        W 7460   9.092   7.227   3.880  0.0924 -0.0447 -0.1221
 3942W        W 7461   1.576   5.816   8.031  0.0880 -0.3887 -0.0917
 3943W        W 7462   3.898   0.468   2.120  0.0968  0.3586  0.0426
 3944W        W 7463   7.882   1.336  12.361 -0.0995 -0.2693 -0.1349
 3945W        W 7464   0.489   0.712  11.429 -0.0376 -0.0497 -0.1282
 3946W        W 7465   6.371   9.483  12.026  0.2520 -0.1409  0.0479
 3947W        W 7466   8.633   6.941   1.637 -0.6590 -0.0383 -0.2913
 3948W        W 7467   5.482   8.000   1.358 -0.1725  0.1652  0.1652
 3949W        W 7468   3.216   3.604  12.508  0.1828 -0.1209 -0.1302
 3950W        W 7469   8.556   4.520  10.333  0.3429 -0.0666 -0.1966
 3951W        W 7470   7.583   8.363  10.192  0.1973  0.0897  0.0211
 3952W        W 7471   9.280   9.702   4.279 -0.1106  0.0670  0.2244
 3953W        W 7472   4.076   1.152  10.457  0.1618  0.1053  0.0570
 3954W        W 7473   3.387   9.542   8.467  0.1781 -0.3445 -0.0763
 3955W        W 7474   3.018   0.191  10.641 -0.4407 -0.0546  0.0653
 3956W        W 7475   8.510   5.801   2.891 -0.0455 -0.1912  0.0771
 3957W        W 7476   0.403   5.483   1.570 -0.0142  0.2369  0.2051
 3958W        W 7477   0.712   3.958   3.761  0.0130  0.0761 -0.0459
 3959W        W 7478   0.287   7.110   0.961 -0.1405 -0.0553  0.2211
 3960W        W 7479   1.585   2.107   2.485 -0.0347 -0.1425  0.1498
 3961W        W 7480   6.171   6.464  10.439 -0.0717  0.1708 -0.1168
 3962W        W 7481   0.966   5.311  11.207  0.1420 -0.0100 -0.3229
 3963W        W 7482   0.676   2.074   9.747 -0.3797  0.3893  0.1422
 3964W        W 7483   3.478   5.526   9.171  0.1616  0.0379  0.0828
 3965W        W 7484   1.841   4.502   1.196 -0.0619 -0.1991 -0.2518
 3966W        W 7485   8.137   7.034   2.588 -0.0542  0.0907  0.0641
 3967W        W 7486   3.034   5.079   9.546 -0.0454  0.2028  0.2332
 3968W        W 7487   7.105   9.666  11.945 -0.0383  0.2841 -0.0241
 3969W        W 7488   6.125   0.503   1.848 -0.1120 -0.1831  0.3924
 3970W        W 7489   9.498   7.252   0.273  0.3524 -0.2246 -0.0934
 3971W        W 7490   0.786   1.604  10.633 -0.4034 -0.0085 -0.2443
 3972W        W 7491   8.032   8.169   3.859 -0.2080  0.0769 -0.1372
 3973W        W 7492   6.412   6.863   2.234 -0.2295  0.1257 -0.1960
 3974W        W 7493   7.857   7.881   1.066 -0.1065 -0.1452 -0.1684
 3975W        W 7494   4.120   5.415   3.345 -0.0013 -0.1262 -0.2747
 3976W        W 7495   2.606   1.679   0.202 -0.0661  0.3360  0.1020
 3977W        W 7496   9.133   1.636   3.802  0.3961  0.0598  0.0803
 3978W        W 7497   6.896   4.041   2.191  0.0834  0.1012  0.0793
 3979W        W 7498   4.839   5.369  11.758 -0.1150 -0.1233 -0.2029
 3980W        W 7499   1.137   5.117   4.639 -0.2645  0.0691  0.0100
 3981W        W 7500   5.340   6.100   2.381  0.1233  0.3590  0.1219
 3982W        W 7501   7.284   7.796  10.262  0.2198 -0.2416 -0.0895
 3983W        W 7502   6.889   7.988   9.461  0.0581 -0.0021  0.0055
 3984W        W 7503   0.599   2.053   9.005  0.0647  0.2105  0.0500
 3985W        W 7504   6.596   2.508   9.760 -0.1547 -0.1947 -0.1658
 3986W        W 7505   4.466   4.087   3.673  0.0991 -0.1918 -0.2345
 3987W        W 7506   7.524   6.822   0.602  0.0299  0.1574  0.0102
 3988W        W 7507   7.991   9.087  11.712 -0.2448  0.0887  0.1138
 3989W        W 7508   4.530   7.811  10.768 -0.1438  0.0466 -0.3335
 3990W        W 7509   7.789   9.428   2.160  0.1538  0.0794 -0.1295
 3991W        W 7510   6.760   3.798   1.093  0.1012 -0.4042 -0.0084
 3992W        W 7511   7.472   6.979  10.578  0.2364 -0.3334 -0.0576
 3993W        W 7512   5.138   1.485   9.769 -0.1615  0.0788  0.2045
 3994W        W 7513   8.973   0.129   2.855 -0.0780  0.3003 -0.0537
 3995W        W 7514   2.648   9.017   2.733 -0.0224 -0.0531  0.5191
 3996W        W 7515   1.250   3.530   3.704 -0.3064 -0.0253 -0.2020
 3997W        W 7516   4.871   8.180  11.687  0.3096  0.0219 -0.1304
 3998W        W 7517   4.243   8.034   2.160  0.1315  0.0234 -0.3862
 3999W        W 7518   7.278   6.844   2.033  0.0504  0.0840  0.3337
 4000W        W 7519   7.361   2.717   0.036 -0.4525 -0.2295  0.1141
 4001W        W 7520   8.220   8.941   9.273 -0.5076  0.1225  0.1616
 4002W        W 7521   2.229   3.972   1.324 -0.4076  0.3901 -0.1542
 4003W        W 7522   9.624   9.111   2.715  0.3654 -0.2664 -0.3915
 4004W        W 7523   9.064   0.377   0.329  0.0040 -0.1104  0.0577
 4005W        W 7524   3.357   6.783  10.873  0.1335 -0.0731  0.0183
 4006W        W 7525   7.618   7.391  10.178  0.0006  0.3355  0.2168
 4007W        W 7526   7.980   7.587   0.615 -0.3261  0.1265  0.0176
 4008W        W 7527   2.690   0.926  10.905  0.2937  0.3590 -0.1261
 4009W        W 7528   2.852   2.637  10.039 -0.0097  0.2633  0.0962
 4010W        W 7529   4.290   8.592   1.944  0.1840  0.0365  0.1544
 4011W        W 7530   5.154   7.109   9.764  0.3655  0.2320  0.1226
 4012W        W 7531   9.709   6.163   3.493  0.1275  0.1771  0.2085
 4013W        W 7532   1.291   3.920  11.865  0.0405  0.0237 -0.2315
 4014W        W 7533   3.548   9.287  10.814  0.2312  0.2024 -0.2609
 4015W        W 7534   8.240   6.398  11.894 -0.1470  0.0526  0.0465
 4016W        W 7535   2.053   5.978   0.538  0.1399 -0.2323 -0.3517
 4017W        W 7536   8.823   7.891  12.366 -0.1273  0.0104  0.0537
 4018W        W 7537   1.351   3.678   0.271  0.0528 -0.1384 -0.0426
 4019W        W 7538   5.273   7.270   0.267 -0.0206 -0.1728 -0.0480
 4020W        W 7539   4.243   4.356  11.187  0.1993  0.1105 -0.3405
 4021W        W 7540   3.211   3.837   8.981  0.1973  0.0047  0.1100
 4022W        W 7541   0.945   3.868   1.993 -0.1376 -0.0892 -0.1772
 4023W        W 7542   8.113   0.645   2.529 -0.0527  0.4721 -0.1673
 4024W        W 7543   2.448   0.612   8.703 -0.0698  0.1853  0.1434
 4025W        W 7544   8.206   7.391  10.206 -0.1492  0.1310  0.0382
 4026W        W 7545   5.922   2.059   2.360 -0.0432 -0.0842 -0.2787
 4027W        W 7546   1.272   1.877   1.640 -0.0726 -0.0680 -0.1492
 4028W        W 7547   1.565   3.133   8.894  0.0939  0.0762 -0.3962
 4029W        W 7548   3.666   9.309   2.511 -0.0978  0.0673  0.0730
 4030W        W 7549   2.702   9.352   1.912 -0.0202 -0.1547  0.0351
 4031W        W 7550   9.117   5.401   0.132 -0.1368  0.1769 -0.1797
 4032W        W 7551   5.222   3.445  10.873  0.2255 -0.0313 -0.1369
 4033W        W 7552   8.152   5.905   9.099  0.1204  0.1262  0.0365
 4034W        W 7553   7.096   0.249  11.362 -0.0733  0.4115 -0.4498
 4035W        W 7554   3.754   5.391   9.527  0.0774  0.1004  0.1216
 4036W        W 7555   1.105   3.891   4.698 -0.1259  0.0474  0.1717
 4037W        W 7556   7.117   5.460   9.122  0.1108  0.1011  0.1662
 4038W        W 7557   9.668   7.234  10.313 -0.0108 -0.2293 -0.3680
 4039W        W 7558   8.025   2.069   0.540  0.3147  0.3334  0.0719
 4040W        W 7559   5.502   3.279  11.903 -0.2612 -0.0693 -0.0792
 4041W        W 7560   3.719   0.318  11.728  0.1129 -0.0032  0.2458
 4042W        W 7561   6.741   2.824  10.245  0.1911 -0.0047  0.0093
 4043W        W 7562   9.514   7.558   9.707  0.0033 -0.3626  0.2633
 4044W        W 7563   1.842   1.090   9.863 -0.3790  0.2254 -0.1293
 4045W        W 7564   0.167   7.434   2.205  0.1076 -0.1564  0.0514
 4046W        W 7565   2.759   5.459   9.772  0.1489  0.0866 -0.2891
 4047W        W 7566   8.744   1.909   3.500  0.2864 -0.0646 -0.0588
 4048W        W 7567   0.162   8.834  10.445 -0.2324  0.0340  0.0045
 4049W        W 7568   3.166   7.090   9.551 -0.0921  0.2086 -0.0277
 4050W        W 7569   2.622   2.500   3.366  0.4326 -0.0904 -0.1068
 4051W        W 7570   1.366   7.567  11.213  0.1966  0.1740 -0.3970
 4052W        W 7571   5.128   6.292  11.466 -0.0971  0.2961  0.0778
 4053W        W 7572   1.461   3.842   8.761 -0.1529 -0.3226 -0.0767
 4054W        W 7573   4.226   5.268   0.373 -0.2314  0.0814  0.3534
 4055W        W 7574   2.386   4.192   4.539 -0.0665 -0.0459  0.1094
 4056W        W 7575   6.038   9.469  10.658 -0.0334  0.3472 -0.1834
 4057W        W 7576   9.606   2.064   2.418 -0.1576 -0.0582  0.0788
 4058W        W 7577   4.440   3.085   1.744  0.0203  0.2669 -0.1596
 4059W        W 7578   5.196   4.562   0.931  0.0115 -0.1046 -0.1953
 4060W        W 7579   1.692   1.527   3.095 -0.0054  0.2177  0.4603
 4061W        W 7580   2.308   2.423   1.325  0.3739 -0.0971  0.1377
 4062W        W 7581   5.485   0.666   3.224  0.1325 -0.1357 -0.0589
 4063W        W 7582   3.173   8.373  10.815 -0.1626  0.3209 -0.2196
 4064W        W 7583   3.136   2.296   0.566  0.0551 -0.0918 -0.1282
 4065W        W 7584   0.492   4.518  10.716 -0.0627 -0.1938 -0.0659
 4066W        W 7585   1.621   2.107   3.132 -0.2631  0.1853  0.4084
 4067W        W 7586   1.382   2.608  10.745 -0.0796  0.1852  0.0138
 4068W        W 7587   8.391   9.143  12.002 -0.0385  0.1254  0.3574
 4069W        W 7588   5.240   0.833  12.423  0.3665  0.1034 -0.0141
 4070W        W 7589   6.618   8.620   3.352  0.2279 -0.0257  0.1814
 4071W        W 7590   5.075   5.692   0.381  0.0446 -0.0542 -0.1636
 4072W        W 7591   3.058   9.404  10.580 -0.4978  0.0255 -0.2601
 4073W        W 7592   1.252   2.466   2.642  0.3516  0.1288  0.2527
 4074W        W 7593   4.878   1.181  11.495 -0.0620 -0.3027 -0.1440
 4075W        W 7594   6.576   2.713   8.790  0.1527  0.2409  0.0943
 4076W        W 7595   1.232   9.573  10.035  0.0122  0.3590 -0.1630
 4077W        W 7596   5.881   2.912   1.935 -0.2934 -0.1972  0.1203
 4078W        W 7597   7.687   4.653   3.363  0.0238 -0.0934  0.3295
 4079W        W 7598   3.760   5.303   0.423  0.0546  0.2146 -0.2488
 4080W        W 7599   6.453   1.121   0.510  0.1332 -0.0620 -0.0091
 4081W        W 7600   5.889   0.529   0.920  0.0486 -0.1440  0.0767
 4082W        W 7601   2.921   8.200  11.259  0.0094  0.0607 -0.1969
 4083W        W 7602   7.760   0.699  11.889 -0.0565  0.1902 -0.1172
 4084W        W 7603   0.627   0.760   9.628  0.0362  0.0481 -0.1507
 4085W        W 7604   0.525   3.180  10.811 -0.1719  0.0482 -0.0702
 4086W        W 7605   1.536   0.907   9.072 -0.1983  0.4631  0.0367
 4087W        W 7606   7.854   1.876   2.062 -0.1870  0.1135 -0.0318
 4088W        W 7607   2.880   1.898   0.586  0.1793  0.3890  0.3935
 4089W        W 7608   9.094   9.680   3.784 -0.0491 -0.0931  0.1418
 4090W        W 7609   9.673   6.441   9.049 -0.0167  0.3149  0.0511
 4091W        W 7610   7.795   1.881  10.643 -0.1899 -0.0184 -0.0463
 4092W        W 7611   7.602   5.407   3.772 -0.0091  0.2106  0.0269
 4093W        W 7612   4.750   6.749   2.543  0.1591  0.2384 -0.0592
 4094W        W 7613   8.407   4.301  12.273 -0.0233 -0.0369  0.1991
 4095W        W 7614   6.258   2.533   0.664  0.0662 -0.2854 -0.1893
 4096W        W 7615   4.050   4.279   2.824 -0.0886 -0.0635  0.0410
 4097W        W 7616   7.763   7.303   1.682 -0.0603  0.2183 -0.1113
 4098W        W 7617   6.089   3.504  11.056 -0.0986  0.0203 -0.1814
 4099W        W 7618   2.850   1.589   3.868  0.0999 -0.2259  0.0993
 4100W        W 7619   7.825   3.366   0.360 -0.0485  0.2169 -0.3597
 4101W        W 7620   0.876   4.357   2.147 -0.3891  0.1198 -0.3192
 4102W        W 7621   8.902   5.205   3.489 -0.2352 -0.0550  0.1774
 4103W        W 7622   0.274   8.522  10.034  0.1054  0.2675 -0.0188
 4104W        W 7623   6.491   0.058  10.629  0.4735  0.0099 -0.1854
 4105W        W 7624   2.023   2.567   2.064 -0.0289  0.1387  0.1124
 4106W        W 7625   5.409   1.810   1.021 -0.2611 -0.0083 -0.0829
 4107W        W 7626   1.635   6.240   4.266  0.1223  0.1556  0.1158
 4108W        W 7627   2.655   5.261   1.837 -0.1295 -0.1558  0.0191
 4109W        W 7628   8.086   1.292   3.994 -0.1131  0.0143  0.3124
 4110W        W 7629   1.347   6.599  11.235 -0.3294 -0.0704 -0.1999
 4111W        W 7630   3.655   4.771   0.427  0.4347 -0.0825 -0.0519
 4112W        W 7631   8.373   7.762   0.426 -0.0579 -0.1913  0.0113
 4113W        W 7632   6.562   1.058  11.216 -0.0033 -0.2142 -0.2082
 4114W        W 7633   8.075   1.316   9.954  0.3278 -0.0363  0.3173
 4115W        W 7634   2.640   4.578   8.075  0.1603  0.0281  0.4114
 4116W        W 7635   0.753   6.943   1.607 -0.1068 -0.2951 -0.0091
 4117W        W 7636   9.202   2.000   4.420  0.2031 -0.4202 -0.0255
 4118W        W 7637   5.054   1.342   1.956  0.2672  0.4240 -0.1165
 4119W        W 7638   1.122   3.324  11.571 -0.3007  0.0724  0.3048
 4120W        W 7639   8.117   1.011   9.473 -0.1498 -0.1704 -0.0198
 4121W        W 7640   8.166   7.374  11.136 -0.1562  0.0214 -0.2002
 4122W        W 7641   2.095   1.656  10.933 -0.2197 -0.2695 -0.0050
 4123W        W 7642   2.728   3.088   9.915  0.0184 -0.2005  0.4315
 4124W        W 7643   2.936   3.356   3.422  0.0298 -0.1207  0.0686
 4125W        W 7644   6.313   5.532  10.402  0.1307 -0.2404 -0.1096
 4126W        W 7645   9.251   0.843   1.774 -0.1328 -0.1726 -0.2576
 4127W        W 7646   6.448   3.181  10.547 -0.1772  0.1191  0.1436
 4128W        W 7647   5.791   2.138  10.129 -0.1951 -0.1908  0.5307
 4129W        W 7648   8.721   3.783   3.770  0.2683  0.1676 -0.2087
 4130W        W 7649   4.620   5.067   8.765 -0.1134 -0.0013  0.0098
 4131W        W 7650   7.881   4.025  10.621 -0.0993 -0.1153 -0.0388
 4132W        W 7651   2.112   6.495   0.393 -0.3061  0.3464  0.1770
 4133W        W 7652   7.085   0.428   0.359 -0.0456 -0.2316  0.2109
 4134W        W 7653   0.301   7.397   9.880 -0.1215 -0.2065  0.1006
 4135W        W 7654   0.017   6.685   2.262 -0.1728  0.0729 -0.2551
 4136W        W 7655   7.304   8.986   9.470 -0.0464 -0.1298  0.1335
 4137W        W 7656   3.935   9.429   8.823  0.1092 -0.1295 -0.2642
 4138W        W 7657   2.368   9.016   1.935 -0.0396  0.2758 -0.0682
 4139W        W 7658   6.830   0.873  10.834  0.0680 -0.3390 -0.2924
 4140W        W 7659   0.258   2.015   2.806 -0.1753  0.0100  0.1704
 4141W        W 7660   5.318   3.667  11.584  0.1353  0.3024  0.2680
 4142W        W 7661   0.403   1.719   8.609  0.3257 -0.0243 -0.0444
 4143W        W 7662   3.313   3.212   0.297 -0.0571 -0.0465  0.2797
 4144W        W 7663   9.055   8.675  12.098  0.0844 -0.1531  0.2082
 4145W        W 7664   0.890   9.057  10.202 -0.1722  0.1578  0.1574
 4146W        W 7665   1.451   2.111   0.694  0.3221  0.0466  0.0121
 4147W        W 7666   6.687   6.028  11.069  0.2112  0.1486  0.4354
 4148W        W 7667   5.909   7.757   9.248 -0.1349  0.0699 -0.0009
 4149W        W 7668   6.464   8.477  12.312  0.1104 -0.0178  0.0483
 4150W        W 7669   4.791   7.268   1.257  0.0205 -0.0474 -0.0062
 4151W        W 7670   3.093   6.814   0.226 -0.1646  0.0741  0.2130
 4152W        W 7671   0.554   7.425   2.626  0.1114  0.1802 -0.0822
 4153W        W 7672   2.488   2.097   0.033 -0.0099  0.0746  0.1413
 4154W        W 7673   4.353   0.267   2.259  0.2183 -0.3408  0.2220
 4155W        W 7674   9.636   1.175   2.441  0.1576 -0.2422  0.2502
 4156W        W 7675   2.590   7.932   9.676 -0.2427 -0.4549  0.0345
 4157W        W 7676   0.467   0.543  10.745  0.0012 -0.0323 -0.1395
 4158W        W 7677   6.565   6.207   1.402  0.0925  0.3491  0.1852
 4159W        W 7678   4.485   0.389   9.193 -0.0179 -0.2370 -0.1763
 4160W        W 7679   2.476   1.680   7.609 -0.2095 -0.0148 -0.2648
 4161W        W 7680   1.899   5.992  11.368  0.1219 -0.0682  0.1200
 4162W        W 7681   2.735   7.732  10.514  0.0853 -0.2583  0.0762
 4163W        W 7682   5.248   3.181  11.459 -0.0152 -0.0863  0.1096
 4164W        W 7683   3.247   0.997   9.386  0.3478 -0.2746 -0.0486
 4165W        W 7684   7.243   4.214   1.348 -0.0453  0.2942  0.2009
 4166W        W 7685   8.296   8.306  11.128  0.0562 -0.0056  0.0884
 4167W        W 7686   4.932   4.116   0.311  0.2082 -0.1388 -0.4396
 4168W        W 7687   0.038   8.701  11.548 -0.1188  0.3104  0.0225
 4169W        W 7688   0.474   1.467  12.318  0.1526 -0.1392  0.0286
 4170W        W 7689   6.649   8.778   2.274  0.1372  0.1382 -0.2205
 4171W        W 7690   3.286   4.186   3.955  0.2712  0.0686 -0.1166
 4172W        W 7691   5.949   4.228  11.997 -0.1096  0.2890  0.1745
 4173W        W 7692   7.607   5.826   1.851  0.0874  0.0665  0.1778
 4174W        W 7693   4.479   7.768  11.897 -0.1320  0.1541  0.2500
 4175W        W 7694   9.563   7.652  10.959  0.1392 -0.1657  0.0001
 4176W        W 7695   7.564   1.947  11.080  0.0769  0.2452 -0.0292
 4177W        W 7696   7.291   7.488   0.039 -0.1701  0.0854  0.1428
 4178W        W 7697   8.132   4.285   9.868  0.2306 -0.0029  0.1487
 4179W        W 7698   0.140   5.633  11.613 -0.1708  0.2651  0.0513
 4180W        W 7699   2.676   7.375   2.071  0.1165  0.1562  0.1927
 4181W        W 7700   4.853   4.913  11.557 -0.2207  0.2084 -0.1140
 4182W        W 7701   3.467   0.928  10.392  0.0160 -0.0043 -0.0814
 4183W        W 7702   5.229   1.832  11.073  0.0008 -0.2597  0.0275
 4184W        W 7703   4.374   5.841   2.653  0.1545 -0.1274 -0.1117
 4185W        W 7704   3.372   4.948   7.831  0.1972  0.3925 -0.0446
 4186W        W 7705   4.537   9.629  12.220 -0.1868 -0.0067  0.1348
 4187W        W 7706   4.146   3.500   9.442  0.1297 -0.4114 -0.0400
 4188W        W 7707   7.276   1.768   0.341 -0.1750 -0.0525 -0.2368
 4189W        W 7708   0.482   4.633   1.375  0.3097  0.2442  0.3491
 4190W        W 7709   3.120   6.169   1.473  0.1910 -0.0894 -0.2536
 4191W        W 7710   5.573   3.565   3.333  0.1859 -0.1223 -0.0437
 4192W        W 7711   8.559   1.766  11.905  0.3465  0.0255  0.3155
 4193W        W 7712   2.164   8.797   1.490 -0.1645 -0.0309 -0.1621
 4194W        W 7713   3.651   5.479   3.631 -0.2585  0.0206  0.0347
 4195W        W 7714   6.748   2.381  11.154  0.1736 -0.0632  0.0058
 4196W        W 7715   4.069   0.642   0.028  0.1289  0.1897 -0.0601
 4197W        W 7716   1.730   3.365   0.307  0.2171 -0.2544  0.0944
 4198W        W 7717   7.795   0.077   0.185 -0.2395 -0.1912 -0.1701
 4199W        W 7718   7.931   8.377   3.332  0.0142 -0.0085  0.0087
 4200W        W 7719   6.634   4.173   0.664  0.0451 -0.0722 -0.0668
 4201W        W 7720   5.441   2.083   3.975 -0.3948  0.1060  0.0488
 4202W        W 7721   8.389   6.001  12.111  0.4273  0.2003  0.3489
 4203W        W 7722   8.386   1.953   8.291  0.2294 -0.2359 -0.0942
 4204W        W 7723   1.659   7.369   9.449 -0.0233 -0.4403 -0.1320
 4205W        W 7724   2.748   1.804   9.426  0.2983 -0.2836 -0.1423
 4206W        W 7725   4.453   3.332  10.195  0.1161 -0.4794 -0.1287
 4207W        W 7726   7.239   8.861  11.852 -0.3696  0.1489  0.1419
 4208W        W 7727   0.487   0.204   3.218  0.3883 -0.1689  0.0733
 4209W        W 7728   6.199   5.509   1.466 -0.4116  0.0060  0.0129
 4210W        W 7729   1.172   5.607  10.022 -0.1790 -0.1830  0.0456
 4211W        W 7730   2.583   0.314   3.027 -0.0752  0.0189  0.0458
 4212W        W 7731   5.011   1.105  10.602  0.2344  0.0230  0.1251
 4213W        W 7732   9.384   5.666  11.862 -0.1300  0.2398 -0.1630
 4214W        W 7733   4.026   2.522  10.208 -0.0338  0.0910 -0.2030
 4215W        W 7734   5.952   6.452   0.834 -0.0545  0.0941 -0.0104
 4216W        W 7735   8.824   9.312  11.810  0.3334 -0.2936  0.1941
 4217W        W 7736   5.308   9.622   9.398  0.0600  0.0090  0.1354
 4218W        W 7737   7.985   0.870   0.351 -0.0161  0.1726  0.1140
 4219W        W 7738   5.673   9.389   9.060 -0.0893 -0.1553  0.2987
 4220W        W 7739   8.326   1.825   1.800 -0.4154  0.1412 -0.1177
 4221W        W 7740   4.872   2.008   0.508 -0.0408  0.1879  0.2285
 4222W        W 7741   7.565   7.933   9.404 -0.1066  0.2840  0.1222
 4223W        W 7742   7.928   3.783  10.160  0.0269 -0.2071 -0.0039
 4224W        W 7743   4.185   1.646  11.134  0.1576 -0.1228  0.2972
 4225W        W 7744   5.227   2.647   1.383 -0.0735 -0.1272  0.1206
 4226W        W 7745   3.804   5.307  10.916  0.0266 -0.2373  0.2069
 4227W        W 7746   2.988   6.435   9.613 -0.3287 -0.0972 -0.1757
 4228W        W 7747   6.912   3.884   9.088 -0.1152 -0.1619 -0.2574
 4229W        W 7748   8.691   1.366  10.560 -0.0659  0.1508 -0.2008
 4230W        W 7749   7.506   1.380   9.828  0.0187  0.3251 -0.1148
 4231W        W 7750   4.394   8.284  11.667  0.0380  0.2185 -0.4559
 4232W        W 7751   2.709   5.312   3.686 -0.3097 -0.0240  0.0315
 4233W        W 7752   8.220   6.412  10.080  0.1656  0.2205 -0.0195
 4234W        W 7753   3.142   1.984   3.910  0.0927 -0.1671 -0.0719
 4235W        W 7754   3.561   8.115  11.856 -0.0051 -0.0089 -0.0448
 4236W        W 7755   3.514   4.959   9.730  0.0316 -0.0737  0.4529
 4237W        W 7756   6.095   9.560  11.578 -0.0591 -0.2883  0.1976
 4238W        W 7757   3.065   3.389   2.497  0.0679 -0.1057 -0.1500
 4239W        W 7758   3.249   8.686   9.880  0.0774  0.1264  0.1395
 4240W        W 7759   7.760   7.568   9.661  0.2299 -0.2343  0.2174
 4241W        W 7760   6.125   0.943   3.230  0.1056  0.3050  0.0180
 4242W        W 7761   2.946   1.596  11.463 -0.0864 -0.1592  0.1608
 4243W        W 7762   5.284   4.662   3.321  0.1304 -0.1147  0.0480
 4244W        W 7763   1.373   7.114  12.433 -0.1147 -0.0447 -0.0143
 4245W        W 7764   1.995   9.278   2.711  0.3955  0.2678 -0.1231
 4246W        W 7765   3.780   7.224  11.828  0.0251  0.1862  0.2360
 4247W        W 7766   4.485   6.482  10.777 -0.0953 -0.4939  0.0071
 4248W        W 7767   5.152   8.414   2.929 -0.2036 -0.1329 -0.2737
 4249W        W 7768   0.059   9.544  12.274 -0.0857  0.0390 -0.2043
 4250W        W 7769   9.285   5.729   8.688 -0.0528 -0.3729  0.1999
 4251W        W 7770   9.523   9.218   7.855 -0.2349  0.0616 -0.1283
 4252W        W 7771   1.892   6.444   1.331  0.1745  0.2698 -0.1275
 4253W        W 7772   5.320   8.907   0.629  0.2158  0.0838  0.2565
 4254W        W 7773   8.893   4.260   3.535  0.1255 -0.1355  0.0369
 4255W        W 7774   9.295   0.476  11.782  0.0047  0.2612  0.1028
 4256W        W 7775   6.353   1.214  11.697  0.0427 -0.1441 -0.0149
 4257W        W 7776   7.360   3.520   0.570 -0.3255  0.0083 -0.1173
 4258W        W 7777   0.697   8.873   2.382 -0.2902  0.0405 -0.0090
 4259W        W 7778   5.237   2.463   2.614 -0.1974  0.1163 -0.3269
 4260W        W 7779   1.434   0.405  10.269  0.4047 -0.1743  0.1353
 4261W        W 7780   3.244   6.369   3.554 -0.3488 -0.3988  0.0887
 4262W        W 7781   8.663   4.199   9.972 -0.0422  0.1443  0.1880
 4263W        W 7782   5.549   1.118   9.379 -0.1026  0.1574 -0.1507
 4264W        W 7783   8.419   2.752   2.578  0.0893  0.2002 -0.2704
 4265W        W 7784   1.172   7.452   3.145 -0.1884  0.2059  0.1407
 4266W        W 7785   2.606   4.194   1.070 -0.4246 -0.2703 -0.3080
 4267W        W 7786   4.020   6.466  11.662  0.1111 -0.0646 -0.0096
 4268W        W 7787   9.577   8.044   3.992 -0.0579  0.0932 -0.3287
 4269W        W 7788   3.248   5.597   0.248 -0.2250  0.1662 -0.3586
 4270W        W 7789   6.691   0.906   1.243  0.0535  0.1613  0.0823
 4271W        W 7790   2.374   0.112  12.085  0.0081  0.1054 -0.4578
 4272W        W 7791   8.791   7.222  10.324 -0.3074 -0.0812  0.1762
 4273W        W 7792   7.276   6.115   3.308  0.1052  0.1033  0.1524
 4274W        W 7793   1.982   5.344  12.152  0.0032 -0.1663 -0.1953
 4275W        W 7794   7.144   9.506   9.823 -0.2461  0.0723  0.0957
 4276W        W 7795   0.915   2.543   9.709  0.0754  0.1964  0.2101
 4277W        W 7796   5.538   5.304   2.266  0.1366 -0.1685  0.0955
 4278W        W 7797   5.018   5.902   3.588 -0.0059 -0.0413 -0.1054
 4279W        W 7798   0.811   0.099   1.202 -0.1110 -0.0179  0.2503
 4280W        W 7799   9.641   9.624   9.543  0.1709 -0.0007  0.1269
 4281W        W 7800   6.163   4.222   9.749 -0.2028 -0.3967 -0.2960
 4282W        W 7801   6.961   1.947  11.198 -0.1229  0.2884  0.0718
 4283W        W 7802   8.582   3.312   3.790  0.0280 -0.3680 -0.1970
 4284W        W 7803   3.133   7.325  10.630  0.2508  0.0037 -0.0558
 4285W        W 7804   8.028   1.614   9.495 -0.2740 -0.2418  0.1629
 4286W        W 7805   7.555   2.765  11.081 -0.1186  0.0769 -0.1554
 4287W        W 7806   0.244   0.161  10.498 -0.2621 -0.0437  0.0613
 4288W        W 7807   7.862   8.768   0.026 -0.1704  0.0634 -0.2027
 4289W        W 7808   6.655   4.763   3.749 -0.0004  0.1186  0.1143
 4290W        W 7809   8.860   7.317   1.899  0.1913 -0.4434 -0.0049
 4291W        W 7810   7.996   0.147   2.395  0.1964  0.0246  0.0843
 4292W        W 7811   8.159   7.195   3.553 -0.0720  0.2808 -0.0097
 4293W        W 7812   7.288   7.297   1.756  0.1616  0.2068 -0.2315
 4294W        W 7813   7.539   2.381   8.741 -0.0041  0.0062  0.0182
 4295W        W 7814   0.817   3.478  10.521 -0.2525  0.0012  0.2257
 4296W        W 7815   6.954   0.056   2.558 -0.3917  0.1427 -0.2158
 4297W        W 7816   8.374   1.865   3.072 -0.0348  0.1172  0.1977
 4298W        W 7817   6.469   2.383  12.487 -0.3062 -0.2200 -0.2967
 4299W        W 7818   5.908   9.187  11.912 -0.1227 -0.2695 -0.0738
 4300W        W 7819   1.544   8.489  12.351 -0.0816 -0.0441  0.1124
 4301W        W 7820   1.509   3.020  12.427 -0.2722  0.1463 -0.1330
 4302W        W 7821   4.530   2.299   3.254  0.2296 -0.1746  0.1079
 4303W        W 7822   3.835   4.003   9.694  0.2912 -0.1062 -0.2288
 4304W        W 7823   8.371   0.723   8.918  0.2948  0.2008 -0.1748
 4305W        W 7824   0.979   7.451  11.544 -0.0347 -0.1695 -0.0660
 4306W        W 7825   8.703   8.672   1.427  0.1001  0.0617 -0.0021
 4307W        W 7826   1.960   0.732   1.500  0.1309  0.0236 -0.3124
 4308W        W 7827   0.162   0.158   0.239  0.3246 -0.0105  0.1406
 4309W        W 7828   3.586   5.050  11.958 -0.1556 -0.0030 -0.0118
 4310W        W 7829   3.879   2.262   2.510 -0.0469 -0.3106  0.3166
 4311W        W 7830   9.409   1.232  11.312 -0.0794  0.0484 -0.0599
 4312W        W 7831   3.245   1.973  11.114 -0.3102 -0.1155 -0.1667
 4313W        W 7832   4.704   7.189   3.316 -0.3561 -0.1032  0.0823
 4314W        W 7833   6.317   1.739   8.956 -0.1061  0.1554 -0.0682
 4315W        W 7834   0.978   1.013   0.005 -0.1877 -0.2949 -0.1912
 4316W        W 7835   4.854   2.991   0.489  0.1507  0.3328 -0.2305
 4317W        W 7836   7.474   6.576   2.439  0.2213 -0.0823  0.2055
 4318W        W 7837   7.440   4.907  10.915  0.1460 -0.4719 -0.1567
 4319W        W 7838   4.156   1.314   3.341 -0.0883  0.0635  0.0981
 4320W        W 7839   3.579   2.825  12.206 -0.2220  0.0265 -0.2574
 4321W        W 7840   6.041   8.062   1.455  0.0197 -0.1352 -0.3257
 4322W        W 7841   1.274   0.078   3.190 -0.0788 -0.1006  0.1331
 4323W        W 7842   6.126   5.115   7.525 -0.2576 -0.2509  0.0887
 4324W        W 7843   8.316   1.795   9.862  0.1336 -0.1020  0.3035
 4325W        W 7844   4.681   4.907   2.231 -0.1662 -0.0993  0.4967
 4326W        W 7845   3.758   7.684   9.115 -0.0773  0.1147  0.1443
 4327W        W 7846   0.769   5.047  12.387  0.0953  0.0456  0.1332
 4328W        W 7847   5.930   7.855   0.747  0.0178  0.0638 -0.0691
 4329W        W 7848   4.943   2.809   0.973  0.5293  0.0842  0.1595
 4330W        W 7849   8.012   1.670   0.910 -0.4856 -0.2258  0.2504
 4331W        W 7850   1.411   2.562   3.763  0.3590  0.1005  0.1343
 4332W        W 7851   7.559   1.704   9.476  0.2396 -0.1521 -0.0182
 4333W        W 7852   8.663   1.511   1.358  0.1101  0.3062  0.1124
 4334W        W 7853   0.318   3.081   4.915  0.0526 -0.0805 -0.2556
 4335W        W 7854   4.508   2.639   3.694  0.1633 -0.1318 -0.0741
 4336W        W 7855   1.430   5.361  10.358 -0.2036  0.1563  0.0283
 4337W        W 7856   2.223   4.533   2.597 -0.1907 -0.2683 -0.1476
 4338W        W 7857   3.846   1.929   0.102 -0.1002 -0.3971  0.0627
 4339W        W 7858   2.127   2.597   3.520  0.2182 -0.0095 -0.0467
 4340W        W 7859   7.971   3.726   0.694  0.1773 -0.0437 -0.0106
 4341W        W 7860   3.697   1.480   8.681 -0.0341  0.0889  0.1735
 4342W        W 7861   7.465   6.592   1.096  0.0720  0.0078  0.3326
 4343W        W 7862   0.176   2.187   2.016  0.3935 -0.1019 -0.1976
 4344W        W 7863   1.410   6.107  12.432  0.0747 -0.0175  0.0262
 4345W        W 7864   0.455   6.869  12.177 -0.2036 -0.0078  0.0673
 4346W        W 7865   1.128   9.073   9.724  0.0098  0.0882  0.0730
 4347W        W 7866   4.923   2.860   2.435  0.2228 -0.1231 -0.0206
 4348W        W 7867   0.866   3.782  11.460  0.2461  0.1135  0.2501
 4349W        W 7868   6.159   2.014   8.547  0.1500  0.0950  0.1078
 4350W        W 7869   5.809   1.826   0.570  0.0469  0.1310  0.1609
 4351W        W 7870   0.340   3.884   0.574  0.0130 -0.0134 -0.0151
 4352W        W 7871   0.450   9.692   9.278  0.1204  0.0935 -0.1158
 4353W        W 7872   6.314   5.836   8.096 -0.2002 -0.0257 -0.2507
 4354W        W 7873   8.334   2.975   1.010 -0.1615  0.1507 -0.1021
 4355W        W 7874   5.125   7.066  11.208  0.1276  0.1545  0.1158
 4356W        W 7875   4.837   0.040   9.590 -0.1891 -0.1855  0.0505
 4357W        W 7876   8.660   6.888   2.683  0.1914  0.0025  0.3455
 4358W        W 7877   8.642   8.834  12.325  0.1574 -0.1878 -0.2173
 4359W        W 7878   8.616   6.449  12.376  0.0752 -0.0693 -0.0695
 4360W        W 7879   7.639   2.974  11.516 -0.1606  0.0074 -0.0648
 4361W        W 7880   4.804   5.914   1.324  0.2653  0.1158  0.1375
 4362W        W 7881   2.701   5.981   1.277 -0.2788 -0.0544 -0.0562
 4363W        W 7882   8.238   1.162   2.536  0.3450  0.1839  0.0359
 4364W        W 7883   3.733   6.046  11.984  0.1235  0.2332  0.0877
 4365W        W 7884   8.036   2.050   0.029 -0.3503 -0.1820 -0.0808
 4366W        W 7885   0.814   1.667   0.856  0.1082 -0.0921 -0.1109
 4367W        W 7886   6.739   5.758   1.616  0.0941 -0.3017  0.0982
 4368W        W 7887   7.122   1.040   2.626  0.1046  0.3641  0.0155
 4369W        W 7888   2.961   4.991  11.221  0.2126  0.1222 -0.1244
 4370W        W 7889   8.394   1.037  10.273  0.0616 -0.2265  0.0695
 4371W        W 7890   0.324   5.548  10.017 -0.2175  0.0117 -0.0752
 4372W        W 7891   4.313   2.458   4.627  0.0576 -0.3509 -0.2080
 4373W        W 7892   8.801   5.001  10.154 -0.1290  0.0482  0.0798
 4374W        W 7893   7.562   1.246  11.552  0.0824  0.2454 -0.2494
 4375W        W 7894   1.794   7.069   8.565 -0.1097 -0.2569 -0.1315
 4376W        W 7895   6.379   3.966   2.036  0.0981 -0.0296 -0.0074
 4377W        W 7896   0.648   2.958   2.088  0.2489 -0.3100 -0.0209
 4378W        W 7897   3.113   5.367  12.046  0.0639 -0.1016 -0.1121
 4379W        W 7898   8.037   9.577  12.335 -0.2929 -0.0719  0.0002
 4380W        W 7899   2.054   3.562   2.134 -0.1398  0.0861  0.2644
 4381W        W 7900   9.114   9.085   3.453  0.0213 -0.1259  0.2416
 4382W        W 7901   7.564   9.677   2.545  0.0073 -0.1429 -0.0879
 4383W        W 7902   0.617   6.540  10.800 -0.1347  0.1976  0.0468
 4384W        W 7903   4.207   4.085   8.764 -0.2438 -0.0822 -0.2592
 4385W        W 7904   3.340   2.897  10.944 -0.0830 -0.0901  0.1500
 4386W        W 7905   4.863   4.171  12.091  0.1756  0.0133  0.0375
 4387W        W 7906   8.205   3.053   4.885 -0.0883 -0.0720  0.1042
 4388W        W 7907   3.265   3.321  12.138 -0.0368  0.3353  0.0661
 4389W        W 7908   7.170   8.750   0.207 -0.0498  0.1968 -0.2856
 4390W        W 7909   4.282   5.790  10.165 -0.4263 -0.2382  0.1737
 4391W        W 7910   4.052   2.187   0.628 -0.0195 -0.1858 -0.3546
 4392W        W 7911   4.716   7.172   0.399 -0.1935 -0.0093 -0.1592
 4393W        W 7912   2.280   2.757   9.293 -0.1365  0.0191 -0.0524
 4394W        W 7913   8.173   5.340   3.904  0.1731  0.1502  0.0143
 4395W        W 7914   8.718   5.044   9.152  0.2508  0.0086 -0.0699
 4396W        W 7915   1.570   3.657   2.001 -0.2442  0.6590 -0.3764
 4397W        W 7916   3.896   2.773  11.548  0.1225  0.1588  0.2645
 4398W        W 7917   6.929   4.104   3.441 -0.0248  0.0159  0.0084
 4399W        W 7918   4.070   8.165   9.595 -0.4169  0.0366  0.1113
 4400W        W 7919   8.267   7.965  12.498  0.2079 -0.2922 -0.0136
 4401W        W 7920   6.487   8.652  11.487  0.0786  0.2838 -0.0905
 4402W        W 7921   4.134   5.660  11.927  0.1248  0.2339 -0.0350
 4403W        W 7922   5.069   0.026   4.435 -0.0196 -0.0870  0.1369
 4404W        W 7923   1.345   9.349   3.495 -0.0897 -0.3170 -0.0953
 4405W        W 7924   8.196   9.398   0.337 -0.0197  0.2684 -0.1383
 4406W        W 7925   0.184   3.482   2.928 -0.1115  0.2565  0.0501
 4407W        W 7926   1.881   4.302   3.924 -0.0084  0.0234 -0.1485
 4408W        W 7927   3.310   3.187   7.786  0.0668 -0.0998 -0.0177
 4409W        W 7928   7.241   5.981   2.408  0.1140 -0.2552 -0.2012
 4410W        W 7929   5.827   3.284   2.295 -0.0813  0.2915 -0.0056
 4411W        W 7930   7.890   0.735   3.016 -0.0412  0.1505 -0.2587
 4412W        W 7931   0.450   4.334   2.864 -0.0044 -0.0493  0.1121
 4413W        W 7932   0.698   2.767   7.873 -0.0210  0.1662  0.1401
 4414W        W 7933   9.328   9.461   8.754  0.0731 -0.0561  0.1659
 4415W        W 7934   2.991   5.759   9.012 -0.0267  0.0670 -0.0761
 4416W        W 7935   3.458   1.752   8.284 -0.1592  0.1535 -0.1240
 4417W        W 7936   3.822   7.011  10.920 -0.3697 -0.0779  0.0433
 4418W        W 7937   5.006   1.682  12.028 -0.3895  0.1267  0.2934
 4419W        W 7938   8.889   0.155  11.926  0.1647  0.0144  0.1594
 4420W        W 7939   4.014   6.628  10.585  0.1707  0.0976  0.5555
 4421W        W 7940   2.426   6.723   2.024 -0.5417  0.0302  0.2308
 4422W        W 7941   8.495   2.381  12.480  0.1959  0.1509 -0.0765
 4423W        W 7942   7.535   2.565   3.811 -0.0884 -0.2844  0.0280
 4424W        W 7943   5.802   0.692   9.243 -0.2187  0.1146 -0.0399
 4425W        W 7944   5.382   7.927   9.477  0.1777 -0.1616 -0.2762
 4426W        W 7945   0.155   5.953  11.152 -0.1370 -0.0523 -0.1675
 4427W        W 7946   8.978   7.811   1.611 -0.0189 -0.0117 -0.1927
 4428W        W 7947   8.082   9.660   9.847  0.3754  0.0141  0.0747
 4429W        W 7948   1.711   0.181  11.243 -0.1230 -0.0533 -0.0297
 4430W        W 7949   0.501   3.774   1.062  0.4038  0.0078  0.0485
 4431W        W 7950   8.609   1.094  11.746  0.2913 -0.2258 -0.1205
 4432W        W 7951   3.633   3.572   0.970  0.0472  0.0295  0.0662
 4433W        W 7952   0.943   1.205  10.304  0.3940  0.0250  0.1637
 4434W        W 7953   2.656   8.254  10.673  0.0439 -0.1884  0.1497
 4435W        W 7954   4.605   7.784   1.586 -0.1937 -0.2077  0.1783
 4436W        W 7955   8.089   2.259   1.807  0.0379  0.0548 -0.0072
 4437W        W 7956   4.057   4.159   3.356 -0.0841  0.0084  0.1475
 4438W        W 7957   0.462   0.605   8.042  0.0261 -0.4097  0.0728
 4439W        W 7958   0.238   9.055  12.307  0.1874  0.1067 -0.0754
 4440W        W 7959   1.015   3.556   0.622 -0.1371 -0.0990  0.0063
 4441W        W 7960   1.371   6.317   1.022 -0.0076  0.2460 -0.1297
 4442W        W 7961   2.993   7.957  11.837 -0.0577 -0.0520  0.1499
 4443W        W 7962   0.319   0.524   3.614 -0.0731 -0.4126 -0.0846
 4444W        W 7963   8.213   6.226   3.720 -0.0845 -0.1658 -0.0541
 4445W        W 7964   4.276   6.635   3.356  0.2380 -0.3620 -0.1630
 4446W        W 7965   7.487   2.941   0.873  0.0537  0.1532  0.0946
 4447W        W 7966   4.019   0.642   9.230  0.1613 -0.0648 -0.3720
 4448W        W 7967   5.184   3.462   1.674  0.1669  0.1530  0.3007
 4449W        W 7968   1.080   0.850  12.123  0.0750  0.0032  0.1941
 4450W        W 7969   3.712   0.921   2.937  0.1822 -0.2269  0.0006
 4451W        W 7970   8.465   9.197  11.471 -0.1470 -0.3035 -0.1313
 4452W        W 7971   8.808   8.128   2.027  0.0739  0.0271  0.1736
 4453W        W 7972   7.819   1.650  11.506  0.0436 -0.0936 -0.1668
 4454W        W 7973   3.638   7.554   0.150  0.2654 -0.2337  0.1642
 4455W        W 7974   7.974   6.900  10.907 -0.0537  0.0293 -0.0383
 4456W        W 7975   3.015   1.504   2.894 -0.1090 -0.2402  0.2431
 4457W        W 7976   3.257   7.354   2.999  0.2474 -0.2639  0.1015
 4458W        W 7977   5.251   7.589   9.771 -0.1630 -0.1602 -0.0458
 4459W        W 7978   5.599   1.785  11.783 -0.2869 -0.0843  0.0137
 4460W        W 7979   1.437   2.634   9.380  0.1608  0.0584 -0.1304
 4461W        W 7980   6.394   4.637   0.962 -0.1253 -0.0930 -0.0506
 4462W        W 7981   5.362   6.341   8.084  0.1471 -0.0016 -0.0977
 4463W        W 7982   9.051   6.290   9.633  0.0639 -0.1011  0.0140
 4464W        W 7983   8.115   7.669   3.740  0.3866  0.1371 -0.0452
 4465W        W 7984   3.835   9.375   0.162 -0.0073 -0.0912 -0.1286
 4466W        W 7985   8.338   1.020   1.531 -0.1328 -0.2777  0.2878
 4467W        W 7986   6.969   8.457   1.708 -0.1092 -0.0409  0.1972
 4468W        W 7987   4.639   8.884   9.947  0.0191 -0.0501 -0.0228
 4469W        W 7988   6.418   0.899   1.932  0.0803 -0.2747  0.2604
 4470W        W 7989   1.464   5.686  11.302  0.1322 -0.0326  0.0226
 4471W        W 7990   1.974   3.209   8.512 -0.2524  0.1992 -0.3107
 4472W        W 7991   6.798   9.126   0.409 -0.0981  0.1429 -0.1447
 4473W        W 7992   4.276   5.091   3.737  0.4162  0.1347  0.3422
 4474W        W 7993   8.623   0.372   2.572 -0.0681  0.0849 -0.0477
 4475W        W 7994   3.778   3.885   3.756  0.2862  0.1875  0.1746
 4476W        W 7995   5.706   9.259  10.331 -0.0982 -0.0754  0.0392
 4477W        W 7996   4.538   8.987   9.487  0.1414 -0.3159  0.2735
 4478W        W 7997   1.067   5.106   8.425 -0.2445 -0.0017  0.4440
 4479W        W 7998   6.577   3.514   9.138  0.4412 -0.4606  0.0136
 4480W        W 7999   7.114   4.186   9.958  0.2434  0.4012 -0.0456
 4481W        W 8000   2.240   9.587  10.507  0.1379  0.2146  0.1220
 4482W        W 8001   1.943   6.930  11.610  0.0256 -0.3658 -0.0639
 4483W        W 8002   7.930   5.145   9.673  0.1919  0.0682 -0.1981
 4484W        W 8003   5.975   6.803  11.214 -0.0326 -0.2257 -0.2121
 4485W        W 8004   2.192   6.481  11.442  0.2666  0.2394 -0.1164
 4486W        W 8005   7.697   4.227  11.547 -0.2108 -0.0198 -0.0945
 4487W        W 8006   6.754   4.350   1.207 -0.1132 -0.0797 -0.2037
 4488W        W 8007   7.758   2.843   0.417  0.2216 -0.0567  0.1518
 4489W        W 8008   2.669   7.687  11.505  0.0184  0.2059  0.0109
 4490W        W 8009   3.410   6.946   1.158 -0.0249 -0.1769 -0.0331
 4491W        W 8010   3.671   1.265   2.196  0.2431  0.0084  0.2312
 4492W        W 8011   1.696   3.498  11.692 -0.1969 -0.3387  0.1407
 4493W        W 8012   2.255   4.464   0.452  0.1204  0.0051 -0.0945
 4494W        W 8013   2.605   8.272  11.607  0.4125 -0.1855 -0.1151
 4495W        W 8014   9.413   2.057   3.969  0.0723  0.2315 -0.0724
 4496W        W 8015   3.313   0.390  11.983  0.2276  0.2511 -0.0912
 4497W        W 8016   7.654   0.919   2.601  0.0584  0.2068  0.2045
 4498W        W 8017   3.135   4.456   1.039 -0.0205 -0.1703 -0.1527
 4499W        W 8018   7.930   7.477   2.767 -0.0773 -0.0627 -0.1428
 4500W        W 8019   2.659   4.139   2.299 -0.0168  0.0515 -0.0154
 4501W        W 8020   8.587   0.330   3.709 -0.2583 -0.2090 -0.0649
 4502W        W 8021   7.091   2.284   0.152 -0.1455 -0.0770  0.2796
 4503W        W 8022   1.625   5.240   3.899 -0.0360  0.2488  0.1309
 4504W        W 8023   0.038   7.900   1.523 -0.0366 -0.1998 -0.0125
 4505W        W 8024   0.884   6.824   9.356 -0.0758 -0.0681 -0.3760
 4506W        W 8025   3.069   1.191   3.661 -0.3132 -0.1147  0.0177
 4507W        W 8026   8.322   6.695   1.084 -0.1748 -0.1095 -0.0449
 4508W        W 8027   6.017   5.991  11.336  0.0473  0.1472  0.0708
 4509W        W 8028   4.219   1.332   9.548 -0.1836  0.1985  0.2788
 4510W        W 8029   3.460   1.877   1.400  0.0497  0.0103 -0.0382
 4511W        W 8030   6.001   4.868   1.585 -0.0143  0.0434  0.0757
 4512W        W 8031   1.752   2.124   0.303 -0.0136 -0.0970  0.0563
 4513W        W 8032   4.246   7.895   0.713  0.4039 -0.0865 -0.4761
 4514W        W 8033   7.921   5.692   0.777  0.1466 -0.1904 -0.0934
 4515W        W 8034   4.290   4.592   3.580  0.1930  0.3190 -0.0196
 4516W        W 8035   0.206   5.344   3.299  0.3161 -0.1890  0.1104
 4517W        W 8036   9.208   6.636  11.714 -0.4893 -0.2883 -0.4022
 4518W        W 8037   5.045   4.290   9.069  0.3215 -0.0646 -0.0840
 4519W        W 8038   5.666   4.455   9.614  0.0570  0.1051 -0.3231
 4520W        W 8039   9.446   6.376   0.149 -0.3108 -0.0874 -0.0856
 4521W        W 8040   6.956   1.602   4.196 -0.0005 -0.3068 -0.1191
 4522W        W 8041   2.906   6.080   0.125 -0.1560 -0.1795  0.2326
 4523W        W 8042   1.779   6.346  12.139  0.2134  0.0022 -0.1344
 4524W        W 8043   8.052   6.463  11.097 -0.0367  0.2968  0.0154
 4525W        W 8044   5.186   0.535   8.655  0.1729 -0.3645 -0.1366
 4526W        W 8045   0.620   8.375   1.753  0.0686  0.1568  0.2766
 4527W        W 8046   6.625   5.216   2.399  0.1813 -0.2513  0.1199
 4528W        W 8047   4.813   9.055  11.322 -0.0907 -0.0958  0.1067
 4529W        W 8048   8.577   1.885   2.609  0.1185 -0.0120  0.0532
 4530W        W 8049   5.723   5.815  10.887 -0.1156 -0.4292  0.2705
 4531W        W 8050   4.736   1.132  12.059 -0.0142  0.0860 -0.1506
 4532W        W 8051   3.059   7.851   2.873  0.0463  0.0398  0.1377
 4533W        W 8052   8.250   4.541   1.573 -0.0650  0.0846  0.0745
 4534W        W 8053   2.252   8.579   0.768  0.0937 -0.0848  0.0345
 4535W        W 8054   6.908   1.180   0.706 -0.0709 -0.0764 -0.0786
 4536W        W 8055   4.068   5.192  11.978  0.2523  0.0931 -0.0931
 4537W        W 8056   2.143   8.238   0.448  0.2211  0.0441  0.0414
 4538W        W 8057   2.908   8.529   2.074 -0.0080  0.0956  0.1185
 4539W        W 8058   4.067   4.449  10.584  0.1495  0.0094 -0.1306
 4540W        W 8059   7.355   6.308   2.015 -0.0158 -0.0455  0.3957
 4541W        W 8060   0.838   5.415   9.429  0.0304 -0.0905  0.0222
 4542W        W 8061   4.867   2.137   7.782 -0.2875  0.0511  0.0775
 4543W        W 8062   6.699   5.735   2.250 -0.1729  0.1896  0.1588
 4544W        W 8063   7.473   4.801  12.502  0.0509  0.1858 -0.1003
 4545W        W 8064   5.138   6.303   9.215  0.0207  0.1668  0.2298
 4546W        W 8065   2.054   4.132   0.850  0.0914 -0.0124 -0.1284
 4547W        W 8066   9.432   0.958  10.906 -0.0616  0.1636  0.3270
 4548W        W 8067   9.215   8.956   8.728  0.1398  0.1505  0.1523
 4549W        W 8068   2.702   6.495   2.771 -0.3465  0.1254 -0.0685
 4550W        W 8069   4.784   3.216  10.968 -0.0609 -0.0733  0.3464
 4551W        W 8070   8.515   5.102  11.702 -0.1808  0.0813  0.2210
 4552W        W 8071   6.963   9.433  10.680 -0.0493  0.3044  0.1226
 4553W        W 8072   8.848   5.177   1.318  0.0292  0.5123  0.2851
 4554W        W 8073   7.039   7.644  11.203 -0.3448 -0.0764  0.1050
 4555W        W 8074   7.857   8.252  12.384  0.2013  0.1077 -0.0129
 4556W        W 8075   8.144   5.342  10.075 -0.0067  0.1650 -0.2245
 4557W        W 8076   5.712   9.058   0.283 -0.1260  0.2331 -0.0589
 4558W        W 8077   5.698   5.403  12.096 -0.0058  0.1568 -0.1322
 4559W        W 8078   5.952   1.299  10.588  0.1370  0.2177 -0.1264
 4560W        W 8079   9.565   2.567   1.979  0.1356  0.0977 -0.0181
 4561W        W 8080   0.441   6.031  11.556  0.3732 -0.0972 -0.2904
 4562W        W 8081   4.106   8.773   0.836  0.3043  0.0711  0.1306
 4563W        W 8082   4.237   1.193  11.884 -0.2409  0.0472 -0.0362
 4564W        W 8083   5.529   0.755  11.739 -0.0141 -0.1382  0.0738
 4565W        W 8084   2.293   2.192   1.846  0.2543  0.4181  0.0470
 4566W        W 8085   5.867   7.660  11.177 -0.3340 -0.3196  0.1390
 4567W        W 8086   4.598   6.663   1.995 -0.1398  0.0886 -0.1042
 4568W        W 8087   2.783   4.807   3.835  0.3471  0.0581  0.2519
 4569W        W 8088   2.076   0.547  12.142 -0.0438 -0.1448 -0.2962
 4570W        W 8089   6.840   3.035   1.889 -0.2512 -0.1303 -0.0284
 4571W        W 8090   6.092   3.815  11.644 -0.0435  0.2941 -0.0610
 4572W        W 8091   6.520   2.382   7.954 -0.1282 -0.0610 -0.0186
 4573W        W 8092   6.558   3.961   9.453  0.2483  0.1501 -0.2819
 4574W        W 8093   3.411   4.889   2.868 -0.2495  0.0695 -0.2367
 4575W        W 8094   1.290   0.837  10.066  0.0606  0.5602 -0.1886
 4576W        W 8095   0.166   3.590   4.874  0.0950 -0.1240 -0.2867
 4577W        W 8096   4.107   7.904   0.135 -0.0618  0.2818 -0.0158
 4578W        W 8097   5.809   6.357  12.148  0.1100 -0.0108  0.3985
 4579W        W 8098   3.791   2.744   2.626  0.0006  0.3252  0.0555
 4580W        W 8099   7.768   9.392   3.706 -0.3229 -0.0501 -0.0872
 4581W        W 8100   4.225   6.759  12.520 -0.0602 -0.1280 -0.1695
 4582W        W 8101   0.296   8.833   2.630  0.3728 -0.2097 -0.0093
 4583W        W 8102   0.652   8.708  11.526 -0.1149  0.4394  0.1524
 4584W        W 8103   3.542   9.495   9.758  0.0748  0.1791 -0.0435
 4585W        W 8104   8.099   2.614   9.556  0.1943  0.2255  0.1578
 4586W        W 8105   7.472   8.840   1.687  0.0497  0.1917 -0.1262
 4587W        W 8106   0.809   7.939   9.604  0.4273 -0.0433  0.1935
 4588W        W 8107   8.968   4.067   2.282  0.1209  0.2076 -0.4306
 4589W        W 8108   7.284   5.203  12.160 -0.0769 -0.1062 -0.0057
 4590W        W 8109   7.591   8.878   2.195  0.0346 -0.0732 -0.0639
 4591W        W 8110   4.095   4.422   0.129  0.3176  0.2726  0.3578
 4592W        W 8111   3.096   4.640   9.884 -0.3496 -0.3075  0.1653
 4593W        W 8112   1.139   6.822   0.286  0.2392  0.0274 -0.0431
 4594W        W 8113   3.921   1.048   0.283  0.2181  0.0547  0.1085
 4595W        W 8114   7.577   2.612   9.232 -0.0068 -0.1393 -0.2297
 4596W        W 8115   1.681   7.334  12.100 -0.1505  0.1506 -0.0510
 4597W        W 8116   0.691   8.932  12.426  0.0905 -0.0133  0.2656
 4598W        W 8117   7.568   7.921   3.905  0.0655  0.4669 -0.1670
 4599W        W 8118   0.687   5.041   3.677  0.6801 -0.0446 -0.1928
 4600W        W 8119   8.614   5.546   3.946 -0.1134 -0.0657 -0.0058
 4601W        W 8120   2.403   0.601   1.019 -0.0616  0.0893 -0.1176
 4602W        W 8121   9.593   5.540  12.316  0.0813  0.2836  0.0742
 4603W        W 8122   8.098   1.783  11.133  0.1901  0.0596  0.1062
 4604W        W 8123   5.569   7.600  10.748  0.1150  0.0763 -0.0080
 4605W        W 8124   2.823   2.611  11.110  0.2004  0.1131 -0.0605
 4606W        W 8125   0.317   4.925   4.106 -0.3759  0.0420 -0.1035
 4607W        W 8126   4.395   9.596   1.357  0.1362 -0.0258 -0.0865
 4608W        W 8127   6.407   5.462  12.371 -0.3183  0.2034 -0.1899
 4609W        W 8128   7.272   9.293   2.342 -0.1574  0.0145 -0.4516
 4610W        W 8129   1.491   0.352  10.757  0.1658  0.1951 -0.0176
 4611W        W 8130   3.963   7.046   0.251  0.1546 -0.1268 -0.1160
 4612W        W 8131   6.077   5.813   0.127 -0.1825 -0.2344  0.2203
 4613W        W 8132   6.386   2.772   3.987  0.2168 -0.0465  0.2456
 4614W        W 8133   4.495   3.851   2.341  0.0252  0.0467 -0.1924
 4615W        W 8134   8.510   1.315   9.578 -0.1317 -0.0680 -0.0949
 4616W        W 8135   2.112   2.230   9.213  0.1081  0.0947  0.0722
 4617W        W 8136   7.057   0.755   1.909 -0.0834  0.0054  0.0600
 4618W        W 8137   7.761   0.249  12.238  0.5011 -0.0664  0.1041
 4619W        W 8138   1.759   3.044   0.757  0.0746  0.3921  0.3675
 4620W        W 8139   5.837   3.513   0.834  0.1178  0.1068  0.2392
 4621W        W 8140   0.644   0.051  10.753  0.1694  0.1705 -0.1240
 4622W        W 8141   9.604   0.064   1.543 -0.3143 -0.1972  0.0427
 4623W        W 8142   3.504   4.832   1.282 -0.3098 -0.1157 -0.0423
 4624W        W 8143   0.869   7.783  11.121  0.1500 -0.0593 -0.1394
 4625W        W 8144   9.191   1.380   2.730 -0.0704 -0.1949 -0.1218
 4626W        W 8145   1.172   5.175   0.053 -0.0687 -0.3442 -0.0731
 4627W        W 8146   6.518   3.150  11.024  0.2803  0.0195 -0.0192
 4628W        W 8147   0.317   6.485  11.862 -0.1148 -0.0542 -0.1702
 4629W        W 8148   7.933   6.250  12.318  0.1940 -0.3042  0.3324
 4630W        W 8149   5.080   3.631   3.610  0.0034  0.2101 -0.1217
 4631W        W 8150   3.970   4.101   9.210  0.3972 -0.0562 -0.1325
 4632W        W 8151   6.203   1.902  11.260 -0.0840 -0.1350  0.0969
 4633W        W 8152   8.711   2.466   4.234 -0.1441  0.0006 -0.0188
 4634W        W 8153   6.863   0.536  12.460 -0.1113 -0.1167  0.0771
 4635W        W 8154   7.672   5.609  12.013 -0.1763 -0.1921  0.3589
 4636W        W 8155   9.218   2.504  10.262 -0.0401  0.2788  0.1478
 4637W        W 8156   6.268   3.078   8.857 -0.2026  0.1265 -0.0312
 4638W        W 8157   7.925   7.924   2.459 -0.0509 -0.0034 -0.3343
 4639W        W 8158   3.123   5.622   1.160  0.0105 -0.0052  0.0563
 4640W        W 8159   2.307   9.323   1.117 -0.0313 -0.2032  0.2258
 4641W        W 8160   0.972   2.528   1.100  0.2247  0.0282 -0.1106
 4642W        W 8161   5.363   4.112  11.964  0.3448 -0.0010  0.1588
 4643W        W 8162   5.193   7.193  11.726  0.1734 -0.4698 -0.0448
 4644W        W 8163   0.048   8.305   1.943 -0.3596  0.0215  0.2139
 4645W        W 8164   8.548   8.498   8.565  0.2118 -0.0400  0.0301
 4646W        W 8165   8.002   1.240  11.817  0.1407  0.1255 -0.2575
 4647W        W 8166   1.005   9.185   0.604  0.3233  0.0206 -0.1486
 4648W        W 8167   8.283   4.978   3.364  0.3726 -0.0265  0.2085
 4649W        W 8168   3.423   5.026  11.101 -0.1093  0.0974 -0.2463
 4650W        W 8169   7.044   6.684   2.937  0.1868 -0.0672 -0.0402
 4651W        W 8170   6.952   7.062   0.993  0.1751  0.0278  0.0217
 4652W        W 8171   7.746   5.212  11.109 -0.0645  0.2848  0.1286
 4653W        W 8172   3.573   1.427  10.562 -0.0101  0.0783 -0.0943
 4654W        W 8173   4.369   8.688  10.394 -0.1968 -0.0308 -0.1065
 4655W        W 8174   3.669   6.496   1.208 -0.0914 -0.1212 -0.0833
 4656W        W 8175   2.193   3.417  11.385  0.0907  0.0184 -0.3279
 4657W        W 8176   4.931   3.748   0.662  0.0761  0.1570 -0.1645
 4658W        W 8177   0.060   0.966  11.666  0.0174 -0.0195 -0.3750
 4659W        W 8178   9.159   3.953  12.148 -0.1692  0.0581 -0.1139
 4660W        W 8179   9.013   2.337  11.319  0.1580 -0.0746  0.1560
 4661W        W 8180   3.526   3.485   8.807 -0.1600  0.1175  0.0557
 4662W        W 8181   1.639   8.943  10.773 -0.3366  0.4543 -0.3986
 4663W        W 8182   7.276   8.216   9.795 -0.1559  0.1545  0.0144
 4664W        W 8183   2.255   3.506   3.874  0.0593  0.0376 -0.1046
 4665W        W 8184   8.396   8.421   7.760 -0.1149 -0.0457 -0.1448
 4666W        W 8185   1.826   8.368   9.942 -0.0132 -0.2642 -0.3611
 4667W        W 8186   1.886   9.200   9.387 -0.3346 -0.1019  0.0899
 4668W        W 8187   9.500   5.228   8.648  0.3599 -0.2496 -0.1424
 4669W        W 8188   5.783   4.102  12.498 -0.1991  0.1911 -0.3135
 4670W        W 8189   2.631   3.269   3.958 -0.2097  0.2175 -0.4956
 4671W        W 8190   6.447   4.394   3.485 -0.4020 -0.3833 -0.2877
 4672W        W 8191   7.713   4.932   4.262 -0.1047 -0.1132 -0.0486
 4673W        W 8192   0.289   1.106  11.260 -0.1209  0.0596  0.0449
 4674W        W 8193   3.000   3.019  11.308 -0.2729  0.1613  0.0202
 4675W        W 8194   4.894   3.052  10.176 -0.0461 -0.0985  0.4069
 4676W        W 8195   4.437   5.849   2.150  0.0103  0.2641 -0.0689
 4677W        W 8196   2.076   7.011   1.373 -0.0059 -0.3190  0.0127
 4678W        W 8197   5.758   8.466   8.126 -0.4093  0.1589  0.0472
 4679W        W 8198   0.417   7.959   2.020 -0.2569  0.2326  0.1853
 4680W        W 8199   1.230   6.577  10.413  0.1513  0.1040 -0.0423
 4681W        W 8200   3.990   7.568   9.622 -0.3433 -0.4384 -0.0774
 4682W        W 8201   3.629   2.951   3.050  0.2614  0.0218  0.1670
 4683W        W 8202   5.825   3.221  10.114  0.0409  0.0524 -0.1568
 4684W        W 8203   8.649   3.458   0.109  0.2551  0.2216  0.1683
 4685W        W 8204   7.697   4.233   9.611  0.0992  0.0827 -0.0109
 4686W        W 8205   5.243   8.165   2.139 -0.2964  0.1550  0.0402
 4687W        W 8206   8.467   4.544   3.624 -0.0350  0.4595 -0.2260
 4688W        W 8207   5.605   6.571   0.404 -0.0885  0.2875 -0.0296
 4689W        W 8208   3.067   3.682  11.366  0.0293 -0.1713  0.2026
 4690W        W 8209   2.970   1.934   2.650  0.1717  0.3516 -0.0091
 4691W        W 8210   0.299   0.246   1.243  0.0495  0.1881 -0.1627
 4692W        W 8211   2.665   2.222   2.383 -0.1853  0.2941  0.1875
 4693W        W 8212   2.909   0.507   1.672  0.0062 -0.0788  0.1591
 4694W        W 8213   9.040   1.947   9.282 -0.1083  0.1110 -0.1135
 4695W        W 8214   3.914   8.799  11.405 -0.1213  0.1285  0.0687
 4696W        W 8215   5.104   7.276   8.763  0.0458  0.0868 -0.3622
 4697W        W 8216   6.874   2.052   3.901 -0.0376  0.0400  0.1042
 4698W        W 8217   7.363   4.197   3.104 -0.1345 -0.1187  0.0219
 4699W        W 8218   5.756   0.375  11.923 -0.0284 -0.1671  0.2367
 4700W        W 8219   6.195   7.396   9.538  0.4545 -0.4802 -0.0550
 4701W        W 8220   4.908   2.429   9.935  0.0344 -0.0836 -0.0064
 4702W        W 8221   6.635   8.053  10.498  0.1564  0.0987 -0.1163
 4703W        W 8222   8.570   8.064   3.853  0.1946  0.4103  0.1626
 4704W        W 8223   8.706   1.589   4.403 -0.2392 -0.3819  0.1051
 4705W        W 8224   5.664   4.192  10.200  0.1346 -0.1130  0.2115
 4706W        W 8225   7.391   5.055   0.947 -0.0789  0.2455  0.1726
 4707W        W 8226   9.182   8.368   9.666  0.0657 -0.1071  0.1199
 4708W        W 8227   5.963   8.354  12.198 -0.2679  0.0698 -0.2719
 4709W        W 8228   9.532   8.418   9.216  0.1170 -0.1157 -0.3151
 4710W        W 8229   6.805   4.355   1.762 -0.1517 -0.0960 -0.1685
 4711W        W 8230   3.849   2.179   9.045 -0.2932 -0.0157 -0.0642
 4712W        W 8231   8.010   7.281   8.796  0.0382 -0.2423 -0.1268
 4713W        W 8232   5.013   5.099   3.132  0.2107 -0.1197 -0.2855
 4714W        W 8233   2.687   1.337   0.598  0.0190  0.0546  0.2899
 4715W        W 8234   6.917   1.950   2.195 -0.0877 -0.2267 -0.1879
 4716W        W 8235   2.301   1.979   1.152  0.0264  0.0636  0.0467
 4717W        W 8236   5.763   1.846   8.891 -0.0116  0.2658 -0.2684
 4718W        W 8237   1.106   6.265   2.505 -0.0161 -0.0298 -0.2028
 4719W        W 8238   4.730   5.489   3.467  0.3106  0.0716 -0.0149
 4720W        W 8239   9.243   2.633   9.401  0.2459  0.3329 -0.0909
 4721W        W 8240   4.497   9.686  11.645 -0.2630 -0.0050  0.1561
 4722W        W 8241   8.668   9.234   0.116  0.0949 -0.0441  0.3292
 4723W        W 8242   8.878   2.421   3.773 -0.1424  0.2537  0.2213
 4724W        W 8243   6.661   2.309   0.503  0.0513 -0.3148  0.2734
 4725W        W 8244   3.930   5.446   9.070 -0.0817 -0.1723 -0.0305
 4726W        W 8245   1.675   0.246   2.878  0.4111  0.2905  0.3079
 4727W        W 8246   4.095   0.148  11.271 -0.1973  0.0981 -0.0921
 4728W        W 8247   7.333   4.565   9.615 -0.2351 -0.3470 -0.0298
 4729W        W 8248   6.559   2.827  12.245  0.1644  0.3956  0.1646
 4730W        W 8249   4.996   3.352   9.474 -0.0562  0.1651 -0.2520
 4731W        W 8250   2.687   2.245   0.958 -0.1173  0.1804 -0.0696
 4732W        W 8251   2.891   2.508  11.639 -0.0246  0.2752  0.1359
 4733W        W 8252   9.524   5.348   9.760 -0.2567  0.1479  0.0740
 4734W        W 8253   8.471   1.776  10.768 -0.0052  0.1292 -0.2914
 4735W        W 8254   0.017   3.440   0.742  0.1603 -0.3557  0.2382
 4736W        W 8255   7.892   1.118   1.413 -0.0983  0.0450  0.0988
 4737W        W 8256   8.227   9.164   9.869  0.1257  0.2137  0.3068
 4738W        W 8257   8.387   0.274   9.609 -0.1607  0.0383 -0.1282
 4739W        W 8258   8.735   0.594  11.881  0.1159 -0.3084 -0.2143
 4740W        W 8259   3.724   1.459   9.246  0.1698 -0.1201  0.2941
 4741W        W 8260   7.372   2.696  10.269 -0.2257 -0.0895 -0.2370
 4742W        W 8261   5.187   1.963   2.518 -0.0113  0.0234 -0.0153
 4743W        W 8262   0.421   0.377  10.089 -0.2140 -0.0378  0.2775
 4744W        W 8263   1.745   4.176  11.748 -0.0336  0.1976  0.2066
 4745W        W 8264   9.452   5.994   1.126 -0.2661  0.0775 -0.1741
 4746W        W 8265   6.455   2.990   3.149  0.3828 -0.0995  0.0335
 4747W        W 8266   5.301   2.980   3.541  0.0424  0.0930  0.0602
 4748W        W 8267   7.301   3.368  10.329  0.2899 -0.0087  0.2148
 4749W        W 8268   1.308   4.325  12.113 -0.0219 -0.2475  0.5443
 4750W        W 8269   3.623   1.228   0.624 -0.1545  0.1678  0.0511
 4751W        W 8270   0.056   4.991  12.364  0.0909  0.1442  0.3422
 4752W        W 8271   6.328   0.369   3.897  0.3497 -0.2362  0.3093
 4753W        W 8272   4.259   6.171   0.613 -0.0744  0.2953 -0.1981
 4754W        W 8273   7.134   1.428  11.960 -0.4990 -0.0280  0.0169
 4755W        W 8274   0.673   7.539  12.378  0.1610 -0.1659  0.2088
 4756W        W 8275   9.707   1.917  12.066 -0.0686  0.2937  0.3557
 4757W        W 8276   4.367   4.895  10.640 -0.1077  0.1179 -0.2173
 4758W        W 8277   8.182   1.458   1.400 -0.0901 -0.0019  0.0223
 4759W        W 8278   0.365   1.617   3.164  0.0739  0.1288 -0.3520
 4760W        W 8279   9.344   4.559   8.915 -0.1584  0.1430  0.0103
 4761W        W 8280   7.511   5.526   0.127 -0.2370 -0.1879  0.1854
 4762W        W 8281   9.307   2.074   2.070  0.0987 -0.0162  0.0109
 4763W        W 8282   4.047   0.275  12.141 -0.1437 -0.2304 -0.1434
 4764W        W 8283   8.565   3.438   4.694  0.0919  0.0792 -0.0090
 4765W        W 8284   5.616   1.321   0.808  0.2535 -0.1974  0.1279
 4766W        W 8285   1.123   5.000   9.143 -0.2369  0.3260 -0.1506
 4767W        W 8286   5.173   5.696   2.206  0.1991  0.3853 -0.3903
 4768W        W 8287   1.815   2.604   0.568  0.2614 -0.1078 -0.2641
 4769W        W 8288   9.347   1.616   2.304  0.0011  0.1165  0.0107
 4770W        W 8289   3.308   4.187   2.880  0.1912  0.0615 -0.0101
 4771W        W 8290   4.365   3.429   2.665  0.0101  0.2158  0.1919
 4772W        W 8291   5.530   5.379  10.795  0.2278  0.2255 -0.1629
 4773W        W 8292   4.429   4.679   0.957 -0.0354  0.0945  0.1696
 4774W        W 8293   6.917   1.143   2.197  0.3806  0.0418  0.1021
 4775W        W 8294   8.537   0.620  10.478  0.0035 -0.1503  0.1156
 4776W        W 8295   8.204   4.884   8.369  0.2029  0.0293 -0.1164
 4777W        W 8296   0.143   3.409   1.892 -0.2445  0.2618 -0.5537
 4778W        W 8297   6.409   3.904   3.481  0.1242  0.1053 -0.2869
 4779W        W 8298   4.387   5.066   1.387  0.0132  0.2366 -0.2549
 4780W        W 8299   9.372   6.543   3.671  0.3030 -0.0081  0.3328
 4781W        W 8300   5.485   0.668  10.127 -0.1967  0.0407  0.1399
 4782W        W 8301   9.215   7.884   9.915  0.2009  0.3067 -0.1190
 4783W        W 8302   8.574   8.041   8.976 -0.0819  0.0644  0.1047
 4784W        W 8303   6.938   6.284  11.501  0.0570 -0.0634 -0.3712
 4785W        W 8304   3.285   1.136   4.098 -0.0234  0.0791 -0.3085
 4786W        W 8305   6.571   3.586  10.771  0.2219 -0.2679 -0.1894
 4787W        W 8306   9.593   2.378   2.805 -0.1557 -0.0386 -0.0642
 4788W        W 8307   4.795   2.202  10.697 -0.2438  0.0003 -0.0910
 4789W        W 8308   2.020   1.372   2.718  0.0618 -0.1789 -0.1638
 4790W        W 8309   5.683   9.622   0.127 -0.1171 -0.0119 -0.2847
 4791W        W 8310   2.842   3.612   8.544  0.1916 -0.0214  0.0266
 4792W        W 8311   6.976   7.698   2.457 -0.0996 -0.1216 -0.0053
 4793W        W 8312   9.603   4.004   0.631 -0.2694  0.1926 -0.1128
 4794W        W 8313   5.453   6.569   3.167 -0.0072  0.0643 -0.0347
 4795W        W 8314   0.166   2.946   2.203 -0.1397  0.0216  0.2000
 4796W        W 8315   7.904   0.944   2.161  0.0023 -0.0228 -0.1423
 4797W        W 8316   6.504   5.746   1.185  0.0968 -0.1861 -0.2327
 4798W        W 8317   6.454   4.067   3.038 -0.2739  0.0118 -0.0932
 4799W        W 8318   6.278   7.030   2.769 -0.0064 -0.3376  0.0305
 4800W        W 8319   6.321   7.041   0.102  0.0602  0.1973  0.2753
 4801W        W 8320   8.858   5.247   1.795 -0.0396  0.1089  0.0294
 4802W        W 8321   5.659   2.412   9.174 -0.1295  0.0641 -0.2229
 4803W        W 8322   4.258   2.990   9.467 -0.0057 -0.0981  0.0109
 4804W        W 8323   1.970   4.273  12.259  0.2817  0.1260 -0.0111
 4805W        W 8324   0.581   5.834   0.311 -0.2965 -0.1138  0.0003
 4806W        W 8325   7.798   0.269   1.476 -0.0330  0.0872  0.1108
 4807W        W 8326   9.297   4.434  12.340  0.1097  0.0887 -0.4266
 4808W        W 8327   4.274   8.551   9.333  0.0592 -0.0058 -0.2395
 4809W        W 8328   8.945   0.359   0.935 -0.0011  0.2498  0.2171
 4810W        W 8329   8.094   1.784  12.160 -0.0379 -0.1116 -0.1309
 4811W        W 8330   7.343   0.277   1.053  0.0462 -0.0386  0.5948
 4812W        W 8331   5.871   1.564   0.033  0.4087  0.1062  0.2756
 4813W        W 8332   4.466   5.237   0.830 -0.1828 -0.1522 -0.1969
 4814W        W 8333   5.128   9.490  12.289  0.0378 -0.1659 -0.1487
 4815W        W 8334   7.817   1.398   2.326  0.2926  0.0064 -0.1358
 4816W        W 8335   0.499   6.108   9.356  0.1833 -0.4380  0.1369
 4817W        W 8336   5.640   4.129   1.184  0.0038  0.0899 -0.1260
 4818W        W 8337   5.610   7.033  11.523  0.1302  0.2859  0.1213
 4819W        W 8338   5.393   6.961   4.261  0.1459  0.2245  0.1413
 4820W        W 8339   9.698   5.928   9.593 -0.0482  0.0808  0.2799
 4821W        W 8340   8.369   8.367   1.113  0.1254  0.1061 -0.1333
 4822W        W 8341   0.887   9.335  10.673  0.1949 -0.2411 -0.0914
 4823W        W 8342   7.802   3.031  12.469  0.1155  0.0124 -0.0647
 4824W        W 8343   2.450   0.680  11.766 -0.0946 -0.2037  0.0770
 4825W        W 8344   6.652   7.296   8.474 -0.0641  0.2265  0.3678
 4826W        W 8345   6.269   4.753   2.377  0.1542 -0.2314  0.1862
 4827W        W 8346   5.187   8.362  10.796 -0.1403  0.3926 -0.4701
 4828W        W 8347   3.794   6.121   0.849  0.1949 -0.0736 -0.1386
 4829W        W 8348   2.809   3.750   9.354 -0.0833  0.0743  0.2211
 4830W        W 8349   4.501   8.984  10.929  0.0064 -0.1794 -0.0749
 4831W        W 8350   8.215   8.154   2.895 -0.0051 -0.0521  0.1830
 4832W        W 8351   0.888   1.703   3.434 -0.1964 -0.1501  0.1429
 4833W        W 8352   7.284   8.689   9.914 -0.1618  0.2822  0.0900
 4834W        W 8353   4.846   4.521   9.995 -0.1258 -0.1489 -0.0922
 4835W        W 8354   2.777   6.928   2.394 -0.1112 -0.0170  0.0248
 4836W        W 8355   8.310   4.570   0.627 -0.0349  0.1600  0.1532
 4837W        W 8356   0.841   9.525   9.047  0.1620  0.1813  0.1246
 4838W        W 8357   1.101   0.707  11.614  0.3224 -0.0998  0.1383
 4839W        W 8358   5.327   0.816   9.024 -0.2069  0.0769  0.0386
 4840W        W 8359   3.164   2.402   3.603 -0.0597 -0.0963  0.0664
 4841W        W 8360   1.547   0.194   9.795 -0.3052 -0.3536 -0.0261
 4842W        W 8361   1.192   1.267   9.308  0.1053  0.0018 -0.2190
 4843W        W 8362   3.375   8.662   3.136  0.0909  0.2737  0.1309
 4844W        W 8363   3.703   3.119   0.780 -0.4224  0.0085  0.2567
 4845W        W 8364   9.052   0.533  10.527  0.0296 -0.3209 -0.1437
 4846W        W 8365   0.022   1.649   0.011  0.2146 -0.0803  0.0702
 4847W        W 8366   7.682   9.241   9.970  0.0743  0.0772  0.3722
 4848W        W 8367   7.668   7.457   9.136 -0.2936 -0.1880 -0.2937
 4849W        W 8368   9.330   7.220   8.746  0.0723 -0.1003 -0.0739
 4850W        W 8369   0.894   4.895   1.187  0.0171 -0.1638  0.0084
 4851W        W 8370   3.363   5.418  10.351  0.0983  0.2348  0.0718
 4852W        W 8371   8.073   4.130   8.789  0.0173 -0.0253 -0.0623
 4853W        W 8372   8.101   8.008  12.044 -0.0186 -0.2653 -0.0411
 4854W        W 8373   7.478   8.985   3.851  0.2653 -0.2533  0.1442
 4855W        W 8374   6.794   7.143   2.020 -0.2587 -0.0610  0.0841
 4856W        W 8375   5.863   9.502   2.323 -0.1284 -0.2646  0.0015
 4857W        W 8376   4.087   2.085   2.052 -0.4120  0.2609 -0.2333
 4858W        W 8377   7.997   3.194   1.286 -0.2584  0.0662 -0.1870
 4859W        W 8378   3.037   0.595   9.638  0.0476 -0.1018 -0.0291
 4860W        W 8379   0.946   0.812  11.170 -0.0617 -0.0497  0.3096
 4861W        W 8380   9.525   3.141  11.978  0.0376  0.2548 -0.0784
 4862W        W 8381   0.956   1.050   2.647 -0.4202  0.2840  0.2393
 4863W        W 8382   9.128   5.497  10.987  0.0007  0.2012 -0.1473
 4864W        W 8383   8.977   4.233   0.917  0.3060  0.1953  0.1301
 4865W        W 8384   6.491   9.262   7.890  0.2016  0.3060  0.1043
 4866W        W 8385   1.539   3.456  12.152  0.0491  0.0518 -0.2169
 4867W        W 8386   2.113   8.540   1.990 -0.2904  0.0576  0.1353
 4868W        W 8387   5.217   3.919  12.482 -0.1385  0.1963 -0.0944
 4869W        W 8388   2.324   7.894   0.096  0.1723  0.1175 -0.0415
 4870W        W 8389   4.430   7.894   9.780  0.0532 -0.3042 -0.1070
 4871W        W 8390   2.406   1.251   1.822  0.4432  0.0986 -0.0522
 4872W        W 8391   2.161   4.619   9.840 -0.0086 -0.2246 -0.1833
 4873W        W 8392   6.345   5.011   1.937 -0.1635  0.2096  0.4546
 4874W        W 8393   0.577   4.678  11.603 -0.0802 -0.0230  0.1978
 4875W        W 8394   4.001   6.642   1.813 -0.5126 -0.1424  0.0248
 4876W        W 8395   2.204   6.088   3.544 -0.2872 -0.0765  0.0246
 4877W        W 8396   5.426   4.474   2.235  0.0833  0.3301  0.2778
 4878W        W 8397   7.383   7.110   8.883  0.0334 -0.2664 -0.0386
 4879W        W 8398   0.169   4.136   9.422  0.0045  0.3101  0.2020
 4880W        W 8399   3.057   3.806   3.199 -0.0469 -0.2841 -0.5761
 4881W        W 8400   4.267   8.245  10.692 -0.0310  0.0499  0.1984
 4882W        W 8401   8.337   0.265   1.533 -0.1571 -0.3118 -0.1499
 4883W        W 8402   1.261   6.558   2.892 -0.1276 -0.0659  0.0171
 4884W        W 8403   7.644   4.481   1.544  0.0273  0.2267 -0.2099
 4885W        W 8404   6.396   0.713  11.511  0.2353  0.2230  0.0230
 4886W        W 8405   2.051   2.828  11.144  0.3346 -0.2679  0.1270
 4887W        W 8406   6.737   3.084   9.194  0.2196 -0.1914  0.1447
 4888W        W 8407   2.566   2.898  10.327 -0.1537  0.2902 -0.2112
 4889W        W 8408   8.084   8.693  10.206 -0.2070 -0.0484 -0.0741
 4890W        W 8409   1.093   8.206  12.138 -0.2102 -0.1052 -0.2338
 4891W        W 8410   0.866   6.734  11.151  0.1302  0.0772  0.0815
 4892W        W 8411   4.969   8.557   8.677  0.0589 -0.1086  0.1560
 4893W        W 8412   5.682   5.569   0.148  0.3171 -0.1962  0.2720
 4894W        W 8413   5.672   0.999   0.147  0.0584  0.0299  0.3551
 4895W        W 8414   6.149   3.559   1.644  0.2016  0.0221  0.2435
 4896W        W 8415   7.171   8.662   3.995  0.3767 -0.1071 -0.0196
 4897W        W 8416   6.426   9.186  11.224 -0.1051  0.2080 -0.1436
 4898W        W 8417   3.294   1.448   7.829  0.0921 -0.0942 -0.1167
 4899W        W 8418   9.516   5.601   3.144 -0.1496 -0.1760 -0.1314
 4900W        W 8419   7.187   4.432   9.163 -0.0166 -0.0836 -0.0817
 4901W        W 8420   5.680   2.412  12.114  0.1176 -0.1179  0.0505
 4902W        W 8421   9.634   5.337   4.115 -0.3442  0.1715 -0.0296
 4903W        W 8422   4.856   4.985   0.016 -0.1125 -0.5520  0.3146
 4904W        W 8423   5.636   1.732   1.430  0.0808 -0.0131 -0.1765
 4905W        W 8424   6.535   4.314   2.359  0.1373 -0.2671  0.1130
 4906W        W 8425   7.787   4.439   2.947  0.1458 -0.0461  0.0089
 4907W        W 8426   8.024   9.493   2.810  0.1129  0.0073 -0.0759
 4908W        W 8427   4.967   0.654   2.844  0.0505 -0.0721  0.0051
 4909W        W 8428   9.092   4.176   9.705 -0.3513 -0.2493 -0.1582
 4910W        W 8429   5.119   0.962   2.338 -0.0364  0.0430 -0.4475
 4911W        W 8430   0.500   0.971   3.969  0.0437  0.3598  0.2301
 4912W        W 8431   8.945   3.203   9.494  0.2538  0.0534 -0.2275
 4913W        W 8432   5.250   8.486  11.749 -0.1068 -0.0702  0.1816
 4914W        W 8433   4.093   2.988   2.892  0.3120 -0.0994 -0.2962
 4915W        W 8434   5.711   0.609  11.145 -0.2122 -0.0139 -0.1267
 4916W        W 8435   7.428   2.495  11.616  0.0036  0.0619  0.4094
 4917W        W 8436   6.520   5.030   9.550  0.0384 -0.1663  0.1784
 4918W        W 8437   7.122   2.787   4.136 -0.1059 -0.2019  0.4046
 4919W        W 8438   9.062   6.249  10.669  0.1730 -0.0174  0.4150
 4920W        W 8439   9.572   9.572   1.082  0.0177 -0.2488 -0.0945
 4921W        W 8440   8.443   7.665   1.971 -0.2308  0.1829 -0.0402
 4922W        W 8441   9.165   0.026  10.387  0.1771  0.0311  0.0705
 4923W        W 8442   2.330   3.371   0.365  0.0932  0.0466 -0.2013
 4924W        W 8443   1.399   6.782   2.447  0.2638  0.0855 -0.1566
 4925W        W 8444   2.180   6.514  12.408 -0.1433  0.0957  0.1191
 4926W        W 8445   1.215   3.488   9.712 -0.1902 -0.1875  0.1003
 4927W        W 8446   3.438   8.786  10.763 -0.2672 -0.1694 -0.0290
 4928W        W 8447   8.699   4.760   1.653 -0.0684 -0.0277 -0.0668
 4929W        W 8448   8.106   0.834  11.538 -0.0482  0.1568  0.3462
 4930W        W 8449   9.371   4.836   3.939 -0.0400 -0.1569  0.2204
 4931W        W 8450   5.601   8.852   1.704  0.0179 -0.4663  0.0297
 4932W        W 8451   0.688   6.940   0.681 -0.2795  0.0136  0.2356
 4933W        W 8452   2.370   0.991   8.374 -0.0716  0.0811 -0.1233
 4934W        W 8453   3.312   7.177  10.017 -0.1282 -0.1501  0.3561
 4935W        W 8454   7.787   6.179   3.377 -0.1682 -0.2052 -0.0901
 4936W        W 8455   0.296   3.329  12.125 -0.0677  0.1784 -0.1175
 4937W        W 8456   6.028   2.746   2.977  0.1045 -0.2377 -0.1494
 4938W        W 8457   9.292   7.232   2.188  0.1260  0.2295  0.1371
 4939W        W 8458   7.819   3.055   4.550  0.1955 -0.0025 -0.2590
 4940W        W 8459   3.835   6.474   3.587  0.0056 -0.3665  0.1408
 4941W        W 8460   4.815   0.938  11.031  0.1546  0.1773  0.0233
 4942W        W 8461   0.509   7.500   0.522 -0.1995 -0.2378  0.1906
 4943W        W 8462   6.913   6.525   1.297  0.3136 -0.2663  0.1685
 4944W        W 8463   3.636   1.691  11.436  0.1708  0.2548  0.0539
 4945W        W 8464   3.511   9.694  10.512 -0.1188  0.1084 -0.1417
 4946W        W 8465   5.398   7.507   9.118 -0.1104 -0.2081  0.2819
 4947W        W 8466   0.874   3.430   3.367  0.0712  0.0960  0.2450
 4948W        W 8467   1.705   3.882   7.574 -0.3229 -0.0349 -0.0336
 4949W        W 8468   2.979   5.276   9.110  0.1150  0.1265  0.0627
 4950W        W 8469   3.232   6.075  11.134  0.0543  0.3477 -0.0134
 4951W        W 8470   5.607   5.898   8.773 -0.0578 -0.1700 -0.0635
 4952W        W 8471   6.700   9.034  10.187  0.1086 -0.1890 -0.0061
 4953W        W 8472   3.661   9.588  11.359  0.2623  0.3046 -0.3648
 4954W        W 8473   9.652   2.362  10.628 -0.0539 -0.1155 -0.3550
 4955W        W 8474   1.629   1.057  10.935 -0.1253 -0.1269 -0.0638
 4956W        W 8475   8.329   9.556  10.344  0.5784 -0.1995  0.1284
 4957W        W 8476   9.319   0.159  11.409 -0.1777  0.1419 -0.1220
 4958W        W 8477   8.705   0.117  10.657  0.0263 -0.0110 -0.0645
 4959W        W 8478   6.325   9.065   3.013 -0.2188 -0.0774  0.0178
 4960W        W 8479   9.066   8.393   0.430  0.2092 -0.0771  0.2256
 4961W        W 8480   4.555   2.969  10.577  0.0496  0.0879  0.0402
 4962W        W 8481   5.679   3.921   9.694 -0.3758  0.2037  0.0520
 4963W        W 8482   7.490   8.740   1.182 -0.0430 -0.0244  0.0011
 4964W        W 8483   0.103   5.870   9.134  0.1557  0.1750  0.0185
 4965W        W 8484   2.074   4.046   9.806  0.0765  0.2259  0.0169
 4966W        W 8485   2.636   3.600   2.351  0.2936  0.0613 -0.0998
 4967W        W 8486   0.871   5.943  12.464  0.3262 -0.2860 -0.3288
 4968W        W 8487   6.758   3.363  10.169  0.3247 -0.0765 -0.2159
 4969W        W 8488   1.856   1.368   3.536 -0.0831 -0.3354 -0.1617
 4970W        W 8489   5.062   0.392  11.041  0.0036  0.0415 -0.0428
 4971W        W 8490   6.924   9.623   8.742  0.1148  0.2937  0.1956
 4972W        W 8491   9.425   1.539  11.704 -0.1379  0.1427 -0.1871
 4973W        W 8492   5.655   4.985   9.319 -0.4222 -0.0716 -0.2263
 4974W        W 8493   0.744   5.044   2.172 -0.2135  0.3291  0.1664
 4975W        W 8494   8.201   3.576  10.520 -0.2478 -0.2090  0.0341
 4976W        W 8495   1.059   9.599   0.830 -0.0196  0.2248  0.2420
 4977W        W 8496   9.348   4.960   1.526  0.1366 -0.0461  0.1394
 4978W        W 8497   6.010   4.184   3.749  0.3771  0.0967 -0.1048
 4979W        W 8498   4.550   0.523  11.191  0.0256 -0.0361 -0.4471
 4980W        W 8499   6.371   1.462   0.118 -0.0274 -0.0791 -0.0647
 4981W        W 8500   5.128   3.112   1.301  0.0211 -0.0508 -0.1253
 4982W        W 8501   1.813   2.815  10.028 -0.3104  0.1097 -0.3486
 4983W        W 8502   0.392   6.938   2.491 -0.1567  0.0993 -0.1291
 4984W        W 8503   0.950   7.867   9.083  0.1264  0.1891 -0.3822
 4985W        W 8504   4.922   5.303   1.360  0.1698 -0.3365 -0.0794
 4986W        W 8505   0.525   3.793  12.196  0.2890 -0.1102 -0.1639
 4987W        W 8506   6.492   0.097   3.450  0.1487 -0.5110 -0.3845
 4988W        W 8507   2.630   6.610   0.193  0.2393 -0.1117 -0.0479
 4989W        W 8508   5.621   4.558  11.745  0.0301 -0.0715 -0.1562
 4990W        W 8509   5.373   0.127  10.263 -0.0807  0.0069  0.1575
 4991W        W 8510   6.078   5.302   3.159  0.1376 -0.3401 -0.2977
 4992W        W 8511   5.332   7.677  12.424 -0.2468  0.2052 -0.1264
 4993W        W 8512   4.475   6.836  10.396  0.1074  0.0293 -0.2964
 4994W        W 8513   5.428   2.966   1.664 -0.0084  0.0223 -0.2473
 4995W        W 8514   8.498   3.084  11.263 -0.1632 -0.0011 -0.1199
 4996W        W 8515   6.935   1.176   1.647  0.2368 -0.1320  0.0252
 4997W        W 8516   3.421   1.396   9.649 -0.1143  0.1201 -0.3829
 4998W        W 8517   1.390   3.326   3.307 -0.2588  0.2337 -0.1626
 4999W        W 8518   3.200   2.126   3.159 -0.1321 -0.2601  0.2296
 5000W        W 8519   6.873   8.327  10.908 -0.1333 -0.1833  0.1712
 5001W        W 8520   8.803   2.815   2.926 -0.0907  0.0147 -0.0287
 5002W        W 8521   5.463   2.107  10.745  0.0148  0.0263  0.1266
 5003W        W 8522   7.563   3.288   1.477  0.1476  0.0648  0.1769
 5004W        W 8523   1.156   6.142   1.879 -0.1976  0.0221 -0.3311
 5005W        W 8524   6.455   8.372   1.531 -0.2860  0.0436  0.0867
 5006W        W 8525   3.281   4.597   9.455 -0.3452  0.3012 -0.1563
 5007W        W 8526   3.768   4.111   8.263 -0.2344 -0.0054 -0.3466
 5008W        W 8527   3.115   7.575   9.670  0.0465 -0.2515 -0.1192
 5009W        W 8528   2.878   4.376  12.000  0.0266  0.1904  0.1612
 5010W        W 8529   7.367   7.958  11.624  0.4065 -0.1055 -0.0059
 5011W        W 8530   9.652   3.894  11.569 -0.1200  0.1146 -0.5380
 5012W        W 8531   7.545   0.696   0.672 -0.1109  0.0104  0.1175
 5013W        W 8532   1.491   0.445   8.878 -0.0310  0.1346 -0.0552
 5014W        W 8533   5.452   7.828   0.894 -0.0098  0.1080  0.0605
 5015W        W 8534   3.600   4.110  10.232 -0.3199  0.0365 -0.3261
 5016W        W 8535   1.733   1.293  11.834 -0.1776 -0.1521 -0.0479
 5017W        W 8536   5.378   1.157  11.390 -0.1081  0.1115  0.0927
 5018W        W 8537   7.504   9.650   8.901  0.0560  0.1509 -0.0018
 5019W        W 8538   1.448   8.047   2.207  0.2397  0.1175 -0.1675
 5020W        W 8539   6.242   4.501   1.955 -0.1539 -0.1526  0.0054
 5021W        W 8540   6.083   2.386   0.269  0.1407  0.0604  0.0032
 5022W        W 8541   7.781   0.865  12.451 -0.0592 -0.2543  0.3579
 5023W        W 8542   6.838   6.980   9.507 -0.2783 -0.0301 -0.2603
 5024W        W 8543   9.467   4.497   4.667  0.1440 -0.3342  0.2571
 5025W        W 8544   6.781   6.212   0.490  0.1794 -0.1355 -0.0715
 5026W        W 8545   0.888   8.268  11.369  0.3504  0.0146 -0.1293
 5027W        W 8546   7.768   1.688   0.250 -0.2941 -0.1767 -0.0783
 5028W        W 8547   9.219   3.875   3.609 -0.3180  0.0028 -0.1003
 5029W        W 8548   4.208   0.957   2.843  0.0576 -0.0129 -0.0765
 5030W        W 8549   6.952   5.237   2.034  0.0467  0.1448 -0.0397
 5031W        W 8550   1.173   3.075   9.264 -0.1943 -0.0599 -0.2328
 5032W        W 8551   1.496   2.165   8.591 -0.3445 -0.1017 -0.1534
 5033W        W 8552   4.986   5.715   1.722 -0.1270  0.0253 -0.2189
 5034W        W 8553   4.217   0.744  12.057 -0.1370  0.1307 -0.1565
 5035W        W 8554   8.818   6.152   1.771  0.0710  0.1472 -0.0078
 5036W        W 8555   8.203   5.489  11.365  0.1279 -0.1684  0.2057
 5037W        W 8556   2.373   5.685  11.930  0.0235 -0.1823  0.1044
 5038W        W 8557   7.778   6.921   9.154  0.0598  0.0393 -0.2619
 5039W        W 8558   4.533   8.245  12.171  0.0156  0.2222 -0.0360
 5040W        W 8559   4.688   8.476   1.645 -0.1917 -0.0876  0.0492
 5041W        W 8560   7.292   6.633   8.266 -0.0407  0.0042 -0.0299
 5042W        W 8561   3.448   8.385   1.126  0.1269 -0.0240 -0.0094
 5043W        W 8562   5.591   3.678  11.184 -0.2582 -0.0884 -0.4005
 5044W        W 8563   0.955   3.435  11.029  0.0121  0.1926 -0.1820
 5045W        W 8564   5.674   4.849   2.520 -0.0726  0.1207 -0.1416
 5046W        W 8565   8.360   8.975   1.375 -0.2405  0.0567 -0.2110
 5047W        W 8566   5.657   7.201  11.057 -0.3140 -0.0173  0.1394
 5048W        W 8567   7.958   6.736  12.311 -0.0866 -0.1009 -0.0334
 5049W        W 8568   1.102   7.421   1.733  0.1235  0.1616  0.0891
 5050W        W 8569   7.864   5.697  10.467 -0.2518 -0.1157 -0.3224
 5051W        W 8570   4.620   4.250   2.094  0.3052 -0.2666 -0.0325
 5052W        W 8571   0.327   9.479   4.541 -0.1622  0.0855 -0.2117
 5053W        W 8572   0.446   3.098   3.149 -0.1213 -0.1915 -0.1308
 5054W        W 8573   0.182   8.205  11.979 -0.4434 -0.0578 -0.0059
 5055W        W 8574   5.418   1.233  10.266  0.2193 -0.0423  0.0614
 5056W        W 8575   6.770   0.211   1.952 -0.2362 -0.0499 -0.0089
 5057W        W 8576   3.633   5.781   1.221  0.0661  0.1655 -0.0377
 5058W        W 8577   6.851   8.977  11.507  0.0018 -0.0981  0.0640
 5059W        W 8578   9.484   8.166   2.485  0.1207 -0.2049 -0.0104
 5060W        W 8579   0.065   6.786  10.648 -0.0255  0.2034 -0.0561
 5061W        W 8580   1.977   6.042   2.234 -0.1701 -0.1202  0.1359
 5062W        W 8581   0.557   6.718   1.108  0.1779 -0.1737 -0.0171
 5063W        W 8582   7.567   6.939   3.600 -0.0323  0.1362  0.3583
 5064W        W 8583   7.574   6.640  11.008  0.0314  0.3049  0.0007
 5065W        W 8584   4.089   4.273  10.083 -0.1677 -0.0880  0.2406
 5066W        W 8585   1.323   3.062   2.186  0.0291 -0.0456 -0.4539
 5067W        W 8586   1.763   0.809  10.420 -0.1269 -0.1061  0.2067
 5068W        W 8587   7.716   7.432   1.191  0.0734 -0.0081  0.0011
 5069W        W 8588   3.965   3.764   1.280  0.2327 -0.2327 -0.1487
 5070W        W 8589   8.087   0.681   1.803  0.0544  0.0572  0.0159
 5071W        W 8590   6.058   9.126   9.931 -0.0665  0.4171  0.2250
 5072W        W 8591   5.800   0.909   0.641  0.1604 -0.0928  0.0441
 5073W        W 8592   9.676   3.849   1.880 -0.0831  0.0889  0.4204
 5074W        W 8593   0.983   2.404  11.805 -0.4211 -0.1317 -0.3928
 5075W        W 8594   6.307   8.321  10.196 -0.1193  0.1208 -0.1643
 5076W        W 8595   8.091   6.130   0.579  0.0297 -0.0551 -0.1232
 5077W        W 8596   6.361   4.998  12.086 -0.3206 -0.1043  0.4583
 5078W        W 8597   6.706   2.602   1.511  0.2040 -0.2085 -0.2821
 5079W        W 8598   5.887   6.826   8.828 -0.5695  0.2051  0.4005
 5080W        W 8599   2.861   1.425   1.882 -0.3295 -0.2599  0.1483
 5081W        W 8600   2.443   1.685   3.612  0.2002  0.0091 -0.0349
 5082W        W 8601   2.112   8.700  12.322  0.1293 -0.0959  0.0295
 5083W        W 8602   9.351   9.170   0.871  0.1923  0.0796  0.2605
 5084W        W 8603   0.487   2.630   8.912  0.1748  0.1491 -0.0502
 5085W        W 8604   4.166   0.807  11.186 -0.1311  0.0176  0.0224
 5086W        W 8605   7.293   7.215   3.862 -0.0851 -0.3099 -0.0604
 5087W        W 8606   8.595   9.603   9.912  0.0662  0.0495  0.0709
 5088W        W 8607   8.608   4.184   9.001 -0.0421  0.1195 -0.0172
 5089W        W 8608   5.707   1.042  12.139  0.2451  0.0244  0.2596
 5090W        W 8609   3.308   9.689  10.986 -0.2197 -0.2066  0.1632
 5091W        W 8610   6.445   0.627   3.413 -0.6588 -0.0226  0.3313
 5092W        W 8611   3.490   4.033   0.768  0.0142  0.4380 -0.0750
 5093W        W 8612   0.328   9.010  11.307 -0.1171 -0.0713 -0.0092
 5094W        W 8613   8.626   0.114   4.168  0.2863  0.1766  0.0522
 5095W        W 8614   0.801   0.295   8.289 -0.0371 -0.0188  0.0124
 5096W        W 8615   1.962   8.059   9.007  0.0748 -0.1849 -0.5223
 5097W        W 8616   3.149   4.304  10.304 -0.2368  0.1093  0.1676
 5098W        W 8617   0.750   6.173  10.518  0.1552  0.0649  0.0174
 5099W        W 8618   7.139   9.472   0.879 -0.1465  0.2278 -0.0296
 5100W        W 8619   8.488   2.007   0.340  0.0892 -0.3351 -0.2644
 5101W        W 8620   3.118   9.353   2.664 -0.0266  0.0547 -0.1042
 5102W        W 8621   6.150   2.980   0.788  0.0788  0.0770 -0.0793
 5103W        W 8622   9.115   5.635   1.171 -0.0243  0.0642  0.4807
 5104W        W 8623   3.139   0.464   0.470  0.3380 -0.0600  0.0388
 5105W        W 8624   6.333   3.602   2.896 -0.0807 -0.2278 -0.1238
 5106W        W 8625   1.803   4.214  11.210 -0.2964 -0.0633 -0.4126
 5107W        W 8626   2.479   3.246   8.603  0.1046 -0.2289 -0.2395
 5108W        W 8627   6.507   8.612  10.541 -0.0474 -0.0054 -0.2090
 5109W        W 8628   1.899   8.442   2.996  0.1520  0.1265 -0.0346
 5110W        W 8629   7.645   7.718  10.574 -0.2206  0.1332 -0.3372
 5111W        W 8630   8.799   1.179   0.939 -0.3360  0.0183 -0.2927
 5112W        W 8631   1.186   7.975   2.614 -0.0388  0.0184 -0.0047
 5113W        W 8632   3.666   3.542   7.747 -0.1732  0.0941 -0.0062
 5114W        W 8633   3.314   9.665   2.337 -0.2634  0.0712 -0.0577
 5115W        W 8634   0.501   1.503   2.673 -0.0677  0.2959 -0.1677
 5116W        W 8635   5.613   4.559  12.277 -0.0442  0.1297 -0.1526
 5117W        W 8636   1.204   6.578   9.884  0.2097 -0.0823 -0.0931
 5118W        W 8637   6.771   3.667   8.663  0.1729 -0.0311  0.0351
 5119W        W 8638   6.353   7.011   9.216  0.0429  0.1462 -0.2301
 5120W        W 8639   2.496   4.174   8.338 -0.0133 -0.0217  0.0541
 5121W        W 8640   1.210   1.966   9.857  0.3032 -0.2593  0.0000
 5122W        W 8641   0.647   0.866  10.142 -0.1463 -0.1482 -0.2930
 5123W        W 8642   2.747   1.326   3.318  0.2689  0.0116 -0.2264
 5124W        W 8643   7.222   1.713  10.058  0.1426 -0.1110  0.0384
 5125W        W 8644   0.634   8.759   8.906 -0.0450 -0.2132  0.4399
 5126W        W 8645   5.796   3.395  11.543  0.2125  0.2586  0.1478
 5127W        W 8646   5.658   3.482  10.698  0.0283 -0.1933  0.1948
 5128W        W 8647   2.807   6.475   1.791 -0.1915  0.1050  0.1297
 5129W        W 8648   3.243   4.107  10.766  0.0990 -0.3190  0.3276
 5130W        W 8649   7.029   9.402  12.410  0.0247  0.0762  0.0667
 5131W        W 8650   7.290   5.160  11.399 -0.0147  0.0113 -0.0798
 5132W        W 8651   4.793   1.122   3.871 -0.2060 -0.1492 -0.1848
 5133W        W 8652   8.198   1.121  10.790  0.1876  0.2243  0.1273
 5134W        W 8653   1.085   3.903   3.406  0.3678 -0.0712  0.0228
 5135W        W 8654   5.093   6.387   3.560  0.0091 -0.0971 -0.1441
 5136W        W 8655   2.731   3.671   0.928 -0.0736 -0.2777 -0.0477
 5137W        W 8656   9.300   7.950   0.118  0.1626 -0.0515 -0.0426
 5138W        W 8657   2.701   5.213   2.409  0.1906 -0.0061 -0.0195
 5139W        W 8658   3.234   3.979   0.273  0.0363  0.0427  0.1720
 5140W        W 8659   7.368   3.613   2.404  0.1200  0.3191  0.0460
 5141W        W 8660   2.154   0.008   2.944 -0.0944  0.0894 -0.3072
 5142W        W 8661   9.506   3.718  10.555 -0.1443 -0.0803 -0.1479
 5143W        W 8662   0.629   0.936   7.588  0.0394  0.3819 -0.2413
 5144W        W 8663   2.045   0.248   0.569  0.0560 -0.0658 -0.3096
 5145W        W 8664   6.493   6.886   3.534  0.3826 -0.0576  0.1414
 5146W        W 8665   5.505   3.807   1.542 -0.2576 -0.0310  0.0592
 5147W        W 8666   5.143   1.933   4.359  0.3367  0.3375  0.0949
 5148W        W 8667   8.551   7.677   9.390 -0.0042 -0.2049 -0.0210
 5149W        W 8668   0.651   3.893   3.037 -0.0126 -0.1411 -0.0380
 5150W        W 8669   1.464   1.160   1.675  0.2200  0.0799 -0.3830
 5151W        W 8670   3.714   9.521   1.523 -0.1241  0.0149  0.1927
 5152W        W 8671   6.091   3.767   9.376  0.1468 -0.1378 -0.1311
 5153W        W 8672   3.704   0.312  10.071 -0.3304  0.1208  0.1799
 5154W        W 8673   1.654   2.576   2.369 -0.1792  0.1292  0.2415
 5155W        W 8674   9.102   8.394   2.817 -0.0067  0.4060 -0.0906
 5156W        W 8675   2.627   5.286   3.184  0.1001 -0.0909  0.1221
 5157W        W 8676   0.319   7.093   1.475  0.4079 -0.1573 -0.2284
 5158W        W 8677   7.449   5.367   2.058  0.2253  0.0422  0.0444
 5159W        W 8678   5.190   4.963   2.373 -0.1871  0.0785  0.1533
 5160W        W 8679   4.902   9.358  10.844 -0.1714  0.0611 -0.0267
 5161W        W 8680   4.884   1.246   1.476  0.0078 -0.0683 -0.0921
 5162W        W 8681   8.716   2.335  10.198  0.0604  0.1354  0.0709
 5163W        W 8682   2.417   6.039  12.369  0.2664 -0.2119  0.2270
 5164W        W 8683   2.588   9.056   1.475  0.1924  0.1300 -0.1019
 5165W        W 8684   1.641   9.689   1.634  0.2698  0.0310  0.3256
 5166W        W 8685   3.976   4.668  12.103  0.3545  0.1357 -0.0459
 5167W        W 8686   6.598   9.253   8.845  0.1035 -0.0446 -0.0015
 5168W        W 8687   2.926   4.154  11.194 -0.0284  0.2864  0.0629
 5169W        W 8688   9.069   2.949  12.043 -0.3848 -0.4166 -0.0686
 5170W        W 8689   1.406   5.308   1.087 -0.0048  0.1297 -0.1114
 5171W        W 8690   3.206   4.244   4.577 -0.1117 -0.1460 -0.1739
 5172W        W 8691   5.663   3.379   1.781 -0.0171  0.1104  0.0598
 5173W        W 8692   2.844   6.495  10.960 -0.0061 -0.2556 -0.3346
 5174W        W 8693   0.019   3.904  12.131 -0.1161 -0.3846 -0.0037
 5175W        W 8694   7.039   6.163   1.624  0.1072 -0.0029  0.4149
 5176W        W 8695   4.086   3.963  10.468 -0.0662  0.2608 -0.1550
 5177W        W 8696   2.737   7.435  11.951  0.3025  0.0456  0.5015
 5178W        W 8697   4.459   3.693   8.549 -0.1696 -0.0918 -0.0394
 5179W        W 8698   0.367   1.366  11.768 -0.3471  0.0241  0.2177
 5180W        W 8699   4.118   2.005   9.421  0.0709  0.3364 -0.0305
 5181W        W 8700   0.294   6.624   0.705  0.0914 -0.0175  0.3946
 5182W        W 8701   7.662   3.805   2.822 -0.0618  0.1518  0.3833
 5183W        W 8702   9.324   4.070  10.178  0.2428 -0.2743 -0.0032
 5184W        W 8703   6.019   8.501   3.505  0.2539 -0.4063  0.3581
 5185W        W 8704   6.645   5.554  10.002  0.0819 -0.0540  0.0437
 5186W        W 8705   7.818   2.845   8.771 -0.1690  0.0034  0.0118
 5187W        W 8706   7.656   9.121   2.672 -0.0015  0.2011 -0.0466
 5188W        W 8707   8.672   0.659   9.974  0.4619 -0.1959  0.1775
 5189W        W 8708   4.655   1.088   2.054  0.1767 -0.0740  0.0015
 5190W        W 8709   1.908   1.267   8.342 -0.3161  0.0201 -0.1703
 5191W        W 8710   1.372   5.468  10.847 -0.1021  0.0400 -0.1309
 5192W        W 8711   7.712   7.968   3.438  0.2158 -0.0937 -0.3082
 5193W        W 8712   3.861   3.564  10.281  0.2787 -0.0305  0.0064
 5194W        W 8713   1.996   0.382  11.668 -0.0216 -0.0739  0.1941
 5195W        W 8714   4.735   5.968  11.339 -0.1270 -0.1084  0.1703
 5196W        W 8715   3.233   2.891   1.750 -0.2580  0.0400 -0.1500
 5197W        W 8716   0.459   2.527   0.825 -0.1567 -0.1466  0.0153
 5198W        W 8717   8.909   5.407   8.668  0.1721 -0.0314 -0.0951
 5199W        W 8718   5.691   2.921   3.783  0.2360  0.0648 -0.0971
 5200W        W 8719   8.704   5.648  11.458 -0.0583  0.1152  0.0624
 5201W        W 8720   2.405   5.041   9.871 -0.2198 -0.3208  0.0628
 5202W        W 8721   3.299   8.351   2.457  0.0762  0.1503  0.0595
 5203W        W 8722   6.113   5.459   0.487 -0.2485  0.0270 -0.0050
 5204W        W 8723   3.548   7.469   9.499  0.1625  0.0047 -0.0401
 5205W        W 8724   6.398   7.789   8.496  0.1465 -0.1013 -0.5000
 5206W        W 8725   6.035   2.487   3.711  0.1342 -0.3010 -0.0881
 5207W        W 8726   7.068   1.071   9.489 -0.3930 -0.0548  0.1177
 5208W        W 8727   3.946   4.645   1.890  0.1171 -0.2256  0.0161
 5209W        W 8728   3.255   5.176   2.476 -0.3176 -0.1330  0.1726
 5210W        W 8729   4.808   9.342  11.936  0.0043 -0.2438  0.0740
 5211W        W 8730   0.719   5.763   9.722 -0.2465  0.1417  0.0009
 5212W        W 8731   4.887   4.707   4.396  0.0289 -0.1239 -0.0294
 5213W        W 8732   9.457   0.645   9.129  0.3722  0.0423  0.1044
 5214W        W 8733   8.254   3.786   8.456  0.0186 -0.1412 -0.2292
 5215W        W 8734   5.279   1.142   0.460  0.0663  0.1970 -0.0200
 5216W        W 8735   7.546   0.781   8.140 -0.0040  0.0846 -0.0540
 5217W        W 8736   9.441   3.080   4.157 -0.0910  0.1063 -0.0146
 5218W        W 8737   3.899   0.188   9.651  0.0607 -0.0736 -0.1511
 5219W        W 8738   9.158   8.972  11.699 -0.0772  0.0997  0.5695
 5220W        W 8739   8.516   9.355   8.977  0.1038 -0.0250 -0.1134
 5221W        W 8740   4.356   3.105   3.650 -0.1780 -0.2126 -0.0122
 5222W        W 8741   5.488   4.525  11.254  0.1303 -0.0638  0.1934
 5223W        W 8742   7.519   4.001  10.994  0.5076  0.1057  0.0426
 5224W        W 8743   3.830   7.242  10.046 -0.1954 -0.0519 -0.0715
 5225W        W 8744   5.505   4.009   3.639  0.3797 -0.3310  0.1038
 5226W        W 8745   7.522   0.645   4.388 -0.1919  0.1749  0.0889
 5227W        W 8746   0.092   5.935  11.982  0.1262  0.2608 -0.0289
 5228W        W 8747   8.776   5.904   9.411 -0.5176  0.1361  0.2363
 5229W        W 8748   4.953   0.400   0.808  0.1009  0.1402 -0.4948
 5230W        W 8749   9.496   9.548   3.498 -0.0174  0.0236 -0.2805
 5231W        W 8750   4.420   3.481  11.205 -0.1814  0.1147 -0.2318
 5232W        W 8751   5.457   2.287   1.060  0.6847  0.2043 -0.1242
 5233W        W 8752   7.804   5.297  11.651  0.0705  0.0187 -0.0060
 5234W        W 8753   7.574   7.530   8.655 -0.1106 -0.0659 -0.4642
 5235W        W 8754   7.727   8.689   8.497  0.0510 -0.2004  0.1870
 5236W        W 8755   2.451   3.936   0.577 -0.0894  0.0258 -0.1942
 5237W        W 8756   6.968   5.898  10.149  0.0914  0.4320  0.2126
 5238W        W 8757   5.399   2.322   9.813  0.1222  0.1751  0.1768
 5239W        W 8758   7.920   4.914   3.782  0.1370  0.1505 -0.0258
 5240W        W 8759   7.698   6.814   8.072 -0.0534 -0.1817 -0.1767
 5241W        W 8760   3.618   7.647  12.172 -0.2315 -0.2111 -0.2203
 5242W        W 8761   6.554   1.756   1.660  0.4244 -0.1688  0.1176
 5243W        W 8762   7.377   0.055   3.770 -0.0383  0.1893 -0.0359
 5244W        W 8763   2.574   7.873  11.059 -0.3588  0.0511 -0.0127
 5245W        W 8764   1.012   8.731   0.843  0.2118  0.1571 -0.0931
 5246W        W 8765   7.361   1.908   1.188  0.2342  0.0280 -0.2703
 5247W        W 8766   4.645   3.677   9.594  0.2832 -0.2588 -0.0356
 5248W        W 8767   8.927   5.142  10.612  0.3947  0.1411 -0.0149
 5249W        W 8768   2.825   3.174   8.176 -0.0148 -0.0838 -0.4059
 5250W        W 8769   3.380   3.202   8.354  0.0411 -0.0434 -0.0833
 5251W        W 8770   4.912   5.347   7.897 -0.0111 -0.4037  0.0467
 5252W        W 8771   8.158   8.583   8.263 -0.1388 -0.0445  0.1244
 5253W        W 8772   6.706   0.311   3.085 -0.1680 -0.4400 -0.2970
 5254W        W 8773   4.541   9.582  10.217 -0.3029 -0.0986  0.1952
 5255W        W 8774   7.377   0.984  11.950  0.1356 -0.3177 -0.1292
 5256W        W 8775   3.672   3.608  12.140 -0.0109  0.0798  0.0121
 5257W        W 8776   7.741   6.521   0.213  0.0183 -0.3271  0.3184
 5258W        W 8777   6.538   0.568   7.607 -0.3044  0.0792  0.1035
 5259W        W 8778   1.482   4.234   4.814 -0.0900  0.2650 -0.0647
 5260W        W 8779   6.214   0.374   9.536 -0.2829  0.1108 -0.0620
 5261W        W 8780   4.697   2.001  12.250  0.0306  0.2169 -0.0345
 5262W        W 8781   0.314   2.415   2.480  0.3171  0.0346  0.0645
 5263W        W 8782   8.565   9.611  11.125  0.0002  0.0715 -0.2138
 5264W        W 8783   2.447   3.349  10.634 -0.3321  0.0642 -0.3778
 5265W        W 8784   3.148   5.300   1.870 -0.1178  0.1175 -0.3931
 5266W        W 8785   8.398   6.192   2.620  0.0648  0.0722 -0.1547
 5267W        W 8786   6.597   7.806  10.909 -0.2490 -0.1425 -0.3779
 5268W        W 8787   4.477   1.546  12.215 -0.1580 -0.1292  0.0584
 5269W        W 8788   3.688   2.988   8.881 -0.0431 -0.0560  0.3274
 5270W        W 8789   2.636   9.498   2.877  0.0723  0.1674 -0.0652
 5271W        W 8790   6.852   9.692   0.233 -0.0434 -0.0443 -0.0161
 5272W        W 8791   9.497   2.542  11.106  0.0231  0.1154 -0.2728
 5273W        W 8792   6.140   8.149   2.000 -0.1219 -0.0077  0.3632
 5274W        W 8793   6.911   0.777   3.212  0.1872  0.4521  0.0920
 5275W        W 8794   3.578   6.753   1.611  0.0274 -0.2898  0.1903
 5276W        W 8795   9.416   5.265   1.082  0.0513  0.3045  0.1043
 5277W        W 8796   2.765   2.981   1.613  0.0792 -0.0584 -0.0938
 5278W        W 8797   4.616   9.234   3.556 -0.3417  0.0477 -0.0231
 5279W        W 8798   2.625   8.877   9.840  0.2485 -0.4859  0.2288
 5280W        W 8799   2.121   7.574   2.783 -0.1028 -0.0001 -0.1188
 5281W        W 8800   5.046   0.708  11.984  0.2275 -0.0576  0.0899
 5282W        W 8801   0.234   3.906   8.963  0.1753 -0.2216 -0.2311
 5283W        W 8802   7.400   5.431   9.603  0.0779  0.0331 -0.2455
 5284W        W 8803   5.412   5.906   9.248  0.0443 -0.0798 -0.3486
 5285W        W 8804   1.399   4.513  11.042  0.1770 -0.3017  0.0146
 5286W        W 8805   5.954   3.093  10.607 -0.0201 -0.0133  0.0838
 5287W        W 8806   6.480   7.536   4.133 -0.3616 -0.1219 -0.1423
 5288W        W 8807   2.836   1.623   1.030 -0.1452  0.0052 -0.1674
 5289W        W 8808   3.693   0.572  12.241 -0.1785  0.0732 -0.0017
 5290W        W 8809   2.237   9.707   9.584  0.1223  0.1748 -0.0486
 5291W        W 8810   7.567   0.011   9.992  0.3733 -0.1817  0.0147
 5292W        W 8811   2.671   9.305  11.382 -0.0071  0.1116 -0.0795
 5293W        W 8812   9.478   9.118  12.236 -0.0824  0.0315  0.2829
 5294W        W 8813   6.526   6.873   1.188  0.0087 -0.0220  0.0128
 5295W        W 8814   1.322   8.910   3.279  0.4006  0.2328 -0.0150
 5296W        W 8815   0.838   4.583   9.162 -0.2967 -0.1366 -0.1431
 5297W        W 8816   7.837   6.805   2.202 -0.0775  0.1414 -0.2304
 5298W        W 8817   0.368   3.358   8.946  0.0661 -0.0154 -0.0610
 5299W        W 8818   4.548   0.976  10.358 -0.0514  0.1270 -0.1458
 5300W        W 8819   6.706   6.411  10.725 -0.0985  0.0505  0.0928
 5301W        W 8820   7.605   2.632   9.722  0.0672 -0.1325 -0.1855
 5302W        W 8821   0.583   4.281   8.790 -0.0092  0.2982 -0.1573
 5303W        W 8822   2.541   4.765  11.871  0.0633 -0.1377  0.0849
 5304W        W 8823   6.226   5.288   8.399 -0.2901 -0.3474  0.1180
 5305W        W 8824   5.730   5.288   1.393 -0.1073 -0.1193 -0.1845
 5306W        W 8825   2.070   6.361  10.477 -0.1938 -0.2455 -0.1392
 5307W        W 8826   3.267   3.674   3.653 -0.0217 -0.1299  0.0930
 5308W        W 8827   9.585   4.530  10.284 -0.1633  0.2616  0.0521
 5309W        W 8828   0.312   8.264  11.412 -0.5720 -0.0452 -0.0340
 5310W        W 8829   4.066   6.094  10.638 -0.0861  0.2581  0.2062
 5311W        W 8830   7.978   6.736   3.406 -0.4038 -0.0019  0.1891
 5312W        W 8831   3.425   2.552   9.957  0.0534 -0.1699 -0.5259
 5313W        W 8832   3.781   5.908   3.393 -0.0639  0.1918 -0.1859
 5314W        W 8833   5.084   4.651  12.233  0.1419  0.2222 -0.1169
 5315W        W 8834   0.848   0.796   0.494  0.0528  0.2172  0.1519
 5316W        W 8835   8.096   4.384   2.504 -0.2892  0.2284  0.2425
 5317W        W 8836   5.507   9.129  12.316  0.0464 -0.2197 -0.0137
 5318W        W 8837   2.771   1.539   8.995  0.2414 -0.0495  0.0620
 5319W        W 8838   5.298   7.985  11.564  0.0278 -0.1821 -0.3353
 5320W        W 8839   0.437   7.523   8.526 -0.1177 -0.2132  0.1518
 5321W        W 8840   6.016   3.775   1.219 -0.1214  0.2590  0.1143
 5322W        W 8841   3.890   8.245   1.922 -0.1125 -0.0389  0.0643
 5323W        W 8842   6.141   4.264   9.268 -0.0022 -0.1173  0.1603
 5324W        W 8843   1.487   0.662   1.347 -0.0589 -0.0513  0.1667
 5325W        W 8844   9.282   1.165  12.287 -0.2034  0.0544  0.2775
 5326W        W 8845   6.303   0.000   2.072 -0.0485  0.3368  0.3473
 5327W        W 8846   8.473   0.487  11.472 -0.0932  0.4919  0.0108
 5328W        W 8847   5.839   8.117  10.968 -0.4151  0.1149 -0.0407
 5329W        W 8848   6.179   3.644   9.924  0.0200 -0.0228  0.1258
 5330W        W 8849   0.499   3.281  10.157 -0.1112  0.1901 -0.0189
 5331W        W 8850   9.676   5.691   3.682 -0.1309  0.0425 -0.1472
 5332W        W 8851   4.096   6.268   3.080 -0.1821  0.1013 -0.2060
 5333W        W 8852   5.370   2.714   8.880  0.0818  0.0701  0.1148
 5334W        W 8853   6.974   2.355   8.797  0.3123 -0.0180  0.1362
 5335W        W 8854   6.772   8.360   0.199 -0.0657 -0.2482  0.2817
 5336W        W 8855   7.883   5.242   3.387 -0.0587  0.3835 -0.0506
 5337W        W 8856   5.681   4.532   3.599  0.1741 -0.2082  0.0500
 5338W        W 8857   0.415   0.387   8.975 -0.1117  0.2055  0.1980
 5339W        W 8858   1.882   3.090   2.124  0.0977  0.1080  0.1275
 5340W        W 8859   1.186   1.379   2.996 -0.0617  0.2054  0.6058
 5341W        W 8860   2.634   8.042  10.163  0.1756 -0.1298  0.3293
 5342W        W 8861   3.332   4.105  12.265 -0.2640  0.0551  0.0620
 5343W        W 8862   0.557   5.067  11.342  0.0273  0.2435  0.3022
 5344W        W 8863   8.275   5.974   9.612  0.0591 -0.4248 -0.0306
 5345W        W 8864   1.075   3.349   8.104  0.2820 -0.1403  0.0051
 5346W        W 8865   8.938   7.250   3.342 -0.0302  0.2599 -0.1802
 5347W        W 8866   6.688   2.909   3.648 -0.2219 -0.2179  0.0980
 5348W        W 8867   3.138   8.169   1.843 -0.2474  0.0264 -0.1523
 5349W        W 8868   1.252   3.067   0.842  0.1816  0.1626 -0.4417
 5350W        W 8869   8.452   0.974  11.230 -0.0817  0.0047 -0.0562
 5351W        W 8870   1.249   6.837   0.809 -0.0373  0.3145 -0.3109
 5352W        W 8871   8.791   6.712   0.268  0.1422  0.1196  0.2952
 5353W        W 8872   1.903   3.587   1.544 -0.1032 -0.2841  0.0159
 5354W        W 8873   7.882   5.721  11.031  0.2499  0.0441 -0.0662
 5355W        W 8874   8.703   6.218   3.092 -0.1825 -0.0760  0.0964
 5356W        W 8875   3.953   5.429  12.473  0.0720 -0.1000  0.0754
 5357W        W 8876   1.477   7.143   8.985 -0.1625 -0.4306 -0.2184
 5358W        W 8877   1.922   3.605   8.853  0.2815  0.0666 -0.3390
 5359W        W 8878   6.440   5.507   1.895  0.2245  0.1153 -0.0765
 5360W        W 8879   9.224   4.179   2.715 -0.0983  0.0125 -0.0633
 5361W        W 8880   4.842   2.715   8.692  0.3286  0.1667 -0.3997
 5362W        W 8881   1.848   8.624  11.835  0.0251 -0.3021 -0.0579
 5363W        W 8882   7.273   2.826   2.806  0.0503  0.1365  0.2313
 5364W        W 8883   5.278   6.860   3.736 -0.0564  0.0917 -0.0161
 5365W        W 8884   3.117   6.564   0.961  0.0126 -0.2686 -0.0003
 5366W        W 8885   5.987   6.543   1.336  0.0115  0.0664  0.2429
 5367W        W 8886   3.873   2.206  10.646 -0.1063 -0.4207 -0.2201
 5368W        W 8887   6.707   0.305   8.547 -0.1282 -0.0308 -0.0501
 5369W        W 8888   8.448   3.697  10.083  0.0770 -0.2358  0.0189
 5370W        W 8889   2.042   4.765   8.907  0.0391 -0.1577  0.0872
 5371W        W 8890   7.669   8.795   3.447 -0.1179 -0.0817 -0.2038
 5372W        W 8891   5.023   8.879   1.682 -0.1070  0.1312  0.0676
 5373W        W 8892   6.257   5.611   2.724 -0.2794 -0.0717  0.1827
 5374W        W 8893   0.574   6.866  11.574 -0.1903  0.0193  0.2003
 5375W        W 8894   1.348   4.257   1.388 -0.3413  0.2722 -0.1817
 5376W        W 8895   2.319   0.081   1.085  0.0487  0.3804 -0.0625
 5377W        W 8896   2.515   5.395  10.679 -0.0147 -0.0415 -0.2146
 5378W        W 8897   4.825   0.139   2.897  0.0557  0.3371 -0.2316
 5379W        W 8898   3.058   9.535   0.588 -0.0790  0.0330  0.0110
 5380W        W 8899   4.713   7.039  11.687 -0.3530 -0.0730 -0.0266
 5381W        W 8900   5.625   1.542   3.718  0.2681 -0.1514  0.3331
 5382W        W 8901   2.848   2.705   0.871 -0.0330  0.2080 -0.0386
 5383W        W 8902   4.331   8.722   1.406  0.2275 -0.2355 -0.1115
 5384W        W 8903   3.144   6.982   0.726 -0.3475  0.0606  0.1600
 5385W        W 8904   5.811   1.481   8.547  0.1641  0.2049  0.0833
 5386W        W 8905   9.454   8.020   8.895 -0.0506  0.0896  0.3395
 5387W        W 8906   0.848   5.498   3.836  0.3172 -0.2465 -0.0964
 5388W        W 8907   1.297   4.635   2.825  0.2796  0.1148  0.0940
 5389W        W 8908   1.073   0.535   0.009 -0.0479 -0.2310  0.0158
 5390W        W 8909   4.359   7.301  12.025  0.2405  0.1718  0.0483
 5391W        W 8910   0.114   1.861   9.020  0.0075 -0.4084 -0.0251
 5392W        W 8911   8.707   4.154  11.294  0.0721 -0.1127 -0.2126
 5393W        W 8912   3.413   0.441   1.833 -0.1073 -0.0388  0.1092
 5394W        W 8913   6.971   8.480  11.437  0.3505 -0.0161 -0.2184
 5395W        W 8914   8.181   7.204   1.959 -0.0502  0.2163  0.1619
 5396W        W 8915   7.053   2.164  10.761 -0.1508  0.4998  0.1269
 5397W        W 8916   0.694   4.945   8.130  0.2463 -0.1540  0.0428
 5398W        W 8917   2.445   0.480   1.512  0.0136  0.2051 -0.0546
 5399W        W 8918   5.802   4.634   9.035 -0.1366 -0.0117  0.0321
 5400W        W 8919   6.244   9.704  11.079 -0.2005  0.1887  0.2087
 5401W        W 8920   3.958   9.622   0.615 -0.2791 -0.2520  0.0284
 5402W        W 8921   2.696   1.153   9.324 -0.1983  0.0803 -0.1438
 5403W        W 8922   9.609   7.866   2.142 -0.1321  0.3178  0.4073
 5404W        W 8923   7.798   2.066   3.806  0.3509  0.2056 -0.0554
 5405W        W 8924   6.633   8.704   0.592  0.0466  0.0548 -0.0384
 5406W        W 8925   7.218   3.786   3.751  0.1860  0.2384 -0.0963
 5407W        W 8926   3.690   0.462   8.289  0.1976  0.0153 -0.0622
 5408W        W 8927   2.752   4.654   1.304  0.1991  0.1375 -0.4123
 5409W        W 8928   1.515   0.871   4.749 -0.0536 -0.1518 -0.2274
 5410W        W 8929   8.650   9.242   0.594 -0.0618 -0.4408  0.0231
 5411W        W 8930   9.315   7.091  11.583  0.2253 -0.0533  0.2111
 5412W        W 8931   4.708   1.607  11.239  0.1018 -0.1939 -0.0782
 5413W        W 8932   0.067   0.115   4.377  0.0581 -0.2045 -0.0876
 5414W        W 8933   1.205   7.759   0.497  0.2100 -0.0901 -0.1069
 5415W        W 8934   7.832   2.327  11.340 -0.3606  0.2064 -0.0110
 5416W        W 8935   4.041   1.721   8.988 -0.0548 -0.3440  0.0417
 5417W        W 8936   5.193   2.111  11.564 -0.0995 -0.1469 -0.0838
 5418W        W 8937   8.556   6.476   1.421 -0.2058  0.2763 -0.0295
 5419W        W 8938   8.619   8.902   3.559 -0.0681 -0.2038  0.1588
 5420W        W 8939   5.279   0.418   1.222 -0.0895 -0.1658  0.0601
 5421W        W 8940   1.701   6.709  12.520  0.1630  0.0019 -0.0874
 5422W        W 8941   2.030   4.891   1.769  0.0172 -0.1128 -0.3632
 5423W        W 8942   2.228   0.714  10.050  0.2584  0.1979 -0.0950
 5424W        W 8943   5.567   5.626   3.606  0.0148  0.0200 -0.2633
 5425W        W 8944   0.553   4.426   0.436 -0.0446  0.2054 -0.0941
 5426W        W 8945   1.850   1.531  10.102 -0.2736  0.3457 -0.0052
 5427W        W 8946   4.818   0.026  11.269  0.2137  0.0434  0.1423
 5428W        W 8947   8.173   2.275  10.888 -0.2207  0.1391  0.4808
 5429W        W 8948   1.827   5.517  11.563 -0.2164 -0.2843  0.0212
 5430W        W 8949   3.628   5.553  11.987 -0.0749  0.1055 -0.0978
 5431W        W 8950   5.621   1.116   2.465 -0.0339  0.0912 -0.0611
 5432W        W 8951   4.780   7.204   2.847 -0.0374  0.1600  0.0925
 5433W        W 8952   1.090   7.302  12.072  0.0621  0.2233  0.2410
 5434W        W 8953   4.015   3.208   0.381  0.0272  0.1848  0.3931
 5435W        W 8954   9.659   7.359  11.799  0.1875 -0.1617  0.0565
 5436W        W 8955   5.225   1.620   0.243  0.1930 -0.2046  0.4404
 5437W        W 8956   1.609   5.868   2.691 -0.0730 -0.1977  0.0401
 5438W        W 8957   8.137   3.351  11.451  0.4015  0.5773 -0.1560
 5439W        W 8958   9.398   0.677  11.326  0.0787  0.0156  0.3310
 5440W        W 8959   9.482   3.944   2.304 -0.0334 -0.1976  0.2069
 5441W        W 8960   0.733   7.632   1.486 -0.0736 -0.1414 -0.0332
 5442W        W 8961   1.238   7.502   9.247  0.0546 -0.2210  0.0975
 5443W        W 8962   0.725   4.208   1.252 -0.0234  0.3588 -0.0123
 5444W        W 8963   8.636   5.454  10.939 -0.0308  0.1389  0.1056
 5445W        W 8964   1.255   5.048   1.543  0.3009  0.1159 -0.2622
 5446W        W 8965   2.715   8.387  12.073 -0.2116  0.0968 -0.0590
 5447W        W 8966   8.137   2.629   3.521  0.0906 -0.1445  0.1721
 5448W        W 8967   1.504   1.246  10.302 -0.1375  0.4844 -0.0127
 5449W        W 8968   8.176   6.297   4.320  0.1141  0.2886 -0.1159
 5450W        W 8969   0.120   9.088  10.038  0.0801  0.2402 -0.1669
 5451W        W 8970   0.837   1.667  10.001 -0.3593 -0.0412  0.3402
 5452W        W 8971   4.986   6.044   3.126 -0.3779 -0.1371 -0.0628
 5453W        W 8972   6.672   8.726  11.969 -0.1041 -0.0081  0.0128
 5454W        W 8973   9.409   7.909   0.674  0.1686  0.2070  0.2143
 5455W        W 8974   0.313   0.251   2.717 -0.2704 -0.1376  0.1243
 5456W        W 8975   6.060   3.048  11.289  0.0258  0.2225 -0.0379
 5457W        W 8976   9.523   3.140  11.096  0.3176  0.0554 -0.2459
 5458W        W 8977   8.183   5.075   7.899 -0.3101  0.2751 -0.0477
 5459W        W 8978   0.467   4.529  10.214  0.2153  0.1228 -0.3665
 5460W        W 8979   2.153   9.228  12.300  0.1322 -0.3091  0.0791
 5461W        W 8980   8.074   9.600  11.244  0.0852 -0.2211  0.0713
 5462W        W 8981   8.018   5.328   8.713  0.2568  0.1161 -0.1633
 5463W        W 8982   7.892   4.207   0.586 -0.1111 -0.6186 -0.3125
 5464W        W 8983   0.199   8.782   9.138 -0.0624 -0.1686  0.1985
 5465W        W 8984   1.877   4.245  10.705  0.1477 -0.3200 -0.0563
 5466W        W 8985   2.705   5.672   2.786  0.1436  0.1192 -0.2210
 5467W        W 8986   6.989   4.652   0.134 -0.1430 -0.0867 -0.2365
 5468W        W 8987   8.919   1.140   1.534  0.0712 -0.0771  0.1723
 5469W        W 8988   5.405   8.052   2.701  0.1791 -0.0870  0.0745
 5470W        W 8989   6.090   9.601   9.802  0.0222 -0.0811 -0.1991
 5471W        W 8990   5.586   8.874   9.984  0.1740 -0.5021 -0.0707
 5472W        W 8991   2.546   2.421   7.981  0.0905  0.2305 -0.4340
 5473W        W 8992   3.553   3.604  11.587  0.1114 -0.0651  0.0235
 5474W        W 8993   3.716   5.308  10.018 -0.1168  0.0406 -0.0783
 5475W        W 8994   7.635   2.798   1.475  0.0547 -0.1732 -0.1401
 5476W        W 8995   4.117   0.355  10.797  0.0101 -0.1033 -0.2061
 5477W        W 8996   6.115   7.804   3.289 -0.1604  0.1861  0.1905
 5478W        W 8997   2.196   0.630   0.201  0.1236 -0.2195 -0.1303
 5479W        W 8998   8.697   2.226  11.710 -0.0806 -0.0096  0.3712
 5480W        W 8999   5.755   7.700   2.705  0.1243  0.0935  0.0643
 5481W        W 9000   9.236   2.100   3.475 -0.2827 -0.0095 -0.1190
 5482W        W 9001   8.573   2.365   3.377 -0.2723  0.0700 -0.0403
 5483W        W 9002   4.180   9.194   0.555  0.2061 -0.2749  0.0485
 5484W        W 9003   9.237   6.208   8.799 -0.1233 -0.2586  0.0641
 5485W        W 9004   5.259   9.065  11.815 -0.0258  0.0614  0.1273
 5486W        W 9005   6.944   2.494   2.084 -0.0353  0.0837  0.1469
 5487W        W 9006   4.004   4.673   1.299  0.0309  0.1033 -0.0149
 5488W        W 9007   2.460   1.091  11.441 -0.1619 -0.1369  0.1100
 5489W        W 9008   1.402   2.831   0.395  0.2711 -0.1036 -0.1096
 5490W        W 9009   8.592   8.365   3.128  0.1621 -0.1276  0.0233
 5491W        W 9010   4.962   0.031  10.513 -0.1491  0.0237  0.0284
 5492W        W 9011   8.924   0.582   9.118 -0.2067  0.0779  0.2258
 5493W        W 9012   4.627   7.544   8.590 -0.0667  0.3087  0.0786
 5494W        W 9013   8.439   5.230   2.940  0.1856 -0.2829  0.1416
 5495W        W 9014   4.541   0.830  11.660 -0.4479  0.1330  0.0554
 5496W        W 9015   3.636   5.887   0.005 -0.0962  0.2183  0.1006
 5497W        W 9016   5.797   3.441   8.063  0.0321 -0.1815 -0.0644
 5498W        W 9017   1.674   1.350   2.107  0.1084  0.3165 -0.1996
 5499W        W 9018   4.039   9.127  11.013 -0.2475 -0.0981  0.3671
 5500W        W 9019   3.955   3.222  10.794  0.1006 -0.2541 -0.3539
 5501W        W 9020   1.312   8.004   0.926 -0.1665 -0.0991 -0.3376
 5502W        W 9021   5.485   3.255   8.832  0.1603  0.4893 -0.1644
 5503W        W 9022   4.730   3.128   2.808  0.0017 -0.0062  0.1008
 5504W        W 9023   6.278   3.608   2.369  0.0246  0.1031 -0.3074
 5505W        W 9024   9.070   5.324  11.622  0.1940  0.3822  0.0836
 5506W        W 9025   3.014   2.214   4.983 -0.1561  0.2488 -0.1053
 5507W        W 9026   5.581   4.368   4.032 -0.0580  0.0172 -0.2024
 5508W        W 9027   1.706   9.469   0.079 -0.3248 -0.1521  0.1323
 5509W        W 9028   1.463   2.635  12.040 -0.0897 -0.3126 -0.2784
 5510W        W 9029   6.572   1.176   3.420 -0.1117  0.6195 -0.0405
 5511W        W 9030   8.501   3.591   9.504  0.0453 -0.1305  0.0041
 5512W        W 9031   8.120   2.322   3.071  0.0287  0.1439 -0.3813
 5513W        W 9032   6.066   8.361  10.601  0.1064  0.0351  0.2555
 5514W        W 9033   9.087   1.281   0.515  0.0161 -0.1774 -0.3022
 5515W        W 9034   1.305   8.657  11.086  0.1314 -0.1867 -0.1792
 5516W        W 9035   0.209   6.254   1.956 -0.1064 -0.3279 -0.2223
 5517W        W 9036   5.984   5.983  10.447 -0.1173 -0.0596  0.1085
 5518W        W 9037   1.832   0.568  10.980 -0.0826  0.1165 -0.2255
 5519W        W 9038   7.612   8.194   0.732 -0.1341 -0.1815 -0.0824
 5520W        W 9039   6.687   3.853   2.628 -0.1259 -0.1120 -0.0766
 5521W        W 9040   3.636   8.642  11.757 -0.1198  0.0006 -0.4088
 5522W        W 9041   7.838   3.618   8.840  0.0501  0.1082  0.1844
 5523W        W 9042   7.642   6.327   8.120 -0.2369  0.1700  0.0298
 5524W        W 9043   3.762   1.420   2.810 -0.1624  0.0747  0.0813
 5525W        W 9044   7.505   5.037   9.337  0.0390  0.0202  0.1325
 5526W        W 9045   2.637   8.810  11.482  0.0584 -0.1614  0.3173
 5527W        W 9046   7.197   3.652  10.770 -0.0863  0.1049  0.2499
 5528W        W 9047   4.105   8.607  11.024  0.0461 -0.1161  0.0271
 5529W        W 9048   9.544   1.685  10.265 -0.2033 -0.1145  0.2859
 5530W        W 9049   3.759   8.043   2.352 -0.1677  0.1928 -0.0070
 5531W        W 9050   1.873   9.163  11.827 -0.0605 -0.1028 -0.1527
 5532W        W 9051   5.861   8.501   2.601  0.5177 -0.0386  0.0634
 5533W        W 9052   4.671   5.527  10.686 -0.1067 -0.0375 -0.1003
 5534W        W 9053   6.334   9.165   2.113 -0.0813 -0.2583 -0.1355
 5535W        W 9054   2.503   2.143   4.871  0.0080 -0.0948 -0.2653
 5536W        W 9055   0.424   1.757   9.437  0.2844  0.0296  0.0206
 5537W        W 9056   7.464   9.475   9.462  0.0953 -0.4122 -0.0356
 5538W        W 9057   7.934   3.164  11.962  0.0173  0.0282  0.0771
 5539W        W 9058   8.853   9.279   2.823 -0.0972  0.1505 -0.0832
 5540W        W 9059   4.104   4.137   2.116  0.0876  0.0541 -0.0126
 5541W        W 9060   1.196   4.769   1.967  0.2900 -0.3420  0.1904
 5542W        W 9061   1.404   0.924   2.150 -0.2666 -0.2992 -0.1829
 5543W        W 9062   8.597   2.768   9.949  0.2806 -0.1422 -0.2053
 5544W        W 9063   1.145   0.675   8.451  0.1142  0.0949 -0.2939
 5545W        W 9064   6.444   7.418   8.908  0.3538  0.0207 -0.1198
 5546W        W 9065   6.992   7.516   3.335 -0.2559 -0.1652 -0.1643
 5547W        W 9066   1.445   7.992   8.912 -0.0311  0.0530 -0.0697
 5548W        W 9067   3.736   6.776   8.795  0.0164 -0.0936 -0.2165
 5549W        W 9068   8.932   3.727   9.857 -0.2007 -0.1238  0.0879
 5550W        W 9069   0.804   9.646   0.431 -0.1480 -0.1275 -0.2226
 5551W        W 9070   9.106   3.354   3.692  0.0621  0.0148 -0.1795
 5552W        W 9071   8.328   6.065   1.550 -0.0380  0.1509 -0.1274
 5553W        W 9072   7.420   2.108   9.866 -0.0042 -0.0676 -0.2502
 5554W        W 9073   2.314   2.166   3.709  0.2314  0.1145 -0.1965
 5555W        W 9074   5.380   0.588   9.462 -0.2260 -0.0612 -0.0641
 5556W        W 9075   5.457   8.340  11.253 -0.3296 -0.1682 -0.2833
 5557W        W 9076   4.307   3.831   2.992 -0.1277 -0.1190 -0.0180
 5558W        W 9077   0.941   6.610   1.984  0.1571 -0.1595  0.3487
 5559W        W 9078   1.158   7.057   1.279 -0.2525  0.0011  0.3421
 5560W        W 9079   1.555   5.937   0.504  0.0906 -0.1097 -0.2120
 5561W        W 9080   3.776   8.543   1.462 -0.0294  0.2985  0.0181
 5562W        W 9081   9.005   6.684   1.365  0.2098 -0.0589  0.2617
 5563W        W 9082   4.692   6.297   8.870 -0.2631  0.0801 -0.1394
 5564W        W 9083   1.815   9.254  10.396 -0.1672 -0.3428 -0.0074
 5565W        W 9084   0.262   7.068   0.438 -0.1527 -0.1496  0.0579
 5566W        W 9085   0.657   2.850   2.685  0.2178  0.2980 -0.1668
 5567W        W 9086   1.491   3.248  10.081 -0.2241  0.0096  0.2150
 5568W        W 9087   8.025   6.894  11.369 -0.1346  0.0671  0.0227
 5569W        W 9088   8.096   0.414  12.510 -0.1179 -0.0221 -0.1609
 5570W        W 9089   4.026   5.636   0.920  0.1765  0.3092 -0.0216
 5571W        W 9090   9.469   8.735  10.068  0.2177 -0.2522 -0.1084
 5572W        W 9091   0.120   6.929  11.775  0.1937  0.1154  0.1626
 5573W        W 9092   6.460   6.121   3.591  0.0021 -0.0628  0.2237
 5574W        W 9093   1.893   1.834   3.593  0.1931  0.1829 -0.1486
 5575W        W 9094   3.318   6.349  11.945  0.0085  0.0435  0.0232
 5576W        W 9095   0.904   9.538  11.147 -0.2060  0.0419  0.2435
 5577W        W 9096   7.031   0.433   4.024 -0.3093 -0.0208  0.1833
 5578W        W 9097   6.091   8.597   1.703 -0.1553  0.1692  0.0344
 5579W        W 9098   4.304   9.613   0.239  0.1671 -0.0494 -0.4520
 5580W        W 9099   1.880   1.749   8.989  0.0295 -0.1530 -0.0898
 5581W        W 9100   0.945   4.662  11.907  0.3479 -0.2238  0.1501
 5582W        W 9101   8.497   7.570  12.517 -0.1640 -0.1014  0.1592
 5583W        W 9102   7.886   0.316   0.953 -0.2112 -0.2366  0.2711
 5584W        W 9103   2.614   3.589  11.619 -0.4801  0.1291 -0.1531
 5585W        W 9104   8.877   5.745  10.605 -0.2965 -0.5030  0.1413
 5586W        W 9105   7.267   5.523  11.758  0.1720  0.0719  0.2097
 5587W        W 9106   3.045   5.631   3.977  0.3050  0.0004 -0.3017
 5588W        W 9107   1.645   1.640   0.459 -0.2513  0.0679  0.0636
 5589W        W 9108   6.603   5.860  11.567  0.0741  0.0404 -0.1129
 5590W        W 9109   2.442   5.776   1.748 -0.0997 -0.1107 -0.1335
 5591W        W 9110   1.564   5.881  11.744 -0.0145 -0.1783 -0.2382
 5592W        W 9111   3.210   3.898   1.095 -0.2474 -0.2471 -0.4527
 5593W        W 9112   8.084   6.405   8.396 -0.0950  0.1187  0.0478
 5594W        W 9113   2.426   7.112   1.734 -0.3378  0.0633  0.1672
 5595W        W 9114   0.813   6.676   2.677  0.2035  0.3061  0.1282
 5596W        W 9115   6.335   7.342  11.002 -0.0593 -0.0550 -0.3529
 5597W        W 9116   4.601   6.502   9.377  0.0543 -0.2385 -0.1854
 5598W        W 9117   6.760   9.563   1.167 -0.2336 -0.0286  0.0220
 5599W        W 9118   1.123   1.850  11.262  0.0665 -0.0516 -0.0212
 5600W        W 9119   2.337   1.958   8.050 -0.0209  0.1219 -0.1655
 5601W        W 9120   3.286   6.459   1.870  0.1639  0.0402 -0.2377
 5602W        W 9121   7.596   3.258   2.681  0.1620  0.1121 -0.1206
 5603W        W 9122   4.424   0.722   0.345 -0.0068  0.0076 -0.0507
 5604W        W 9123   6.833   0.424  11.818 -0.5187  0.1256 -0.0043
 5605W        W 9124   6.936   4.413   2.993 -0.0874  0.0411  0.1377
 5606W        W 9125   5.295   0.211   9.784 -0.2417 -0.2091 -0.1715
 5607W        W 9126   1.847   5.577   0.797 -0.1114 -0.0622 -0.0297
 5608W        W 9127   5.835   9.141   3.107  0.0091 -0.1443 -0.3720
 5609W        W 9128   6.128   1.063   9.317  0.3016  0.2811 -0.0753
 5610W        W 9129   6.078   1.053   2.693  0.2006 -0.1028  0.3453
 5611W        W 9130   0.698   2.970   0.908  0.0087  0.0396 -0.1359
 5612W        W 9131   3.132   0.499   2.260 -0.2358 -0.2091 -0.1678
 5613W        W 9132   1.689   8.641   3.452  0.0404 -0.1420 -0.2793
 5614W        W 9133   5.601   1.183   2.000  0.0847 -0.0745  0.2879
 5615W        W 9134   7.933   0.898   3.496  0.0844  0.0709  0.0454
 5616W        W 9135   0.445   6.115   0.754  0.1024 -0.0688  0.3548
 5617W        W 9136   4.659   9.145  10.375 -0.0587  0.2300  0.1896
 5618W        W 9137   9.598   9.611  10.833 -0.1130 -0.1618  0.2680
 5619W        W 9138   1.888   8.753   8.594  0.2493  0.0557 -0.1816
 5620W        W 9139   4.204   2.237  12.302 -0.0451 -0.1620  0.2023
 5621W        W 9140   9.491   4.473   9.409 -0.2719  0.0071 -0.0540
 5622W        W 9141   6.714   9.235   2.481  0.1693 -0.0510  0.2021
 5623W        W 9142   3.998   9.333   1.030  0.1740  0.0126  0.1328
 5624W        W 9143   6.445   6.612   1.693  0.1812  0.1170  0.0757
 5625W        W 9144   0.240   0.571  11.918 -0.0181 -0.2463 -0.1473
 5626W        W 9145   9.101   3.878   4.108  0.1396  0.2344  0.1620
 5627W        W 9146   6.510   9.531   4.534  0.1187  0.1123  0.2007
 5628W        W 9147   1.383   1.692   9.164  0.2453  0.1095 -0.3085
 5629W        W 9148   5.802   4.801  10.671  0.2478 -0.1463  0.0627
 5630W        W 9149   7.908   2.686   1.072  0.0114 -0.1272 -0.2594
 5631W        W 9150   0.165   0.658  10.342 -0.2726 -0.1174 -0.0641
 5632W        W 9151   7.954   9.073   4.678 -0.1454  0.0647 -0.0061
 5633W        W 9152   1.449   5.361   0.460  0.0676 -0.1849 -0.2236
 5634W        W 9153   2.111   8.207  10.998  0.1068  0.1121 -0.1793
 5635W        W 9154   1.993   6.380   1.864  0.2506 -0.2593  0.1559
 5636W        W 9155   3.321   1.780  11.951  0.0221  0.2007 -0.1355
 5637W        W 9156   8.445   8.212  11.624 -0.1247  0.1156  0.0610
 5638W        W 9157   4.493   0.662   2.544  0.1681 -0.0868 -0.2297
 5639W        W 9158   5.973   7.689   1.778 -0.1531 -0.0146 -0.1738
 5640W        W 9159   9.233   1.666  12.309  0.2789  0.1657 -0.0580
 5641W        W 9160   1.411   7.803   1.777  0.0411  0.2338  0.0115
 5642W        W 9161   5.112   5.778  11.567 -0.0922  0.0321 -0.2909
 5643W        W 9162   3.207   0.162   1.410  0.0040  0.2033 -0.1727
 5644W        W 9163   7.884   5.675   9.817 -0.0281  0.1899  0.2588
 5645W        W 9164   2.928   8.778  10.706  0.1470 -0.1541 -0.2067
 5646W        W 9165   0.722   3.355   9.725  0.1678 -0.0795 -0.3542
 5647W        W 9166   0.007   1.062   4.797 -0.0172  0.0795  0.0952
 5648W        W 9167   3.770   6.960  12.285  0.1943  0.4873  0.0541
 5649W        W 9168   6.341   7.066   1.586  0.2373  0.0702  0.1309
 5650W        W 9169   0.504   4.982   0.544 -0.1576 -0.0724 -0.1833
 5651W        W 9170   1.367   5.612  12.465  0.0416 -0.3272  0.0687
 5652W        W 9171   2.464   4.023   3.265 -0.0354 -0.0305  0.1068
 5653W        W 9172   4.596   7.221   8.961  0.3951 -0.1413  0.1161
 5654W        W 9173   3.720   2.359  12.451 -0.1385  0.1462  0.0939
 5655W        W 9174   2.040   1.758   4.871 -0.4143 -0.4205  0.0693
 5656W        W 9175   8.377   6.922   9.135 -0.2969  0.1981  0.1059
 5657W        W 9176   7.487   9.083  10.827  0.0364 -0.1063 -0.1549
 5658W        W 9177   6.796   0.326  10.396  0.0006  0.0111  0.0077
 5659W        W 9178   4.333   1.813   2.373  0.2192  0.0564  0.0243
 5660W        W 9179   1.996   0.342   2.019 -0.0601 -0.4847 -0.0321
 5661W        W 9180   0.461   4.809   8.863 -0.1601  0.1441  0.2724
 5662W        W 9181   7.437   1.999   1.775  0.1249 -0.0847 -0.0591
 5663W        W 9182   0.662   7.286   2.024 -0.2843  0.1589  0.0760
 5664W        W 9183   1.313   5.705   1.616 -0.1360  0.1606 -0.2308
 5665W        W 9184   0.475   8.099  10.277  0.1842 -0.0305  0.0591
 5666W        W 9185   4.278   7.556  10.162  0.1027  0.5204 -0.0694
 5667W        W 9186   1.523   4.896   8.829  0.0783 -0.2848 -0.0062
 5668W        W 9187   8.192   8.081   1.995  0.2060  0.3812 -0.3032
 5669W        W 9188   1.853   3.990   8.464  0.0460 -0.0441  0.0417
 5670W        W 9189   2.709   7.150   0.286  0.0361  0.1764 -0.0711
 5671W        W 9190   8.448   6.213   8.739  0.3961  0.0742  0.0156
 5672W        W 9191   3.382   0.861   3.417 -0.0915 -0.2549  0.2762
 5673W        W 9192   4.518   6.220   2.923  0.0174 -0.1107  0.1850
 5674W        W 9193   8.476   3.960  10.802 -0.1298 -0.0749  0.0255
 5675W        W 9194   6.704   4.341   9.083 -0.2151 -0.0534  0.1769
 5676W        W 9195   7.241   1.972   2.651  0.0671 -0.1391  0.2849
 5677W        W 9196   8.337   1.477  11.558 -0.2436 -0.0413  0.1002
 5678W        W 9197   3.812   4.499  11.536  0.0272  0.3362  0.1286
 5679W        W 9198   0.443   8.137   1.360 -0.0319  0.3769 -0.2565
 5680W        W 9199   1.473   9.446  12.000  0.0342  0.0479  0.0663
 5681W        W 9200   1.676   8.311   1.820  0.0404 -0.1653  0.1665
 5682W        W 9201   3.620   3.646   8.303  0.2312  0.1182  0.0811
 5683W        W 9202   6.730   4.861   9.144  0.2305  0.0458  0.2461
 5684W        W 9203   1.842   5.928   9.525  0.1409  0.3103 -0.3177
 5685W        W 9204   6.238   2.744  10.385 -0.0207 -0.2551 -0.3164
 5686W        W 9205   6.929   4.198  12.188  0.1873 -0.1404  0.0165
 5687W        W 9206   6.269   5.478  11.852 -0.2687  0.2900 -0.0880
 5688W        W 9207   5.219   5.677  12.071 -0.1561 -0.0030  0.2816
 5689W        W 9208   9.564   0.439   2.007  0.4831 -0.0347  0.0033
 5690W        W 9209   0.121   4.079  10.124 -0.0779 -0.4491  0.1274
 5691W        W 9210   9.698   1.197  10.248 -0.0245 -0.1759 -0.0920
 5692W        W 9211   7.142   5.928   0.238 -0.0260 -0.0822  0.0655
 5693W        W 9212   7.545   2.334   0.872 -0.0947  0.3305  0.1650
 5694W        W 9213   2.909   2.903   4.227  0.3971  0.0208 -0.0508
 5695W        W 9214   2.888   5.974   1.987 -0.2899 -0.1045 -0.2269
 5696W        W 9215   4.296   3.010   7.772  0.1780 -0.0328  0.1243
 5697W        W 9216   1.474   1.819  12.472 -0.0001 -0.1789  0.1185
 5698W        W 9217   1.766   7.780  10.918  0.1702 -0.0767 -0.1141
 5699W        W 9218   3.003   6.785   9.994  0.3107 -0.1216  0.3831
 5700W        W 9219   9.387   2.832   2.859 -0.0140 -0.2343 -0.1078
 5701W        W 9220   8.958   2.715   7.869 -0.0528 -0.0014  0.1590
 5702W        W 9221   6.926   4.822   1.660  0.2178  0.0032  0.1278
 5703W        W 9222   5.805   7.557   8.251 -0.0095 -0.0303 -0.2621
 5704W        W 9223   5.740   8.546  10.274 -0.2273 -0.0331 -0.0673
 5705W        W 9224   7.306   5.924   0.709  0.3993 -0.1208  0.1039
 5706W        W 9225   1.836   0.884   4.329 -0.0756 -0.0260 -0.1105
 5707W        W 9226   8.789   9.612   2.354  0.0939  0.0084 -0.0078
 5708W        W 9227   8.930   1.737   0.908 -0.0315  0.1015  0.2111
 5709W        W 9228   2.472   3.491   9.088  0.3027 -0.2520  0.3066
 5710W        W 9229   1.972   3.757  10.214  0.0637 -0.0520 -0.1541
 5711W        W 9230   1.874   2.663   1.531 -0.0819 -0.1585  0.1789
 5712W        W 9231   7.641   5.418   2.946  0.1130  0.0194  0.0006
 5713W        W 9232   9.553   8.641  12.022  0.2849  0.3124  0.2576
 5714W        W 9233   6.605   5.372   3.097 -0.0516 -0.1070  0.2947
 5715W        W 9234   0.364   3.027   8.597  0.2635  0.3520  0.1978
 5716W        W 9235   8.542   0.119   8.647  0.1846  0.5504  0.1221
 5717W        W 9236   8.196   8.601  11.499 -0.0844 -0.1597  0.1293
 5718W        W 9237   4.931   3.618   9.987 -0.3742 -0.1248 -0.2928
 5719W        W 9238   1.519   9.246   2.469 -0.1539  0.2114  0.1113
 5720W        W 9239   3.634   2.563   3.537 -0.1713  0.1253 -0.2455
 5721W        W 9240   1.400   0.854   0.357 -0.0842 -0.0635  0.0171
 5722W        W 9241   6.771   8.908   3.783 -0.0410 -0.2376 -0.0954
 5723W        W 9242   8.486   9.276   3.273 -0.0106 -0.1236  0.4723
 5724W        W 9243   8.549   8.917   4.056  0.3186  0.0402 -0.2105
 5725W        W 9244   2.810   9.352   1.002  0.0179 -0.0839  0.1204
 5726W        W 9245   4.528   9.063   2.624  0.0816  0.0289  0.1900
 5727W        W 9246   4.674   3.763   3.355 -0.1711  0.0776 -0.0085
 5728W        W 9247   3.670   8.401   2.761 -0.0575 -0.1007  0.1717
 5729W        W 9248   7.204   9.409   2.861 -0.0357  0.1002  0.1135
 5730W        W 9249   5.300   9.107   9.239 -0.1002  0.0868  0.1897
 5731W        W 9250   6.338   9.110   8.364  0.5292 -0.0418  0.3134
 5732W        W 9251   9.223   8.993   2.996  0.1597  0.2162 -0.0552
 5733W        W 9252   9.331   2.008   1.164 -0.1332  0.0354 -0.2212
 5734W        W 9253   0.558   8.904   0.739 -0.1136 -0.1109  0.1810
 5735W        W 9254   7.700   4.023   2.270 -0.1773  0.2578 -0.1899
 5736W        W 9255   7.645   1.265   3.753 -0.0882  0.1657  0.1774
 5737W        W 9256   8.250   8.807   3.216  0.0298 -0.2662  0.2817
 5738W        W 9257   0.698   2.994   4.182  0.1151  0.1032 -0.0060
 5739W        W 9258   0.034   3.788   1.134 -0.1221  0.1884 -0.3064
 5740W        W 9259   4.025   0.487   2.722  0.0786  0.1532 -0.2267
 5741W        W 9260   5.451   7.254   1.026 -0.0307  0.0519 -0.1955
 5742W        W 9261   2.182   7.664  11.251 -0.0463  0.0721 -0.0679
 5743W        W 9262   8.419   7.015   3.194 -0.4516 -0.1762 -0.0745
 5744W        W 9263   0.178   8.540   1.431 -0.1766  0.0066  0.3322
 5745W        W 9264   3.118   8.906   1.110  0.2050 -0.1361  0.1361
 5746W        W 9265   7.965   8.056   1.540  0.2287 -0.0442 -0.0465
 5747W        W 9266   2.853   4.256   2.948  0.0567 -0.0476 -0.1054
 5748W        W 9267   3.395   7.947  11.330  0.0471 -0.1126  0.2573
 5749W        W 9268   6.876   2.948   9.790  0.4376  0.2668  0.0463
 5750W        W 9269   9.353   4.221   1.819 -0.1875  0.6640 -0.2316
 5751W        W 9270   0.174   9.144   0.991 -0.1254  0.1743 -0.1393
 5752W        W 9271   5.489   1.555  10.707  0.1329  0.2174 -0.1316
 5753W        W 9272   9.446   6.926   1.285 -0.0226  0.1414  0.0270
 5754W        W 9273   3.387   0.207   9.605 -0.0334 -0.3769 -0.0098
 5755W        W 9274   7.726   7.724  11.808  0.0930 -0.0605 -0.0654
 5756W        W 9275   1.006   9.317   0.086 -0.0107  0.0301  0.0768
 5757W        W 9276   5.578   2.642  10.776  0.0628  0.2679 -0.1029
 5758W        W 9277   5.707   2.554   1.624 -0.3610 -0.2778  0.1361
 5759W        W 9278   0.745   7.801   2.313 -0.2276  0.0253 -0.1833
 5760W        W 9279   9.321   5.845   0.202 -0.1005  0.0738  0.1032
 5761W        W 9280   3.880   4.935  11.385  0.0462  0.1526 -0.1591
 5762W        W 9281   1.748   4.899   0.804 -0.1126 -0.0257  0.0773
 5763W        W 9282   8.762   2.374   9.699  0.0308 -0.0797 -0.0541
 5764W        W 9283   1.919   3.056  12.139  0.0200 -0.0167 -0.1890
 5765W        W 9284   7.516   2.589   8.312  0.1316 -0.2407  0.5772
 5766W        W 9285   4.986   9.435   2.506 -0.0897 -0.1674 -0.0405
 5767W        W 9286   1.832   4.193   0.187  0.0455  0.0733  0.3848
 5768W        W 9287   6.027   4.232   3.242  0.1095  0.1414  0.1218
 5769W        W 9288   7.436   6.217  11.467 -0.0204  0.0321  0.0125
 5770W        W 9289   7.342   7.457  11.506 -0.1328  0.0196 -0.3272
 5771W        W 9290   3.146   0.997   0.560  0.0661  0.0423  0.2606
 5772W        W 9291   5.857   7.203   1.495 -0.0688  0.3652  0.0537
 5773W        W 9292   4.167   5.421   2.200  0.0296 -0.3322  0.0185
 5774W        W 9293   8.872   1.808   2.998  0.0312  0.0999 -0.2651
 5775W        W 9294   4.734   4.909   1.719  0.2960 -0.1193 -0.1282
 5776W        W 9295   0.556   2.726   1.344  0.1697  0.2040 -0.3194
 5777W        W 9296   4.310   9.556   9.386 -0.0662 -0.2433  0.2890
 5778W        W 9297   0.211   1.404   9.038 -0.0341  0.4748  0.3008
 5779W        W 9298   6.641   3.387   9.646 -0.0440 -0.0776 -0.2891
 5780W        W 9299   7.330   6.357   4.460 -0.2867 -0.2397  0.0082
 5781W        W 9300   2.514   5.224  12.156  0.0738 -0.0545 -0.1681
 5782W        W 9301   4.534   3.668   0.418  0.2129  0.1905  0.2238
 5783W        W 9302   7.957   3.825  11.659 -0.1146 -0.2736  0.0440
 5784W        W 9303   8.011   7.613   3.272  0.1371 -0.1191  0.0839
 5785W        W 9304   4.060   7.889  12.191 -0.1528 -0.4297 -0.0980
 5786W        W 9305   6.966   7.955   1.477  0.1352  0.1216 -0.0083
 5787W        W 9306   0.491   1.538   0.286  0.5229  0.3841 -0.1614
 5788W        W 9307   8.776   5.040  11.301 -0.1037 -0.1903  0.5474
 5789W        W 9308   3.856   8.858  10.558  0.0072  0.1322 -0.3462
 5790W        W 9309   5.283   4.947   1.817 -0.0578  0.0652  0.2353
 5791W        W 9310   8.967   4.011   1.415  0.2356  0.1922  0.3978
 5792W        W 9311   4.807   4.367   0.736  0.0651 -0.0274  0.1150
 5793W        W 9312   0.691   9.125   9.362  0.0295 -0.0903  0.2566
 5794W        W 9313   8.607   1.829  10.259 -0.2596  0.2327 -0.2816
 5795W        W 9314   2.923   1.761  12.287 -0.0643  0.1360 -0.2834
 5796W        W 9315   2.304   1.211  11.870  0.3810 -0.2437  0.0515
 5797W        W 9316   1.305   4.048   9.966 -0.3042  0.3059 -0.0502
 5798W        W 9317   0.507   6.273   3.363 -0.0653 -0.0036 -0.2334
 5799W        W 9318   2.542   4.744   1.770  0.4255 -0.1710  0.0892
 5800W        W 9319   5.318   3.912   8.867  0.1785  0.3540  0.2753
 5801W        W 9320   7.858   1.174   8.134 -0.1282  0.0393  0.1950
 5802W        W 9321   8.197   1.139   3.163 -0.0410  0.1617  0.0414
 5803W        W 9322   6.311   3.087   9.464 -0.1600 -0.0605 -0.0837
 5804W        W 9323   9.273   3.048   8.628 -0.3134  0.1930  0.0054
 5805W        W 9324   7.053   0.825   8.379 -0.0659 -0.0852  0.0565
 5806W        W 9325   3.261   2.659   3.158  0.2245  0.2962  0.0461
 5807W        W 9326   4.702   5.082   2.768 -0.0767  0.1540 -0.0867
 5808W        W 9327   7.716   8.717  11.774  0.0825  0.0427 -0.0583
 5809W        W 9328   5.375   7.646  11.952 -0.1239  0.0303  0.2239
 5810W        W 9329   7.541   9.038   7.608 -0.0207 -0.2578  0.0982
 5811W        W 9330   8.529   7.518   3.357  0.0594 -0.2286 -0.1189
 5812W        W 9331   4.475   2.150  11.739 -0.2880 -0.2748 -0.1865
 5813W        W 9332   8.599   2.646  11.113 -0.1059 -0.0582 -0.2333
 5814W        W 9333   5.296   2.879   0.162 -0.0974 -0.0587  0.1212
 5815W        W 9334   5.713   3.651   8.603  0.2008 -0.1172  0.2983
 5816W        W 9335   1.504   1.320   2.614  0.1528 -0.4436  0.1698
 5817W        W 9336   8.641   3.802   1.789 -0.0449 -0.0900 -0.0689
 5818W        W 9337   3.466   8.991  11.208 -0.1765  0.0934  0.1593
 5819W        W 9338   2.898   1.165  12.425 -0.1094  0.0839 -0.1950
 5820W        W 9339   6.569   3.936   9.947 -0.1174 -0.0851  0.3844
 5821W        W 9340   9.200   6.027   0.696  0.1350  0.0501 -0.0342
 5822W        W 9341   8.820   1.100   3.051 -0.0593  0.1231 -0.1075
 5823W        W 9342   6.388   3.278  12.426  0.0198 -0.1879 -0.0959
 5824W        W 9343   2.325   8.839  11.861 -0.2516 -0.1868 -0.1071
 5825W        W 9344   9.014   6.771  11.217 -0.0171 -0.1516  0.2759
 5826W        W 9345   0.341   9.276   8.976  0.2064 -0.4482  0.0218
 5827W        W 9346   4.566   2.740   2.069 -0.0265 -0.3032 -0.0519
 5828W        W 9347   0.625   0.307   0.142  0.0058  0.1277 -0.1597
 5829W        W 9348   7.132   0.990  12.394 -0.0782 -0.0499  0.2397
 5830W        W 9349   7.198   8.133   9.087  0.3633 -0.0454 -0.0403
 5831W        W 9350   0.867   0.500  10.429  0.0462  0.1230 -0.1354
 5832W        W 9351   0.657   8.696   1.216  0.0031  0.3878  0.1678
 5833W        W 9352   4.477   0.662  10.728  0.2768 -0.1655 -0.0435
 5834W        W 9353   7.885   8.444   2.465  0.0067 -0.3119 -0.1551
 5835W        W 9354   8.542   1.485  11.136  0.0181  0.1917 -0.0984
 5836W        W 9355   7.057   8.284  10.365 -0.1195  0.1806 -0.2020
 5837W        W 9356   0.688   2.078  10.993 -0.0359  0.1584  0.0121
 5838W        W 9357   0.975   6.306   0.237 -0.0962  0.1701 -0.3138
 5839W        W 9358   0.760   2.653   3.166  0.2239 -0.1473  0.0541
 5840W        W 9359   3.221   2.922   1.239 -0.1291  0.2162  0.1085
 5841W        W 9360   6.805   5.448  11.996  0.0416  0.1136  0.0664
 5842W        W 9361   9.273   7.816  11.714  0.0629  0.0883  0.2413
 5843W        W 9362   8.328   5.056  11.063  0.0507 -0.1070 -0.1945
 5844W        W 9363   2.457   1.658   1.526  0.2521 -0.0393  0.0081
 5845W        W 9364   7.090   0.672   0.861  0.0871 -0.3032  0.0046
 5846W        W 9365   9.360   8.587  10.632 -0.2923 -0.0361  0.2651
 5847W        W 9366   1.019   7.387   8.833  0.2624  0.1844  0.1031
 5848W        W 9367   3.051   4.237   1.529  0.4268  0.0917  0.0365
 5849W        W 9368   7.035   7.297  10.010 -0.0685 -0.1429  0.0299
 5850W        W 9369   9.403   0.330   1.106  0.1641 -0.0419  0.1967
 5851W        W 9370   7.392   4.491  11.160  0.0073 -0.2648 -0.0318
 5852W        W 9371   8.420   9.028  10.497 -0.2034 -0.0935 -0.2468
 5853W        W 9372   9.352   0.879  10.360  0.2055 -0.0649  0.2789
 5854W        W 9373   3.557   4.555   2.152  0.0678  0.2386 -0.1111
 5855W        W 9374   5.105   1.351  11.017 -0.0808  0.0210 -0.0899
 5856W        W 9375   0.303   3.302   4.032  0.1017  0.0942 -0.1111
 5857W        W 9376   6.782   0.836   3.795 -0.1084  0.0105 -0.0655
 5858W        W 9377   4.541   1.665   3.882  0.1382 -0.1546 -0.2230
 5859W        W 9378   0.871   3.694  10.116 -0.3054  0.2034 -0.0251
 5860W        W 9379   4.682   6.768   3.086  0.1398 -0.1435 -0.0862
 5861W        W 9380   0.946   4.261   2.719  0.2699 -0.4694 -0.2000
 5862W        W 9381   4.918   1.784   1.000 -0.1524 -0.0019  0.1716
 5863W        W 9382   3.260   7.867   2.344 -0.1558  0.4864  0.0604
 5864W        W 9383   7.927   5.780   1.402  0.0022  0.2513 -0.1888
 5865W        W 9384   4.543   2.773   3.115  0.0648 -0.1268 -0.1087
 5866W        W 9385   8.176   4.307  11.360 -0.0161 -0.0403  0.0481
 5867W        W 9386   2.759   0.248   8.823  0.1133  0.0204  0.0240
 5868W        W 9387   8.726   5.780   9.897 -0.0015  0.0474  0.0621
 5869W        W 9388   3.430   1.846   0.409 -0.0688  0.0143  0.0674
 5870W        W 9389   8.086   0.708   8.440 -0.1483  0.2363  0.1698
 5871W        W 9390   3.173   3.652   0.674 -0.0911  0.3477 -0.0349
 5872W        W 9391   8.768   1.331   0.079  0.1311 -0.2172  0.4558
 5873W        W 9392   0.797   1.254  11.038  0.2988  0.2906  0.2481
 5874W        W 9393   5.917   4.143   1.646  0.0342 -0.1505 -0.1674
 5875W        W 9394   7.979   4.922   1.740 -0.0401  0.0455  0.3183
 5876W        W 9395   3.628   4.499   0.921 -0.0339 -0.1984  0.0157
 5877W        W 9396   6.811   7.782   8.847 -0.0173 -0.2118 -0.1739
 5878W        W 9397   6.439   8.917   1.280 -0.0653  0.2516 -0.0804
 5879W        W 9398   6.198   8.645   2.169 -0.1254  0.1102 -0.1582
 5880W        W 9399   1.987   7.234   9.062 -0.0566  0.0385  0.4180
 5881W        W 9400   4.619   1.391   3.452  0.0580  0.1960  0.1518
 5882W        W 9401   0.973   0.445   3.297  0.1532  0.1009  0.4562
 5883W        W 9402   7.157   8.037   3.417  0.0873 -0.4934 -0.1535
 5884W        W 9403   8.299   5.534   1.062  0.3838  0.0848 -0.0016
 5885W        W 9404   6.055   1.196   2.184  0.2122  0.0219  0.1231
 5886W        W 9405   7.657   3.567  11.920  0.1897 -0.1301 -0.3682
 5887W        W 9406   4.067   1.304   0.891  0.2117 -0.0437 -0.2959
 5888W        W 9407   0.214   1.124   1.018 -0.1357  0.0705 -0.3253
 5889W        W 9408   1.216   7.143  11.095 -0.2905  0.3381  0.1496
 5890W        W 9409   4.384   1.224  11.341  0.0057 -0.2672 -0.1241
 5891W        W 9410   3.375   1.936  12.452  0.1434  0.1716  0.0328
 5892W        W 9411   5.095   4.365   4.752  0.0246 -0.1315  0.0463
 5893W        W 9412   4.023   3.281  11.411  0.2036  0.0795 -0.1889
 5894W        W 9413   6.273   5.035   2.793  0.4209 -0.0984 -0.2108
 5895W        W 9414   6.319   9.440  10.246 -0.1948  0.1237 -0.3311
 5896W        W 9415   7.181   3.703   0.146  0.1170 -0.1593  0.0693
 5897W        W 9416   8.080   2.731   2.065 -0.0765  0.2057  0.0565
 5898W        W 9417   2.122   3.636   0.883  0.0740  0.0832 -0.3585
 5899W        W 9418   2.232   8.749   3.439 -0.1354 -0.3983  0.1334
 5900W        W 9419   0.146   6.522   3.796  0.1872  0.2659 -0.0216
 5901W        W 9420   3.482   5.617   2.245  0.0503  0.2532  0.0741
 5902W        W 9421   0.372   5.656   4.287 -0.1287  0.1828 -0.1190
 5903W        W 9422   0.761   1.863   2.954 -0.0301 -0.2429 -0.0320
 5904W        W 9423   6.980   2.313  11.593 -0.1798  0.0225 -0.1742
 5905W        W 9424   0.627   4.724   9.777  0.0186  0.3159 -0.2192
 5906W        W 9425   7.366   4.984   3.722 -0.2013 -0.2214 -0.0361
 5907W        W 9426   8.914   6.120   1.214 -0.3861 -0.4030 -0.0378
 5908W        W 9427   1.917   6.098   0.071  0.3242  0.2167  0.0191
 5909W        W 9428   8.123   9.078   3.643 -0.4915  0.2331 -0.3947
 5910W        W 9429   8.300   7.800  11.363 -0.0435  0.0311 -0.1175
 5911W        W 9430   4.124   9.279   2.776  0.2823  0.1371 -0.1323
 5912W        W 9431   6.232   2.602   1.580 -0.0956 -0.1150 -0.0077
 5913W        W 9432   5.402   1.337   8.858  0.1304  0.0054 -0.0072
 5914W        W 9433   9.110   2.436   1.498 -0.2071 -0.1073  0.1889
 5915W        W 9434   7.900   8.251  10.633  0.0652  0.0860 -0.2981
 5916W        W 9435   8.363   6.479  10.625 -0.0074  0.0327 -0.1827
 5917W        W 9436   5.926   3.729   2.061  0.0198 -0.1255 -0.2758
 5918W        W 9437   6.713   7.922   3.338 -0.2986  0.0721 -0.1558
 5919W        W 9438   8.569   7.458   3.827 -0.0673  0.1441  0.3327
 5920W        W 9439   9.327   7.653   3.279  0.2327  0.2278  0.2629
 5921W        W 9440   2.695   9.262   9.504 -0.3540  0.3497 -0.0543
 5922W        W 9441   1.277   1.326   3.536  0.3016  0.1596  0.2488
 5923W        W 9442   0.524   8.064  12.298 -0.2292  0.2361  0.0784
 5924W        W 9443   0.757   0.530   1.423 -0.1067 -0.5275 -0.0780
 5925W        W 9444   1.813   6.075   1.007 -0.3349  0.1725  0.3466
 5926W        W 9445   3.280   8.774   0.651  0.0128 -0.2448  0.3342
 5927W        W 9446   2.169   2.457   8.365 -0.3017 -0.0047  0.1904
 5928W        W 9447   4.531   5.478   4.014 -0.1434  0.3907  0.1066
 5929W        W 9448   2.770   3.791   3.622  0.2591 -0.2145 -0.2428
 5930W        W 9449   5.899   7.402   3.507 -0.1070 -0.0333  0.2863
 5931W        W 9450   2.761   8.472   2.604  0.5312  0.3645  0.1377
 5932W        W 9451   2.626   8.176   0.384 -0.0466  0.0294 -0.0584
 5933W        W 9452   5.432   8.178  12.076 -0.1496 -0.0323 -0.1187
 5934W        W 9453   6.261   5.866  10.903 -0.2829 -0.0648 -0.1043
 5935W        W 9454   0.978   5.306  10.565  0.1801  0.2228  0.1154
 5936W        W 9455   1.756   0.028  10.241 -0.1012 -0.0148  0.0300
 5937W        W 9456   8.365   4.451  10.847 -0.0799 -0.1892 -0.3743
 5938W        W 9457   2.755   3.165   1.171  0.1743  0.0914 -0.0207
 5939W        W 9458   4.907   7.491   0.001  0.1560  0.3819  0.0662
 5940W        W 9459   9.083   0.638  12.262 -0.3724  0.1108  0.0186
 5941W        W 9460   8.836   1.402   2.352  0.1691  0.1020  0.0639
 5942W        W 9461   2.242   6.536  11.901 -0.1281 -0.0182 -0.0969
 5943W        W 9462   6.491   2.194   9.000  0.1864  0.1036 -0.1296
 5944W        W 9463   5.530   5.936  12.361 -0.0546  0.4837 -0.1363
 5945W        W 9464   1.830   1.862   4.442  0.0544  0.0129 -0.2651
 5946W        W 9465   6.075   2.735  10.899  0.2766 -0.3609 -0.1172
 5947W        W 9466   6.197   1.010   1.046 -0.0367  0.1717  0.1509
 5948W        W 9467   7.142   0.986  11.336 -0.0305 -0.2747  0.1571
 5949W        W 9468   3.874   9.662  10.912  0.1045  0.0677  0.0445
 5950W        W 9469   8.538   7.934  10.916  0.0044 -0.1326  0.0035
 5951W        W 9470   2.627   6.315  10.579 -0.1690 -0.0442 -0.1053
 5952W        W 9471   9.142   7.152   4.466 -0.0245 -0.2901  0.2655
 5953W        W 9472   8.330   9.461   2.400  0.1750  0.1704  0.3101
 5954W        W 9473   2.707   9.613   1.398  0.2188  0.3052 -0.0232
 5955W        W 9474   2.174   3.528   2.629  0.0351 -0.0336 -0.5559
 5956W        W 9475   1.026   0.982   1.390  0.3318 -0.1963 -0.0342
 5957W        W 9476   2.837   3.625   9.891  0.1303  0.1827  0.2007
 5958W        W 9477   5.058   4.341  10.702 -0.0177  0.4405 -0.1113
 5959W        W 9478   9.173   0.970   2.374  0.0301 -0.1170 -0.1984
 5960W        W 9479   7.520   6.633   3.160  0.3392 -0.0509 -0.1103
 5961W        W 9480   1.585   1.120   3.903  0.1161  0.0057 -0.2783
 5962W        W 9481   3.469   2.389  10.420 -0.0549 -0.4290 -0.0333
 5963W        W 9482   7.317   2.226  12.025  0.0929  0.1509  0.0772
 5964W        W 9483   8.973   3.752   3.179  0.2376  0.1271  0.5508
 5965W        W 9484   1.386   2.378   1.492 -0.0176  0.0579 -0.1288
 5966W        W 9485   5.063   1.202   9.274 -0.1210  0.0498  0.2488
 5967W        W 9486   3.730   8.904   2.744 -0.1231  0.1361  0.2725
 5968W        W 9487   7.316   1.961   8.906 -0.0566 -0.0359 -0.1851
 5969W        W 9488   3.238   7.982   0.141  0.1113 -0.0125 -0.0108
 5970W        W 9489   6.755   6.837   0.279 -0.1460 -0.0823 -0.2601
 5971W        W 9490   9.701   9.438   0.597 -0.0520  0.0623 -0.0864
 5972W        W 9491   1.359   3.774   1.575 -0.0161 -0.2103  0.0870
 5973W        W 9492   0.519   5.272   1.113  0.2046 -0.0227 -0.0533
 5974W        W 9493   0.686   8.493   2.700 -0.1070  0.1164  0.1317
 5975W        W 9494   2.559   1.748  10.833 -0.2464  0.0029  0.0893
 5976W        W 9495   7.872   6.273   1.839 -0.2829  0.1703  0.2262
 5977W        W 9496   4.664   2.623  11.029  0.1663 -0.1564  0.1468
 5978W        W 9497   5.717   5.897  11.732  0.0000 -0.0988  0.1977
 5979W        W 9498   7.628   2.317   1.453 -0.1517 -0.1006 -0.1202
 5980W        W 9499   8.909   6.382   9.098  0.0378  0.3958 -0.0711
 5981W        W 9500   9.178   4.700  10.553 -0.1603  0.3879  0.0691
 5982W        W 9501   3.585   1.026   8.984  0.0454 -0.3298 -0.0856
 5983W        W 9502   3.497   4.506  10.600 -0.0016 -0.0815  0.0352
 5984W        W 9503   3.520   4.436  11.096  0.1694 -0.3471  0.3414
 5985W        W 9504   4.769   6.008   9.299 -0.2008  0.0356 -0.2980
 5986W        W 9505   3.888   8.815   1.890 -0.0636  0.2026 -0.0425
 5987W        W 9506   2.315   6.334   2.468  0.6202 -0.0019 -0.1128
 5988W        W 9507   5.084   1.329  12.405  0.0528 -0.1635 -0.2037
 5989W        W 9508   6.202   5.679   3.489 -0.0048  0.4745  0.1806
 5990W        W 9509   5.122   9.418  10.016 -0.2026 -0.4137 -0.2388
 5991W        W 9510   2.167   7.434  12.192 -0.1415  0.0059 -0.1516
 5992W        W 9511   9.224   4.685   1.928 -0.0890 -0.2043 -0.1856
 5993W        W 9512   1.609   0.187   0.737  0.0825  0.2211 -0.1331
 5994W        W 9513   6.031   2.604  12.360  0.0127  0.2692 -0.2972
 5995W        W 9514   7.231   2.239   3.053  0.1422  0.2715  0.4474
 5996W        W 9515   0.716   5.700  10.287 -0.1107 -0.2170  0.1183
 5997W        W 9516   6.499   1.859   2.592 -0.2861  0.1517 -0.1267
 5998W        W 9517   2.722   1.127   1.038 -0.2121 -0.1342  0.2987
 5999W        W 9518   2.132   6.941  10.468 -0.0502  0.3061  0.2922
 6000W        W 9519   4.701   1.662   2.103 -0.3635  0.3893  0.1254
 6001W        W 9520   1.670   7.229   3.250 -0.2245  0.0364  0.0788
 6002W        W 9521   8.208   3.729   3.538 -0.0922  0.1791  0.0194
 6003W        W 9522   5.591   3.289   0.374  0.1886 -0.0853 -0.3079
 6004W        W 9523   3.213   7.151  11.925 -0.4747 -0.1266  0.0988
 6005W        W 9524   6.320   6.604  12.133 -0.0980 -0.1356  0.1060
 6006W        W 9525   2.765   6.204   0.766  0.0428 -0.0195 -0.1453
 6007W        W 9526   7.559   4.293  12.034  0.3924  0.1959 -0.0764
 6008W        W 9527   1.255   1.158  11.782  0.1724  0.1808 -0.0516
 6009W        W 9528   5.434   6.464  12.458  0.1275  0.0076  0.0023
 6010W        W 9529   1.959   1.256   1.548  0.2508  0.2041  0.0686
 6011W        W 9530   0.326   6.445  11.319  0.2471 -0.0746  0.1061
 6012W        W 9531   3.612   4.146   2.486  0.2052 -0.4313 -0.2136
 6013W        W 9532   1.590   1.581  10.996 -0.0880 -0.0858 -0.4005
 6014W        W 9533   2.343   2.815  10.789 -0.0865 -0.0474 -0.0879
 6015W        W 9534   2.287   1.701  10.358 -0.2960  0.2410 -0.2680
 6016W        W 9535   4.428   2.314   2.391  0.1263 -0.1571 -0.4430
 6017W        W 9536   0.999   7.330   0.840  0.1034 -0.0607  0.1388
 6018W        W 9537   6.603   7.921   2.150 -0.0146 -0.1499  0.3642
 6019W        W 9538   8.121   2.896   8.370  0.2410  0.1235 -0.2116
 6020W        W 9539   6.665   8.452   1.047  0.0614 -0.1808 -0.2648
 6021W        W 9540   2.662   6.694   0.691  0.1530  0.1436 -0.0052
 6022W        W 9541   4.916   2.327  11.932  0.0881  0.0575 -0.1228
 6023W        W 9542   0.826   1.742   2.049  0.0142 -0.2456 -0.0013
 6024W        W 9543   8.796   4.293  10.672  0.0180 -0.1427  0.0500
 6025W        W 9544   6.120   9.423   3.397  0.0638 -0.1218 -0.0041
 6026W        W 9545   6.383   2.784   8.324 -0.1416 -0.2634  0.0018
 6027W        W 9546   2.835   3.994  12.394 -0.4411  0.0972  0.2913
 6028W        W 9547   4.640   1.082   3.044 -0.1059  0.0879 -0.0366
 6029W        W 9548   7.820   6.908   1.004 -0.0707  0.1619 -0.0376
 6030W        W 9549   9.565   0.422  10.697 -0.1775  0.0064 -0.0576
 6031W        W 9550   9.669   1.058   0.565  0.1095  0.2651 -0.1256
 6032W        W 9551   8.012   4.352  11.961 -0.0359  0.0693 -0.2264
 6033W        W 9552   6.480   1.142   2.443  0.1106 -0.1328  0.1010
 6034W        W 9553   4.054   5.998   1.322 -0.0204  0.3294  0.1793
 6035W        W 9554   0.952   7.949   1.916 -0.2348 -0.1580 -0.0243
 6036W        W 9555   8.492   7.332   2.856 -0.0571 -0.1004 -0.0674
 6037W        W 9556   9.101   8.946  11.016  0.4445 -0.2674 -0.0483
 6038W        W 9557   4.839   8.646   9.274 -0.1483 -0.0470 -0.2532
 6039W        W 9558   0.974   6.026   1.359  0.1350  0.0290  0.1180
 6040W        W 9559   2.648   0.456   2.233 -0.0341  0.3713  0.0495
 6041W        W 9560   3.370   9.628   1.816  0.3487  0.0607 -0.1978
 6042W        W 9561   9.611   8.203   9.821 -0.3964  0.2016 -0.2560
 6043W        W 9562   9.660   8.825   1.785 -0.1780 -0.0548 -0.0338
 6044W        W 9563   7.038   9.136  11.087  0.2525 -0.1596  0.0948
 6045W        W 9564   2.390   5.762   2.265 -0.1073 -0.0977 -0.1733
 6046W        W 9565   1.935   9.382   9.883 -0.0013 -0.1308  0.1228
 6047W        W 9566   6.105   7.761   2.250 -0.1499 -0.1122 -0.1599
 6048W        W 9567   3.360   1.028   0.085  0.0747 -0.1299 -0.1232
 6049W        W 9568   5.736   0.547   8.695  0.1388 -0.0991  0.1887
 6050W        W 9569   4.195   5.064   9.233 -0.0807 -0.2883 -0.3093
 6051W        W 9570   4.387   3.959  10.970 -0.1513 -0.1267  0.0334
 6052W        W 9571   2.142   0.846   9.020  0.1357 -0.0107  0.0686
 6053W        W 9572   4.611   1.593  11.716  0.3499 -0.2303 -0.0324
 6054W        W 9573   3.678   3.604   0.462  0.0224  0.0112  0.0670
 6055W        W 9574   9.587   4.126  11.043  0.1625 -0.1075 -0.1492
 6056W        W 9575   6.560   1.963  10.050  0.0569  0.1951  0.2027
 6057W        W 9576   3.738   0.989   1.166 -0.1379 -0.3299  0.1096
 6058W        W 9577   1.579   1.666   8.601  0.2860 -0.1366  0.3283
 6059W        W 9578   0.889   4.859  10.931  0.0133  0.2101  0.0803
 6060W        W 9579   6.790   3.720  12.318  0.0818 -0.0703  0.0665
 6061W        W 9580   9.425   8.008   9.438  0.1218  0.2231 -0.0599
 6062W        W 9581   3.944   4.964   4.487 -0.1416  0.3060  0.0048
 6063W        W 9582   7.343   3.300  12.137  0.1804  0.1172 -0.3365
 6064W        W 9583   6.606   6.134   2.520 -0.0831  0.0347  0.1376
 6065W        W 9584   5.789   4.636  10.101  0.0235 -0.0993  0.4427
 6066W        W 9585   3.673   5.072   3.878  0.0262 -0.0355  0.1123
 6067W        W 9586   4.363   7.050   3.670  0.1901 -0.3193 -0.1278
 6068W        W 9587   0.335   1.026  12.175 -0.2517  0.1689 -0.0306
 6069W        W 9588   2.159   2.926  11.731 -0.0694  0.1453  0.2630
 6070W        W 9589   6.920   6.811   3.806 -0.0480 -0.2978 -0.1019
 6071W        W 9590   1.675   5.163  12.502 -0.0499  0.1617  0.0079
 6072W        W 9591   7.738   9.204   0.305  0.1733 -0.0261 -0.0132
 6073W        W 9592   8.740   3.367  11.800  0.2921  0.1522 -0.2240
 6074W        W 9593   5.678   9.336   1.319  0.2051  0.0598 -0.2515
 6075W        W 9594   3.540   4.977   1.969  0.1097 -0.2781 -0.1039
 6076W        W 9595   1.532   8.094  10.362  0.1734  0.0348 -0.3207
 6077W        W 9596   5.742   0.091  11.134 -0.1076  0.0289  0.0743
 6078W        W 9597   4.105   1.673  11.760 -0.2396  0.0757 -0.3511
 6079W        W 9598   2.509   6.223   1.996  0.2311  0.0501 -0.1305
 6080W        W 9599   3.026   0.683  12.305  0.0084  0.3483 -0.2887
 6081W        W 9600   6.591   1.268   3.977 -0.0905 -0.2736  0.0534
 6082W        W 9601   2.469   2.261   8.778 -0.3304 -0.1650 -0.1008
 6083W        W 9602   7.495   6.139   1.489 -0.2060  0.0910  0.0003
 6084W        W 9603   5.354   2.680  11.730 -0.1762 -0.0194  0.0456
 6085W        W 9604   2.473   7.850  12.014  0.0055 -0.0716 -0.0979
 6086W        W 9605   1.590   3.489   8.416  0.0534  0.0989  0.3652
 6087W        W 9606   5.652   8.056   1.841 -0.0265 -0.4472  0.2018
 6088W        W 9607   9.226   4.665   3.431  0.0951  0.2802 -0.0532
 6089W        W 9608   3.593   1.520   0.987  0.0963 -0.0706  0.0597
 6090W        W 9609   2.671   5.184   0.418  0.0838  0.1150  0.0312
 6091W        W 9610   9.306   9.506   3.038  0.2362 -0.0191 -0.0371
 6092W        W 9611   9.259   3.329  10.655  0.2318  0.3257  0.0276
 6093W        W 9612   1.354   6.893   9.512 -0.1252  0.1950 -0.0422
 6094W        W 9613   0.796   0.209   2.450 -0.1899  0.2819 -0.0429
 6095W        W 9614   3.618   2.298  11.389 -0.0053  0.0544 -0.1511
 6096W        W 9615   5.776   4.635   0.186  0.0012 -0.0919  0.1619
 6097W        W 9616   3.439   5.323   1.481 -0.1358  0.0493 -0.3120
 6098W        W 9617   3.353   0.349  12.516  0.1172 -0.2879 -0.1450
 6099W        W 9618   6.278   7.548   0.378  0.0774  0.1977  0.1268
 6100W        W 9619   8.902   7.751   3.592 -0.1035 -0.1120  0.1110
 6101W        W 9620   9.547   6.710  12.166  0.0936  0.1500  0.0928
 6102W        W 9621   8.823   4.674   9.641 -0.0409 -0.3777  0.1699
 6103W        W 9622   0.606   3.934  10.801  0.0665  0.3085  0.1527
 6104W        W 9623   6.683   5.032  10.226  0.2432  0.0762 -0.1432
 6105W        W 9624   1.066   3.718   4.137  0.2962 -0.2437 -0.0794
 6106W        W 9625   4.200   4.283   4.036 -0.2627 -0.2165  0.1214
 6107W        W 9626   0.263   8.589  11.047  0.0454 -0.0819 -0.2723
 6108W        W 9627   7.016   6.424   8.712 -0.3144 -0.2054 -0.0186
 6109W        W 9628   1.146   0.218  11.368 -0.0325 -0.4088  0.1652
 6110W        W 9629   5.221   5.584  10.104 -0.1589  0.0638 -0.2342
 6111W        W 9630   4.965   7.545  11.114  0.0976 -0.0171 -0.0711
 6112W        W 9631   7.510   5.443   0.680  0.2708 -0.3308  0.0487
 6113W        W 9632   8.966   7.782  10.379  0.4031 -0.1745  0.2193
 6114W        W 9633   5.131   6.581   0.296 -0.0034 -0.0628 -0.1856
 6115W        W 9634   3.209   9.497   3.608  0.1973 -0.2703 -0.1147
 6116W        W 9635   5.120   6.046   0.053 -0.0083  0.2929  0.1609
 6117W        W 9636   3.339   0.270   3.674  0.1856  0.1820  0.0752
 6118W        W 9637   5.661   1.939   9.596 -0.1513 -0.0309  0.1068
 6119W        W 9638   2.982   1.101  11.321  0.0914 -0.2485  0.1393
 6120W        W 9639   3.985   8.390  12.074  0.3493  0.0972  0.2062
 6121W        W 9640   2.002   2.162   8.706 -0.4629  0.1090 -0.2136
 6122W        W 9641   5.088   3.246   3.899 -0.1270 -0.1170  0.1838
 6123W        W 9642   6.577   2.724  10.799  0.0759  0.1750 -0.0196
 6124W        W 9643   1.953   5.304  10.543  0.0139  0.0004  0.0396
 6125W        W 9644   5.600   4.152   8.361  0.1671  0.0425 -0.2423
 6126W        W 9645   8.257   6.779   9.647  0.2009 -0.1362  0.0067
 6127W        W 9646   7.629   4.929   2.118 -0.0352 -0.0082 -0.0359
 6128W        W 9647   9.293   8.600   3.269 -0.0977  0.5030 -0.0080
 6129W        W 9648   2.364   2.683   0.747  0.3584 -0.0514 -0.0726
 6130W        W 9649   3.089   1.726   8.637 -0.0894  0.3311  0.0188
 6131W        W 9650   7.165   5.495   2.466  0.0268  0.1199  0.1005
 6132W        W 9651   0.381   0.450   2.291  0.4526 -0.2129  0.3561
 6133W        W 9652   9.091   8.456  11.631  0.1054  0.2237 -0.2037
 6134W        W 9653   6.899   5.103  11.076  0.0715  0.2295  0.1124
 6135W        W 9654   9.203   3.468   2.424  0.1009  0.0594  0.1953
 6136W        W 9655   9.111   3.305   2.926 -0.1464  0.0687  0.1817
 6137W        W 9656   7.594   4.080   8.847  0.1746  0.0846 -0.0043
 6138W        W 9657   5.294   1.736  10.156  0.1353 -0.0289  0.0003
 6139W        W 9658   3.953   7.541   0.591 -0.1238  0.0161 -0.0468
 6140W        W 9659   2.463   8.848  10.521  0.0345 -0.4128 -0.0195
 6141W        W 9660   4.276   2.289   1.489 -0.1519 -0.0641 -0.2608
 6142W        W 9661   9.515   5.422   9.113 -0.5626 -0.1202  0.0192
 6143W        W 9662   5.748   6.420  11.263  0.0541  0.3883 -0.3086
 6144W        W 9663   6.869   6.097   1.010 -0.0632 -0.0667  0.0077
 6145W        W 9664   9.241   8.563   3.829  0.2596 -0.1911 -0.1626
 6146W        W 9665   4.831   5.666   8.269  0.2469  0.2886  0.0112
 6147W        W 9666   6.829   8.328   3.697 -0.1475  0.0981  0.0298
 6148W        W 9667   9.133   4.347  11.049  0.1330  0.3036  0.0332
 6149W        W 9668   4.068   3.557   3.440 -0.1941 -0.0699  0.1502
 6150W        W 9669   2.938   9.644   3.252  0.0832  0.0646 -0.1843
 6151W        W 9670   2.397   9.684   3.345 -0.5483  0.1567  0.1724
 6152W        W 9671   5.479   4.113   1.916 -0.0725 -0.4278 -0.2814
 6153W        W 9672   2.870   4.773   2.916 -0.1285  0.0513  0.3403
 6154W        W 9673   2.359   3.011   3.563  0.0801 -0.0303  0.0528
 6155W        W 9674   1.777   4.114   9.106  0.0309  0.0908  0.0402
 6156W        W 9675   5.191   1.421   2.503  0.0010 -0.1953  0.1770
 6157W        W 9676   8.661   0.913   2.570 -0.3859  0.1629 -0.2857
 6158W        W 9677   8.011   4.653   9.528 -0.1312 -0.1911  0.0951
 6159W        W 9678   5.522   5.553   0.680 -0.3337  0.0251  0.1601
 6160W        W 9679   5.948   0.601  10.342 -0.0101 -0.2372  0.1228
 6161W        W 9680   4.498   8.681   8.927  0.1856  0.0643 -0.4302
 6162W        W 9681   5.924   1.451   9.151  0.1785 -0.0513  0.0968
 6163W        W 9682   2.043   6.743   2.351  0.0223 -0.1672  0.3410
 6164W        W 9683   6.555   2.309   8.462  0.1446 -0.2723 -0.1791
 6165W        W 9684   6.117   6.831   8.334  0.3267 -0.2718  0.0089
 6166W        W 9685   8.530   6.542  11.465 -0.0230 -0.0743 -0.0299
 6167W        W 9686   2.908   7.103  12.327 -0.2037  0.0478  0.2018
 6168W        W 9687   3.466   9.031   1.636 -0.0545  0.0667  0.1138
 6169W        W 9688   6.669   8.055   2.786  0.0137 -0.3506  0.2848
 6170W        W 9689   1.771   9.402  11.115  0.2197 -0.1678 -0.2422
 6171W        W 9690   1.615   8.649   2.162  0.1494  0.0937 -0.1307
 6172W        W 9691   7.213   3.536   2.849  0.2097 -0.1104  0.2578
 6173W        W 9692   2.517   8.268   2.190 -0.1046  0.0908 -0.4358
 6174W        W 9693   0.324   3.253   1.084 -0.0077  0.1619  0.0190
 6175W        W 9694   9.143   5.770   1.658 -0.2686  0.1156 -0.2652
 6176W        W 9695   1.027   9.237  12.097 -0.3812 -0.0227 -0.0916
 6177W        W 9696   9.274   9.651  12.159  0.0202 -0.0564 -0.0280
 6178W        W 9697   8.979   1.946  10.910  0.1807 -0.1022  0.0137
 6179W        W 9698   1.103   4.328   0.986 -0.0413 -0.1318 -0.1207
 6180W        W 9699   8.357   5.840  10.612 -0.0899 -0.1894 -0.1117
 6181W        W 9700   6.598   8.421   9.159  0.0410  0.0057  0.0750
 6182W        W 9701   3.707   1.834  10.887 -0.2391  0.1369 -0.0850
 6183W        W 9702   6.346   2.804   0.185  0.0730  0.0189 -0.0155
 6184W        W 9703   4.696   9.142   1.394  0.1650 -0.1157 -0.3804
 6185W        W 9704   5.049   6.419   2.744  0.0893 -0.0294 -0.3095
 6186W        W 9705   7.815   2.157  11.933 -0.0274  0.0998 -0.1294
 6187W        W 9706   1.391   0.628  11.181  0.3475 -0.2857  0.1913
 6188W        W 9707   4.039   2.196  11.623 -0.0371 -0.0371  0.0484
 6189W        W 9708   2.084   1.389   0.554 -0.0345 -0.0318  0.1855
 6190W        W 9709   8.843   4.257   3.027  0.1600  0.3412  0.0128
 6191W        W 9710   4.823   1.082   0.189 -0.0351  0.1153  0.1989
 6192W        W 9711   0.396   4.583   9.328 -0.0169 -0.1054  0.0456
 6193W        W 9712   0.797   2.813   8.431 -0.0223 -0.1377 -0.2975
 6194W        W 9713   1.401   8.839   1.665 -0.0092  0.3075  0.0658
 6195W        W 9714   6.339   1.987   0.829  0.1243  0.0199  0.0640
 6196W        W 9715   5.503   4.174   9.246  0.1533 -0.0777 -0.2453
 6197W        W 9716   0.177   2.212   9.615 -0.0477  0.0498 -0.0871
 6198W        W 9717   4.775   4.253   9.584 -0.0684  0.0964  0.1982
 6199W        W 9718   6.988   5.023  11.849 -0.3864  0.0122  0.3107
 6200W        W 9719   4.933   4.153   3.644  0.2236  0.0893  0.1594
 6201W        W 9720   9.647   6.769  10.086 -0.0018  0.0445  0.0982
 6202W        W 9721   3.882   7.562   2.855  0.1327 -0.1087 -0.0049
 6203W        W 9722   2.548   0.368   0.518  0.0178 -0.3206  0.0876
 6204W        W 9723   7.525   4.370   0.955  0.3219  0.0378 -0.0313
 6205W        W 9724   6.446   1.217  10.718 -0.0255 -0.1125  0.0191
 6206W        W 9725   9.075   7.096   0.469 -0.1728 -0.2302 -0.2995
 6207W        W 9726   3.904   1.293  11.523 -0.1053  0.0954 -0.0613
 6208W        W 9727   4.531   2.750   9.129 -0.0508 -0.0645 -0.1638
 6209W        W 9728   3.356   9.556  11.827 -0.0660 -0.4623  0.1099
 6210W        W 9729   7.102   1.379   3.766 -0.1159 -0.1565 -0.0176
 6211W        W 9730   0.535   4.083   0.066 -0.0034  0.2994 -0.0546
 6212W        W 9731   8.132   3.866  11.137 -0.0364  0.1992  0.0719
 6213W        W 9732   0.049   3.549  10.980  0.0279 -0.0782  0.0120
 6214W        W 9733   1.033   0.796   9.318 -0.0076 -0.1152 -0.1530
 6215W        W 9734   5.571   8.833   3.439  0.4639 -0.1747  0.2328
 6216W        W 9735   7.116   8.912   0.779  0.0475  0.0547  0.0965
 6217W        W 9736   5.260   5.568   3.235  0.0887 -0.0667 -0.0711
 6218W        W 9737   6.369   3.468  11.446  0.0643  0.1198 -0.0197
 6219W        W 9738   3.129   4.526   2.533  0.0477 -0.0975  0.0827
 6220W        W 9739   2.943   2.273   9.679 -0.1592 -0.2487 -0.2902
 6221W        W 9740   0.792   4.391   4.205  0.0484  0.1367  0.1176
 6222W        W 9741   5.029   0.879  10.160 -0.1624  0.0237 -0.3246
 6223W        W 9742   4.430   6.926   1.085 -0.0446 -0.1103 -0.0447
 6224W        W 9743   5.875   5.750   9.507  0.2596 -0.0314 -0.1296
 6225W        W 9744   5.408   0.380  10.680  0.0403  0.2902 -0.1419
 6226W        W 9745   1.663   8.065   0.467  0.0676 -0.0963 -0.0317
 6227W        W 9746   7.483   4.644  10.401 -0.1341  0.2526  0.1597
 6228W        W 9747   3.013   1.247  10.547 -0.0372 -0.3357  0.3130
 6229W        W 9748   6.500   1.797  12.272  0.1508  0.1403  0.1012
 6230W        W 9749   6.635   7.543   0.962  0.0147  0.0375 -0.0294
 6231W        W 9750   2.906   3.721  10.785 -0.1619  0.1614  0.2146
 6232W        W 9751   5.788   5.794   1.504  0.0666  0.1910 -0.1975
 6233W        W 9752   6.529   2.294   2.367  0.0042  0.1186 -0.2488
 6234W        W 9753   4.798   4.619   2.977 -0.2015 -0.0419 -0.1408
 6235W        W 9754   6.705   4.859   0.520 -0.0912  0.4347 -0.1054
 6236W        W 9755   8.940   2.210   0.105  0.0165  0.0092 -0.0109
 6237W        W 9756   3.060   7.601  10.176  0.1831 -0.3459  0.1484
 6238W        W 9757   0.521   2.431   9.369  0.0415 -0.0268 -0.2208
 6239W        W 9758   3.448   3.695   4.230  0.1721  0.0119 -0.0674
 6240W        W 9759   1.851   6.773  11.137  0.2114 -0.0076 -0.0330
 6241W        W 9760   3.711   4.133   4.166  0.2288 -0.1031 -0.0159
 6242W        W 9761   2.167   5.384   1.922  0.1153 -0.0190  0.0642
 6243W        W 9762   9.682   2.863   9.721  0.2307 -0.0181  0.0104
 6244W        W 9763   6.544   5.392   0.805 -0.2873  0.0413  0.0575
 6245W        W 9764   0.170   3.695   4.382  0.0105  0.0392 -0.3025
 6246W        W 9765   3.410   0.853   2.139  0.0852 -0.3044 -0.0235
 6247W        W 9766   1.782   9.203   1.453  0.1219 -0.1276 -0.1980
 6248W        W 9767   6.601   4.601  12.331 -0.3584  0.1142 -0.0724
 6249W        W 9768   8.036   4.889   2.366 -0.0000 -0.1251  0.1839
 6250W        W 9769   1.223   5.273   2.014 -0.2503  0.1252 -0.2600
 6251W        W 9770   6.524   4.543   9.490  0.1556 -0.1856  0.1519
 6252W        W 9771   8.878   9.359   1.972  0.0467  0.0555 -0.0072
 6253W        W 9772   5.907   1.916  12.232 -0.2341 -0.0176 -0.0963
 6254W        W 9773   4.442   2.030   0.252 -0.1090  0.3074  0.1913
 6255W        W 9774   1.835   1.706   2.360  0.2535  0.0031 -0.0902
 6256W        W 9775   4.407   2.974   0.664 -0.0077 -0.3718 -0.0853
 6257W        W 9776   0.922   4.341   3.214  0.1759 -0.3016  0.0777
 6258W        W 9777   3.315   1.303  11.640 -0.3210 -0.1090 -0.0364
 6259W        W 9778   7.221   8.347  11.831  0.0201  0.0932 -0.3035
 6260W        W 9779   1.193   5.789  10.514  0.1394  0.2683 -0.0203
 6261W        W 9780   3.024   8.705  11.213 -0.4281 -0.1026 -0.1507
 6262W        W 9781   0.064   1.399   9.612  0.0478 -0.3897 -0.0508
 6263W        W 9782   4.379   4.599   9.812 -0.1300 -0.2330 -0.3133
 6264W        W 9783   8.248   1.560   0.146  0.0486  0.1269 -0.1192
 6265W        W 9784   4.716   3.381   1.449 -0.0393  0.1805  0.0378
 6266W        W 9785   7.231   0.176   3.015  0.2126  0.1602  0.0229
 6267W        W 9786   2.485   7.213  11.466  0.2923  0.1315 -0.0040
 6268W        W 9787   8.824   4.557   8.770 -0.2755 -0.1099 -0.0189
 6269W        W 9788   0.469   1.307  10.458 -0.1754  0.1977  0.3117
 6270W        W 9789   1.688   3.029  10.733  0.1136 -0.0799 -0.1091
 6271W        W 9790   9.288   5.943  12.261 -0.0654  0.1767  0.0805
 6272W        W 9791   1.290   3.569   2.894 -0.1391 -0.0121  0.1489
 6273W        W 9792   5.229   3.736   2.745  0.1950 -0.0196  0.1110
 6274W        W 9793   6.919   9.449   2.024  0.1255  0.4315 -0.2976
 6275W        W 9794   1.834   5.815  12.193 -0.1777 -0.2986  0.0297
 6276W        W 9795   7.782   5.959   9.401 -0.0453 -0.2160  0.0494
 6277W        W 9796   1.430   1.335   0.166  0.1707 -0.1453 -0.5789
 6278W        W 9797   5.562   4.371  10.726  0.0108  0.0946  0.1578
 6279W        W 9798   6.303   7.575  11.884  0.0480  0.0469  0.1956
 6280W        W 9799   3.275   3.826   9.582 -0.0273 -0.1680 -0.3027
 6281W        W 9800   2.376   1.872  12.117  0.1241  0.2267  0.1013
 6282W        W 9801   9.480   0.595   7.917  0.1160 -0.0039  0.2838
 6283W        W 9802   4.060   9.483  12.255  0.0624 -0.2692 -0.1703
 6284W        W 9803   7.453   8.313   1.613  0.0580  0.2657  0.0937
 6285W        W 9804   6.729   3.321   7.919 -0.1788 -0.5854  0.1461
 6286W        W 9805   1.627   3.173   1.685 -0.1427  0.0756 -0.3130
 6287W        W 9806   4.261   5.196  11.138  0.0808  0.0971 -0.2690
 6288W        W 9807   6.672   6.993  10.524 -0.1160 -0.4032  0.0977
 6289W        W 9808   2.578   7.498  12.478 -0.0982 -0.0313 -0.1593
 6290W        W 9809   0.827   8.249   1.055 -0.0081 -0.2160 -0.3520
 6291W        W 9810   4.585   6.309   2.430 -0.1983  0.2068  0.2650
 6292W        W 9811   8.199   7.486   2.360 -0.0669  0.2234  0.0697
 6293W        W 9812   9.185   3.131   0.099  0.1046  0.2128  0.0295
 6294W        W 9813   1.913   1.749   0.873  0.1531 -0.0183  0.1011
 6295W        W 9814   6.765   8.034   9.937 -0.0243  0.0279 -0.2230
 6296W        W 9815   3.801   2.579   8.634  0.0754  0.2289  0.0049
 6297W        W 9816   0.427   8.403   0.296 -0.0812  0.3733 -0.1009
 6298W        W 9817   9.693   0.734   8.332  0.0035  0.3195  0.1480
 6299W        W 9818   0.319   0.479   4.116 -0.3410  0.0254 -0.0093
 6300W        W 9819   6.355   6.571   2.590  0.1081  0.1456 -0.0587
 6301W        W 9820   3.489   6.425   8.461  0.0589  0.4552 -0.4573
 6302W        W 9821   3.907   8.265   9.103 -0.0209  0.4624  0.1789
 6303W        W 9822   0.095   3.488   8.119  0.0036  0.3379 -0.0924
 6304W        W 9823   0.688   7.231   1.212  0.2988 -0.0422 -0.0846
 6305W        W 9824   2.107   2.116   2.345  0.3642 -0.2833  0.1024
 6306W        W 9825   5.045   0.261   9.208 -0.2485  0.2413  0.0094
 6307W        W 9826   7.455   9.375   4.183 -0.2057  0.0811  0.3082
 6308W        W 9827   3.514   5.670   0.724 -0.3540  0.0983  0.5452
 6309W        W 9828   7.509   4.420   0.330 -0.2970  0.1343 -0.1987
 6310W        W 9829   9.275   9.194   3.979 -0.0103  0.1514 -0.0431
 6311W        W 9830   0.166   2.007   4.142 -0.0061 -0.0257  0.0674
 6312W        W 9831   1.791   6.582   0.794 -0.1294 -0.3027 -0.1606
 6313W        W 9832   5.510   7.617   1.708  0.1889  0.0048 -0.1215
 6314W        W 9833   1.138   2.670   4.143  0.0120  0.1429  0.0209
 6315W        W 9834   3.612   3.044  10.084  0.2655  0.4128 -0.0687
 6316W        W 9835   5.010   4.517   1.871 -0.2026  0.1442 -0.2293
 6317W        W 9836   8.460   1.588   0.667 -0.0619 -0.3485  0.1474
 6318W        W 9837   5.412   1.655   9.217  0.0394 -0.1281  0.0797
 6319W        W 9838   9.457   5.238   3.573  0.0138 -0.1624  0.1892
 6320W        W 9839   4.223   3.804   4.072 -0.4638  0.1288 -0.1458
 6321W        W 9840   2.284   5.362   2.803  0.0447 -0.0252  0.0642
 6322W        W 9841   8.784   5.989   3.946  0.2683 -0.2378  0.0481
 6323W        W 9842   3.956   4.936   3.419  0.2718 -0.0897  0.1113
 6324W        W 9843   4.940   4.794   0.432 -0.3604  0.1395  0.0522
 6325W        W 9844   2.937   3.395   9.009  0.0393  0.0937 -0.2818
 6326W        W 9845   2.877   0.914  11.808 -0.1779  0.1731  0.0561
 6327W        W 9846   0.190   2.834  10.827 -0.2029 -0.2575  0.1277
 6328W        W 9847   9.392   3.797   1.472  0.2636  0.2268 -0.3364
 6329W        W 9848   1.955   9.555   2.027  0.1129 -0.0719  0.1559
 6330W        W 9849   3.017   6.209  11.570 -0.2789 -0.0185 -0.1534
 6331W        W 9850   2.361   4.220  11.290 -0.1226  0.3025 -0.2731
 6332W        W 9851   4.305   6.084  11.716 -0.0076  0.0936  0.0628
 6333W        W 9852   0.043   5.724   8.532 -0.0357 -0.2656  0.0633
 6334W        W 9853   3.971   3.224   8.564 -0.1942 -0.0013  0.1713
 6335W        W 9854   7.161   2.964   1.482 -0.3637  0.0679  0.0705
 6336W        W 9855   3.180   3.418   1.325  0.1222 -0.0547  0.5361
 6337W        W 9856   2.797   3.177   0.496 -0.0124 -0.0164  0.1230
 6338W        W 9857   8.346   8.488   9.028  0.1742  0.1742 -0.1021
 6339W        W 9858   5.057   3.942   1.787  0.0470  0.0983 -0.1697
 6340W        W 9859   8.218   7.815   8.684  0.0145  0.1178  0.0701
 6341W        W 9860   8.756   3.247   9.973  0.0771  0.1319  0.0976
 6342W        W 9861   5.667   4.852   4.041  0.0059 -0.1469  0.0031
 6343W        W 9862   4.775   7.208   1.809 -0.0523 -0.3872 -0.0276
 6344W        W 9863   1.554   6.580   2.046  0.2169  0.0395 -0.2201
 6345W        W 9864   4.422   1.581  10.222  0.2639  0.1308 -0.1374
 6346W        W 9865   2.343   1.407   8.072 -0.0526 -0.2012  0.4565
 6347W        W 9866   4.389   1.221   0.518 -0.1662 -0.2145  0.0653
 6348W        W 9867   9.462   1.622   9.242  0.0094  0.0707  0.1937
 6349W        W 9868   0.034   4.659   1.163  0.0188  0.0338  0.0516
 6350W        W 9869   2.301   7.714   2.189  0.1571 -0.2188 -0.0813
 6351W        W 9870   6.538   0.357   0.257  0.2827  0.2976  0.0390
 6352W        W 9871   1.471   5.216   9.856  0.2880  0.0245  0.1173
 6353W        W 9872   7.123   4.942   2.416 -0.2370 -0.0310  0.0432
 6354W        W 9873   4.196   7.401  10.920 -0.0048 -0.0962 -0.3826
 6355W        W 9874   7.341   0.972  10.336 -0.0928  0.0530  0.0741
 6356W        W 9875   3.940   1.819   1.617 -0.0709  0.0998 -0.1598
 6357W        W 9876   4.916   8.827  10.635  0.0456 -0.0944  0.1301
 6358W        W 9877   4.866   4.547   2.463 -0.2961 -0.0674 -0.1720
 6359W        W 9878   3.183   0.749   8.943 -0.0403 -0.3526 -0.0207
 6360W        W 9879   1.083   6.968  11.628  0.1680  0.0220  0.1251
 6361W        W 9880   7.576   1.962  12.387 -0.1059  0.3285  0.0629
 6362W        W 9881   3.905   0.822   8.620 -0.0374 -0.2479  0.3937
 6363W        W 9882   6.759   1.920   0.169  0.0106 -0.0193  0.2434
 6364W        W 9883   8.396   6.195   2.100  0.1216 -0.1119 -0.0592
 6365W        W 9884   1.176   4.488   0.498  0.1420 -0.2596 -0.3486
 6366W        W 9885   4.873   3.863  10.840 -0.3773  0.3181  0.3425
 6367W        W 9886   9.199   6.037   3.257  0.1434  0.1449 -0.1395
 6368W        W 9887   6.738   4.725   2.105  0.0662 -0.4421 -0.0963
 6369W        W 9888   0.178   2.398  11.484  0.0288 -0.1084 -0.0559
 6370W        W 9889   0.648   4.561   0.901 -0.3540 -0.0210  0.1710
 6371W        W 9890   8.047   3.199   3.911  0.2823 -0.2268  0.0670
 6372W        W 9891   1.367   9.538   0.402  0.5655  0.3391  0.0224
 6373W        W 9892   2.501   5.290  11.180  0.1116 -0.0763  0.0811
 6374W        W 9893   8.100   1.282   1.878 -0.2061  0.1554 -0.1519
 6375W        W 9894   8.560   5.056   3.795  0.1473 -0.1730 -0.0235
 6376W        W 9895   0.099   9.141   3.214  0.0892  0.1938  0.0566
 6377W        W 9896   2.218   7.636   9.198 -0.0152 -0.0243  0.3448
 6378W        W 9897   6.956   3.188  10.680 -0.1699  0.2191 -0.1956
 6379W        W 9898   4.558   4.244   9.150 -0.3845 -0.0933  0.4101
 6380W        W 9899   7.515   0.542   0.111  0.1743  0.0965  0.0700
 6381W        W 9900   9.045   5.507  12.172  0.0191  0.0409  0.0708
 6382W        W 9901   8.401   5.712   8.709 -0.1023  0.0110  0.0503
 6383W        W 9902   1.404   2.597   0.861  0.1130 -0.0490  0.2405
 6384W        W 9903   4.647   4.014   9.979 -0.1269  0.1423 -0.0858
 6385W        W 9904   8.426   0.042   0.132 -0.1040 -0.0565 -0.0948
 6386W        W 9905   7.441   1.722   3.986 -0.0644 -0.2385  0.3110
 6387W        W 9906   1.389   7.007   8.146 -0.0357  0.2246  0.4698
 6388W        W 9907   1.491   9.301   1.959  0.1479 -0.0834 -0.1519
 6389W        W 9908   9.132   5.964  10.183 -0.3813 -0.5301  0.1318
 6390W        W 9909   4.615   0.859   1.653  0.2350 -0.2865  0.0044
 6391W        W 9910   2.309   2.732   8.774  0.0553 -0.1186 -0.0641
 6392W        W 9911   0.001   7.386   3.401 -0.1009 -0.0308  0.1975
 6393W        W 9912   8.855   5.894   8.899  0.0621  0.2879 -0.3920
 6394W        W 9913   3.458   6.086   0.461  0.2714 -0.2367  0.0051
 6395W        W 9914   5.346   7.954  10.118 -0.1242 -0.0493  0.2064
 6396W        W 9915   9.558   4.773   0.211 -0.0351  0.2803  0.0085
 6397W        W 9916   9.550   4.885   2.674 -0.0757 -0.2180 -0.0386
 6398W        W 9917   1.583   8.183  11.808 -0.2782 -0.2730  0.0642
 6399W        W 9918   5.272   4.654   9.261  0.0652 -0.3266  0.3692
 6400W        W 9919   4.755   1.968  10.245  0.1145 -0.1851 -0.1030
 6401W        W 9920   6.053   7.409   2.982  0.2384 -0.1519 -0.1423
 6402W        W 9921   9.247   0.057   9.892 -0.0301  0.0469 -0.1011
 6403W        W 9922   5.932   5.136   0.159  0.0128 -0.3059  0.0060
 6404W        W 9923   3.295   3.401  10.503  0.1371 -0.2748 -0.3576
 6405W        W 9924   2.107   0.274   8.695  0.1915  0.1604  0.1993
 6406W        W 9925   0.306   2.821  12.303 -0.1147  0.1458  0.0235
 6407W        W 9926   5.156   6.520   0.791  0.0080 -0.0476 -0.3833
 6408W        W 9927   2.833   1.658   8.074 -0.1439 -0.3744  0.2824
 6409W        W 9928   4.513   5.974  10.904  0.1998 -0.1359 -0.1873
 6410W        W 9929   0.175   3.230   0.069  0.1111  0.0254 -0.2538
 6411W        W 9930   7.223   6.309  10.045  0.1521  0.1860 -0.0237
 6412W        W 9931   5.490   4.283   3.140 -0.1754 -0.2562  0.1156
 6413W        W 9932   3.282   3.371   9.421 -0.2038 -0.1374  0.1443
 6414W        W 9933   4.162   7.351   1.046  0.1723 -0.1796 -0.0007
 6415W        W 9934   3.955   6.300   0.113  0.2764 -0.1392  0.4914
 6416W        W 9935   1.272   4.875  10.525  0.0660  0.0875  0.0056
 6417W        W 9936   1.357   7.010  10.047 -0.0374 -0.2279  0.1427
 6418W        W 9937   6.560   1.022   8.426  0.0259 -0.1764  0.1765
 6419W        W 9938   7.690   0.855  10.723 -0.0379  0.0780 -0.0293
 6420W        W 9939   5.303   9.110   2.067  0.1043  0.2092  0.2969
 6421W        W 9940   7.047   8.839  10.565 -0.0542  0.0152  0.0137
 6422W        W 9941   0.140   7.558   2.947  0.2333 -0.1614 -0.2874
 6423W        W 9942   0.355   2.657   1.860 -0.1029  0.2537  0.2784
 6424W        W 9943   3.491   7.142   0.400  0.0166  0.1480 -0.1058
 6425W        W 9944   3.340   5.660   2.686 -0.2496 -0.2175 -0.3540
 6426W        W 9945   2.242   6.536  10.879 -0.1209  0.2574 -0.0299
 6427W        W 9946   6.256   7.489  12.394  0.1586 -0.1472  0.1786
 6428W        W 9947   1.776   6.405   2.533  0.0136  0.1159 -0.0640
 6429W        W 9948   9.148   5.041   2.442  0.1671  0.0386  0.0505
 6430W        W 9949   4.869   3.473  10.473 -0.1114  0.3364  0.0193
 6431W        W 9950   6.761   6.744  11.730  0.4471  0.1564  0.1303
 6432W        W 9951   2.004   3.828  12.119  0.1616  0.0941 -0.2392
 6433W        W 9952   9.684   7.139   1.830  0.0628 -0.1421  0.1217
 6434W        W 9953   2.382   8.343  12.485  0.0769  0.3559 -0.1031
 6435W        W 9954   6.496   5.063  11.498 -0.0359 -0.3861 -0.2059
 6436W        W 9955   1.935   4.158   3.032 -0.0274  0.0552  0.2786
 6437W        W 9956   4.419   8.715   0.448  0.0493  0.1751 -0.1472
 6438W        W 9957   3.348   0.905  12.048 -0.1573 -0.1078  0.3666
 6439W        W 9958   0.599   0.786   1.039  0.2300 -0.0385  0.0231
 6440W        W 9959   8.892   3.875  10.379  0.0641  0.3080  0.2104
 6441W        W 9960   1.020   3.438   2.355  0.0897 -0.0780 -0.1876
 6442W        W 9961   8.215   4.166   2.045  0.0631 -0.0219 -0.1007
 6443W        W 9962   7.594   1.206   9.312  0.0571  0.1044  0.0259
 6444W        W 9963   1.481   7.316  11.649  0.2495 -0.0577 -0.3199
 6445W        W 9964   7.524   3.702   9.880  0.1131  0.1576  0.2085
 6446W        W 9965   8.872   3.434  11.158  0.2813  0.0769  0.1196
 6447W        W 9966   7.350   3.194   0.094 -0.3476  0.0690  0.1838
 6448W        W 9967   3.847   0.802  10.759  0.1222 -0.1421  0.0495
 6449W        W 9968   5.590   6.437   3.745  0.2190  0.1184  0.2484
 6450W        W 9969   3.668   7.960   0.448  0.0624 -0.0380 -0.3151
 6451W        W 9970   7.161   0.330   8.290  0.1555 -0.0145  0.1552
 6452W        W 9971   8.717   0.089   1.827  0.0202  0.0738  0.2586
 6453W        W 9972   4.856   1.529   3.038  0.1681 -0.3529 -0.1138
 6454W        W 9973   5.362   3.462  10.285  0.2143 -0.3250 -0.0805
 6455W        W 9974   6.782   7.014   2.609  0.1377 -0.1357 -0.2220
 6456W        W 9975   7.302   0.605  11.008  0.2669  0.2683  0.0649
 6457W        W 9976   6.509   3.893  11.228  0.1115 -0.0975  0.2162
 6458W        W 9977   8.123   0.565   3.802  0.0743 -0.0199 -0.0360
 6459W        W 9978   8.906   6.409   2.677 -0.1283 -0.1030  0.1428
 6460W        W 9979   5.951   0.955  11.439  0.0864 -0.0742 -0.0857
 6461W        W 9980   3.270   1.649   4.211 -0.0894  0.0237 -0.0564
 6462W        W 9981   3.226   1.907   0.979  0.2075  0.2430  0.0027
 6463W        W 9982   4.912   6.862   4.101  0.1075  0.2603  0.1066
 6464W        W 9983   7.420   1.392  12.524 -0.2708 -0.1221 -0.1889
 6465W        W 9984   8.552   9.396   1.543 -0.0766  0.0393 -0.0151
 6466W        W 9985   2.702   1.393   2.329 -0.3154 -0.0376 -0.1960
 6467W        W 9986   3.592   7.057  10.515  0.5527  0.0633 -0.0454
 6468W        W 9987   5.423   1.256   1.547  0.1956 -0.0099  0.1244
 6469W        W 9988   4.615   0.119   1.881 -0.1968 -0.1056  0.3704
 6470W        W 9989   9.479   1.128   1.354 -0.1587 -0.2251 -0.3644
 6471W        W 9990   1.619   1.038   3.252  0.0809 -0.1061  0.0065
 6472W        W 9991   1.921   5.956   3.152 -0.0868 -0.1663 -0.0559
 6473W        W 9992   5.134   0.203  11.909  0.2172  0.1141  0.1413
 6474W        W 9993   3.649   4.129   1.939  0.1135  0.3694  0.0229
 6475W        W 9994   8.503   6.941  11.071 -0.2137  0.0771  0.2605
 6476W        W 9995   1.526   7.902   9.373 -0.2521  0.0898 -0.0882
 6477W        W 9996   7.483   0.142   0.525  0.0894  0.2378  0.1022
 6478W        W 9997   2.280   0.193  10.063 -0.2792  0.3046  0.0505
 6479W        W 9998   2.287   7.051   9.922 -0.0208 -0.3163 -0.0155
 6480W        W 9999   2.461   6.105   0.311  0.0760 -0.0956  0.0172
 6481W        W10000   3.684   6.354  10.887 -0.2376 -0.2073  0.1192
 6482W        W10001   5.184   4.648   3.850  0.0177  0.1821  0.3023
 6483W        W10002   4.852   5.516   8.781  0.0865  0.1738 -0.0776
 6484W        W10003   6.216   4.153   0.999  0.2533 -0.1449  0.2701
 6485W        W10004   0.056   9.551  11.393  0.1995 -0.1577 -0.2560
 6486W        W10005   0.715   4.736   2.584 -0.0234  0.3134 -0.1619
 6487W        W10006   6.882   3.613   0.614 -0.2448  0.2055 -0.3681
 6488W        W10007   3.169   0.308   9.121  0.1437 -0.0994  0.0903
 6489W        W10008   3.971   9.092   1.450 -0.2630  0.2647  0.1257
 6490W        W10009   3.184   9.260   2.053 -0.0691 -0.2124 -0.1010
 6491W        W10010   6.467   3.181   2.263  0.2931 -0.0150  0.1462
 6492W        W10011   8.614   3.189   2.682  0.0765  0.0835 -0.2728
 6493W        W10012   6.780   7.339   0.168 -0.0612 -0.1805 -0.1157
 6494W        W10013   8.451   3.562   2.928  0.0609 -0.1522 -0.0843
 6495W        W10014   1.141   2.803  11.567  0.1226 -0.0504  0.0693
 6496W        W10015   4.703   7.863   1.037  0.2346  0.0172 -0.0716
 6497W        W10016   7.349   0.294   1.556  0.2809  0.1556 -0.0892
 6498W        W10017   6.940   1.280  10.508  0.0141  0.0705 -0.4038
 6499W        W10018   7.384   7.666   2.153 -0.2480  0.0737  0.1032
 6500W        W10019   6.894   6.603   1.888 -0.3205 -0.1045  0.1768
 6501W        W10020   6.354   8.209   3.187  0.2122 -0.0180 -0.1079
 6502W        W10021   2.943   8.139   1.124  0.1593 -0.2617 -0.3021
 6503W        W10022   4.726   6.485  11.804  0.0085 -0.0698  0.3179
 6504W        W10023   1.631   5.693   1.999  0.1659 -0.4415 -0.0542
 6505W        W10024   7.600   7.502   3.612 -0.2845  0.2516 -0.0657
 6506W        W10025   4.685   0.728  12.422  0.3858 -0.1424 -0.2138
 6507W        W10026   2.050   2.109  10.504 -0.0851 -0.1010  0.0178
 6508W        W10027   1.848   8.643   0.466  0.0810  0.0442  0.0750
 6509W        W10028   9.158   0.490   8.299 -0.0840  0.0034 -0.2149
 6510W        W10029   3.099   6.681   1.466  0.1598 -0.2775  0.4085
 6511W        W10030   1.272   1.650  10.238 -0.1240 -0.1778 -0.4227
 6512W        W10031   7.628   3.524  11.361  0.2539 -0.1872 -0.2599
 6513W        W10032   1.471   5.588   9.487  0.0061  0.3788 -0.0558
 6514W        W10033   6.486   0.528   0.832  0.0497 -0.0758 -0.1881
 6515W        W10034   0.639   1.242   9.293 -0.2876 -0.0712  0.2252
 6516W        W10035   8.718   3.788   8.738 -0.0854 -0.0543  0.3358
 6517W        W10036   7.882   6.648   2.860  0.0145  0.2195  0.1487
 6518W        W10037   8.244   2.026   8.784  0.0170  0.2067 -0.0175
 6519W        W10038   6.578   1.423   1.017 -0.0991 -0.3357  0.0160
 6520W        W10039   2.483   3.781  11.221 -0.2155  0.2456 -0.0742
 6521W        W10040   9.026   5.445   9.212 -0.1348  0.0887 -0.0828
 6522W        W10041   8.508   4.583   9.268 -0.1868  0.0754  0.1874
 6523W        W10042   7.560   7.096  11.320  0.0637  0.1377  0.1620
 6524W        W10043   0.587   7.776  11.561 -0.1194 -0.0553  0.0305
 6525W        W10044   7.446   4.170   3.608 -0.0483  0.3355  0.0614
 6526W        W10045   5.055   7.861  10.685  0.0959 -0.2028 -0.1225
 6527W        W10046   7.013   3.724   9.815  0.1017  0.0470  0.1418
 6528W        W10047   5.513   5.924  11.280 -0.1650 -0.2870 -0.3202
 6529W        W10048   2.360   6.166   9.673  0.0883 -0.0517 -0.0251
 6530W        W10049   6.443   6.952   8.730  0.0788  0.3910  0.1713
 6531W        W10050   4.670   4.564   3.963  0.0604 -0.0363 -0.0419
 6532W        W10051   9.453   2.243  11.602  0.0717  0.3254  0.2328
 6533W        W10052   5.169   8.428   0.447  0.2585  0.0420  0.2467
 6534W        W10053   2.729   6.041   2.514  0.0884 -0.4166  0.0453
 6535W        W10054   3.875   0.566   4.251  0.2287 -0.1472  0.1265
 6536W        W10055   0.442   7.441  10.364 -0.1520  0.2876 -0.1237
 6537W        W10056   2.690   5.232  11.671  0.1186  0.1434 -0.0537
 6538W        W10057   1.300   7.592  10.255 -0.1661  0.0139  0.1099
 6539W        W10058   7.618   1.671  11.983  0.1782 -0.0606 -0.1546
 6540W        W10059   6.699   1.221   9.207 -0.0630  0.0478  0.0288
 6541W        W10060   5.241   9.218   0.150 -0.2122 -0.0473 -0.0528
 6542W        W10061   8.442   5.472   9.135 -0.2191  0.0598 -0.1821
 6543W        W10062   5.201   7.231   1.566  0.0371  0.1795 -0.1694
 6544W        W10063   4.814   3.140   3.477  0.1783 -0.0054 -0.0257
 6545W        W10064   7.002   6.670  12.304  0.0127  0.0885  0.0289
 6546W        W10065   0.232   2.023  11.150  0.2850  0.3439 -0.1437
 6547W        W10066   8.270   8.001   3.396  0.2701 -0.0745  0.0791
 6548W        W10067   1.102   1.995   1.126 -0.1730 -0.1347 -0.0628
 6549W        W10068   0.654   5.019   9.314 -0.1249  0.3429  0.0776
 6550W        W10069   2.402   1.839   4.476  0.2440  0.1052  0.0502
 6551W        W10070   9.124   7.688   2.215 -0.1114 -0.3301  0.2603
 6552W        W10071   7.401   6.221   9.076 -0.1733 -0.0934  0.1537
 6553W        W10072   0.258   9.439   2.663  0.1458  0.2184 -0.0770
 6554W        W10073   4.202   0.895   1.970  0.0357 -0.0100 -0.1086
 6555W        W10074   5.116   3.359   3.167 -0.0792  0.1074 -0.4606
 6556W        W10075   9.254   6.477   0.984  0.0769  0.0118  0.2275
 6557W        W10076   8.790   1.824   9.692 -0.0390  0.1409 -0.0965
 6558W        W10077   4.875   9.670   1.392  0.1607  0.2974 -0.0237
 6559W        W10078   1.452   4.775  10.089 -0.0486  0.1087 -0.0311
 6560W        W10079   7.732   7.626  11.274  0.0300  0.0790  0.1264
 6561W        W10080   7.139   2.810   8.974  0.1803 -0.1577  0.0521
 6562W        W10081   9.507   6.825   0.629  0.0498 -0.1496 -0.1425
 6563W        W10082   2.288   3.378  11.930  0.1645 -0.0004  0.1040
 6564W        W10083   9.344   6.001   4.730  0.2600 -0.0009  0.0393
 6565W        W10084   0.392   8.724   3.114 -0.1703 -0.0574 -0.1902
 6566W        W10085   5.924   2.159   1.450  0.1797 -0.1488  0.1993
 6567W        W10086   9.204   5.838   9.682 -0.1642 -0.0003 -0.4143
 6568W        W10087   4.573   7.429   0.794 -0.2727  0.0318 -0.1756
 6569W        W10088   5.390   0.125   3.628  0.1147 -0.1351 -0.1656
 6570W        W10089   5.690   0.100   4.497  0.3175  0.1609 -0.2496
 6571W        W10090   4.060   0.816   0.760 -0.2262  0.2698 -0.0748
 6572W        W10091   0.094   4.305   2.010 -0.3857 -0.1257 -0.1538
 6573W        W10092   7.879   4.608   8.565  0.1584  0.0415 -0.0453
 6574W        W10093   8.553   3.846   0.438  0.3016 -0.2633  0.1415
 6575W        W10094   9.021   1.576   8.962 -0.1412  0.1612  0.1167
 6576W        W10095   6.790   0.667   9.845 -0.0435  0.1157  0.1120
 6577W        W10096   3.865   1.070  12.250  0.0028  0.2379  0.0985
 6578W        W10097   1.905   4.237   1.646 -0.2323  0.1421 -0.3913
 6579W        W10098   7.625   1.954   8.523  0.0547 -0.0542  0.2508
 6580W        W10099   1.688   9.018  12.289 -0.2425  0.0056  0.1010
 6581W        W10100   1.293   9.275   9.129  0.0471  0.0151 -0.0090
 6582W        W10101   4.782   4.416   1.245  0.1369  0.2326  0.0886
 6583W        W10102   2.106   3.076  10.384 -0.1600 -0.3630  0.0830
 6584W        W10103   0.320   0.997   3.337 -0.4033 -0.2250 -0.0377
 6585W        W10104   9.429   2.472   1.002  0.3012 -0.1364  0.0122
 6586W        W10105   5.683   2.143  11.227  0.3266  0.2502 -0.0053
 6587W        W10106   0.832   8.413  12.528 -0.0159 -0.2235 -0.0135
 6588W        W10107   8.414   0.734   2.932 -0.0627  0.0015 -0.2284
 6589W        W10108   7.257   6.691   9.160 -0.1552  0.1457 -0.0311
 6590W        W10109   2.407   3.664   9.637  0.2396  0.0597 -0.1914
 6591W        W10110   6.873   3.512   2.332 -0.1417  0.0958  0.2823
 6592W        W10111   8.017   7.559   0.093 -0.2217  0.1816 -0.0714
 6593W        W10112   8.438   4.112  11.779 -0.1028  0.0670 -0.0514
 6594W        W10113   8.886   6.223  11.472 -0.0320 -0.0588  0.0929
 6595W        W10114   0.980   1.129   9.780 -0.1218 -0.1673  0.1546
 6596W        W10115   4.250   8.203   1.570 -0.2231  0.1764 -0.1240
 6597W        W10116   2.098   3.005   3.965  0.1917 -0.2343 -0.1392
 6598W        W10117   4.091   9.027   2.300 -0.1607 -0.1901  0.1996
 6599W        W10118   6.359   7.954   1.087  0.1104  0.0911  0.0455
 6600W        W10119   1.058   1.890  11.767 -0.0061  0.1273 -0.0290
 6601W        W10120   0.709   0.989   8.256  0.0742 -0.0777  0.1367
 6602W        W10121   5.246   4.075  11.196  0.2907 -0.0525  0.0728
 6603W        W10122   5.659   2.607   2.238  0.3130  0.1592  0.0734
 6604W        W10123   4.682   8.619   2.810 -0.1187  0.2706 -0.0131
 6605W        W10124   3.154   1.259   8.795 -0.0396  0.0952 -0.3738
 6606W        W10125   5.334   8.916   1.265  0.0511 -0.1643 -0.1174
 6607W        W10126   0.372   3.965  11.237  0.1206  0.0294 -0.1279
 6608W        W10127   9.366   3.118   9.285  0.0366 -0.2538  0.2183
 6609W        W10128   6.843   1.719   2.986  0.0493  0.1524  0.0523
 6610W        W10129   3.508   0.096   0.458 -0.3149  0.0545  0.1172
 6611W        W10130   5.633   1.632   2.360 -0.1825 -0.2561 -0.1515
 6612W        W10131   0.647   6.067  11.026 -0.0411 -0.1018 -0.1896
 6613W        W10132   0.238   5.217   1.959  0.0272  0.4215  0.2113
 6614W        W10133   7.387   1.943  11.544 -0.1941 -0.1943 -0.4923
 6615W        W10134   1.870   2.447   2.805 -0.1816  0.2902  0.1475
 6616W        W10135   5.406   8.736  10.552 -0.1119 -0.0610  0.1439
 6617W        W10136   5.455   2.186   2.166  0.0625  0.1160  0.1644
 6618W        W10137   0.902   5.491  12.223  0.1266 -0.1011 -0.0981
 6619W        W10138   1.053   9.287   8.665  0.0718  0.1822 -0.1089
 6620W        W10139   1.949   0.733   8.566  0.0972  0.3040  0.1972
 6621W        W10140   0.527   4.570   3.756  0.2685  0.2139 -0.1193
 6622W        W10141   4.894   7.335  12.085  0.1026 -0.1839 -0.1580
 6623W        W10142   7.257   5.734   2.921  0.0636 -0.1542  0.1658
 6624W        W10143   0.617   2.080   1.110  0.0803  0.1259  0.2055
 6625W        W10144   1.338   7.267  10.618  0.1101 -0.0949 -0.0268
 6626W        W10145   7.617   2.348   0.275  0.3302  0.0462 -0.2920
 6627W        W10146   1.024   5.446   1.291 -0.1729  0.1553 -0.0843
 6628W        W10147   3.843   1.322  11.009 -0.0218 -0.3564  0.1884
 6629W        W10148   8.044   2.804  10.028 -0.1965  0.1254 -0.0494
 6630W        W10149   2.661   5.583   4.365  0.2206 -0.0372  0.0495
 6631W        W10150   6.896   2.050   1.428 -0.1935 -0.3230  0.0292
 6632W        W10151   5.471   9.508  11.940  0.1721  0.2017 -0.2573
 6633W        W10152   8.472   3.786   2.269  0.1744  0.3659 -0.0108
 6634W        W10153   0.218   5.023   9.544 -0.1326 -0.2078 -0.5091
 6635W        W10154   5.536   6.803   1.514  0.4517 -0.1402 -0.2290
 6636W        W10155   5.822   5.551   8.486 -0.2893 -0.0280  0.3283
 6637W        W10156   1.753   0.002   8.851  0.1257 -0.1006  0.1179
 6638W        W10157   0.593   6.397   3.864 -0.1531  0.1523 -0.0984
 6639W        W10158   0.588   7.558   9.082 -0.0219  0.1297 -0.2854
 6640W        W10159   5.421   2.136   1.609 -0.3311 -0.0278  0.0710
 6641W        W10160   0.618   6.144   1.693 -0.1865  0.3025 -0.0327
 6642W        W10161   2.514   2.692   1.936  0.1198  0.3458 -0.0234
 6643W        W10162   7.551   0.432   8.538 -0.0658  0.2142 -0.0539
 6644W        W10163   4.870   5.543   0.846  0.4405 -0.0173  0.0679
 6645W        W10164   5.654   6.830  11.981 -0.0663 -0.3632 -0.0981
 6646W        W10165   0.247   3.865   2.586 -0.1172  0.2019  0.0414
 6647W        W10166   0.579   5.620   9.056  0.3165 -0.2282  0.0215
 6648W        W10167   7.209   1.566   8.625 -0.2853 -0.0537  0.0003
 6649W        W10168   3.651   0.430   3.136 -0.3179 -0.0967  0.0038
 6650W        W10169   1.370   9.351  10.538  0.1602  0.1992 -0.2502
 6651W        W10170   0.341   8.412   9.547 -0.1230 -0.2552  0.1568
 6652W        W10171   1.930   1.331  10.624  0.2236  0.2395 -0.1126
 6653W        W10172   9.128   5.033   8.936  0.0396  0.2424  0.0428
 6654W        W10173   9.501   4.253  11.893 -0.0042 -0.0427 -0.0191
 6655W        W10174   6.210   9.677   0.176  0.2785  0.0517  0.4077
 6656W        W10175   5.298   0.598   0.351  0.1431 -0.0150 -0.0262
 6657W        W10176   9.490   2.113   9.273  0.0200  0.1252  0.0271
 6658W        W10177   7.015   9.627   3.381  0.3087  0.0060  0.2861
 6659W        W10178   2.802   8.460   9.691  0.1596  0.1117 -0.3212
 6660W        W10179   2.275   3.924   0.086  0.4711 -0.1308 -0.0170
 6661W        W10180   3.738   0.400   0.798  0.1187  0.0706 -0.3704
 6662W        W10181   2.809   2.333   1.789 -0.2404  0.0423  0.3571
 6663W        W10182   4.473   1.984   2.820 -0.1900  0.1708 -0.0153
 6664W        W10183   3.900   9.693   2.862  0.0808  0.0462 -0.0553
 6665W        W10184   1.054   9.073  11.640 -0.3163  0.1576  0.2403
 6666W        W10185   5.628   9.377  11.510 -0.4840 -0.2426 -0.3340
 6667W        W10186   7.962   8.858  10.661  0.0768  0.4682 -0.2647
 6668W        W10187   6.800   5.082  12.343  0.0379  0.1598 -0.0195
 6669W        W10188   0.159   5.075   1.438 -0.0598 -0.0641 -0.3164
 6670W        W10189   6.566   5.860   3.181  0.1210  0.0593 -0.2275
 6671W        W10190   5.346   4.936   0.028 -0.1024 -0.0626 -0.3077
 6672W        W10191   8.770   8.797   3.071 -0.0573  0.0008  0.3596
 6673W        W10192   1.035   2.480  11.225  0.0124 -0.1994  0.0471
 6674W        W10193   2.283   6.191   1.466  0.1114  0.1310 -0.2428
 6675W        W10194   8.731   7.497   0.753 -0.1348  0.1240  0.0197
 6676W        W10195   5.042   6.489   2.268 -0.0670 -0.0955  0.1122
 6677W        W10196   5.540   7.673   2.201 -0.2698  0.1501  0.2474
 6678W        W10197   0.943   8.696  12.055  0.2757  0.0653  0.1938
 6679W        W10198   6.951   8.508   9.559  0.1641 -0.0291 -0.0565
 6680W        W10199   6.859   4.050  10.728  0.0312  0.2691 -0.0427
 6681W        W10200   8.558   1.451   3.840 -0.0772  0.1406  0.0000
 6682W        W10201   5.892   2.910   9.142  0.1867  0.1909  0.1891
 6683W        W10202   6.955   4.214  11.686  0.1717  0.0507 -0.0293
 6684W        W10203   4.228   1.753   8.523  0.0782  0.0858  0.5731
 6685W        W10204   0.573   0.275   0.804 -0.2086  0.0037 -0.0560
 6686W        W10205   2.714   0.274  11.087  0.0705 -0.5066 -0.0439
 6687W        W10206   3.429   7.332   1.568  0.1811  0.1169  0.1431
 6688W        W10207   3.092   9.104   3.150  0.1124 -0.1284  0.0965
 6689W        W10208   4.903   0.595   9.630 -0.0257  0.1486 -0.3305
 6690W        W10209   7.326   2.083   3.617 -0.0369  0.1433  0.0597
 6691W        W10210   8.555   0.457  10.969  0.3850  0.0367 -0.0821
 6692W        W10211   6.696   5.817   9.227 -0.0446  0.1020  0.3056
 6693W        W10212   0.624   9.648   1.650 -0.1698  0.2908 -0.0584
 6694W        W10213   1.762   1.703   1.559 -0.0138  0.0650 -0.0040
 6695W        W10214   4.605   3.219   9.728 -0.4791 -0.2034  0.1067
 6696W        W10215   8.599   4.094   9.510  0.3827  0.3742 -0.2340
 6697W        W10216   1.728   4.606   2.076  0.3036 -0.2683 -0.3327
 6698W        W10217   5.269   7.383  10.240  0.0419 -0.2310 -0.0214
 6699W        W10218   2.193   0.494   3.227 -0.0835 -0.1080 -0.2942
 6700W        W10219   5.833   5.502  11.341  0.0014 -0.1092  0.0502
 6701W        W10220   3.756   9.325  10.284  0.0451  0.2231 -0.2307
 6702W        W10221   8.630   2.656  12.031  0.0480 -0.1227 -0.0091
 6703W        W10222   9.482   2.536   3.267 -0.0953 -0.0883 -0.2964
 6704W        W10223   0.944   0.925   8.828  0.0860 -0.2521 -0.0934
 6705ION    NA+10224   1.930   0.948   1.935 -0.1867  0.1291  0.2652
 6706ION    NA+10225   5.120   6.616  10.031 -0.2312 -0.2127  0.2537
 6707ION    NA+10226   5.725   8.349  11.679  0.2065  0.1394 -0.2436
 6708ION    NA+10227   0.505   0.771   8.635 -0.1318  0.0987 -0.0312
 6709ION    NA+10228   4.762   6.770   3.591  0.1837  0.3287 -0.2035
 6710ION    NA+10229   4.903   3.504   4.265 -0.4478 -0.3579 -0.2174
 6711ION    NA+10230   0.477   4.757  12.067  0.1135  0.0121 -0.1048
 6712ION    NA+10231   7.864   3.432   3.200  0.0586  0.1393 -0.1204
 6713ION    NA+10232   2.553   8.571   1.734 -0.1345  0.1265 -0.1157
 6714ION    NA+10233   5.490   6.558   2.553  0.0044 -0.1923 -0.1117
 6715ION    NA+10234   7.081   5.362  10.068 -0.1102  0.0122 -0.1229
 6716ION    NA+10235   1.979   7.885  12.006 -0.1381 -0.0861  0.0125
 6717ION    NA+10236   9.165   8.433   2.217 -0.0744  0.1591  0.0871
 6718ION    NA+10237   9.177   9.483   1.414 -0.1973 -0.0229 -0.4783
 6719ION    NA+10238   3.139   4.885   0.302  0.0673 -0.0047 -0.4533
 6720ION    NA+10239   3.694   2.627   1.742 -0.1834  0.0660  0.0469
 6721ION    NA+10240   6.997   9.631   4.269  0.2522  0.2092 -0.0364
 6722ION    NA+10241   7.122   8.705   4.465 -0.2296 -0.1095 -0.2040
 6723ION    NA+10242   3.458   2.308   8.183  0.1044  0.1160  0.2520
 6724ION    NA+10243   1.112   2.108   3.859 -0.1186 -0.4729 -0.2468
 6725ION    NA+10244   2.101   6.224   8.781 -0.0952 -0.1396 -0.2032
 6726ION    NA+10245   5.838   3.318   4.248 -0.1999 -0.0667 -0.1865
 6727ION    NA+10246   5.967   8.178   4.053 -0.0875 -0.0303  0.1561
 6728ION    NA+10247   2.226   7.134  11.032  0.3269 -0.0547  0.0839
 6729ION    NA+10248   1.260   7.807  10.726 -0.0079 -0.1114 -0.0306
 6730ION    NA+10249   9.330   8.200  12.146  0.1291 -0.0252  0.1450
 6731ION    NA+10250   4.543   1.571   1.149 -0.2970 -0.0413  0.4470
 6732ION    NA+10251   9.071   0.356   3.338 -0.2800  0.2458  0.1282
 6733ION    NA+10252   3.867   5.070   1.590 -0.0240 -0.1866  0.1786
 6734ION    NA+10253   8.942   1.413  11.919  0.0570 -0.0315  0.0416
 6735ION    NA+10254   3.971   1.570  12.325 -0.0039 -0.0478  0.3758
 6736ION    NA+10255   6.825   0.623  11.266  0.0588  0.3563  0.0237
 6737ION    NA+10256   5.390   8.739   3.876  0.0967  0.0179 -0.1060
 6738ION    NA+10257   3.502   0.696   3.990  0.0851  0.1197  0.2096
 6739ION    NA+10258   4.508   1.819   9.105  0.1961  0.2232  0.1844
 6740ION    NA+10259   8.824   6.283   8.457 -0.1943  0.1376 -0.1185
 6741ION    NA+10260   9.494   5.163  11.976  0.2217 -0.0028 -0.1651
 6742ION    NA+10261   9.148   7.950   8.197 -0.1425 -0.1381 -0.2252
 6743ION    NA+10262   1.294   2.979  11.061  0.2500 -0.1557 -0.0802
 6744ION    NA+10263   7.825   4.096   7.913  0.2926 -0.0175  0.2671
 6745ION    NA+10264   5.677   5.082   4.522 -0.0590 -0.1308  0.0513
 6746ION    NA+10265   7.446   8.378   3.207 -0.1000 -0.4135 -0.1249
 6747ION    NA+10266   0.526   6.898   4.020 -0.1753  0.1873 -0.0355
 6748ION    NA+10267   1.150   0.280   4.084 -0.2117  0.2701  0.0118
 6749ION    NA+10268   6.369   3.931   8.956 -0.2735 -0.1404 -0.1092
 6750ION    NA+10269   8.247   8.108   8.249  0.1453 -0.1866  0.0901
 6751ION    NA+10270   2.136   1.095  11.052  0.0428 -0.2006 -0.0124
 6752ION    NA+10271   5.149   1.612  11.537  0.1964 -0.1190 -0.1666
 6753ION    NA+10272   3.018   7.974   9.387  0.0943  0.0003  0.0555
 6754ION    NA+10273   0.431   2.363  10.041  0.2362 -0.0196  0.0784
 6755ION    NA+10274   9.232   4.849  11.122  0.0447 -0.0642  0.3894
 6756ION    NA+10275   9.617   5.600   1.564 -0.1864 -0.3909  0.0383
 6757ION    NA+10276   0.436   2.310   7.938  0.1650  0.2093  0.2687
 6758ION    NA+10277   3.364   7.791   1.235  0.1221 -0.0335  0.2218
 6759ION    NA+10278   6.363   4.541   2.849 -0.1799  0.2411 -0.1743
 6760ION    NA+10279   2.213   5.260   0.920 -0.0137 -0.1772 -0.0139
 6761ION    NA+10280   2.124   5.217   3.636  0.0623  0.1766  0.3523
 6762ION    NA+10281   0.286   0.347   1.729 -0.1970  0.0259 -0.3195
 6763ION    NA+10282   1.907   0.795   2.913 -0.0245 -0.1925  0.1819
 6764ION    NA+10283   2.122   5.530   4.142  0.1819 -0.2326 -0.1180
 6765ION    NA+10284   6.993   6.527   9.663 -0.0618  0.0124 -0.2005
 6766ION    NA+10285   1.683   5.656  10.017 -0.2931 -0.1210  0.1782
 6767ION    NA+10286   3.599   3.215   2.662  0.2682 -0.3539  0.1463
 6768ION    NA+10287   1.358   4.289   0.068  0.0496  0.0457  0.2117
 6769ION    NA+10288   4.776   1.198   9.681 -0.0921  0.1208 -0.1891
 6770ION    NA+10289   5.069   7.455   0.779 -0.2334 -0.1355  0.0350
 6771ION    NA+10290   8.117   4.003   2.891  0.0564 -0.0822 -0.0386
 6772ION    NA+10291   6.022   6.135   3.183 -0.1234  0.1907  0.1067
 6773ION    NA+10292   0.362   8.729   2.038 -0.3283  0.0893 -0.0925
 6774ION    NA+10293   2.526   7.910   2.663 -0.1338 -0.0328  0.1308
 6775ION    NA+10294   3.756   3.920   3.060 -0.0293  0.1955  0.0840
 6776ION    CL-10295   0.165   9.152   2.220  0.0018  0.0053 -0.2797
 6777ION    CL-10296   3.463   9.036   9.500  0.0790 -0.1675 -0.2426
 6778ION    CL-10297   4.801   4.595   3.478 -0.2254 -0.0876  0.2942
 6779ION    CL-10298   2.923   2.512   4.587 -0.2450 -0.0815  0.3163
 6780ION    CL-10299   4.479   1.052   1.159 -0.3265  0.0259 -0.2734
 6781ION    CL-10300   2.595   6.967  10.727 -0.2582  0.3711 -0.0203
 6782ION    CL-10301   1.911   4.729   3.556 -0.1649 -0.2646  0.1062
 6783ION    CL-10302   4.288   7.061   0.617 -0.3491  0.1113 -0.2090
 6784ION    CL-10303   4.332   2.253   8.920  0.0146  0.3786 -0.1350
 6785ION    CL-10304   1.125   0.928   3.236 -0.1302 -0.1377 -0.0258
 6786ION    CL-10305   9.372   4.878  11.621  0.2207 -0.2907 -0.2101
 6787ION    CL-10306   0.604   6.118   2.699 -0.0045  0.0697 -0.1178
 6788ION    CL-10307   7.144   1.306   3.238  0.1138  0.2035 -0.1720
 6789ION    CL-10308   0.875   2.569   2.336  0.0087  0.0168 -0.1079
 6790ION    CL-10309   2.094   8.113  11.539  0.0747 -0.1048 -0.0142
 6791ION    CL-10310   3.434   5.056   9.252  0.1154  0.1344 -0.0433
 6792ION    CL-10311   7.546   0.431   9.055  0.0289 -0.2167  0.1541
 6793ION    CL-10312   9.611   0.598   1.504 -0.1006 -0.2405  0.1686
 6794ION    CL-10313   9.213   0.842   3.419 -0.4043  0.1086 -0.0002
 6795ION    CL-10314   3.356   5.815   1.778 -0.1300 -0.0045 -0.2254
 6796ION    CL-10315   6.107   8.685   9.363  0.0378 -0.2001 -0.3742
 6797ION    CL-10316   7.842   4.015   3.301 -0.0394 -0.1615  0.1628
 6798ION    CL-10317   3.837   1.041   9.453 -0.1406  0.1269  0.3980
 6799ION    CL-10318   8.530   4.027   2.665  0.1246  0.0825 -0.2183
 6800ION    CL-10319   7.477   3.182   3.191  0.1567  0.0543 -0.0293
 6801ION    CL-10320   7.128   8.673   3.455  0.0474 -0.0316 -0.0224
 6802ION    CL-10321   1.972   6.330   9.282  0.1449 -0.2413  0.3369
 6803ION    CL-10322   6.811   2.609   3.234 -0.0325  0.1193 -0.0146
 6804ION    CL-10323   1.812   7.244  10.757 -0.0757  0.3151  0.0315
 6805ION    CL-10324   2.979   6.179   3.178 -0.2493 -0.0815 -0.0842
 6806ION    CL-10325   3.760   7.913   0.927 -0.0744  0.1514  0.0036
 6807ION    CL-10326   5.944   6.721   2.406 -0.1430 -0.1311  0.0183
 6808ION    CL-10327   7.369   6.783   9.724 -0.2188  0.0218  0.1543
 6809ION    CL-10328   1.771   8.656  10.387  0.0093  0.0383 -0.2533
 6810ION    CL-10329   0.694   2.020   4.066 -0.0399 -0.2315 -0.1048
 6811ION    CL-10330   4.673   2.168  11.223 -0.0595 -0.0136 -0.0945
 6812ION    CL-10331   6.882   5.182   3.537 -0.1686 -0.2528 -0.0641
 6813ION    CL-10332   0.990   3.907  12.265 -0.0564 -0.1182 -0.1117
 6814ION    CL-10333   2.444   5.685   3.762  0.2390 -0.0507  0.0491
 6815ION    CL-10334   4.511   1.768   9.600 -0.1883 -0.3549  0.3070
 6816ION    CL-10335   5.606   6.165   2.862  0.2094 -0.3123  0.0312
 6817ION    CL-10336   7.905   3.149   1.803 -0.0275  0.0534 -0.2900
 6818ION    CL-10337   7.322   4.910  10.026 -0.1983  0.2048  0.1510
 6819ION    CL-10338   8.669   1.113   9.064  0.1738  0.1716 -0.2709
 6820ION    CL-10339   1.146   7.944  11.643  0.2886  0.3358  0.1368
 6821ION    CL-10340   4.616   1.901   1.502 -0.3066 -0.1202  0.2366
 6822ION    CL-10341   1.728   0.016   3.296  0.2156 -0.0270  0.1342
 6823ION    CL-10342   5.854   7.864  12.108  0.3744  0.1825 -0.1999
 6824ION    CL-10343   6.156   5.517   8.872 -0.2269  0.0018 -0.1888
 6825ION    CL-10344   4.144   2.759   1.444 -0.0564  0.0551 -0.1217
 6826ION    CL-10345   1.080   2.228   3.191 -0.3465  0.0381  0.0595
 6827ION    CL-10346   5.958   3.735   3.552 -0.3769 -0.1003 -0.1059
 6828ION    CL-10347   3.935   3.962  11.400  0.0855  0.1768 -0.1133
 6829ION    CL-10348   0.760   3.027  11.278  0.2740 -0.0850  0.2356
 6830ION    CL-10349   8.271   3.225   3.410  0.3056 -0.2180  0.0452
 6831ION    CL-10350   5.117   7.659   1.267 -0.1418 -0.0022 -0.0057
 6832ION    CL-10351   1.745   0.683  12.483  0.1126  0.0338  0.2819
 6833ION    CL-10352   5.105   5.915   9.746 -0.0775  0.2390  0.1414
 6834ION    CL-10353   2.700   4.233   0.278  0.2885 -0.0868 -0.3042
 6835ION    CL-10354   7.272   9.502   8.392 -0.0910 -0.1211  0.0607
 6836ION    CL-10355   4.763   8.826  11.779 -0.1223  0.3136 -0.3125
 6837ION    CL-10356   8.744   0.981  12.198  0.0298 -0.0315 -0.1624
 6838ION    CL-10357   2.677   8.073   1.670 -0.1878  0.2169 -0.0693
 6839ION    CL-10358   2.159   0.471   2.623 -0.0392 -0.4936  0.2733
 6840ION    CL-10359   9.094   5.482  10.100 -0.1891  0.0339 -0.2946
 6841ION    CL-10360   3.464   8.535   1.887 -0.1256 -0.0491 -0.3080
 6842ION    CL-10361   6.380   4.057  10.749 -0.1316  0.0012 -0.0263
 6843ION    CL-10362   0.491   2.364  10.576  0.0018 -0.0168  0.2580
 6844ION    CL-10363   0.889   0.397   8.782 -0.0328 -0.1180 -0.1687
 6845ION    CL-10364   8.901   2.739   8.536  0.1930  0.0248 -0.0903
 6846ION    CL-10365   5.845   4.074   8.884  0.2370  0.1168 -0.1766
   9.71113   9.71113  12.53436
